256-Lipid DPPC Bilayer in water | solvent-stripped DPPC template
44789
    1DPPC    C1    1   5.809   5.563   5.614
    1DPPC    C2    2   5.821   5.721   5.449
    1DPPC    C3    3   5.683   5.541   5.397
    1DPPC    N4    4   5.727   5.626   5.509
    1DPPC    C5    5   5.620   5.699   5.578
    1DPPC    C6    6   5.531   5.797   5.503
    1DPPC    O7    7   5.586   5.924   5.468
    1DPPC    P8    8   5.463   6.027   5.461
    1DPPC    O9    9   5.548   6.147   5.451
    1DPPC   O10   10   5.390   5.988   5.584
    1DPPC   O11   11   5.380   6.000   5.325
    1DPPC   C12   12   5.406   6.111   5.239
    1DPPC   C13   13   5.362   6.089   5.094
    1DPPC   O14   14   5.227   6.129   5.066
    1DPPC   C15   15   5.209   6.261   5.042
    1DPPC   O16   16   5.296   6.336   5.087
    1DPPC   C17   17   5.073   6.309   4.992
    1DPPC   C18   18   5.077   6.427   4.895
    1DPPC   C19   19   4.962   6.436   4.795
    1DPPC   C20   20   4.964   6.559   4.703
    1DPPC   C21   21   5.079   6.543   4.603
    1DPPC   C22   22   5.074   6.645   4.489
    1DPPC   C23   23   5.184   6.592   4.396
    1DPPC   C24   24   5.176   6.674   4.268
    1DPPC   C25   25   5.258   6.595   4.165
    1DPPC   C26   26   5.242   6.671   4.033
    1DPPC   C27   27   5.301   6.602   3.910
    1DPPC   C28   28   5.268   6.679   3.781
    1DPPC   C29   29   5.326   6.610   3.658
    1DPPC   C30   30   5.276   6.660   3.523
    1DPPC   C31   31   5.303   6.811   3.514
    1DPPC   C32   32   5.409   5.949   5.052
    1DPPC   O33   33   5.503   5.958   4.946
    1DPPC   C34   34   5.592   5.855   4.933
    1DPPC   O35   35   5.592   5.772   5.024
    1DPPC   C36   36   5.683   5.853   4.810
    1DPPC   C37   37   5.665   5.720   4.737
    1DPPC   C38   38   5.752   5.709   4.612
    1DPPC   C39   39   5.896   5.707   4.665
    1DPPC   C40   40   6.002   5.702   4.555
    1DPPC   C41   41   5.995   5.577   4.468
    1DPPC   C42   42   6.048   5.615   4.329
    1DPPC   C43   43   6.033   5.491   4.241
    1DPPC   C44   44   6.088   5.520   4.101
    1DPPC   C45   45   6.065   5.411   3.996
    1DPPC   C46   46   6.106   5.475   3.863
    1DPPC   C47   47   6.018   5.591   3.815
    1DPPC   C48   48   6.082   5.658   3.693
    1DPPC   C49   49   5.991   5.758   3.621
    1DPPC   C50   50   5.966   5.868   3.725
    2DPPC    C1   51   3.473   0.842   1.761
    2DPPC    C2   52   3.629   0.950   1.632
    2DPPC    C3   53   3.424   1.056   1.688
    2DPPC    N4   54   3.534   0.975   1.742
    2DPPC    C5   55   3.583   1.026   1.870
    2DPPC    C6   56   3.647   1.165   1.870
    2DPPC    O7   57   3.668   1.213   2.003
    2DPPC    P8   58   3.762   1.343   2.010
    2DPPC    O9   59   3.698   1.433   1.912
    2DPPC   O10   60   3.905   1.308   2.025
    2DPPC   O11   61   3.711   1.383   2.158
    2DPPC   C12   62   3.781   1.311   2.261
    2DPPC   C13   63   3.763   1.349   2.408
    2DPPC   O14   64   3.868   1.285   2.483
    2DPPC   C15   65   3.992   1.333   2.457
    2DPPC   O16   66   4.007   1.451   2.426
    2DPPC   C17   67   4.106   1.251   2.517
    2DPPC   C18   68   4.073   1.185   2.651
    2DPPC   C19   69   4.174   1.075   2.683
    2DPPC   C20   70   4.152   1.014   2.822
    2DPPC   C21   71   4.274   0.924   2.840
    2DPPC   C22   72   4.250   0.847   2.970
    2DPPC   C23   73   4.205   0.935   3.087
    2DPPC   C24   74   4.181   0.834   3.200
    2DPPC   C25   75   4.153   0.914   3.327
    2DPPC   C26   76   4.050   0.840   3.412
    2DPPC   C27   77   3.995   0.943   3.512
    2DPPC   C28   78   3.914   0.862   3.613
    2DPPC   C29   79   3.907   0.954   3.735
    2DPPC   C30   80   3.827   0.885   3.845
    2DPPC   C31   81   3.683   0.871   3.795
    2DPPC   C32   82   3.619   1.312   2.442
    2DPPC   O33   83   3.594   1.352   2.577
    2DPPC   C34   84   3.467   1.331   2.621
    2DPPC   O35   85   3.373   1.312   2.544
    2DPPC   C36   86   3.438   1.370   2.766
    2DPPC   C37   87   3.306   1.319   2.825
    2DPPC   C38   88   3.296   1.362   2.971
    2DPPC   C39   89   3.424   1.321   3.044
    2DPPC   C40   90   3.417   1.406   3.171
    2DPPC   C41   91   3.415   1.555   3.136
    2DPPC   C42   92   3.451   1.654   3.247
    2DPPC   C43   93   3.408   1.796   3.210
    2DPPC   C44   94   3.256   1.800   3.191
    2DPPC   C45   95   3.207   1.944   3.175
    2DPPC   C46   96   3.071   1.945   3.105
    2DPPC   C47   97   3.036   2.087   3.061
    2DPPC   C48   98   2.910   2.059   2.980
    2DPPC   C49   99   2.785   2.002   3.047
    2DPPC   C50  100   2.683   1.962   2.940
    3DPPC    C1  101   6.441   4.485   5.210
    3DPPC    C2  102   6.465   4.495   5.450
    3DPPC    C3  103   6.535   4.312   5.332
    3DPPC    N4  104   6.530   4.459   5.324
    3DPPC    C5  105   6.651   4.538   5.297
    3DPPC    C6  106   6.652   4.683   5.345
    3DPPC    O7  107   6.564   4.773   5.278
    3DPPC    P8  108   6.577   4.922   5.339
    3DPPC    O9  109   6.626   4.904   5.477
    3DPPC   O10  110   6.460   5.004   5.298
    3DPPC   O11  111   6.711   4.965   5.260
    3DPPC   C12  112   6.667   4.989   5.126
    3DPPC   C13  113   6.779   5.038   5.033
    3DPPC   O14  114   6.725   5.081   4.907
    3DPPC   C15  115   6.790   5.163   4.820
    3DPPC   O16  116   6.874   5.238   4.870
    3DPPC   C17  117   6.726   5.185   4.683
    3DPPC   C18  118   6.812   5.170   4.558
    3DPPC   C19  119   6.747   5.149   4.421
    3DPPC   C20  120   6.827   5.222   4.313
    3DPPC   C21  121   6.798   5.148   4.182
    3DPPC   C22  122   6.865   5.213   4.061
    3DPPC   C23  123   6.830   5.130   3.938
    3DPPC   C24  124   6.877   4.985   3.955
    3DPPC   C25  125   6.824   4.900   3.840
    3DPPC   C26  126   6.890   4.763   3.824
    3DPPC   C27  127   6.833   4.673   3.714
    3DPPC   C28  128   6.878   4.527   3.724
    3DPPC   C29  129   6.838   4.470   3.860
    3DPPC   C30  130   6.887   4.327   3.881
    3DPPC   C31  131   6.810   4.244   3.778
    3DPPC   C32  132   6.874   4.918   5.036
    3DPPC   O33  133   6.817   4.815   4.954
    3DPPC   C34  134   6.889   4.702   4.935
    3DPPC   O35  135   7.003   4.699   4.982
    3DPPC   C36  136   6.852   4.595   4.832
    3DPPC   C37  137   6.751   4.502   4.898
    3DPPC   C38  138   6.712   4.383   4.809
    3DPPC   C39  139   6.666   4.443   4.676
    3DPPC   C40  140   6.651   4.332   4.571
    3DPPC   C41  141   6.647   4.384   4.427
    3DPPC   C42  142   6.776   4.461   4.399
    3DPPC   C43  143   6.798   4.509   4.255
    3DPPC   C44  144   6.853   4.650   4.233
    3DPPC   C45  145   7.004   4.656   4.258
    3DPPC   C46  146   7.058   4.798   4.271
    3DPPC   C47  147   7.199   4.805   4.329
    3DPPC   C48  148   7.202   4.760   4.475
    3DPPC   C49  149   7.163   4.875   4.569
    3DPPC   C50  150   7.166   4.833   4.716
    4DPPC    C1  151   8.532   4.077   1.747
    4DPPC    C2  152   8.440   4.205   1.603
    4DPPC    C3  153   8.347   3.979   1.607
    4DPPC    N4  154   8.399   4.091   1.687
    4DPPC    C5  155   8.303   4.135   1.790
    4DPPC    C6  156   8.165   4.170   1.734
    4DPPC    O7  157   8.144   4.275   1.639
    4DPPC    P8  158   7.992   4.270   1.585
    4DPPC    O9  159   7.942   4.131   1.596
    4DPPC   O10  160   7.985   4.351   1.462
    4DPPC   O11  161   7.906   4.346   1.697
    4DPPC   C12  162   7.969   4.474   1.714
    4DPPC   C13  163   7.883   4.588   1.659
    4DPPC   O14  164   7.940   4.717   1.689
    4DPPC   C15  165   7.871   4.827   1.650
    4DPPC   O16  166   7.786   4.814   1.561
    4DPPC   C17  167   7.927   4.960   1.698
    4DPPC   C18  168   7.844   5.015   1.814
    4DPPC   C19  169   7.819   4.917   1.929
    4DPPC   C20  170   7.946   4.893   2.011
    4DPPC   C21  171   7.901   4.818   2.137
    4DPPC   C22  172   7.822   4.928   2.209
    4DPPC   C23  173   7.765   4.869   2.338
    4DPPC   C24  174   7.699   4.980   2.420
    4DPPC   C25  175   7.621   4.923   2.538
    4DPPC   C26  176   7.498   4.851   2.481
    4DPPC   C27  177   7.412   4.785   2.589
    4DPPC   C28  178   7.342   4.887   2.679
    4DPPC   C29  179   7.275   4.799   2.785
    4DPPC   C30  180   7.176   4.896   2.849
    4DPPC   C31  181   7.057   4.810   2.891
    4DPPC   C32  182   7.744   4.556   1.716
    4DPPC   O33  183   7.730   4.578   1.856
    4DPPC   C34  184   7.619   4.521   1.909
    4DPPC   O35  185   7.567   4.421   1.859
    4DPPC   C36  186   7.578   4.568   2.048
    4DPPC   C37  187   7.525   4.447   2.126
    4DPPC   C38  188   7.541   4.450   2.278
    4DPPC   C39  189   7.496   4.310   2.320
    4DPPC   C40  190   7.506   4.286   2.471
    4DPPC   C41  191   7.426   4.372   2.570
    4DPPC   C42  192   7.446   4.325   2.714
    4DPPC   C43  193   7.348   4.407   2.798
    4DPPC   C44  194   7.354   4.361   2.943
    4DPPC   C45  195   7.322   4.212   2.958
    4DPPC   C46  196   7.305   4.174   3.105
    4DPPC   C47  197   7.415   4.216   3.203
    4DPPC   C48  198   7.415   4.155   3.343
    4DPPC   C49  199   7.274   4.162   3.402
    4DPPC   C50  200   7.279   4.185   3.553
    5DPPC    C1  201   8.665   4.759   5.607
    5DPPC    C2  202   8.842   4.914   5.621
    5DPPC    C3  203   8.823   4.745   5.779
    5DPPC    N4  204   8.809   4.772   5.635
    5DPPC    C5  205   8.894   4.687   5.550
    5DPPC    C6  206   8.841   4.547   5.520
    5DPPC    O7  207   8.825   4.459   5.631
    5DPPC    P8  208   8.751   4.324   5.585
    5DPPC    O9  209   8.713   4.220   5.683
    5DPPC   O10  210   8.778   4.290   5.443
    5DPPC   O11  211   8.615   4.410   5.581
    5DPPC   C12  212   8.530   4.320   5.508
    5DPPC   C13  213   8.399   4.377   5.456
    5DPPC   O14  214   8.319   4.270   5.403
    5DPPC   C15  215   8.190   4.287   5.363
    5DPPC   O16  216   8.139   4.398   5.348
    5DPPC   C17  217   8.118   4.162   5.312
    5DPPC   C18  218   8.152   4.141   5.164
    5DPPC   C19  219   8.079   4.017   5.111
    5DPPC   C20  220   8.116   3.992   4.965
    5DPPC   C21  221   8.263   3.949   4.969
    5DPPC   C22  222   8.313   3.936   4.825
    5DPPC   C23  223   8.304   4.074   4.760
    5DPPC   C24  224   8.299   4.062   4.607
    5DPPC   C25  225   8.443   4.032   4.563
    5DPPC   C26  226   8.429   4.039   4.411
    5DPPC   C27  227   8.556   3.994   4.339
    5DPPC   C28  228   8.524   3.992   4.189
    5DPPC   C29  229   8.638   3.923   4.114
    5DPPC   C30  230   8.599   3.900   3.968
    5DPPC   C31  231   8.684   3.794   3.896
    5DPPC   C32  232   8.449   4.491   5.366
    5DPPC   O33  233   8.513   4.443   5.248
    5DPPC   C34  234   8.596   4.529   5.184
    5DPPC   O35  235   8.644   4.619   5.253
    5DPPC   C36  236   8.657   4.488   5.050
    5DPPC   C37  237   8.806   4.507   5.024
    5DPPC   C38  238   8.845   4.474   4.879
    5DPPC   C39  239   8.997   4.469   4.862
    5DPPC   C40  240   9.049   4.405   4.734
    5DPPC   C41  241   9.020   4.255   4.727
    5DPPC   C42  242   9.123   4.190   4.636
    5DPPC   C43  243   9.127   4.253   4.496
    5DPPC   C44  244   9.021   4.193   4.403
    5DPPC   C45  245   9.021   4.287   4.282
    5DPPC   C46  246   8.898   4.252   4.199
    5DPPC   C47  247   8.914   4.315   4.060
    5DPPC   C48  248   8.909   4.200   3.958
    5DPPC   C49  249   8.892   4.261   3.819
    5DPPC   C50  250   8.888   4.162   3.702
    6DPPC    C1  251   6.199   0.628   5.532
    6DPPC    C2  252   6.203   0.811   5.392
    6DPPC    C3  253   6.394   0.678   5.398
    6DPPC    N4  254   6.247   0.672   5.400
    6DPPC    C5  255   6.205   0.593   5.284
    6DPPC    C6  256   6.171   0.446   5.309
    6DPPC    O7  257   6.290   0.377   5.347
    6DPPC    P8  258   6.251   0.222   5.370
    6DPPC    O9  259   6.177   0.166   5.255
    6DPPC   O10  260   6.184   0.235   5.502
    6DPPC   O11  261   6.393   0.149   5.388
    6DPPC   C12  262   6.422   0.080   5.266
    6DPPC   C13  263   6.562   0.018   5.268
    6DPPC   O14  264   6.655   0.082   5.180
    6DPPC   C15  265   6.787   0.086   5.211
    6DPPC   O16  266   6.833   0.048   5.319
    6DPPC   C17  267   6.864   0.184   5.121
    6DPPC   C18  268   7.016   0.167   5.124
    6DPPC   C19  269   7.080   0.253   5.016
    6DPPC   C20  270   7.231   0.262   5.039
    6DPPC   C21  271   7.309   0.337   4.931
    6DPPC   C22  272   7.418   0.424   4.994
    6DPPC   C23  273   7.467   0.525   4.890
    6DPPC   C24  274   7.515   0.462   4.759
    6DPPC   C25  275   7.550   0.582   4.671
    6DPPC   C26  276   7.596   0.545   4.529
    6DPPC   C27  277   7.652   0.664   4.450
    6DPPC   C28  278   7.787   0.706   4.507
    6DPPC   C29  279   7.858   0.823   4.439
    6DPPC   C30  280   7.986   0.845   4.520
    6DPPC   C31  281   7.956   0.911   4.655
    6DPPC   C32  282   6.536  -0.133   5.257
    6DPPC   O33  283   6.461  -0.154   5.137
    6DPPC   C34  284   6.445  -0.284   5.099
    6DPPC   O35  285   6.486  -0.371   5.175
    6DPPC   C36  286   6.361  -0.318   4.976
    6DPPC   C37  287   6.401  -0.265   4.838
    6DPPC   C38  288   6.301  -0.327   4.740
    6DPPC   C39  289   6.327  -0.297   4.593
    6DPPC   C40  290   6.211  -0.330   4.499
    6DPPC   C41  291   6.255  -0.382   4.362
    6DPPC   C42  292   6.343  -0.507   4.356
    6DPPC   C43  293   6.472  -0.484   4.278
    6DPPC   C44  294   6.501  -0.596   4.178
    6DPPC   C45  295   6.602  -0.561   4.069
    6DPPC   C46  296   6.632  -0.696   4.004
    6DPPC   C47  297   6.764  -0.691   3.926
    6DPPC   C48  298   6.763  -0.596   3.806
    6DPPC   C49  299   6.909  -0.576   3.764
    6DPPC   C50  300   6.904  -0.472   3.652
    7DPPC    C1  301   2.931   1.575   5.560
    7DPPC    C2  302   2.739   1.533   5.690
    7DPPC    C3  303   2.753   1.517   5.438
    7DPPC    N4  304   2.813   1.489   5.570
    7DPPC    C5  305   2.858   1.350   5.579
    7DPPC    C6  306   2.754   1.244   5.618
    7DPPC    O7  307   2.674   1.224   5.501
    7DPPC    P8  308   2.551   1.130   5.544
    7DPPC    O9  309   2.461   1.235   5.598
    7DPPC   O10  310   2.616   1.029   5.630
    7DPPC   O11  311   2.529   1.082   5.392
    7DPPC   C12  312   2.479   1.183   5.305
    7DPPC   C13  313   2.489   1.131   5.161
    7DPPC   O14  314   2.380   1.052   5.114
    7DPPC   C15  315   2.258   1.106   5.086
    7DPPC   O16  316   2.216   1.209   5.137
    7DPPC   C17  317   2.158   1.010   5.020
    7DPPC   C18  318   2.206   1.005   4.875
    7DPPC   C19  319   2.147   0.890   4.793
    7DPPC   C20  320   1.998   0.923   4.786
    7DPPC   C21  321   1.924   0.835   4.685
    7DPPC   C22  322   1.992   0.836   4.548
    7DPPC   C23  323   2.002   0.969   4.473
    7DPPC   C24  324   2.072   0.961   4.337
    7DPPC   C25  325   2.089   1.100   4.274
    7DPPC   C26  326   1.951   1.151   4.231
    7DPPC   C27  327   1.961   1.271   4.136
    7DPPC   C28  328   2.040   1.241   4.009
    7DPPC   C29  329   1.966   1.135   3.926
    7DPPC   C30  330   2.047   1.129   3.797
    7DPPC   C31  331   2.016   1.248   3.707
    7DPPC   C32  332   2.626   1.062   5.154
    7DPPC   O33  333   2.722   1.167   5.169
    7DPPC   C34  334   2.850   1.122   5.164
    7DPPC   O35  335   2.888   1.005   5.175
    7DPPC   C36  336   2.959   1.230   5.162
    7DPPC   C37  337   2.943   1.322   5.041
    7DPPC   C38  338   3.044   1.436   5.044
    7DPPC   C39  339   3.027   1.521   4.917
    7DPPC   C40  340   2.885   1.576   4.923
    7DPPC   C41  341   2.851   1.631   4.784
    7DPPC   C42  342   2.864   1.523   4.677
    7DPPC   C43  343   2.833   1.548   4.529
    7DPPC   C44  344   2.841   1.424   4.439
    7DPPC   C45  345   2.802   1.467   4.297
    7DPPC   C46  346   2.825   1.355   4.196
    7DPPC   C47  347   2.782   1.402   4.057
    7DPPC   C48  348   2.806   1.305   3.940
    7DPPC   C49  349   2.770   1.359   3.802
    7DPPC   C50  350   2.774   1.250   3.694
    8DPPC    C1  351   8.482   5.852   4.672
    8DPPC    C2  352   8.671   5.789   4.808
    8DPPC    C3  353   8.523   5.969   4.865
    8DPPC    N4  354   8.531   5.833   4.809
    8DPPC    C5  355   8.440   5.747   4.886
    8DPPC    C6  356   8.449   5.701   5.031
    8DPPC    O7  357   8.568   5.628   5.065
    8DPPC    P8  358   8.553   5.573   5.215
    8DPPC    O9  359   8.494   5.681   5.299
    8DPPC   O10  360   8.674   5.498   5.257
    8DPPC   O11  361   8.431   5.471   5.196
    8DPPC   C12  362   8.468   5.384   5.089
    8DPPC   C13  363   8.376   5.269   5.048
    8DPPC   O14  364   8.437   5.170   4.964
    8DPPC   C15  365   8.481   5.053   5.016
    8DPPC   O16  366   8.503   5.034   5.136
    8DPPC   C17  367   8.512   4.952   4.906
    8DPPC   C18  368   8.392   4.901   4.825
    8DPPC   C19  369   8.315   5.008   4.747
    8DPPC   C20  370   8.240   4.940   4.632
    8DPPC   C21  371   8.094   4.917   4.670
    8DPPC   C22  372   8.022   4.890   4.538
    8DPPC   C23  373   8.061   4.997   4.436
    8DPPC   C24  374   7.989   4.981   4.303
    8DPPC   C25  375   8.025   5.104   4.219
    8DPPC   C26  376   7.973   5.099   4.076
    8DPPC   C27  377   8.022   5.221   3.998
    8DPPC   C28  378   8.173   5.214   3.977
    8DPPC   C29  379   8.211   5.100   3.882
    8DPPC   C30  380   8.350   5.104   3.818
    8DPPC   C31  381   8.403   4.966   3.782
    8DPPC   C32  382   8.250   5.328   4.984
    8DPPC   O33  383   8.255   5.442   4.897
    8DPPC   C34  384   8.133   5.482   4.854
    8DPPC   O35  385   8.025   5.452   4.904
    8DPPC   C36  386   8.141   5.571   4.730
    8DPPC   C37  387   8.211   5.512   4.607
    8DPPC   C38  388   8.243   5.606   4.491
    8DPPC   C39  389   8.141   5.569   4.383
    8DPPC   C40  390   8.192   5.633   4.254
    8DPPC   C41  391   8.095   5.601   4.139
    8DPPC   C42  392   8.162   5.660   4.014
    8DPPC   C43  393   8.078   5.642   3.888
    8DPPC   C44  394   8.146   5.707   3.767
    8DPPC   C45  395   8.065   5.658   3.648
    8DPPC   C46  396   8.015   5.514   3.661
    8DPPC   C47  397   7.971   5.451   3.528
    8DPPC   C48  398   7.898   5.321   3.561
    8DPPC   C49  399   7.871   5.240   3.434
    8DPPC   C50  400   7.843   5.093   3.464
    9DPPC    C1  401   3.150   2.978   6.099
    9DPPC    C2  402   3.014   2.817   6.227
    9DPPC    C3  403   2.943   3.040   6.190
    9DPPC    N4  404   3.015   2.927   6.130
    9DPPC    C5  405   2.950   2.874   6.009
    9DPPC    C6  406   2.891   2.978   5.915
    9DPPC    O7  407   2.981   3.035   5.820
    9DPPC    P8  408   2.895   3.082   5.692
    9DPPC    O9  409   2.966   3.202   5.646
    9DPPC   O10  410   2.756   3.089   5.743
    9DPPC   O11  411   2.897   2.952   5.597
    9DPPC   C12  412   3.020   2.977   5.528
    9DPPC   C13  413   3.082   2.842   5.488
    9DPPC   O14  414   3.208   2.860   5.424
    9DPPC   C15  415   3.293   2.754   5.419
    9DPPC   O16  416   3.304   2.683   5.519
    9DPPC   C17  417   3.406   2.768   5.317
    9DPPC   C18  418   3.370   2.728   5.174
    9DPPC   C19  419   3.493   2.719   5.084
    9DPPC   C20  420   3.456   2.716   4.936
    9DPPC   C21  421   3.578   2.690   4.847
    9DPPC   C22  422   3.552   2.661   4.699
    9DPPC   C23  423   3.685   2.652   4.624
    9DPPC   C24  424   3.677   2.575   4.492
    9DPPC   C25  425   3.815   2.562   4.428
    9DPPC   C26  426   3.795   2.444   4.333
    9DPPC   C27  427   3.912   2.435   4.235
    9DPPC   C28  428   3.898   2.319   4.136
    9DPPC   C29  429   4.027   2.322   4.053
    9DPPC   C30  430   4.154   2.284   4.129
    9DPPC   C31  431   4.258   2.265   4.018
    9DPPC   C32  432   2.973   2.781   5.400
    9DPPC   O33  433   2.947   2.857   5.281
    9DPPC   C34  434   2.851   2.813   5.196
    9DPPC   O35  435   2.765   2.726   5.215
    9DPPC   C36  436   2.862   2.891   5.065
    9DPPC   C37  437   2.845   2.795   4.947
    9DPPC   C38  438   2.852   2.875   4.817
    9DPPC   C39  439   2.747   2.986   4.825
    9DPPC   C40  440   2.750   3.069   4.697
    9DPPC   C41  441   2.630   3.163   4.698
    9DPPC   C42  442   2.617   3.252   4.574
    9DPPC   C43  443   2.506   3.356   4.590
    9DPPC   C44  444   2.487   3.449   4.470
    9DPPC   C45  445   2.388   3.402   4.363
    9DPPC   C46  446   2.245   3.381   4.414
    9DPPC   C47  447   2.164   3.321   4.299
    9DPPC   C48  448   2.221   3.185   4.259
    9DPPC   C49  449   2.109   3.080   4.258
    9DPPC   C50  450   2.158   2.942   4.216
   10DPPC    C1  451   8.361   6.256   5.474
   10DPPC    C2  452   8.470   6.449   5.417
   10DPPC    C3  453   8.468   6.278   5.260
   10DPPC    N4  454   8.383   6.346   5.359
   10DPPC    C5  455   8.263   6.414   5.308
   10DPPC    C6  456   8.154   6.330   5.240
   10DPPC    O7  457   8.043   6.409   5.196
   10DPPC    P8  458   7.949   6.298   5.127
   10DPPC    O9  459   7.857   6.388   5.053
   10DPPC   O10  460   7.909   6.185   5.214
   10DPPC   O11  461   8.057   6.240   5.023
   10DPPC   C12  462   8.052   6.324   4.907
   10DPPC   C13  463   8.180   6.307   4.825
   10DPPC   O14  464   8.209   6.426   4.750
   10DPPC   C15  465   8.331   6.445   4.693
   10DPPC   O16  466   8.427   6.386   4.741
   10DPPC   C17  467   8.336   6.534   4.569
   10DPPC   C18  468   8.346   6.444   4.446
   10DPPC   C19  469   8.472   6.359   4.432
   10DPPC   C20  470   8.442   6.266   4.314
   10DPPC   C21  471   8.390   6.132   4.367
   10DPPC   C22  472   8.388   6.043   4.242
   10DPPC   C23  473   8.529   6.039   4.182
   10DPPC   C24  474   8.522   5.985   4.039
   10DPPC   C25  475   8.657   5.999   3.971
   10DPPC   C26  476   8.659   5.918   3.841
   10DPPC   C27  477   8.796   5.919   3.772
   10DPPC   C28  478   8.901   5.862   3.867
   10DPPC   C29  479   9.042   5.887   3.814
   10DPPC   C30  480   9.094   6.030   3.832
   10DPPC   C31  481   9.240   6.040   3.787
   10DPPC   C32  482   8.181   6.170   4.757
   10DPPC   O33  483   8.062   6.149   4.679
   10DPPC   C34  484   8.062   6.038   4.601
   10DPPC   O35  485   8.164   5.972   4.583
   10DPPC   C36  486   7.957   6.045   4.490
   10DPPC   C37  487   7.949   5.935   4.384
   10DPPC   C38  488   7.833   5.968   4.290
   10DPPC   C39  489   7.835   5.868   4.174
   10DPPC   C40  490   7.755   5.939   4.063
   10DPPC   C41  491   7.760   5.853   3.937
   10DPPC   C42  492   7.662   5.933   3.852
   10DPPC   C43  493   7.651   5.871   3.712
   10DPPC   C44  494   7.707   5.960   3.602
   10DPPC   C45  495   7.687   5.888   3.469
   10DPPC   C46  496   7.734   5.742   3.474
   10DPPC   C47  497   7.715   5.680   3.336
   10DPPC   C48  498   7.811   5.729   3.228
   10DPPC   C49  499   7.770   5.674   3.091
   10DPPC   C50  500   7.881   5.685   2.986
   11DPPC    C1  501   6.406   7.656   5.561
   11DPPC    C2  502   6.488   7.733   5.767
   11DPPC    C3  503   6.526   7.500   5.705
   11DPPC    N4  504   6.516   7.639   5.658
   11DPPC    C5  505   6.632   7.665   5.572
   11DPPC    C6  506   6.716   7.792   5.590
   11DPPC    O7  507   6.645   7.895   5.521
   11DPPC    P8  508   6.702   8.035   5.577
   11DPPC    O9  509   6.752   8.011   5.714
   11DPPC   O10  510   6.597   8.139   5.563
   11DPPC   O11  511   6.816   8.046   5.465
   11DPPC   C12  512   6.757   8.098   5.345
   11DPPC   C13  513   6.860   8.102   5.232
   11DPPC   O14  514   6.837   8.201   5.132
   11DPPC   C15  515   6.949   8.240   5.065
   11DPPC   O16  516   7.057   8.241   5.125
   11DPPC   C17  517   6.919   8.339   4.953
   11DPPC   C18  518   6.792   8.304   4.875
   11DPPC   C19  519   6.775   8.393   4.751
   11DPPC   C20  520   6.780   8.536   4.804
   11DPPC   C21  521   6.814   8.627   4.686
   11DPPC   C22  522   6.778   8.775   4.706
   11DPPC   C23  523   6.796   8.849   4.574
   11DPPC   C24  524   6.756   8.997   4.584
   11DPPC   C25  525   6.742   9.068   4.449
   11DPPC   C26  526   6.646   9.187   4.447
   11DPPC   C27  527   6.509   9.120   4.433
   11DPPC   C28  528   6.473   9.036   4.310
   11DPPC   C29  529   6.329   8.984   4.315
   11DPPC   C30  530   6.305   8.896   4.192
   11DPPC   C31  531   6.159   8.851   4.186
   11DPPC   C32  532   6.886   7.953   5.209
   11DPPC   O33  533   6.763   7.897   5.163
   11DPPC   C34  534   6.775   7.769   5.120
   11DPPC   O35  535   6.867   7.697   5.158
   11DPPC   C36  536   6.664   7.724   5.024
   11DPPC   C37  537   6.669   7.815   4.900
   11DPPC   C38  538   6.551   7.797   4.806
   11DPPC   C39  539   6.574   7.897   4.692
   11DPPC   C40  540   6.719   7.930   4.653
   11DPPC   C41  541   6.711   8.033   4.541
   11DPPC   C42  542   6.852   8.079   4.502
   11DPPC   C43  543   6.894   7.982   4.391
   11DPPC   C44  544   7.038   8.028   4.364
   11DPPC   C45  545   7.036   8.173   4.316
   11DPPC   C46  546   6.961   8.177   4.183
   11DPPC   C47  547   6.973   8.323   4.137
   11DPPC   C48  548   7.118   8.350   4.096
   11DPPC   C49  549   7.121   8.501   4.075
   11DPPC   C50  550   7.262   8.561   4.068
   12DPPC    C1  551   9.289   1.831   5.066
   12DPPC    C2  552   9.504   1.906   5.069
   12DPPC    C3  553   9.398   1.861   5.275
   12DPPC    N4  554   9.416   1.811   5.138
   12DPPC    C5  555   9.465   1.673   5.118
   12DPPC    C6  556   9.401   1.549   5.179
   12DPPC    O7  557   9.424   1.442   5.086
   12DPPC    P8  558   9.371   1.309   5.160
   12DPPC    O9  559   9.377   1.316   5.308
   12DPPC   O10  560   9.424   1.193   5.086
   12DPPC   O11  561   9.214   1.337   5.133
   12DPPC   C12  562   9.177   1.268   5.013
   12DPPC   C13  563   9.028   1.284   4.982
   12DPPC   O14  564   8.978   1.204   4.874
   12DPPC   C15  565   8.949   1.073   4.897
   12DPPC   O16  566   8.944   1.030   5.012
   12DPPC   C17  567   8.885   1.004   4.776
   12DPPC   C18  568   8.842   1.081   4.652
   12DPPC   C19  569   8.735   1.188   4.675
   12DPPC   C20  570   8.714   1.255   4.539
   12DPPC   C21  571   8.613   1.370   4.542
   12DPPC   C22  572   8.591   1.448   4.412
   12DPPC   C23  573   8.528   1.359   4.304
   12DPPC   C24  574   8.473   1.445   4.190
   12DPPC   C25  575   8.363   1.540   4.240
   12DPPC   C26  576   8.333   1.632   4.121
   12DPPC   C27  577   8.245   1.585   4.006
   12DPPC   C28  578   8.101   1.543   4.035
   12DPPC   C29  579   8.022   1.479   3.921
   12DPPC   C30  580   7.881   1.444   3.969
   12DPPC   C31  581   7.892   1.342   4.083
   12DPPC   C32  582   8.999   1.431   4.954
   12DPPC   O33  583   9.075   1.466   4.838
   12DPPC   C34  584   9.057   1.592   4.789
   12DPPC   O35  585   9.005   1.683   4.853
   12DPPC   C36  586   9.148   1.631   4.672
   12DPPC   C37  587   9.095   1.580   4.537
   12DPPC   C38  588   8.977   1.660   4.481
   12DPPC   C39  589   8.972   1.629   4.332
   12DPPC   C40  590   8.856   1.678   4.244
   12DPPC   C41  591   8.867   1.660   4.092
   12DPPC   C42  592   8.771   1.748   4.012
   12DPPC   C43  593   8.763   1.693   3.870
   12DPPC   C44  594   8.652   1.768   3.795
   12DPPC   C45  595   8.688   1.911   3.756
   12DPPC   C46  596   8.575   1.992   3.693
   12DPPC   C47  597   8.448   2.005   3.778
   12DPPC   C48  598   8.368   2.130   3.742
   12DPPC   C49  599   8.234   2.114   3.814
   12DPPC   C50  600   8.161   1.987   3.768
   13DPPC    C1  601   1.596   1.646   5.113
   13DPPC    C2  602   1.728   1.506   5.268
   13DPPC    C3  603   1.565   1.625   5.359
   13DPPC    N4  604   1.595   1.559   5.231
   13DPPC    C5  605   1.516   1.436   5.218
   13DPPC    C6  606   1.366   1.452   5.242
   13DPPC    O7  607   1.271   1.362   5.185
   13DPPC    P8  608   1.123   1.419   5.214
   13DPPC    O9  609   1.114   1.442   5.360
   13DPPC   O10  610   1.033   1.321   5.149
   13DPPC   O11  611   1.126   1.566   5.149
   13DPPC   C12  612   1.032   1.573   5.042
   13DPPC   C13  613   1.031   1.712   4.979
   13DPPC   O14  614   0.944   1.732   4.867
   13DPPC   C15  615   0.810   1.731   4.889
   13DPPC   O16  616   0.766   1.717   5.003
   13DPPC   C17  617   0.719   1.731   4.765
   13DPPC   C18  618   0.701   1.591   4.708
   13DPPC   C19  619   0.608   1.609   4.588
   13DPPC   C20  620   0.558   1.476   4.532
   13DPPC   C21  621   0.448   1.497   4.428
   13DPPC   C22  622   0.305   1.510   4.481
   13DPPC   C23  623   0.201   1.515   4.369
   13DPPC   C24  624   0.062   1.484   4.426
   13DPPC   C25  625  -0.032   1.510   4.308
   13DPPC   C26  626  -0.014   1.650   4.249
   13DPPC   C27  627  -0.106   1.648   4.126
   13DPPC   C28  628  -0.093   1.772   4.039
   13DPPC   C29  629  -0.227   1.795   3.968
   13DPPC   C30  630  -0.199   1.894   3.855
   13DPPC   C31  631  -0.154   2.031   3.905
   13DPPC   C32  632   1.179   1.730   4.943
   13DPPC   O33  633   1.237   1.622   4.870
   13DPPC   C34  634   1.349   1.657   4.801
   13DPPC   O35  635   1.424   1.744   4.843
   13DPPC   C36  636   1.387   1.562   4.686
   13DPPC   C37  637   1.313   1.602   4.558
   13DPPC   C38  638   1.182   1.524   4.545
   13DPPC   C39  639   1.107   1.556   4.416
   13DPPC   C40  640   0.975   1.478   4.408
   13DPPC   C41  641   0.896   1.516   4.283
   13DPPC   C42  642   0.776   1.421   4.278
   13DPPC   C43  643   0.742   1.409   4.130
   13DPPC   C44  644   0.619   1.319   4.118
   13DPPC   C45  645   0.646   1.180   4.176
   13DPPC   C46  646   0.723   1.090   4.079
   13DPPC   C47  647   0.741   0.955   4.150
   13DPPC   C48  648   0.796   0.850   4.054
   13DPPC   C49  649   0.802   0.705   4.104
   13DPPC   C50  650   0.878   0.692   4.236
   14DPPC    C1  651   8.468   3.425   5.618
   14DPPC    C2  652   8.431   3.593   5.787
   14DPPC    C3  653   8.644   3.520   5.730
   14DPPC    N4  654   8.513   3.554   5.672
   14DPPC    C5  655   8.514   3.669   5.580
   14DPPC    C6  656   8.585   3.656   5.446
   14DPPC    O7  657   8.723   3.620   5.460
   14DPPC    P8  658   8.767   3.527   5.336
   14DPPC    O9  659   8.663   3.421   5.336
   14DPPC   O10  660   8.911   3.494   5.337
   14DPPC   O11  661   8.752   3.649   5.232
   14DPPC   C12  662   8.680   3.601   5.117
   14DPPC   C13  663   8.554   3.685   5.096
   14DPPC   O14  664   8.470   3.625   4.996
   14DPPC   C15  665   8.371   3.544   5.041
   14DPPC   O16  666   8.348   3.536   5.162
   14DPPC   C17  667   8.296   3.467   4.933
   14DPPC   C18  668   8.387   3.361   4.871
   14DPPC   C19  669   8.336   3.294   4.743
   14DPPC   C20  670   8.332   3.390   4.624
   14DPPC   C21  671   8.280   3.336   4.491
   14DPPC   C22  672   8.256   3.447   4.389
   14DPPC   C23  673   8.384   3.527   4.363
   14DPPC   C24  674   8.359   3.636   4.258
   14DPPC   C25  675   8.305   3.569   4.132
   14DPPC   C26  676   8.312   3.674   4.021
   14DPPC   C27  677   8.282   3.621   3.881
   14DPPC   C28  678   8.268   3.726   3.769
   14DPPC   C29  679   8.167   3.833   3.809
   14DPPC   C30  680   8.138   3.904   3.677
   14DPPC   C31  681   8.273   3.954   3.625
   14DPPC   C32  682   8.608   3.817   5.042
   14DPPC   O33  683   8.720   3.812   4.953
   14DPPC   C34  684   8.758   3.936   4.912
   14DPPC   O35  685   8.709   4.035   4.966
   14DPPC   C36  686   8.879   3.935   4.819
   14DPPC   C37  687   8.885   3.819   4.719
   14DPPC   C38  688   8.789   3.855   4.606
   14DPPC   C39  689   8.829   3.774   4.483
   14DPPC   C40  690   8.807   3.623   4.496
   14DPPC   C41  691   8.876   3.553   4.378
   14DPPC   C42  692   8.824   3.410   4.357
   14DPPC   C43  693   8.873   3.347   4.227
   14DPPC   C44  694   8.783   3.238   4.168
   14DPPC   C45  695   8.853   3.109   4.126
   14DPPC   C46  696   8.757   3.032   4.035
   14DPPC   C47  697   8.828   2.900   4.005
   14DPPC   C48  698   8.872   2.893   3.859
   14DPPC   C49  699   8.952   2.765   3.829
   14DPPC   C50  700   8.979   2.734   3.682
   15DPPC    C1  701   5.264   8.182   5.050
   15DPPC    C2  702   5.437   8.295   4.924
   15DPPC    C3  703   5.208   8.375   4.968
   15DPPC    N4  704   5.328   8.311   5.022
   15DPPC    C5  705   5.356   8.371   5.153
   15DPPC    C6  706   5.435   8.286   5.251
   15DPPC    O7  707   5.574   8.276   5.221
   15DPPC    P8  708   5.639   8.142   5.281
   15DPPC    O9  709   5.548   8.036   5.233
   15DPPC   O10  710   5.640   8.185   5.423
   15DPPC   O11  711   5.779   8.155   5.202
   15DPPC   C12  712   5.733   8.141   5.068
   15DPPC   C13  713   5.843   8.197   4.977
   15DPPC   O14  714   5.806   8.214   4.839
   15DPPC   C15  715   5.890   8.278   4.753
   15DPPC   O16  716   5.975   8.350   4.804
   15DPPC   C17  717   5.829   8.306   4.615
   15DPPC   C18  718   5.831   8.455   4.581
   15DPPC   C19  719   5.758   8.536   4.689
   15DPPC   C20  720   5.762   8.685   4.653
   15DPPC   C21  721   5.908   8.729   4.637
   15DPPC   C22  722   5.924   8.876   4.597
   15DPPC   C23  723   5.857   8.897   4.461
   15DPPC   C24  724   5.890   9.041   4.422
   15DPPC   C25  725   5.821   9.073   4.289
   15DPPC   C26  726   5.669   9.074   4.303
   15DPPC   C27  727   5.620   9.116   4.164
   15DPPC   C28  728   5.471   9.149   4.169
   15DPPC   C29  729   5.437   9.228   4.042
   15DPPC   C30  730   5.291   9.267   4.022
   15DPPC   C31  731   5.248   9.352   4.141
   15DPPC   C32  732   5.967   8.111   5.000
   15DPPC   O33  733   5.974   7.991   4.923
   15DPPC   C34  734   6.078   7.906   4.946
   15DPPC   O35  735   6.155   7.930   5.039
   15DPPC   C36  736   6.079   7.781   4.859
   15DPPC   C37  737   6.043   7.652   4.934
   15DPPC   C38  738   6.027   7.530   4.844
   15DPPC   C39  739   5.943   7.567   4.721
   15DPPC   C40  740   5.893   7.449   4.638
   15DPPC   C41  741   6.001   7.346   4.606
   15DPPC   C42  742   5.922   7.235   4.537
   15DPPC   C43  743   6.003   7.153   4.437
   15DPPC   C44  744   5.907   7.056   4.368
   15DPPC   C45  745   5.991   6.960   4.283
   15DPPC   C46  746   6.032   7.037   4.158
   15DPPC   C47  747   5.921   7.098   4.072
   15DPPC   C48  748   5.976   7.168   3.948
   15DPPC   C49  749   5.867   7.233   3.863
   15DPPC   C50  750   5.808   7.349   3.942
   16DPPC    C1  751   9.219   0.907   5.119
   16DPPC    C2  752   9.165   0.910   5.359
   16DPPC    C3  753   9.044   0.767   5.196
   16DPPC    N4  754   9.170   0.831   5.235
   16DPPC    C5  755   9.261   0.717   5.251
   16DPPC    C6  756   9.242   0.625   5.373
   16DPPC    O7  757   9.303   0.496   5.371
   16DPPC    P8  758   9.202   0.389   5.436
   16DPPC    O9  759   9.144   0.471   5.545
   16DPPC   O10  760   9.263   0.258   5.466
   16DPPC   O11  761   9.112   0.366   5.305
   16DPPC   C12  762   9.193   0.298   5.209
   16DPPC   C13  763   9.159   0.338   5.065
   16DPPC   O14  764   9.221   0.459   5.020
   16DPPC   C15  765   9.345   0.447   4.964
   16DPPC   O16  766   9.420   0.360   5.006
   16DPPC   C17  767   9.406   0.558   4.878
   16DPPC   C18  768   9.327   0.688   4.863
   16DPPC   C19  769   9.363   0.760   4.732
   16DPPC   C20  770   9.280   0.700   4.619
   16DPPC   C21  771   9.133   0.717   4.659
   16DPPC   C22  772   9.031   0.659   4.561
   16DPPC   C23  773   9.003   0.745   4.437
   16DPPC   C24  774   8.898   0.669   4.356
   16DPPC   C25  775   8.821   0.727   4.237
   16DPPC   C26  776   8.759   0.616   4.152
   16DPPC   C27  777   8.699   0.683   4.027
   16DPPC   C28  778   8.570   0.605   4.002
   16DPPC   C29  779   8.488   0.634   3.876
   16DPPC   C30  780   8.574   0.582   3.760
   16DPPC   C31  781   8.519   0.608   3.619
   16DPPC   C32  782   9.006   0.345   5.062
   16DPPC   O33  783   8.947   0.215   5.065
   16DPPC   C34  784   8.814   0.208   5.038
   16DPPC   O35  785   8.741   0.283   5.103
   16DPPC   C36  786   8.767   0.066   5.004
   16DPPC   C37  787   8.716   0.082   4.861
   16DPPC   C38  788   8.741  -0.050   4.788
   16DPPC   C39  789   8.721  -0.043   4.636
   16DPPC   C40  790   8.786  -0.161   4.563
   16DPPC   C41  791   8.767  -0.156   4.411
   16DPPC   C42  792   8.623  -0.189   4.370
   16DPPC   C43  793   8.626  -0.219   4.220
   16DPPC   C44  794   8.497  -0.300   4.205
   16DPPC   C45  795   8.457  -0.326   4.059
   16DPPC   C46  796   8.316  -0.381   4.081
   16DPPC   C47  797   8.238  -0.426   3.957
   16DPPC   C48  798   8.108  -0.474   4.023
   16DPPC   C49  799   8.013  -0.548   3.929
   16DPPC   C50  800   7.894  -0.610   4.002
   17DPPC    C1  801   1.569   0.612   5.404
   17DPPC    C2  802   1.628   0.615   5.181
   17DPPC    C3  803   1.492   0.448   5.254
   17DPPC    N4  804   1.513   0.592   5.269
   17DPPC    C5  805   1.394   0.671   5.235
   17DPPC    C6  806   1.422   0.821   5.224
   17DPPC    O7  807   1.304   0.901   5.221
   17DPPC    P8  808   1.323   1.061   5.217
   17DPPC    O9  809   1.468   1.076   5.239
   17DPPC   O10  810   1.219   1.112   5.309
   17DPPC   O11  811   1.286   1.074   5.061
   17DPPC   C12  812   1.407   1.131   5.010
   17DPPC   C13  813   1.382   1.170   4.864
   17DPPC   O14  814   1.489   1.240   4.799
   17DPPC   C15  815   1.576   1.159   4.733
   17DPPC   O16  816   1.540   1.045   4.705
   17DPPC   C17  817   1.705   1.221   4.677
   17DPPC   C18  818   1.727   1.355   4.748
   17DPPC   C19  819   1.813   1.448   4.662
   17DPPC   C20  820   1.931   1.370   4.604
   17DPPC   C21  821   2.011   1.471   4.522
   17DPPC   C22  822   2.144   1.406   4.484
   17DPPC   C23  823   2.231   1.514   4.420
   17DPPC   C24  824   2.365   1.457   4.373
   17DPPC   C25  825   2.336   1.359   4.259
   17DPPC   C26  826   2.450   1.279   4.196
   17DPPC   C27  827   2.393   1.203   4.076
   17DPPC   C28  828   2.493   1.094   4.037
   17DPPC   C29  829   2.438   1.008   3.923
   17DPPC   C30  830   2.435   1.079   3.787
   17DPPC   C31  831   2.403   0.978   3.677
   17DPPC   C32  832   1.254   1.254   4.862
   17DPPC   O33  833   1.169   1.251   4.746
   17DPPC   C34  834   1.100   1.142   4.704
   17DPPC   O35  835   1.125   1.031   4.751
   17DPPC   C36  836   1.040   1.148   4.564
   17DPPC   C37  837   1.130   1.080   4.461
   17DPPC   C38  838   1.042   1.012   4.357
   17DPPC   C39  839   1.119   0.967   4.232
   17DPPC   C40  840   1.152   1.094   4.154
   17DPPC   C41  841   1.210   1.057   4.017
   17DPPC   C42  842   1.287   1.175   3.957
   17DPPC   C43  843   1.352   1.164   3.819
   17DPPC   C44  844   1.421   1.293   3.774
   17DPPC   C45  845   1.472   1.279   3.630
   17DPPC   C46  846   1.519   1.415   3.576
   17DPPC   C47  847   1.645   1.460   3.649
   17DPPC   C48  848   1.697   1.599   3.611
   17DPPC   C49  849   1.817   1.656   3.687
   17DPPC   C50  850   1.830   1.806   3.658
   18DPPC    C1  851   1.891   7.217   5.531
   18DPPC    C2  852   1.961   7.016   5.606
   18DPPC    C3  853   1.748   7.029   5.490
   18DPPC    N4  854   1.888   7.075   5.493
   18DPPC    C5  855   1.954   7.070   5.362
   18DPPC    C6  856   1.983   6.927   5.316
   18DPPC    O7  857   2.053   6.924   5.192
   18DPPC    P8  858   2.052   6.775   5.130
   18DPPC    O9  859   1.914   6.732   5.161
   18DPPC   O10  860   2.166   6.694   5.178
   18DPPC   O11  861   2.063   6.799   4.971
   18DPPC   C12  862   2.106   6.681   4.904
   18DPPC   C13  863   2.129   6.692   4.753
   18DPPC   O14  864   2.132   6.568   4.681
   18DPPC   C15  865   2.015   6.506   4.651
   18DPPC   O16  866   1.912   6.508   4.718
   18DPPC   C17  867   2.024   6.384   4.560
   18DPPC   C18  868   1.902   6.381   4.467
   18DPPC   C19  869   1.945   6.320   4.333
   18DPPC   C20  870   1.822   6.302   4.244
   18DPPC   C21  871   1.851   6.216   4.120
   18DPPC   C22  872   1.720   6.205   4.043
   18DPPC   C23  873   1.741   6.112   3.923
   18DPPC   C24  874   1.612   6.112   3.841
   18DPPC   C25  875   1.480   6.082   3.914
   18DPPC   C26  876   1.462   5.939   3.965
   18DPPC   C27  877   1.339   5.948   4.056
   18DPPC   C28  878   1.213   5.985   3.978
   18DPPC   C29  879   1.165   5.881   3.877
   18DPPC   C30  880   1.035   5.921   3.808
   18DPPC   C31  881   1.004   5.801   3.717
   18DPPC   C32  882   2.246   6.789   4.737
   18DPPC   O33  883   2.278   6.819   4.600
   18DPPC   C34  884   2.408   6.853   4.579
   18DPPC   O35  885   2.485   6.857   4.674
   18DPPC   C36  886   2.432   6.883   4.430
   18DPPC   C37  887   2.485   6.759   4.357
   18DPPC   C38  888   2.507   6.800   4.211
   18DPPC   C39  889   2.587   6.702   4.124
   18DPPC   C40  890   2.731   6.679   4.168
   18DPPC   C41  891   2.797   6.585   4.067
   18DPPC   C42  892   2.882   6.475   4.130
   18DPPC   C43  893   2.949   6.395   4.018
   18DPPC   C44  894   2.996   6.258   4.066
   18DPPC   C45  895   3.110   6.279   4.165
   18DPPC   C46  896   3.156   6.165   4.256
   18DPPC   C47  897   3.263   6.213   4.354
   18DPPC   C48  898   3.202   6.301   4.464
   18DPPC   C49  899   3.318   6.340   4.556
   18DPPC   C50  900   3.278   6.420   4.680
   19DPPC    C1  901   2.618   5.762   5.666
   19DPPC    C2  902   2.405   5.814   5.608
   19DPPC    C3  903   2.576   5.822   5.437
   19DPPC    N4  904   2.524   5.749   5.554
   19DPPC    C5  905   2.485   5.612   5.517
   19DPPC    C6  906   2.590   5.508   5.479
   19DPPC    O7  907   2.663   5.530   5.358
   19DPPC    P8  908   2.793   5.435   5.356
   19DPPC    O9  909   2.832   5.431   5.499
   19DPPC   O10  910   2.874   5.496   5.248
   19DPPC   O11  911   2.726   5.308   5.284
   19DPPC   C12  912   2.764   5.291   5.147
   19DPPC   C13  913   2.682   5.175   5.090
   19DPPC   O14  914   2.757   5.094   4.999
   19DPPC   C15  915   2.722   4.962   5.000
   19DPPC   O16  916   2.646   4.908   5.080
   19DPPC   C17  917   2.796   4.877   4.896
   19DPPC   C18  918   2.929   4.815   4.940
   19DPPC   C19  919   2.990   4.747   4.818
   19DPPC   C20  920   2.909   4.621   4.789
   19DPPC   C21  921   2.973   4.544   4.673
   19DPPC   C22  922   2.891   4.419   4.639
   19DPPC   C23  923   2.958   4.362   4.514
   19DPPC   C24  924   3.101   4.310   4.528
   19DPPC   C25  925   3.160   4.270   4.393
   19DPPC   C26  926   3.129   4.379   4.290
   19DPPC   C27  927   3.192   4.335   4.157
   19DPPC   C28  928   3.140   4.424   4.045
   19DPPC   C29  929   3.208   4.390   3.912
   19DPPC   C30  930   3.130   4.439   3.791
   19DPPC   C31  931   3.125   4.591   3.804
   19DPPC   C32  932   2.542   5.227   5.055
   19DPPC   O33  933   2.548   5.326   4.953
   19DPPC   C34  934   2.438   5.356   4.878
   19DPPC   O35  935   2.332   5.298   4.901
   19DPPC   C36  936   2.448   5.460   4.766
   19DPPC   C37  937   2.340   5.427   4.663
   19DPPC   C38  938   2.374   5.473   4.521
   19DPPC   C39  939   2.267   5.469   4.412
   19DPPC   C40  940   2.305   5.553   4.290
   19DPPC   C41  941   2.207   5.576   4.175
   19DPPC   C42  942   2.262   5.678   4.075
   19DPPC   C43  943   2.408   5.638   4.051
   19DPPC   C44  944   2.471   5.728   3.945
   19DPPC   C45  945   2.615   5.677   3.931
   19DPPC   C46  946   2.675   5.737   3.804
   19DPPC   C47  947   2.826   5.711   3.793
   19DPPC   C48  948   2.895   5.765   3.918
   19DPPC   C49  949   3.048   5.770   3.902
   19DPPC   C50  950   3.123   5.814   4.028
   20DPPC    C1  951   6.768   5.505   5.089
   20DPPC    C2  952   6.585   5.463   4.948
   20DPPC    C3  953   6.570   5.374   5.157
   20DPPC    N4  954   6.622   5.492   5.087
   20DPPC    C5  955   6.543   5.607   5.136
   20DPPC    C6  956   6.614   5.727   5.197
   20DPPC    O7  957   6.690   5.811   5.109
   20DPPC    P8  958   6.774   5.920   5.190
   20DPPC    O9  959   6.852   5.823   5.270
   20DPPC   O10  960   6.681   6.019   5.249
   20DPPC   O11  961   6.872   5.999   5.089
   20DPPC   C12  962   6.969   5.902   5.050
   20DPPC   C13  963   7.097   5.950   4.980
   20DPPC   O14  964   7.085   6.036   4.866
   20DPPC   C15  965   7.086   6.172   4.854
   20DPPC   O16  966   7.126   6.236   4.950
   20DPPC   C17  967   7.062   6.237   4.717
   20DPPC   C18  968   7.137   6.366   4.681
   20DPPC   C19  969   7.082   6.407   4.544
   20DPPC   C20  970   6.931   6.430   4.557
   20DPPC   C21  971   6.880   6.474   4.420
   20DPPC   C22  972   6.955   6.597   4.368
   20DPPC   C23  973   6.945   6.615   4.216
   20DPPC   C24  974   7.031   6.725   4.154
   20DPPC   C25  975   7.038   6.699   4.003
   20DPPC   C26  976   7.119   6.794   3.914
   20DPPC   C27  977   7.266   6.782   3.956
   20DPPC   C28  978   7.355   6.874   3.874
   20DPPC   C29  979   7.504   6.839   3.875
   20DPPC   C30  980   7.593   6.924   3.784
   20DPPC   C31  981   7.733   6.862   3.784
   20DPPC   C32  982   7.183   5.826   4.958
   20DPPC   O33  983   7.108   5.715   4.910
   20DPPC   C34  984   7.166   5.592   4.910
   20DPPC   O35  985   7.266   5.561   4.975
   20DPPC   C36  986   7.110   5.504   4.798
   20DPPC   C37  987   7.225   5.434   4.726
   20DPPC   C38  988   7.170   5.374   4.596
   20DPPC   C39  989   7.271   5.297   4.510
   20DPPC   C40  990   7.227   5.278   4.365
   20DPPC   C41  991   7.331   5.216   4.271
   20DPPC   C42  992   7.251   5.206   4.141
   20DPPC   C43  993   7.342   5.150   4.031
   20DPPC   C44  994   7.260   5.093   3.915
   20DPPC   C45  995   7.349   5.020   3.815
   20DPPC   C46  996   7.262   4.972   3.699
   20DPPC   C47  997   7.192   5.084   3.622
   20DPPC   C48  998   7.096   5.023   3.520
   20DPPC   C49  999   7.003   5.119   3.446
   20DPPC   C50 1000   7.084   5.207   3.350
   21DPPC    C1 1001   3.223   2.262   6.232
   21DPPC    C2 1002   3.388   2.211   6.065
   21DPPC    C3 1003   3.433   2.156   6.285
   21DPPC    N4 1004   3.323   2.164   6.188
   21DPPC    C5 1005   3.273   2.026   6.178
   21DPPC    C6 1006   3.136   2.000   6.113
   21DPPC    O7 1007   3.132   2.013   5.971
   21DPPC    P8 1008   2.985   2.049   5.914
   21DPPC    O9 1009   2.916   2.140   6.007
   21DPPC   O10 1010   2.944   1.914   5.870
   21DPPC   O11 1011   3.032   2.122   5.778
   21DPPC   C12 1012   3.041   2.018   5.681
   21DPPC   C13 1013   3.039   2.076   5.539
   21DPPC   O14 1014   3.027   1.982   5.431
   21DPPC   C15 1015   2.901   1.946   5.398
   21DPPC   O16 1016   2.811   1.938   5.483
   21DPPC   C17 1017   2.896   1.880   5.260
   21DPPC   C18 1018   2.992   1.957   5.168
   21DPPC   C19 1019   2.961   1.924   5.022
   21DPPC   C20 1020   3.033   2.025   4.933
   21DPPC   C21 1021   2.971   2.005   4.795
   21DPPC   C22 1022   3.029   2.104   4.693
   21DPPC   C23 1023   2.975   2.078   4.552
   21DPPC   C24 1024   3.059   2.140   4.441
   21DPPC   C25 1025   2.972   2.145   4.315
   21DPPC   C26 1026   3.047   2.186   4.188
   21DPPC   C27 1027   2.966   2.174   4.059
   21DPPC   C28 1028   3.055   2.208   3.940
   21DPPC   C29 1029   2.987   2.193   3.804
   21DPPC   C30 1030   3.098   2.156   3.706
   21DPPC   C31 1031   3.064   2.164   3.557
   21DPPC   C32 1032   3.167   2.159   5.534
   21DPPC   O33 1033   3.196   2.242   5.421
   21DPPC   C34 1034   3.128   2.358   5.399
   21DPPC   O35 1035   3.032   2.393   5.468
   21DPPC   C36 1036   3.168   2.434   5.272
   21DPPC   C37 1037   3.086   2.399   5.148
   21DPPC   C38 1038   3.133   2.486   5.032
   21DPPC   C39 1039   3.050   2.449   4.908
   21DPPC   C40 1040   3.081   2.532   4.784
   21DPPC   C41 1041   2.995   2.491   4.664
   21DPPC   C42 1042   3.048   2.549   4.533
   21DPPC   C43 1043   3.200   2.546   4.514
   21DPPC   C44 1044   3.254   2.631   4.399
   21DPPC   C45 1045   3.207   2.578   4.263
   21DPPC   C46 1046   3.237   2.670   4.144
   21DPPC   C47 1047   3.194   2.610   4.011
   21DPPC   C48 1048   3.248   2.697   3.897
   21DPPC   C49 1049   3.177   2.646   3.772
   21DPPC   C50 1050   3.185   2.744   3.655
   22DPPC    C1 1051   1.644   2.057   5.615
   22DPPC    C2 1052   1.828   2.151   5.495
   22DPPC    C3 1053   1.863   2.046   5.714
   22DPPC    N4 1054   1.787   2.044   5.587
   22DPPC    C5 1055   1.803   1.918   5.514
   22DPPC    C6 1056   1.930   1.886   5.434
   22DPPC    O7 1057   1.918   1.767   5.356
   22DPPC    P8 1058   2.065   1.731   5.300
   22DPPC    O9 1059   2.054   1.607   5.220
   22DPPC   O10 1060   2.159   1.743   5.413
   22DPPC   O11 1061   2.069   1.862   5.206
   22DPPC   C12 1062   2.015   1.840   5.075
   22DPPC   C13 1063   1.997   1.975   5.007
   22DPPC   O14 1064   1.937   1.965   4.876
   22DPPC   C15 1065   1.803   1.948   4.869
   22DPPC   O16 1066   1.735   1.934   4.971
   22DPPC   C17 1067   1.743   1.952   4.728
   22DPPC   C18 1068   1.804   1.847   4.636
   22DPPC   C19 1069   1.739   1.851   4.498
   22DPPC   C20 1070   1.781   1.738   4.404
   22DPPC   C21 1071   1.678   1.720   4.292
   22DPPC   C22 1072   1.699   1.591   4.211
   22DPPC   C23 1073   1.570   1.560   4.135
   22DPPC   C24 1074   1.525   1.669   4.037
   22DPPC   C25 1075   1.408   1.597   3.969
   22DPPC   C26 1076   1.358   1.697   3.865
   22DPPC   C27 1077   1.224   1.651   3.807
   22DPPC   C28 1078   1.122   1.621   3.916
   22DPPC   C29 1079   0.995   1.562   3.854
   22DPPC   C30 1080   1.020   1.431   3.779
   22DPPC   C31 1081   0.899   1.368   3.710
   22DPPC   C32 1082   2.129   2.053   5.013
   22DPPC   O33 1083   2.245   1.979   4.977
   22DPPC   C34 1084   2.356   2.056   4.967
   22DPPC   O35 1085   2.339   2.178   4.972
   22DPPC   C36 1086   2.477   2.002   4.891
   22DPPC   C37 1087   2.447   1.887   4.795
   22DPPC   C38 1088   2.550   1.900   4.683
   22DPPC   C39 1089   2.526   1.804   4.566
   22DPPC   C40 1090   2.608   1.847   4.445
   22DPPC   C41 1091   2.580   1.767   4.317
   22DPPC   C42 1092   2.665   1.807   4.197
   22DPPC   C43 1093   2.628   1.735   4.067
   22DPPC   C44 1094   2.727   1.791   3.965
   22DPPC   C45 1095   2.703   1.739   3.823
   22DPPC   C46 1096   2.762   1.823   3.709
   22DPPC   C47 1097   2.724   1.763   3.573
   22DPPC   C48 1098   2.797   1.634   3.534
   22DPPC   C49 1099   2.772   1.579   3.393
   22DPPC   C50 1100   2.808   1.682   3.285
   23DPPC    C1 1101   1.402   7.359   5.097
   23DPPC    C2 1102   1.497   7.161   5.159
   23DPPC    C3 1103   1.348   7.145   4.986
   23DPPC    N4 1104   1.452   7.233   5.039
   23DPPC    C5 1105   1.564   7.245   4.945
   23DPPC    C6 1106   1.560   7.320   4.811
   23DPPC    O7 1107   1.483   7.273   4.700
   23DPPC    P8 1108   1.419   7.395   4.616
   23DPPC    O9 1109   1.464   7.523   4.677
   23DPPC   O10 1110   1.279   7.361   4.587
   23DPPC   O11 1111   1.509   7.369   4.486
   23DPPC   C12 1112   1.463   7.250   4.421
   23DPPC   C13 1113   1.491   7.240   4.271
   23DPPC   O14 1114   1.631   7.243   4.243
   23DPPC   C15 1115   1.676   7.133   4.176
   23DPPC   O16 1116   1.611   7.029   4.180
   23DPPC   C17 1117   1.821   7.157   4.131
   23DPPC   C18 1118   1.837   7.251   4.012
   23DPPC   C19 1119   1.975   7.313   3.995
   23DPPC   C20 1120   1.981   7.429   3.896
   23DPPC   C21 1121   1.963   7.562   3.970
   23DPPC   C22 1122   1.950   7.660   3.854
   23DPPC   C23 1123   1.924   7.804   3.899
   23DPPC   C24 1124   1.901   7.902   3.784
   23DPPC   C25 1125   1.874   8.037   3.850
   23DPPC   C26 1126   1.881   8.152   3.748
   23DPPC   C27 1127   1.836   8.292   3.790
   23DPPC   C28 1128   1.685   8.288   3.811
   23DPPC   C29 1129   1.632   8.272   3.669
   23DPPC   C30 1130   1.481   8.248   3.680
   23DPPC   C31 1131   1.420   8.240   3.539
   23DPPC   C32 1132   1.419   7.365   4.219
   23DPPC   O33 1133   1.449   7.390   4.082
   23DPPC   C34 1134   1.389   7.493   4.017
   23DPPC   O35 1135   1.310   7.562   4.080
   23DPPC   C36 1136   1.441   7.519   3.875
   23DPPC   C37 1137   1.555   7.621   3.872
   23DPPC   C38 1138   1.609   7.642   3.730
   23DPPC   C39 1139   1.666   7.509   3.681
   23DPPC   C40 1140   1.696   7.526   3.532
   23DPPC   C41 1141   1.749   7.400   3.463
   23DPPC   C42 1142   1.633   7.303   3.438
   23DPPC   C43 1143   1.670   7.155   3.447
   23DPPC   C44 1144   1.558   7.071   3.386
   23DPPC   C45 1145   1.531   7.128   3.246
   23DPPC   C46 1146   1.429   7.035   3.181
   23DPPC   C47 1147   1.399   7.073   3.035
   23DPPC   C48 1148   1.310   6.983   2.950
   23DPPC   C49 1149   1.177   6.943   3.014
   23DPPC   C50 1150   1.061   6.990   2.927
   24DPPC    C1 1151   3.207   5.411   5.219
   24DPPC    C2 1152   3.367   5.448   5.388
   24DPPC    C3 1153   3.210   5.614   5.341
   24DPPC    N4 1154   3.225   5.469   5.353
   24DPPC    C5 1155   3.142   5.408   5.458
   24DPPC    C6 1156   3.157   5.258   5.483
   24DPPC    O7 1157   3.059   5.181   5.412
   24DPPC    P8 1158   3.095   5.027   5.441
   24DPPC    O9 1159   2.989   4.949   5.373
   24DPPC   O10 1160   3.129   5.023   5.585
   24DPPC   O11 1161   3.234   5.012   5.362
   24DPPC   C12 1162   3.196   4.991   5.225
   24DPPC   C13 1163   3.315   4.985   5.129
   24DPPC   O14 1164   3.256   4.998   4.999
   24DPPC   C15 1165   3.228   5.119   4.944
   24DPPC   O16 1166   3.286   5.221   4.981
   24DPPC   C17 1167   3.160   5.112   4.807
   24DPPC   C18 1168   3.253   5.155   4.694
   24DPPC   C19 1169   3.350   5.047   4.646
   24DPPC   C20 1170   3.492   5.106   4.654
   24DPPC   C21 1171   3.579   5.009   4.573
   24DPPC   C22 1172   3.721   5.057   4.543
   24DPPC   C23 1173   3.784   4.971   4.434
   24DPPC   C24 1174   3.922   5.018   4.390
   24DPPC   C25 1175   3.979   4.957   4.261
   24DPPC   C26 1176   4.106   5.035   4.228
   24DPPC   C27 1177   4.169   4.989   4.096
   24DPPC   C28 1178   4.276   5.091   4.058
   24DPPC   C29 1179   4.372   5.032   3.954
   24DPPC   C30 1180   4.485   5.129   3.921
   24DPPC   C31 1181   4.586   5.174   4.027
   24DPPC   C32 1182   3.368   4.844   5.150
   24DPPC   O33 1183   3.280   4.732   5.142
   24DPPC   C34 1184   3.333   4.607   5.151
   24DPPC   O35 1185   3.448   4.593   5.192
   24DPPC   C36 1186   3.257   4.487   5.095
   24DPPC   C37 1187   3.313   4.439   4.961
   24DPPC   C38 1188   3.307   4.548   4.854
   24DPPC   C39 1189   3.356   4.498   4.718
   24DPPC   C40 1190   3.394   4.610   4.620
   24DPPC   C41 1191   3.416   4.553   4.480
   24DPPC   C42 1192   3.480   4.660   4.392
   24DPPC   C43 1193   3.533   4.605   4.259
   24DPPC   C44 1194   3.618   4.713   4.193
   24DPPC   C45 1195   3.692   4.681   4.062
   24DPPC   C46 1196   3.788   4.790   4.015
   24DPPC   C47 1197   3.883   4.735   3.908
   24DPPC   C48 1198   3.944   4.839   3.814
   24DPPC   C49 1199   4.017   4.778   3.694
   24DPPC   C50 1200   4.105   4.666   3.749
   25DPPC    C1 1201   3.936   5.440   5.341
   25DPPC    C2 1202   3.889   5.602   5.174
   25DPPC    C3 1203   3.746   5.410   5.229
   25DPPC    N4 1204   3.829   5.520   5.280
   25DPPC    C5 1205   3.774   5.597   5.393
   25DPPC    C6 1206   3.708   5.732   5.362
   25DPPC    O7 1207   3.595   5.711   5.276
   25DPPC    P8 1208   3.499   5.836   5.247
   25DPPC    O9 1209   3.600   5.923   5.182
   25DPPC   O10 1210   3.420   5.885   5.363
   25DPPC   O11 1211   3.410   5.753   5.142
   25DPPC   C12 1212   3.504   5.719   5.040
   25DPPC   C13 1213   3.465   5.659   4.905
   25DPPC   O14 1214   3.570   5.595   4.831
   25DPPC   C15 1215   3.627   5.476   4.864
   25DPPC   O16 1216   3.603   5.427   4.974
   25DPPC   C17 1217   3.717   5.412   4.758
   25DPPC   C18 1218   3.794   5.524   4.689
   25DPPC   C19 1219   3.829   5.465   4.552
   25DPPC   C20 1220   3.942   5.362   4.562
   25DPPC   C21 1221   4.087   5.411   4.571
   25DPPC   C22 1222   4.182   5.303   4.520
   25DPPC   C23 1223   4.316   5.325   4.591
   25DPPC   C24 1224   4.433   5.254   4.524
   25DPPC   C25 1225   4.556   5.230   4.612
   25DPPC   C26 1226   4.674   5.205   4.518
   25DPPC   C27 1227   4.771   5.323   4.512
   25DPPC   C28 1228   4.888   5.277   4.425
   25DPPC   C29 1229   4.971   5.403   4.398
   25DPPC   C30 1230   5.069   5.354   4.291
   25DPPC   C31 1231   4.998   5.285   4.175
   25DPPC   C32 1232   3.404   5.781   4.835
   25DPPC   O33 1233   3.496   5.889   4.818
   25DPPC   C34 1234   3.439   6.003   4.769
   25DPPC   O35 1235   3.325   6.039   4.799
   25DPPC   C36 1236   3.542   6.105   4.722
   25DPPC   C37 1237   3.557   6.090   4.571
   25DPPC   C38 1238   3.655   5.976   4.538
   25DPPC   C39 1239   3.715   5.979   4.397
   25DPPC   C40 1240   3.621   5.918   4.293
   25DPPC   C41 1241   3.678   5.914   4.151
   25DPPC   C42 1242   3.808   5.835   4.143
   25DPPC   C43 1243   3.802   5.687   4.181
   25DPPC   C44 1244   3.921   5.596   4.150
   25DPPC   C45 1245   3.940   5.569   4.001
   25DPPC   C46 1246   4.059   5.483   3.958
   25DPPC   C47 1247   4.044   5.423   3.818
   25DPPC   C48 1248   4.161   5.335   3.773
   25DPPC   C49 1249   4.130   5.251   3.649
   25DPPC   C50 1250   4.261   5.184   3.606
   26DPPC    C1 1251   3.625   2.707   5.878
   26DPPC    C2 1252   3.620   2.558   5.704
   26DPPC    C3 1253   3.619   2.775   5.643
   26DPPC    N4 1254   3.680   2.686   5.742
   26DPPC    C5 1255   3.825   2.677   5.725
   26DPPC    C6 1256   3.901   2.806   5.759
   26DPPC    O7 1257   3.914   2.901   5.652
   26DPPC    P8 1258   3.972   3.036   5.717
   26DPPC    O9 1259   3.942   3.032   5.862
   26DPPC   O10 1260   3.973   3.162   5.639
   26DPPC   O11 1261   4.123   2.979   5.718
   26DPPC   C12 1262   4.210   3.030   5.617
   26DPPC   C13 1263   4.347   2.963   5.619
   26DPPC   O14 1264   4.423   2.998   5.502
   26DPPC   C15 1265   4.490   3.114   5.480
   26DPPC   O16 1266   4.474   3.200   5.566
   26DPPC   C17 1267   4.536   3.144   5.337
   26DPPC   C18 1268   4.686   3.174   5.341
   26DPPC   C19 1269   4.739   3.197   5.199
   26DPPC   C20 1270   4.887   3.234   5.187
   26DPPC   C21 1271   4.914   3.223   5.036
   26DPPC   C22 1272   4.912   3.076   4.994
   26DPPC   C23 1273   4.925   3.075   4.842
   26DPPC   C24 1274   4.895   2.945   4.766
   26DPPC   C25 1275   4.927   2.945   4.616
   26DPPC   C26 1276   4.890   2.813   4.548
   26DPPC   C27 1277   4.904   2.823   4.396
   26DPPC   C28 1278   4.865   2.704   4.308
   26DPPC   C29 1279   4.852   2.750   4.163
   26DPPC   C30 1280   4.827   2.629   4.073
   26DPPC   C31 1281   4.848   2.655   3.924
   26DPPC   C32 1282   4.314   2.814   5.619
   26DPPC   O33 1283   4.227   2.770   5.515
   26DPPC   C34 1284   4.171   2.646   5.527
   26DPPC   O35 1285   4.174   2.603   5.642
   26DPPC   C36 1286   4.095   2.601   5.402
   26DPPC   C37 1287   4.176   2.514   5.305
   26DPPC   C38 1288   4.091   2.489   5.181
   26DPPC   C39 1289   4.045   2.621   5.120
   26DPPC   C40 1290   4.026   2.590   4.971
   26DPPC   C41 1291   3.998   2.718   4.892
   26DPPC   C42 1292   4.001   2.685   4.743
   26DPPC   C43 1293   4.003   2.817   4.667
   26DPPC   C44 1294   4.143   2.877   4.671
   26DPPC   C45 1295   4.141   3.000   4.581
   26DPPC   C46 1296   4.088   2.962   4.442
   26DPPC   C47 1297   4.044   3.076   4.350
   26DPPC   C48 1298   3.992   3.039   4.211
   26DPPC   C49 1299   3.962   3.156   4.116
   26DPPC   C50 1300   3.873   3.265   4.177
   27DPPC    C1 1301   3.723   0.244   5.427
   27DPPC    C2 1302   3.611   0.430   5.356
   27DPPC    C3 1303   3.793   0.360   5.221
   27DPPC    N4 1304   3.682   0.311   5.303
   27DPPC    C5 1305   3.585   0.221   5.240
   27DPPC    C6 1306   3.629   0.082   5.194
   27DPPC    O7 1307   3.741   0.075   5.105
   27DPPC    P8 1308   3.790  -0.078   5.115
   27DPPC    O9 1309   3.680  -0.158   5.174
   27DPPC   O10 1310   3.927  -0.074   5.171
   27DPPC   O11 1311   3.797  -0.121   4.960
   27DPPC   C12 1312   3.906  -0.048   4.903
   27DPPC   C13 1313   3.901  -0.030   4.751
   27DPPC   O14 1314   3.831   0.090   4.716
   27DPPC   C15 1315   3.907   0.182   4.651
   27DPPC   O16 1316   4.021   0.206   4.692
   27DPPC   C17 1317   3.822   0.298   4.598
   27DPPC   C18 1318   3.883   0.366   4.475
   27DPPC   C19 1319   3.798   0.487   4.434
   27DPPC   C20 1320   3.865   0.546   4.310
   27DPPC   C21 1321   3.844   0.453   4.190
   27DPPC   C22 1322   3.953   0.475   4.084
   27DPPC   C23 1323   3.953   0.417   3.943
   27DPPC   C24 1324   4.054   0.487   3.852
   27DPPC   C25 1325   4.055   0.408   3.721
   27DPPC   C26 1326   4.136   0.283   3.754
   27DPPC   C27 1327   4.122   0.179   3.643
   27DPPC   C28 1328   4.193   0.045   3.661
   27DPPC   C29 1329   4.173  -0.069   3.560
   27DPPC   C30 1330   4.022  -0.070   3.536
   27DPPC   C31 1331   3.965  -0.209   3.565
   27DPPC   C32 1332   3.831  -0.155   4.698
   27DPPC   O33 1333   3.902  -0.278   4.706
   27DPPC   C34 1334   3.832  -0.392   4.681
   27DPPC   O35 1335   3.710  -0.408   4.673
   27DPPC   C36 1336   3.924  -0.514   4.672
   27DPPC   C37 1337   3.972  -0.562   4.535
   27DPPC   C38 1338   4.055  -0.452   4.469
   27DPPC   C39 1339   4.094  -0.499   4.329
   27DPPC   C40 1340   4.203  -0.398   4.290
   27DPPC   C41 1341   4.260  -0.437   4.153
   27DPPC   C42 1342   4.345  -0.321   4.100
   27DPPC   C43 1343   4.417  -0.361   3.971
   27DPPC   C44 1344   4.514  -0.253   3.922
   27DPPC   C45 1345   4.573  -0.308   3.791
   27DPPC   C46 1346   4.471  -0.295   3.678
   27DPPC   C47 1347   4.538  -0.350   3.552
   27DPPC   C48 1348   4.453  -0.349   3.425
   27DPPC   C49 1349   4.561  -0.397   3.329
   27DPPC   C50 1350   4.580  -0.549   3.317
   28DPPC    C1 1351   8.696   2.528   5.507
   28DPPC    C2 1352   8.754   2.530   5.736
   28DPPC    C3 1353   8.702   2.734   5.625
   28DPPC    N4 1354   8.666   2.592   5.636
   28DPPC    C5 1355   8.536   2.538   5.679
   28DPPC    C6 1356   8.411   2.602   5.618
   28DPPC    O7 1357   8.364   2.695   5.716
   28DPPC    P8 1358   8.237   2.783   5.671
   28DPPC    O9 1359   8.248   2.899   5.762
   28DPPC   O10 1360   8.131   2.680   5.677
   28DPPC   O11 1361   8.309   2.811   5.530
   28DPPC   C12 1362   8.213   2.836   5.427
   28DPPC   C13 1363   8.287   2.900   5.309
   28DPPC   O14 1364   8.202   2.959   5.209
   28DPPC   C15 1365   8.240   3.075   5.149
   28DPPC   O16 1366   8.356   3.114   5.164
   28DPPC   C17 1367   8.151   3.123   5.034
   28DPPC   C18 1368   8.011   3.162   5.082
   28DPPC   C19 1369   7.903   3.165   4.974
   28DPPC   C20 1370   7.935   3.263   4.862
   28DPPC   C21 1371   7.847   3.238   4.739
   28DPPC   C22 1372   7.881   3.345   4.636
   28DPPC   C23 1373   7.796   3.306   4.515
   28DPPC   C24 1374   7.790   3.426   4.421
   28DPPC   C25 1375   7.737   3.389   4.282
   28DPPC   C26 1376   7.787   3.498   4.187
   28DPPC   C27 1377   7.720   3.488   4.050
   28DPPC   C28 1378   7.739   3.618   3.971
   28DPPC   C29 1379   7.627   3.631   3.868
   28DPPC   C30 1380   7.650   3.752   3.777
   28DPPC   C31 1381   7.542   3.747   3.668
   28DPPC   C32 1382   8.386   2.795   5.258
   28DPPC   O33 1383   8.322   2.674   5.219
   28DPPC   C34 1384   8.395   2.567   5.175
   28DPPC   O35 1385   8.510   2.552   5.216
   28DPPC   C36 1386   8.316   2.450   5.115
   28DPPC   C37 1387   8.290   2.471   4.966
   28DPPC   C38 1388   8.183   2.576   4.935
   28DPPC   C39 1389   8.166   2.586   4.784
   28DPPC   C40 1390   8.076   2.704   4.746
   28DPPC   C41 1391   8.046   2.710   4.596
   28DPPC   C42 1392   7.976   2.844   4.572
   28DPPC   C43 1393   7.928   2.863   4.428
   28DPPC   C44 1394   7.999   2.982   4.364
   28DPPC   C45 1395   7.969   3.004   4.215
   28DPPC   C46 1396   8.022   3.138   4.162
   28DPPC   C47 1397   7.986   3.127   4.013
   28DPPC   C48 1398   8.017   3.263   3.951
   28DPPC   C49 1399   7.961   3.257   3.809
   28DPPC   C50 1400   7.999   3.374   3.718
   29DPPC    C1 1401   0.497   4.854   5.210
   29DPPC    C2 1402   0.434   4.765   5.010
   29DPPC    C3 1403   0.269   4.858   5.109
   29DPPC    N4 1404   0.413   4.884   5.094
   29DPPC    C5 1405   0.452   5.003   5.017
   29DPPC    C6 1406   0.430   5.136   5.089
   29DPPC    O7 1407   0.497   5.241   5.019
   29DPPC    P8 1408   0.445   5.385   5.070
   29DPPC    O9 1409   0.554   5.430   5.160
   29DPPC   O10 1410   0.315   5.354   5.133
   29DPPC   O11 1411   0.462   5.456   4.927
   29DPPC   C12 1412   0.373   5.404   4.828
   29DPPC   C13 1413   0.396   5.468   4.692
   29DPPC   O14 1414   0.293   5.430   4.599
   29DPPC   C15 1415   0.185   5.510   4.578
   29DPPC   O16 1416   0.163   5.610   4.646
   29DPPC   C17 1417   0.099   5.483   4.454
   29DPPC   C18 1418   0.176   5.522   4.328
   29DPPC   C19 1419   0.105   5.461   4.207
   29DPPC   C20 1420   0.203   5.446   4.090
   29DPPC   C21 1421   0.135   5.423   3.955
   29DPPC   C22 1422   0.019   5.518   3.924
   29DPPC   C23 1423  -0.069   5.492   3.802
   29DPPC   C24 1424  -0.150   5.612   3.753
   29DPPC   C25 1425  -0.211   5.610   3.613
   29DPPC   C26 1426  -0.333   5.519   3.597
   29DPPC   C27 1427  -0.414   5.530   3.468
   29DPPC   C28 1428  -0.538   5.440   3.457
   29DPPC   C29 1429  -0.606   5.460   3.322
   29DPPC   C30 1430  -0.665   5.601   3.332
   29DPPC   C31 1431  -0.746   5.646   3.210
   29DPPC   C32 1432   0.540   5.433   4.654
   29DPPC   O33 1433   0.578   5.295   4.650
   29DPPC   C34 1434   0.705   5.274   4.608
   29DPPC   O35 1435   0.769   5.369   4.561
   29DPPC   C36 1436   0.758   5.132   4.628
   29DPPC   C37 1437   0.842   5.095   4.506
   29DPPC   C38 1438   0.927   4.969   4.517
   29DPPC   C39 1439   1.016   4.951   4.394
   29DPPC   C40 1440   0.943   4.941   4.260
   29DPPC   C41 1441   1.039   4.906   4.146
   29DPPC   C42 1442   0.970   4.930   4.011
   29DPPC   C43 1443   1.060   4.917   3.888
   29DPPC   C44 1444   0.987   4.954   3.759
   29DPPC   C45 1445   1.068   4.930   3.631
   29DPPC   C46 1446   0.997   5.003   3.517
   29DPPC   C47 1447   1.067   4.977   3.384
   29DPPC   C48 1448   1.020   5.067   3.270
   29DPPC   C49 1449   1.114   5.056   3.150
   29DPPC   C50 1450   1.068   5.137   3.029
   30DPPC    C1 1451   6.783   1.967   6.091
   30DPPC    C2 1452   6.967   1.945   5.931
   30DPPC    C3 1453   6.771   2.020   5.848
   30DPPC    N4 1454   6.849   2.022   5.972
   30DPPC    C5 1455   6.903   2.157   5.996
   30DPPC    C6 1456   6.806   2.258   6.057
   30DPPC    O7 1457   6.862   2.390   6.065
   30DPPC    P8 1458   6.764   2.489   5.984
   30DPPC    O9 1459   6.811   2.627   6.007
   30DPPC   O10 1460   6.621   2.460   6.007
   30DPPC   O11 1461   6.793   2.454   5.830
   30DPPC   C12 1462   6.748   2.569   5.758
   30DPPC   C13 1463   6.824   2.574   5.626
   30DPPC   O14 1464   6.779   2.670   5.529
   30DPPC   C15 1465   6.857   2.781   5.518
   30DPPC   O16 1466   6.935   2.818   5.606
   30DPPC   C17 1467   6.830   2.868   5.394
   30DPPC   C18 1468   6.772   3.008   5.417
   30DPPC   C19 1469   6.753   3.094   5.293
   30DPPC   C20 1470   6.887   3.151   5.245
   30DPPC   C21 1471   6.875   3.221   5.109
   30DPPC   C22 1472   7.005   3.295   5.076
   30DPPC   C23 1473   6.978   3.386   4.956
   30DPPC   C24 1474   6.854   3.475   4.971
   30DPPC   C25 1475   6.860   3.561   4.845
   30DPPC   C26 1476   6.928   3.693   4.882
   30DPPC   C27 1477   6.961   3.767   4.752
   30DPPC   C28 1478   6.839   3.799   4.666
   30DPPC   C29 1479   6.760   3.903   4.745
   30DPPC   C30 1480   6.609   3.880   4.731
   30DPPC   C31 1481   6.573   3.896   4.584
   30DPPC   C32 1482   6.818   2.436   5.559
   30DPPC   O33 1483   6.896   2.411   5.442
   30DPPC   C34 1484   6.920   2.283   5.402
   30DPPC   O35 1485   6.829   2.212   5.444
   30DPPC   C36 1486   7.043   2.251   5.317
   30DPPC   C37 1487   7.012   2.225   5.170
   30DPPC   C38 1488   6.988   2.349   5.082
   30DPPC   C39 1489   6.989   2.310   4.934
   30DPPC   C40 1490   6.967   2.437   4.852
   30DPPC   C41 1491   6.933   2.392   4.710
   30DPPC   C42 1492   6.824   2.488   4.661
   30DPPC   C43 1493   6.794   2.496   4.511
   30DPPC   C44 1494   6.676   2.590   4.488
   30DPPC   C45 1495   6.662   2.619   4.338
   30DPPC   C46 1496   6.535   2.697   4.307
   30DPPC   C47 1497   6.520   2.815   4.403
   30DPPC   C48 1498   6.406   2.909   4.364
   30DPPC   C49 1499   6.414   3.032   4.456
   30DPPC   C50 1500   6.305   3.125   4.404
   31DPPC    C1 1501   5.956   7.132   5.219
   31DPPC    C2 1502   6.090   7.128   5.021
   31DPPC    C3 1503   6.175   7.154   5.249
   31DPPC    N4 1504   6.082   7.082   5.161
   31DPPC    C5 1505   6.094   6.939   5.193
   31DPPC    C6 1506   6.030   6.834   5.103
   31DPPC    O7 1507   5.888   6.846   5.109
   31DPPC    P8 1508   5.806   6.768   5.223
   31DPPC    O9 1509   5.795   6.867   5.333
   31DPPC   O10 1510   5.889   6.649   5.253
   31DPPC   O11 1511   5.665   6.739   5.152
   31DPPC   C12 1512   5.694   6.672   5.029
   31DPPC   C13 1513   5.601   6.555   4.996
   31DPPC   O14 1514   5.640   6.472   4.885
   31DPPC   C15 1515   5.631   6.339   4.909
   31DPPC   O16 1516   5.660   6.305   5.024
   31DPPC   C17 1517   5.647   6.250   4.785
   31DPPC   C18 1518   5.511   6.222   4.722
   31DPPC   C19 1519   5.541   6.181   4.577
   31DPPC   C20 1520   5.421   6.174   4.483
   31DPPC   C21 1521   5.464   6.121   4.346
   31DPPC   C22 1522   5.334   6.089   4.272
   31DPPC   C23 1523   5.243   6.212   4.270
   31DPPC   C24 1524   5.132   6.187   4.169
   31DPPC   C25 1525   5.052   6.317   4.155
   31DPPC   C26 1526   4.979   6.308   4.021
   31DPPC   C27 1527   4.934   6.452   3.994
   31DPPC   C28 1528   4.829   6.487   4.100
   31DPPC   C29 1529   4.757   6.616   4.058
   31DPPC   C30 1530   4.641   6.639   4.154
   31DPPC   C31 1531   4.702   6.678   4.289
   31DPPC   C32 1532   5.461   6.616   4.995
   31DPPC   O33 1533   5.443   6.718   4.897
   31DPPC   C34 1534   5.333   6.798   4.901
   31DPPC   O35 1535   5.238   6.767   4.973
   31DPPC   C36 1536   5.341   6.917   4.806
   31DPPC   C37 1537   5.304   6.881   4.662
   31DPPC   C38 1538   5.320   7.007   4.577
   31DPPC   C39 1539   5.283   6.959   4.436
   31DPPC   C40 1540   5.304   7.062   4.325
   31DPPC   C41 1541   5.429   7.144   4.355
   31DPPC   C42 1542   5.451   7.248   4.245
   31DPPC   C43 1543   5.591   7.311   4.241
   31DPPC   C44 1544   5.621   7.410   4.353
   31DPPC   C45 1545   5.523   7.526   4.330
   31DPPC   C46 1546   5.544   7.626   4.444
   31DPPC   C47 1547   5.492   7.572   4.577
   31DPPC   C48 1548   5.347   7.525   4.566
   31DPPC   C49 1549   5.278   7.541   4.701
   31DPPC   C50 1550   5.146   7.463   4.706
   32DPPC    C1 1551   1.092   7.650   4.764
   32DPPC    C2 1552   0.975   7.855   4.746
   32DPPC    C3 1553   0.960   7.676   4.579
   32DPPC    N4 1554   0.965   7.710   4.722
   32DPPC    C5 1555   0.861   7.640   4.799
   32DPPC    C6 1556   0.729   7.711   4.827
   32DPPC    O7 1557   0.655   7.736   4.707
   32DPPC    P8 1558   0.543   7.850   4.728
   32DPPC    O9 1559   0.613   7.980   4.736
   32DPPC   O10 1560   0.441   7.810   4.827
   32DPPC   O11 1561   0.482   7.828   4.580
   32DPPC   C12 1562   0.578   7.867   4.483
   32DPPC   C13 1563   0.544   7.809   4.345
   32DPPC   O14 1564   0.641   7.827   4.240
   32DPPC   C15 1565   0.618   7.744   4.136
   32DPPC   O16 1566   0.563   7.637   4.161
   32DPPC   C17 1567   0.684   7.773   4.001
   32DPPC   C18 1568   0.797   7.675   3.972
   32DPPC   C19 1569   0.878   7.705   3.846
   32DPPC   C20 1570   1.028   7.712   3.874
   32DPPC   C21 1571   1.116   7.726   3.750
   32DPPC   C22 1572   1.094   7.608   3.655
   32DPPC   C23 1573   1.188   7.607   3.535
   32DPPC   C24 1574   1.160   7.500   3.429
   32DPPC   C25 1575   1.165   7.367   3.505
   32DPPC   C26 1576   1.140   7.258   3.401
   32DPPC   C27 1577   0.999   7.277   3.344
   32DPPC   C28 1578   0.961   7.162   3.250
   32DPPC   C29 1579   0.951   7.031   3.329
   32DPPC   C30 1580   0.819   7.026   3.406
   32DPPC   C31 1581   0.810   6.880   3.453
   32DPPC   C32 1582   0.403   7.857   4.310
   32DPPC   O33 1583   0.395   7.995   4.274
   32DPPC   C34 1584   0.268   8.037   4.249
   32DPPC   O35 1585   0.174   7.958   4.238
   32DPPC   C36 1586   0.248   8.188   4.232
   32DPPC   C37 1587   0.144   8.232   4.129
   32DPPC   C38 1588   0.157   8.381   4.099
   32DPPC   C39 1589   0.034   8.414   4.014
   32DPPC   C40 1590   0.041   8.558   3.961
   32DPPC   C41 1591  -0.015   8.572   3.819
   32DPPC   C42 1592  -0.020   8.716   3.770
   32DPPC   C43 1593  -0.039   8.727   3.618
   32DPPC   C44 1594  -0.174   8.678   3.567
   32DPPC   C45 1595  -0.164   8.695   3.416
   32DPPC   C46 1596  -0.294   8.668   3.339
   32DPPC   C47 1597  -0.272   8.683   3.188
   32DPPC   C48 1598  -0.397   8.643   3.108
   32DPPC   C49 1599  -0.379   8.624   2.958
   32DPPC   C50 1600  -0.269   8.518   2.946
   33DPPC    C1 1601   2.305   2.398   5.279
   33DPPC    C2 1602   2.186   2.586   5.236
   33DPPC    C3 1603   2.302   2.493   5.053
   33DPPC    N4 1604   2.224   2.459   5.173
   33DPPC    C5 1605   2.114   2.377   5.119
   33DPPC    C6 1606   2.001   2.329   5.210
   33DPPC    O7 1607   1.886   2.269   5.150
   33DPPC    P8 1608   1.762   2.368   5.122
   33DPPC    O9 1609   1.786   2.473   5.223
   33DPPC   O10 1610   1.644   2.279   5.119
   33DPPC   O11 1611   1.804   2.423   4.977
   33DPPC   C12 1612   1.760   2.335   4.873
   33DPPC   C13 1613   1.772   2.400   4.735
   33DPPC   O14 1614   1.697   2.329   4.634
   33DPPC   C15 1615   1.574   2.384   4.614
   33DPPC   O16 1616   1.551   2.490   4.671
   33DPPC   C17 1617   1.497   2.338   4.490
   33DPPC   C18 1618   1.419   2.449   4.418
   33DPPC   C19 1619   1.361   2.420   4.280
   33DPPC   C20 1620   1.280   2.539   4.229
   33DPPC   C21 1621   1.196   2.505   4.105
   33DPPC   C22 1622   1.095   2.392   4.125
   33DPPC   C23 1623   1.022   2.382   3.991
   33DPPC   C24 1624   1.117   2.337   3.880
   33DPPC   C25 1625   1.032   2.337   3.753
   33DPPC   C26 1626   1.105   2.251   3.650
   33DPPC   C27 1627   1.249   2.300   3.670
   33DPPC   C28 1628   1.341   2.228   3.571
   33DPPC   C29 1629   1.492   2.237   3.591
   33DPPC   C30 1630   1.564   2.153   3.484
   33DPPC   C31 1631   1.649   2.230   3.382
   33DPPC   C32 1632   1.923   2.409   4.713
   33DPPC   O33 1633   2.002   2.290   4.725
   33DPPC   C34 1634   2.137   2.304   4.716
   33DPPC   O35 1635   2.185   2.416   4.734
   33DPPC   C36 1636   2.234   2.197   4.666
   33DPPC   C37 1637   2.162   2.072   4.614
   33DPPC   C38 1638   2.143   2.080   4.462
   33DPPC   C39 1639   2.093   1.946   4.407
   33DPPC   C40 1640   2.088   1.949   4.255
   33DPPC   C41 1641   2.072   1.809   4.195
   33DPPC   C42 1642   2.065   1.826   4.043
   33DPPC   C43 1643   2.192   1.901   4.001
   33DPPC   C44 1644   2.208   1.900   3.848
   33DPPC   C45 1645   2.127   2.022   3.804
   33DPPC   C46 1646   2.161   2.059   3.659
   33DPPC   C47 1647   2.086   2.180   3.602
   33DPPC   C48 1648   2.137   2.218   3.463
   33DPPC   C49 1649   2.039   2.326   3.416
   33DPPC   C50 1650   2.055   2.350   3.265
   34DPPC    C1 1651   2.936   4.433   5.461
   34DPPC    C2 1652   2.858   4.566   5.299
   34DPPC    C3 1653   2.870   4.675   5.511
   34DPPC    N4 1654   2.935   4.575   5.424
   34DPPC    C5 1655   3.068   4.628   5.392
   34DPPC    C6 1656   3.170   4.613   5.505
   34DPPC    O7 1657   3.276   4.705   5.480
   34DPPC    P8 1658   3.379   4.696   5.603
   34DPPC    O9 1659   3.302   4.693   5.730
   34DPPC   O10 1660   3.511   4.762   5.594
   34DPPC   O11 1661   3.403   4.538   5.583
   34DPPC   C12 1662   3.505   4.512   5.485
   34DPPC   C13 1663   3.569   4.374   5.488
   34DPPC   O14 1664   3.664   4.336   5.387
   34DPPC   C15 1665   3.788   4.390   5.393
   34DPPC   O16 1666   3.816   4.485   5.466
   34DPPC   C17 1667   3.899   4.338   5.301
   34DPPC   C18 1668   3.936   4.413   5.172
   34DPPC   C19 1669   3.818   4.430   5.077
   34DPPC   C20 1670   3.844   4.518   4.955
   34DPPC   C21 1671   3.715   4.559   4.884
   34DPPC   C22 1672   3.743   4.625   4.750
   34DPPC   C23 1673   3.795   4.528   4.644
   34DPPC   C24 1674   3.838   4.611   4.523
   34DPPC   C25 1675   3.886   4.521   4.408
   34DPPC   C26 1676   4.022   4.564   4.354
   34DPPC   C27 1677   4.092   4.451   4.278
   34DPPC   C28 1678   4.225   4.506   4.226
   34DPPC   C29 1679   4.298   4.415   4.127
   34DPPC   C30 1680   4.446   4.447   4.100
   34DPPC   C31 1681   4.457   4.586   4.036
   34DPPC   C32 1682   3.451   4.279   5.514
   34DPPC   O33 1683   3.346   4.278   5.416
   34DPPC   C34 1684   3.255   4.178   5.420
   34DPPC   O35 1685   3.221   4.149   5.535
   34DPPC   C36 1686   3.176   4.160   5.290
   34DPPC   C37 1687   3.177   4.013   5.247
   34DPPC   C38 1688   3.117   4.017   5.106
   34DPPC   C39 1689   3.222   4.067   5.007
   34DPPC   C40 1690   3.166   4.057   4.865
   34DPPC   C41 1691   3.250   3.969   4.773
   34DPPC   C42 1692   3.161   3.930   4.655
   34DPPC   C43 1693   3.258   3.879   4.548
   34DPPC   C44 1694   3.200   3.863   4.407
   34DPPC   C45 1695   3.311   3.797   4.326
   34DPPC   C46 1696   3.266   3.790   4.179
   34DPPC   C47 1697   3.283   3.927   4.114
   34DPPC   C48 1698   3.250   3.920   3.965
   34DPPC   C49 1699   3.297   4.052   3.903
   34DPPC   C50 1700   3.287   4.045   3.750
   35DPPC    C1 1701   1.456   2.749   1.414
   35DPPC    C2 1702   1.357   2.952   1.500
   35DPPC    C3 1703   1.420   2.770   1.646
   35DPPC    N4 1704   1.455   2.845   1.525
   35DPPC    C5 1705   1.590   2.902   1.537
   35DPPC    C6 1706   1.648   2.979   1.418
   35DPPC    O7 1707   1.765   3.053   1.453
   35DPPC    P8 1708   1.765   3.187   1.365
   35DPPC    O9 1709   1.685   3.171   1.242
   35DPPC   O10 1710   1.880   3.280   1.375
   35DPPC   O11 1711   1.643   3.249   1.450
   35DPPC   C12 1712   1.698   3.312   1.567
   35DPPC   C13 1713   1.573   3.374   1.629
   35DPPC   O14 1714   1.604   3.490   1.708
   35DPPC   C15 1715   1.671   3.595   1.654
   35DPPC   O16 1716   1.653   3.614   1.534
   35DPPC   C17 1717   1.724   3.699   1.754
   35DPPC   C18 1718   1.612   3.739   1.850
   35DPPC   C19 1719   1.675   3.767   1.987
   35DPPC   C20 1720   1.576   3.816   2.093
   35DPPC   C21 1721   1.655   3.829   2.223
   35DPPC   C22 1722   1.560   3.854   2.341
   35DPPC   C23 1723   1.643   3.882   2.467
   35DPPC   C24 1724   1.546   3.947   2.566
   35DPPC   C25 1725   1.623   4.045   2.655
   35DPPC   C26 1726   1.525   4.134   2.732
   35DPPC   C27 1727   1.465   4.047   2.843
   35DPPC   C28 1728   1.371   4.128   2.933
   35DPPC   C29 1729   1.333   4.040   3.052
   35DPPC   C30 1730   1.262   4.127   3.156
   35DPPC   C31 1731   1.350   4.248   3.187
   35DPPC   C32 1732   1.490   3.273   1.709
   35DPPC   O33 1733   1.570   3.173   1.773
   35DPPC   C34 1734   1.498   3.076   1.834
   35DPPC   O35 1735   1.386   3.046   1.791
   35DPPC   C36 1736   1.571   2.983   1.931
   35DPPC   C37 1737   1.675   3.054   2.018
   35DPPC   C38 1738   1.604   3.159   2.103
   35DPPC   C39 1739   1.707   3.212   2.203
   35DPPC   C40 1740   1.640   3.321   2.288
   35DPPC   C41 1741   1.677   3.327   2.436
   35DPPC   C42 1742   1.586   3.438   2.490
   35DPPC   C43 1743   1.580   3.435   2.642
   35DPPC   C44 1744   1.486   3.535   2.709
   35DPPC   C45 1745   1.487   3.527   2.862
   35DPPC   C46 1746   1.401   3.650   2.894
   35DPPC   C47 1747   1.256   3.607   2.871
   35DPPC   C48 1748   1.162   3.727   2.856
   35DPPC   C49 1749   1.020   3.670   2.851
   35DPPC   C50 1750   0.965   3.621   2.985
   36DPPC    C1 1751   6.132   6.432   1.769
   36DPPC    C2 1752   6.293   6.433   1.929
   36DPPC    C3 1753   6.309   6.595   1.745
   36DPPC    N4 1754   6.221   6.525   1.840
   36DPPC    C5 1755   6.144   6.617   1.926
   36DPPC    C6 1756   6.062   6.733   1.868
   36DPPC    O7 1757   6.135   6.840   1.808
   36DPPC    P8 1758   6.023   6.953   1.783
   36DPPC    O9 1759   5.897   6.881   1.753
   36DPPC   O10 1760   6.080   7.050   1.687
   36DPPC   O11 1761   6.013   7.011   1.933
   36DPPC   C12 1762   6.144   7.032   1.987
   36DPPC   C13 1763   6.159   7.105   2.121
   36DPPC   O14 1764   6.289   7.078   2.175
   36DPPC   C15 1765   6.382   7.175   2.153
   36DPPC   O16 1766   6.379   7.255   2.059
   36DPPC   C17 1767   6.516   7.171   2.226
   36DPPC   C18 1768   6.476   7.165   2.374
   36DPPC   C19 1769   6.601   7.157   2.461
   36DPPC   C20 1770   6.574   7.170   2.611
   36DPPC   C21 1771   6.690   7.167   2.711
   36DPPC   C22 1772   6.638   7.183   2.854
   36DPPC   C23 1773   6.757   7.171   2.948
   36DPPC   C24 1774   6.730   7.228   3.087
   36DPPC   C25 1775   6.854   7.292   3.150
   36DPPC   C26 1776   6.815   7.355   3.284
   36DPPC   C27 1777   6.741   7.252   3.371
   36DPPC   C28 1778   6.673   7.303   3.498
   36DPPC   C29 1779   6.765   7.367   3.602
   36DPPC   C30 1780   6.693   7.412   3.729
   36DPPC   C31 1781   6.805   7.464   3.819
   36DPPC   C32 1782   6.040   7.050   2.199
   36DPPC   O33 1783   5.996   7.131   2.308
   36DPPC   C34 1784   5.917   7.080   2.406
   36DPPC   O35 1785   5.851   6.980   2.378
   36DPPC   C36 1786   5.896   7.158   2.536
   36DPPC   C37 1787   6.017   7.138   2.628
   36DPPC   C38 1788   6.000   7.186   2.772
   36DPPC   C39 1789   5.886   7.108   2.836
   36DPPC   C40 1790   5.937   7.087   2.979
   36DPPC   C41 1791   5.821   7.036   3.064
   36DPPC   C42 1792   5.841   7.034   3.216
   36DPPC   C43 1793   5.753   6.928   3.284
   36DPPC   C44 1794   5.788   6.920   3.433
   36DPPC   C45 1795   5.677   6.858   3.518
   36DPPC   C46 1796   5.735   6.821   3.654
   36DPPC   C47 1797   5.635   6.874   3.758
   36DPPC   C48 1798   5.647   6.792   3.887
   36DPPC   C49 1799   5.564   6.863   3.994
   36DPPC   C50 1800   5.604   6.793   4.123
   37DPPC    C1 1801   8.450   3.090   1.645
   37DPPC    C2 1802   8.529   3.078   1.426
   37DPPC    C3 1803   8.338   3.208   1.455
   37DPPC    N4 1804   8.463   3.168   1.521
   37DPPC    C5 1805   8.557   3.279   1.539
   37DPPC    C6 1806   8.506   3.388   1.633
   37DPPC    O7 1807   8.600   3.496   1.639
   37DPPC    P8 1808   8.527   3.622   1.707
   37DPPC    O9 1809   8.422   3.561   1.791
   37DPPC   O10 1810   8.494   3.688   1.578
   37DPPC   O11 1811   8.655   3.689   1.778
   37DPPC   C12 1812   8.677   3.612   1.896
   37DPPC   C13 1813   8.741   3.687   2.013
   37DPPC   O14 1814   8.798   3.605   2.116
   37DPPC   C15 1815   8.906   3.525   2.093
   37DPPC   O16 1816   8.962   3.529   1.983
   37DPPC   C17 1817   8.957   3.436   2.206
   37DPPC   C18 1818   9.058   3.328   2.167
   37DPPC   C19 1819   9.091   3.251   2.296
   37DPPC   C20 1820   9.169   3.128   2.251
   37DPPC   C21 1821   9.193   3.022   2.359
   37DPPC   C22 1822   9.298   2.925   2.306
   37DPPC   C23 1823   9.326   2.832   2.424
   37DPPC   C24 1824   9.393   2.892   2.548
   37DPPC   C25 1825   9.537   2.935   2.523
   37DPPC   C26 1826   9.609   2.969   2.653
   37DPPC   C27 1827   9.654   2.852   2.740
   37DPPC   C28 1828   9.685   2.902   2.881
   37DPPC   C29 1829   9.702   2.785   2.978
   37DPPC   C30 1830   9.765   2.804   3.117
   37DPPC   C31 1831   9.673   2.889   3.204
   37DPPC   C32 1832   8.634   3.789   2.053
   37DPPC   O33 1833   8.512   3.723   2.087
   37DPPC   C34 1834   8.405   3.777   2.024
   37DPPC   O35 1835   8.412   3.848   1.923
   37DPPC   C36 1836   8.264   3.735   2.066
   37DPPC   C37 1837   8.255   3.732   2.218
   37DPPC   C38 1838   8.306   3.859   2.288
   37DPPC   C39 1839   8.248   3.888   2.426
   37DPPC   C40 1840   8.292   3.778   2.522
   37DPPC   C41 1841   8.204   3.781   2.647
   37DPPC   C42 1842   8.293   3.710   2.751
   37DPPC   C43 1843   8.246   3.727   2.896
   37DPPC   C44 1844   8.364   3.673   2.977
   37DPPC   C45 1845   8.344   3.711   3.124
   37DPPC   C46 1846   8.461   3.654   3.204
   37DPPC   C47 1847   8.462   3.692   3.352
   37DPPC   C48 1848   8.572   3.619   3.429
   37DPPC   C49 1849   8.680   3.723   3.458
   37DPPC   C50 1850   8.804   3.647   3.506
   38DPPC    C1 1851   3.409   4.326   1.467
   38DPPC    C2 1852   3.405   4.560   1.407
   38DPPC    C3 1853   3.225   4.427   1.341
   38DPPC    N4 1854   3.324   4.444   1.448
   38DPPC    C5 1855   3.246   4.487   1.565
   38DPPC    C6 1856   3.153   4.391   1.640
   38DPPC    O7 1857   3.225   4.287   1.707
   38DPPC    P8 1858   3.122   4.173   1.754
   38DPPC    O9 1859   3.191   4.072   1.837
   38DPPC   O10 1860   3.055   4.136   1.627
   38DPPC   O11 1861   3.024   4.267   1.841
   38DPPC   C12 1862   3.063   4.275   1.979
   38DPPC   C13 1863   3.161   4.389   2.003
   38DPPC   O14 1864   3.238   4.362   2.121
   38DPPC   C15 1865   3.329   4.445   2.177
   38DPPC   O16 1866   3.388   4.532   2.112
   38DPPC   C17 1867   3.373   4.395   2.315
   38DPPC   C18 1868   3.370   4.511   2.415
   38DPPC   C19 1869   3.432   4.467   2.547
   38DPPC   C20 1870   3.427   4.588   2.641
   38DPPC   C21 1871   3.490   4.545   2.773
   38DPPC   C22 1872   3.412   4.441   2.854
   38DPPC   C23 1873   3.471   4.387   2.984
   38DPPC   C24 1874   3.516   4.505   3.071
   38DPPC   C25 1875   3.399   4.597   3.106
   38DPPC   C26 1876   3.462   4.703   3.198
   38DPPC   C27 1877   3.357   4.810   3.227
   38DPPC   C28 1878   3.412   4.923   3.315
   38DPPC   C29 1879   3.314   5.040   3.318
   38DPPC   C30 1880   3.363   5.141   3.422
   38DPPC   C31 1881   3.248   5.237   3.453
   38DPPC   C32 1882   3.087   4.523   1.993
   38DPPC   O33 1883   2.976   4.532   2.082
   38DPPC   C34 1884   2.916   4.654   2.091
   38DPPC   O35 1885   2.963   4.763   2.058
   38DPPC   C36 1886   2.792   4.645   2.181
   38DPPC   C37 1887   2.807   4.618   2.331
   38DPPC   C38 1888   2.711   4.508   2.375
   38DPPC   C39 1889   2.763   4.445   2.504
   38DPPC   C40 1890   2.656   4.347   2.555
   38DPPC   C41 1891   2.705   4.254   2.666
   38DPPC   C42 1892   2.768   4.323   2.787
   38DPPC   C43 1893   2.784   4.231   2.908
   38DPPC   C44 1894   2.848   4.321   3.014
   38DPPC   C45 1895   3.001   4.329   3.005
   38DPPC   C46 1896   3.052   4.423   3.114
   38DPPC   C47 1897   3.018   4.370   3.254
   38DPPC   C48 1898   3.084   4.460   3.359
   38DPPC   C49 1899   3.018   4.598   3.349
   38DPPC   C50 1900   3.050   4.691   3.466
   39DPPC    C1 1901   4.209   8.061   1.980
   39DPPC    C2 1902   4.290   8.079   1.748
   39DPPC    C3 1903   4.246   7.867   1.864
   39DPPC    N4 1904   4.204   8.006   1.843
   39DPPC    C5 1905   4.071   8.008   1.783
   39DPPC    C6 1906   3.979   8.129   1.800
   39DPPC    O7 1907   3.850   8.109   1.741
   39DPPC    P8 1908   3.731   8.187   1.816
   39DPPC    O9 1909   3.618   8.202   1.722
   39DPPC   O10 1910   3.778   8.316   1.873
   39DPPC   O11 1911   3.691   8.074   1.924
   39DPPC   C12 1912   3.549   8.069   1.937
   39DPPC   C13 1913   3.494   8.013   2.069
   39DPPC   O14 1914   3.352   8.022   2.085
   39DPPC   C15 1915   3.289   7.903   2.098
   39DPPC   O16 1916   3.332   7.811   2.028
   39DPPC   C17 1917   3.146   7.915   2.150
   39DPPC   C18 1918   3.101   7.780   2.207
   39DPPC   C19 1919   2.950   7.780   2.234
   39DPPC   C20 1920   2.889   7.650   2.287
   39DPPC   C21 1921   2.756   7.677   2.358
   39DPPC   C22 1922   2.715   7.547   2.427
   39DPPC   C23 1923   2.572   7.567   2.479
   39DPPC   C24 1924   2.479   7.607   2.364
   39DPPC   C25 1925   2.343   7.647   2.421
   39DPPC   C26 1926   2.280   7.536   2.505
   39DPPC   C27 1927   2.134   7.519   2.462
   39DPPC   C28 1928   2.053   7.398   2.510
   39DPPC   C29 1929   1.907   7.413   2.465
   39DPPC   C30 1930   1.887   7.424   2.314
   39DPPC   C31 1931   1.740   7.412   2.273
   39DPPC   C32 1932   3.589   8.079   2.170
   39DPPC   O33 1933   3.580   8.221   2.182
   39DPPC   C34 1934   3.641   8.267   2.294
   39DPPC   O35 1935   3.729   8.204   2.352
   39DPPC   C36 1936   3.609   8.405   2.352
   39DPPC   C37 1937   3.482   8.411   2.437
   39DPPC   C38 1938   3.508   8.335   2.568
   39DPPC   C39 1939   3.381   8.328   2.653
   39DPPC   C40 1940   3.386   8.285   2.800
   39DPPC   C41 1941   3.259   8.315   2.880
   39DPPC   C42 1942   3.240   8.239   3.012
   39DPPC   C43 1943   3.104   8.279   3.070
   39DPPC   C44 1944   3.109   8.247   3.219
   39DPPC   C45 1945   2.986   8.311   3.284
   39DPPC   C46 1946   2.940   8.237   3.410
   39DPPC   C47 1947   2.815   8.304   3.468
   39DPPC   C48 1948   2.757   8.222   3.584
   39DPPC   C49 1949   2.832   8.247   3.715
   39DPPC   C50 1950   2.789   8.155   3.830
   40DPPC    C1 1951   3.140   7.222   2.165
   40DPPC    C2 1952   3.259   7.128   1.997
   40DPPC    C3 1953   3.231   7.008   2.208
   40DPPC    N4 1954   3.166   7.091   2.106
   40DPPC    C5 1955   3.043   7.030   2.055
   40DPPC    C6 1956   3.034   6.932   1.937
   40DPPC    O7 1957   3.118   6.818   1.957
   40DPPC    P8 1958   3.092   6.700   1.851
   40DPPC    O9 1959   3.206   6.607   1.865
   40DPPC   O10 1960   3.033   6.729   1.719
   40DPPC   O11 1961   2.974   6.649   1.949
   40DPPC   C12 1962   3.039   6.560   2.041
   40DPPC   C13 1963   2.954   6.528   2.164
   40DPPC   O14 1964   2.848   6.440   2.124
   40DPPC   C15 1965   2.873   6.307   2.106
   40DPPC   O16 1966   2.982   6.250   2.096
   40DPPC   C17 1967   2.741   6.231   2.101
   40DPPC   C18 1968   2.677   6.230   2.240
   40DPPC   C19 1969   2.542   6.159   2.237
   40DPPC   C20 1970   2.495   6.140   2.381
   40DPPC   C21 1971   2.484   6.265   2.469
   40DPPC   C22 1972   2.437   6.224   2.609
   40DPPC   C23 1973   2.436   6.338   2.711
   40DPPC   C24 1974   2.377   6.289   2.843
   40DPPC   C25 1975   2.369   6.409   2.938
   40DPPC   C26 1976   2.262   6.503   2.882
   40DPPC   C27 1977   2.219   6.582   3.006
   40DPPC   C28 1978   2.146   6.496   3.108
   40DPPC   C29 1979   2.198   6.490   3.252
   40DPPC   C30 1980   2.141   6.391   3.353
   40DPPC   C31 1981   2.165   6.430   3.499
   40DPPC   C32 1982   2.906   6.659   2.226
   40DPPC   O33 1983   2.979   6.688   2.346
   40DPPC   C34 1984   2.965   6.818   2.384
   40DPPC   O35 1985   2.933   6.912   2.312
   40DPPC   C36 1986   3.010   6.849   2.527
   40DPPC   C37 1987   2.970   6.989   2.575
   40DPPC   C38 1988   3.004   7.001   2.724
   40DPPC   C39 1989   2.873   7.027   2.799
   40DPPC   C40 1990   2.896   7.042   2.950
   40DPPC   C41 1991   2.750   7.072   2.985
   40DPPC   C42 1992   2.737   7.129   3.127
   40DPPC   C43 1993   2.809   7.033   3.222
   40DPPC   C44 1994   2.803   7.096   3.361
   40DPPC   C45 1995   2.659   7.137   3.395
   40DPPC   C46 1996   2.643   7.187   3.539
   40DPPC   C47 1997   2.507   7.254   3.556
   40DPPC   C48 1998   2.499   7.327   3.691
   40DPPC   C49 1999   2.363   7.391   3.719
   40DPPC   C50 2000   2.323   7.507   3.628
   41DPPC    C1 2001   3.096   5.787   1.838
   41DPPC    C2 2002   2.987   5.980   1.867
   41DPPC    C3 2003   3.215   5.980   1.791
   41DPPC    N4 2004   3.083   5.919   1.774
   41DPPC    C5 2005   3.052   5.907   1.630
   41DPPC    C6 2006   2.950   5.812   1.568
   41DPPC    O7 2007   2.812   5.835   1.599
   41DPPC    P8 2008   2.717   5.762   1.491
   41DPPC    O9 2009   2.799   5.740   1.370
   41DPPC   O10 2010   2.594   5.843   1.488
   41DPPC   O11 2011   2.691   5.619   1.561
   41DPPC   C12 2012   2.598   5.618   1.670
   41DPPC   C13 2013   2.528   5.485   1.697
   41DPPC   O14 2014   2.402   5.484   1.766
   41DPPC   C15 2015   2.283   5.537   1.726
   41DPPC   O16 2016   2.289   5.607   1.625
   41DPPC   C17 2017   2.178   5.547   1.837
   41DPPC   C18 2018   2.171   5.407   1.898
   41DPPC   C19 2019   2.061   5.398   2.003
   41DPPC   C20 2020   2.048   5.269   2.084
   41DPPC   C21 2021   1.913   5.283   2.154
   41DPPC   C22 2022   1.867   5.149   2.212
   41DPPC   C23 2023   1.742   5.181   2.295
   41DPPC   C24 2024   1.672   5.060   2.357
   41DPPC   C25 2025   1.560   5.096   2.455
   41DPPC   C26 2026   1.509   4.963   2.512
   41DPPC   C27 2027   1.418   5.005   2.627
   41DPPC   C28 2028   1.513   5.078   2.722
   41DPPC   C29 2029   1.441   5.113   2.852
   41DPPC   C30 2030   1.540   5.138   2.965
   41DPPC   C31 2031   1.470   5.141   3.101
   41DPPC   C32 2032   2.635   5.402   1.769
   41DPPC   O33 2033   2.713   5.483   1.858
   41DPPC   C34 2034   2.818   5.417   1.912
   41DPPC   O35 2035   2.861   5.305   1.885
   41DPPC   C36 2036   2.889   5.490   2.026
   41DPPC   C37 2037   2.871   5.394   2.144
   41DPPC   C38 2038   2.939   5.447   2.271
   41DPPC   C39 2039   2.918   5.362   2.397
   41DPPC   C40 2040   3.021   5.393   2.506
   41DPPC   C41 2041   2.973   5.297   2.616
   41DPPC   C42 2042   3.061   5.301   2.741
   41DPPC   C43 2043   3.185   5.213   2.729
   41DPPC   C44 2044   3.268   5.237   2.856
   41DPPC   C45 2045   3.380   5.133   2.854
   41DPPC   C46 2046   3.467   5.143   2.728
   41DPPC   C47 2047   3.568   5.028   2.733
   41DPPC   C48 2048   3.690   5.071   2.652
   41DPPC   C49 2049   3.771   5.185   2.715
   41DPPC   C50 2050   3.892   5.207   2.623
   42DPPC    C1 2051   1.939   4.526   1.861
   42DPPC    C2 2052   2.080   4.555   1.659
   42DPPC    C3 2053   2.081   4.358   1.779
   42DPPC    N4 2054   1.992   4.467   1.737
   42DPPC    C5 2055   1.887   4.411   1.650
   42DPPC    C6 2056   1.772   4.505   1.614
   42DPPC    O7 2057   1.800   4.606   1.516
   42DPPC    P8 2058   1.665   4.691   1.498
   42DPPC    O9 2059   1.548   4.602   1.482
   42DPPC   O10 2060   1.699   4.790   1.394
   42DPPC   O11 2061   1.678   4.757   1.645
   42DPPC   C12 2062   1.749   4.881   1.637
   42DPPC   C13 2063   1.788   4.932   1.775
   42DPPC   O14 2064   1.899   4.872   1.844
   42DPPC   C15 2065   2.026   4.903   1.809
   42DPPC   O16 2066   2.055   4.951   1.699
   42DPPC   C17 2067   2.130   4.866   1.915
   42DPPC   C18 2068   2.091   4.896   2.060
   42DPPC   C19 2069   2.004   4.782   2.112
   42DPPC   C20 2070   2.004   4.767   2.265
   42DPPC   C21 2071   1.932   4.635   2.293
   42DPPC   C22 2072   1.934   4.632   2.445
   42DPPC   C23 2073   1.883   4.504   2.510
   42DPPC   C24 2074   1.863   4.539   2.658
   42DPPC   C25 2075   1.819   4.415   2.735
   42DPPC   C26 2076   1.816   4.446   2.885
   42DPPC   C27 2077   1.774   4.333   2.980
   42DPPC   C28 2078   1.765   4.379   3.125
   42DPPC   C29 2079   1.902   4.429   3.172
   42DPPC   C30 2080   1.901   4.474   3.318
   42DPPC   C31 2081   1.845   4.616   3.318
   42DPPC   C32 2082   1.661   4.949   1.859
   42DPPC   O33 2083   1.594   5.073   1.834
   42DPPC   C34 2084   1.494   5.085   1.925
   42DPPC   O35 2085   1.445   4.986   1.979
   42DPPC   C36 2086   1.434   5.223   1.952
   42DPPC   C37 2087   1.374   5.237   2.092
   42DPPC   C38 2088   1.349   5.382   2.134
   42DPPC   C39 2089   1.222   5.435   2.066
   42DPPC   C40 2090   1.174   5.553   2.150
   42DPPC   C41 2091   1.038   5.518   2.212
   42DPPC   C42 2092   1.024   5.609   2.334
   42DPPC   C43 2093   0.912   5.569   2.431
   42DPPC   C44 2094   0.922   5.656   2.557
   42DPPC   C45 2095   0.839   5.588   2.667
   42DPPC   C46 2096   0.829   5.663   2.800
   42DPPC   C47 2097   0.719   5.604   2.888
   42DPPC   C48 2098   0.722   5.685   3.018
   42DPPC   C49 2099   0.606   5.669   3.116
   42DPPC   C50 2100   0.629   5.749   3.244
   43DPPC    C1 2101   1.676   6.537   1.660
   43DPPC    C2 2102   1.453   6.614   1.651
   43DPPC    C3 2103   1.636   6.738   1.753
   43DPPC    N4 2104   1.593   6.656   1.639
   43DPPC    C5 2105   1.647   6.714   1.515
   43DPPC    C6 2106   1.560   6.822   1.450
   43DPPC    O7 2107   1.530   6.926   1.543
   43DPPC    P8 2108   1.397   7.002   1.495
   43DPPC    O9 2109   1.336   6.944   1.373
   43DPPC   O10 2110   1.421   7.148   1.500
   43DPPC   O11 2111   1.316   6.951   1.624
   43DPPC   C12 2112   1.212   7.038   1.670
   43DPPC   C13 2113   1.141   6.980   1.792
   43DPPC   O14 2114   1.085   7.079   1.882
   43DPPC   C15 2115   0.951   7.076   1.901
   43DPPC   O16 2116   0.879   7.039   1.809
   43DPPC   C17 2117   0.908   7.162   2.020
   43DPPC   C18 2118   0.959   7.306   2.010
   43DPPC   C19 2119   0.903   7.385   2.128
   43DPPC   C20 2120   0.983   7.514   2.140
   43DPPC   C21 2121   0.911   7.604   2.240
   43DPPC   C22 2122   0.892   7.527   2.371
   43DPPC   C23 2123   0.811   7.605   2.474
   43DPPC   C24 2124   0.828   7.529   2.605
   43DPPC   C25 2125   0.974   7.523   2.650
   43DPPC   C26 2126   0.962   7.471   2.794
   43DPPC   C27 2127   1.090   7.412   2.853
   43DPPC   C28 2128   1.196   7.509   2.907
   43DPPC   C29 2129   1.307   7.439   2.986
   43DPPC   C30 2130   1.415   7.538   3.030
   43DPPC   C31 2131   1.517   7.475   3.125
   43DPPC   C32 2132   1.244   6.892   1.862
   43DPPC   O33 2133   1.215   6.799   1.967
   43DPPC   C34 2134   1.309   6.731   2.037
   43DPPC   O35 2135   1.412   6.688   1.984
   43DPPC   C36 2136   1.261   6.651   2.158
   43DPPC   C37 2137   1.263   6.732   2.288
   43DPPC   C38 2138   1.180   6.645   2.383
   43DPPC   C39 2139   1.129   6.732   2.498
   43DPPC   C40 2140   1.046   6.846   2.438
   43DPPC   C41 2141   0.975   6.933   2.541
   43DPPC   C42 2142   0.858   7.007   2.476
   43DPPC   C43 2143   0.762   7.070   2.577
   43DPPC   C44 2144   0.716   6.985   2.695
   43DPPC   C45 2145   0.631   7.083   2.776
   43DPPC   C46 2146   0.699   7.156   2.892
   43DPPC   C47 2147   0.596   7.227   2.980
   43DPPC   C48 2148   0.681   7.311   3.076
   43DPPC   C49 2149   0.598   7.429   3.124
   43DPPC   C50 2150   0.568   7.524   3.007
   44DPPC    C1 2151   4.884   1.727   1.471
   44DPPC    C2 2152   4.671   1.810   1.438
   44DPPC    C3 2153   4.758   1.812   1.652
   44DPPC    N4 2154   4.795   1.836   1.512
   44DPPC    C5 2155   4.864   1.965   1.496
   44DPPC    C6 2156   4.784   2.095   1.515
   44DPPC    O7 2157   4.733   2.121   1.646
   44DPPC    P8 2158   4.713   2.281   1.650
   44DPPC    O9 2159   4.604   2.301   1.749
   44DPPC   O10 2160   4.686   2.333   1.514
   44DPPC   O11 2161   4.860   2.319   1.704
   44DPPC   C12 2162   4.872   2.289   1.843
   44DPPC   C13 2163   5.020   2.260   1.866
   44DPPC   O14 2164   5.049   2.179   1.981
   44DPPC   C15 2165   5.170   2.117   1.984
   44DPPC   O16 2166   5.224   2.110   1.874
   44DPPC   C17 2167   5.210   2.033   2.106
   44DPPC   C18 2168   5.362   2.039   2.123
   44DPPC   C19 2169   5.389   2.002   2.269
   44DPPC   C20 2170   5.541   2.003   2.292
   44DPPC   C21 2171   5.583   1.985   2.438
   44DPPC   C22 2172   5.734   1.982   2.466
   44DPPC   C23 2173   5.764   1.963   2.615
   44DPPC   C24 2174   5.705   1.838   2.680
   44DPPC   C25 2175   5.720   1.838   2.832
   44DPPC   C26 2176   5.845   1.768   2.885
   44DPPC   C27 2177   5.829   1.735   3.033
   44DPPC   C28 2178   5.929   1.624   3.069
   44DPPC   C29 2179   5.930   1.583   3.216
   44DPPC   C30 2180   6.047   1.486   3.233
   44DPPC   C31 2181   6.060   1.437   3.377
   44DPPC   C32 2182   5.080   2.401   1.869
   44DPPC   O33 2183   5.015   2.492   1.958
   44DPPC   C34 2184   5.065   2.618   1.965
   44DPPC   O35 2185   5.156   2.659   1.893
   44DPPC   C36 2186   4.995   2.706   2.069
   44DPPC   C37 2187   5.074   2.831   2.107
   44DPPC   C38 2188   5.174   2.783   2.212
   44DPPC   C39 2189   5.102   2.765   2.346
   44DPPC   C40 2190   5.212   2.718   2.441
   44DPPC   C41 2191   5.146   2.684   2.575
   44DPPC   C42 2192   5.260   2.654   2.673
   44DPPC   C43 2193   5.202   2.582   2.795
   44DPPC   C44 2194   5.315   2.556   2.894
   44DPPC   C45 2195   5.262   2.500   3.026
   44DPPC   C46 2196   5.371   2.512   3.133
   44DPPC   C47 2197   5.326   2.426   3.252
   44DPPC   C48 2198   5.437   2.456   3.353
   44DPPC   C49 2199   5.566   2.421   3.279
   44DPPC   C50 2200   5.682   2.407   3.378
   45DPPC    C1 2201   0.215   4.354   1.355
   45DPPC    C2 2202   0.255   4.415   1.130
   45DPPC    C3 2203   0.434   4.389   1.284
   45DPPC    N4 2204   0.305   4.332   1.241
   45DPPC    C5 2205   0.322   4.189   1.210
   45DPPC    C6 2206   0.346   4.096   1.329
   45DPPC    O7 2207   0.483   4.060   1.352
   45DPPC    P8 2208   0.491   3.958   1.476
   45DPPC    O9 2209   0.637   3.935   1.474
   45DPPC   O10 2210   0.389   3.858   1.435
   45DPPC   O11 2211   0.440   4.031   1.609
   45DPPC   C12 2212   0.552   4.051   1.695
   45DPPC   C13 2213   0.529   4.151   1.809
   45DPPC   O14 2214   0.624   4.146   1.916
   45DPPC   C15 2215   0.721   4.242   1.913
   45DPPC   O16 2216   0.785   4.260   1.810
   45DPPC   C17 2217   0.773   4.264   2.055
   45DPPC   C18 2218   0.674   4.357   2.126
   45DPPC   C19 2219   0.703   4.378   2.275
   45DPPC   C20 2220   0.597   4.475   2.327
   45DPPC   C21 2221   0.633   4.570   2.441
   45DPPC   C22 2222   0.518   4.671   2.451
   45DPPC   C23 2223   0.383   4.607   2.481
   45DPPC   C24 2224   0.270   4.710   2.475
   45DPPC   C25 2225   0.164   4.635   2.556
   45DPPC   C26 2226   0.046   4.732   2.563
   45DPPC   C27 2227  -0.051   4.679   2.669
   45DPPC   C28 2228   0.025   4.634   2.794
   45DPPC   C29 2229  -0.061   4.590   2.913
   45DPPC   C30 2230   0.021   4.555   3.037
   45DPPC   C31 2231  -0.053   4.463   3.134
   45DPPC   C32 2232   0.385   4.130   1.855
   45DPPC   O33 2233   0.347   4.239   1.940
   45DPPC   C34 2234   0.219   4.234   1.986
   45DPPC   O35 2235   0.138   4.157   1.935
   45DPPC   C36 2236   0.189   4.333   2.099
   45DPPC   C37 2237   0.092   4.270   2.199
   45DPPC   C38 2238   0.107   4.348   2.329
   45DPPC   C39 2239   0.013   4.289   2.435
   45DPPC   C40 2240   0.048   4.148   2.483
   45DPPC   C41 2241  -0.054   4.102   2.587
   45DPPC   C42 2242  -0.079   4.176   2.719
   45DPPC   C43 2243  -0.178   4.086   2.793
   45DPPC   C44 2244  -0.115   3.946   2.792
   45DPPC   C45 2245  -0.224   3.848   2.838
   45DPPC   C46 2246  -0.272   3.887   2.978
   45DPPC   C47 2247  -0.369   3.789   3.045
   45DPPC   C48 2248  -0.510   3.790   2.985
   45DPPC   C49 2249  -0.583   3.659   3.013
   45DPPC   C50 2250  -0.714   3.642   2.935
   46DPPC    C1 2251   9.333   1.777   1.251
   46DPPC    C2 2252   9.338   1.833   1.467
   46DPPC    C3 2253   9.545   1.823   1.329
   46DPPC    N4 2254   9.406   1.867   1.341
   46DPPC    C5 2255   9.392   2.007   1.299
   46DPPC    C6 2256   9.374   2.129   1.390
   46DPPC    O7 2257   9.257   2.137   1.472
   46DPPC    P8 2258   9.250   2.282   1.542
   46DPPC    O9 2259   9.114   2.310   1.595
   46DPPC   O10 2260   9.331   2.378   1.465
   46DPPC   O11 2261   9.345   2.254   1.669
   46DPPC   C12 2262   9.279   2.183   1.774
   46DPPC   C13 2263   9.384   2.165   1.883
   46DPPC   O14 2264   9.370   2.045   1.961
   46DPPC   C15 2265   9.423   1.932   1.907
   46DPPC   O16 2266   9.459   1.923   1.790
   46DPPC   C17 2267   9.423   1.812   2.002
   46DPPC   C18 2268   9.356   1.829   2.139
   46DPPC   C19 2269   9.305   1.698   2.199
   46DPPC   C20 2270   9.253   1.726   2.340
   46DPPC   C21 2271   9.208   1.595   2.406
   46DPPC   C22 2272   9.127   1.611   2.535
   46DPPC   C23 2273   9.087   1.471   2.581
   46DPPC   C24 2274   8.989   1.448   2.696
   46DPPC   C25 2275   9.036   1.506   2.830
   46DPPC   C26 2276   8.946   1.449   2.940
   46DPPC   C27 2277   8.925   1.558   3.044
   46DPPC   C28 2278   9.063   1.578   3.106
   46DPPC   C29 2279   9.047   1.656   3.237
   46DPPC   C30 2280   8.944   1.592   3.330
   46DPPC   C31 2281   8.939   1.664   3.466
   46DPPC   C32 2282   9.391   2.298   1.956
   46DPPC   O33 2283   9.273   2.336   2.027
   46DPPC   C34 2284   9.273   2.460   2.082
   46DPPC   O35 2285   9.372   2.529   2.055
   46DPPC   C36 2286   9.144   2.512   2.146
   46DPPC   C37 2287   9.131   2.456   2.287
   46DPPC   C38 2288   9.055   2.573   2.351
   46DPPC   C39 2289   9.032   2.541   2.498
   46DPPC   C40 2290   8.895   2.477   2.525
   46DPPC   C41 2291   8.874   2.427   2.668
   46DPPC   C42 2292   8.748   2.341   2.680
   46DPPC   C43 2293   8.715   2.296   2.822
   46DPPC   C44 2294   8.588   2.212   2.843
   46DPPC   C45 2295   8.557   2.196   2.992
   46DPPC   C46 2296   8.415   2.204   3.049
   46DPPC   C47 2297   8.402   2.188   3.201
   46DPPC   C48 2298   8.490   2.300   3.258
   46DPPC   C49 2299   8.477   2.293   3.410
   46DPPC   C50 2300   8.591   2.373   3.473
   47DPPC    C1 2301   7.658   2.077   1.284
   47DPPC    C2 2302   7.673   1.908   1.120
   47DPPC    C3 2303   7.724   1.861   1.348
   47DPPC    N4 2304   7.633   1.935   1.259
   47DPPC    C5 2305   7.491   1.897   1.259
   47DPPC    C6 2306   7.432   1.836   1.387
   47DPPC    O7 2307   7.423   1.912   1.508
   47DPPC    P8 2308   7.405   1.828   1.644
   47DPPC    O9 2309   7.357   1.698   1.592
   47DPPC   O10 2310   7.324   1.908   1.738
   47DPPC   O11 2311   7.562   1.825   1.675
   47DPPC   C12 2312   7.602   1.769   1.801
   47DPPC   C13 2313   7.733   1.823   1.859
   47DPPC   O14 2314   7.800   1.734   1.949
   47DPPC   C15 2315   7.861   1.624   1.897
   47DPPC   O16 2316   7.885   1.609   1.778
   47DPPC   C17 2317   7.887   1.511   1.997
   47DPPC   C18 2318   7.793   1.393   1.972
   47DPPC   C19 2319   7.790   1.312   2.102
   47DPPC   C20 2320   7.740   1.393   2.222
   47DPPC   C21 2321   7.602   1.452   2.192
   47DPPC   C22 2322   7.555   1.523   2.318
   47DPPC   C23 2323   7.627   1.655   2.344
   47DPPC   C24 2324   7.537   1.730   2.442
   47DPPC   C25 2325   7.399   1.767   2.386
   47DPPC   C26 2326   7.324   1.841   2.497
   47DPPC   C27 2327   7.328   1.778   2.637
   47DPPC   C28 2328   7.263   1.876   2.735
   47DPPC   C29 2329   7.246   1.802   2.868
   47DPPC   C30 2330   7.155   1.873   2.968
   47DPPC   C31 2331   7.139   1.806   3.105
   47DPPC   C32 2332   7.694   1.960   1.917
   47DPPC   O33 2333   7.565   1.965   1.979
   47DPPC   C34 2334   7.509   2.081   2.021
   47DPPC   O35 2335   7.561   2.193   2.013
   47DPPC   C36 2336   7.383   2.052   2.103
   47DPPC   C37 2337   7.366   2.119   2.239
   47DPPC   C38 2338   7.218   2.130   2.273
   47DPPC   C39 2339   7.190   2.204   2.404
   47DPPC   C40 2340   7.051   2.170   2.457
   47DPPC   C41 2341   7.020   2.023   2.485
   47DPPC   C42 2342   6.888   2.006   2.560
   47DPPC   C43 2343   6.899   1.865   2.620
   47DPPC   C44 2344   6.775   1.861   2.709
   47DPPC   C45 2345   6.767   1.750   2.814
   47DPPC   C46 2346   6.704   1.807   2.940
   47DPPC   C47 2347   6.740   1.716   3.058
   47DPPC   C48 2348   6.697   1.763   3.197
   47DPPC   C49 2349   6.779   1.887   3.231
   47DPPC   C50 2350   6.767   1.909   3.382
   48DPPC    C1 2351   8.579   0.552   0.854
   48DPPC    C2 2352   8.403   0.584   0.704
   48DPPC    C3 2353   8.488   0.362   0.733
   48DPPC    N4 2354   8.457   0.488   0.801
   48DPPC    C5 2355   8.373   0.473   0.920
   48DPPC    C6 2356   8.299   0.346   0.962
   48DPPC    O7 2357   8.265   0.365   1.100
   48DPPC    P8 2358   8.185   0.231   1.140
   48DPPC    O9 2359   8.247   0.114   1.073
   48DPPC   O10 2360   8.043   0.262   1.111
   48DPPC   O11 2361   8.215   0.242   1.298
   48DPPC   C12 2362   8.353   0.240   1.337
   48DPPC   C13 2363   8.355   0.284   1.484
   48DPPC   O14 2364   8.478   0.287   1.558
   48DPPC   C15 2365   8.564   0.392   1.547
   48DPPC   O16 2366   8.541   0.469   1.455
   48DPPC   C17 2367   8.699   0.400   1.619
   48DPPC   C18 2368   8.690   0.321   1.750
   48DPPC   C19 2369   8.829   0.328   1.813
   48DPPC   C20 2370   8.843   0.269   1.953
   48DPPC   C21 2371   8.756   0.342   2.056
   48DPPC   C22 2372   8.781   0.268   2.188
   48DPPC   C23 2373   8.681   0.153   2.172
   48DPPC   C24 2374   8.672   0.059   2.291
   48DPPC   C25 2375   8.655   0.139   2.420
   48DPPC   C26 2376   8.639   0.048   2.542
   48DPPC   C27 2377   8.493   0.003   2.552
   48DPPC   C28 2378   8.445  -0.065   2.680
   48DPPC   C29 2379   8.318  -0.149   2.662
   48DPPC   C30 2380   8.257  -0.205   2.791
   48DPPC   C31 2381   8.156  -0.311   2.745
   48DPPC   C32 2382   8.245   0.203   1.551
   48DPPC   O33 2383   8.221   0.209   1.692
   48DPPC   C34 2384   8.154   0.317   1.737
   48DPPC   O35 2385   8.138   0.410   1.658
   48DPPC   C36 2386   8.109   0.323   1.883
   48DPPC   C37 2387   8.218   0.347   1.988
   48DPPC   C38 2388   8.150   0.360   2.124
   48DPPC   C39 2389   8.263   0.381   2.224
   48DPPC   C40 2390   8.213   0.374   2.369
   48DPPC   C41 2391   8.148   0.504   2.414
   48DPPC   C42 2392   8.114   0.489   2.562
   48DPPC   C43 2393   8.091   0.627   2.624
   48DPPC   C44 2394   8.039   0.630   2.768
   48DPPC   C45 2395   8.034   0.777   2.810
   48DPPC   C46 2396   8.011   0.804   2.959
   48DPPC   C47 2397   8.119   0.732   3.040
   48DPPC   C48 2398   8.125   0.761   3.191
   48DPPC   C49 2399   8.163   0.906   3.218
   48DPPC   C50 2400   8.171   0.923   3.370
   49DPPC    C1 2401   4.268   7.384   2.249
   49DPPC    C2 2402   4.201   7.395   2.487
   49DPPC    C3 2403   4.228   7.584   2.355
   49DPPC    N4 2404   4.181   7.445   2.350
   49DPPC    C5 2405   4.043   7.449   2.298
   49DPPC    C6 2406   3.973   7.316   2.268
   49DPPC    O7 2407   3.844   7.339   2.212
   49DPPC    P8 2408   3.797   7.245   2.090
   49DPPC    O9 2409   3.916   7.251   2.002
   49DPPC   O10 2410   3.672   7.315   2.052
   49DPPC   O11 2411   3.798   7.118   2.188
   49DPPC   C12 2412   3.672   7.050   2.185
   49DPPC   C13 2413   3.668   6.922   2.270
   49DPPC   O14 2414   3.552   6.839   2.259
   49DPPC   C15 2415   3.535   6.764   2.147
   49DPPC   O16 2416   3.613   6.765   2.052
   49DPPC   C17 2417   3.422   6.661   2.158
   49DPPC   C18 2418   3.481   6.539   2.229
   49DPPC   C19 2419   3.375   6.432   2.257
   49DPPC   C20 2420   3.273   6.474   2.363
   49DPPC   C21 2421   3.163   6.368   2.373
   49DPPC   C22 2422   3.068   6.395   2.490
   49DPPC   C23 2423   2.942   6.308   2.481
   49DPPC   C24 2424   2.962   6.156   2.483
   49DPPC   C25 2425   2.833   6.087   2.529
   49DPPC   C26 2426   2.845   5.936   2.509
   49DPPC   C27 2427   2.747   5.848   2.587
   49DPPC   C28 2428   2.777   5.699   2.567
   49DPPC   C29 2429   2.679   5.616   2.651
   49DPPC   C30 2430   2.692   5.615   2.803
   49DPPC   C31 2431   2.702   5.471   2.853
   49DPPC   C32 2432   3.711   6.974   2.407
   49DPPC   O33 2433   3.611   7.060   2.463
   49DPPC   C34 2434   3.638   7.109   2.587
   49DPPC   O35 2435   3.738   7.081   2.653
   49DPPC   C36 2436   3.512   7.168   2.651
   49DPPC   C37 2437   3.509   7.318   2.623
   49DPPC   C38 2438   3.397   7.382   2.706
   49DPPC   C39 2439   3.353   7.515   2.645
   49DPPC   C40 2440   3.245   7.581   2.732
   49DPPC   C41 2441   3.114   7.503   2.725
   49DPPC   C42 2442   3.000   7.554   2.814
   49DPPC   C43 2443   2.879   7.462   2.794
   49DPPC   C44 2444   2.751   7.535   2.835
   49DPPC   C45 2445   2.755   7.575   2.983
   49DPPC   C46 2446   2.619   7.632   3.024
   49DPPC   C47 2447   2.508   7.530   2.999
   49DPPC   C48 2448   2.372   7.586   3.043
   49DPPC   C49 2449   2.246   7.513   2.997
   49DPPC   C50 2450   2.249   7.495   2.846
   50DPPC    C1 2451   5.546   1.971   1.441
   50DPPC    C2 2452   5.595   1.785   1.280
   50DPPC    C3 2453   5.756   1.925   1.363
   50DPPC    N4 2454   5.631   1.858   1.403
   50DPPC    C5 2455   5.663   1.752   1.498
   50DPPC    C6 2456   5.556   1.694   1.591
   50DPPC    O7 2457   5.609   1.588   1.670
   50DPPC    P8 2458   5.486   1.487   1.693
   50DPPC    O9 2459   5.572   1.377   1.740
   50DPPC   O10 2460   5.418   1.476   1.561
   50DPPC   O11 2461   5.415   1.576   1.807
   50DPPC   C12 2462   5.472   1.540   1.933
   50DPPC   C13 2463   5.396   1.599   2.052
   50DPPC   O14 2464   5.445   1.557   2.180
   50DPPC   C15 2465   5.542   1.625   2.247
   50DPPC   O16 2466   5.617   1.703   2.188
   50DPPC   C17 2467   5.600   1.553   2.369
   50DPPC   C18 2468   5.507   1.575   2.488
   50DPPC   C19 2469   5.561   1.489   2.602
   50DPPC   C20 2470   5.477   1.497   2.729
   50DPPC   C21 2471   5.556   1.448   2.850
   50DPPC   C22 2472   5.497   1.477   2.988
   50DPPC   C23 2473   5.583   1.417   3.099
   50DPPC   C24 2474   5.517   1.455   3.232
   50DPPC   C25 2475   5.378   1.390   3.240
   50DPPC   C26 2476   5.294   1.457   3.348
   50DPPC   C27 2477   5.236   1.592   3.307
   50DPPC   C28 2478   5.146   1.669   3.404
   50DPPC   C29 2479   5.146   1.816   3.364
   50DPPC   C30 2480   5.073   1.893   3.474
   50DPPC   C31 2481   5.093   2.043   3.457
   50DPPC   C32 2482   5.246   1.586   2.026
   50DPPC   O33 2483   5.161   1.666   2.110
   50DPPC   C34 2484   5.134   1.624   2.236
   50DPPC   O35 2485   5.105   1.504   2.246
   50DPPC   C36 2486   5.052   1.732   2.307
   50DPPC   C37 2487   5.116   1.782   2.436
   50DPPC   C38 2488   5.049   1.904   2.499
   50DPPC   C39 2489   4.906   1.869   2.541
   50DPPC   C40 2490   4.856   2.008   2.582
   50DPPC   C41 2491   4.707   2.017   2.618
   50DPPC   C42 2492   4.675   1.911   2.724
   50DPPC   C43 2493   4.582   1.947   2.840
   50DPPC   C44 2494   4.565   1.824   2.928
   50DPPC   C45 2495   4.492   1.844   3.061
   50DPPC   C46 2496   4.473   1.707   3.127
   50DPPC   C47 2497   4.371   1.709   3.241
   50DPPC   C48 2498   4.438   1.783   3.357
   50DPPC   C49 2499   4.339   1.807   3.471
   50DPPC   C50 2500   4.393   1.878   3.595
   51DPPC    C1 2501   4.057   5.679   1.896
   51DPPC    C2 2502   4.256   5.795   1.890
   51DPPC    C3 2503   4.092   5.849   1.731
   51DPPC    N4 2504   4.111   5.813   1.873
   51DPPC    C5 2505   4.066   5.910   1.974
   51DPPC    C6 2506   3.920   5.953   1.959
   51DPPC    O7 2507   3.824   5.857   2.004
   51DPPC    P8 2508   3.678   5.905   1.955
   51DPPC    O9 2509   3.591   5.789   1.926
   51DPPC   O10 2510   3.680   6.004   1.845
   51DPPC   O11 2511   3.626   5.982   2.087
   51DPPC   C12 2512   3.636   5.893   2.198
   51DPPC   C13 2513   3.747   5.933   2.296
   51DPPC   O14 2514   3.781   5.826   2.385
   51DPPC   C15 2515   3.902   5.764   2.390
   51DPPC   O16 2516   3.991   5.772   2.306
   51DPPC   C17 2517   3.902   5.649   2.491
   51DPPC   C18 2518   3.943   5.704   2.628
   51DPPC   C19 2519   3.981   5.580   2.709
   51DPPC   C20 2520   4.015   5.644   2.844
   51DPPC   C21 2521   3.994   5.557   2.968
   51DPPC   C22 2522   4.073   5.427   2.948
   51DPPC   C23 2523   4.070   5.338   3.072
   51DPPC   C24 2524   4.131   5.199   3.048
   51DPPC   C25 2525   4.196   5.144   3.175
   51DPPC   C26 2526   4.254   5.003   3.167
   51DPPC   C27 2527   4.352   4.987   3.284
   51DPPC   C28 2528   4.431   4.858   3.260
   51DPPC   C29 2529   4.338   4.737   3.266
   51DPPC   C30 2530   4.419   4.609   3.247
   51DPPC   C31 2531   4.478   4.598   3.106
   51DPPC   C32 2532   3.720   6.072   2.354
   51DPPC   O33 2533   3.592   6.077   2.420
   51DPPC   C34 2534   3.555   6.190   2.485
   51DPPC   O35 2535   3.631   6.285   2.502
   51DPPC   C36 2536   3.416   6.195   2.550
   51DPPC   C37 2537   3.449   6.171   2.698
   51DPPC   C38 2538   3.327   6.148   2.787
   51DPPC   C39 2539   3.223   6.260   2.791
   51DPPC   C40 2540   3.113   6.248   2.897
   51DPPC   C41 2541   3.181   6.218   3.031
   51DPPC   C42 2542   3.083   6.232   3.147
   51DPPC   C43 2543   3.138   6.155   3.267
   51DPPC   C44 2544   3.096   6.214   3.402
   51DPPC   C45 2545   3.150   6.123   3.512
   51DPPC   C46 2546   3.087   6.173   3.642
   51DPPC   C47 2547   2.943   6.126   3.622
   51DPPC   C48 2548   2.857   6.184   3.735
   51DPPC   C49 2549   2.716   6.125   3.733
   51DPPC   C50 2550   2.653   6.184   3.859
   52DPPC    C1 2551   0.792   6.103   1.428
   52DPPC    C2 2552   0.846   6.177   1.638
   52DPPC    C3 2553   1.022   6.135   1.490
   52DPPC    N4 2554   0.887   6.192   1.498
   52DPPC    C5 2555   0.850   6.329   1.458
   52DPPC    C6 2556   0.938   6.441   1.512
   52DPPC    O7 2557   0.908   6.479   1.647
   52DPPC    P8 2558   1.016   6.567   1.727
   52DPPC    O9 2559   0.943   6.600   1.852
   52DPPC   O10 2560   1.066   6.672   1.635
   52DPPC   O11 2561   1.121   6.446   1.730
   52DPPC   C12 2562   1.096   6.368   1.848
   52DPPC   C13 2563   1.169   6.236   1.822
   52DPPC   O14 2564   1.112   6.137   1.908
   52DPPC   C15 2565   1.107   6.003   1.882
   52DPPC   O16 2566   1.158   5.956   1.780
   52DPPC   C17 2567   1.033   5.929   1.993
   52DPPC   C18 2568   0.888   5.891   1.960
   52DPPC   C19 2569   0.834   5.803   2.072
   52DPPC   C20 2570   0.685   5.783   2.048
   52DPPC   C21 2571   0.637   5.646   2.098
   52DPPC   C22 2572   0.629   5.640   2.251
   52DPPC   C23 2573   0.590   5.499   2.294
   52DPPC   C24 2574   0.561   5.483   2.443
   52DPPC   C25 2575   0.446   5.568   2.498
   52DPPC   C26 2576   0.416   5.550   2.646
   52DPPC   C27 2577   0.291   5.634   2.674
   52DPPC   C28 2578   0.245   5.621   2.819
   52DPPC   C29 2579   0.136   5.726   2.844
   52DPPC   C30 2580   0.109   5.718   2.994
   52DPPC   C31 2581  -0.006   5.814   3.026
   52DPPC   C32 2582   1.319   6.260   1.837
   52DPPC   O33 2583   1.363   6.304   1.966
   52DPPC   C34 2584   1.493   6.321   2.000
   52DPPC   O35 2585   1.581   6.316   1.914
   52DPPC   C36 2586   1.514   6.384   2.138
   52DPPC   C37 2587   1.631   6.326   2.218
   52DPPC   C38 2588   1.624   6.174   2.202
   52DPPC   C39 2589   1.756   6.109   2.243
   52DPPC   C40 2590   1.775   6.137   2.392
   52DPPC   C41 2591   1.896   6.065   2.451
   52DPPC   C42 2592   1.966   6.154   2.554
   52DPPC   C43 2593   1.888   6.178   2.683
   52DPPC   C44 2594   1.847   6.043   2.742
   52DPPC   C45 2595   1.754   6.061   2.862
   52DPPC   C46 2596   1.717   5.922   2.913
   52DPPC   C47 2597   1.719   5.921   3.066
   52DPPC   C48 2598   1.851   5.980   3.115
   52DPPC   C49 2599   1.870   6.019   3.262
   52DPPC   C50 2600   2.018   6.057   3.266
   53DPPC    C1 2601   4.682   3.320   1.322
   53DPPC    C2 2602   4.465   3.230   1.393
   53DPPC    C3 2603   4.549   3.189   1.178
   53DPPC    N4 2604   4.589   3.206   1.318
   53DPPC    C5 2605   4.655   3.083   1.366
   53DPPC    C6 2606   4.704   3.081   1.511
   53DPPC    O7 2607   4.779   2.961   1.532
   53DPPC    P8 2608   4.736   2.917   1.681
   53DPPC    O9 2609   4.803   2.787   1.706
   53DPPC   O10 2610   4.591   2.940   1.697
   53DPPC   O11 2611   4.809   3.051   1.733
   53DPPC   C12 2612   4.907   3.035   1.836
   53DPPC   C13 2613   4.989   3.159   1.870
   53DPPC   O14 2614   5.106   3.133   1.948
   53DPPC   C15 2615   5.207   3.224   1.951
   53DPPC   O16 2616   5.203   3.326   1.882
   53DPPC   C17 2617   5.301   3.221   2.072
   53DPPC   C18 2618   5.220   3.197   2.199
   53DPPC   C19 2619   5.121   3.310   2.227
   53DPPC   C20 2620   5.029   3.282   2.346
   53DPPC   C21 2621   4.963   3.144   2.334
   53DPPC   C22 2622   4.911   3.095   2.469
   53DPPC   C23 2623   4.831   3.204   2.542
   53DPPC   C24 2624   4.817   3.171   2.691
   53DPPC   C25 2625   4.726   3.270   2.763
   53DPPC   C26 2626   4.731   3.232   2.912
   53DPPC   C27 2627   4.626   3.313   2.988
   53DPPC   C28 2628   4.634   3.274   3.136
   53DPPC   C29 2629   4.624   3.129   3.186
   53DPPC   C30 2630   4.620   3.127   3.339
   53DPPC   C31 2631   4.583   2.989   3.395
   53DPPC   C32 2632   4.894   3.272   1.911
   53DPPC   O33 2633   4.791   3.251   2.008
   53DPPC   C34 2634   4.709   3.358   2.027
   53DPPC   O35 2635   4.741   3.469   1.985
   53DPPC   C36 2636   4.580   3.323   2.101
   53DPPC   C37 2637   4.601   3.299   2.251
   53DPPC   C38 2638   4.461   3.274   2.307
   53DPPC   C39 2639   4.471   3.283   2.459
   53DPPC   C40 2640   4.348   3.235   2.536
   53DPPC   C41 2641   4.370   3.237   2.687
   53DPPC   C42 2642   4.236   3.212   2.755
   53DPPC   C43 2643   4.261   3.235   2.904
   53DPPC   C44 2644   4.138   3.181   2.977
   53DPPC   C45 2645   4.187   3.203   3.121
   53DPPC   C46 2646   4.081   3.170   3.226
   53DPPC   C47 2647   4.158   3.204   3.353
   53DPPC   C48 2648   4.097   3.150   3.483
   53DPPC   C49 2649   4.200   3.164   3.595
   53DPPC   C50 2650   4.148   3.092   3.720
   54DPPC    C1 2651   6.227   0.313   1.800
   54DPPC    C2 2652   6.162   0.243   1.582
   54DPPC    C3 2653   6.332   0.417   1.604
   54DPPC    N4 2654   6.275   0.294   1.662
   54DPPC    C5 2655   6.368   0.181   1.663
   54DPPC    C6 2656   6.507   0.199   1.724
   54DPPC    O7 2657   6.514   0.214   1.866
   54DPPC    P8 2658   6.644   0.295   1.916
   54DPPC    O9 2659   6.613   0.427   1.856
   54DPPC   O10 2660   6.753   0.204   1.876
   54DPPC   O11 2661   6.608   0.284   2.072
   54DPPC   C12 2662   6.485   0.355   2.091
   54DPPC   C13 2663   6.463   0.392   2.238
   54DPPC   O14 2664   6.539   0.511   2.268
   54DPPC   C15 2665   6.496   0.634   2.228
   54DPPC   O16 2666   6.391   0.648   2.166
   54DPPC   C17 2667   6.596   0.743   2.267
   54DPPC   C18 2668   6.657   0.723   2.405
   54DPPC   C19 2669   6.558   0.718   2.522
   54DPPC   C20 2670   6.608   0.691   2.664
   54DPPC   C21 2671   6.500   0.674   2.771
   54DPPC   C22 2672   6.554   0.649   2.911
   54DPPC   C23 2673   6.439   0.647   3.012
   54DPPC   C24 2674   6.473   0.625   3.159
   54DPPC   C25 2675   6.344   0.599   3.236
   54DPPC   C26 2676   6.248   0.718   3.224
   54DPPC   C27 2677   6.301   0.838   3.303
   54DPPC   C28 2678   6.182   0.926   3.342
   54DPPC   C29 2679   6.217   1.029   3.450
   54DPPC   C30 2680   6.116   1.034   3.565
   54DPPC   C31 2681   6.171   1.111   3.685
   54DPPC   C32 2682   6.497   0.262   2.311
   54DPPC   O33 2683   6.481   0.261   2.453
   54DPPC   C34 2684   6.505   0.139   2.508
   54DPPC   O35 2685   6.580   0.068   2.442
   54DPPC   C36 2686   6.464   0.097   2.650
   54DPPC   C37 2687   6.481   0.205   2.757
   54DPPC   C38 2688   6.526   0.134   2.885
   54DPPC   C39 2689   6.531   0.244   2.992
   54DPPC   C40 2690   6.592   0.190   3.121
   54DPPC   C41 2691   6.603   0.298   3.228
   54DPPC   C42 2692   6.645   0.232   3.360
   54DPPC   C43 2693   6.654   0.333   3.475
   54DPPC   C44 2694   6.676   0.261   3.608
   54DPPC   C45 2695   6.688   0.356   3.728
   54DPPC   C46 2696   6.718   0.278   3.856
   54DPPC   C47 2697   6.701   0.366   3.980
   54DPPC   C48 2698   6.747   0.308   4.113
   54DPPC   C49 2699   6.896   0.274   4.121
   54DPPC   C50 2700   6.958   0.281   4.261
   55DPPC    C1 2701   0.254   7.192   1.747
   55DPPC    C2 2702   0.366   7.388   1.822
   55DPPC    C3 2703   0.399   7.296   1.597
   55DPPC    N4 2704   0.304   7.323   1.706
   55DPPC    C5 2705   0.190   7.409   1.668
   55DPPC    C6 2706   0.110   7.400   1.538
   55DPPC    O7 2707   0.013   7.504   1.526
   55DPPC    P8 2708  -0.064   7.497   1.385
   55DPPC    O9 2709   0.019   7.407   1.302
   55DPPC   O10 2710  -0.115   7.630   1.344
   55DPPC   O11 2711  -0.186   7.416   1.452
   55DPPC   C12 2712  -0.245   7.499   1.553
   55DPPC   C13 2713  -0.328   7.407   1.643
   55DPPC   O14 2714  -0.411   7.469   1.742
   55DPPC   C15 2715  -0.543   7.437   1.733
   55DPPC   O16 2716  -0.596   7.387   1.634
   55DPPC   C17 2717  -0.636   7.473   1.849
   55DPPC   C18 2718  -0.650   7.371   1.962
   55DPPC   C19 2719  -0.680   7.228   1.917
   55DPPC   C20 2720  -0.661   7.141   2.042
   55DPPC   C21 2721  -0.667   6.992   2.008
   55DPPC   C22 2722  -0.642   6.910   2.135
   55DPPC   C23 2723  -0.755   6.943   2.233
   55DPPC   C24 2724  -0.709   6.902   2.373
   55DPPC   C25 2725  -0.592   6.977   2.438
   55DPPC   C26 2726  -0.564   6.927   2.580
   55DPPC   C27 2727  -0.438   6.984   2.645
   55DPPC   C28 2728  -0.449   6.938   2.791
   55DPPC   C29 2729  -0.324   6.949   2.878
   55DPPC   C30 2730  -0.346   6.897   3.021
   55DPPC   C31 2731  -0.446   6.997   3.079
   55DPPC   C32 2732  -0.218   7.319   1.704
   55DPPC   O33 2733  -0.247   7.225   1.808
   55DPPC   C34 2734  -0.139   7.160   1.859
   55DPPC   O35 2735  -0.029   7.159   1.805
   55DPPC   C36 2736  -0.168   7.053   1.965
   55DPPC   C37 2737  -0.221   7.115   2.094
   55DPPC   C38 2738  -0.134   7.223   2.159
   55DPPC   C39 2739  -0.195   7.246   2.298
   55DPPC   C40 2740  -0.342   7.289   2.291
   55DPPC   C41 2741  -0.383   7.301   2.438
   55DPPC   C42 2742  -0.278   7.372   2.523
   55DPPC   C43 2743  -0.314   7.390   2.671
   55DPPC   C44 2744  -0.202   7.467   2.740
   55DPPC   C45 2745  -0.208   7.454   2.892
   55DPPC   C46 2746  -0.191   7.307   2.932
   55DPPC   C47 2747  -0.176   7.292   3.083
   55DPPC   C48 2748  -0.305   7.350   3.142
   55DPPC   C49 2749  -0.308   7.308   3.289
   55DPPC   C50 2750  -0.207   7.383   3.376
   56DPPC    C1 2751   4.208   1.925   2.339
   56DPPC    C2 2752   4.259   1.871   2.562
   56DPPC    C3 2753   4.289   1.710   2.384
   56DPPC    N4 2754   4.303   1.851   2.423
   56DPPC    C5 2755   4.439   1.904   2.404
   56DPPC    C6 2756   4.516   1.871   2.276
   56DPPC    O7 2757   4.630   1.957   2.270
   56DPPC    P8 2758   4.684   1.968   2.119
   56DPPC    O9 2759   4.562   1.978   2.036
   56DPPC   O10 2760   4.790   1.868   2.095
   56DPPC   O11 2761   4.756   2.112   2.125
   56DPPC   C12 2762   4.826   2.128   2.248
   56DPPC   C13 2763   4.916   2.251   2.255
   56DPPC   O14 2764   5.011   2.242   2.362
   56DPPC   C15 2765   5.105   2.338   2.384
   56DPPC   O16 2766   5.120   2.430   2.304
   56DPPC   C17 2767   5.169   2.331   2.523
   56DPPC   C18 2768   5.319   2.307   2.501
   56DPPC   C19 2769   5.388   2.298   2.637
   56DPPC   C20 2770   5.366   2.174   2.723
   56DPPC   C21 2771   5.442   2.194   2.854
   56DPPC   C22 2772   5.432   2.081   2.956
   56DPPC   C23 2773   5.515   2.104   3.083
   56DPPC   C24 2774   5.541   1.977   3.163
   56DPPC   C25 2775   5.640   2.019   3.272
   56DPPC   C26 2776   5.657   1.889   3.351
   56DPPC   C27 2777   5.736   1.907   3.481
   56DPPC   C28 2778   5.652   1.992   3.576
   56DPPC   C29 2779   5.716   2.025   3.710
   56DPPC   C30 2780   5.606   2.053   3.813
   56DPPC   C31 2781   5.515   2.149   3.736
   56DPPC   C32 2782   4.826   2.375   2.243
   56DPPC   O33 2783   4.711   2.361   2.326
   56DPPC   C34 2784   4.610   2.450   2.305
   56DPPC   O35 2785   4.628   2.546   2.230
   56DPPC   C36 2786   4.467   2.412   2.345
   56DPPC   C37 2787   4.475   2.339   2.480
   56DPPC   C38 2788   4.342   2.285   2.531
   56DPPC   C39 2789   4.354   2.287   2.683
   56DPPC   C40 2790   4.395   2.429   2.724
   56DPPC   C41 2791   4.376   2.427   2.876
   56DPPC   C42 2792   4.483   2.339   2.940
   56DPPC   C43 2793   4.454   2.339   3.090
   56DPPC   C44 2794   4.535   2.241   3.175
   56DPPC   C45 2795   4.488   2.236   3.320
   56DPPC   C46 2796   4.492   2.378   3.378
   56DPPC   C47 2797   4.468   2.389   3.529
   56DPPC   C48 2798   4.451   2.533   3.577
   56DPPC   C49 2799   4.444   2.511   3.728
   56DPPC   C50 2800   4.566   2.442   3.789
   57DPPC    C1 2801   5.715   7.076   2.028
   57DPPC    C2 2802   5.524   6.958   2.083
   57DPPC    C3 2803   5.609   6.940   1.853
   57DPPC    N4 2804   5.642   6.952   1.996
   57DPPC    C5 2805   5.735   6.844   2.034
   57DPPC    C6 2806   5.686   6.699   2.022
   57DPPC    O7 2807   5.793   6.604   2.011
   57DPPC    P8 2808   5.734   6.463   1.962
   57DPPC    O9 2809   5.850   6.393   1.903
   57DPPC   O10 2810   5.613   6.491   1.883
   57DPPC   O11 2811   5.691   6.404   2.106
   57DPPC   C12 2812   5.815   6.376   2.172
   57DPPC   C13 2813   5.822   6.425   2.316
   57DPPC   O14 2814   5.949   6.379   2.367
   57DPPC   C15 2815   6.028   6.477   2.418
   57DPPC   O16 2816   5.971   6.586   2.413
   57DPPC   C17 2817   6.169   6.441   2.465
   57DPPC   C18 2818   6.174   6.394   2.610
   57DPPC   C19 2819   6.133   6.511   2.699
   57DPPC   C20 2820   6.112   6.473   2.846
   57DPPC   C21 2821   6.029   6.577   2.921
   57DPPC   C22 2822   6.015   6.530   3.066
   57DPPC   C23 2823   5.939   6.620   3.163
   57DPPC   C24 2824   5.968   6.583   3.309
   57DPPC   C25 2825   5.902   6.446   3.323
   57DPPC   C26 2826   5.919   6.379   3.460
   57DPPC   C27 2827   5.844   6.446   3.575
   57DPPC   C28 2828   5.856   6.366   3.704
   57DPPC   C29 2829   5.744   6.386   3.807
   57DPPC   C30 2830   5.764   6.335   3.950
   57DPPC   C31 2831   5.627   6.320   4.016
   57DPPC   C32 2832   5.704   6.368   2.395
   57DPPC   O33 2833   5.715   6.233   2.442
   57DPPC   C34 2834   5.597   6.171   2.467
   57DPPC   O35 2835   5.496   6.219   2.415
   57DPPC   C36 2836   5.603   6.034   2.534
   57DPPC   C37 2837   5.479   6.039   2.624
   57DPPC   C38 2838   5.493   5.943   2.742
   57DPPC   C39 2839   5.367   5.942   2.828
   57DPPC   C40 2840   5.387   5.864   2.957
   57DPPC   C41 2841   5.254   5.873   3.033
   57DPPC   C42 2842   5.265   5.817   3.175
   57DPPC   C43 2843   5.132   5.802   3.250
   57DPPC   C44 2844   5.151   5.719   3.377
   57DPPC   C45 2845   5.014   5.696   3.440
   57DPPC   C46 2846   5.038   5.614   3.567
   57DPPC   C47 2847   5.072   5.468   3.535
   57DPPC   C48 2848   5.175   5.419   3.637
   57DPPC   C49 2849   5.124   5.398   3.779
   57DPPC   C50 2850   5.238   5.397   3.882
   58DPPC    C1 2851   8.469   6.932   1.363
   58DPPC    C2 2852   8.492   7.145   1.257
   58DPPC    C3 2853   8.287   7.096   1.364
   58DPPC    N4 2854   8.432   7.075   1.371
   58DPPC    C5 2855   8.480   7.128   1.500
   58DPPC    C6 2856   8.418   7.256   1.555
   58DPPC    O7 2857   8.461   7.377   1.490
   58DPPC    P8 2858   8.338   7.480   1.491
   58DPPC    O9 2859   8.220   7.402   1.447
   58DPPC   O10 2860   8.375   7.605   1.422
   58DPPC   O11 2861   8.336   7.495   1.652
   58DPPC   C12 2862   8.422   7.602   1.692
   58DPPC   C13 2863   8.439   7.632   1.841
   58DPPC   O14 2864   8.541   7.732   1.848
   58DPPC   C15 2865   8.496   7.860   1.842
   58DPPC   O16 2866   8.380   7.895   1.820
   58DPPC   C17 2867   8.607   7.964   1.856
   58DPPC   C18 2868   8.571   8.050   1.977
   58DPPC   C19 2869   8.671   8.155   2.026
   58DPPC   C20 2870   8.636   8.214   2.162
   58DPPC   C21 2871   8.638   8.108   2.273
   58DPPC   C22 2872   8.615   8.167   2.412
   58DPPC   C23 2873   8.580   8.051   2.505
   58DPPC   C24 2874   8.596   8.083   2.654
   58DPPC   C25 2875   8.520   7.983   2.740
   58DPPC   C26 2876   8.507   8.030   2.885
   58DPPC   C27 2877   8.441   7.925   2.975
   58DPPC   C28 2878   8.463   7.943   3.125
   58DPPC   C29 2879   8.609   7.910   3.157
   58DPPC   C30 2880   8.631   7.903   3.308
   58DPPC   C31 2881   8.781   7.912   3.335
   58DPPC   C32 2882   8.474   7.497   1.903
   58DPPC   O33 2883   8.444   7.488   2.043
   58DPPC   C34 2884   8.443   7.360   2.086
   58DPPC   O35 2885   8.453   7.270   2.003
   58DPPC   C36 2886   8.446   7.342   2.238
   58DPPC   C37 2887   8.592   7.318   2.280
   58DPPC   C38 2888   8.589   7.310   2.433
   58DPPC   C39 2889   8.727   7.272   2.489
   58DPPC   C40 2890   8.751   7.329   2.629
   58DPPC   C41 2891   8.648   7.280   2.730
   58DPPC   C42 2892   8.722   7.292   2.863
   58DPPC   C43 2893   8.664   7.178   2.946
   58DPPC   C44 2894   8.708   7.041   2.894
   58DPPC   C45 2895   8.643   6.933   2.980
   58DPPC   C46 2896   8.656   6.942   3.132
   58DPPC   C47 2897   8.586   6.831   3.211
   58DPPC   C48 2898   8.642   6.809   3.352
   58DPPC   C49 2899   8.588   6.682   3.418
   58DPPC   C50 2900   8.647   6.661   3.558
   59DPPC    C1 2901   0.920   5.345   1.871
   59DPPC    C2 2902   0.746   5.177   1.884
   59DPPC    C3 2903   0.721   5.377   1.758
   59DPPC    N4 2904   0.817   5.272   1.796
   59DPPC    C5 2905   0.881   5.206   1.682
   59DPPC    C6 2906   0.804   5.097   1.608
   59DPPC    O7 2907   0.664   5.115   1.585
   59DPPC    P8 2908   0.604   4.977   1.528
   59DPPC    O9 2909   0.712   4.878   1.506
   59DPPC   O10 2910   0.495   5.002   1.430
   59DPPC   O11 2911   0.527   4.924   1.659
   59DPPC   C12 2912   0.408   5.002   1.670
   59DPPC   C13 2913   0.346   5.020   1.809
   59DPPC   O14 2914   0.410   5.096   1.912
   59DPPC   C15 2915   0.330   5.197   1.954
   59DPPC   O16 2916   0.289   5.288   1.883
   59DPPC   C17 2917   0.371   5.236   2.097
   59DPPC   C18 2918   0.264   5.260   2.203
   59DPPC   C19 2919   0.191   5.128   2.229
   59DPPC   C20 2920   0.120   5.111   2.364
   59DPPC   C21 2921   0.234   5.128   2.464
   59DPPC   C22 2922   0.191   5.119   2.611
   59DPPC   C23 2923   0.311   5.176   2.686
   59DPPC   C24 2924   0.444   5.101   2.677
   59DPPC   C25 2925   0.555   5.197   2.721
   59DPPC   C26 2926   0.691   5.127   2.718
   59DPPC   C27 2927   0.683   4.998   2.801
   59DPPC   C28 2928   0.813   4.921   2.827
   59DPPC   C29 2929   0.865   4.879   2.690
   59DPPC   C30 2930   0.999   4.806   2.693
   59DPPC   C31 2931   1.026   4.734   2.560
   59DPPC   C32 2932   0.339   4.873   1.851
   59DPPC   O33 2933   0.231   4.847   1.941
   59DPPC   C34 2934   0.200   4.715   1.954
   59DPPC   O35 2935   0.244   4.638   1.868
   59DPPC   C36 2936   0.093   4.672   2.054
   59DPPC   C37 2937   0.033   4.797   2.118
   59DPPC   C38 2938  -0.105   4.763   2.175
   59DPPC   C39 2939  -0.179   4.892   2.210
   59DPPC   C40 2940  -0.305   4.878   2.296
   59DPPC   C41 2941  -0.362   5.017   2.321
   59DPPC   C42 2942  -0.483   5.014   2.414
   59DPPC   C43 2943  -0.436   4.956   2.547
   59DPPC   C44 2944  -0.550   4.938   2.647
   59DPPC   C45 2945  -0.495   4.848   2.758
   59DPPC   C46 2946  -0.386   4.918   2.839
   59DPPC   C47 2947  -0.304   4.817   2.921
   59DPPC   C48 2948  -0.405   4.784   3.031
   59DPPC   C49 2949  -0.453   4.904   3.114
   59DPPC   C50 2950  -0.542   4.843   3.222
   60DPPC    C1 2951   6.874   4.844   1.278
   60DPPC    C2 2952   6.664   4.751   1.365
   60DPPC    C3 2953   6.792   4.889   1.493
   60DPPC    N4 2954   6.751   4.869   1.353
   60DPPC    C5 2955   6.696   4.988   1.286
   60DPPC    C6 2956   6.573   5.052   1.351
   60DPPC    O7 2957   6.554   5.188   1.310
   60DPPC    P8 2958   6.498   5.280   1.430
   60DPPC    O9 2959   6.412   5.185   1.503
   60DPPC   O10 2960   6.458   5.401   1.355
   60DPPC   O11 2961   6.638   5.308   1.505
   60DPPC   C12 2962   6.652   5.244   1.632
   60DPPC   C13 2963   6.773   5.279   1.720
   60DPPC   O14 2964   6.785   5.188   1.830
   60DPPC   C15 2965   6.877   5.088   1.817
   60DPPC   O16 2966   6.941   5.076   1.713
   60DPPC   C17 2967   6.887   5.002   1.942
   60DPPC   C18 2968   6.800   4.878   1.921
   60DPPC   C19 2969   6.807   4.780   2.038
   60DPPC   C20 2970   6.701   4.672   2.017
   60DPPC   C21 2971   6.681   4.573   2.132
   60DPPC   C22 2972   6.620   4.648   2.250
   60DPPC   C23 2973   6.615   4.546   2.364
   60DPPC   C24 2974   6.574   4.611   2.496
   60DPPC   C25 2975   6.526   4.507   2.598
   60DPPC   C26 2976   6.513   4.562   2.741
   60DPPC   C27 2977   6.443   4.463   2.835
   60DPPC   C28 2978   6.512   4.327   2.818
   60DPPC   C29 2979   6.465   4.233   2.929
   60DPPC   C30 2980   6.494   4.084   2.911
   60DPPC   C31 2981   6.490   4.009   3.045
   60DPPC   C32 2982   6.763   5.427   1.761
   60DPPC   O33 2983   6.631   5.460   1.806
   60DPPC   C34 2984   6.618   5.591   1.839
   60DPPC   O35 2985   6.698   5.676   1.800
   60DPPC   C36 2986   6.496   5.630   1.923
   60DPPC   C37 2987   6.505   5.613   2.075
   60DPPC   C38 2988   6.372   5.667   2.128
   60DPPC   C39 2989   6.397   5.751   2.254
   60DPPC   C40 2990   6.261   5.800   2.302
   60DPPC   C41 2991   6.264   5.891   2.425
   60DPPC   C42 2992   6.119   5.908   2.468
   60DPPC   C43 2993   6.109   6.000   2.590
   60DPPC   C44 2994   5.964   6.007   2.639
   60DPPC   C45 2995   5.971   6.104   2.758
   60DPPC   C46 2996   6.062   6.054   2.870
   60DPPC   C47 2997   6.063   6.131   3.003
   60DPPC   C48 2998   6.145   6.052   3.105
   60DPPC   C49 2999   6.146   6.157   3.215
   60DPPC   C50 3000   6.207   6.104   3.345
   61DPPC    C1 3001   3.996   0.331   2.197
   61DPPC    C2 3002   4.029   0.224   2.005
   61DPPC    C3 3003   3.801   0.254   2.062
   61DPPC    N4 3004   3.933   0.319   2.065
   61DPPC    C5 3005   3.929   0.446   1.992
   61DPPC    C6 3006   3.838   0.558   2.042
   61DPPC    O7 3007   3.900   0.655   2.128
   61DPPC    P8 3008   3.788   0.766   2.156
   61DPPC    O9 3009   3.662   0.711   2.210
   61DPPC   O10 3010   3.803   0.877   2.060
   61DPPC   O11 3011   3.867   0.826   2.283
   61DPPC   C12 3012   3.887   0.717   2.374
   61DPPC   C13 3013   3.925   0.763   2.514
   61DPPC   O14 3014   3.963   0.654   2.600
   61DPPC   C15 3015   4.096   0.644   2.624
   61DPPC   O16 3016   4.167   0.684   2.532
   61DPPC   C17 3017   4.142   0.535   2.721
   61DPPC   C18 3018   4.058   0.407   2.732
   61DPPC   C19 3019   4.127   0.303   2.820
   61DPPC   C20 3020   4.263   0.246   2.779
   61DPPC   C21 3021   4.272   0.109   2.846
   61DPPC   C22 3022   4.398   0.032   2.805
   61DPPC   C23 3023   4.525   0.112   2.834
   61DPPC   C24 3024   4.651   0.039   2.786
   61DPPC   C25 3025   4.773   0.129   2.765
   61DPPC   C26 3026   4.912   0.074   2.797
   61DPPC   C27 3027   5.018   0.108   2.692
   61DPPC   C28 3028   5.149   0.034   2.717
   61DPPC   C29 3029   5.135  -0.116   2.744
   61DPPC   C30 3030   5.050  -0.199   2.648
   61DPPC   C31 3031   5.061  -0.344   2.697
   61DPPC   C32 3032   3.811   0.857   2.554
   61DPPC   O33 3033   3.841   0.941   2.666
   61DPPC   C34 3034   3.743   1.024   2.711
   61DPPC   O35 3035   3.643   1.039   2.640
   61DPPC   C36 3036   3.778   1.121   2.824
   61DPPC   C37 3037   3.742   1.062   2.960
   61DPPC   C38 3038   3.769   1.169   3.065
   61DPPC   C39 3039   3.741   1.118   3.207
   61DPPC   C40 3040   3.596   1.071   3.218
   61DPPC   C41 3041   3.590   0.946   3.307
   61DPPC   C42 3042   3.442   0.907   3.312
   61DPPC   C43 3043   3.439   0.793   3.414
   61DPPC   C44 3044   3.306   0.717   3.420
   61DPPC   C45 3045   3.325   0.610   3.527
   61DPPC   C46 3046   3.363   0.664   3.665
   61DPPC   C47 3047   3.264   0.760   3.732
   61DPPC   C48 3048   3.321   0.779   3.873
   61DPPC   C49 3049   3.213   0.847   3.957
   61DPPC   C50 3050   3.243   0.839   4.106
   62DPPC    C1 3051   7.796   4.457   1.085
   62DPPC    C2 3052   7.609   4.303   1.149
   62DPPC    C3 3053   7.735   4.422   1.306
   62DPPC    N4 3054   7.680   4.430   1.170
   62DPPC    C5 3055   7.598   4.550   1.146
   62DPPC    C6 3056   7.452   4.551   1.191
   62DPPC    O7 3057   7.446   4.573   1.332
   62DPPC    P8 3058   7.299   4.556   1.395
   62DPPC    O9 3059   7.310   4.450   1.498
   62DPPC   O10 3060   7.213   4.556   1.274
   62DPPC   O11 3061   7.293   4.705   1.456
   62DPPC   C12 3062   7.385   4.714   1.564
   62DPPC   C13 3063   7.345   4.830   1.657
   62DPPC   O14 3064   7.430   4.853   1.770
   62DPPC   C15 3065   7.422   4.978   1.823
   62DPPC   O16 3066   7.409   5.074   1.747
   62DPPC   C17 3067   7.476   4.989   1.966
   62DPPC   C18 3068   7.379   5.027   2.078
   62DPPC   C19 3069   7.262   4.928   2.084
   62DPPC   C20 3070   7.210   4.953   2.226
   62DPPC   C21 3071   7.064   4.913   2.250
   62DPPC   C22 3072   7.023   4.951   2.393
   62DPPC   C23 3073   6.886   4.899   2.435
   62DPPC   C24 3074   6.843   4.941   2.575
   62DPPC   C25 3075   6.699   4.913   2.616
   62DPPC   C26 3076   6.593   4.964   2.518
   62DPPC   C27 3077   6.449   4.937   2.564
   62DPPC   C28 3078   6.331   4.952   2.467
   62DPPC   C29 3079   6.198   4.929   2.538
   62DPPC   C30 3080   6.211   4.797   2.616
   62DPPC   C31 3081   6.074   4.765   2.676
   62DPPC   C32 3082   7.195   4.821   1.685
   62DPPC   O33 3083   7.173   4.695   1.750
   62DPPC   C34 3084   7.045   4.650   1.756
   62DPPC   O35 3085   6.964   4.685   1.670
   62DPPC   C36 3086   7.030   4.528   1.847
   62DPPC   C37 3087   7.125   4.531   1.967
   62DPPC   C38 3088   7.094   4.423   2.071
   62DPPC   C39 3089   7.180   4.442   2.196
   62DPPC   C40 3090   7.126   4.383   2.327
   62DPPC   C41 3091   6.986   4.437   2.356
   62DPPC   C42 3092   6.934   4.399   2.495
   62DPPC   C43 3093   7.034   4.437   2.605
   62DPPC   C44 3094   6.973   4.411   2.742
   62DPPC   C45 3095   6.937   4.262   2.739
   62DPPC   C46 3096   6.901   4.214   2.880
   62DPPC   C47 3097   6.873   4.066   2.907
   62DPPC   C48 3098   6.834   4.051   3.054
   62DPPC   C49 3099   6.918   4.125   3.158
   62DPPC   C50 3100   6.846   4.128   3.293
   63DPPC    C1 3101   7.812   8.498   1.004
   63DPPC    C2 3102   7.787   8.275   0.988
   63DPPC    C3 3103   7.981   8.349   1.097
   63DPPC    N4 3104   7.837   8.376   1.083
   63DPPC    C5 3105   7.753   8.364   1.203
   63DPPC    C6 3106   7.813   8.416   1.334
   63DPPC    O7 3107   7.823   8.556   1.362
   63DPPC    P8 3108   7.892   8.551   1.508
   63DPPC    O9 3109   7.927   8.692   1.531
   63DPPC   O10 3110   7.996   8.446   1.496
   63DPPC   O11 3111   7.769   8.494   1.595
   63DPPC   C12 3112   7.707   8.605   1.659
   63DPPC   C13 3113   7.583   8.571   1.742
   63DPPC   O14 3114   7.511   8.686   1.787
   63DPPC   C15 3115   7.399   8.714   1.715
   63DPPC   O16 3116   7.372   8.660   1.608
   63DPPC   C17 3117   7.310   8.824   1.773
   63DPPC   C18 3118   7.381   8.898   1.887
   63DPPC   C19 3119   7.277   8.970   1.972
   63DPPC   C20 3120   7.332   9.043   2.095
   63DPPC   C21 3121   7.237   9.085   2.207
   63DPPC   C22 3122   7.300   9.061   2.345
   63DPPC   C23 3123   7.203   9.125   2.444
   63DPPC   C24 3124   7.194   9.075   2.588
   63DPPC   C25 3125   7.088   9.159   2.660
   63DPPC   C26 3126   7.040   9.104   2.794
   63DPPC   C27 3127   7.147   9.109   2.903
   63DPPC   C28 3128   7.101   9.070   3.044
   63DPPC   C29 3129   7.062   8.924   3.066
   63DPPC   C30 3130   7.025   8.898   3.213
   63DPPC   C31 3131   7.140   8.812   3.266
   63DPPC   C32 3132   7.636   8.494   1.863
   63DPPC   O33 3133   7.752   8.552   1.924
   63DPPC   C34 3134   7.801   8.482   2.030
   63DPPC   O35 3135   7.732   8.398   2.088
   63DPPC   C36 3136   7.924   8.551   2.089
   63DPPC   C37 3137   7.906   8.601   2.233
   63DPPC   C38 3138   7.836   8.737   2.238
   63DPPC   C39 3139   7.812   8.776   2.384
   63DPPC   C40 3140   7.743   8.912   2.399
   63DPPC   C41 3141   7.728   8.954   2.545
   63DPPC   C42 3142   7.658   9.090   2.546
   63DPPC   C43 3143   7.620   9.138   2.686
   63DPPC   C44 3144   7.548   9.272   2.697
   63DPPC   C45 3145   7.570   9.344   2.830
   63DPPC   C46 3146   7.498   9.260   2.935
   63DPPC   C47 3147   7.506   9.329   3.072
   63DPPC   C48 3148   7.424   9.263   3.183
   63DPPC   C49 3149   7.435   9.342   3.313
   63DPPC   C50 3150   7.355   9.279   3.427
   64DPPC    C1 3151   3.421   0.059   1.939
   64DPPC    C2 3152   3.342  -0.008   1.726
   64DPPC    C3 3153   3.218   0.162   1.847
   64DPPC    N4 3154   3.351   0.106   1.819
   64DPPC    C5 3155   3.446   0.194   1.749
   64DPPC    C6 3156   3.513   0.313   1.817
   64DPPC    O7 3157   3.421   0.408   1.870
   64DPPC    P8 3158   3.486   0.527   1.956
   64DPPC    O9 3159   3.377   0.615   2.002
   64DPPC   O10 3160   3.598   0.573   1.870
   64DPPC   O11 3161   3.542   0.442   2.080
   64DPPC   C12 3162   3.424   0.428   2.160
   64DPPC   C13 3163   3.447   0.377   2.302
   64DPPC   O14 3164   3.318   0.360   2.362
   64DPPC   C15 3165   3.236   0.257   2.327
   64DPPC   O16 3166   3.268   0.182   2.235
   64DPPC   C17 3167   3.102   0.250   2.399
   64DPPC   C18 3168   3.126   0.232   2.549
   64DPPC   C19 3169   3.164   0.366   2.612
   64DPPC   C20 3170   3.172   0.352   2.764
   64DPPC   C21 3171   3.043   0.296   2.825
   64DPPC   C22 3172   3.057   0.283   2.977
   64DPPC   C23 3173   3.185   0.213   3.024
   64DPPC   C24 3174   3.235   0.278   3.153
   64DPPC   C25 3175   3.361   0.221   3.217
   64DPPC   C26 3176   3.320   0.102   3.304
   64DPPC   C27 3177   3.447   0.022   3.335
   64DPPC   C28 3178   3.398  -0.104   3.407
   64DPPC   C29 3179   3.515  -0.203   3.408
   64DPPC   C30 3180   3.544  -0.256   3.267
   64DPPC   C31 3181   3.626  -0.384   3.283
   64DPPC   C32 3182   3.537   0.484   2.365
   64DPPC   O33 3183   3.577   0.442   2.495
   64DPPC   C34 3184   3.670   0.342   2.495
   64DPPC   O35 3185   3.738   0.319   2.396
   64DPPC   C36 3186   3.704   0.278   2.630
   64DPPC   C37 3187   3.593   0.189   2.687
   64DPPC   C38 3188   3.603   0.204   2.839
   64DPPC   C39 3189   3.736   0.161   2.900
   64DPPC   C40 3190   3.741   0.008   2.887
   64DPPC   C41 3191   3.883  -0.039   2.917
   64DPPC   C42 3192   3.924   0.016   3.053
   64DPPC   C43 3193   4.043  -0.059   3.114
   64DPPC   C44 3194   3.993  -0.203   3.133
   64DPPC   C45 3195   4.104  -0.293   3.188
   64DPPC   C46 3196   4.045  -0.419   3.253
   64DPPC   C47 3197   4.160  -0.514   3.288
   64DPPC   C48 3198   4.098  -0.646   3.335
   64DPPC   C49 3199   4.212  -0.746   3.355
   64DPPC   C50 3200   4.283  -0.771   3.221
   65DPPC    C1 3201   2.384   5.119   5.656
   65DPPC    C2 3202   2.563   5.090   5.504
   65DPPC    C3 3203   2.548   4.951   5.700
   65DPPC    N4 3204   2.471   5.018   5.594
   65DPPC    C5 3205   2.389   4.911   5.536
   65DPPC    C6 3206   2.441   4.791   5.458
   65DPPC    O7 3207   2.348   4.682   5.448
   65DPPC    P8 3208   2.428   4.549   5.406
   65DPPC    O9 3209   2.312   4.458   5.400
   65DPPC   O10 3210   2.542   4.537   5.500
   65DPPC   O11 3211   2.488   4.594   5.263
   65DPPC   C12 3212   2.411   4.546   5.153
   65DPPC   C13 3213   2.471   4.593   5.021
   65DPPC   O14 3214   2.381   4.589   4.909
   65DPPC   C15 3215   2.287   4.685   4.886
   65DPPC   O16 3216   2.277   4.776   4.968
   65DPPC   C17 3217   2.233   4.697   4.744
   65DPPC   C18 3218   2.271   4.827   4.672
   65DPPC   C19 3219   2.422   4.850   4.659
   65DPPC   C20 3220   2.444   4.971   4.567
   65DPPC   C21 3221   2.591   4.982   4.525
   65DPPC   C22 3222   2.611   5.108   4.441
   65DPPC   C23 3223   2.500   5.101   4.335
   65DPPC   C24 3224   2.540   5.215   4.241
   65DPPC   C25 3225   2.677   5.182   4.181
   65DPPC   C26 3226   2.741   5.297   4.104
   65DPPC   C27 3227   2.885   5.256   4.069
   65DPPC   C28 3228   2.954   5.361   3.982
   65DPPC   C29 3229   3.097   5.311   3.959
   65DPPC   C30 3230   3.181   5.409   3.878
   65DPPC   C31 3231   3.320   5.346   3.867
   65DPPC   C32 3232   2.600   4.511   5.015
   65DPPC   O33 3233   2.597   4.369   5.028
   65DPPC   C34 3234   2.723   4.317   5.020
   65DPPC   O35 3235   2.824   4.385   5.034
   65DPPC   C36 3236   2.718   4.165   5.039
   65DPPC   C37 3237   2.655   4.068   4.939
   65DPPC   C38 3238   2.725   4.092   4.805
   65DPPC   C39 3239   2.670   4.005   4.692
   65DPPC   C40 3240   2.764   4.008   4.571
   65DPPC   C41 3241   2.725   3.940   4.439
   65DPPC   C42 3242   2.821   3.951   4.320
   65DPPC   C43 3243   2.809   4.090   4.256
   65DPPC   C44 3244   2.869   4.076   4.116
   65DPPC   C45 3245   2.825   4.197   4.034
   65DPPC   C46 3246   2.900   4.183   3.901
   65DPPC   C47 3247   2.824   4.113   3.788
   65DPPC   C48 3248   2.907   4.094   3.662
   65DPPC   C49 3249   2.828   4.008   3.564
   65DPPC   C50 3250   2.701   4.086   3.527
   66DPPC    C1 3251   8.109   1.346   1.435
   66DPPC    C2 3252   8.074   1.578   1.441
   66DPPC    C3 3253   8.163   1.476   1.630
   66DPPC    N4 3254   8.167   1.472   1.483
   66DPPC    C5 3255   8.290   1.503   1.409
   66DPPC    C6 3256   8.400   1.397   1.414
   66DPPC    O7 3257   8.514   1.450   1.346
   66DPPC    P8 3258   8.641   1.352   1.330
   66DPPC    O9 3259   8.765   1.404   1.269
   66DPPC   O10 3260   8.585   1.225   1.277
   66DPPC   O11 3261   8.661   1.333   1.488
   66DPPC   C12 3262   8.698   1.447   1.566
   66DPPC   C13 3263   8.653   1.421   1.710
   66DPPC   O14 3264   8.640   1.538   1.793
   66DPPC   C15 3265   8.524   1.608   1.775
   66DPPC   O16 3266   8.461   1.599   1.670
   66DPPC   C17 3267   8.480   1.704   1.886
   66DPPC   C18 3268   8.395   1.636   1.994
   66DPPC   C19 3269   8.344   1.716   2.113
   66DPPC   C20 3270   8.243   1.825   2.077
   66DPPC   C21 3271   8.145   1.856   2.190
   66DPPC   C22 3272   8.055   1.976   2.159
   66DPPC   C23 3273   7.935   1.972   2.255
   66DPPC   C24 3274   7.862   2.105   2.238
   66DPPC   C25 3275   7.733   2.119   2.318
   66DPPC   C26 3276   7.751   2.098   2.468
   66DPPC   C27 3277   7.634   2.117   2.564
   66DPPC   C28 3278   7.672   2.071   2.704
   66DPPC   C29 3279   7.551   2.090   2.797
   66DPPC   C30 3280   7.595   2.081   2.943
   66DPPC   C31 3281   7.484   2.104   3.046
   66DPPC   C32 3282   8.741   1.304   1.755
   66DPPC   O33 3283   8.715   1.250   1.884
   66DPPC   C34 3284   8.596   1.192   1.915
   66DPPC   O35 3285   8.495   1.217   1.850
   66DPPC   C36 3286   8.594   1.107   2.043
   66DPPC   C37 3287   8.628   1.187   2.169
   66DPPC   C38 3288   8.668   1.090   2.280
   66DPPC   C39 3289   8.694   1.154   2.416
   66DPPC   C40 3290   8.714   1.061   2.536
   66DPPC   C41 3291   8.841   0.975   2.528
   66DPPC   C42 3292   8.864   0.905   2.662
   66DPPC   C43 3293   8.881   0.992   2.787
   66DPPC   C44 3294   8.917   0.901   2.905
   66DPPC   C45 3295   8.906   0.985   3.032
   66DPPC   C46 3296   8.882   0.898   3.156
   66DPPC   C47 3297   9.003   0.805   3.167
   66DPPC   C48 3298   8.991   0.723   3.296
   66DPPC   C49 3299   9.102   0.622   3.326
   66DPPC   C50 3300   9.086   0.538   3.453
   67DPPC    C1 3301   4.869   3.025   5.976
   67DPPC    C2 3302   4.674   2.912   5.981
   67DPPC    C3 3303   4.687   3.084   5.826
   67DPPC    N4 3304   4.766   2.974   5.885
   67DPPC    C5 3305   4.822   2.875   5.792
   67DPPC    C6 3306   4.906   2.761   5.852
   67DPPC    O7 3307   4.997   2.699   5.762
   67DPPC    P8 3308   5.061   2.574   5.841
   67DPPC    O9 3309   5.008   2.551   5.978
   67DPPC   O10 3310   5.206   2.575   5.810
   67DPPC   O11 3311   4.993   2.457   5.754
   67DPPC   C12 3312   5.032   2.475   5.618
   67DPPC   C13 3313   4.978   2.367   5.524
   67DPPC   O14 3314   5.050   2.356   5.401
   67DPPC   C15 3315   5.157   2.272   5.402
   67DPPC   O16 3316   5.192   2.218   5.507
   67DPPC   C17 3317   5.241   2.256   5.275
   67DPPC   C18 3318   5.240   2.107   5.240
   67DPPC   C19 3319   5.310   2.104   5.104
   67DPPC   C20 3320   5.441   2.179   5.126
   67DPPC   C21 3321   5.525   2.179   4.999
   67DPPC   C22 3322   5.670   2.225   5.013
   67DPPC   C23 3323   5.749   2.216   4.882
   67DPPC   C24 3324   5.683   2.293   4.767
   67DPPC   C25 3325   5.770   2.296   4.642
   67DPPC   C26 3326   5.701   2.375   4.530
   67DPPC   C27 3327   5.779   2.354   4.400
   67DPPC   C28 3328   5.696   2.391   4.276
   67DPPC   C29 3329   5.762   2.361   4.142
   67DPPC   C30 3330   5.696   2.437   4.027
   67DPPC   C31 3331   5.772   2.399   3.900
   67DPPC   C32 3332   4.828   2.387   5.504
   67DPPC   O33 3333   4.780   2.502   5.434
   67DPPC   C34 3334   4.645   2.515   5.439
   67DPPC   O35 3335   4.582   2.488   5.541
   67DPPC   C36 3336   4.589   2.580   5.313
   67DPPC   C37 3337   4.591   2.733   5.324
   67DPPC   C38 3338   4.524   2.782   5.195
   67DPPC   C39 3339   4.567   2.736   5.056
   67DPPC   C40 3340   4.491   2.804   4.941
   67DPPC   C41 3341   4.552   2.768   4.806
   67DPPC   C42 3342   4.511   2.865   4.695
   67DPPC   C43 3343   4.545   3.010   4.728
   67DPPC   C44 3344   4.487   3.087   4.608
   67DPPC   C45 3345   4.542   3.033   4.476
   67DPPC   C46 3346   4.501   3.117   4.354
   67DPPC   C47 3347   4.566   3.068   4.224
   67DPPC   C48 3348   4.533   3.154   4.102
   67DPPC   C49 3349   4.592   3.074   3.986
   67DPPC   C50 3350   4.615   3.168   3.868
   68DPPC    C1 3351   0.674   4.041   1.092
   68DPPC    C2 3352   0.871   3.943   0.998
   68DPPC    C3 3353   0.913   4.101   1.144
   68DPPC    N4 3354   0.811   3.997   1.121
   68DPPC    C5 3355   0.814   3.899   1.230
   68DPPC    C6 3356   0.753   3.761   1.200
   68DPPC    O7 3357   0.771   3.664   1.303
   68DPPC    P8 3358   0.703   3.521   1.275
   68DPPC    O9 3359   0.797   3.409   1.297
   68DPPC   O10 3360   0.631   3.527   1.145
   68DPPC   O11 3361   0.614   3.548   1.406
   68DPPC   C12 3362   0.702   3.528   1.517
   68DPPC   C13 3363   0.667   3.624   1.631
   68DPPC   O14 3364   0.741   3.584   1.747
   68DPPC   C15 3365   0.851   3.653   1.788
   68DPPC   O16 3366   0.906   3.736   1.716
   68DPPC   C17 3367   0.893   3.617   1.931
   68DPPC   C18 3368   0.813   3.680   2.045
   68DPPC   C19 3369   0.795   3.827   2.009
   68DPPC   C20 3370   0.702   3.887   2.115
   68DPPC   C21 3371   0.768   3.867   2.251
   68DPPC   C22 3372   0.666   3.939   2.339
   68DPPC   C23 3373   0.696   3.933   2.489
   68DPPC   C24 3374   0.587   4.012   2.561
   68DPPC   C25 3375   0.578   4.162   2.530
   68DPPC   C26 3376   0.451   4.225   2.587
   68DPPC   C27 3377   0.448   4.196   2.738
   68DPPC   C28 3378   0.322   4.240   2.813
   68DPPC   C29 3379   0.317   4.219   2.964
   68DPPC   C30 3380   0.316   4.070   2.997
   68DPPC   C31 3381   0.298   4.040   3.146
   68DPPC   C32 3382   0.516   3.610   1.655
   68DPPC   O33 3383   0.460   3.716   1.733
   68DPPC   C34 3384   0.350   3.676   1.802
   68DPPC   O35 3385   0.282   3.585   1.757
   68DPPC   C36 3386   0.279   3.784   1.885
   68DPPC   C37 3387   0.278   3.751   2.035
   68DPPC   C38 3388   0.251   3.862   2.136
   68DPPC   C39 3389   0.103   3.901   2.137
   68DPPC   C40 3390   0.005   3.810   2.211
   68DPPC   C41 3391  -0.138   3.858   2.186
   68DPPC   C42 3392  -0.235   3.760   2.252
   68DPPC   C43 3393  -0.206   3.769   2.402
   68DPPC   C44 3394  -0.309   3.668   2.454
   68DPPC   C45 3395  -0.444   3.736   2.471
   68DPPC   C46 3396  -0.438   3.857   2.565
   68DPPC   C47 3397  -0.579   3.916   2.559
   68DPPC   C48 3398  -0.611   4.042   2.640
   68DPPC   C49 3399  -0.755   4.090   2.619
   68DPPC   C50 3400  -0.841   3.981   2.682
   69DPPC    C1 3401   5.480   2.612   6.339
   69DPPC    C2 3402   5.543   2.617   6.112
   69DPPC    C3 3403   5.486   2.408   6.217
   69DPPC    N4 3404   5.453   2.551   6.208
   69DPPC    C5 3405   5.314   2.584   6.173
   69DPPC    C6 3406   5.259   2.719   6.220
   69DPPC    O7 3407   5.308   2.839   6.158
   69DPPC    P8 3408   5.217   2.971   6.143
   69DPPC    O9 3409   5.302   3.078   6.201
   69DPPC   O10 3410   5.086   2.930   6.197
   69DPPC   O11 3411   5.224   2.952   5.984
   69DPPC   C12 3412   5.351   2.980   5.925
   69DPPC   C13 3413   5.331   2.947   5.777
   69DPPC   O14 3414   5.441   2.991   5.696
   69DPPC   C15 3415   5.469   3.116   5.649
   69DPPC   O16 3416   5.426   3.212   5.712
   69DPPC   C17 3417   5.587   3.131   5.554
   69DPPC   C18 3418   5.519   3.116   5.417
   69DPPC   C19 3419   5.626   3.120   5.307
   69DPPC   C20 3420   5.581   3.071   5.169
   69DPPC   C21 3421   5.697   3.086   5.070
   69DPPC   C22 3422   5.656   3.068   4.924
   69DPPC   C23 3423   5.778   3.116   4.846
   69DPPC   C24 3424   5.736   3.168   4.708
   69DPPC   C25 3425   5.865   3.229   4.655
   69DPPC   C26 3426   5.861   3.299   4.519
   69DPPC   C27 3427   5.816   3.203   4.409
   69DPPC   C28 3428   5.777   3.270   4.277
   69DPPC   C29 3429   5.742   3.160   4.178
   69DPPC   C30 3430   5.723   3.223   4.040
   69DPPC   C31 3431   5.688   3.120   3.932
   69DPPC   C32 3432   5.195   3.003   5.738
   69DPPC   O33 3433   5.164   2.962   5.604
   69DPPC   C34 3434   5.054   3.013   5.542
   69DPPC   O35 3435   4.976   3.089   5.598
   69DPPC   C36 3436   5.055   3.001   5.390
   69DPPC   C37 3437   4.995   2.867   5.347
   69DPPC   C38 3438   5.049   2.823   5.211
   69DPPC   C39 3439   4.992   2.688   5.166
   69DPPC   C40 3440   5.005   2.669   5.014
   69DPPC   C41 3441   5.017   2.521   4.978
   69DPPC   C42 3442   5.072   2.494   4.838
   69DPPC   C43 3443   5.125   2.352   4.815
   69DPPC   C44 3444   5.189   2.331   4.678
   69DPPC   C45 3445   5.248   2.190   4.682
   69DPPC   C46 3446   5.346   2.163   4.568
   69DPPC   C47 3447   5.275   2.191   4.435
   69DPPC   C48 3448   5.374   2.155   4.324
   69DPPC   C49 3449   5.310   2.178   4.187
   69DPPC   C50 3450   5.282   2.328   4.181
   70DPPC    C1 3451   2.692   0.100   5.246
   70DPPC    C2 3452   2.787  -0.011   5.052
   70DPPC    C3 3453   2.917   0.089   5.235
   70DPPC    N4 3454   2.799   0.011   5.197
   70DPPC    C5 3455   2.777  -0.103   5.288
   70DPPC    C6 3456   2.885  -0.212   5.294
   70DPPC    O7 3457   2.931  -0.266   5.170
   70DPPC    P8 3458   2.986  -0.414   5.199
   70DPPC    O9 3459   2.871  -0.470   5.273
   70DPPC   O10 3460   3.110  -0.372   5.268
   70DPPC   O11 3461   2.991  -0.465   5.046
   70DPPC   C12 3462   2.862  -0.459   4.986
   70DPPC   C13 3463   2.881  -0.484   4.836
   70DPPC   O14 3464   2.902  -0.619   4.795
   70DPPC   C15 3465   2.809  -0.718   4.807
   70DPPC   O16 3466   2.696  -0.691   4.845
   70DPPC   C17 3467   2.845  -0.857   4.755
   70DPPC   C18 3468   2.870  -0.837   4.605
   70DPPC   C19 3469   2.872  -0.967   4.524
   70DPPC   C20 3470   2.928  -0.928   4.387
   70DPPC   C21 3471   3.070  -0.872   4.403
   70DPPC   C22 3472   3.117  -0.828   4.264
   70DPPC   C23 3473   3.268  -0.819   4.238
   70DPPC   C24 3474   3.303  -0.746   4.108
   70DPPC   C25 3475   3.446  -0.690   4.108
   70DPPC   C26 3476   3.459  -0.623   3.971
   70DPPC   C27 3477   3.606  -0.589   3.949
   70DPPC   C28 3478   3.639  -0.510   3.821
   70DPPC   C29 3479   3.787  -0.540   3.797
   70DPPC   C30 3480   3.872  -0.492   3.915
   70DPPC   C31 3481   4.019  -0.520   3.883
   70DPPC   C32 3482   2.993  -0.392   4.786
   70DPPC   O33 3483   2.949  -0.256   4.780
   70DPPC   C34 3484   3.044  -0.168   4.740
   70DPPC   O35 3485   3.156  -0.209   4.710
   70DPPC   C36 3486   2.999  -0.025   4.710
   70DPPC   C37 3487   3.070   0.038   4.590
   70DPPC   C38 3488   2.997   0.166   4.548
   70DPPC   C39 3489   3.041   0.208   4.407
   70DPPC   C40 3490   2.964   0.111   4.316
   70DPPC   C41 3491   3.007   0.114   4.169
   70DPPC   C42 3492   2.957  -0.012   4.097
   70DPPC   C43 3493   2.805  -0.022   4.106
   70DPPC   C44 3494   2.747   0.092   4.023
   70DPPC   C45 3495   2.692   0.049   3.887
   70DPPC   C46 3496   2.540   0.030   3.876
   70DPPC   C47 3497   2.497  -0.032   3.743
   70DPPC   C48 3498   2.348  -0.063   3.725
   70DPPC   C49 3499   2.318  -0.150   3.603
   70DPPC   C50 3500   2.167  -0.167   3.586
   71DPPC    C1 3501   3.984   3.741   5.502
   71DPPC    C2 3502   4.019   3.830   5.727
   71DPPC    C3 3503   4.035   3.596   5.666
   71DPPC    N4 3504   4.064   3.734   5.625
   71DPPC    C5 3505   4.207   3.765   5.608
   71DPPC    C6 3506   4.294   3.772   5.733
   71DPPC    O7 3507   4.309   3.645   5.796
   71DPPC    P8 3508   4.409   3.646   5.922
   71DPPC    O9 3509   4.390   3.527   6.008
   71DPPC   O10 3510   4.407   3.780   5.985
   71DPPC   O11 3511   4.539   3.643   5.827
   71DPPC   C12 3512   4.569   3.510   5.783
   71DPPC   C13 3513   4.645   3.510   5.650
   71DPPC   O14 3514   4.786   3.534   5.650
   71DPPC   C15 3515   4.856   3.422   5.682
   71DPPC   O16 3516   4.819   3.355   5.778
   71DPPC   C17 3517   5.005   3.424   5.646
   71DPPC   C18 3518   5.021   3.402   5.496
   71DPPC   C19 3519   5.161   3.439   5.448
   71DPPC   C20 3520   5.183   3.391   5.304
   71DPPC   C21 3521   5.306   3.451   5.236
   71DPPC   C22 3522   5.282   3.416   5.089
   71DPPC   C23 3523   5.311   3.268   5.060
   71DPPC   C24 3524   5.304   3.246   4.909
   71DPPC   C25 3525   5.378   3.337   4.810
   71DPPC   C26 3526   5.370   3.275   4.671
   71DPPC   C27 3527   5.417   3.366   4.557
   71DPPC   C28 3528   5.377   3.301   4.424
   71DPPC   C29 3529   5.422   3.390   4.308
   71DPPC   C30 3530   5.377   3.335   4.173
   71DPPC   C31 3531   5.416   3.427   4.057
   71DPPC   C32 3532   4.563   3.597   5.554
   71DPPC   O33 3533   4.586   3.569   5.416
   71DPPC   C34 3534   4.507   3.638   5.329
   71DPPC   O35 3535   4.435   3.730   5.366
   71DPPC   C36 3536   4.508   3.602   5.181
   71DPPC   C37 3537   4.415   3.486   5.145
   71DPPC   C38 3538   4.392   3.445   5.000
   71DPPC   C39 3539   4.284   3.336   5.005
   71DPPC   C40 3540   4.227   3.310   4.866
   71DPPC   C41 3541   4.174   3.440   4.805
   71DPPC   C42 3542   4.156   3.419   4.655
   71DPPC   C43 3543   4.105   3.541   4.579
   71DPPC   C44 3544   4.101   3.503   4.431
   71DPPC   C45 3545   4.248   3.479   4.399
   71DPPC   C46 3546   4.275   3.417   4.262
   71DPPC   C47 3547   4.221   3.504   4.147
   71DPPC   C48 3548   4.284   3.466   4.013
   71DPPC   C49 3549   4.272   3.577   3.909
   71DPPC   C50 3550   4.128   3.603   3.864
   72DPPC    C1 3551   0.937   8.473   4.742
   72DPPC    C2 3552   1.095   8.617   4.833
   72DPPC    C3 3553   0.865   8.630   4.898
   72DPPC    N4 3554   0.976   8.538   4.868
   72DPPC    C5 3555   0.994   8.441   4.978
   72DPPC    C6 3556   1.084   8.319   4.962
   72DPPC    O7 3557   1.214   8.354   4.914
   72DPPC    P8 3558   1.321   8.233   4.905
   72DPPC    O9 3559   1.261   8.139   5.002
   72DPPC   O10 3560   1.456   8.292   4.919
   72DPPC   O11 3561   1.295   8.157   4.765
   72DPPC   C12 3562   1.276   8.265   4.673
   72DPPC   C13 3563   1.258   8.234   4.524
   72DPPC   O14 3564   1.274   8.353   4.446
   72DPPC   C15 3565   1.359   8.366   4.341
   72DPPC   O16 3566   1.455   8.292   4.317
   72DPPC   C17 3567   1.325   8.493   4.262
   72DPPC   C18 3568   1.348   8.468   4.113
   72DPPC   C19 3569   1.341   8.586   4.016
   72DPPC   C20 3570   1.337   8.532   3.872
   72DPPC   C21 3571   1.270   8.641   3.787
   72DPPC   C22 3572   1.305   8.630   3.639
   72DPPC   C23 3573   1.260   8.749   3.555
   72DPPC   C24 3574   1.287   8.723   3.407
   72DPPC   C25 3575   1.267   8.845   3.317
   72DPPC   C26 3576   1.273   8.813   3.168
   72DPPC   C27 3577   1.158   8.722   3.124
   72DPPC   C28 3578   1.028   8.797   3.153
   72DPPC   C29 3579   0.907   8.703   3.157
   72DPPC   C30 3580   0.789   8.794   3.191
   72DPPC   C31 3581   0.806   8.829   3.339
   72DPPC   C32 3582   1.129   8.153   4.512
   72DPPC   O33 3583   1.006   8.225   4.515
   72DPPC   C34 3584   0.904   8.147   4.471
   72DPPC   O35 3585   0.884   8.027   4.494
   72DPPC   C36 3586   0.778   8.222   4.428
   72DPPC   C37 3587   0.740   8.196   4.282
   72DPPC   C38 3588   0.620   8.276   4.233
   72DPPC   C39 3589   0.609   8.272   4.081
   72DPPC   C40 3590   0.592   8.124   4.044
   72DPPC   C41 3591   0.566   8.098   3.895
   72DPPC   C42 3592   0.424   8.141   3.859
   72DPPC   C43 3593   0.426   8.123   3.707
   72DPPC   C44 3594   0.308   8.196   3.644
   72DPPC   C45 3595   0.180   8.156   3.717
   72DPPC   C46 3596   0.065   8.225   3.644
   72DPPC   C47 3597  -0.069   8.170   3.693
   72DPPC   C48 3598  -0.167   8.238   3.596
   72DPPC   C49 3599  -0.311   8.201   3.633
   72DPPC   C50 3600  -0.325   8.050   3.617
   73DPPC    C1 3601   8.466   8.281   4.928
   73DPPC    C2 3602   8.377   8.166   4.731
   73DPPC    C3 3603   8.578   8.095   4.831
   73DPPC    N4 3604   8.446   8.152   4.860
   73DPPC    C5 3605   8.381   8.055   4.950
   73DPPC    C6 3606   8.257   8.091   5.033
   73DPPC    O7 3607   8.210   7.969   5.092
   73DPPC    P8 3608   8.059   7.959   5.146
   73DPPC    O9 3609   8.036   8.088   5.215
   73DPPC   O10 3610   8.045   7.826   5.210
   73DPPC   O11 3611   7.993   7.956   4.999
   73DPPC   C12 3612   8.021   7.827   4.945
   73DPPC   C13 3613   7.951   7.787   4.815
   73DPPC   O14 3614   7.996   7.860   4.700
   73DPPC   C15 3615   8.117   7.837   4.644
   73DPPC   O16 3616   8.207   7.790   4.714
   73DPPC   C17 3617   8.155   7.912   4.516
   73DPPC   C18 3618   8.190   7.813   4.405
   73DPPC   C19 3619   8.077   7.728   4.346
   73DPPC   C20 3620   8.146   7.629   4.252
   73DPPC   C21 3621   8.153   7.491   4.317
   73DPPC   C22 3622   8.211   7.388   4.220
   73DPPC   C23 3623   8.344   7.441   4.167
   73DPPC   C24 3624   8.393   7.353   4.052
   73DPPC   C25 3625   8.308   7.362   3.924
   73DPPC   C26 3626   8.381   7.313   3.799
   73DPPC   C27 3627   8.446   7.178   3.833
   73DPPC   C28 3628   8.515   7.141   3.701
   73DPPC   C29 3629   8.630   7.232   3.658
   73DPPC   C30 3630   8.688   7.199   3.520
   73DPPC   C31 3631   8.819   7.270   3.483
   73DPPC   C32 3632   7.801   7.796   4.840
   73DPPC   O33 3633   7.720   7.768   4.726
   73DPPC   C34 3634   7.729   7.641   4.679
   73DPPC   O35 3635   7.788   7.556   4.744
   73DPPC   C36 3636   7.667   7.609   4.543
   73DPPC   C37 3637   7.713   7.474   4.485
   73DPPC   C38 3638   7.640   7.435   4.357
   73DPPC   C39 3639   7.660   7.538   4.246
   73DPPC   C40 3640   7.605   7.488   4.112
   73DPPC   C41 3641   7.646   7.593   4.008
   73DPPC   C42 3642   7.637   7.535   3.866
   73DPPC   C43 3643   7.714   7.636   3.780
   73DPPC   C44 3644   7.773   7.576   3.652
   73DPPC   C45 3645   7.845   7.676   3.562
   73DPPC   C46 3646   7.753   7.794   3.531
   73DPPC   C47 3647   7.818   7.897   3.438
   73DPPC   C48 3648   7.931   7.971   3.509
   73DPPC   C49 3649   7.889   8.114   3.542
   73DPPC   C50 3650   8.020   8.182   3.582
   74DPPC    C1 3651   5.864   4.834   5.767
   74DPPC    C2 3652   5.659   4.943   5.676
   74DPPC    C3 3653   5.868   5.034   5.642
   74DPPC    N4 3654   5.800   4.905   5.656
   74DPPC    C5 3655   5.794   4.820   5.536
   74DPPC    C6 3656   5.916   4.808   5.444
   74DPPC    O7 3657   5.915   4.689   5.364
   74DPPC    P8 3658   6.073   4.672   5.342
   74DPPC    O9 3659   6.103   4.557   5.254
   74DPPC   O10 3660   6.147   4.689   5.470
   74DPPC   O11 3661   6.107   4.804   5.256
   74DPPC   C12 3662   6.215   4.770   5.169
   74DPPC   C13 3663   6.237   4.862   5.049
   74DPPC   O14 3664   6.368   4.862   4.991
   74DPPC   C15 3665   6.401   4.760   4.907
   74DPPC   O16 3666   6.336   4.656   4.916
   74DPPC   C17 3667   6.524   4.790   4.822
   74DPPC   C18 3668   6.486   4.794   4.674
   74DPPC   C19 3669   6.606   4.848   4.596
   74DPPC   C20 3670   6.562   4.854   4.449
   74DPPC   C21 3671   6.445   4.951   4.428
   74DPPC   C22 3672   6.368   4.916   4.300
   74DPPC   C23 3673   6.461   4.925   4.179
   74DPPC   C24 3674   6.379   4.915   4.051
   74DPPC   C25 3675   6.470   4.941   3.930
   74DPPC   C26 3676   6.392   4.907   3.803
   74DPPC   C27 3677   6.493   4.853   3.702
   74DPPC   C28 3678   6.432   4.785   3.579
   74DPPC   C29 3679   6.367   4.656   3.629
   74DPPC   C30 3680   6.454   4.561   3.712
   74DPPC   C31 3681   6.368   4.444   3.759
   74DPPC   C32 3682   6.209   5.001   5.107
   74DPPC   O33 3683   6.169   5.085   4.998
   74DPPC   C34 3684   6.180   5.219   5.016
   74DPPC   O35 3685   6.191   5.265   5.129
   74DPPC   C36 3686   6.175   5.317   4.899
   74DPPC   C37 3687   6.154   5.237   4.770
   74DPPC   C38 3688   6.193   5.328   4.653
   74DPPC   C39 3689   6.340   5.368   4.670
   74DPPC   C40 3690   6.392   5.446   4.549
   74DPPC   C41 3691   6.409   5.351   4.430
   74DPPC   C42 3692   6.484   5.424   4.319
   74DPPC   C43 3693   6.470   5.347   4.188
   74DPPC   C44 3694   6.551   5.406   4.073
   74DPPC   C45 3695   6.504   5.343   3.942
   74DPPC   C46 3696   6.605   5.372   3.830
   74DPPC   C47 3697   6.558   5.302   3.703
   74DPPC   C48 3698   6.674   5.303   3.603
   74DPPC   C49 3699   6.622   5.256   3.467
   74DPPC   C50 3700   6.503   5.328   3.403
   75DPPC    C1 3701   3.748   1.475   5.725
   75DPPC    C2 3702   3.722   1.536   5.487
   75DPPC    C3 3703   3.639   1.341   5.581
   75DPPC    N4 3704   3.659   1.484   5.609
   75DPPC    C5 3705   3.545   1.566   5.651
   75DPPC    C6 3706   3.450   1.640   5.557
   75DPPC    O7 3707   3.514   1.760   5.511
   75DPPC    P8 3708   3.378   1.844   5.493
   75DPPC    O9 3709   3.344   1.876   5.633
   75DPPC   O10 3710   3.298   1.765   5.397
   75DPPC   O11 3711   3.432   1.976   5.418
   75DPPC   C12 3712   3.386   1.985   5.284
   75DPPC   C13 3713   3.444   2.110   5.217
   75DPPC   O14 3714   3.411   2.123   5.078
   75DPPC   C15 3715   3.432   2.241   5.015
   75DPPC   O16 3716   3.465   2.344   5.073
   75DPPC   C17 3717   3.411   2.251   4.864
   75DPPC   C18 3718   3.530   2.305   4.784
   75DPPC   C19 3719   3.649   2.209   4.791
   75DPPC   C20 3720   3.781   2.281   4.767
   75DPPC   C21 3721   3.901   2.187   4.759
   75DPPC   C22 3722   4.020   2.282   4.742
   75DPPC   C23 3723   4.150   2.206   4.716
   75DPPC   C24 3724   4.261   2.306   4.683
   75DPPC   C25 3725   4.226   2.400   4.568
   75DPPC   C26 3726   4.339   2.457   4.483
   75DPPC   C27 3727   4.288   2.552   4.374
   75DPPC   C28 3728   4.391   2.603   4.273
   75DPPC   C29 3729   4.320   2.659   4.149
   75DPPC   C30 3730   4.420   2.730   4.058
   75DPPC   C31 3731   4.341   2.802   3.948
   75DPPC   C32 3732   3.594   2.098   5.248
   75DPPC   O33 3733   3.648   1.969   5.218
   75DPPC   C34 3734   3.783   1.954   5.215
   75DPPC   O35 3735   3.849   2.036   5.278
   75DPPC   C36 3736   3.822   1.815   5.164
   75DPPC   C37 3737   3.853   1.831   5.015
   75DPPC   C38 3738   3.902   1.703   4.947
   75DPPC   C39 3739   3.941   1.719   4.799
   75DPPC   C40 3740   3.833   1.751   4.696
   75DPPC   C41 3741   3.885   1.779   4.555
   75DPPC   C42 3742   3.763   1.814   4.469
   75DPPC   C43 3743   3.829   1.869   4.343
   75DPPC   C44 3744   3.733   1.895   4.226
   75DPPC   C45 3745   3.666   1.763   4.189
   75DPPC   C46 3746   3.578   1.774   4.064
   75DPPC   C47 3747   3.673   1.810   3.950
   75DPPC   C48 3748   3.593   1.841   3.824
   75DPPC   C49 3749   3.697   1.861   3.713
   75DPPC   C50 3750   3.626   1.927   3.595
   76DPPC    C1 3751   5.886   0.024   5.272
   76DPPC    C2 3752   5.683   0.087   5.352
   76DPPC    C3 3753   5.817   0.256   5.248
   76DPPC    N4 3754   5.775   0.115   5.241
   76DPPC    C5 3755   5.720   0.070   5.112
   76DPPC    C6 3756   5.592   0.145   5.077
   76DPPC    O7 3757   5.512   0.106   4.965
   76DPPC    P8 3758   5.404   0.225   4.947
   76DPPC    O9 3759   5.483   0.345   4.911
   76DPPC   O10 3760   5.325   0.220   5.071
   76DPPC   O11 3761   5.335   0.140   4.829
   76DPPC   C12 3762   5.381   0.184   4.701
   76DPPC   C13 3763   5.272   0.194   4.593
   76DPPC   O14 3764   5.199   0.316   4.577
   76DPPC   C15 3765   5.268   0.422   4.526
   76DPPC   O16 3766   5.391   0.419   4.535
   76DPPC   C17 3767   5.191   0.553   4.512
   76DPPC   C18 3768   5.172   0.630   4.643
   76DPPC   C19 3769   5.094   0.761   4.625
   76DPPC   C20 3770   4.966   0.738   4.544
   76DPPC   C21 3771   4.880   0.860   4.509
   76DPPC   C22 3772   4.775   0.826   4.404
   76DPPC   C23 3773   4.862   0.780   4.287
   76DPPC   C24 3774   4.785   0.770   4.155
   76DPPC   C25 3775   4.840   0.665   4.059
   76DPPC   C26 3776   4.793   0.672   3.913
   76DPPC   C27 3777   4.861   0.562   3.832
   76DPPC   C28 3778   5.013   0.584   3.829
   76DPPC   C29 3779   5.097   0.457   3.838
   76DPPC   C30 3780   5.077   0.371   3.713
   76DPPC   C31 3781   5.175   0.253   3.714
   76DPPC   C32 3782   5.210   0.054   4.584
   76DPPC   O33 3783   5.311  -0.040   4.548
   76DPPC   C34 3784   5.274  -0.169   4.571
   76DPPC   O35 3785   5.191  -0.193   4.658
   76DPPC   C36 3786   5.366  -0.280   4.521
   76DPPC   C37 3787   5.386  -0.253   4.371
   76DPPC   C38 3788   5.530  -0.293   4.341
   76DPPC   C39 3789   5.564  -0.268   4.194
   76DPPC   C40 3790   5.658  -0.370   4.129
   76DPPC   C41 3791   5.579  -0.496   4.095
   76DPPC   C42 3792   5.657  -0.601   4.015
   76DPPC   C43 3793   5.573  -0.729   4.017
   76DPPC   C44 3794   5.449  -0.703   3.933
   76DPPC   C45 3795   5.394  -0.837   3.882
   76DPPC   C46 3796   5.278  -0.800   3.790
   76DPPC   C47 3797   5.323  -0.794   3.643
   76DPPC   C48 3798   5.372  -0.929   3.592
   76DPPC   C49 3799   5.459  -0.905   3.469
   76DPPC   C50 3800   5.476  -1.034   3.389
   77DPPC    C1 3801   9.300   6.067   4.755
   77DPPC    C2 3802   9.427   5.885   4.656
   77DPPC    C3 3803   9.393   5.893   4.889
   77DPPC    N4 3804   9.329   5.923   4.759
   77DPPC    C5 3805   9.214   5.835   4.732
   77DPPC    C6 3806   9.079   5.818   4.802
   77DPPC    O7 3807   9.099   5.749   4.925
   77DPPC    P8 3808   8.979   5.770   5.030
   77DPPC    O9 3809   8.897   5.888   4.996
   77DPPC   O10 3810   9.034   5.762   5.167
   77DPPC   O11 3811   8.897   5.633   5.003
   77DPPC   C12 3812   8.961   5.510   5.038
   77DPPC   C13 3813   8.876   5.388   5.000
   77DPPC   O14 3814   8.957   5.277   4.959
   77DPPC   C15 3815   8.974   5.168   5.039
   77DPPC   O16 3816   8.974   5.184   5.161
   77DPPC   C17 3817   9.012   5.031   4.983
   77DPPC   C18 3818   8.960   5.011   4.840
   77DPPC   C19 3819   9.048   4.907   4.772
   77DPPC   C20 3820   9.194   4.954   4.767
   77DPPC   C21 3821   9.284   4.832   4.745
   77DPPC   C22 3822   9.287   4.798   4.596
   77DPPC   C23 3823   9.349   4.916   4.521
   77DPPC   C24 3824   9.349   4.878   4.372
   77DPPC   C25 3825   9.396   4.994   4.285
   77DPPC   C26 3826   9.397   4.957   4.136
   77DPPC   C27 3827   9.466   5.069   4.058
   77DPPC   C28 3828   9.455   5.015   3.915
   77DPPC   C29 3829   9.508   5.112   3.810
   77DPPC   C30 3830   9.545   5.032   3.685
   77DPPC   C31 3831   9.422   5.003   3.598
   77DPPC   C32 3832   8.793   5.435   4.880
   77DPPC   O33 3833   8.725   5.330   4.810
   77DPPC   C34 3834   8.654   5.375   4.704
   77DPPC   O35 3835   8.677   5.486   4.657
   77DPPC   C36 3836   8.583   5.259   4.632
   77DPPC   C37 3837   8.507   5.294   4.504
   77DPPC   C38 3838   8.488   5.162   4.430
   77DPPC   C39 3839   8.505   5.201   4.283
   77DPPC   C40 3840   8.466   5.075   4.206
   77DPPC   C41 3841   8.534   4.940   4.232
   77DPPC   C42 3842   8.457   4.822   4.173
   77DPPC   C43 3843   8.522   4.687   4.204
   77DPPC   C44 3844   8.450   4.566   4.144
   77DPPC   C45 3845   8.497   4.422   4.164
   77DPPC   C46 3846   8.453   4.339   4.043
   77DPPC   C47 3847   8.505   4.401   3.913
   77DPPC   C48 3848   8.484   4.323   3.784
   77DPPC   C49 3849   8.552   4.389   3.664
   77DPPC   C50 3850   8.546   4.303   3.538
   78DPPC    C1 3851   1.043   5.327   5.246
   78DPPC    C2 3852   1.138   5.147   5.158
   78DPPC    C3 3853   1.193   5.378   5.083
   78DPPC    N4 3854   1.175   5.285   5.195
   78DPPC    C5 3855   1.266   5.309   5.308
   78DPPC    C6 3856   1.408   5.252   5.295
   78DPPC    O7 3857   1.421   5.110   5.297
   78DPPC    P8 3858   1.572   5.067   5.260
   78DPPC    O9 3859   1.604   4.940   5.329
   78DPPC   O10 3860   1.645   5.193   5.286
   78DPPC   O11 3861   1.541   5.062   5.102
   78DPPC   C12 3862   1.486   4.934   5.069
   78DPPC   C13 3863   1.402   4.921   4.942
   78DPPC   O14 3864   1.336   4.797   4.914
   78DPPC   C15 3865   1.224   4.760   4.981
   78DPPC   O16 3866   1.143   4.837   5.033
   78DPPC   C17 3867   1.173   4.626   4.928
   78DPPC   C18 3868   1.109   4.632   4.790
   78DPPC   C19 3869   1.057   4.492   4.759
   78DPPC   C20 3870   1.005   4.495   4.615
   78DPPC   C21 3871   1.128   4.528   4.529
   78DPPC   C22 3872   1.111   4.575   4.384
   78DPPC   C23 3873   1.248   4.575   4.316
   78DPPC   C24 3874   1.237   4.602   4.166
   78DPPC   C25 3875   1.156   4.496   4.091
   78DPPC   C26 3876   1.143   4.541   3.946
   78DPPC   C27 3877   1.292   4.552   3.912
   78DPPC   C28 3878   1.301   4.628   3.780
   78DPPC   C29 3879   1.432   4.603   3.704
   78DPPC   C30 3880   1.425   4.462   3.644
   78DPPC   C31 3881   1.554   4.425   3.569
   78DPPC   C32 3882   1.501   4.958   4.831
   78DPPC   O33 3883   1.444   4.975   4.701
   78DPPC   C34 3884   1.539   5.016   4.613
   78DPPC   O35 3885   1.655   4.982   4.632
   78DPPC   C36 3886   1.494   5.106   4.497
   78DPPC   C37 3887   1.385   5.036   4.416
   78DPPC   C38 3888   1.447   4.933   4.321
   78DPPC   C39 3889   1.526   5.024   4.226
   78DPPC   C40 3890   1.620   4.942   4.138
   78DPPC   C41 3891   1.553   4.859   4.028
   78DPPC   C42 3892   1.659   4.787   3.944
   78DPPC   C43 3893   1.742   4.896   3.876
   78DPPC   C44 3894   1.845   4.839   3.778
   78DPPC   C45 3895   1.885   4.944   3.675
   78DPPC   C46 3896   1.939   5.067   3.748
   78DPPC   C47 3897   1.986   5.181   3.658
   78DPPC   C48 3898   2.055   5.292   3.738
   78DPPC   C49 3899   2.201   5.255   3.768
   78DPPC   C50 3900   2.281   5.377   3.813
   79DPPC    C1 3901   0.057   3.600   6.067
   79DPPC    C2 3902   0.078   3.602   5.832
   79DPPC    C3 3903  -0.145   3.574   5.930
   79DPPC    N4 3904  -0.012   3.636   5.943
   79DPPC    C5 3905  -0.009   3.783   5.938
   79DPPC    C6 3906  -0.109   3.864   5.855
   79DPPC    O7 3907  -0.069   3.862   5.718
   79DPPC    P8 3908  -0.195   3.937   5.652
   79DPPC    O9 3909  -0.207   4.070   5.716
   79DPPC   O10 3910  -0.301   3.834   5.646
   79DPPC   O11 3911  -0.122   3.944   5.508
   79DPPC   C12 3912  -0.067   3.818   5.469
   79DPPC   C13 3913  -0.019   3.820   5.324
   79DPPC   O14 3914   0.018   3.686   5.288
   79DPPC   C15 3915  -0.064   3.583   5.255
   79DPPC   O16 3916  -0.174   3.580   5.310
   79DPPC   C17 3917  -0.010   3.468   5.171
   79DPPC   C18 3918   0.009   3.512   5.025
   79DPPC   C19 3919   0.019   3.387   4.937
   79DPPC   C20 3920  -0.002   3.425   4.790
   79DPPC   C21 3921   0.011   3.301   4.702
   79DPPC   C22 3922  -0.025   3.348   4.561
   79DPPC   C23 3923  -0.043   3.232   4.462
   79DPPC   C24 3924  -0.093   3.282   4.327
   79DPPC   C25 3925  -0.112   3.169   4.226
   79DPPC   C26 3926  -0.112   3.235   4.088
   79DPPC   C27 3927  -0.137   3.138   3.973
   79DPPC   C28 3928  -0.130   3.224   3.847
   79DPPC   C29 3929  -0.170   3.139   3.726
   79DPPC   C30 3930  -0.081   3.017   3.707
   79DPPC   C31 3931  -0.113   2.947   3.574
   79DPPC   C32 3932   0.098   3.918   5.336
   79DPPC   O33 3933   0.141   3.975   5.212
   79DPPC   C34 3934   0.236   4.071   5.218
   79DPPC   O35 3935   0.265   4.112   5.330
   79DPPC   C36 3936   0.303   4.122   5.090
   79DPPC   C37 3937   0.214   4.128   4.965
   79DPPC   C38 3938   0.303   4.143   4.842
   79DPPC   C39 3939   0.212   4.125   4.721
   79DPPC   C40 3940   0.106   4.233   4.692
   79DPPC   C41 3941   0.012   4.189   4.580
   79DPPC   C42 3942   0.075   4.189   4.441
   79DPPC   C43 3943  -0.030   4.131   4.345
   79DPPC   C44 3944   0.026   4.149   4.203
   79DPPC   C45 3945  -0.098   4.121   4.118
   79DPPC   C46 3946  -0.062   4.193   3.988
   79DPPC   C47 3947  -0.171   4.206   3.881
   79DPPC   C48 3948  -0.103   4.257   3.754
   79DPPC   C49 3949  -0.199   4.239   3.636
   79DPPC   C50 3950  -0.132   4.267   3.501
   80DPPC    C1 3951   0.560   4.392   5.663
   80DPPC    C2 3952   0.714   4.471   5.844
   80DPPC    C3 3953   0.586   4.277   5.870
   80DPPC    N4 3954   0.655   4.359   5.769
   80DPPC    C5 3955   0.760   4.280   5.703
   80DPPC    C6 3956   0.855   4.347   5.604
   80DPPC    O7 3957   0.973   4.268   5.585
   80DPPC    P8 3958   1.072   4.371   5.510
   80DPPC    O9 3959   1.207   4.321   5.543
   80DPPC   O10 3960   1.028   4.511   5.531
   80DPPC   O11 3961   1.011   4.311   5.373
   80DPPC   C12 3962   1.039   4.414   5.278
   80DPPC   C13 3963   0.979   4.373   5.143
   80DPPC   O14 3964   0.838   4.352   5.141
   80DPPC   C15 3965   0.750   4.454   5.122
   80DPPC   O16 3966   0.772   4.565   5.171
   80DPPC   C17 3967   0.614   4.404   5.076
   80DPPC   C18 3968   0.612   4.400   4.923
   80DPPC   C19 3969   0.646   4.527   4.845
   80DPPC   C20 3970   0.626   4.532   4.693
   80DPPC   C21 3971   0.671   4.663   4.628
   80DPPC   C22 3972   0.620   4.652   4.484
   80DPPC   C23 3973   0.738   4.614   4.393
   80DPPC   C24 3974   0.684   4.593   4.252
   80DPPC   C25 3975   0.806   4.540   4.176
   80DPPC   C26 3976   0.788   4.483   4.035
   80DPPC   C27 3977   0.748   4.582   3.926
   80DPPC   C28 3978   0.713   4.504   3.799
   80DPPC   C29 3979   0.697   4.586   3.671
   80DPPC   C30 3980   0.648   4.506   3.550
   80DPPC   C31 3981   0.642   4.584   3.419
   80DPPC   C32 3982   1.062   4.254   5.094
   80DPPC   O33 3983   1.177   4.291   5.016
   80DPPC   C34 3984   1.235   4.187   4.951
   80DPPC   O35 3985   1.187   4.076   4.972
   80DPPC   C36 3986   1.343   4.224   4.849
   80DPPC   C37 3987   1.329   4.130   4.729
   80DPPC   C38 3988   1.225   4.165   4.622
   80DPPC   C39 3989   1.210   4.055   4.517
   80DPPC   C40 3990   1.093   4.090   4.424
   80DPPC   C41 3991   1.064   3.974   4.329
   80DPPC   C42 3992   0.988   4.005   4.201
   80DPPC   C43 3993   1.025   4.111   4.097
   80DPPC   C44 3994   0.960   4.093   3.960
   80DPPC   C45 3995   1.017   4.159   3.834
   80DPPC   C46 3996   0.923   4.156   3.713
   80DPPC   C47 3997   1.004   4.103   3.594
   80DPPC   C48 3998   0.910   4.081   3.476
   80DPPC   C49 3999   0.983   4.011   3.362
   80DPPC   C50 4000   0.886   3.964   3.253
   81DPPC    C1 4001   5.913   4.189   5.348
   81DPPC    C2 4002   5.707   4.152   5.467
   81DPPC    C3 4003   5.882   4.263   5.571
   81DPPC    N4 4004   5.815   4.249   5.440
   81DPPC    C5 4005   5.759   4.370   5.379
   81DPPC    C6 4006   5.689   4.473   5.467
   81DPPC    O7 4007   5.590   4.422   5.558
   81DPPC    P8 4008   5.560   4.530   5.673
   81DPPC    O9 4009   5.697   4.578   5.702
   81DPPC   O10 4010   5.465   4.483   5.776
   81DPPC   O11 4011   5.491   4.650   5.590
   81DPPC   C12 4012   5.373   4.603   5.523
   81DPPC   C13 4013   5.289   4.717   5.465
   81DPPC   O14 4014   5.176   4.681   5.384
   81DPPC   C15 4015   5.057   4.668   5.447
   81DPPC   O16 4016   5.046   4.720   5.558
   81DPPC   C17 4017   4.931   4.618   5.376
   81DPPC   C18 4018   4.945   4.609   5.224
   81DPPC   C19 4019   4.818   4.563   5.154
   81DPPC   C20 4020   4.773   4.430   5.216
   81DPPC   C21 4021   4.644   4.378   5.150
   81DPPC   C22 4022   4.671   4.323   5.010
   81DPPC   C23 4023   4.534   4.313   4.943
   81DPPC   C24 4024   4.549   4.313   4.791
   81DPPC   C25 4025   4.409   4.278   4.741
   81DPPC   C26 4026   4.294   4.374   4.771
   81DPPC   C27 4027   4.166   4.303   4.726
   81DPPC   C28 4028   4.173   4.267   4.578
   81DPPC   C29 4029   4.085   4.147   4.540
   81DPPC   C30 4030   4.137   4.103   4.404
   81DPPC   C31 4031   4.056   3.999   4.326
   81DPPC   C32 4032   5.388   4.808   5.392
   81DPPC   O33 4033   5.475   4.761   5.288
   81DPPC   C34 4034   5.588   4.829   5.254
   81DPPC   O35 4035   5.613   4.940   5.300
   81DPPC   C36 4036   5.655   4.779   5.126
   81DPPC   C37 4037   5.629   4.631   5.094
   81DPPC   C38 4038   5.725   4.599   4.979
   81DPPC   C39 4039   5.723   4.450   4.944
   81DPPC   C40 4040   5.866   4.408   4.907
   81DPPC   C41 4041   5.903   4.261   4.886
   81DPPC   C42 4042   5.830   4.194   4.769
   81DPPC   C43 4043   5.871   4.249   4.632
   81DPPC   C44 4044   5.801   4.195   4.507
   81DPPC   C45 4045   5.835   4.245   4.367
   81DPPC   C46 4046   5.738   4.160   4.284
   81DPPC   C47 4047   5.722   4.212   4.141
   81DPPC   C48 4048   5.848   4.171   4.064
   81DPPC   C49 4049   5.845   4.229   3.923
   81DPPC   C50 4050   5.971   4.218   3.835
   82DPPC    C1 4051   9.166   5.635   5.446
   82DPPC    C2 4052   9.373   5.539   5.488
   82DPPC    C3 4053   9.188   5.456   5.591
   82DPPC    N4 4054   9.232   5.505   5.460
   82DPPC    C5 4055   9.207   5.425   5.339
   82DPPC    C6 4056   9.263   5.284   5.320
   82DPPC    O7 4057   9.404   5.292   5.300
   82DPPC    P8 4058   9.453   5.148   5.245
   82DPPC    O9 4059   9.384   5.046   5.327
   82DPPC   O10 4060   9.601   5.148   5.239
   82DPPC   O11 4061   9.391   5.163   5.097
   82DPPC   C12 4062   9.487   5.215   5.004
   82DPPC   C13 4063   9.445   5.184   4.860
   82DPPC   O14 4064   9.560   5.171   4.775
   82DPPC   C15 4065   9.622   5.051   4.760
   82DPPC   O16 4066   9.625   4.975   4.857
   82DPPC   C17 4067   9.752   5.058   4.680
   82DPPC   C18 4068   9.715   5.057   4.531
   82DPPC   C19 4069   9.835   5.071   4.438
   82DPPC   C20 4070   9.786   5.068   4.293
   82DPPC   C21 4071   9.912   5.072   4.207
   82DPPC   C22 4072   9.867   5.009   4.075
   82DPPC   C23 4073   9.960   5.063   3.967
   82DPPC   C24 4074   9.955   4.973   3.843
   82DPPC   C25 4075  10.048   5.029   3.735
   82DPPC   C26 4076  10.033   4.962   3.598
   82DPPC   C27 4077  10.122   5.028   3.491
   82DPPC   C28 4078  10.110   4.960   3.355
   82DPPC   C29 4079  10.157   5.046   3.238
   82DPPC   C30 4080  10.063   5.166   3.239
   82DPPC   C31 4081  10.097   5.259   3.122
   82DPPC   C32 4082   9.351   5.300   4.824
   82DPPC   O33 4083   9.257   5.267   4.722
   82DPPC   C34 4084   9.179   5.376   4.695
   82DPPC   O35 4085   9.206   5.489   4.734
   82DPPC   C36 4086   9.072   5.348   4.589
   82DPPC   C37 4087   9.131   5.353   4.448
   82DPPC   C38 4088   9.024   5.301   4.352
   82DPPC   C39 4089   9.032   5.149   4.356
   82DPPC   C40 4090   8.910   5.076   4.299
   82DPPC   C41 4091   8.866   5.124   4.161
   82DPPC   C42 4092   8.938   5.056   4.044
   82DPPC   C43 4093   8.870   5.102   3.914
   82DPPC   C44 4094   8.948   5.032   3.803
   82DPPC   C45 4095   8.900   5.061   3.661
   82DPPC   C46 4096   9.002   5.009   3.559
   82DPPC   C47 4097   9.073   4.875   3.579
   82DPPC   C48 4098   8.968   4.763   3.575
   82DPPC   C49 4099   9.026   4.622   3.568
   82DPPC   C50 4100   9.137   4.614   3.463
   83DPPC    C1 4101   7.579   5.231   5.808
   83DPPC    C2 4102   7.693   5.027   5.813
   83DPPC    C3 4103   7.467   5.027   5.828
   83DPPC    N4 4104   7.575   5.094   5.756
   83DPPC    C5 4105   7.572   5.103   5.609
   83DPPC    C6 4106   7.536   4.983   5.522
   83DPPC    O7 4107   7.640   4.885   5.516
   83DPPC    P8 4108   7.606   4.778   5.400
   83DPPC    O9 4109   7.460   4.757   5.406
   83DPPC   O10 4110   7.709   4.678   5.436
   83DPPC   O11 4111   7.648   4.860   5.268
   83DPPC   C12 4112   7.776   4.818   5.221
   83DPPC   C13 4113   7.875   4.924   5.172
   83DPPC   O14 4114   7.850   4.987   5.046
   83DPPC   C15 4115   7.909   5.108   5.025
   83DPPC   O16 4116   7.987   5.159   5.105
   83DPPC   C17 4117   7.907   5.156   4.880
   83DPPC   C18 4118   7.771   5.212   4.836
   83DPPC   C19 4119   7.746   5.239   4.688
   83DPPC   C20 4120   7.849   5.332   4.622
   83DPPC   C21 4121   7.855   5.323   4.469
   83DPPC   C22 4122   7.729   5.380   4.403
   83DPPC   C23 4123   7.758   5.388   4.253
   83DPPC   C24 4124   7.643   5.449   4.173
   83DPPC   C25 4125   7.671   5.438   4.023
   83DPPC   C26 4126   7.553   5.480   3.934
   83DPPC   C27 4127   7.578   5.461   3.784
   83DPPC   C28 4128   7.450   5.499   3.708
   83DPPC   C29 4129   7.469   5.491   3.556
   83DPPC   C30 4130   7.454   5.352   3.495
   83DPPC   C31 4131   7.486   5.344   3.346
   83DPPC   C32 4132   8.006   4.845   5.173
   83DPPC   O33 4133   8.007   4.726   5.093
   83DPPC   C34 4134   8.132   4.679   5.066
   83DPPC   O35 4135   8.235   4.735   5.101
   83DPPC   C36 4136   8.139   4.550   4.984
   83DPPC   C37 4137   8.259   4.543   4.889
   83DPPC   C38 4138   8.234   4.450   4.770
   83DPPC   C39 4139   8.367   4.424   4.699
   83DPPC   C40 4140   8.431   4.552   4.647
   83DPPC   C41 4141   8.558   4.503   4.577
   83DPPC   C42 4142   8.659   4.618   4.566
   83DPPC   C43 4143   8.773   4.589   4.469
   83DPPC   C44 4144   8.861   4.708   4.430
   83DPPC   C45 4145   8.996   4.655   4.383
   83DPPC   C46 4146   8.990   4.671   4.231
   83DPPC   C47 4147   9.118   4.623   4.161
   83DPPC   C48 4148   9.125   4.651   4.011
   83DPPC   C49 4149   9.268   4.615   3.970
   83DPPC   C50 4150   9.301   4.642   3.823
   84DPPC    C1 4151   0.842   7.176   4.574
   84DPPC    C2 4152   0.657   7.237   4.448
   84DPPC    C3 4153   0.709   7.003   4.475
   84DPPC    N4 4154   0.704   7.134   4.542
   84DPPC    C5 4155   0.618   7.146   4.660
   84DPPC    C6 4156   0.484   7.073   4.667
   84DPPC    O7 4157   0.370   7.117   4.592
   84DPPC    P8 4158   0.243   7.033   4.645
   84DPPC    O9 4159   0.224   7.055   4.790
   84DPPC   O10 4160   0.280   6.898   4.597
   84DPPC   O11 4161   0.123   7.100   4.562
   84DPPC   C12 4162   0.089   7.004   4.462
   84DPPC   C13 4163  -0.031   7.057   4.383
   84DPPC   O14 4164  -0.077   6.965   4.283
   84DPPC   C15 4165  -0.132   6.844   4.312
   84DPPC   O16 4166  -0.094   6.780   4.410
   84DPPC   C17 4167  -0.213   6.785   4.196
   84DPPC   C18 4168  -0.161   6.840   4.063
   84DPPC   C19 4169  -0.268   6.817   3.956
   84DPPC   C20 4170  -0.390   6.887   4.017
   84DPPC   C21 4171  -0.515   6.844   3.940
   84DPPC   C22 4172  -0.633   6.857   4.035
   84DPPC   C23 4173  -0.752   6.782   3.974
   84DPPC   C24 4174  -0.884   6.827   4.038
   84DPPC   C25 4175  -1.008   6.751   3.992
   84DPPC   C26 4176  -1.137   6.793   4.062
   84DPPC   C27 4177  -1.258   6.706   4.028
   84DPPC   C28 4178  -1.376   6.775   4.097
   84DPPC   C29 4179  -1.512   6.706   4.082
   84DPPC   C30 4180  -1.602   6.781   4.180
   84DPPC   C31 4181  -1.753   6.760   4.166
   84DPPC   C32 4182  -0.004   7.193   4.320
   84DPPC   O33 4183   0.065   7.204   4.196
   84DPPC   C34 4184   0.087   7.335   4.165
   84DPPC   O35 4185   0.034   7.428   4.225
   84DPPC   C36 4186   0.134   7.355   4.020
   84DPPC   C37 4187   0.277   7.303   4.004
   84DPPC   C38 4188   0.322   7.313   3.858
   84DPPC   C39 4189   0.228   7.231   3.769
   84DPPC   C40 4190   0.228   7.092   3.832
   84DPPC   C41 4191   0.151   6.998   3.741
   84DPPC   C42 4192   0.176   6.851   3.777
   84DPPC   C43 4193   0.327   6.824   3.768
   84DPPC   C44 4194   0.360   6.684   3.819
   84DPPC   C45 4195   0.509   6.682   3.857
   84DPPC   C46 4196   0.542   6.800   3.948
   84DPPC   C47 4197   0.681   6.773   4.006
   84DPPC   C48 4198   0.770   6.756   3.882
   84DPPC   C49 4199   0.899   6.837   3.887
   84DPPC   C50 4200   0.981   6.824   3.758
   85DPPC    C1 4201   8.288   7.424   4.700
   85DPPC    C2 4202   8.217   7.482   4.911
   85DPPC    C3 4203   8.376   7.309   4.873
   85DPPC    N4 4204   8.339   7.446   4.836
   85DPPC    C5 4205   8.440   7.551   4.821
   85DPPC    C6 4206   8.531   7.606   4.932
   85DPPC    O7 4207   8.644   7.524   4.962
   85DPPC    P8 4208   8.784   7.604   4.966
   85DPPC    O9 4209   8.877   7.507   5.026
   85DPPC   O10 4210   8.751   7.737   5.022
   85DPPC   O11 4211   8.798   7.602   4.805
   85DPPC   C12 4212   8.826   7.467   4.768
   85DPPC   C13 4213   8.824   7.438   4.618
   85DPPC   O14 4214   8.795   7.301   4.588
   85DPPC   C15 4215   8.670   7.255   4.563
   85DPPC   O16 4216   8.571   7.315   4.604
   85DPPC   C17 4217   8.663   7.126   4.480
   85DPPC   C18 4218   8.530   7.094   4.412
   85DPPC   C19 4219   8.460   6.987   4.496
   85DPPC   C20 4220   8.323   6.959   4.433
   85DPPC   C21 4221   8.230   7.074   4.471
   85DPPC   C22 4222   8.093   7.058   4.405
   85DPPC   C23 4223   7.972   7.135   4.458
   85DPPC   C24 4224   7.868   7.119   4.347
   85DPPC   C25 4225   7.913   7.159   4.206
   85DPPC   C26 4226   7.801   7.151   4.103
   85DPPC   C27 4227   7.842   7.209   3.968
   85DPPC   C28 4228   7.964   7.145   3.903
   85DPPC   C29 4229   7.977   7.177   3.754
   85DPPC   C30 4230   8.102   7.108   3.698
   85DPPC   C31 4231   8.121   7.146   3.551
   85DPPC   C32 4232   8.955   7.494   4.562
   85DPPC   O33 4233   8.962   7.533   4.425
   85DPPC   C34 4234   9.076   7.596   4.384
   85DPPC   O35 4235   9.162   7.639   4.461
   85DPPC   C36 4236   9.081   7.623   4.234
   85DPPC   C37 4237   9.223   7.649   4.184
   85DPPC   C38 4238   9.231   7.726   4.052
   85DPPC   C39 4239   9.376   7.737   4.002
   85DPPC   C40 4240   9.379   7.800   3.863
   85DPPC   C41 4241   9.489   7.739   3.777
   85DPPC   C42 4242   9.478   7.786   3.632
   85DPPC   C43 4243   9.581   7.699   3.560
   85DPPC   C44 4244   9.594   7.701   3.407
   85DPPC   C45 4245   9.708   7.610   3.361
   85DPPC   C46 4246   9.683   7.462   3.391
   85DPPC   C47 4247   9.774   7.356   3.330
   85DPPC   C48 4248   9.700   7.224   3.352
   85DPPC   C49 4249   9.738   7.111   3.256
   85DPPC   C50 4250   9.886   7.081   3.278
   86DPPC    C1 4251   7.160   7.301   5.499
   86DPPC    C2 4252   7.367   7.267   5.360
   86DPPC    C3 4253   7.336   7.430   5.525
   86DPPC    N4 4254   7.307   7.290   5.492
   86DPPC    C5 4255   7.369   7.206   5.595
   86DPPC    C6 4256   7.360   7.054   5.575
   86DPPC    O7 4257   7.227   7.003   5.559
   86DPPC    P8 4258   7.238   6.845   5.527
   86DPPC    O9 4259   7.137   6.801   5.625
   86DPPC   O10 4260   7.379   6.801   5.526
   86DPPC   O11 4261   7.170   6.866   5.383
   86DPPC   C12 4262   7.256   6.861   5.269
   86DPPC   C13 4263   7.179   6.841   5.139
   86DPPC   O14 4264   7.270   6.846   5.028
   86DPPC   C15 4265   7.234   6.774   4.918
   86DPPC   O16 4266   7.145   6.690   4.929
   86DPPC   C17 4267   7.349   6.766   4.817
   86DPPC   C18 4268   7.310   6.716   4.678
   86DPPC   C19 4269   7.407   6.767   4.571
   86DPPC   C20 4270   7.341   6.738   4.436
   86DPPC   C21 4271   7.426   6.799   4.324
   86DPPC   C22 4272   7.403   6.950   4.316
   86DPPC   C23 4273   7.298   7.013   4.225
   86DPPC   C24 4274   7.302   7.165   4.246
   86DPPC   C25 4275   7.213   7.246   4.152
   86DPPC   C26 4276   7.268   7.239   4.010
   86DPPC   C27 4277   7.180   7.334   3.929
   86DPPC   C28 4278   7.236   7.367   3.790
   86DPPC   C29 4279   7.283   7.255   3.699
   86DPPC   C30 4280   7.355   7.303   3.572
   86DPPC   C31 4281   7.250   7.366   3.480
   86DPPC   C32 4282   7.063   6.940   5.129
   86DPPC   O33 4283   7.095   7.078   5.114
   86DPPC   C34 4284   6.990   7.163   5.134
   86DPPC   O35 4285   6.876   7.121   5.154
   86DPPC   C36 4286   7.033   7.309   5.150
   86DPPC   C37 4287   7.024   7.381   5.015
   86DPPC   C38 4288   6.884   7.422   4.968
   86DPPC   C39 4289   6.889   7.468   4.823
   86DPPC   C40 4290   6.977   7.593   4.825
   86DPPC   C41 4291   7.065   7.591   4.699
   86DPPC   C42 4292   7.142   7.721   4.676
   86DPPC   C43 4293   7.239   7.742   4.793
   86DPPC   C44 4294   7.323   7.868   4.770
   86DPPC   C45 4295   7.218   7.980   4.771
   86DPPC   C46 4296   7.261   8.113   4.707
   86DPPC   C47 4297   7.159   8.227   4.712
   86DPPC   C48 4298   7.239   8.340   4.647
   86DPPC   C49 4299   7.149   8.464   4.651
   86DPPC   C50 4300   7.207   8.561   4.548
   87DPPC    C1 4301   5.185   4.625   5.912
   87DPPC    C2 4302   5.029   4.488   6.021
   87DPPC    C3 4303   4.971   4.648   5.861
   87DPPC    N4 4304   5.067   4.541   5.889
   87DPPC    C5 4305   5.081   4.447   5.777
   87DPPC    C6 4306   5.197   4.348   5.775
   87DPPC    O7 4307   5.162   4.241   5.863
   87DPPC    P8 4308   5.280   4.134   5.887
   87DPPC    O9 4309   5.213   4.002   5.900
   87DPPC   O10 4310   5.357   4.201   5.994
   87DPPC   O11 4311   5.348   4.146   5.742
   87DPPC   C12 4312   5.311   4.034   5.661
   87DPPC   C13 4313   5.243   4.070   5.529
   87DPPC   O14 4314   5.195   3.955   5.458
   87DPPC   C15 4315   5.064   3.921   5.474
   87DPPC   O16 4316   4.992   3.961   5.565
   87DPPC   C17 4317   5.013   3.804   5.390
   87DPPC   C18 4318   4.891   3.829   5.302
   87DPPC   C19 4319   4.850   3.716   5.207
   87DPPC   C20 4320   4.958   3.696   5.100
   87DPPC   C21 4321   4.911   3.586   5.004
   87DPPC   C22 4322   5.027   3.556   4.909
   87DPPC   C23 4323   5.072   3.687   4.845
   87DPPC   C24 4324   5.196   3.665   4.757
   87DPPC   C25 4325   5.168   3.612   4.616
   87DPPC   C26 4326   5.079   3.709   4.538
   87DPPC   C27 4327   5.038   3.642   4.406
   87DPPC   C28 4328   4.920   3.710   4.335
   87DPPC   C29 4329   4.890   3.626   4.210
   87DPPC   C30 4330   4.758   3.681   4.156
   87DPPC   C31 4331   4.727   3.622   4.019
   87DPPC   C32 4332   5.333   4.167   5.453
   87DPPC   O33 4333   5.250   4.248   5.370
   87DPPC   C34 4334   5.320   4.315   5.274
   87DPPC   O35 4335   5.443   4.312   5.270
   87DPPC   C36 4336   5.237   4.361   5.154
   87DPPC   C37 4337   5.220   4.250   5.049
   87DPPC   C38 4338   5.135   4.137   5.107
   87DPPC   C39 4339   5.086   4.037   5.002
   87DPPC   C40 4340   4.981   4.108   4.917
   87DPPC   C41 4341   4.925   4.020   4.805
   87DPPC   C42 4342   4.802   4.075   4.732
   87DPPC   C43 4343   4.790   4.015   4.592
   87DPPC   C44 4344   4.660   4.073   4.537
   87DPPC   C45 4345   4.651   4.032   4.390
   87DPPC   C46 4346   4.549   4.125   4.324
   87DPPC   C47 4347   4.536   4.114   4.172
   87DPPC   C48 4348   4.504   3.968   4.141
   87DPPC   C49 4349   4.475   3.966   3.991
   87DPPC   C50 4350   4.359   4.050   3.938
   88DPPC    C1 4351   7.926   6.676   5.385
   88DPPC    C2 4352   7.793   6.492   5.456
   88DPPC    C3 4353   7.817   6.693   5.590
   88DPPC    N4 4354   7.802   6.639   5.455
   88DPPC    C5 4355   7.684   6.682   5.377
   88DPPC    C6 4356   7.644   6.829   5.370
   88DPPC    O7 4357   7.744   6.914   5.313
   88DPPC    P8 4358   7.700   7.069   5.313
   88DPPC    O9 4359   7.819   7.144   5.268
   88DPPC   O10 4360   7.624   7.101   5.436
   88DPPC   O11 4361   7.596   7.059   5.190
   88DPPC   C12 4362   7.661   7.014   5.071
   88DPPC   C13 4363   7.587   6.980   4.941
   88DPPC   O14 4364   7.676   6.953   4.831
   88DPPC   C15 4365   7.728   6.830   4.807
   88DPPC   O16 4366   7.720   6.753   4.902
   88DPPC   C17 4367   7.781   6.793   4.668
   88DPPC   C18 4368   7.770   6.643   4.638
   88DPPC   C19 4369   7.876   6.616   4.530
   88DPPC   C20 4370   7.873   6.470   4.485
   88DPPC   C21 4371   7.984   6.456   4.381
   88DPPC   C22 4372   7.937   6.386   4.253
   88DPPC   C23 4373   8.062   6.337   4.181
   88DPPC   C24 4374   8.027   6.279   4.043
   88DPPC   C25 4375   8.146   6.217   3.971
   88DPPC   C26 4376   8.117   6.207   3.821
   88DPPC   C27 4377   8.239   6.157   3.743
   88DPPC   C28 4378   8.195   6.088   3.614
   88DPPC   C29 4379   8.130   6.189   3.520
   88DPPC   C30 4380   8.119   6.150   3.373
   88DPPC   C31 4381   8.099   6.263   3.271
   88DPPC   C32 4382   7.500   7.103   4.917
   88DPPC   O33 4383   7.381   7.085   4.839
   88DPPC   C34 4384   7.300   7.195   4.843
   88DPPC   O35 4385   7.342   7.295   4.900
   88DPPC   C36 4386   7.158   7.175   4.791
   88DPPC   C37 4387   7.149   7.196   4.640
   88DPPC   C38 4388   7.014   7.156   4.580
   88DPPC   C39 4389   6.991   7.005   4.589
   88DPPC   C40 4390   6.844   6.975   4.555
   88DPPC   C41 4391   6.826   6.831   4.602
   88DPPC   C42 4392   6.678   6.791   4.606
   88DPPC   C43 4393   6.616   6.789   4.466
   88DPPC   C44 4394   6.480   6.720   4.455
   88DPPC   C45 4395   6.396   6.761   4.333
   88DPPC   C46 4396   6.306   6.644   4.294
   88DPPC   C47 4397   6.242   6.667   4.157
   88DPPC   C48 4398   6.156   6.543   4.128
   88DPPC   C49 4399   6.236   6.418   4.163
   88DPPC   C50 4400   6.174   6.296   4.093
   89DPPC    C1 4401   8.895   1.171   5.598
   89DPPC    C2 4402   8.949   1.393   5.613
   89DPPC    C3 4403   9.020   1.278   5.429
   89DPPC    N4 4404   8.903   1.293   5.516
   89DPPC    C5 4405   8.792   1.331   5.428
   89DPPC    C6 4406   8.652   1.377   5.470
   89DPPC    O7 4407   8.664   1.460   5.586
   89DPPC    P8 4408   8.532   1.552   5.595
   89DPPC    O9 4409   8.562   1.668   5.682
   89DPPC   O10 4410   8.424   1.453   5.612
   89DPPC   O11 4411   8.537   1.599   5.441
   89DPPC   C12 4412   8.432   1.684   5.394
   89DPPC   C13 4413   8.477   1.757   5.268
   89DPPC   O14 4414   8.371   1.845   5.227
   89DPPC   C15 4415   8.373   1.978   5.253
   89DPPC   O16 4416   8.435   2.017   5.352
   89DPPC   C17 4417   8.286   2.069   5.165
   89DPPC   C18 4418   8.267   2.024   5.020
   89DPPC   C19 4419   8.200   2.124   4.926
   89DPPC   C20 4420   8.171   2.062   4.789
   89DPPC   C21 4421   8.105   2.161   4.693
   89DPPC   C22 4422   7.973   2.209   4.754
   89DPPC   C23 4423   7.916   2.295   4.642
   89DPPC   C24 4424   7.785   2.357   4.691
   89DPPC   C25 4425   7.709   2.442   4.589
   89DPPC   C26 4426   7.664   2.354   4.472
   89DPPC   C27 4427   7.566   2.433   4.385
   89DPPC   C28 4428   7.618   2.564   4.325
   89DPPC   C29 4429   7.514   2.616   4.225
   89DPPC   C30 4430   7.572   2.747   4.172
   89DPPC   C31 4431   7.701   2.732   4.092
   89DPPC   C32 4432   8.522   1.658   5.160
   89DPPC   O33 4433   8.591   1.731   5.058
   89DPPC   C34 4434   8.620   1.672   4.939
   89DPPC   O35 4435   8.584   1.555   4.924
   89DPPC   C36 4436   8.698   1.746   4.829
   89DPPC   C37 4437   8.600   1.815   4.734
   89DPPC   C38 4438   8.665   1.940   4.675
   89DPPC   C39 4439   8.677   1.949   4.523
   89DPPC   C40 4440   8.542   1.968   4.453
   89DPPC   C41 4441   8.570   2.008   4.307
   89DPPC   C42 4442   8.447   1.984   4.220
   89DPPC   C43 4443   8.318   2.029   4.290
   89DPPC   C44 4444   8.200   1.972   4.211
   89DPPC   C45 4445   8.080   2.043   4.273
   89DPPC   C46 4446   7.954   2.002   4.195
   89DPPC   C47 4447   7.822   2.035   4.263
   89DPPC   C48 4448   7.713   1.969   4.178
   89DPPC   C49 4449   7.577   2.022   4.226
   89DPPC   C50 4450   7.473   1.985   4.120
   90DPPC    C1 4451   6.078   3.117   6.092
   90DPPC    C2 4452   5.918   3.283   5.999
   90DPPC    C3 4453   6.045   3.331   6.166
   90DPPC    N4 4454   6.056   3.253   6.042
   90DPPC    C5 4455   6.156   3.303   5.947
   90DPPC    C6 4456   6.186   3.453   5.939
   90DPPC    O7 4457   6.091   3.529   5.864
   90DPPC    P8 4458   6.093   3.684   5.906
   90DPPC    O9 4459   6.118   3.680   6.052
   90DPPC   O10 4460   5.993   3.770   5.839
   90DPPC   O11 4461   6.234   3.711   5.833
   90DPPC   C12 4462   6.212   3.718   5.692
   90DPPC   C13 4463   6.339   3.720   5.606
   90DPPC   O14 4464   6.323   3.762   5.470
   90DPPC   C15 4465   6.259   3.878   5.437
   90DPPC   O16 4466   6.247   3.970   5.517
   90DPPC   C17 4467   6.232   3.900   5.288
   90DPPC   C18 4468   6.108   3.822   5.244
   90DPPC   C19 4469   6.052   3.872   5.110
   90DPPC   C20 4470   6.146   3.892   4.991
   90DPPC   C21 4471   6.084   3.933   4.857
   90DPPC   C22 4472   6.191   3.988   4.762
   90DPPC   C23 4473   6.153   4.016   4.617
   90DPPC   C24 4474   6.271   4.060   4.530
   90DPPC   C25 4475   6.227   4.088   4.386
   90DPPC   C26 4476   6.344   4.064   4.290
   90DPPC   C27 4477   6.303   4.100   4.147
   90DPPC   C28 4478   6.425   4.081   4.058
   90DPPC   C29 4479   6.396   4.046   3.911
   90DPPC   C30 4480   6.356   3.900   3.890
   90DPPC   C31 4481   6.488   3.823   3.893
   90DPPC   C32 4482   6.418   3.590   5.618
   90DPPC   O33 4483   6.343   3.471   5.590
   90DPPC   C34 4484   6.408   3.354   5.611
   90DPPC   O35 4485   6.507   3.355   5.684
   90DPPC   C36 4486   6.331   3.222   5.600
   90DPPC   C37 4487   6.354   3.145   5.470
   90DPPC   C38 4488   6.242   3.041   5.461
   90DPPC   C39 4489   6.230   2.977   5.323
   90DPPC   C40 4490   6.119   2.872   5.322
   90DPPC   C41 4491   6.118   2.806   5.183
   90DPPC   C42 4492   6.026   2.689   5.152
   90DPPC   C43 4493   6.018   2.661   5.002
   90DPPC   C44 4494   5.973   2.776   4.911
   90DPPC   C45 4495   5.986   2.720   4.769
   90DPPC   C46 4496   5.961   2.820   4.656
   90DPPC   C47 4497   6.026   2.766   4.529
   90DPPC   C48 4498   5.932   2.785   4.410
   90DPPC   C49 4499   5.964   2.676   4.308
   90DPPC   C50 4500   6.105   2.697   4.253
   91DPPC    C1 4501   4.517   7.123   5.517
   91DPPC    C2 4502   4.461   7.260   5.689
   91DPPC    C3 4503   4.648   7.329   5.570
   91DPPC    N4 4504   4.516   7.265   5.553
   91DPPC    C5 4505   4.415   7.346   5.482
   91DPPC    C6 4506   4.448   7.348   5.333
   91DPPC    O7 4507   4.357   7.441   5.274
   91DPPC    P8 4508   4.311   7.389   5.129
   91DPPC    O9 4509   4.242   7.507   5.072
   91DPPC   O10 4510   4.239   7.263   5.161
   91DPPC   O11 4511   4.452   7.338   5.070
   91DPPC   C12 4512   4.456   7.406   4.944
   91DPPC   C13 4513   4.574   7.356   4.861
   91DPPC   O14 4514   4.617   7.433   4.747
   91DPPC   C15 4515   4.695   7.544   4.758
   91DPPC   O16 4516   4.740   7.591   4.862
   91DPPC   C17 4517   4.760   7.579   4.624
   91DPPC   C18 4518   4.727   7.498   4.498
   91DPPC   C19 4519   4.821   7.531   4.382
   91DPPC   C20 4520   4.763   7.478   4.251
   91DPPC   C21 4521   4.835   7.547   4.135
   91DPPC   C22 4522   4.827   7.465   4.006
   91DPPC   C23 4523   4.894   7.531   3.886
   91DPPC   C24 4524   4.916   7.440   3.765
   91DPPC   C25 4525   4.965   7.525   3.648
   91DPPC   C26 4526   4.979   7.431   3.528
   91DPPC   C27 4527   5.078   7.315   3.545
   91DPPC   C28 4528   5.121   7.267   3.406
   91DPPC   C29 4529   5.228   7.157   3.408
   91DPPC   C30 4530   5.308   7.143   3.279
   91DPPC   C31 4531   5.220   7.094   3.164
   91DPPC   C32 4532   4.557   7.206   4.836
   91DPPC   O33 4533   4.419   7.169   4.826
   91DPPC   C34 4534   4.390   7.042   4.786
   91DPPC   O35 4535   4.474   6.955   4.812
   91DPPC   C36 4536   4.257   7.015   4.717
   91DPPC   C37 4537   4.276   6.913   4.604
   91DPPC   C38 4538   4.133   6.881   4.558
   91DPPC   C39 4539   4.147   6.785   4.440
   91DPPC   C40 4540   4.210   6.878   4.336
   91DPPC   C41 4541   4.252   6.798   4.213
   91DPPC   C42 4542   4.138   6.712   4.158
   91DPPC   C43 4543   4.189   6.622   4.045
   91DPPC   C44 4544   4.313   6.546   4.092
   91DPPC   C45 4545   4.334   6.428   3.996
   91DPPC   C46 4546   4.354   6.470   3.850
   91DPPC   C47 4547   4.375   6.351   3.757
   91DPPC   C48 4548   4.339   6.403   3.618
   91DPPC   C49 4549   4.343   6.280   3.526
   91DPPC   C50 4550   4.312   6.313   3.380
   92DPPC    C1 4551   1.860   5.977   5.381
   92DPPC    C2 4552   1.834   6.206   5.467
   92DPPC    C3 4553   1.802   6.032   5.605
   92DPPC    N4 4554   1.886   6.070   5.491
   92DPPC    C5 4555   2.027   6.069   5.534
   92DPPC    C6 4556   2.126   6.114   5.427
   92DPPC    O7 4557   2.186   6.005   5.357
   92DPPC    P8 4558   2.307   6.050   5.260
   92DPPC    O9 4559   2.320   5.921   5.190
   92DPPC   O10 4560   2.385   6.093   5.378
   92DPPC   O11 4561   2.216   6.153   5.175
   92DPPC   C12 4562   2.177   6.079   5.059
   92DPPC   C13 4563   2.093   6.153   4.955
   92DPPC   O14 4564   2.056   6.068   4.845
   92DPPC   C15 4565   1.924   6.037   4.838
   92DPPC   O16 4566   1.846   6.111   4.898
   92DPPC   C17 4567   1.880   5.923   4.746
   92DPPC   C18 4568   1.869   5.974   4.602
   92DPPC   C19 4569   1.890   5.843   4.527
   92DPPC   C20 4570   1.861   5.882   4.382
   92DPPC   C21 4571   1.840   5.757   4.296
   92DPPC   C22 4572   1.798   5.797   4.154
   92DPPC   C23 4573   1.794   5.674   4.063
   92DPPC   C24 4574   1.695   5.573   4.122
   92DPPC   C25 4575   1.682   5.459   4.021
   92DPPC   C26 4576   1.561   5.375   4.065
   92DPPC   C27 4577   1.536   5.289   3.942
   92DPPC   C28 4578   1.553   5.373   3.815
   92DPPC   C29 4579   1.498   5.284   3.704
   92DPPC   C30 4580   1.519   5.319   3.557
   92DPPC   C31 4581   1.475   5.466   3.548
   92DPPC   C32 4582   2.177   6.277   4.923
   92DPPC   O33 4583   2.313   6.256   4.883
   92DPPC   C34 4584   2.397   6.362   4.870
   92DPPC   O35 4585   2.403   6.465   4.936
   92DPPC   C36 4586   2.528   6.331   4.797
   92DPPC   C37 4587   2.584   6.451   4.721
   92DPPC   C38 4588   2.728   6.425   4.677
   92DPPC   C39 4589   2.742   6.313   4.574
   92DPPC   C40 4590   2.658   6.349   4.451
   92DPPC   C41 4591   2.696   6.255   4.337
   92DPPC   C42 4592   2.677   6.106   4.367
   92DPPC   C43 4593   2.678   6.028   4.235
   92DPPC   C44 4594   2.629   5.887   4.270
   92DPPC   C45 4595   2.729   5.814   4.359
   92DPPC   C46 4596   2.690   5.670   4.396
   92DPPC   C47 4597   2.782   5.604   4.499
   92DPPC   C48 4598   2.741   5.467   4.553
   92DPPC   C49 4599   2.841   5.410   4.654
   92DPPC   C50 4600   2.785   5.277   4.704
   93DPPC    C1 4601   1.340   2.764   5.011
   93DPPC    C2 4602   1.253   2.947   4.892
   93DPPC    C3 4603   1.125   2.741   4.930
   93DPPC    N4 4604   1.216   2.841   4.987
   93DPPC    C5 4605   1.165   2.874   5.121
   93DPPC    C6 4606   1.232   2.991   5.195
   93DPPC    O7 4607   1.163   3.111   5.160
   93DPPC    P8 4608   1.240   3.236   5.226
   93DPPC    O9 4609   1.325   3.183   5.335
   93DPPC   O10 4610   1.129   3.330   5.256
   93DPPC   O11 4611   1.318   3.277   5.091
   93DPPC   C12 4612   1.220   3.320   4.997
   93DPPC   C13 4613   1.256   3.438   4.906
   93DPPC   O14 4614   1.165   3.488   4.807
   93DPPC   C15 4615   1.058   3.565   4.840
   93DPPC   O16 4616   1.023   3.588   4.956
   93DPPC   C17 4617   0.975   3.607   4.719
   93DPPC   C18 4618   0.838   3.538   4.723
   93DPPC   C19 4619   0.745   3.580   4.609
   93DPPC   C20 4620   0.816   3.553   4.476
   93DPPC   C21 4621   0.755   3.587   4.340
   93DPPC   C22 4622   0.729   3.737   4.320
   93DPPC   C23 4623   0.669   3.772   4.184
   93DPPC   C24 4624   0.774   3.757   4.073
   93DPPC   C25 4625   0.720   3.807   3.939
   93DPPC   C26 4626   0.606   3.712   3.901
   93DPPC   C27 4627   0.539   3.733   3.765
   93DPPC   C28 4628   0.630   3.710   3.644
   93DPPC   C29 4629   0.546   3.741   3.519
   93DPPC   C30 4630   0.627   3.679   3.405
   93DPPC   C31 4631   0.559   3.719   3.274
   93DPPC   C32 4632   1.383   3.386   4.838
   93DPPC   O33 4633   1.358   3.283   4.742
   93DPPC   C34 4634   1.453   3.259   4.648
   93DPPC   O35 4635   1.572   3.284   4.668
   93DPPC   C36 4636   1.421   3.160   4.536
   93DPPC   C37 4637   1.279   3.174   4.481
   93DPPC   C38 4638   1.249   3.069   4.374
   93DPPC   C39 4639   1.336   3.082   4.248
   93DPPC   C40 4640   1.299   2.974   4.147
   93DPPC   C41 4641   1.382   2.989   4.019
   93DPPC   C42 4642   1.316   2.901   3.913
   93DPPC   C43 4643   1.387   2.899   3.778
   93DPPC   C44 4644   1.308   2.986   3.679
   93DPPC   C45 4645   1.393   3.014   3.555
   93DPPC   C46 4646   1.305   3.110   3.474
   93DPPC   C47 4647   1.371   3.198   3.369
   93DPPC   C48 4648   1.389   3.129   3.234
   93DPPC   C49 4649   1.420   3.213   3.110
   93DPPC   C50 4650   1.442   3.140   2.977
   94DPPC    C1 4651   3.477   6.515   5.391
   94DPPC    C2 4652   3.571   6.618   5.595
   94DPPC    C3 4653   3.340   6.605   5.569
   94DPPC    N4 4654   3.465   6.535   5.536
   94DPPC    C5 4655   3.451   6.402   5.597
   94DPPC    C6 4656   3.574   6.313   5.619
   94DPPC    O7 4657   3.645   6.280   5.499
   94DPPC    P8 4658   3.764   6.182   5.544
   94DPPC    O9 4659   3.684   6.081   5.616
   94DPPC   O10 4660   3.849   6.281   5.616
   94DPPC   O11 4661   3.800   6.154   5.390
   94DPPC   C12 4662   3.866   6.270   5.339
   94DPPC   C13 4663   3.884   6.263   5.187
   94DPPC   O14 4664   3.769   6.318   5.121
   94DPPC   C15 4665   3.768   6.452   5.097
   94DPPC   O16 4666   3.856   6.525   5.142
   94DPPC   C17 4667   3.640   6.507   5.034
   94DPPC   C18 4668   3.680   6.600   4.919
   94DPPC   C19 4669   3.545   6.633   4.855
   94DPPC   C20 4670   3.566   6.734   4.742
   94DPPC   C21 4671   3.438   6.760   4.663
   94DPPC   C22 4672   3.478   6.867   4.561
   94DPPC   C23 4673   3.595   6.824   4.473
   94DPPC   C24 4674   3.557   6.704   4.386
   94DPPC   C25 4675   3.643   6.689   4.260
   94DPPC   C26 4676   3.647   6.546   4.206
   94DPPC   C27 4677   3.696   6.556   4.062
   94DPPC   C28 4678   3.756   6.420   4.023
   94DPPC   C29 4679   3.653   6.309   4.049
   94DPPC   C30 4680   3.582   6.277   3.918
   94DPPC   C31 4681   3.493   6.154   3.938
   94DPPC   C32 4682   3.915   6.119   5.148
   94DPPC   O33 4683   3.969   6.087   5.019
   94DPPC   C34 4684   4.023   5.963   5.026
   94DPPC   O35 4685   4.013   5.904   5.134
   94DPPC   C36 4686   4.105   5.918   4.905
   94DPPC   C37 4687   4.024   5.812   4.830
   94DPPC   C38 4688   4.065   5.829   4.684
   94DPPC   C39 4689   4.195   5.755   4.652
   94DPPC   C40 4690   4.233   5.819   4.518
   94DPPC   C41 4691   4.125   5.779   4.417
   94DPPC   C42 4692   4.183   5.816   4.280
   94DPPC   C43 4693   4.309   5.739   4.240
   94DPPC   C44 4694   4.315   5.753   4.088
   94DPPC   C45 4695   4.437   5.678   4.033
   94DPPC   C46 4696   4.451   5.684   3.881
   94DPPC   C47 4697   4.548   5.576   3.833
   94DPPC   C48 4698   4.596   5.600   3.689
   94DPPC   C49 4699   4.662   5.472   3.636
   94DPPC   C50 4700   4.696   5.494   3.488
   95DPPC    C1 4701   1.114   1.849   5.550
   95DPPC    C2 4702   0.955   1.767   5.401
   95DPPC    C3 4703   0.894   1.873   5.607
   95DPPC    N4 4704   0.983   1.880   5.491
   95DPPC    C5 4705   0.981   2.005   5.413
   95DPPC    C6 4706   0.989   2.136   5.492
   95DPPC    O7 4707   1.124   2.180   5.512
   95DPPC    P8 4708   1.114   2.325   5.581
   95DPPC    O9 4709   1.257   2.354   5.600
   95DPPC   O10 4710   1.028   2.309   5.700
   95DPPC   O11 4711   1.055   2.402   5.453
   95DPPC   C12 4712   1.157   2.432   5.357
   95DPPC   C13 4713   1.093   2.476   5.226
   95DPPC   O14 4714   1.177   2.488   5.110
   95DPPC   C15 4715   1.204   2.369   5.051
   95DPPC   O16 4716   1.153   2.268   5.099
   95DPPC   C17 4717   1.322   2.358   4.954
   95DPPC   C18 4718   1.323   2.231   4.868
   95DPPC   C19 4719   1.203   2.235   4.773
   95DPPC   C20 4720   1.187   2.096   4.710
   95DPPC   C21 4721   1.071   2.096   4.611
   95DPPC   C22 4722   1.055   1.955   4.553
   95DPPC   C23 4723   0.938   1.958   4.455
   95DPPC   C24 4724   0.979   2.042   4.334
   95DPPC   C25 4725   0.867   2.040   4.229
   95DPPC   C26 4726   0.919   1.995   4.093
   95DPPC   C27 4727   0.802   1.984   3.995
   95DPPC   C28 4728   0.863   1.954   3.858
   95DPPC   C29 4729   0.762   1.917   3.749
   95DPPC   C30 4730   0.850   1.866   3.634
   95DPPC   C31 4731   0.747   1.834   3.525
   95DPPC   C32 4732   1.013   2.592   5.284
   95DPPC   O33 4733   0.939   2.665   5.186
   95DPPC   C34 4734   0.816   2.702   5.231
   95DPPC   O35 4735   0.770   2.629   5.319
   95DPPC   C36 4736   0.740   2.818   5.166
   95DPPC   C37 4737   0.770   2.834   5.017
   95DPPC   C38 4738   0.689   2.952   4.963
   95DPPC   C39 4739   0.746   2.975   4.823
   95DPPC   C40 4740   0.829   3.103   4.813
   95DPPC   C41 4741   0.896   3.110   4.676
   95DPPC   C42 4742   0.803   3.162   4.566
   95DPPC   C43 4743   0.882   3.166   4.435
   95DPPC   C44 4744   0.785   3.200   4.321
   95DPPC   C45 4745   0.869   3.231   4.197
   95DPPC   C46 4746   0.788   3.266   4.072
   95DPPC   C47 4747   0.873   3.304   3.951
   95DPPC   C48 4748   0.794   3.327   3.822
   95DPPC   C49 4749   0.717   3.200   3.783
   95DPPC   C50 4750   0.799   3.076   3.746
   96DPPC    C1 4751   2.003   8.032   4.677
   96DPPC    C2 4752   1.980   7.940   4.900
   96DPPC    C3 4753   2.149   7.858   4.749
   96DPPC    N4 4754   2.074   7.977   4.793
   96DPPC    C5 4755   2.166   8.084   4.833
   96DPPC    C6 4756   2.283   8.053   4.927
   96DPPC    O7 4757   2.337   8.174   4.980
   96DPPC    P8 4758   2.491   8.172   5.025
   96DPPC    O9 4759   2.513   8.035   5.075
   96DPPC   O10 4760   2.507   8.293   5.109
   96DPPC   O11 4761   2.547   8.187   4.875
   96DPPC   C12 4762   2.552   8.327   4.844
   96DPPC   C13 4763   2.629   8.351   4.714
   96DPPC   O14 4764   2.572   8.458   4.637
   96DPPC   C15 4765   2.616   8.585   4.659
   96DPPC   O16 4766   2.659   8.618   4.770
   96DPPC   C17 4767   2.557   8.691   4.566
   96DPPC   C18 4768   2.648   8.700   4.443
   96DPPC   C19 4769   2.567   8.774   4.336
   96DPPC   C20 4770   2.439   8.699   4.302
   96DPPC   C21 4771   2.361   8.768   4.190
   96DPPC   C22 4772   2.245   8.683   4.137
   96DPPC   C23 4773   2.215   8.707   3.988
   96DPPC   C24 4774   2.161   8.844   3.948
   96DPPC   C25 4775   2.131   8.853   3.798
   96DPPC   C26 4776   2.098   8.996   3.753
   96DPPC   C27 4777   2.137   9.007   3.606
   96DPPC   C28 4778   2.091   9.147   3.563
   96DPPC   C29 4779   2.130   9.183   3.420
   96DPPC   C30 4780   2.282   9.165   3.423
   96DPPC   C31 4781   2.333   9.157   3.279
   96DPPC   C32 4782   2.633   8.225   4.628
   96DPPC   O33 4783   2.712   8.227   4.509
   96DPPC   C34 4784   2.671   8.135   4.418
   96DPPC   O35 4785   2.593   8.044   4.443
   96DPPC   C36 4786   2.741   8.140   4.282
   96DPPC   C37 4787   2.889   8.110   4.307
   96DPPC   C38 4788   2.976   8.126   4.182
   96DPPC   C39 4789   3.122   8.093   4.215
   96DPPC   C40 4790   3.158   8.172   4.340
   96DPPC   C41 4791   3.287   8.122   4.405
   96DPPC   C42 4792   3.402   8.132   4.304
   96DPPC   C43 4793   3.530   8.114   4.386
   96DPPC   C44 4794   3.656   8.150   4.307
   96DPPC   C45 4795   3.649   8.295   4.261
   96DPPC   C46 4796   3.761   8.337   4.165
   96DPPC   C47 4797   3.748   8.485   4.127
   96DPPC   C48 4798   3.866   8.535   4.043
   96DPPC   C49 4799   3.989   8.481   4.116
   96DPPC   C50 4800   4.117   8.524   4.043
   97DPPC    C1 4801   9.528   4.414   5.753
   97DPPC    C2 4802   9.487   4.264   5.560
   97DPPC    C3 4803   9.676   4.379   5.577
   97DPPC    N4 4804   9.580   4.310   5.664
   97DPPC    C5 4805   9.614   4.200   5.756
   97DPPC    C6 4806   9.711   4.088   5.718
   97DPPC    O7 4807   9.851   4.111   5.705
   97DPPC    P8 4808   9.914   3.963   5.719
   97DPPC    O9 4809   9.811   3.868   5.672
   97DPPC   O10 4810   9.936   3.957   5.865
   97DPPC   O11 4811  10.046   3.956   5.626
   97DPPC   C12 4812   9.993   3.985   5.497
   97DPPC   C13 4813  10.070   3.912   5.387
   97DPPC   O14 4814  10.082   3.996   5.272
   97DPPC   C15 4815  10.156   3.943   5.171
   97DPPC   O16 4816  10.219   3.839   5.188
   97DPPC   C17 4817  10.199   4.037   5.058
   97DPPC   C18 4818  10.208   3.951   4.932
   97DPPC   C19 4819  10.245   4.045   4.817
   97DPPC   C20 4820  10.247   3.976   4.681
   97DPPC   C21 4821  10.235   4.071   4.561
   97DPPC   C22 4822  10.092   4.122   4.545
   97DPPC   C23 4823  10.088   4.233   4.439
   97DPPC   C24 4824   9.942   4.255   4.400
   97DPPC   C25 4825   9.913   4.344   4.279
   97DPPC   C26 4826   9.967   4.288   4.148
   97DPPC   C27 4827   9.921   4.144   4.124
   97DPPC   C28 4828   9.915   4.106   3.976
   97DPPC   C29 4829   9.816   4.201   3.909
   97DPPC   C30 4830   9.801   4.159   3.762
   97DPPC   C31 4831   9.934   4.157   3.687
   97DPPC   C32 4832  10.012   3.772   5.360
   97DPPC   O33 4833   9.914   3.780   5.256
   97DPPC   C34 4834   9.850   3.667   5.216
   97DPPC   O35 4835   9.866   3.561   5.277
   97DPPC   C36 4836   9.780   3.684   5.081
   97DPPC   C37 4837   9.879   3.698   4.966
   97DPPC   C38 4838   9.808   3.704   4.831
   97DPPC   C39 4839   9.881   3.763   4.710
   97DPPC   C40 4840   9.791   3.778   4.588
   97DPPC   C41 4841   9.873   3.793   4.459
   97DPPC   C42 4842   9.793   3.748   4.336
   97DPPC   C43 4843   9.653   3.807   4.323
   97DPPC   C44 4844   9.578   3.771   4.195
   97DPPC   C45 4845   9.655   3.799   4.066
   97DPPC   C46 4846   9.566   3.761   3.947
   97DPPC   C47 4847   9.643   3.786   3.817
   97DPPC   C48 4848   9.559   3.789   3.689
   97DPPC   C49 4849   9.643   3.794   3.561
   97DPPC   C50 4850   9.570   3.833   3.432
   98DPPC    C1 4851   7.929   4.365   5.684
   98DPPC    C2 4852   7.755   4.216   5.735
   98DPPC    C3 4853   7.777   4.451   5.829
   98DPPC    N4 4854   7.785   4.358   5.716
   98DPPC    C5 4855   7.719   4.418   5.599
   98DPPC    C6 4856   7.566   4.426   5.595
   98DPPC    O7 4857   7.496   4.301   5.596
   98DPPC    P8 4858   7.350   4.354   5.641
   98DPPC    O9 4859   7.382   4.432   5.762
   98DPPC   O10 4860   7.259   4.237   5.640
   98DPPC   O11 4861   7.311   4.441   5.511
   98DPPC   C12 4862   7.284   4.342   5.411
   98DPPC   C13 4863   7.254   4.410   5.277
   98DPPC   O14 4864   7.211   4.316   5.178
   98DPPC   C15 4865   7.081   4.317   5.137
   98DPPC   O16 4866   7.014   4.398   5.202
   98DPPC   C17 4867   7.040   4.243   5.010
   98DPPC   C18 4868   7.159   4.241   4.914
   98DPPC   C19 4869   7.184   4.369   4.834
   98DPPC   C20 4870   7.192   4.350   4.682
   98DPPC   C21 4871   7.299   4.249   4.640
   98DPPC   C22 4872   7.329   4.256   4.490
   98DPPC   C23 4873   7.387   4.390   4.445
   98DPPC   C24 4874   7.423   4.415   4.298
   98DPPC   C25 4875   7.290   4.434   4.225
   98DPPC   C26 4876   7.305   4.413   4.075
   98DPPC   C27 4877   7.406   4.510   4.013
   98DPPC   C28 4878   7.379   4.522   3.863
   98DPPC   C29 4879   7.239   4.582   3.847
   98DPPC   C30 4880   7.197   4.575   3.700
   98DPPC   C31 4881   7.298   4.631   3.600
   98DPPC   C32 4882   7.385   4.480   5.238
   98DPPC   O33 4883   7.383   4.569   5.127
   98DPPC   C34 4884   7.501   4.573   5.058
   98DPPC   O35 4885   7.602   4.517   5.101
   98DPPC   C36 4886   7.495   4.618   4.912
   98DPPC   C37 4887   7.601   4.719   4.867
   98DPPC   C38 4888   7.560   4.775   4.731
   98DPPC   C39 4889   7.657   4.754   4.615
   98DPPC   C40 4890   7.604   4.831   4.494
   98DPPC   C41 4891   7.666   4.778   4.364
   98DPPC   C42 4892   7.627   4.861   4.242
   98DPPC   C43 4893   7.697   4.807   4.117
   98DPPC   C44 4894   7.669   4.881   3.986
   98DPPC   C45 4895   7.705   4.795   3.864
   98DPPC   C46 4896   7.855   4.766   3.863
   98DPPC   C47 4897   7.887   4.693   3.732
   98DPPC   C48 4898   8.035   4.721   3.703
   98DPPC   C49 4899   8.093   4.596   3.637
   98DPPC   C50 4900   8.245   4.608   3.620
   99DPPC    C1 4901   8.338   5.446   1.226
   99DPPC    C2 4902   8.474   5.558   1.397
   99DPPC    C3 4903   8.487   5.595   1.159
   99DPPC    N4 4904   8.396   5.572   1.273
   99DPPC    C5 4905   8.301   5.684   1.279
   99DPPC    C6 4906   8.188   5.687   1.383
   99DPPC    O7 4907   8.054   5.675   1.334
   99DPPC    P8 4908   7.963   5.784   1.409
   99DPPC    O9 4909   7.828   5.799   1.350
   99DPPC   O10 4910   8.038   5.911   1.416
   99DPPC   O11 4911   7.957   5.741   1.564
   99DPPC   C12 4912   7.834   5.788   1.621
   99DPPC   C13 4913   7.833   5.792   1.774
   99DPPC   O14 4914   7.851   5.925   1.824
   99DPPC   C15 4915   7.748   6.014   1.809
   99DPPC   O16 4916   7.654   6.012   1.731
   99DPPC   C17 4917   7.750   6.137   1.901
   99DPPC   C18 4918   7.608   6.172   1.944
   99DPPC   C19 4919   7.614   6.307   2.015
   99DPPC   C20 4920   7.693   6.284   2.144
   99DPPC   C21 4921   7.671   6.412   2.225
   99DPPC   C22 4922   7.522   6.414   2.259
   99DPPC   C23 4923   7.488   6.536   2.345
   99DPPC   C24 4924   7.340   6.575   2.338
   99DPPC   C25 4925   7.320   6.700   2.424
   99DPPC   C26 4926   7.396   6.685   2.556
   99DPPC   C27 4927   7.323   6.630   2.679
   99DPPC   C28 4928   7.413   6.558   2.780
   99DPPC   C29 4929   7.325   6.536   2.903
   99DPPC   C30 4930   7.380   6.416   2.980
   99DPPC   C31 4931   7.289   6.396   3.102
   99DPPC   C32 4932   7.937   5.691   1.822
   99DPPC   O33 4933   7.885   5.568   1.873
   99DPPC   C34 4934   7.983   5.494   1.930
   99DPPC   O35 4935   8.096   5.539   1.944
   99DPPC   C36 4936   7.935   5.378   2.019
   99DPPC   C37 4937   7.995   5.389   2.159
   99DPPC   C38 4938   7.952   5.274   2.251
   99DPPC   C39 4939   8.031   5.300   2.380
   99DPPC   C40 4940   7.995   5.191   2.481
   99DPPC   C41 4941   8.082   5.193   2.607
   99DPPC   C42 4942   8.002   5.135   2.724
   99DPPC   C43 4943   7.879   5.219   2.758
   99DPPC   C44 4944   7.817   5.190   2.895
   99DPPC   C45 4945   7.756   5.051   2.916
   99DPPC   C46 4946   7.716   5.029   3.062
   99DPPC   C47 4947   7.630   4.903   3.072
   99DPPC   C48 4948   7.597   4.847   3.210
   99DPPC   C49 4949   7.486   4.741   3.204
   99DPPC   C50 4950   7.354   4.816   3.189
  100DPPC    C1 4951   4.384   4.550   2.250
  100DPPC    C2 4952   4.252   4.574   2.055
  100DPPC    C3 4953   4.171   4.463   2.251
  100DPPC    N4 4954   4.248   4.578   2.201
  100DPPC    C5 4955   4.194   4.702   2.260
  100DPPC    C6 4956   4.052   4.741   2.218
  100DPPC    O7 4957   4.030   4.881   2.236
  100DPPC    P8 4958   3.931   4.937   2.122
  100DPPC    O9 4959   3.987   4.928   1.985
  100DPPC   O10 4960   3.885   5.067   2.177
  100DPPC   O11 4961   3.801   4.843   2.137
  100DPPC   C12 4962   3.709   4.884   2.239
  100DPPC   C13 4963   3.598   4.786   2.277
  100DPPC   O14 4964   3.484   4.849   2.338
  100DPPC   C15 4965   3.413   4.948   2.279
  100DPPC   O16 4966   3.421   4.964   2.157
  100DPPC   C17 4967   3.296   4.985   2.370
  100DPPC   C18 4968   3.168   4.906   2.341
  100DPPC   C19 4969   3.135   4.799   2.445
  100DPPC   C20 4970   3.121   4.862   2.584
  100DPPC   C21 4971   3.070   4.766   2.693
  100DPPC   C22 4972   3.048   4.843   2.823
  100DPPC   C23 4973   2.984   4.739   2.916
  100DPPC   C24 4974   2.979   4.798   3.057
  100DPPC   C25 4975   2.871   4.906   3.056
  100DPPC   C26 4976   2.854   4.979   3.190
  100DPPC   C27 4977   2.809   5.120   3.150
  100DPPC   C28 4978   2.795   5.210   3.273
  100DPPC   C29 4979   2.787   5.354   3.222
  100DPPC   C30 4980   2.777   5.446   3.344
  100DPPC   C31 4981   2.876   5.407   3.454
  100DPPC   C32 4982   3.665   4.660   2.333
  100DPPC   O33 4983   3.758   4.688   2.438
  100DPPC   C34 4984   3.812   4.573   2.487
  100DPPC   O35 4985   3.787   4.464   2.435
  100DPPC   C36 4986   3.931   4.593   2.581
  100DPPC   C37 4987   3.896   4.568   2.728
  100DPPC   C38 4988   4.019   4.587   2.818
  100DPPC   C39 4989   3.985   4.607   2.966
  100DPPC   C40 4990   3.931   4.748   2.991
  100DPPC   C41 4991   3.914   4.756   3.143
  100DPPC   C42 4992   3.874   4.889   3.206
  100DPPC   C43 4993   3.764   4.970   3.136
  100DPPC   C44 4994   3.729   5.098   3.212
  100DPPC   C45 4995   3.673   5.210   3.125
  100DPPC   C46 4996   3.663   5.339   3.206
  100DPPC   C47 4997   3.594   5.446   3.121
  100DPPC   C48 4998   3.578   5.572   3.206
  100DPPC   C49 4999   3.718   5.606   3.260
  100DPPC   C50 5000   3.696   5.747   3.314
  101DPPC    C1 5001   5.680   0.467   1.922
  101DPPC    C2 5002   5.657   0.260   2.014
  101DPPC    C3 5003   5.666   0.452   2.153
  101DPPC    N4 5004   5.607   0.397   2.030
  101DPPC    C5 5005   5.461   0.415   2.020
  101DPPC    C6 5006   5.375   0.336   1.921
  101DPPC    O7 5007   5.238   0.375   1.929
  101DPPC    P8 5008   5.138   0.258   1.882
  101DPPC    O9 5009   5.214   0.162   1.798
  101DPPC   O10 5010   5.020   0.322   1.820
  101DPPC   O11 5011   5.113   0.202   2.030
  101DPPC   C12 5012   5.038   0.297   2.106
  101DPPC   C13 5013   5.007   0.257   2.250
  101DPPC   O14 5014   4.953   0.379   2.303
  101DPPC   C15 5015   4.826   0.381   2.352
  101DPPC   O16 5016   4.744   0.304   2.302
  101DPPC   C17 5017   4.789   0.479   2.463
  101DPPC   C18 5018   4.866   0.429   2.586
  101DPPC   C19 5019   4.846   0.541   2.688
  101DPPC   C20 5020   4.888   0.515   2.833
  101DPPC   C21 5021   4.867   0.631   2.931
  101DPPC   C22 5022   4.721   0.663   2.963
  101DPPC   C23 5023   4.662   0.526   2.996
  101DPPC   C24 5024   4.512   0.535   3.027
  101DPPC   C25 5025   4.449   0.410   3.087
  101DPPC   C26 5026   4.306   0.441   3.134
  101DPPC   C27 5027   4.286   0.343   3.250
  101DPPC   C28 5028   4.327   0.204   3.200
  101DPPC   C29 5029   4.365   0.119   3.322
  101DPPC   C30 5030   4.428  -0.012   3.274
  101DPPC   C31 5031   4.566  -0.002   3.210
  101DPPC   C32 5032   5.130   0.196   2.317
  101DPPC   O33 5033   5.255   0.265   2.328
  101DPPC   C34 5034   5.355   0.189   2.381
  101DPPC   O35 5035   5.357   0.069   2.353
  101DPPC   C36 5036   5.482   0.261   2.426
  101DPPC   C37 5037   5.466   0.286   2.576
  101DPPC   C38 5038   5.587   0.342   2.652
  101DPPC   C39 5039   5.562   0.350   2.803
  101DPPC   C40 5040   5.670   0.448   2.851
  101DPPC   C41 5041   5.652   0.475   3.000
  101DPPC   C42 5042   5.762   0.554   3.071
  101DPPC   C43 5043   5.746   0.539   3.223
  101DPPC   C44 5044   5.858   0.601   3.306
  101DPPC   C45 5045   5.840   0.586   3.457
  101DPPC   C46 5046   5.959   0.645   3.534
  101DPPC   C47 5047   5.925   0.632   3.682
  101DPPC   C48 5048   6.030   0.699   3.770
  101DPPC   C49 5049   6.002   0.692   3.921
  101DPPC   C50 5050   6.122   0.703   4.015
  102DPPC    C1 5051   2.395   1.299   1.855
  102DPPC    C2 5052   2.501   1.202   2.038
  102DPPC    C3 5053   2.285   1.151   2.015
  102DPPC    N4 5054   2.403   1.174   1.932
  102DPPC    C5 5055   2.451   1.062   1.851
  102DPPC    C6 5056   2.414   1.055   1.702
  102DPPC    O7 5057   2.272   1.059   1.683
  102DPPC    P8 5058   2.229   0.950   1.573
  102DPPC    O9 5059   2.355   0.906   1.510
  102DPPC   O10 5060   2.098   0.982   1.512
  102DPPC   O11 5061   2.199   0.830   1.676
  102DPPC   C12 5062   2.083   0.873   1.749
  102DPPC   C13 5063   2.012   0.775   1.842
  102DPPC   O14 5064   1.887   0.823   1.896
  102DPPC   C15 5065   1.802   0.733   1.953
  102DPPC   O16 5066   1.818   0.613   1.931
  102DPPC   C17 5067   1.687   0.789   2.036
  102DPPC   C18 5068   1.727   0.758   2.180
  102DPPC   C19 5069   1.641   0.813   2.294
  102DPPC   C20 5070   1.696   0.770   2.430
  102DPPC   C21 5071   1.600   0.822   2.538
  102DPPC   C22 5072   1.666   0.818   2.676
  102DPPC   C23 5073   1.583   0.848   2.801
  102DPPC   C24 5074   1.543   0.995   2.801
  102DPPC   C25 5075   1.427   1.034   2.892
  102DPPC   C26 5076   1.430   1.185   2.914
  102DPPC   C27 5077   1.543   1.216   3.012
  102DPPC   C28 5078   1.588   1.358   2.977
  102DPPC   C29 5079   1.474   1.458   2.998
  102DPPC   C30 5080   1.515   1.599   2.957
  102DPPC   C31 5081   1.546   1.601   2.807
  102DPPC   C32 5082   2.116   0.742   1.949
  102DPPC   O33 5083   2.183   0.836   2.034
  102DPPC   C34 5084   2.247   0.771   2.135
  102DPPC   O35 5085   2.266   0.650   2.147
  102DPPC   C36 5086   2.304   0.852   2.251
  102DPPC   C37 5087   2.209   0.858   2.371
  102DPPC   C38 5088   2.204   0.725   2.446
  102DPPC   C39 5089   2.092   0.715   2.550
  102DPPC   C40 5090   2.124   0.829   2.647
  102DPPC   C41 5091   2.041   0.803   2.773
  102DPPC   C42 5092   2.082   0.668   2.834
  102DPPC   C43 5093   2.012   0.637   2.966
  102DPPC   C44 5094   2.082   0.518   3.031
  102DPPC   C45 5095   1.979   0.457   3.126
  102DPPC   C46 5096   2.025   0.337   3.209
  102DPPC   C47 5097   1.926   0.301   3.320
  102DPPC   C48 5098   1.941   0.150   3.343
  102DPPC   C49 5099   1.870   0.110   3.473
  102DPPC   C50 5100   1.720   0.095   3.445
  103DPPC    C1 5101   2.552   7.363   1.267
  103DPPC    C2 5102   2.503   7.159   1.378
  103DPPC    C3 5103   2.719   7.244   1.381
  103DPPC    N4 5104   2.578   7.285   1.389
  103DPPC    C5 5105   2.543   7.351   1.516
  103DPPC    C6 5106   2.618   7.480   1.547
  103DPPC    O7 5107   2.750   7.455   1.596
  103DPPC    P8 5108   2.839   7.588   1.615
  103DPPC    O9 5109   2.836   7.633   1.475
  103DPPC   O10 5110   2.967   7.552   1.679
  103DPPC   O11 5111   2.749   7.657   1.730
  103DPPC   C12 5112   2.796   7.625   1.862
  103DPPC   C13 5113   2.671   7.639   1.949
  103DPPC   O14 5114   2.576   7.534   1.928
  103DPPC   C15 5115   2.619   7.415   1.978
  103DPPC   O16 5116   2.729   7.398   2.031
  103DPPC   C17 5117   2.524   7.299   1.944
  103DPPC   C18 5118   2.533   7.203   2.063
  103DPPC   C19 5119   2.473   7.258   2.193
  103DPPC   C20 5120   2.497   7.153   2.301
  103DPPC   C21 5121   2.447   7.198   2.439
  103DPPC   C22 5122   2.459   7.092   2.549
  103DPPC   C23 5123   2.391   7.154   2.671
  103DPPC   C24 5124   2.355   7.062   2.788
  103DPPC   C25 5125   2.330   7.121   2.927
  103DPPC   C26 5126   2.287   7.029   3.042
  103DPPC   C27 5127   2.260   7.110   3.168
  103DPPC   C28 5128   2.249   6.999   3.273
  103DPPC   C29 5129   2.372   6.908   3.272
  103DPPC   C30 5130   2.367   6.791   3.370
  103DPPC   C31 5131   2.491   6.705   3.395
  103DPPC   C32 5132   2.622   7.783   1.934
  103DPPC   O33 5133   2.722   7.874   1.979
  103DPPC   C34 5134   2.693   8.006   1.967
  103DPPC   O35 5135   2.581   8.040   1.929
  103DPPC   C36 5136   2.795   8.107   2.021
  103DPPC   C37 5137   2.792   8.108   2.174
  103DPPC   C38 5138   2.868   8.221   2.242
  103DPPC   C39 5139   2.845   8.231   2.393
  103DPPC   C40 5140   2.955   8.324   2.443
  103DPPC   C41 5141   2.966   8.317   2.595
  103DPPC   C42 5142   2.834   8.372   2.650
  103DPPC   C43 5143   2.855   8.402   2.798
  103DPPC   C44 5144   2.734   8.443   2.883
  103DPPC   C45 5145   2.764   8.490   3.025
  103DPPC   C46 5146   2.627   8.537   3.074
  103DPPC   C47 5147   2.648   8.623   3.199
  103DPPC   C48 5148   2.508   8.666   3.244
  103DPPC   C49 5149   2.520   8.775   3.351
  103DPPC   C50 5150   2.579   8.715   3.479
  104DPPC    C1 5151   3.890   3.955   1.570
  104DPPC    C2 5152   3.956   3.728   1.570
  104DPPC    C3 5153   4.091   3.884   1.462
  104DPPC    N4 5154   4.006   3.866   1.581
  104DPPC    C5 5155   4.072   3.898   1.708
  104DPPC    C6 5156   4.177   3.808   1.774
  104DPPC    O7 5157   4.283   3.759   1.691
  104DPPC    P8 5158   4.318   3.611   1.745
  104DPPC    O9 5159   4.438   3.564   1.672
  104DPPC   O10 5160   4.190   3.538   1.735
  104DPPC   O11 5161   4.353   3.654   1.896
  104DPPC   C12 5162   4.491   3.676   1.926
  104DPPC   C13 5163   4.508   3.764   2.050
  104DPPC   O14 5164   4.646   3.780   2.086
  104DPPC   C15 5165   4.677   3.888   2.164
  104DPPC   O16 5166   4.624   3.998   2.153
  104DPPC   C17 5167   4.796   3.862   2.257
  104DPPC   C18 5168   4.816   3.723   2.319
  104DPPC   C19 5169   4.925   3.704   2.425
  104DPPC   C20 5170   4.896   3.594   2.527
  104DPPC   C21 5171   5.020   3.579   2.614
  104DPPC   C22 5172   4.972   3.533   2.752
  104DPPC   C23 5173   5.083   3.495   2.850
  104DPPC   C24 5174   5.025   3.453   2.985
  104DPPC   C25 5175   5.125   3.398   3.087
  104DPPC   C26 5176   5.081   3.404   3.234
  104DPPC   C27 5177   5.037   3.544   3.275
  104DPPC   C28 5178   4.982   3.537   3.418
  104DPPC   C29 5179   4.937   3.657   3.502
  104DPPC   C30 5180   4.844   3.616   3.616
  104DPPC   C31 5181   4.832   3.752   3.685
  104DPPC   C32 5182   4.440   3.677   2.156
  104DPPC   O33 5183   4.410   3.741   2.281
  104DPPC   C34 5184   4.317   3.685   2.363
  104DPPC   O35 5185   4.241   3.597   2.322
  104DPPC   C36 5186   4.301   3.763   2.494
  104DPPC   C37 5187   4.432   3.725   2.564
  104DPPC   C38 5188   4.459   3.838   2.665
  104DPPC   C39 5189   4.583   3.812   2.750
  104DPPC   C40 5190   4.571   3.676   2.820
  104DPPC   C41 5191   4.660   3.674   2.944
  104DPPC   C42 5192   4.642   3.792   3.040
  104DPPC   C43 5193   4.721   3.772   3.169
  104DPPC   C44 5194   4.750   3.903   3.243
  104DPPC   C45 5195   4.620   3.969   3.289
  104DPPC   C46 5196   4.627   4.073   3.402
  104DPPC   C47 5197   4.490   4.084   3.470
  104DPPC   C48 5198   4.483   4.170   3.596
  104DPPC   C49 5199   4.474   4.315   3.549
  104DPPC   C50 5200   4.492   4.407   3.670
  105DPPC    C1 5201   4.465   5.142   1.777
  105DPPC    C2 5202   4.474   4.993   1.597
  105DPPC    C3 5203   4.522   5.235   1.563
  105DPPC    N4 5204   4.534   5.117   1.650
  105DPPC    C5 5205   4.679   5.091   1.649
  105DPPC    C6 5206   4.736   5.011   1.766
  105DPPC    O7 5207   4.785   5.091   1.874
  105DPPC    P8 5208   4.865   4.994   1.975
  105DPPC    O9 5209   4.942   5.096   2.049
  105DPPC   O10 5210   4.937   4.899   1.887
  105DPPC   O11 5211   4.746   4.921   2.055
  105DPPC   C12 5212   4.735   4.975   2.187
  105DPPC   C13 5213   4.612   4.936   2.269
  105DPPC   O14 5214   4.564   5.035   2.361
  105DPPC   C15 5215   4.481   5.124   2.301
  105DPPC   O16 5216   4.408   5.081   2.212
  105DPPC   C17 5217   4.453   5.251   2.383
  105DPPC   C18 5218   4.303   5.269   2.405
  105DPPC   C19 5219   4.290   5.384   2.505
  105DPPC   C20 5220   4.335   5.512   2.433
  105DPPC   C21 5221   4.331   5.632   2.528
  105DPPC   C22 5222   4.388   5.751   2.450
  105DPPC   C23 5223   4.367   5.885   2.522
  105DPPC   C24 5224   4.460   5.890   2.643
  105DPPC   C25 5225   4.428   6.013   2.728
  105DPPC   C26 5226   4.294   5.985   2.796
  105DPPC   C27 5227   4.254   6.116   2.866
  105DPPC   C28 5228   4.108   6.096   2.906
  105DPPC   C29 5229   4.039   6.211   2.981
  105DPPC   C30 5230   4.072   6.346   2.917
  105DPPC   C31 5231   3.963   6.439   2.969
  105DPPC   C32 5232   4.635   4.794   2.320
  105DPPC   O33 5233   4.753   4.789   2.401
  105DPPC   C34 5234   4.782   4.670   2.460
  105DPPC   O35 5235   4.715   4.567   2.444
  105DPPC   C36 5236   4.929   4.662   2.501
  105DPPC   C37 5237   4.933   4.632   2.651
  105DPPC   C38 5238   4.888   4.757   2.729
  105DPPC   C39 5239   4.901   4.737   2.880
  105DPPC   C40 5240   4.827   4.845   2.959
  105DPPC   C41 5241   4.850   4.832   3.110
  105DPPC   C42 5242   4.810   4.965   3.173
  105DPPC   C43 5243   4.817   4.968   3.326
  105DPPC   C44 5244   4.752   5.093   3.386
  105DPPC   C45 5245   4.797   5.095   3.532
  105DPPC   C46 5246   4.747   4.975   3.613
  105DPPC   C47 5247   4.814   4.985   3.750
  105DPPC   C48 5248   4.785   4.866   3.841
  105DPPC   C49 5249   4.857   4.881   3.975
  105DPPC   C50 5250   5.009   4.893   3.966
  106DPPC    C1 5251   9.117   0.567   1.189
  106DPPC    C2 5252   8.963   0.459   1.326
  106DPPC    C3 5253   9.113   0.324   1.212
  106DPPC    N4 5254   9.103   0.453   1.282
  106DPPC    C5 5255   9.205   0.463   1.386
  106DPPC    C6 5256   9.356   0.451   1.363
  106DPPC    O7 5257   9.424   0.524   1.466
  106DPPC    P8 5258   9.583   0.501   1.453
  106DPPC    O9 5259   9.616   0.538   1.314
  106DPPC   O10 5260   9.650   0.385   1.516
  106DPPC   O11 5261   9.619   0.631   1.541
  106DPPC   C12 5262   9.607   0.611   1.682
  106DPPC   C13 5263   9.518   0.716   1.748
  106DPPC   O14 5264   9.577   0.772   1.866
  106DPPC   C15 5265   9.609   0.904   1.862
  106DPPC   O16 5266   9.581   0.966   1.760
  106DPPC   C17 5267   9.673   0.971   1.983
  106DPPC   C18 5268   9.603   0.925   2.111
  106DPPC   C19 5269   9.697   0.930   2.232
  106DPPC   C20 5270   9.639   0.881   2.365
  106DPPC   C21 5271   9.748   0.922   2.464
  106DPPC   C22 5272   9.845   0.806   2.484
  106DPPC   C23 5273   9.959   0.861   2.570
  106DPPC   C24 5274  10.052   0.946   2.483
  106DPPC   C25 5275  10.193   0.933   2.542
  106DPPC   C26 5276  10.307   0.986   2.455
  106DPPC   C27 5277  10.446   0.970   2.517
  106DPPC   C28 5278  10.433   1.020   2.661
  106DPPC   C29 5279  10.566   1.013   2.737
  106DPPC   C30 5280  10.539   1.067   2.878
  106DPPC   C31 5281  10.513   1.218   2.873
  106DPPC   C32 5282   9.380   0.650   1.759
  106DPPC   O33 5283   9.382   0.519   1.816
  106DPPC   C34 5284   9.265   0.452   1.794
  106DPPC   O35 5285   9.169   0.515   1.751
  106DPPC   C36 5286   9.258   0.306   1.841
  106DPPC   C37 5287   9.314   0.281   1.981
  106DPPC   C38 5288   9.234   0.355   2.088
  106DPPC   C39 5289   9.308   0.469   2.158
  106DPPC   C40 5290   9.215   0.526   2.266
  106DPPC   C41 5291   9.154   0.420   2.357
  106DPPC   C42 5292   9.054   0.502   2.439
  106DPPC   C43 5293   9.042   0.436   2.576
  106DPPC   C44 5294   8.963   0.519   2.678
  106DPPC   C45 5295   8.953   0.437   2.806
  106DPPC   C46 5296   8.902   0.530   2.916
  106DPPC   C47 5297   8.869   0.469   3.053
  106DPPC   C48 5298   8.754   0.368   3.053
  106DPPC   C49 5299   8.741   0.318   3.197
  106DPPC   C50 5300   8.735   0.439   3.291
  107DPPC    C1 5301   6.157   7.916   2.044
  107DPPC    C2 5302   6.116   8.012   1.840
  107DPPC    C3 5303   6.033   8.126   2.045
  107DPPC    N4 5304   6.140   8.047   1.980
  107DPPC    C5 5305   6.275   8.103   1.969
  107DPPC    C6 5306   6.318   8.192   2.087
  107DPPC    O7 5307   6.247   8.316   2.089
  107DPPC    P8 5308   6.345   8.425   2.022
  107DPPC    O9 5309   6.271   8.462   1.899
  107DPPC   O10 5310   6.481   8.365   2.024
  107DPPC   O11 5311   6.336   8.543   2.130
  107DPPC   C12 5312   6.195   8.557   2.150
  107DPPC   C13 5313   6.140   8.594   2.288
  107DPPC   O14 5314   6.178   8.728   2.324
  107DPPC   C15 5315   6.085   8.823   2.351
  107DPPC   O16 5316   5.980   8.815   2.288
  107DPPC   C17 5317   6.140   8.956   2.404
  107DPPC   C18 5318   6.217   8.941   2.535
  107DPPC   C19 5319   6.135   8.890   2.654
  107DPPC   C20 5320   6.024   8.987   2.696
  107DPPC   C21 5321   6.088   9.074   2.804
  107DPPC   C22 5322   6.007   9.200   2.840
  107DPPC   C23 5323   6.058   9.310   2.933
  107DPPC   C24 5324   6.171   9.385   2.863
  107DPPC   C25 5325   6.235   9.497   2.945
  107DPPC   C26 5326   6.135   9.609   2.975
  107DPPC   C27 5327   6.106   9.685   2.845
  107DPPC   C28 5328   5.999   9.790   2.875
  107DPPC   C29 5329   5.994   9.912   2.784
  107DPPC   C30 5330   5.944   9.867   2.646
  107DPPC   C31 5331   5.930   9.976   2.540
  107DPPC   C32 5332   6.191   8.480   2.377
  107DPPC   O33 5333   6.123   8.473   2.503
  107DPPC   C34 5334   5.989   8.449   2.510
  107DPPC   O35 5335   5.930   8.418   2.407
  107DPPC   C36 5336   5.923   8.476   2.646
  107DPPC   C37 5337   6.026   8.532   2.745
  107DPPC   C38 5338   5.965   8.577   2.878
  107DPPC   C39 5339   6.072   8.650   2.959
  107DPPC   C40 5340   6.018   8.778   3.022
  107DPPC   C41 5341   6.124   8.854   3.102
  107DPPC   C42 5342   6.163   8.766   3.221
  107DPPC   C43 5343   6.056   8.750   3.330
  107DPPC   C44 5344   6.128   8.712   3.459
  107DPPC   C45 5345   6.029   8.684   3.572
  107DPPC   C46 5346   6.114   8.651   3.696
  107DPPC   C47 5347   6.018   8.661   3.814
  107DPPC   C48 5348   5.942   8.794   3.811
  107DPPC   C49 5349   5.794   8.769   3.837
  107DPPC   C50 5350   5.704   8.890   3.815
  108DPPC    C1 5351   7.138   0.593   1.198
  108DPPC    C2 5352   6.986   0.780   1.223
  108DPPC    C3 5353   6.994   0.655   1.023
  108DPPC    N4 5354   7.003   0.644   1.169
  108DPPC    C5 5355   6.887   0.562   1.204
  108DPPC    C6 5356   6.905   0.454   1.311
  108DPPC    O7 5357   6.890   0.504   1.444
  108DPPC    P8 5358   6.907   0.374   1.537
  108DPPC    O9 5359   7.051   0.342   1.535
  108DPPC   O10 5360   6.802   0.282   1.489
  108DPPC   O11 5361   6.855   0.444   1.672
  108DPPC   C12 5362   6.957   0.526   1.729
  108DPPC   C13 5363   6.912   0.617   1.843
  108DPPC   O14 5364   6.991   0.735   1.864
  108DPPC   C15 5365   6.910   0.844   1.866
  108DPPC   O16 5366   6.797   0.837   1.817
  108DPPC   C17 5367   6.960   0.975   1.926
  108DPPC   C18 5368   6.930   0.993   2.075
  108DPPC   C19 5369   6.947   1.142   2.109
  108DPPC   C20 5370   6.881   1.179   2.241
  108DPPC   C21 5371   6.987   1.130   2.340
  108DPPC   C22 5372   6.947   1.155   2.486
  108DPPC   C23 5373   6.820   1.087   2.539
  108DPPC   C24 5374   6.846   1.002   2.664
  108DPPC   C25 5375   6.912   1.106   2.756
  108DPPC   C26 5376   6.974   1.038   2.877
  108DPPC   C27 5377   6.879   0.955   2.964
  108DPPC   C28 5378   6.933   0.913   3.101
  108DPPC   C29 5379   6.839   0.812   3.167
  108DPPC   C30 5380   6.899   0.802   3.308
  108DPPC   C31 5381   6.820   0.723   3.412
  108DPPC   C32 5382   6.925   0.513   1.954
  108DPPC   O33 5383   6.892   0.543   2.090
  108DPPC   C34 5384   6.905   0.434   2.170
  108DPPC   O35 5385   6.964   0.332   2.136
  108DPPC   C36 5386   6.902   0.459   2.321
  108DPPC   C37 5387   6.862   0.335   2.401
  108DPPC   C38 5388   6.884   0.367   2.549
  108DPPC   C39 5389   6.846   0.245   2.633
  108DPPC   C40 5390   6.934   0.122   2.607
  108DPPC   C41 5391   6.883  -0.004   2.677
  108DPPC   C42 5392   6.886   0.021   2.828
  108DPPC   C43 5393   6.828  -0.096   2.909
  108DPPC   C44 5394   6.863  -0.094   3.058
  108DPPC   C45 5395   6.816  -0.223   3.126
  108DPPC   C46 5396   6.859  -0.224   3.273
  108DPPC   C47 5397   6.777  -0.126   3.357
  108DPPC   C48 5398   6.818  -0.128   3.505
  108DPPC   C49 5399   6.964  -0.104   3.545
  108DPPC   C50 5400   6.976  -0.025   3.676
  109DPPC    C1 5401   9.325   6.064   0.456
  109DPPC    C2 5402   9.372   6.052   0.684
  109DPPC    C3 5403   9.445   6.236   0.551
  109DPPC    N4 5404   9.332   6.146   0.578
  109DPPC    C5 5405   9.202   6.213   0.593
  109DPPC    C6 5406   9.159   6.240   0.737
  109DPPC    O7 5407   9.087   6.128   0.788
  109DPPC    P8 5408   8.978   6.165   0.900
  109DPPC    O9 5409   8.881   6.056   0.878
  109DPPC   O10 5410   8.942   6.309   0.891
  109DPPC   O11 5411   9.070   6.154   1.031
  109DPPC   C12 5412   9.053   6.023   1.085
  109DPPC   C13 5413   9.166   5.969   1.173
  109DPPC   O14 5414   9.142   5.839   1.229
  109DPPC   C15 5415   9.245   5.767   1.282
  109DPPC   O16 5416   9.362   5.795   1.254
  109DPPC   C17 5417   9.205   5.632   1.341
  109DPPC   C18 5418   9.131   5.654   1.473
  109DPPC   C19 5419   9.217   5.736   1.569
  109DPPC   C20 5420   9.158   5.705   1.707
  109DPPC   C21 5421   9.229   5.765   1.828
  109DPPC   C22 5422   9.155   5.746   1.960
  109DPPC   C23 5423   9.222   5.829   2.070
  109DPPC   C24 5424   9.160   5.804   2.208
  109DPPC   C25 5425   9.232   5.867   2.327
  109DPPC   C26 5426   9.141   5.877   2.450
  109DPPC   C27 5427   9.207   5.901   2.586
  109DPPC   C28 5428   9.090   5.876   2.680
  109DPPC   C29 5429   9.131   5.880   2.828
  109DPPC   C30 5430   9.007   5.868   2.916
  109DPPC   C31 5431   9.049   5.886   3.062
  109DPPC   C32 5432   9.196   6.081   1.273
  109DPPC   O33 5433   9.102   6.098   1.380
  109DPPC   C34 5434   9.096   6.224   1.433
  109DPPC   O35 5435   9.182   6.306   1.401
  109DPPC   C36 5436   9.014   6.228   1.562
  109DPPC   C37 5437   9.104   6.208   1.684
  109DPPC   C38 5438   9.046   6.258   1.816
  109DPPC   C39 5439   9.153   6.260   1.926
  109DPPC   C40 5440   9.093   6.302   2.061
  109DPPC   C41 5441   9.208   6.300   2.162
  109DPPC   C42 5442   9.136   6.331   2.293
  109DPPC   C43 5443   9.232   6.348   2.411
  109DPPC   C44 5444   9.328   6.229   2.422
  109DPPC   C45 5445   9.412   6.258   2.546
  109DPPC   C46 5446   9.514   6.148   2.574
  109DPPC   C47 5447   9.605   6.189   2.690
  109DPPC   C48 5448   9.716   6.085   2.706
  109DPPC   C49 5449   9.788   6.104   2.839
  109DPPC   C50 5450   9.883   5.985   2.824
  110DPPC    C1 5451   1.342   3.470   0.943
  110DPPC    C2 5452   1.555   3.388   1.053
  110DPPC    C3 5453   1.558   3.561   0.893
  110DPPC    N4 5454   1.475   3.498   0.997
  110DPPC    C5 5455   1.460   3.604   1.098
  110DPPC    C6 5456   1.369   3.574   1.217
  110DPPC    O7 5457   1.330   3.685   1.298
  110DPPC    P8 5458   1.193   3.758   1.255
  110DPPC    O9 5459   1.133   3.669   1.153
  110DPPC   O10 5460   1.210   3.903   1.232
  110DPPC   O11 5461   1.132   3.745   1.404
  110DPPC   C12 5462   1.067   3.618   1.413
  110DPPC   C13 5463   1.128   3.515   1.509
  110DPPC   O14 5464   1.053   3.393   1.520
  110DPPC   C15 5465   1.122   3.279   1.546
  110DPPC   O16 5466   1.232   3.251   1.498
  110DPPC   C17 5467   1.028   3.172   1.602
  110DPPC   C18 5468   1.040   3.193   1.753
  110DPPC   C19 5469   0.955   3.090   1.827
  110DPPC   C20 5470   0.971   3.114   1.977
  110DPPC   C21 5471   0.868   3.031   2.055
  110DPPC   C22 5472   0.866   3.076   2.201
  110DPPC   C23 5473   0.767   2.990   2.279
  110DPPC   C24 5474   0.629   2.993   2.213
  110DPPC   C25 5475   0.534   2.936   2.319
  110DPPC   C26 5476   0.561   3.022   2.442
  110DPPC   C27 5477   0.470   2.989   2.561
  110DPPC   C28 5478   0.487   3.095   2.670
  110DPPC   C29 5479   0.626   3.075   2.730
  110DPPC   C30 5480   0.670   3.168   2.844
  110DPPC   C31 5481   0.595   3.152   2.976
  110DPPC   C32 5482   1.163   3.587   1.639
  110DPPC   O33 5483   1.241   3.510   1.731
  110DPPC   C34 5484   1.255   3.573   1.851
  110DPPC   O35 5485   1.248   3.695   1.864
  110DPPC   C36 5486   1.324   3.495   1.963
  110DPPC   C37 5487   1.217   3.433   2.053
  110DPPC   C38 5488   1.282   3.349   2.164
  110DPPC   C39 5489   1.185   3.282   2.261
  110DPPC   C40 5490   1.243   3.219   2.387
  110DPPC   C41 5491   1.134   3.136   2.453
  110DPPC   C42 5492   1.202   3.055   2.564
  110DPPC   C43 5493   1.101   2.990   2.659
  110DPPC   C44 5494   1.188   2.929   2.770
  110DPPC   C45 5495   1.115   2.886   2.897
  110DPPC   C46 5496   1.068   3.009   2.974
  110DPPC   C47 5497   0.986   2.996   3.102
  110DPPC   C48 5498   0.957   3.137   3.154
  110DPPC   C49 5499   0.872   3.103   3.277
  110DPPC   C50 5500   0.793   3.231   3.305
  111DPPC    C1 5501   1.688   1.092   1.668
  111DPPC    C2 5502   1.714   1.154   1.436
  111DPPC    C3 5503   1.702   0.933   1.488
  111DPPC    N4 5504   1.647   1.062   1.530
  111DPPC    C5 5505   1.501   1.062   1.509
  111DPPC    C6 5506   1.410   0.946   1.550
  111DPPC    O7 5507   1.436   0.904   1.684
  111DPPC    P8 5508   1.338   0.779   1.710
  111DPPC    O9 5509   1.425   0.677   1.771
  111DPPC   O10 5510   1.273   0.734   1.584
  111DPPC   O11 5511   1.245   0.856   1.817
  111DPPC   C12 5512   1.331   0.870   1.930
  111DPPC   C13 5513   1.249   0.880   2.059
  111DPPC   O14 5514   1.317   0.947   2.166
  111DPPC   C15 5515   1.245   1.007   2.264
  111DPPC   O16 5516   1.123   0.997   2.256
  111DPPC   C17 5517   1.318   1.056   2.389
  111DPPC   C18 5518   1.375   1.191   2.346
  111DPPC   C19 5519   1.443   1.247   2.471
  111DPPC   C20 5520   1.489   1.391   2.448
  111DPPC   C21 5521   1.386   1.489   2.392
  111DPPC   C22 5522   1.452   1.626   2.380
  111DPPC   C23 5523   1.345   1.728   2.419
  111DPPC   C24 5524   1.270   1.708   2.551
  111DPPC   C25 5525   1.144   1.794   2.544
  111DPPC   C26 5526   1.055   1.783   2.668
  111DPPC   C27 5527   0.956   1.900   2.666
  111DPPC   C28 5528   0.908   1.913   2.811
  111DPPC   C29 5529   0.825   2.041   2.823
  111DPPC   C30 5530   0.770   2.066   2.964
  111DPPC   C31 5531   0.700   1.943   3.021
  111DPPC   C32 5532   1.180   0.744   2.067
  111DPPC   O33 5533   1.267   0.642   2.117
  111DPPC   C34 5534   1.246   0.509   2.096
  111DPPC   O35 5535   1.175   0.480   2.000
  111DPPC   C36 5536   1.313   0.400   2.180
  111DPPC   C37 5537   1.372   0.452   2.312
  111DPPC   C38 5538   1.264   0.518   2.397
  111DPPC   C39 5539   1.311   0.559   2.537
  111DPPC   C40 5540   1.198   0.635   2.608
  111DPPC   C41 5541   1.237   0.684   2.747
  111DPPC   C42 5542   1.261   0.567   2.843
  111DPPC   C43 5543   1.285   0.627   2.982
  111DPPC   C44 5544   1.167   0.692   3.054
  111DPPC   C45 5545   1.212   0.729   3.196
  111DPPC   C46 5546   1.252   0.876   3.205
  111DPPC   C47 5547   1.274   0.922   3.349
  111DPPC   C48 5548   1.296   1.073   3.341
  111DPPC   C49 5549   1.176   1.121   3.258
  111DPPC   C50 5550   1.157   1.271   3.277
  112DPPC    C1 5551   4.890   8.075   1.783
  112DPPC    C2 5552   5.063   8.088   1.938
  112DPPC    C3 5553   4.850   8.095   2.025
  112DPPC    N4 5554   4.929   8.031   1.918
  112DPPC    C5 5555   4.943   7.885   1.925
  112DPPC    C6 5556   4.826   7.786   1.918
  112DPPC    O7 5557   4.720   7.802   2.012
  112DPPC    P8 5558   4.616   7.680   2.005
  112DPPC    O9 5559   4.606   7.626   1.868
  112DPPC   O10 5560   4.495   7.717   2.083
  112DPPC   O11 5561   4.701   7.567   2.082
  112DPPC   C12 5562   4.637   7.545   2.207
  112DPPC   C13 5563   4.709   7.452   2.305
  112DPPC   O14 5564   4.628   7.381   2.400
  112DPPC   C15 5565   4.591   7.260   2.352
  112DPPC   O16 5566   4.613   7.222   2.236
  112DPPC   C17 5567   4.544   7.162   2.459
  112DPPC   C18 5568   4.624   7.171   2.589
  112DPPC   C19 5569   4.575   7.084   2.705
  112DPPC   C20 5570   4.568   6.938   2.661
  112DPPC   C21 5571   4.536   6.860   2.789
  112DPPC   C22 5572   4.396   6.879   2.849
  112DPPC   C23 5573   4.366   6.764   2.946
  112DPPC   C24 5574   4.239   6.800   3.024
  112DPPC   C25 5575   4.119   6.835   2.935
  112DPPC   C26 5576   3.992   6.846   3.020
  112DPPC   C27 5577   3.888   6.917   2.932
  112DPPC   C28 5578   3.779   6.957   3.032
  112DPPC   C29 5579   3.684   7.061   2.973
  112DPPC   C30 5580   3.575   7.109   3.069
  112DPPC   C31 5581   3.462   7.202   3.024
  112DPPC   C32 5582   4.819   7.543   2.360
  112DPPC   O33 5583   4.931   7.479   2.423
  112DPPC   C34 5584   5.044   7.537   2.471
  112DPPC   O35 5585   5.079   7.651   2.444
  112DPPC   C36 5586   5.134   7.444   2.553
  112DPPC   C37 5587   5.179   7.514   2.682
  112DPPC   C38 5588   5.269   7.427   2.770
  112DPPC   C39 5589   5.291   7.503   2.901
  112DPPC   C40 5590   5.374   7.423   3.001
  112DPPC   C41 5591   5.502   7.357   2.950
  112DPPC   C42 5592   5.613   7.462   2.939
  112DPPC   C43 5593   5.710   7.439   3.055
  112DPPC   C44 5594   5.813   7.552   3.047
  112DPPC   C45 5595   5.883   7.551   3.183
  112DPPC   C46 5596   5.944   7.690   3.207
  112DPPC   C47 5597   5.992   7.699   3.352
  112DPPC   C48 5598   5.867   7.688   3.439
  112DPPC   C49 5599   5.916   7.676   3.583
  112DPPC   C50 5600   5.806   7.718   3.680
  113DPPC    C1 5601   0.932   1.572   1.530
  113DPPC    C2 5602   0.994   1.613   1.751
  113DPPC    C3 5603   0.790   1.526   1.705
  113DPPC    N4 5604   0.931   1.513   1.665
  113DPPC    C5 5605   0.980   1.375   1.678
  113DPPC    C6 5606   1.111   1.343   1.605
  113DPPC    O7 5607   1.220   1.424   1.650
  113DPPC    P8 5608   1.361   1.376   1.590
  113DPPC    O9 5609   1.474   1.472   1.592
  113DPPC   O10 5610   1.336   1.300   1.465
  113DPPC   O11 5611   1.381   1.277   1.716
  113DPPC   C12 5612   1.422   1.369   1.817
  113DPPC   C13 5613   1.427   1.309   1.957
  113DPPC   O14 5614   1.533   1.217   1.988
  113DPPC   C15 5615   1.658   1.264   2.013
  113DPPC   O16 5616   1.678   1.379   1.974
  113DPPC   C17 5617   1.757   1.154   2.051
  113DPPC   C18 5618   1.869   1.196   2.147
  113DPPC   C19 5619   1.808   1.202   2.287
  113DPPC   C20 5620   1.920   1.240   2.384
  113DPPC   C21 5621   1.868   1.238   2.527
  113DPPC   C22 5622   1.983   1.245   2.627
  113DPPC   C23 5623   1.927   1.244   2.769
  113DPPC   C24 5624   2.040   1.240   2.873
  113DPPC   C25 5625   1.987   1.227   3.016
  113DPPC   C26 5626   2.079   1.144   3.106
  113DPPC   C27 5627   2.009   1.128   3.241
  113DPPC   C28 5628   1.867   1.075   3.221
  113DPPC   C29 5629   1.851   0.928   3.179
  113DPPC   C30 5630   1.705   0.890   3.206
  113DPPC   C31 5631   1.690   0.740   3.180
  113DPPC   C32 5632   1.293   1.243   1.994
  113DPPC   O33 5633   1.194   1.338   2.033
  113DPPC   C34 5634   1.079   1.270   2.061
  113DPPC   O35 5635   1.047   1.172   1.993
  113DPPC   C36 5636   0.975   1.362   2.124
  113DPPC   C37 5637   0.911   1.299   2.247
  113DPPC   C38 5638   0.798   1.391   2.295
  113DPPC   C39 5639   0.758   1.348   2.436
  113DPPC   C40 5640   0.667   1.455   2.496
  113DPPC   C41 5641   0.598   1.416   2.627
  113DPPC   C42 5642   0.708   1.364   2.721
  113DPPC   C43 5643   0.657   1.365   2.866
  113DPPC   C44 5644   0.529   1.285   2.888
  113DPPC   C45 5645   0.556   1.140   2.929
  113DPPC   C46 5646   0.429   1.062   2.961
  113DPPC   C47 5647   0.469   0.917   2.993
  113DPPC   C48 5648   0.343   0.832   3.010
  113DPPC   C49 5649   0.381   0.689   3.050
  113DPPC   C50 5650   0.245   0.618   3.046
  114DPPC    C1 5651   1.114   3.976   1.754
  114DPPC    C2 5652   1.209   4.041   1.539
  114DPPC    C3 5653   1.155   4.201   1.703
  114DPPC    N4 5654   1.208   4.065   1.684
  114DPPC    C5 5655   1.333   4.042   1.758
  114DPPC    C6 5656   1.465   4.107   1.715
  114DPPC    O7 5657   1.574   4.056   1.792
  114DPPC    P8 5658   1.707   4.124   1.730
  114DPPC    O9 5659   1.671   4.171   1.595
  114DPPC   O10 5660   1.821   4.029   1.738
  114DPPC   O11 5661   1.713   4.242   1.839
  114DPPC   C12 5662   1.752   4.173   1.958
  114DPPC   C13 5663   1.693   4.241   2.081
  114DPPC   O14 5664   1.742   4.181   2.202
  114DPPC   C15 5665   1.856   4.229   2.259
  114DPPC   O16 5666   1.938   4.283   2.185
  114DPPC   C17 5667   1.905   4.166   2.389
  114DPPC   C18 5668   1.990   4.041   2.364
  114DPPC   C19 5669   2.115   4.047   2.452
  114DPPC   C20 5670   2.203   3.923   2.448
  114DPPC   C21 5671   2.302   3.909   2.564
  114DPPC   C22 5672   2.225   3.927   2.695
  114DPPC   C23 5673   2.325   3.962   2.805
  114DPPC   C24 5674   2.247   4.049   2.904
  114DPPC   C25 5675   2.347   4.125   2.991
  114DPPC   C26 5676   2.297   4.202   3.113
  114DPPC   C27 5677   2.407   4.285   3.179
  114DPPC   C28 5678   2.356   4.360   3.302
  114DPPC   C29 5679   2.470   4.434   3.372
  114DPPC   C30 5680   2.547   4.529   3.280
  114DPPC   C31 5681   2.657   4.581   3.372
  114DPPC   C32 5682   1.545   4.213   2.057
  114DPPC   O33 5683   1.453   4.312   2.106
  114DPPC   C34 5684   1.325   4.267   2.111
  114DPPC   O35 5685   1.286   4.198   2.016
  114DPPC   C36 5686   1.223   4.337   2.201
  114DPPC   C37 5687   1.165   4.240   2.305
  114DPPC   C38 5688   1.074   4.313   2.404
  114DPPC   C39 5689   1.016   4.201   2.490
  114DPPC   C40 5690   1.118   4.144   2.589
  114DPPC   C41 5691   1.056   4.041   2.684
  114DPPC   C42 5692   0.943   4.093   2.773
  114DPPC   C43 5693   1.002   4.190   2.876
  114DPPC   C44 5694   0.894   4.267   2.953
  114DPPC   C45 5695   0.959   4.394   3.009
  114DPPC   C46 5696   0.869   4.481   3.096
  114DPPC   C47 5697   0.793   4.576   3.004
  114DPPC   C48 5698   0.640   4.563   3.001
  114DPPC   C49 5699   0.567   4.662   2.910
  114DPPC   C50 5700   0.419   4.623   2.909
  115DPPC    C1 5701   3.999   3.202   2.098
  115DPPC    C2 5702   3.900   3.342   1.937
  115DPPC    C3 5703   3.792   3.314   2.145
  115DPPC    N4 5704   3.924   3.327   2.081
  115DPPC    C5 5705   4.008   3.432   2.140
  115DPPC    C6 5706   3.995   3.573   2.082
  115DPPC    O7 5707   3.875   3.640   2.121
  115DPPC    P8 5708   3.866   3.787   2.057
  115DPPC    O9 5709   3.761   3.752   1.959
  115DPPC   O10 5710   4.011   3.806   2.034
  115DPPC   O11 5711   3.807   3.864   2.185
  115DPPC   C12 5712   3.927   3.885   2.259
  115DPPC   C13 5713   3.922   3.980   2.379
  115DPPC   O14 5714   4.047   3.993   2.449
  115DPPC   C15 5715   4.099   4.118   2.460
  115DPPC   O16 5716   4.051   4.209   2.392
  115DPPC   C17 5717   4.220   4.134   2.552
  115DPPC   C18 5718   4.259   4.282   2.563
  115DPPC   C19 5719   4.402   4.289   2.615
  115DPPC   C20 5720   4.440   4.431   2.655
  115DPPC   C21 5721   4.577   4.443   2.722
  115DPPC   C22 5722   4.577   4.359   2.850
  115DPPC   C23 5723   4.722   4.326   2.887
  115DPPC   C24 5724   4.742   4.313   3.038
  115DPPC   C25 5725   4.882   4.262   3.072
  115DPPC   C26 5726   4.897   4.258   3.224
  115DPPC   C27 5727   5.043   4.238   3.265
  115DPPC   C28 5728   5.066   4.231   3.416
  115DPPC   C29 5729   5.007   4.104   3.477
  115DPPC   C30 5730   5.006   4.110   3.630
  115DPPC   C31 5731   4.882   4.190   3.670
  115DPPC   C32 5732   3.796   3.928   2.448
  115DPPC   O33 5733   3.753   4.005   2.560
  115DPPC   C34 5734   3.697   4.127   2.542
  115DPPC   O35 5735   3.676   4.186   2.436
  115DPPC   C36 5736   3.672   4.198   2.676
  115DPPC   C37 5737   3.780   4.183   2.784
  115DPPC   C38 5738   3.783   4.050   2.859
  115DPPC   C39 5739   3.876   4.071   2.978
  115DPPC   C40 5740   4.011   4.118   2.922
  115DPPC   C41 5741   4.111   4.139   3.036
  115DPPC   C42 5742   4.077   4.262   3.120
  115DPPC   C43 5743   4.161   4.240   3.246
  115DPPC   C44 5744   4.132   4.354   3.344
  115DPPC   C45 5745   3.981   4.368   3.362
  115DPPC   C46 5746   3.949   4.486   3.454
  115DPPC   C47 5747   3.799   4.500   3.477
  115DPPC   C48 5748   3.737   4.621   3.548
  115DPPC   C49 5749   3.586   4.596   3.563
  115DPPC   C50 5750   3.511   4.701   3.644
  116DPPC    C1 5751   6.743   8.506   2.147
  116DPPC    C2 5752   6.965   8.483   2.208
  116DPPC    C3 5753   6.797   8.338   2.290
  116DPPC    N4 5754   6.847   8.404   2.168
  116DPPC    C5 5755   6.875   8.320   2.051
  116DPPC    C6 5756   6.768   8.214   2.025
  116DPPC    O7 5757   6.783   8.094   2.101
  116DPPC    P8 5758   6.663   7.991   2.070
  116DPPC    O9 5759   6.705   7.849   2.074
  116DPPC   O10 5760   6.591   8.045   1.953
  116DPPC   O11 5761   6.578   8.025   2.202
  116DPPC   C12 5762   6.573   7.915   2.294
  116DPPC   C13 5763   6.479   7.938   2.412
  116DPPC   O14 5764   6.343   7.947   2.367
  116DPPC   C15 5765   6.227   7.967   2.434
  116DPPC   O16 5766   6.118   7.962   2.378
  116DPPC   C17 5767   6.242   7.942   2.584
  116DPPC   C18 5768   6.203   8.056   2.679
  116DPPC   C19 5769   6.252   8.013   2.817
  116DPPC   C20 5770   6.220   8.129   2.912
  116DPPC   C21 5771   6.323   8.238   2.883
  116DPPC   C22 5772   6.291   8.358   2.973
  116DPPC   C23 5773   6.282   8.311   3.118
  116DPPC   C24 5774   6.298   8.427   3.217
  116DPPC   C25 5775   6.326   8.391   3.363
  116DPPC   C26 5776   6.217   8.307   3.430
  116DPPC   C27 5777   6.262   8.257   3.567
  116DPPC   C28 5778   6.177   8.137   3.612
  116DPPC   C29 5779   6.210   8.076   3.748
  116DPPC   C30 5780   6.111   7.969   3.793
  116DPPC   C31 5781   5.971   8.024   3.824
  116DPPC   C32 5782   6.533   8.062   2.484
  116DPPC   O33 5783   6.650   8.018   2.553
  116DPPC   C34 5784   6.699   8.119   2.630
  116DPPC   O35 5785   6.629   8.217   2.652
  116DPPC   C36 5786   6.823   8.084   2.713
  116DPPC   C37 5787   6.947   8.057   2.627
  116DPPC   C38 5788   7.066   8.031   2.720
  116DPPC   C39 5789   7.090   8.132   2.832
  116DPPC   C40 5790   7.193   8.093   2.937
  116DPPC   C41 5791   7.322   8.044   2.869
  116DPPC   C42 5792   7.411   8.161   2.825
  116DPPC   C43 5793   7.488   8.237   2.932
  116DPPC   C44 5794   7.625   8.173   2.957
  116DPPC   C45 5795   7.694   8.233   3.080
  116DPPC   C46 5796   7.720   8.382   3.056
  116DPPC   C47 5797   7.822   8.432   3.159
  116DPPC   C48 5798   7.756   8.476   3.290
  116DPPC   C49 5799   7.842   8.578   3.365
  116DPPC   C50 5800   7.976   8.519   3.410
  117DPPC    C1 5801   5.677   4.569   1.877
  117DPPC    C2 5802   5.816   4.608   1.707
  117DPPC    C3 5803   5.863   4.664   1.940
  117DPPC    N4 5804   5.820   4.560   1.846
  117DPPC    C5 5805   5.856   4.419   1.868
  117DPPC    C6 5806   5.983   4.369   1.798
  117DPPC    O7 5807   6.000   4.228   1.810
  117DPPC    P8 5808   6.128   4.190   1.720
  117DPPC    O9 5809   6.115   4.263   1.591
  117DPPC   O10 5810   6.189   4.056   1.728
  117DPPC   O11 5811   6.237   4.277   1.799
  117DPPC   C12 5812   6.290   4.212   1.915
  117DPPC   C13 5813   6.397   4.297   1.985
  117DPPC   O14 5814   6.493   4.224   2.062
  117DPPC   C15 5815   6.591   4.149   2.004
  117DPPC   O16 5816   6.601   4.147   1.882
  117DPPC   C17 5817   6.686   4.066   2.091
  117DPPC   C18 5818   6.645   4.070   2.238
  117DPPC   C19 5819   6.764   4.024   2.322
  117DPPC   C20 5820   6.766   4.058   2.472
  117DPPC   C21 5821   6.831   3.950   2.559
  117DPPC   C22 5822   6.777   3.813   2.521
  117DPPC   C23 5823   6.843   3.700   2.600
  117DPPC   C24 5824   6.824   3.726   2.750
  117DPPC   C25 5825   6.870   3.601   2.824
  117DPPC   C26 5826   6.786   3.480   2.781
  117DPPC   C27 5827   6.699   3.424   2.894
  117DPPC   C28 5828   6.620   3.301   2.849
  117DPPC   C29 5829   6.547   3.247   2.972
  117DPPC   C30 5830   6.426   3.158   2.945
  117DPPC   C31 5831   6.352   3.111   3.070
  117DPPC   C32 5832   6.325   4.413   2.055
  117DPPC   O33 5833   6.229   4.371   2.153
  117DPPC   C34 5834   6.153   4.478   2.191
  117DPPC   O35 5835   6.146   4.571   2.110
  117DPPC   C36 5836   6.054   4.445   2.302
  117DPPC   C37 5837   5.924   4.393   2.241
  117DPPC   C38 5838   5.821   4.376   2.353
  117DPPC   C39 5839   5.817   4.506   2.434
  117DPPC   C40 5840   5.692   4.589   2.408
  117DPPC   C41 5841   5.695   4.701   2.512
  117DPPC   C42 5842   5.700   4.635   2.650
  117DPPC   C43 5843   5.658   4.741   2.753
  117DPPC   C44 5844   5.690   4.693   2.895
  117DPPC   C45 5845   5.681   4.799   3.005
  117DPPC   C46 5846   5.708   4.727   3.137
  117DPPC   C47 5847   5.655   4.824   3.244
  117DPPC   C48 5848   5.703   4.781   3.382
  117DPPC   C49 5849   5.671   4.632   3.382
  117DPPC   C50 5850   5.716   4.578   3.518
  118DPPC    C1 5851   4.637   0.160   1.552
  118DPPC    C2 5852   4.864   0.110   1.579
  118DPPC    C3 5853   4.764   0.340   1.637
  118DPPC    N4 5854   4.755   0.193   1.633
  118DPPC    C5 5855   4.743   0.162   1.776
  118DPPC    C6 5856   4.719   0.017   1.819
  118DPPC    O7 5857   4.577  -0.002   1.819
  118DPPC    P8 5858   4.547  -0.154   1.863
  118DPPC    O9 5859   4.616  -0.232   1.758
  118DPPC   O10 5860   4.402  -0.170   1.890
  118DPPC   O11 5861   4.628  -0.143   2.001
  118DPPC   C12 5862   4.528  -0.134   2.103
  118DPPC   C13 5863   4.575  -0.119   2.248
  118DPPC   O14 5864   4.591  -0.244   2.316
  118DPPC   C15 5865   4.715  -0.256   2.371
  118DPPC   O16 5866   4.788  -0.157   2.375
  118DPPC   C17 5867   4.747  -0.382   2.452
  118DPPC   C18 5868   4.758  -0.515   2.377
  118DPPC   C19 5869   4.848  -0.605   2.462
  118DPPC   C20 5870   4.781  -0.637   2.596
  118DPPC   C21 5871   4.733  -0.780   2.621
  118DPPC   C22 5872   4.645  -0.801   2.744
  118DPPC   C23 5873   4.568  -0.932   2.762
  118DPPC   C24 5874   4.487  -0.940   2.892
  118DPPC   C25 5875   4.401  -1.065   2.880
  118DPPC   C26 5876   4.295  -1.094   2.986
  118DPPC   C27 5877   4.213  -1.220   2.960
  118DPPC   C28 5878   4.126  -1.255   3.080
  118DPPC   C29 5879   4.202  -1.255   3.213
  118DPPC   C30 5880   4.108  -1.260   3.334
  118DPPC   C31 5881   4.012  -1.377   3.311
  118DPPC   C32 5882   4.478  -0.019   2.311
  118DPPC   O33 5883   4.347  -0.074   2.331
  118DPPC   C34 5884   4.259   0.024   2.365
  118DPPC   O35 5885   4.289   0.139   2.397
  118DPPC   C36 5886   4.117  -0.026   2.392
  118DPPC   C37 5887   4.133  -0.135   2.498
  118DPPC   C38 5888   3.995  -0.187   2.539
  118DPPC   C39 5889   4.011  -0.294   2.647
  118DPPC   C40 5890   3.868  -0.330   2.687
  118DPPC   C41 5891   3.850  -0.443   2.789
  118DPPC   C42 5892   3.704  -0.440   2.833
  118DPPC   C43 5893   3.667  -0.562   2.917
  118DPPC   C44 5894   3.515  -0.563   2.928
  118DPPC   C45 5895   3.477  -0.679   3.020
  118DPPC   C46 5896   3.324  -0.689   3.020
  118DPPC   C47 5897   3.291  -0.809   3.110
  118DPPC   C48 5898   3.273  -0.760   3.253
  118DPPC   C49 5899   3.163  -0.654   3.267
  118DPPC   C50 5900   3.038  -0.715   3.203
  119DPPC    C1 5901   0.390   6.285   0.576
  119DPPC    C2 5902   0.504   6.190   0.775
  119DPPC    C3 5903   0.567   6.400   0.683
  119DPPC    N4 5904   0.454   6.309   0.706
  119DPPC    C5 5905   0.361   6.375   0.799
  119DPPC    C6 5906   0.218   6.323   0.812
  119DPPC    O7 5907   0.157   6.371   0.932
  119DPPC    P8 5908   0.031   6.274   0.959
  119DPPC    O9 5909   0.077   6.135   0.939
  119DPPC   O10 5910  -0.075   6.341   0.881
  119DPPC   O11 5911   0.011   6.287   1.118
  119DPPC   C12 5912   0.111   6.197   1.166
  119DPPC   C13 5913   0.157   6.230   1.308
  119DPPC   O14 5914   0.071   6.201   1.420
  119DPPC   C15 5915   0.097   6.078   1.471
  119DPPC   O16 5916   0.196   6.018   1.430
  119DPPC   C17 5917   0.000   6.013   1.570
  119DPPC   C18 5918   0.028   6.051   1.716
  119DPPC   C19 5919  -0.022   6.186   1.767
  119DPPC   C20 5920   0.062   6.201   1.894
  119DPPC   C21 5921   0.032   6.339   1.953
  119DPPC   C22 5922   0.115   6.345   2.081
  119DPPC   C23 5923   0.073   6.458   2.175
  119DPPC   C24 5924   0.131   6.438   2.315
  119DPPC   C25 5925   0.283   6.451   2.315
  119DPPC   C26 5926   0.326   6.445   2.461
  119DPPC   C27 5927   0.475   6.439   2.495
  119DPPC   C28 5928   0.568   6.532   2.416
  119DPPC   C29 5929   0.700   6.535   2.492
  119DPPC   C30 5930   0.676   6.576   2.638
  119DPPC   C31 5931   0.802   6.555   2.722
  119DPPC   C32 5932   0.204   6.375   1.294
  119DPPC   O33 5933   0.231   6.435   1.421
  119DPPC   C34 5934   0.242   6.570   1.421
  119DPPC   O35 5935   0.232   6.621   1.310
  119DPPC   C36 5936   0.226   6.654   1.548
  119DPPC   C37 5937   0.249   6.580   1.680
  119DPPC   C38 5938   0.221   6.662   1.806
  119DPPC   C39 5939   0.309   6.787   1.815
  119DPPC   C40 5940   0.307   6.865   1.947
  119DPPC   C41 5941   0.357   6.755   2.041
  119DPPC   C42 5942   0.307   6.803   2.177
  119DPPC   C43 5943   0.387   6.929   2.212
  119DPPC   C44 5944   0.333   6.983   2.344
  119DPPC   C45 5945   0.381   7.122   2.385
  119DPPC   C46 5946   0.321   7.162   2.520
  119DPPC   C47 5947   0.191   7.240   2.503
  119DPPC   C48 5948   0.130   7.280   2.638
  119DPPC   C49 5949   0.230   7.351   2.729
  119DPPC   C50 5950   0.191   7.351   2.877
  120DPPC    C1 5951   4.085   6.547   2.052
  120DPPC    C2 5952   3.887   6.638   1.946
  120DPPC    C3 5953   3.858   6.474   2.110
  120DPPC    N4 5954   3.944   6.586   2.071
  120DPPC    C5 5955   3.943   6.689   2.176
  120DPPC    C6 5956   4.036   6.810   2.179
  120DPPC    O7 5957   4.020   6.896   2.292
  120DPPC    P8 5958   4.157   6.978   2.316
  120DPPC    O9 5959   4.139   7.081   2.421
  120DPPC   O10 5960   4.200   7.013   2.179
  120DPPC   O11 5961   4.245   6.859   2.379
  120DPPC   C12 5962   4.202   6.840   2.514
  120DPPC   C13 5963   4.121   6.712   2.530
  120DPPC   O14 5964   4.007   6.728   2.617
  120DPPC   C15 5965   3.885   6.699   2.564
  120DPPC   O16 5966   3.867   6.633   2.462
  120DPPC   C17 5967   3.760   6.710   2.652
  120DPPC   C18 5968   3.737   6.574   2.717
  120DPPC   C19 5969   3.602   6.555   2.788
  120DPPC   C20 5970   3.580   6.661   2.896
  120DPPC   C21 5971   3.435   6.661   2.946
  120DPPC   C22 5972   3.432   6.767   3.057
  120DPPC   C23 5973   3.292   6.764   3.120
  120DPPC   C24 5974   3.279   6.885   3.213
  120DPPC   C25 5975   3.154   6.862   3.298
  120DPPC   C26 5976   3.157   6.726   3.369
  120DPPC   C27 5977   3.018   6.686   3.418
  120DPPC   C28 5978   3.019   6.697   3.570
  120DPPC   C29 5979   2.897   6.639   3.643
  120DPPC   C30 5980   2.795   6.749   3.672
  120DPPC   C31 5981   2.674   6.704   3.755
  120DPPC   C32 5982   4.199   6.581   2.548
  120DPPC   O33 5983   4.316   6.590   2.630
  120DPPC   C34 5984   4.377   6.470   2.645
  120DPPC   O35 5985   4.337   6.372   2.581
  120DPPC   C36 5986   4.497   6.441   2.737
  120DPPC   C37 5987   4.458   6.430   2.884
  120DPPC   C38 5988   4.574   6.402   2.979
  120DPPC   C39 5989   4.666   6.525   2.972
  120DPPC   C40 5990   4.790   6.521   3.061
  120DPPC   C41 5991   4.851   6.661   3.077
  120DPPC   C42 5992   4.881   6.727   2.943
  120DPPC   C43 5993   4.915   6.875   2.959
  120DPPC   C44 5994   4.923   6.941   2.821
  120DPPC   C45 5995   4.960   7.089   2.825
  120DPPC   C46 5996   4.883   7.174   2.927
  120DPPC   C47 5997   4.965   7.300   2.956
  120DPPC   C48 5998   4.888   7.396   3.047
  120DPPC   C49 5999   4.985   7.507   3.086
  120DPPC   C50 6000   4.919   7.609   3.179
  121DPPC    C1 6001   7.191   3.257   2.186
  121DPPC    C2 6002   7.241   3.072   2.317
  121DPPC    C3 6003   7.083   3.047   2.131
  121DPPC    N4 6004   7.206   3.111   2.180
  121DPPC    C5 6005   7.315   3.063   2.094
  121DPPC    C6 6006   7.348   3.135   1.963
  121DPPC    O7 6007   7.476   3.086   1.922
  121DPPC    P8 6008   7.518   3.132   1.774
  121DPPC    O9 6009   7.405   3.183   1.694
  121DPPC   O10 6010   7.613   3.035   1.714
  121DPPC   O11 6011   7.614   3.255   1.818
  121DPPC   C12 6012   7.728   3.209   1.891
  121DPPC   C13 6013   7.767   3.289   2.016
  121DPPC   O14 6014   7.890   3.248   2.078
  121DPPC   C15 6015   7.991   3.339   2.080
  121DPPC   O16 6016   7.996   3.428   1.994
  121DPPC   C17 6017   8.111   3.316   2.171
  121DPPC   C18 6018   8.107   3.410   2.293
  121DPPC   C19 6019   8.002   3.360   2.392
  121DPPC   C20 6020   8.021   3.436   2.524
  121DPPC   C21 6021   7.973   3.359   2.648
  121DPPC   C22 6022   8.006   3.448   2.769
  121DPPC   C23 6023   7.927   3.408   2.894
  121DPPC   C24 6024   7.779   3.438   2.871
  121DPPC   C25 6025   7.697   3.389   2.990
  121DPPC   C26 6026   7.749   3.442   3.124
  121DPPC   C27 6027   7.702   3.584   3.154
  121DPPC   C28 6028   7.779   3.636   3.276
  121DPPC   C29 6029   7.921   3.655   3.223
  121DPPC   C30 6030   8.014   3.699   3.336
  121DPPC   C31 6031   8.019   3.599   3.452
  121DPPC   C32 6032   7.657   3.275   2.122
  121DPPC   O33 6033   7.654   3.387   2.210
  121DPPC   C34 6034   7.571   3.365   2.315
  121DPPC   O35 6035   7.464   3.304   2.302
  121DPPC   C36 6036   7.608   3.430   2.449
  121DPPC   C37 6037   7.622   3.580   2.427
  121DPPC   C38 6038   7.699   3.649   2.540
  121DPPC   C39 6039   7.729   3.798   2.524
  121DPPC   C40 6040   7.812   3.832   2.648
  121DPPC   C41 6041   7.857   3.978   2.636
  121DPPC   C42 6042   7.926   4.015   2.768
  121DPPC   C43 6043   7.830   4.000   2.887
  121DPPC   C44 6044   7.893   4.067   3.009
  121DPPC   C45 6045   7.798   4.081   3.129
  121DPPC   C46 6046   7.883   4.142   3.241
  121DPPC   C47 6047   7.809   4.159   3.374
  121DPPC   C48 6048   7.909   4.188   3.486
  121DPPC   C49 6049   7.842   4.197   3.623
  121DPPC   C50 6050   7.952   4.251   3.715
  122DPPC    C1 6051   6.857   6.598   1.575
  122DPPC    C2 6052   7.090   6.612   1.528
  122DPPC    C3 6053   6.936   6.758   1.431
  122DPPC    N4 6054   6.969   6.691   1.557
  122DPPC    C5 6055   6.973   6.777   1.677
  122DPPC    C6 6056   7.094   6.866   1.704
  122DPPC    O7 6057   7.107   6.980   1.619
  122DPPC    P8 6058   7.267   6.999   1.625
  122DPPC    O9 6059   7.288   7.125   1.550
  122DPPC   O10 6060   7.318   6.865   1.592
  122DPPC   O11 6061   7.286   7.044   1.779
  122DPPC   C12 6062   7.227   7.167   1.823
  122DPPC   C13 6063   7.278   7.208   1.962
  122DPPC   O14 6064   7.416   7.236   1.985
  122DPPC   C15 6065   7.468   7.356   1.948
  122DPPC   O16 6066   7.403   7.438   1.882
  122DPPC   C17 6067   7.595   7.397   2.022
  122DPPC   C18 6068   7.580   7.388   2.174
  122DPPC   C19 6069   7.716   7.437   2.225
  122DPPC   C20 6070   7.709   7.443   2.377
  122DPPC   C21 6071   7.851   7.443   2.436
  122DPPC   C22 6072   7.918   7.306   2.441
  122DPPC   C23 6073   8.055   7.320   2.508
  122DPPC   C24 6074   8.078   7.179   2.563
  122DPPC   C25 6075   8.196   7.166   2.659
  122DPPC   C26 6076   8.197   7.018   2.700
  122DPPC   C27 6077   8.292   7.003   2.819
  122DPPC   C28 6078   8.258   7.109   2.923
  122DPPC   C29 6079   8.331   7.086   3.056
  122DPPC   C30 6080   8.320   7.212   3.141
  122DPPC   C31 6081   8.366   7.193   3.286
  122DPPC   C32 6082   7.238   7.084   2.042
  122DPPC   O33 6083   7.095   7.083   2.049
  122DPPC   C34 6084   7.037   6.985   2.123
  122DPPC   O35 6085   7.091   6.875   2.125
  122DPPC   C36 6086   6.887   7.002   2.150
  122DPPC   C37 6087   6.859   6.976   2.298
  122DPPC   C38 6088   6.842   6.826   2.319
  122DPPC   C39 6089   6.812   6.805   2.468
  122DPPC   C40 6090   6.933   6.838   2.556
  122DPPC   C41 6091   6.894   6.813   2.701
  122DPPC   C42 6092   7.005   6.833   2.805
  122DPPC   C43 6093   7.059   6.975   2.815
  122DPPC   C44 6094   7.195   6.987   2.885
  122DPPC   C45 6095   7.180   6.925   3.025
  122DPPC   C46 6096   7.310   6.937   3.104
  122DPPC   C47 6097   7.336   6.817   3.196
  122DPPC   C48 6098   7.461   6.829   3.285
  122DPPC   C49 6099   7.581   6.779   3.205
  122DPPC   C50 6100   7.705   6.823   3.284
  123DPPC    C1 6101   8.081   8.134   1.813
  123DPPC    C2 6102   7.897   8.239   1.729
  123DPPC    C3 6103   8.012   8.130   1.583
  123DPPC    N4 6104   7.968   8.110   1.722
  123DPPC    C5 6105   7.888   7.989   1.745
  123DPPC    C6 6106   7.958   7.855   1.723
  123DPPC    O7 6107   7.868   7.746   1.702
  123DPPC    P8 6108   7.956   7.630   1.632
  123DPPC    O9 6109   8.018   7.717   1.529
  123DPPC   O10 6110   7.857   7.523   1.607
  123DPPC   O11 6111   8.045   7.602   1.764
  123DPPC   C12 6112   7.994   7.476   1.811
  123DPPC   C13 6113   8.076   7.436   1.934
  123DPPC   O14 6114   8.016   7.316   1.984
  123DPPC   C15 6115   8.079   7.200   1.951
  123DPPC   O16 6116   8.150   7.193   1.852
  123DPPC   C17 6117   8.008   7.072   1.997
  123DPPC   C18 6118   8.106   6.975   2.062
  123DPPC   C19 6119   8.036   6.852   2.121
  123DPPC   C20 6120   8.139   6.779   2.207
  123DPPC   C21 6121   8.132   6.814   2.356
  123DPPC   C22 6122   8.040   6.732   2.447
  123DPPC   C23 6123   8.054   6.581   2.426
  123DPPC   C24 6124   7.937   6.526   2.509
  123DPPC   C25 6125   7.916   6.375   2.498
  123DPPC   C26 6126   7.799   6.328   2.586
  123DPPC   C27 6127   7.755   6.185   2.555
  123DPPC   C28 6128   7.661   6.123   2.658
  123DPPC   C29 6129   7.747   6.120   2.784
  123DPPC   C30 6130   7.694   6.036   2.901
  123DPPC   C31 6131   7.771   6.054   3.032
  123DPPC   C32 6132   8.059   7.555   2.028
  123DPPC   O33 6133   8.182   7.599   2.087
  123DPPC   C34 6134   8.158   7.699   2.176
  123DPPC   O35 6135   8.066   7.700   2.257
  123DPPC   C36 6136   8.290   7.777   2.188
  123DPPC   C37 6137   8.328   7.809   2.332
  123DPPC   C38 6138   8.363   7.685   2.415
  123DPPC   C39 6139   8.373   7.710   2.565
  123DPPC   C40 6140   8.409   7.585   2.645
  123DPPC   C41 6141   8.383   7.603   2.795
  123DPPC   C42 6142   8.247   7.549   2.838
  123DPPC   C43 6143   8.248   7.589   2.985
  123DPPC   C44 6144   8.108   7.569   3.043
  123DPPC   C45 6145   8.109   7.601   3.193
  123DPPC   C46 6146   8.165   7.743   3.199
  123DPPC   C47 6147   8.184   7.763   3.349
  123DPPC   C48 6148   8.250   7.638   3.409
  123DPPC   C49 6149   8.299   7.663   3.552
  123DPPC   C50 6150   8.189   7.679   3.658
  124DPPC    C1 6151   6.318   3.413   2.089
  124DPPC    C2 6152   6.294   3.253   2.253
  124DPPC    C3 6153   6.115   3.291   2.094
  124DPPC    N4 6154   6.260   3.280   2.113
  124DPPC    C5 6155   6.309   3.179   2.018
  124DPPC    C6 6156   6.458   3.179   1.984
  124DPPC    O7 6157   6.553   3.183   2.091
  124DPPC    P8 6158   6.701   3.181   2.028
  124DPPC    O9 6159   6.688   3.247   1.896
  124DPPC   O10 6160   6.785   3.059   2.038
  124DPPC   O11 6161   6.761   3.278   2.141
  124DPPC   C12 6162   6.775   3.216   2.269
  124DPPC   C13 6163   6.811   3.313   2.381
  124DPPC   O14 6164   6.806   3.249   2.510
  124DPPC   C15 6165   6.912   3.170   2.541
  124DPPC   O16 6166   7.001   3.157   2.458
  124DPPC   C17 6167   6.926   3.104   2.679
  124DPPC   C18 6168   7.068   3.109   2.736
  124DPPC   C19 6169   7.069   3.074   2.885
  124DPPC   C20 6170   6.979   3.160   2.974
  124DPPC   C21 6171   6.989   3.115   3.120
  124DPPC   C22 6172   6.909   3.198   3.220
  124DPPC   C23 6173   6.907   3.147   3.364
  124DPPC   C24 6174   6.781   3.209   3.424
  124DPPC   C25 6175   6.660   3.185   3.334
  124DPPC   C26 6176   6.530   3.222   3.405
  124DPPC   C27 6177   6.522   3.374   3.405
  124DPPC   C28 6178   6.405   3.407   3.497
  124DPPC   C29 6179   6.405   3.540   3.574
  124DPPC   C30 6180   6.293   3.538   3.678
  124DPPC   C31 6181   6.338   3.497   3.819
  124DPPC   C32 6182   6.724   3.438   2.372
  124DPPC   O33 6183   6.581   3.442   2.382
  124DPPC   C34 6184   6.542   3.572   2.371
  124DPPC   O35 6185   6.591   3.639   2.281
  124DPPC   C36 6186   6.436   3.621   2.470
  124DPPC   C37 6187   6.427   3.536   2.597
  124DPPC   C38 6188   6.312   3.584   2.686
  124DPPC   C39 6189   6.294   3.489   2.804
  124DPPC   C40 6190   6.156   3.503   2.869
  124DPPC   C41 6191   6.144   3.450   3.012
  124DPPC   C42 6192   5.996   3.434   3.049
  124DPPC   C43 6193   5.969   3.410   3.198
  124DPPC   C44 6194   5.935   3.262   3.215
  124DPPC   C45 6195   5.918   3.244   3.366
  124DPPC   C46 6196   5.931   3.094   3.391
  124DPPC   C47 6197   5.899   3.064   3.537
  124DPPC   C48 6198   5.907   2.913   3.564
  124DPPC   C49 6199   5.814   2.870   3.677
  124DPPC   C50 6200   5.838   2.721   3.702
  125DPPC    C1 6201   2.375   0.089   1.482
  125DPPC    C2 6202   2.247   0.204   1.650
  125DPPC    C3 6203   2.148   0.116   1.462
  125DPPC    N4 6204   2.252   0.087   1.561
  125DPPC    C5 6205   2.235  -0.033   1.646
  125DPPC    C6 6206   2.239  -0.168   1.574
  125DPPC    O7 6207   2.114  -0.203   1.513
  125DPPC    P8 6208   2.135  -0.327   1.414
  125DPPC    O9 6209   2.266  -0.303   1.349
  125DPPC   O10 6210   2.009  -0.340   1.337
  125DPPC   O11 6211   2.137  -0.429   1.539
  125DPPC   C12 6212   2.001  -0.470   1.558
  125DPPC   C13 6213   1.974  -0.532   1.695
  125DPPC   O14 6214   1.897  -0.451   1.784
  125DPPC   C15 6215   1.765  -0.442   1.751
  125DPPC   O16 6216   1.701  -0.525   1.686
  125DPPC   C17 6217   1.699  -0.335   1.838
  125DPPC   C18 6218   1.634  -0.404   1.958
  125DPPC   C19 6219   1.555  -0.298   2.034
  125DPPC   C20 6220   1.634  -0.210   2.131
  125DPPC   C21 6221   1.544  -0.100   2.188
  125DPPC   C22 6222   1.621  -0.031   2.301
  125DPPC   C23 6223   1.518   0.054   2.377
  125DPPC   C24 6224   1.400  -0.040   2.399
  125DPPC   C25 6225   1.286   0.026   2.478
  125DPPC   C26 6226   1.327   0.080   2.615
  125DPPC   C27 6227   1.219   0.167   2.678
  125DPPC   C28 6228   1.108   0.072   2.724
  125DPPC   C29 6229   0.981   0.153   2.748
  125DPPC   C30 6230   0.864   0.072   2.805
  125DPPC   C31 6231   0.744   0.166   2.819
  125DPPC   C32 6232   2.111  -0.562   1.757
  125DPPC   O33 6233   2.115  -0.636   1.879
  125DPPC   C34 6234   2.239  -0.657   1.933
  125DPPC   O35 6235   2.337  -0.662   1.859
  125DPPC   C36 6236   2.235  -0.710   2.076
  125DPPC   C37 6237   2.146  -0.624   2.166
  125DPPC   C38 6238   2.215  -0.494   2.208
  125DPPC   C39 6239   2.355  -0.529   2.260
  125DPPC   C40 6240   2.433  -0.399   2.284
  125DPPC   C41 6241   2.361  -0.296   2.370
  125DPPC   C42 6242   2.460  -0.194   2.427
  125DPPC   C43 6243   2.370  -0.099   2.507
  125DPPC   C44 6244   2.456   0.017   2.557
  125DPPC   C45 6245   2.523   0.096   2.445
  125DPPC   C46 6246   2.580   0.226   2.501
  125DPPC   C47 6247   2.460   0.286   2.575
  125DPPC   C48 6248   2.492   0.423   2.634
  125DPPC   C49 6249   2.380   0.457   2.732
  125DPPC   C50 6250   2.432   0.567   2.825
  126DPPC    C1 6251   6.532   3.827   1.726
  126DPPC    C2 6252   6.498   3.986   1.566
  126DPPC    C3 6253   6.555   3.771   1.483
  126DPPC    N4 6254   6.481   3.841   1.589
  126DPPC    C5 6255   6.338   3.813   1.573
  126DPPC    C6 6256   6.282   3.681   1.628
  126DPPC    O7 6257   6.144   3.651   1.610
  126DPPC    P8 6258   6.075   3.517   1.666
  126DPPC    O9 6259   6.182   3.445   1.739
  126DPPC   O10 6260   6.008   3.475   1.541
  126DPPC   O11 6261   5.979   3.590   1.772
  126DPPC   C12 6262   6.031   3.640   1.896
  126DPPC   C13 6263   6.083   3.783   1.888
  126DPPC   O14 6264   6.140   3.829   2.012
  126DPPC   C15 6265   6.268   3.797   2.044
  126DPPC   O16 6266   6.335   3.714   1.982
  126DPPC   C17 6267   6.317   3.874   2.166
  126DPPC   C18 6268   6.196   3.922   2.247
  126DPPC   C19 6269   6.237   3.948   2.392
  126DPPC   C20 6270   6.133   4.019   2.479
  126DPPC   C21 6271   6.172   4.031   2.626
  126DPPC   C22 6272   6.066   4.107   2.706
  126DPPC   C23 6273   6.061   4.255   2.668
  126DPPC   C24 6274   5.970   4.323   2.770
  126DPPC   C25 6275   6.033   4.317   2.910
  126DPPC   C26 6276   5.962   4.410   3.009
  126DPPC   C27 6277   6.036   4.428   3.141
  126DPPC   C28 6278   6.169   4.505   3.140
  126DPPC   C29 6279   6.242   4.479   3.272
  126DPPC   C30 6280   6.255   4.328   3.292
  126DPPC   C31 6281   6.295   4.290   3.435
  126DPPC   C32 6282   5.963   3.862   1.835
  126DPPC   O33 6283   5.853   3.861   1.925
  126DPPC   C34 6284   5.754   3.947   1.888
  126DPPC   O35 6285   5.742   3.986   1.772
  126DPPC   C36 6286   5.643   3.951   1.993
  126DPPC   C37 6287   5.677   4.031   2.119
  126DPPC   C38 6288   5.573   4.040   2.230
  126DPPC   C39 6289   5.643   4.072   2.362
  126DPPC   C40 6290   5.538   4.124   2.460
  126DPPC   C41 6291   5.613   4.147   2.591
  126DPPC   C42 6292   5.524   4.195   2.705
  126DPPC   C43 6293   5.607   4.203   2.834
  126DPPC   C44 6294   5.512   4.257   2.940
  126DPPC   C45 6295   5.572   4.230   3.078
  126DPPC   C46 6296   5.472   4.262   3.190
  126DPPC   C47 6297   5.535   4.244   3.328
  126DPPC   C48 6298   5.429   4.241   3.438
  126DPPC   C49 6299   5.495   4.227   3.575
  126DPPC   C50 6300   5.394   4.198   3.686
  127DPPC    C1 6301   2.187   6.247   1.272
  127DPPC    C2 6302   2.364   6.330   1.404
  127DPPC    C3 6303   2.365   6.316   1.156
  127DPPC    N4 6304   2.291   6.351   1.278
  127DPPC    C5 6305   2.209   6.472   1.272
  127DPPC    C6 6306   2.286   6.602   1.298
  127DPPC    O7 6307   2.189   6.699   1.336
  127DPPC    P8 6308   2.260   6.836   1.383
  127DPPC    O9 6309   2.240   6.926   1.267
  127DPPC   O10 6310   2.396   6.812   1.437
  127DPPC   O11 6311   2.162   6.894   1.497
  127DPPC   C12 6312   2.176   6.822   1.620
  127DPPC   C13 6313   2.129   6.892   1.748
  127DPPC   O14 6314   2.153   6.819   1.869
  127DPPC   C15 6315   2.274   6.802   1.928
  127DPPC   O16 6316   2.372   6.835   1.862
  127DPPC   C17 6317   2.286   6.775   2.079
  127DPPC   C18 6318   2.425   6.720   2.113
  127DPPC   C19 6319   2.438   6.694   2.263
  127DPPC   C20 6320   2.580   6.646   2.294
  127DPPC   C21 6321   2.589   6.630   2.446
  127DPPC   C22 6322   2.584   6.764   2.518
  127DPPC   C23 6323   2.591   6.745   2.670
  127DPPC   C24 6324   2.717   6.681   2.728
  127DPPC   C25 6325   2.711   6.693   2.880
  127DPPC   C26 6326   2.843   6.628   2.922
  127DPPC   C27 6327   2.841   6.602   3.072
  127DPPC   C28 6328   2.735   6.497   3.107
  127DPPC   C29 6329   2.759   6.447   3.249
  127DPPC   C30 6330   2.646   6.346   3.271
  127DPPC   C31 6331   2.654   6.287   3.412
  127DPPC   C32 6332   1.981   6.915   1.716
  127DPPC   O33 6333   1.901   7.014   1.780
  127DPPC   C34 6334   1.810   7.073   1.698
  127DPPC   O35 6335   1.812   7.047   1.577
  127DPPC   C36 6336   1.713   7.173   1.760
  127DPPC   C37 6337   1.666   7.115   1.894
  127DPPC   C38 6338   1.534   7.184   1.931
  127DPPC   C39 6339   1.487   7.149   2.072
  127DPPC   C40 6340   1.356   7.219   2.109
  127DPPC   C41 6341   1.280   7.159   2.227
  127DPPC   C42 6342   1.371   7.176   2.349
  127DPPC   C43 6343   1.307   7.116   2.475
  127DPPC   C44 6344   1.396   7.165   2.590
  127DPPC   C45 6345   1.544   7.130   2.577
  127DPPC   C46 6346   1.603   7.180   2.709
  127DPPC   C47 6347   1.746   7.125   2.711
  127DPPC   C48 6348   1.794   7.132   2.856
  127DPPC   C49 6349   1.787   7.277   2.904
  127DPPC   C50 6350   1.863   7.295   3.035
  128DPPC    C1 6351   2.009   4.063   1.432
  128DPPC    C2 6352   1.804   3.946   1.416
  128DPPC    C3 6353   1.994   3.860   1.301
  128DPPC    N4 6354   1.950   3.929   1.423
  128DPPC    C5 6355   1.983   3.853   1.544
  128DPPC    C6 6356   2.126   3.801   1.559
  128DPPC    O7 6357   2.185   3.841   1.683
  128DPPC    P8 6358   2.343   3.866   1.662
  128DPPC    O9 6359   2.353   4.014   1.669
  128DPPC   O10 6360   2.404   3.784   1.554
  128DPPC   O11 6361   2.393   3.793   1.796
  128DPPC   C12 6362   2.427   3.656   1.777
  128DPPC   C13 6363   2.435   3.573   1.905
  128DPPC   O14 6364   2.341   3.465   1.911
  128DPPC   C15 6365   2.396   3.351   1.959
  128DPPC   O16 6366   2.507   3.320   1.914
  128DPPC   C17 6367   2.301   3.243   2.012
  128DPPC   C18 6368   2.350   3.200   2.150
  128DPPC   C19 6369   2.343   3.312   2.254
  128DPPC   C20 6370   2.337   3.266   2.400
  128DPPC   C21 6371   2.297   3.376   2.499
  128DPPC   C22 6372   2.325   3.334   2.644
  128DPPC   C23 6373   2.311   3.456   2.735
  128DPPC   C24 6374   2.309   3.414   2.882
  128DPPC   C25 6375   2.270   3.539   2.962
  128DPPC   C26 6376   2.385   3.634   2.996
  128DPPC   C27 6377   2.334   3.705   3.121
  128DPPC   C28 6378   2.454   3.768   3.192
  128DPPC   C29 6379   2.554   3.658   3.225
  128DPPC   C30 6380   2.658   3.716   3.321
  128DPPC   C31 6381   2.594   3.761   3.453
  128DPPC   C32 6382   2.420   3.665   2.026
  128DPPC   O33 6383   2.488   3.616   2.142
  128DPPC   C34 6384   2.524   3.718   2.225
  128DPPC   O35 6385   2.510   3.838   2.201
  128DPPC   C36 6386   2.560   3.673   2.367
  128DPPC   C37 6387   2.616   3.783   2.457
  128DPPC   C38 6388   2.633   3.718   2.594
  128DPPC   C39 6389   2.678   3.823   2.695
  128DPPC   C40 6390   2.753   3.753   2.808
  128DPPC   C41 6391   2.819   3.846   2.910
  128DPPC   C42 6392   2.924   3.766   2.987
  128DPPC   C43 6393   2.999   3.870   3.071
  128DPPC   C44 6394   3.022   3.793   3.201
  128DPPC   C45 6395   3.096   3.882   3.302
  128DPPC   C46 6396   3.225   3.936   3.241
  128DPPC   C47 6397   3.305   4.004   3.353
  128DPPC   C48 6398   3.431   4.054   3.282
  128DPPC   C49 6399   3.524   4.124   3.381
  128DPPC   C50 6400   3.645   4.182   3.307
  129DPPC    C1 6401   2.737   2.233   5.622
  129DPPC    C2 6402   2.649   2.207   5.849
  129DPPC    C3 6403   2.688   2.418   5.749
  129DPPC    N4 6404   2.642   2.281   5.722
  129DPPC    C5 6405   2.501   2.278   5.679
  129DPPC    C6 6406   2.444   2.157   5.605
  129DPPC    O7 6407   2.341   2.188   5.511
  129DPPC    P8 6408   2.249   2.059   5.483
  129DPPC    O9 6409   2.155   2.128   5.392
  129DPPC   O10 6410   2.202   2.017   5.616
  129DPPC   O11 6411   2.351   1.953   5.418
  129DPPC   C12 6412   2.387   2.013   5.293
  129DPPC   C13 6413   2.534   1.982   5.265
  129DPPC   O14 6414   2.587   2.064   5.160
  129DPPC   C15 6415   2.643   2.184   5.190
  129DPPC   O16 6416   2.600   2.239   5.291
  129DPPC   C17 6417   2.714   2.270   5.085
  129DPPC   C18 6418   2.641   2.400   5.054
  129DPPC   C19 6419   2.669   2.453   4.913
  129DPPC   C20 6420   2.625   2.340   4.819
  129DPPC   C21 6421   2.653   2.380   4.674
  129DPPC   C22 6422   2.583   2.277   4.585
  129DPPC   C23 6423   2.539   2.345   4.455
  129DPPC   C24 6424   2.500   2.241   4.351
  129DPPC   C25 6425   2.474   2.300   4.212
  129DPPC   C26 6426   2.483   2.193   4.103
  129DPPC   C27 6427   2.486   2.258   3.965
  129DPPC   C28 6428   2.508   2.145   3.864
  129DPPC   C29 6429   2.527   2.205   3.724
  129DPPC   C30 6430   2.506   2.096   3.620
  129DPPC   C31 6431   2.548   2.155   3.485
  129DPPC   C32 6432   2.546   1.832   5.240
  129DPPC   O33 6433   2.435   1.786   5.163
  129DPPC   C34 6434   2.444   1.652   5.138
  129DPPC   O35 6435   2.541   1.593   5.185
  129DPPC   C36 6436   2.338   1.584   5.053
  129DPPC   C37 6437   2.381   1.446   5.002
  129DPPC   C38 6438   2.504   1.469   4.913
  129DPPC   C39 6439   2.543   1.329   4.864
  129DPPC   C40 6440   2.444   1.268   4.765
  129DPPC   C41 6441   2.526   1.158   4.697
  129DPPC   C42 6442   2.456   1.105   4.571
  129DPPC   C43 6443   2.530   0.978   4.528
  129DPPC   C44 6444   2.445   0.900   4.428
  129DPPC   C45 6445   2.533   0.798   4.355
  129DPPC   C46 6446   2.457   0.732   4.239
  129DPPC   C47 6447   2.551   0.636   4.166
  129DPPC   C48 6448   2.492   0.609   4.027
  129DPPC   C49 6449   2.587   0.526   3.941
  129DPPC   C50 6450   2.530   0.460   3.815
  130DPPC    C1 6451   0.627   7.741   1.240
  130DPPC    C2 6452   0.804   7.904   1.238
  130DPPC    C3 6453   0.575   7.968   1.257
  130DPPC    N4 6454   0.675   7.868   1.297
  130DPPC    C5 6455   0.659   7.864   1.443
  130DPPC    C6 6456   0.733   7.755   1.520
  130DPPC    O7 6457   0.643   7.663   1.582
  130DPPC    P8 6458   0.714   7.599   1.711
  130DPPC    O9 6459   0.845   7.664   1.728
  130DPPC   O10 6460   0.695   7.452   1.710
  130DPPC   O11 6461   0.608   7.663   1.814
  130DPPC   C12 6462   0.675   7.768   1.886
  130DPPC   C13 6463   0.589   7.832   1.995
  130DPPC   O14 6464   0.678   7.869   2.101
  130DPPC   C15 6465   0.767   7.972   2.098
  130DPPC   O16 6466   0.753   8.054   2.007
  130DPPC   C17 6467   0.853   7.986   2.224
  130DPPC   C18 6468   0.800   8.085   2.328
  130DPPC   C19 6469   0.812   8.019   2.465
  130DPPC   C20 6470   0.953   7.962   2.485
  130DPPC   C21 6471   1.043   8.084   2.510
  130DPPC   C22 6472   1.191   8.043   2.510
  130DPPC   C23 6473   1.257   8.148   2.599
  130DPPC   C24 6474   1.271   8.105   2.745
  130DPPC   C25 6475   1.388   8.007   2.759
  130DPPC   C26 6476   1.401   7.960   2.904
  130DPPC   C27 6477   1.444   8.064   3.008
  130DPPC   C28 6478   1.452   8.026   3.156
  130DPPC   C29 6479   1.558   7.915   3.155
  130DPPC   C30 6480   1.571   7.855   3.295
  130DPPC   C31 6481   1.440   7.848   3.373
  130DPPC   C32 6482   0.487   7.725   2.035
  130DPPC   O33 6483   0.371   7.780   2.098
  130DPPC   C34 6484   0.298   7.680   2.155
  130DPPC   O35 6485   0.318   7.561   2.132
  130DPPC   C36 6486   0.168   7.726   2.221
  130DPPC   C37 6487   0.114   7.621   2.319
  130DPPC   C38 6488  -0.031   7.637   2.364
  130DPPC   C39 6489  -0.064   7.774   2.424
  130DPPC   C40 6490  -0.195   7.791   2.501
  130DPPC   C41 6491  -0.206   7.941   2.524
  130DPPC   C42 6492  -0.351   7.975   2.560
  130DPPC   C43 6493  -0.375   8.122   2.595
  130DPPC   C44 6494  -0.491   8.153   2.689
  130DPPC   C45 6495  -0.512   8.303   2.711
  130DPPC   C46 6496  -0.625   8.344   2.805
  130DPPC   C47 6497  -0.586   8.293   2.944
  130DPPC   C48 6498  -0.709   8.293   3.036
  130DPPC   C49 6499  -0.762   8.437   3.044
  130DPPC   C50 6500  -0.908   8.438   3.091
  131DPPC    C1 6501   1.370   4.060   5.550
  131DPPC    C2 6502   1.395   3.885   5.380
  131DPPC    C3 6503   1.256   4.074   5.349
  131DPPC    N4 6504   1.384   4.029   5.407
  131DPPC    C5 6505   1.484   4.109   5.335
  131DPPC    C6 6506   1.497   4.259   5.364
  131DPPC    O7 6507   1.418   4.339   5.275
  131DPPC    P8 6508   1.437   4.491   5.324
  131DPPC    O9 6509   1.496   4.497   5.460
  131DPPC   O10 6510   1.315   4.568   5.292
  131DPPC   O11 6511   1.550   4.528   5.216
  131DPPC   C12 6512   1.491   4.514   5.087
  131DPPC   C13 6513   1.595   4.510   4.975
  131DPPC   O14 6514   1.530   4.525   4.849
  131DPPC   C15 6515   1.587   4.622   4.771
  131DPPC   O16 6516   1.686   4.686   4.805
  131DPPC   C17 6517   1.539   4.614   4.626
  131DPPC   C18 6518   1.643   4.529   4.552
  131DPPC   C19 6519   1.587   4.498   4.413
  131DPPC   C20 6520   1.705   4.483   4.317
  131DPPC   C21 6521   1.665   4.436   4.177
  131DPPC   C22 6522   1.788   4.459   4.089
  131DPPC   C23 6523   1.766   4.403   3.948
  131DPPC   C24 6524   1.882   4.433   3.853
  131DPPC   C25 6525   2.018   4.386   3.904
  131DPPC   C26 6526   2.125   4.410   3.796
  131DPPC   C27 6527   2.265   4.377   3.849
  131DPPC   C28 6528   2.368   4.381   3.736
  131DPPC   C29 6529   2.511   4.386   3.791
  131DPPC   C30 6530   2.583   4.515   3.751
  131DPPC   C31 6531   2.731   4.516   3.789
  131DPPC   C32 6532   1.677   4.383   4.997
  131DPPC   O33 6533   1.751   4.322   4.891
  131DPPC   C34 6534   1.816   4.203   4.889
  131DPPC   O35 6535   1.785   4.126   4.980
  131DPPC   C36 6536   1.898   4.149   4.772
  131DPPC   C37 6537   1.814   4.155   4.644
  131DPPC   C38 6538   1.887   4.092   4.526
  131DPPC   C39 6539   1.794   4.100   4.404
  131DPPC   C40 6540   1.651   4.045   4.407
  131DPPC   C41 6541   1.610   4.047   4.259
  131DPPC   C42 6542   1.457   4.040   4.256
  131DPPC   C43 6543   1.413   4.034   4.109
  131DPPC   C44 6544   1.469   3.912   4.036
  131DPPC   C45 6545   1.403   3.899   3.899
  131DPPC   C46 6546   1.455   3.995   3.791
  131DPPC   C47 6547   1.454   3.931   3.652
  131DPPC   C48 6548   1.476   4.033   3.540
  131DPPC   C49 6549   1.475   3.967   3.402
  131DPPC   C50 6550   1.579   3.860   3.370
  132DPPC    C1 6551   9.180   6.455   1.124
  132DPPC    C2 6552   9.381   6.565   1.227
  132DPPC    C3 6553   9.238   6.678   1.085
  132DPPC    N4 6554   9.239   6.573   1.188
  132DPPC    C5 6555   9.158   6.609   1.306
  132DPPC    C6 6556   9.006   6.621   1.304
  132DPPC    O7 6557   8.957   6.653   1.435
  132DPPC    P8 6558   8.800   6.627   1.455
  132DPPC    O9 6559   8.781   6.483   1.425
  132DPPC   O10 6560   8.744   6.732   1.368
  132DPPC   O11 6561   8.789   6.643   1.615
  132DPPC   C12 6562   8.902   6.595   1.687
  132DPPC   C13 6563   8.895   6.624   1.837
  132DPPC   O14 6564   9.011   6.581   1.911
  132DPPC   C15 6565   9.124   6.656   1.910
  132DPPC   O16 6566   9.147   6.727   1.812
  132DPPC   C17 6567   9.225   6.644   2.024
  132DPPC   C18 6568   9.197   6.727   2.150
  132DPPC   C19 6569   9.306   6.713   2.257
  132DPPC   C20 6570   9.249   6.767   2.388
  132DPPC   C21 6571   9.318   6.734   2.521
  132DPPC   C22 6572   9.466   6.771   2.527
  132DPPC   C23 6573   9.490   6.803   2.675
  132DPPC   C24 6574   9.627   6.750   2.717
  132DPPC   C25 6575   9.664   6.789   2.861
  132DPPC   C26 6576   9.814   6.759   2.858
  132DPPC   C27 6577   9.855   6.764   3.006
  132DPPC   C28 6578  10.007   6.761   3.026
  132DPPC   C29 6579  10.029   6.713   3.170
  132DPPC   C30 6580  10.018   6.560   3.168
  132DPPC   C31 6581  10.034   6.501   3.308
  132DPPC   C32 6582   8.765   6.561   1.889
  132DPPC   O33 6583   8.746   6.558   2.030
  132DPPC   C34 6584   8.630   6.507   2.082
  132DPPC   O35 6585   8.539   6.481   2.003
  132DPPC   C36 6586   8.618   6.503   2.234
  132DPPC   C37 6587   8.543   6.620   2.299
  132DPPC   C38 6588   8.486   6.582   2.436
  132DPPC   C39 6589   8.442   6.704   2.516
  132DPPC   C40 6590   8.441   6.675   2.666
  132DPPC   C41 6591   8.343   6.561   2.698
  132DPPC   C42 6592   8.352   6.527   2.847
  132DPPC   C43 6593   8.330   6.656   2.927
  132DPPC   C44 6594   8.300   6.612   3.070
  132DPPC   C45 6595   8.242   6.731   3.146
  132DPPC   C46 6596   8.230   6.692   3.294
  132DPPC   C47 6597   8.158   6.809   3.362
  132DPPC   C48 6598   8.150   6.801   3.514
  132DPPC   C49 6599   8.050   6.692   3.552
  132DPPC   C50 6600   8.061   6.669   3.703
  133DPPC    C1 6601   7.243   0.346   5.442
  133DPPC    C2 6602   7.221   0.548   5.533
  133DPPC    C3 6603   7.343   0.361   5.653
  133DPPC    N4 6604   7.318   0.438   5.530
  133DPPC    C5 6605   7.447   0.473   5.468
  133DPPC    C6 6606   7.548   0.573   5.523
  133DPPC    O7 6607   7.668   0.576   5.445
  133DPPC    P8 6608   7.779   0.676   5.504
  133DPPC    O9 6609   7.904   0.677   5.426
  133DPPC   O10 6610   7.761   0.668   5.651
  133DPPC   O11 6611   7.703   0.810   5.456
  133DPPC   C12 6612   7.728   0.832   5.317
  133DPPC   C13 6613   7.639   0.934   5.246
  133DPPC   O14 6614   7.693   1.067   5.232
  133DPPC   C15 6615   7.783   1.083   5.132
  133DPPC   O16 6616   7.818   0.979   5.075
  133DPPC   C17 6617   7.867   1.210   5.121
  133DPPC   C18 6618   7.804   1.334   5.057
  133DPPC   C19 6619   7.812   1.331   4.904
  133DPPC   C20 6620   7.760   1.464   4.849
  133DPPC   C21 6621   7.835   1.587   4.901
  133DPPC   C22 6622   7.754   1.713   4.868
  133DPPC   C23 6623   7.843   1.837   4.882
  133DPPC   C24 6624   7.745   1.956   4.887
  133DPPC   C25 6625   7.667   1.961   4.756
  133DPPC   C26 6626   7.552   2.061   4.749
  133DPPC   C27 6627   7.479   2.045   4.615
  133DPPC   C28 6628   7.368   2.151   4.617
  133DPPC   C29 6629   7.283   2.133   4.491
  133DPPC   C30 6630   7.151   2.210   4.494
  133DPPC   C31 6631   7.063   2.177   4.373
  133DPPC   C32 6632   7.514   0.944   5.334
  133DPPC   O33 6633   7.386   0.937   5.272
  133DPPC   C34 6634   7.339   0.812   5.245
  133DPPC   O35 6635   7.381   0.707   5.295
  133DPPC   C36 6636   7.201   0.810   5.179
  133DPPC   C37 6637   7.218   0.791   5.028
  133DPPC   C38 6638   7.079   0.821   4.972
  133DPPC   C39 6639   7.098   0.843   4.822
  133DPPC   C40 6640   7.154   0.718   4.753
  133DPPC   C41 6641   7.147   0.740   4.602
  133DPPC   C42 6642   7.158   0.608   4.525
  133DPPC   C43 6643   7.134   0.638   4.378
  133DPPC   C44 6644   7.232   0.729   4.303
  133DPPC   C45 6645   7.210   0.725   4.152
  133DPPC   C46 6646   7.223   0.582   4.101
  133DPPC   C47 6647   7.196   0.576   3.950
  133DPPC   C48 6648   7.217   0.436   3.891
  133DPPC   C49 6649   7.211   0.437   3.739
  133DPPC   C50 6650   7.065   0.452   3.693
  134DPPC    C1 6651   0.217   7.807   5.283
  134DPPC    C2 6652   0.157   7.855   5.490
  134DPPC    C3 6653   0.393   7.839   5.440
  134DPPC    N4 6654   0.263   7.891   5.395
  134DPPC    C5 6655   0.263   8.036   5.375
  134DPPC    C6 6656   0.348   8.099   5.265
  134DPPC    O7 6657   0.320   8.066   5.129
  134DPPC    P8 6658   0.426   8.153   5.045
  134DPPC    O9 6659   0.548   8.070   5.058
  134DPPC   O10 6660   0.416   8.288   5.105
  134DPPC   O11 6661   0.375   8.145   4.893
  134DPPC   C12 6662   0.392   8.267   4.819
  134DPPC   C13 6663   0.425   8.247   4.671
  134DPPC   O14 6664   0.424   8.369   4.596
  134DPPC   C15 6665   0.520   8.465   4.598
  134DPPC   O16 6666   0.628   8.433   4.647
  134DPPC   C17 6667   0.503   8.595   4.521
  134DPPC   C18 6668   0.412   8.582   4.398
  134DPPC   C19 6669   0.439   8.698   4.302
  134DPPC   C20 6670   0.367   8.686   4.168
  134DPPC   C21 6671   0.440   8.764   4.059
  134DPPC   C22 6672   0.345   8.871   4.005
  134DPPC   C23 6673   0.399   8.966   3.898
  134DPPC   C24 6674   0.384   9.112   3.941
  134DPPC   C25 6675   0.452   9.204   3.840
  134DPPC   C26 6676   0.433   9.352   3.873
  134DPPC   C27 6677   0.503   9.435   3.765
  134DPPC   C28 6678   0.455   9.580   3.764
  134DPPC   C29 6679   0.563   9.666   3.699
  134DPPC   C30 6680   0.568   9.617   3.555
  134DPPC   C31 6681   0.671   9.705   3.483
  134DPPC   C32 6682   0.316   8.150   4.624
  134DPPC   O33 6683   0.184   8.197   4.650
  134DPPC   C34 6684   0.082   8.106   4.648
  134DPPC   O35 6685   0.103   7.990   4.612
  134DPPC   C36 6686  -0.051   8.164   4.694
  134DPPC   C37 6687  -0.134   8.208   4.573
  134DPPC   C38 6688  -0.187   8.098   4.481
  134DPPC   C39 6689  -0.260   8.157   4.360
  134DPPC   C40 6690  -0.311   8.062   4.251
  134DPPC   C41 6691  -0.352   8.128   4.120
  134DPPC   C42 6692  -0.441   8.249   4.150
  134DPPC   C43 6693  -0.497   8.289   4.013
  134DPPC   C44 6694  -0.557   8.164   3.950
  134DPPC   C45 6695  -0.668   8.224   3.863
  134DPPC   C46 6696  -0.746   8.115   3.788
  134DPPC   C47 6697  -0.869   8.168   3.713
  134DPPC   C48 6698  -0.958   8.047   3.683
  134DPPC   C49 6699  -1.075   8.108   3.606
  134DPPC   C50 6700  -1.016   8.187   3.490
  135DPPC    C1 6701   7.829   7.821   5.568
  135DPPC    C2 6702   7.890   7.997   5.702
  135DPPC    C3 6703   8.023   7.972   5.508
  135DPPC    N4 6704   7.887   7.956   5.561
  135DPPC    C5 6705   7.787   8.038   5.489
  135DPPC    C6 6706   7.737   7.992   5.352
  135DPPC    O7 6707   7.613   8.035   5.295
  135DPPC    P8 6708   7.607   7.991   5.141
  135DPPC    O9 6709   7.476   8.034   5.086
  135DPPC   O10 6710   7.662   7.854   5.134
  135DPPC   O11 6711   7.719   8.099   5.099
  135DPPC   C12 6712   7.670   8.217   5.034
  135DPPC   C13 6713   7.777   8.325   5.022
  135DPPC   O14 6714   7.726   8.459   5.009
  135DPPC   C15 6715   7.813   8.564   5.006
  135DPPC   O16 6716   7.918   8.553   5.068
  135DPPC   C17 6717   7.751   8.704   4.997
  135DPPC   C18 6718   7.841   8.804   4.924
  135DPPC   C19 6719   7.883   8.750   4.788
  135DPPC   C20 6720   7.768   8.710   4.696
  135DPPC   C21 6721   7.793   8.581   4.618
  135DPPC   C22 6722   7.651   8.538   4.578
  135DPPC   C23 6723   7.581   8.639   4.488
  135DPPC   C24 6724   7.651   8.642   4.351
  135DPPC   C25 6725   7.579   8.715   4.237
  135DPPC   C26 6726   7.662   8.715   4.108
  135DPPC   C27 6727   7.594   8.805   4.005
  135DPPC   C28 6728   7.701   8.853   3.907
  135DPPC   C29 6729   7.617   8.947   3.820
  135DPPC   C30 6730   7.690   9.002   3.697
  135DPPC   C31 6731   7.654   8.920   3.573
  135DPPC   C32 6732   7.888   8.275   4.928
  135DPPC   O33 6733   7.835   8.217   4.809
  135DPPC   C34 6734   7.932   8.175   4.724
  135DPPC   O35 6735   8.049   8.207   4.747
  135DPPC   C36 6736   7.885   8.148   4.581
  135DPPC   C37 6737   7.756   8.067   4.599
  135DPPC   C38 6738   7.673   8.068   4.471
  135DPPC   C39 6739   7.550   7.978   4.463
  135DPPC   C40 6740   7.475   7.967   4.329
  135DPPC   C41 6741   7.460   8.112   4.282
  135DPPC   C42 6742   7.387   8.102   4.147
  135DPPC   C43 6743   7.479   8.020   4.056
  135DPPC   C44 6744   7.429   8.033   3.912
  135DPPC   C45 6745   7.537   7.988   3.812
  135DPPC   C46 6746   7.503   7.974   3.664
  135DPPC   C47 6747   7.411   7.855   3.634
  135DPPC   C48 6748   7.379   7.854   3.484
  135DPPC   C49 6749   7.288   7.742   3.433
  135DPPC   C50 6750   7.271   7.758   3.282
  136DPPC    C1 6751   7.052   3.255   5.980
  136DPPC    C2 6752   7.263   3.254   5.896
  136DPPC    C3 6753   7.145   3.440   5.867
  136DPPC    N4 6754   7.172   3.340   5.971
  136DPPC    C5 6755   7.228   3.392   6.097
  136DPPC    C6 6756   7.374   3.436   6.093
  136DPPC    O7 6757   7.402   3.555   6.019
  136DPPC    P8 6758   7.555   3.553   5.969
  136DPPC    O9 6759   7.619   3.453   6.058
  136DPPC   O10 6760   7.592   3.696   5.965
  136DPPC   O11 6761   7.522   3.499   5.821
  136DPPC   C12 6762   7.502   3.620   5.747
  136DPPC   C13 6763   7.577   3.613   5.613
  136DPPC   O14 6764   7.541   3.725   5.530
  136DPPC   C15 6765   7.606   3.844   5.543
  136DPPC   O16 6766   7.704   3.856   5.617
  136DPPC   C17 6767   7.545   3.966   5.475
  136DPPC   C18 6768   7.605   4.013   5.342
  136DPPC   C19 6769   7.538   4.132   5.273
  136DPPC   C20 6770   7.610   4.157   5.141
  136DPPC   C21 6771   7.627   4.042   5.042
  136DPPC   C22 6772   7.707   4.091   4.921
  136DPPC   C23 6773   7.637   4.213   4.860
  136DPPC   C24 6774   7.744   4.297   4.791
  136DPPC   C25 6775   7.800   4.251   4.656
  136DPPC   C26 6776   7.918   4.334   4.607
  136DPPC   C27 6777   7.991   4.257   4.497
  136DPPC   C28 6778   8.101   4.336   4.426
  136DPPC   C29 6779   8.049   4.471   4.376
  136DPPC   C30 6780   8.112   4.505   4.240
  136DPPC   C31 6781   8.074   4.644   4.191
  136DPPC   C32 6782   7.510   3.486   5.561
  136DPPC   O33 6783   7.589   3.400   5.478
  136DPPC   C34 6784   7.542   3.287   5.418
  136DPPC   O35 6785   7.425   3.254   5.433
  136DPPC   C36 6786   7.622   3.236   5.298
  136DPPC   C37 6787   7.587   3.334   5.186
  136DPPC   C38 6788   7.535   3.267   5.059
  136DPPC   C39 6789   7.467   3.362   4.960
  136DPPC   C40 6790   7.415   3.292   4.834
  136DPPC   C41 6791   7.332   3.392   4.754
  136DPPC   C42 6792   7.268   3.328   4.630
  136DPPC   C43 6793   7.207   3.439   4.544
  136DPPC   C44 6794   7.167   3.377   4.410
  136DPPC   C45 6795   7.093   3.473   4.317
  136DPPC   C46 6796   7.059   3.393   4.191
  136DPPC   C47 6797   7.005   3.491   4.086
  136DPPC   C48 6798   7.024   3.425   3.949
  136DPPC   C49 6799   6.927   3.307   3.938
  136DPPC   C50 6800   6.954   3.260   3.795
  137DPPC    C1 6801   3.041   6.203   4.964
  137DPPC    C2 6802   3.153   6.030   5.086
  137DPPC    C3 6803   3.258   6.243   5.023
  137DPPC    N4 6804   3.137   6.176   5.072
  137DPPC    C5 6805   3.104   6.248   5.196
  137DPPC    C6 6806   2.969   6.216   5.260
  137DPPC    O7 6807   2.854   6.285   5.211
  137DPPC    P8 6808   2.719   6.200   5.236
  137DPPC    O9 6809   2.606   6.275   5.178
  137DPPC   O10 6810   2.735   6.157   5.377
  137DPPC   O11 6811   2.749   6.073   5.143
  137DPPC   C12 6812   2.649   6.044   5.045
  137DPPC   C13 6813   2.684   5.912   4.977
  137DPPC   O14 6814   2.806   5.918   4.902
  137DPPC   C15 6815   2.876   5.803   4.886
  137DPPC   O16 6816   2.846   5.712   4.963
  137DPPC   C17 6817   3.002   5.796   4.800
  137DPPC   C18 6818   2.978   5.858   4.662
  137DPPC   C19 6819   3.103   5.832   4.578
  137DPPC   C20 6820   3.144   5.685   4.563
  137DPPC   C21 6821   3.250   5.677   4.453
  137DPPC   C22 6822   3.306   5.536   4.433
  137DPPC   C23 6823   3.428   5.519   4.342
  137DPPC   C24 6824   3.472   5.373   4.323
  137DPPC   C25 6825   3.586   5.358   4.222
  137DPPC   C26 6826   3.612   5.209   4.204
  137DPPC   C27 6827   3.733   5.175   4.117
  137DPPC   C28 6828   3.715   5.239   3.979
  137DPPC   C29 6829   3.805   5.175   3.873
  137DPPC   C30 6830   3.719   5.171   3.747
  137DPPC   C31 6831   3.780   5.082   3.638
  137DPPC   C32 6832   2.556   5.873   4.902
  137DPPC   O33 6833   2.492   5.976   4.826
  137DPPC   C34 6834   2.394   5.936   4.740
  137DPPC   O35 6835   2.365   5.817   4.728
  137DPPC   C36 6836   2.337   6.042   4.646
  137DPPC   C37 6837   2.302   5.996   4.504
  137DPPC   C38 6838   2.283   6.101   4.395
  137DPPC   C39 6839   2.252   6.031   4.263
  137DPPC   C40 6840   2.312   6.113   4.149
  137DPPC   C41 6841   2.221   6.230   4.112
  137DPPC   C42 6842   2.248   6.278   3.969
  137DPPC   C43 6843   2.222   6.159   3.877
  137DPPC   C44 6844   2.267   6.170   3.731
  137DPPC   C45 6845   2.214   6.051   3.650
  137DPPC   C46 6846   2.244   5.919   3.721
  137DPPC   C47 6847   2.183   5.804   3.642
  137DPPC   C48 6848   2.031   5.797   3.656
  137DPPC   C49 6849   1.960   5.688   3.576
  137DPPC   C50 6850   1.819   5.660   3.629
  138DPPC    C1 6851   2.022   2.748   5.619
  138DPPC    C2 6852   1.982   2.971   5.691
  138DPPC    C3 6853   2.152   2.838   5.781
  138DPPC    N4 6854   2.087   2.875   5.654
  138DPPC    C5 6855   2.173   2.911   5.541
  138DPPC    C6 6856   2.106   2.965   5.413
  138DPPC    O7 6857   2.027   2.879   5.332
  138DPPC    P8 6858   1.994   2.966   5.201
  138DPPC    O9 6859   1.937   3.086   5.267
  138DPPC   O10 6860   1.918   2.879   5.109
  138DPPC   O11 6861   2.149   2.986   5.161
  138DPPC   C12 6862   2.159   3.073   5.048
  138DPPC   C13 6863   2.297   3.135   5.027
  138DPPC   O14 6864   2.310   3.248   4.940
  138DPPC   C15 6865   2.288   3.374   4.986
  138DPPC   O16 6866   2.265   3.389   5.106
  138DPPC   C17 6867   2.289   3.486   4.881
  138DPPC   C18 6868   2.401   3.587   4.903
  138DPPC   C19 6869   2.400   3.695   4.794
  138DPPC   C20 6870   2.263   3.762   4.778
  138DPPC   C21 6871   2.253   3.852   4.654
  138DPPC   C22 6872   2.212   3.777   4.527
  138DPPC   C23 6873   2.209   3.877   4.411
  138DPPC   C24 6874   2.228   3.789   4.287
  138DPPC   C25 6875   2.249   3.858   4.152
  138DPPC   C26 6876   2.262   3.737   4.059
  138DPPC   C27 6877   2.281   3.780   3.913
  138DPPC   C28 6878   2.163   3.873   3.882
  138DPPC   C29 6879   2.200   3.958   3.760
  138DPPC   C30 6880   2.090   4.052   3.712
  138DPPC   C31 6881   1.981   3.964   3.651
  138DPPC   C32 6882   2.383   3.018   4.979
  138DPPC   O33 6883   2.317   2.951   4.871
  138DPPC   C34 6884   2.358   2.822   4.861
  138DPPC   O35 6885   2.422   2.773   4.954
  138DPPC   C36 6886   2.333   2.734   4.738
  138DPPC   C37 6887   2.395   2.802   4.615
  138DPPC   C38 6888   2.378   2.698   4.504
  138DPPC   C39 6889   2.236   2.664   4.460
  138DPPC   C40 6890   2.229   2.550   4.358
  138DPPC   C41 6891   2.084   2.535   4.310
  138DPPC   C42 6892   2.064   2.403   4.235
  138DPPC   C43 6893   1.919   2.403   4.188
  138DPPC   C44 6894   1.872   2.279   4.110
  138DPPC   C45 6895   1.720   2.281   4.130
  138DPPC   C46 6896   1.662   2.176   4.036
  138DPPC   C47 6897   1.509   2.172   4.047
  138DPPC   C48 6898   1.449   2.046   3.985
  138DPPC   C49 6899   1.302   2.021   4.018
  138DPPC   C50 6900   1.312   2.029   4.170
  139DPPC    C1 6901   9.023   3.869   5.296
  139DPPC    C2 6902   8.848   4.027   5.249
  139DPPC    C3 6903   8.847   3.894   5.445
  139DPPC    N4 6904   8.933   3.970   5.354
  139DPPC    C5 6905   9.002   4.068   5.439
  139DPPC    C6 6906   9.083   4.173   5.362
  139DPPC    O7 6907   9.153   4.257   5.456
  139DPPC    P8 6908   9.190   4.397   5.387
  139DPPC    O9 6909   9.222   4.501   5.488
  139DPPC   O10 6910   9.092   4.425   5.280
  139DPPC   O11 6911   9.319   4.353   5.302
  139DPPC   C12 6912   9.336   4.432   5.185
  139DPPC   C13 6913   9.402   4.357   5.069
  139DPPC   O14 6914   9.449   4.440   4.962
  139DPPC   C15 6915   9.562   4.516   4.972
  139DPPC   O16 6916   9.627   4.514   5.076
  139DPPC   C17 6917   9.575   4.626   4.867
  139DPPC   C18 6918   9.664   4.584   4.750
  139DPPC   C19 6919   9.663   4.679   4.630
  139DPPC   C20 6920   9.700   4.608   4.500
  139DPPC   C21 6921   9.681   4.692   4.373
  139DPPC   C22 6922   9.661   4.590   4.261
  139DPPC   C23 6923   9.670   4.664   4.127
  139DPPC   C24 6924   9.676   4.563   4.013
  139DPPC   C25 6925   9.684   4.632   3.877
  139DPPC   C26 6926   9.688   4.521   3.772
  139DPPC   C27 6927   9.744   4.571   3.639
  139DPPC   C28 6928   9.663   4.679   3.567
  139DPPC   C29 6929   9.742   4.703   3.438
  139DPPC   C30 6930   9.669   4.803   3.348
  139DPPC   C31 6931   9.730   4.818   3.209
  139DPPC   C32 6932   9.303   4.245   5.039
  139DPPC   O33 6933   9.364   4.119   5.011
  139DPPC   C34 6934   9.281   4.011   5.014
  139DPPC   O35 6935   9.168   4.032   5.058
  139DPPC   C36 6936   9.322   3.875   4.959
  139DPPC   C37 6937   9.286   3.877   4.810
  139DPPC   C38 6938   9.334   3.754   4.731
  139DPPC   C39 6939   9.288   3.783   4.588
  139DPPC   C40 6940   9.291   3.672   4.483
  139DPPC   C41 6941   9.234   3.723   4.350
  139DPPC   C42 6942   9.201   3.597   4.270
  139DPPC   C43 6943   9.179   3.630   4.122
  139DPPC   C44 6944   9.062   3.724   4.095
  139DPPC   C45 6945   9.034   3.729   3.945
  139DPPC   C46 6946   9.117   3.822   3.856
  139DPPC   C47 6947   9.097   3.791   3.707
  139DPPC   C48 6948   9.167   3.888   3.612
  139DPPC   C49 6949   9.145   3.830   3.472
  139DPPC   C50 6950   9.218   3.912   3.365
  140DPPC    C1 6951   0.117   2.511   5.309
  140DPPC    C2 6952   0.250   2.637   5.478
  140DPPC    C3 6953   0.093   2.732   5.352
  140DPPC    N4 6954   0.118   2.605   5.422
  140DPPC    C5 6955   0.029   2.583   5.537
  140DPPC    C6 6956  -0.114   2.530   5.519
  140DPPC    O7 6957  -0.188   2.623   5.439
  140DPPC    P8 6958  -0.343   2.591   5.414
  140DPPC    O9 6959  -0.389   2.719   5.355
  140DPPC   O10 6960  -0.405   2.535   5.537
  140DPPC   O11 6961  -0.329   2.483   5.296
  140DPPC   C12 6962  -0.288   2.534   5.169
  140DPPC   C13 6963  -0.295   2.420   5.066
  140DPPC   O14 6964  -0.196   2.415   4.962
  140DPPC   C15 6965  -0.071   2.365   4.976
  140DPPC   O16 6966  -0.017   2.322   5.079
  140DPPC   C17 6967  -0.008   2.326   4.842
  140DPPC   C18 6968   0.044   2.450   4.769
  140DPPC   C19 6969   0.078   2.412   4.624
  140DPPC   C20 6970   0.210   2.474   4.577
  140DPPC   C21 6971   0.237   2.461   4.427
  140DPPC   C22 6972   0.371   2.526   4.392
  140DPPC   C23 6973   0.449   2.456   4.280
  140DPPC   C24 6974   0.369   2.455   4.150
  140DPPC   C25 6975   0.453   2.424   4.026
  140DPPC   C26 6976   0.390   2.392   3.890
  140DPPC   C27 6977   0.496   2.372   3.781
  140DPPC   C28 6978   0.438   2.329   3.646
  140DPPC   C29 6979   0.328   2.223   3.657
  140DPPC   C30 6980   0.310   2.156   3.520
  140DPPC   C31 6981   0.211   2.040   3.533
  140DPPC   C32 6982  -0.436   2.439   5.009
  140DPPC   O33 6983  -0.461   2.575   4.975
  140DPPC   C34 6984  -0.547   2.610   4.875
  140DPPC   O35 6985  -0.564   2.544   4.772
  140DPPC   C36 6986  -0.611   2.749   4.883
  140DPPC   C37 6987  -0.756   2.700   4.890
  140DPPC   C38 6988  -0.836   2.781   4.789
  140DPPC   C39 6989  -0.987   2.763   4.813
  140DPPC   C40 6990  -1.045   2.880   4.733
  140DPPC   C41 6991  -1.013   2.867   4.584
  140DPPC   C42 6992  -1.056   2.989   4.501
  140DPPC   C43 6993  -1.033   2.967   4.352
  140DPPC   C44 6994  -1.097   3.075   4.265
  140DPPC   C45 6995  -1.072   3.034   4.120
  140DPPC   C46 6996  -1.136   2.897   4.093
  140DPPC   C47 6997  -1.079   2.850   3.960
  140DPPC   C48 6998  -1.178   2.867   3.844
  140DPPC   C49 6999  -1.156   2.760   3.737
  140DPPC   C50 7000  -1.022   2.798   3.672
  141DPPC    C1 7001   5.802   1.821   6.201
  141DPPC    C2 7002   5.648   1.688   6.091
  141DPPC    C3 7003   5.569   1.891   6.158
  141DPPC    N4 7004   5.690   1.828   6.106
  141DPPC    C5 7005   5.719   1.880   5.971
  141DPPC    C6 7006   5.763   2.027   5.967
  141DPPC    O7 7007   5.650   2.115   5.969
  141DPPC    P8 7008   5.695   2.253   5.900
  141DPPC    O9 7009   5.823   2.284   5.967
  141DPPC   O10 7010   5.574   2.339   5.903
  141DPPC   O11 7011   5.713   2.209   5.746
  141DPPC   C12 7012   5.596   2.171   5.674
  141DPPC   C13 7013   5.620   2.162   5.523
  141DPPC   O14 7014   5.702   2.060   5.463
  141DPPC   C15 7015   5.626   1.962   5.408
  141DPPC   O16 7016   5.505   1.949   5.419
  141DPPC   C17 7017   5.711   1.848   5.351
  141DPPC   C18 7018   5.719   1.862   5.199
  141DPPC   C19 7019   5.790   1.744   5.133
  141DPPC   C20 7020   5.724   1.715   4.998
  141DPPC   C21 7021   5.573   1.698   5.021
  141DPPC   C22 7022   5.494   1.644   4.901
  141DPPC   C23 7023   5.503   1.739   4.782
  141DPPC   C24 7024   5.452   1.675   4.653
  141DPPC   C25 7025   5.510   1.536   4.628
  141DPPC   C26 7026   5.469   1.481   4.491
  141DPPC   C27 7027   5.562   1.541   4.385
  141DPPC   C28 7028   5.528   1.487   4.246
  141DPPC   C29 7029   5.387   1.536   4.212
  141DPPC   C30 7030   5.379   1.671   4.141
  141DPPC   C31 7031   5.237   1.727   4.129
  141DPPC   C32 7032   5.677   2.299   5.486
  141DPPC   O33 7033   5.582   2.406   5.491
  141DPPC   C34 7034   5.630   2.532   5.476
  141DPPC   O35 7035   5.751   2.543   5.494
  141DPPC   C36 7036   5.534   2.650   5.456
  141DPPC   C37 7037   5.500   2.682   5.310
  141DPPC   C38 7038   5.441   2.565   5.233
  141DPPC   C39 7039   5.398   2.619   5.096
  141DPPC   C40 7040   5.517   2.652   5.006
  141DPPC   C41 7041   5.471   2.699   4.869
  141DPPC   C42 7042   5.583   2.689   4.765
  141DPPC   C43 7043   5.538   2.726   4.624
  141DPPC   C44 7044   5.418   2.638   4.591
  141DPPC   C45 7045   5.364   2.679   4.454
  141DPPC   C46 7046   5.306   2.820   4.455
  141DPPC   C47 7047   5.268   2.866   4.314
  141DPPC   C48 7048   5.377   2.879   4.208
  141DPPC   C49 7049   5.315   2.918   4.073
  141DPPC   C50 7050   5.210   2.821   4.019
  142DPPC    C1 7051   1.515   6.081   4.902
  142DPPC    C2 7052   1.523   6.312   4.930
  142DPPC    C3 7053   1.570   6.223   4.720
  142DPPC    N4 7054   1.481   6.208   4.835
  142DPPC    C5 7055   1.342   6.195   4.790
  142DPPC    C6 7056   1.259   6.322   4.770
  142DPPC    O7 7057   1.296   6.404   4.659
  142DPPC    P8 7058   1.245   6.556   4.680
  142DPPC    O9 7059   1.333   6.641   4.597
  142DPPC   O10 7060   1.224   6.579   4.825
  142DPPC   O11 7061   1.103   6.546   4.604
  142DPPC   C12 7062   1.120   6.507   4.467
  142DPPC   C13 7063   0.993   6.533   4.385
  142DPPC   O14 7064   0.988   6.448   4.270
  142DPPC   C15 7065   0.871   6.438   4.202
  142DPPC   O16 7066   0.760   6.467   4.246
  142DPPC   C17 7067   0.885   6.360   4.071
  142DPPC   C18 7068   0.779   6.392   3.964
  142DPPC   C19 7069   0.824   6.305   3.846
  142DPPC   C20 7070   0.726   6.281   3.732
  142DPPC   C21 7071   0.597   6.224   3.793
  142DPPC   C22 7072   0.615   6.077   3.830
  142DPPC   C23 7073   0.485   6.036   3.899
  142DPPC   C24 7074   0.489   5.900   3.969
  142DPPC   C25 7075   0.356   5.825   3.977
  142DPPC   C26 7076   0.259   5.923   4.044
  142DPPC   C27 7077   0.122   5.857   4.065
  142DPPC   C28 7078   0.016   5.944   4.131
  142DPPC   C29 7079  -0.117   5.869   4.148
  142DPPC   C30 7080  -0.122   5.734   4.219
  142DPPC   C31 7081  -0.249   5.652   4.197
  142DPPC   C32 7082   0.987   6.682   4.352
  142DPPC   O33 7083   1.097   6.747   4.287
  142DPPC   C34 7084   1.060   6.874   4.255
  142DPPC   O35 7085   0.974   6.938   4.314
  142DPPC   C36 7086   1.171   6.939   4.171
  142DPPC   C37 7087   1.149   7.089   4.157
  142DPPC   C38 7088   1.039   7.125   4.056
  142DPPC   C39 7089   1.034   7.269   4.006
  142DPPC   C40 7090   0.920   7.299   3.908
  142DPPC   C41 7091   0.924   7.206   3.787
  142DPPC   C42 7092   0.854   7.268   3.666
  142DPPC   C43 7093   0.710   7.283   3.716
  142DPPC   C44 7094   0.624   7.369   3.622
  142DPPC   C45 7095   0.690   7.507   3.624
  142DPPC   C46 7096   0.625   7.590   3.513
  142DPPC   C47 7097   0.685   7.730   3.506
  142DPPC   C48 7098   0.634   7.821   3.394
  142DPPC   C49 7099   0.697   7.772   3.264
  142DPPC   C50 7100   0.845   7.808   3.252
  143DPPC    C1 7101   0.265   0.075   5.190
  143DPPC    C2 7102   0.085   0.219   5.274
  143DPPC    C3 7103   0.303   0.236   5.362
  143DPPC    N4 7104   0.227   0.208   5.240
  143DPPC    C5 7105   0.258   0.305   5.134
  143DPPC    C6 7106   0.219   0.453   5.139
  143DPPC    O7 7107   0.331   0.527   5.188
  143DPPC    P8 7108   0.283   0.679   5.212
  143DPPC    O9 7109   0.406   0.754   5.244
  143DPPC   O10 7110   0.173   0.664   5.310
  143DPPC   O11 7111   0.253   0.705   5.056
  143DPPC   C12 7112   0.347   0.796   4.997
  143DPPC   C13 7113   0.330   0.843   4.853
  143DPPC   O14 7114   0.241   0.955   4.845
  143DPPC   C15 7115   0.295   1.079   4.851
  143DPPC   O16 7116   0.401   1.095   4.910
  143DPPC   C17 7117   0.220   1.195   4.783
  143DPPC   C18 7118   0.116   1.144   4.683
  143DPPC   C19 7119  -0.022   1.176   4.741
  143DPPC   C20 7120  -0.138   1.141   4.648
  143DPPC   C21 7121  -0.186   1.266   4.574
  143DPPC   C22 7122  -0.316   1.239   4.498
  143DPPC   C23 7123  -0.284   1.118   4.411
  143DPPC   C24 7124  -0.416   1.078   4.344
  143DPPC   C25 7125  -0.462   1.183   4.243
  143DPPC   C26 7126  -0.599   1.159   4.181
  143DPPC   C27 7127  -0.628   1.273   4.083
  143DPPC   C28 7128  -0.541   1.290   3.958
  143DPPC   C29 7129  -0.570   1.166   3.873
  143DPPC   C30 7130  -0.482   1.173   3.748
  143DPPC   C31 7131  -0.536   1.298   3.678
  143DPPC   C32 7132   0.309   0.718   4.767
  143DPPC   O33 7133   0.259   0.740   4.634
  143DPPC   C34 7134   0.225   0.627   4.568
  143DPPC   O35 7135   0.174   0.538   4.636
  143DPPC   C36 7136   0.181   0.648   4.423
  143DPPC   C37 7137   0.113   0.522   4.369
  143DPPC   C38 7138   0.043   0.534   4.233
  143DPPC   C39 7139  -0.073   0.633   4.250
  143DPPC   C40 7140  -0.154   0.655   4.122
  143DPPC   C41 7141  -0.062   0.720   4.018
  143DPPC   C42 7142  -0.089   0.644   3.888
  143DPPC   C43 7143  -0.008   0.698   3.770
  143DPPC   C44 7144  -0.020   0.847   3.741
  143DPPC   C45 7145   0.071   0.867   3.619
  143DPPC   C46 7146   0.106   1.011   3.582
  143DPPC   C47 7147   0.195   1.004   3.458
  143DPPC   C48 7148   0.241   1.138   3.401
  143DPPC   C49 7149   0.142   1.248   3.363
  143DPPC   C50 7150   0.211   1.370   3.300
  144DPPC    C1 7151   8.663   0.302   5.642
  144DPPC    C2 7152   8.866   0.418   5.693
  144DPPC    C3 7153   8.861   0.187   5.631
  144DPPC    N4 7154   8.803   0.319   5.603
  144DPPC    C5 7155   8.815   0.354   5.461
  144DPPC    C6 7156   8.819   0.503   5.424
  144DPPC    O7 7157   8.708   0.587   5.455
  144DPPC    P8 7158   8.753   0.738   5.422
  144DPPC    O9 7159   8.887   0.735   5.484
  144DPPC   O10 7160   8.642   0.813   5.485
  144DPPC   O11 7161   8.747   0.733   5.261
  144DPPC   C12 7162   8.612   0.750   5.219
  144DPPC   C13 7163   8.596   0.708   5.073
  144DPPC   O14 7164   8.463   0.728   5.021
  144DPPC   C15 7165   8.443   0.851   4.966
  144DPPC   O16 7166   8.489   0.958   5.005
  144DPPC   C17 7167   8.319   0.866   4.877
  144DPPC   C18 7168   8.340   0.912   4.732
  144DPPC   C19 7169   8.436   0.814   4.665
  144DPPC   C20 7170   8.471   0.853   4.521
  144DPPC   C21 7171   8.343   0.835   4.440
  144DPPC   C22 7172   8.380   0.844   4.291
  144DPPC   C23 7173   8.472   0.965   4.274
  144DPPC   C24 7174   8.496   1.008   4.129
  144DPPC   C25 7175   8.378   1.053   4.043
  144DPPC   C26 7176   8.433   1.115   3.915
  144DPPC   C27 7177   8.505   1.018   3.820
  144DPPC   C28 7178   8.576   1.108   3.719
  144DPPC   C29 7179   8.633   1.035   3.597
  144DPPC   C30 7180   8.513   0.960   3.537
  144DPPC   C31 7181   8.558   0.908   3.400
  144DPPC   C32 7182   8.659   0.569   5.062
  144DPPC   O33 7183   8.654   0.514   4.930
  144DPPC   C34 7184   8.768   0.548   4.865
  144DPPC   O35 7185   8.863   0.592   4.930
  144DPPC   C36 7186   8.791   0.486   4.727
  144DPPC   C37 7187   8.662   0.470   4.647
  144DPPC   C38 7188   8.677   0.348   4.557
  144DPPC   C39 7189   8.555   0.355   4.465
  144DPPC   C40 7190   8.556   0.232   4.374
  144DPPC   C41 7191   8.475   0.246   4.244
  144DPPC   C42 7192   8.484   0.115   4.165
  144DPPC   C43 7193   8.367   0.115   4.066
  144DPPC   C44 7194   8.399   0.022   3.949
  144DPPC   C45 7195   8.263  -0.007   3.884
  144DPPC   C46 7196   8.200   0.123   3.831
  144DPPC   C47 7197   8.063   0.118   3.763
  144DPPC   C48 7198   8.041   0.242   3.675
  144DPPC   C49 7199   8.073   0.369   3.754
  144DPPC   C50 7200   8.047   0.498   3.676
  145DPPC    C1 7201   7.995   5.639   5.531
  145DPPC    C2 7202   8.244   5.655   5.562
  145DPPC    C3 7203   8.162   5.456   5.497
  145DPPC    N4 7204   8.130   5.599   5.488
  145DPPC    C5 7205   8.134   5.627   5.344
  145DPPC    C6 7206   8.156   5.775   5.307
  145DPPC    O7 7207   8.172   5.794   5.167
  145DPPC    P8 7208   8.176   5.952   5.135
  145DPPC    O9 7209   8.239   5.957   5.002
  145DPPC   O10 7210   8.239   6.016   5.253
  145DPPC   O11 7211   8.017   5.936   5.123
  145DPPC   C12 7212   7.991   5.904   4.986
  145DPPC   C13 7213   7.848   5.858   4.954
  145DPPC   O14 7214   7.848   5.793   4.826
  145DPPC   C15 7215   7.751   5.702   4.797
  145DPPC   O16 7216   7.671   5.674   4.886
  145DPPC   C17 7217   7.725   5.675   4.649
  145DPPC   C18 7218   7.616   5.778   4.617
  145DPPC   C19 7219   7.575   5.746   4.473
  145DPPC   C20 7220   7.436   5.684   4.481
  145DPPC   C21 7221   7.398   5.625   4.345
  145DPPC   C22 7222   7.368   5.748   4.259
  145DPPC   C23 7223   7.257   5.839   4.312
  145DPPC   C24 7224   7.267   5.977   4.247
  145DPPC   C25 7225   7.134   6.051   4.232
  145DPPC   C26 7226   7.175   6.190   4.183
  145DPPC   C27 7227   7.222   6.199   4.038
  145DPPC   C28 7228   7.106   6.171   3.942
  145DPPC   C29 7229   7.155   6.145   3.799
  145DPPC   C30 7230   7.237   6.016   3.797
  145DPPC   C31 7231   7.284   5.990   3.654
  145DPPC   C32 7232   7.746   5.967   4.985
  145DPPC   O33 7233   7.752   6.081   4.899
  145DPPC   C34 7234   7.642   6.159   4.916
  145DPPC   O35 7235   7.568   6.148   5.014
  145DPPC   C36 7236   7.598   6.231   4.789
  145DPPC   C37 7237   7.503   6.146   4.703
  145DPPC   C38 7238   7.447   6.223   4.583
  145DPPC   C39 7239   7.542   6.264   4.471
  145DPPC   C40 7240   7.471   6.343   4.360
  145DPPC   C41 7241   7.555   6.398   4.244
  145DPPC   C42 7242   7.605   6.270   4.176
  145DPPC   C43 7243   7.664   6.294   4.037
  145DPPC   C44 7244   7.554   6.354   3.950
  145DPPC   C45 7245   7.605   6.377   3.808
  145DPPC   C46 7246   7.490   6.448   3.736
  145DPPC   C47 7247   7.546   6.484   3.598
  145DPPC   C48 7248   7.575   6.358   3.515
  145DPPC   C49 7249   7.632   6.376   3.374
  145DPPC   C50 7250   7.768   6.443   3.392
  146DPPC    C1 7251   6.862   4.182   5.808
  146DPPC    C2 7252   7.063   4.196   5.940
  146DPPC    C3 7253   6.873   4.137   6.046
  146DPPC    N4 7254   6.940   4.120   5.916
  146DPPC    C5 7255   6.983   3.981   5.893
  146DPPC    C6 7256   6.875   3.887   5.838
  146DPPC    O7 7257   6.918   3.752   5.816
  146DPPC    P8 7258   6.795   3.656   5.779
  146DPPC    O9 7259   6.670   3.703   5.844
  146DPPC   O10 7260   6.840   3.515   5.781
  146DPPC   O11 7261   6.777   3.694   5.623
  146DPPC   C12 7262   6.863   3.613   5.543
  146DPPC   C13 7263   6.885   3.642   5.394
  146DPPC   O14 7264   6.989   3.735   5.361
  146DPPC   C15 7265   7.121   3.707   5.382
  146DPPC   O16 7266   7.158   3.637   5.477
  146DPPC   C17 7267   7.212   3.814   5.323
  146DPPC   C18 7268   7.146   3.899   5.215
  146DPPC   C19 7269   7.170   3.833   5.079
  146DPPC   C20 7270   7.323   3.832   5.071
  146DPPC   C21 7271   7.361   3.783   4.932
  146DPPC   C22 7272   7.302   3.887   4.836
  146DPPC   C23 7273   7.357   3.860   4.696
  146DPPC   C24 7274   7.509   3.880   4.683
  146DPPC   C25 7275   7.537   3.881   4.533
  146DPPC   C26 7276   7.529   3.738   4.480
  146DPPC   C27 7277   7.569   3.753   4.333
  146DPPC   C28 7278   7.501   3.878   4.277
  146DPPC   C29 7279   7.549   3.917   4.137
  146DPPC   C30 7280   7.481   4.049   4.099
  146DPPC   C31 7281   7.465   4.053   3.947
  146DPPC   C32 7282   6.758   3.695   5.326
  146DPPC   O33 7283   6.662   3.596   5.287
  146DPPC   C34 7284   6.559   3.647   5.215
  146DPPC   O35 7285   6.561   3.757   5.162
  146DPPC   C36 7286   6.437   3.554   5.215
  146DPPC   C37 7287   6.370   3.553   5.077
  146DPPC   C38 7288   6.280   3.436   5.039
  146DPPC   C39 7289   6.188   3.493   4.930
  146DPPC   C40 7290   6.256   3.524   4.796
  146DPPC   C41 7291   6.164   3.587   4.691
  146DPPC   C42 7292   6.232   3.606   4.555
  146DPPC   C43 7293   6.134   3.683   4.466
  146DPPC   C44 7294   6.165   3.643   4.321
  146DPPC   C45 7295   6.052   3.701   4.236
  146DPPC   C46 7296   6.065   3.633   4.100
  146DPPC   C47 7297   5.962   3.701   4.008
  146DPPC   C48 7298   5.953   3.648   3.865
  146DPPC   C49 7299   5.835   3.708   3.789
  146DPPC   C50 7300   5.703   3.667   3.855
  147DPPC    C1 7301   8.218   3.129   6.124
  147DPPC    C2 7302   8.072   2.940   6.128
  147DPPC    C3 7303   7.982   3.162   6.161
  147DPPC    N4 7304   8.083   3.082   6.091
  147DPPC    C5 7305   8.061   3.078   5.945
  147DPPC    C6 7306   8.070   3.210   5.869
  147DPPC    O7 7307   7.972   3.313   5.884
  147DPPC    P8 7308   8.049   3.453   5.865
  147DPPC    O9 7309   8.168   3.426   5.949
  147DPPC   O10 7310   7.962   3.571   5.881
  147DPPC   O11 7311   8.083   3.425   5.710
  147DPPC   C12 7312   7.961   3.469   5.649
  147DPPC   C13 7313   8.004   3.459   5.502
  147DPPC   O14 7314   7.911   3.526   5.416
  147DPPC   C15 7315   7.956   3.647   5.372
  147DPPC   O16 7316   8.052   3.697   5.430
  147DPPC   C17 7317   7.858   3.712   5.274
  147DPPC   C18 7318   7.884   3.670   5.129
  147DPPC   C19 7319   7.748   3.682   5.060
  147DPPC   C20 7320   7.769   3.645   4.913
  147DPPC   C21 7321   7.867   3.748   4.854
  147DPPC   C22 7322   7.888   3.715   4.706
  147DPPC   C23 7323   7.970   3.825   4.639
  147DPPC   C24 7324   7.973   3.779   4.493
  147DPPC   C25 7325   7.999   3.902   4.406
  147DPPC   C26 7326   8.011   3.868   4.258
  147DPPC   C27 7327   8.011   3.995   4.173
  147DPPC   C28 7328   7.890   4.083   4.205
  147DPPC   C29 7329   7.898   4.218   4.134
  147DPPC   C30 7330   7.760   4.286   4.142
  147DPPC   C31 7331   7.758   4.407   4.050
  147DPPC   C32 7332   8.036   3.311   5.480
  147DPPC   O33 7333   7.930   3.226   5.524
  147DPPC   C34 7334   7.953   3.093   5.536
  147DPPC   O35 7335   8.057   3.034   5.566
  147DPPC   C36 7336   7.826   3.010   5.564
  147DPPC   C37 7337   7.832   2.870   5.503
  147DPPC   C38 7338   7.833   2.866   5.351
  147DPPC   C39 7339   7.808   2.724   5.300
  147DPPC   C40 7340   7.816   2.731   5.148
  147DPPC   C41 7341   7.713   2.818   5.075
  147DPPC   C42 7342   7.740   2.805   4.924
  147DPPC   C43 7343   7.626   2.884   4.860
  147DPPC   C44 7344   7.636   2.864   4.709
  147DPPC   C45 7345   7.519   2.941   4.648
  147DPPC   C46 7346   7.513   2.941   4.495
  147DPPC   C47 7347   7.382   3.012   4.461
  147DPPC   C48 7348   7.333   3.017   4.316
  147DPPC   C49 7349   7.184   3.045   4.294
  147DPPC   C50 7350   7.143   3.048   4.147
  148DPPC    C1 7351   2.598   6.556   5.410
  148DPPC    C2 7352   2.822   6.580   5.474
  148DPPC    C3 7353   2.754   6.608   5.243
  148DPPC    N4 7354   2.719   6.635   5.384
  148DPPC    C5 7355   2.711   6.778   5.414
  148DPPC    C6 7356   2.793   6.884   5.339
  148DPPC    O7 7357   2.933   6.858   5.331
  148DPPC    P8 7358   3.020   6.992   5.355
  148DPPC    O9 7359   3.161   6.951   5.343
  148DPPC   O10 7360   2.982   7.058   5.482
  148DPPC   O11 7361   2.959   7.068   5.227
  148DPPC   C12 7362   3.018   7.042   5.100
  148DPPC   C13 7363   2.926   7.086   4.986
  148DPPC   O14 7364   2.960   7.018   4.865
  148DPPC   C15 7365   2.938   6.886   4.840
  148DPPC   O16 7366   2.871   6.821   4.921
  148DPPC   C17 7367   2.995   6.822   4.714
  148DPPC   C18 7368   2.900   6.733   4.633
  148DPPC   C19 7369   2.963   6.658   4.515
  148DPPC   C20 7370   3.051   6.767   4.453
  148DPPC   C21 7371   3.147   6.687   4.364
  148DPPC   C22 7372   3.205   6.778   4.256
  148DPPC   C23 7373   3.110   6.861   4.170
  148DPPC   C24 7374   3.189   6.933   4.061
  148DPPC   C25 7375   3.248   6.840   3.955
  148DPPC   C26 7376   3.292   6.919   3.832
  148DPPC   C27 7377   3.404   6.837   3.767
  148DPPC   C28 7378   3.474   6.913   3.654
  148DPPC   C29 7379   3.563   6.819   3.573
  148DPPC   C30 7380   3.616   6.890   3.448
  148DPPC   C31 7381   3.740   6.806   3.413
  148DPPC   C32 7382   2.942   7.238   4.989
  148DPPC   O33 7383   3.074   7.290   5.009
  148DPPC   C34 7384   3.074   7.426   5.023
  148DPPC   O35 7385   2.966   7.484   5.021
  148DPPC   C36 7386   3.202   7.509   5.012
  148DPPC   C37 7387   3.242   7.569   4.877
  148DPPC   C38 7388   3.366   7.657   4.890
  148DPPC   C39 7389   3.439   7.679   4.757
  148DPPC   C40 7390   3.488   7.542   4.709
  148DPPC   C41 7391   3.547   7.559   4.569
  148DPPC   C42 7392   3.655   7.667   4.561
  148DPPC   C43 7393   3.703   7.680   4.417
  148DPPC   C44 7394   3.818   7.589   4.373
  148DPPC   C45 7395   3.864   7.619   4.230
  148DPPC   C46 7396   3.926   7.494   4.167
  148DPPC   C47 7397   3.952   7.531   4.020
  148DPPC   C48 7398   4.033   7.427   3.942
  148DPPC   C49 7399   4.045   7.467   3.795
  148DPPC   C50 7400   4.138   7.370   3.721
  149DPPC    C1 7401   5.161   0.562   5.238
  149DPPC    C2 7402   5.223   0.617   5.013
  149DPPC    C3 7403   5.060   0.735   5.139
  149DPPC    N4 7404   5.193   0.672   5.146
  149DPPC    C5 7405   5.288   0.772   5.195
  149DPPC    C6 7406   5.376   0.751   5.318
  149DPPC    O7 7407   5.470   0.853   5.356
  149DPPC    P8 7408   5.585   0.798   5.454
  149DPPC    O9 7409   5.544   0.666   5.506
  149DPPC   O10 7410   5.655   0.901   5.535
  149DPPC   O11 7411   5.675   0.736   5.336
  149DPPC   C12 7412   5.766   0.835   5.285
  149DPPC   C13 7413   5.791   0.820   5.135
  149DPPC   O14 7414   5.909   0.891   5.093
  149DPPC   C15 7415   6.018   0.840   5.031
  149DPPC   O16 7416   6.046   0.721   5.044
  149DPPC   C17 7417   6.116   0.946   4.981
  149DPPC   C18 7418   6.100   0.954   4.829
  149DPPC   C19 7419   6.211   1.033   4.760
  149DPPC   C20 7420   6.206   1.014   4.608
  149DPPC   C21 7421   6.291   1.108   4.523
  149DPPC   C22 7422   6.302   1.040   4.386
  149DPPC   C23 7423   6.381   1.137   4.299
  149DPPC   C24 7424   6.411   1.085   4.158
  149DPPC   C25 7425   6.515   1.189   4.115
  149DPPC   C26 7426   6.503   1.251   3.976
  149DPPC   C27 7427   6.624   1.344   3.968
  149DPPC   C28 7428   6.620   1.414   3.832
  149DPPC   C29 7429   6.719   1.532   3.830
  149DPPC   C30 7430   6.702   1.620   3.707
  149DPPC   C31 7431   6.573   1.703   3.702
  149DPPC   C32 7432   5.656   0.844   5.067
  149DPPC   O33 7433   5.655   0.833   4.925
  149DPPC   C34 7434   5.535   0.879   4.881
  149DPPC   O35 7435   5.431   0.882   4.946
  149DPPC   C36 7436   5.522   0.887   4.728
  149DPPC   C37 7437   5.535   1.030   4.676
  149DPPC   C38 7438   5.534   1.047   4.524
  149DPPC   C39 7439   5.654   1.009   4.436
  149DPPC   C40 7440   5.652   1.054   4.290
  149DPPC   C41 7441   5.771   1.000   4.211
  149DPPC   C42 7442   5.883   1.097   4.173
  149DPPC   C43 7443   5.807   1.211   4.106
  149DPPC   C44 7444   5.880   1.259   3.981
  149DPPC   C45 7445   5.804   1.379   3.924
  149DPPC   C46 7446   5.849   1.436   3.790
  149DPPC   C47 7447   5.766   1.556   3.743
  149DPPC   C48 7448   5.616   1.533   3.723
  149DPPC   C49 7449   5.542   1.666   3.707
  149DPPC   C50 7450   5.389   1.661   3.701
  150DPPC    C1 7451   4.648   0.967   5.845
  150DPPC    C2 7452   4.781   0.793   5.773
  150DPPC    C3 7453   4.690   0.953   5.614
  150DPPC    N4 7454   4.751   0.935   5.746
  150DPPC    C5 7455   4.860   1.032   5.762
  150DPPC    C6 7456   4.988   1.017   5.679
  150DPPC    O7 7457   4.980   1.048   5.540
  150DPPC    P8 7458   5.113   1.022   5.452
  150DPPC    O9 7459   5.140   0.883   5.496
  150DPPC   O10 7460   5.214   1.127   5.477
  150DPPC   O11 7461   5.047   1.019   5.306
  150DPPC   C12 7462   5.002   1.153   5.287
  150DPPC   C13 7463   4.873   1.186   5.211
  150DPPC   O14 7464   4.747   1.149   5.270
  150DPPC   C15 7465   4.662   1.251   5.297
  150DPPC   O16 7466   4.690   1.367   5.268
  150DPPC   C17 7467   4.520   1.216   5.342
  150DPPC   C18 7468   4.420   1.312   5.279
  150DPPC   C19 7469   4.340   1.228   5.179
  150DPPC   C20 7470   4.232   1.315   5.115
  150DPPC   C21 7471   4.136   1.244   5.020
  150DPPC   C22 7472   4.042   1.348   4.959
  150DPPC   C23 7473   3.910   1.271   4.942
  150DPPC   C24 7474   3.800   1.351   4.872
  150DPPC   C25 7475   3.687   1.260   4.823
  150DPPC   C26 7476   3.589   1.344   4.741
  150DPPC   C27 7477   3.471   1.250   4.712
  150DPPC   C28 7478   3.354   1.346   4.692
  150DPPC   C29 7479   3.233   1.281   4.625
  150DPPC   C30 7480   3.280   1.245   4.484
  150DPPC   C31 7481   3.167   1.163   4.420
  150DPPC   C32 7482   4.889   1.125   5.071
  150DPPC   O33 7483   5.007   1.162   4.999
  150DPPC   C34 7484   5.058   1.083   4.901
  150DPPC   O35 7485   5.020   0.966   4.897
  150DPPC   C36 7486   5.158   1.146   4.804
  150DPPC   C37 7487   5.090   1.181   4.671
  150DPPC   C38 7488   5.176   1.268   4.579
  150DPPC   C39 7489   5.107   1.300   4.446
  150DPPC   C40 7490   5.092   1.179   4.354
  150DPPC   C41 7491   5.011   1.228   4.234
  150DPPC   C42 7492   4.968   1.119   4.136
  150DPPC   C43 7493   4.836   1.151   4.064
  150DPPC   C44 7494   4.723   1.180   4.163
  150DPPC   C45 7495   4.589   1.188   4.090
  150DPPC   C46 7496   4.492   1.268   4.178
  150DPPC   C47 7497   4.351   1.237   4.129
  150DPPC   C48 7498   4.354   1.270   3.980
  150DPPC   C49 7499   4.212   1.274   3.923
  150DPPC   C50 7500   4.212   1.320   3.777
  151DPPC    C1 7501   0.944   0.973   5.123
  151DPPC    C2 7502   1.072   0.814   5.007
  151DPPC    C3 7503   0.964   0.756   5.214
  151DPPC    N4 7504   0.951   0.831   5.088
  151DPPC    C5 7505   0.840   0.800   4.996
  151DPPC    C6 7506   0.753   0.680   5.035
  151DPPC    O7 7507   0.660   0.638   4.935
  151DPPC    P8 7508   0.630   0.481   4.950
  151DPPC    O9 7509   0.494   0.435   4.913
  151DPPC   O10 7510   0.702   0.433   5.070
  151DPPC   O11 7511   0.712   0.458   4.813
  151DPPC   C12 7512   0.618   0.474   4.706
  151DPPC   C13 7513   0.671   0.502   4.565
  151DPPC   O14 7514   0.709   0.388   4.486
  151DPPC   C15 7515   0.825   0.321   4.506
  151DPPC   O16 7516   0.902   0.345   4.600
  151DPPC   C17 7517   0.846   0.206   4.408
  151DPPC   C18 7518   0.883   0.250   4.266
  151DPPC   C19 7519   0.910   0.128   4.176
  151DPPC   C20 7520   0.992   0.165   4.053
  151DPPC   C21 7521   0.915   0.255   3.956
  151DPPC   C22 7522   0.806   0.181   3.879
  151DPPC   C23 7523   0.866   0.084   3.777
  151DPPC   C24 7524   0.760   0.004   3.701
  151DPPC   C25 7525   0.667   0.096   3.622
  151DPPC   C26 7526   0.569   0.028   3.526
  151DPPC   C27 7527   0.506   0.129   3.430
  151DPPC   C28 7528   0.429   0.236   3.508
  151DPPC   C29 7529   0.338   0.335   3.435
  151DPPC   C30 7530   0.298   0.456   3.519
  151DPPC   C31 7531   0.226   0.570   3.446
  151DPPC   C32 7532   0.772   0.617   4.576
  151DPPC   O33 7533   0.703   0.731   4.630
  151DPPC   C34 7534   0.773   0.845   4.653
  151DPPC   O35 7535   0.895   0.839   4.642
  151DPPC   C36 7536   0.697   0.977   4.664
  151DPPC   C37 7537   0.626   1.002   4.531
  151DPPC   C38 7538   0.477   1.035   4.530
  151DPPC   C39 7539   0.416   1.015   4.391
  151DPPC   C40 7540   0.265   1.030   4.377
  151DPPC   C41 7541   0.226   1.017   4.229
  151DPPC   C42 7542   0.079   1.058   4.220
  151DPPC   C43 7543   0.028   1.066   4.076
  151DPPC   C44 7544   0.124   1.169   4.016
  151DPPC   C45 7545   0.098   1.320   4.028
  151DPPC   C46 7546   0.180   1.406   3.932
  151DPPC   C47 7547   0.130   1.398   3.788
  151DPPC   C48 7548  -0.002   1.474   3.769
  151DPPC   C49 7549  -0.040   1.489   3.621
  151DPPC   C50 7550  -0.186   1.531   3.604
  152DPPC    C1 7551   4.819   1.881   5.994
  152DPPC    C2 7552   5.031   1.894   5.872
  152DPPC    C3 7553   4.965   1.690   5.952
  152DPPC    N4 7554   4.910   1.815   5.899
  152DPPC    C5 7555   4.843   1.795   5.769
  152DPPC    C6 7556   4.733   1.694   5.738
  152DPPC    O7 7557   4.602   1.731   5.693
  152DPPC    P8 7558   4.498   1.608   5.683
  152DPPC    O9 7559   4.400   1.605   5.793
  152DPPC   O10 7560   4.569   1.489   5.631
  152DPPC   O11 7561   4.413   1.693   5.576
  152DPPC   C12 7562   4.487   1.704   5.454
  152DPPC   C13 7563   4.410   1.782   5.348
  152DPPC   O14 7564   4.415   1.719   5.219
  152DPPC   C15 7565   4.288   1.712   5.170
  152DPPC   O16 7566   4.194   1.689   5.245
  152DPPC   C17 7567   4.279   1.688   5.019
  152DPPC   C18 7568   4.314   1.816   4.943
  152DPPC   C19 7569   4.462   1.853   4.922
  152DPPC   C20 7570   4.462   1.984   4.844
  152DPPC   C21 7571   4.601   2.048   4.837
  152DPPC   C22 7572   4.642   2.080   4.693
  152DPPC   C23 7573   4.776   2.153   4.700
  152DPPC   C24 7574   4.823   2.181   4.557
  152DPPC   C25 7575   4.745   2.305   4.514
  152DPPC   C26 7576   4.775   2.330   4.366
  152DPPC   C27 7577   4.747   2.206   4.280
  152DPPC   C28 7578   4.867   2.172   4.191
  152DPPC   C29 7579   4.847   2.047   4.105
  152DPPC   C30 7580   4.936   2.035   3.981
  152DPPC   C31 7581   4.855   2.119   3.882
  152DPPC   C32 7582   4.431   1.934   5.353
  152DPPC   O33 7583   4.571   1.960   5.341
  152DPPC   C34 7584   4.613   2.084   5.303
  152DPPC   O35 7585   4.537   2.177   5.280
  152DPPC   C36 7586   4.756   2.089   5.249
  152DPPC   C37 7587   4.781   1.964   5.165
  152DPPC   C38 7588   4.919   1.966   5.097
  152DPPC   C39 7589   4.924   1.844   5.004
  152DPPC   C40 7590   5.049   1.873   4.922
  152DPPC   C41 7591   5.074   1.768   4.813
  152DPPC   C42 7592   4.961   1.785   4.710
  152DPPC   C43 7593   4.985   1.705   4.582
  152DPPC   C44 7594   4.894   1.750   4.468
  152DPPC   C45 7595   4.906   1.655   4.350
  152DPPC   C46 7596   4.835   1.710   4.225
  152DPPC   C47 7597   4.855   1.622   4.102
  152DPPC   C48 7598   4.750   1.655   3.996
  152DPPC   C49 7599   4.766   1.560   3.878
  152DPPC   C50 7600   4.647   1.562   3.783
  153DPPC    C1 7601   1.985   1.358   5.547
  153DPPC    C2 7602   2.146   1.226   5.657
  153DPPC    C3 7603   1.914   1.168   5.644
  153DPPC    N4 7604   2.029   1.219   5.568
  153DPPC    C5 7605   2.033   1.152   5.437
  153DPPC    C6 7606   2.073   1.004   5.441
  153DPPC    O7 7607   2.210   0.983   5.476
  153DPPC    P8 7608   2.217   0.835   5.540
  153DPPC    O9 7609   2.079   0.800   5.581
  153DPPC   O10 7610   2.337   0.827   5.625
  153DPPC   O11 7611   2.249   0.762   5.400
  153DPPC   C12 7612   2.376   0.802   5.348
  153DPPC   C13 7613   2.445   0.702   5.254
  153DPPC   O14 7614   2.565   0.750   5.193
  153DPPC   C15 7615   2.651   0.663   5.133
  153DPPC   O16 7616   2.648   0.544   5.163
  153DPPC   C17 7617   2.744   0.710   5.020
  153DPPC   C18 7618   2.694   0.657   4.886
  153DPPC   C19 7619   2.785   0.691   4.767
  153DPPC   C20 7620   2.723   0.637   4.638
  153DPPC   C21 7621   2.851   0.623   4.554
  153DPPC   C22 7622   2.836   0.537   4.428
  153DPPC   C23 7623   2.956   0.543   4.334
  153DPPC   C24 7624   2.917   0.461   4.211
  153DPPC   C25 7625   2.984   0.500   4.080
  153DPPC   C26 7626   2.942   0.430   3.950
  153DPPC   C27 7627   3.010   0.495   3.830
  153DPPC   C28 7628   2.972   0.433   3.695
  153DPPC   C29 7629   2.988   0.507   3.561
  153DPPC   C30 7630   2.904   0.440   3.452
  153DPPC   C31 7631   2.970   0.307   3.413
  153DPPC   C32 7632   2.335   0.670   5.153
  153DPPC   O33 7633   2.365   0.577   5.048
  153DPPC   C34 7634   2.262   0.523   4.977
  153DPPC   O35 7635   2.148   0.554   5.011
  153DPPC   C36 7636   2.287   0.454   4.843
  153DPPC   C37 7637   2.196   0.480   4.723
  153DPPC   C38 7638   2.254   0.418   4.596
  153DPPC   C39 7639   2.149   0.416   4.485
  153DPPC   C40 7640   2.160   0.532   4.386
  153DPPC   C41 7641   2.047   0.524   4.284
  153DPPC   C42 7642   2.050   0.644   4.190
  153DPPC   C43 7643   1.905   0.648   4.140
  153DPPC   C44 7644   1.802   0.680   4.248
  153DPPC   C45 7645   1.666   0.660   4.182
  153DPPC   C46 7646   1.563   0.737   4.265
  153DPPC   C47 7647   1.598   0.886   4.256
  153DPPC   C48 7648   1.510   0.981   4.337
  153DPPC   C49 7649   1.542   1.119   4.279
  153DPPC   C50 7650   1.447   1.217   4.348
  154DPPC    C1 7651   9.055   7.669   5.445
  154DPPC    C2 7652   9.143   7.882   5.411
  154DPPC    C3 7653   9.001   7.785   5.246
  154DPPC    N4 7654   9.022   7.802   5.391
  154DPPC    C5 7655   8.904   7.850   5.464
  154DPPC    C6 7656   8.848   7.992   5.452
  154DPPC    O7 7657   8.769   8.007   5.333
  154DPPC    P8 7658   8.745   8.162   5.298
  154DPPC    O9 7659   8.722   8.237   5.424
  154DPPC   O10 7660   8.656   8.185   5.181
  154DPPC   O11 7661   8.896   8.186   5.248
  154DPPC   C12 7662   8.901   8.239   5.115
  154DPPC   C13 7663   9.037   8.297   5.073
  154DPPC   O14 7664   9.032   8.376   4.953
  154DPPC   C15 7665   9.138   8.449   4.909
  154DPPC   O16 7666   9.240   8.474   4.974
  154DPPC   C17 7667   9.111   8.510   4.772
  154DPPC   C18 7668   9.199   8.627   4.728
  154DPPC   C19 7669   9.146   8.702   4.606
  154DPPC   C20 7670   9.248   8.800   4.548
  154DPPC   C21 7671   9.254   8.771   4.398
  154DPPC   C22 7672   9.111   8.808   4.356
  154DPPC   C23 7673   9.100   8.801   4.203
  154DPPC   C24 7674   8.959   8.816   4.145
  154DPPC   C25 7675   8.960   8.756   4.005
  154DPPC   C26 7676   8.823   8.788   3.944
  154DPPC   C27 7677   8.786   8.713   3.815
  154DPPC   C28 7678   8.875   8.760   3.700
  154DPPC   C29 7679   8.843   8.685   3.571
  154DPPC   C30 7680   8.860   8.537   3.605
  154DPPC   C31 7681   8.841   8.447   3.483
  154DPPC   C32 7682   9.114   8.167   5.049
  154DPPC   O33 7683   9.053   8.072   4.961
  154DPPC   C34 7684   9.116   7.962   4.913
  154DPPC   O35 7685   9.232   7.929   4.938
  154DPPC   C36 7686   9.035   7.877   4.814
  154DPPC   C37 7687   8.961   7.960   4.709
  154DPPC   C38 7688   8.892   7.873   4.604
  154DPPC   C39 7689   8.804   7.944   4.501
  154DPPC   C40 7690   8.733   7.844   4.410
  154DPPC   C41 7691   8.606   7.898   4.344
  154DPPC   C42 7692   8.553   7.833   4.216
  154DPPC   C43 7693   8.660   7.806   4.110
  154DPPC   C44 7694   8.616   7.733   3.983
  154DPPC   C45 7695   8.747   7.708   3.907
  154DPPC   C46 7696   8.748   7.568   3.846
  154DPPC   C47 7697   8.878   7.552   3.766
  154DPPC   C48 7698   8.881   7.645   3.644
  154DPPC   C49 7699   9.026   7.647   3.594
  154DPPC   C50 7700   9.054   7.731   3.469
  155DPPC    C1 7701   3.647   4.189   6.451
  155DPPC    C2 7702   3.607   3.950   6.444
  155DPPC    C3 7703   3.449   4.102   6.529
  155DPPC    N4 7704   3.548   4.083   6.423
  155DPPC    C5 7705   3.510   4.117   6.285
  155DPPC    C6 7706   3.397   4.041   6.217
  155DPPC    O7 7707   3.368   4.104   6.092
  155DPPC    P8 7708   3.232   4.053   6.023
  155DPPC    O9 7709   3.178   4.170   5.951
  155DPPC   O10 7710   3.163   3.966   6.122
  155DPPC   O11 7711   3.311   3.955   5.923
  155DPPC   C12 7712   3.404   4.017   5.834
  155DPPC   C13 7713   3.452   3.923   5.723
  155DPPC   O14 7714   3.537   3.998   5.635
  155DPPC   C15 7715   3.652   3.944   5.585
  155DPPC   O16 7716   3.727   3.887   5.663
  155DPPC   C17 7717   3.698   4.002   5.451
  155DPPC   C18 7718   3.611   3.969   5.330
  155DPPC   C19 7719   3.678   4.029   5.206
  155DPPC   C20 7720   3.609   3.991   5.075
  155DPPC   C21 7721   3.672   4.083   4.970
  155DPPC   C22 7722   3.566   4.092   4.860
  155DPPC   C23 7723   3.633   4.172   4.749
  155DPPC   C24 7724   3.558   4.173   4.616
  155DPPC   C25 7725   3.661   4.222   4.514
  155DPPC   C26 7726   3.628   4.209   4.365
  155DPPC   C27 7727   3.757   4.203   4.283
  155DPPC   C28 7728   3.731   4.179   4.134
  155DPPC   C29 7729   3.689   4.287   4.034
  155DPPC   C30 7730   3.677   4.225   3.894
  155DPPC   C31 7731   3.660   4.346   3.802
  155DPPC   C32 7732   3.331   3.863   5.652
  155DPPC   O33 7733   3.355   3.759   5.557
  155DPPC   C34 7734   3.246   3.705   5.495
  155DPPC   O35 7735   3.134   3.727   5.540
  155DPPC   C36 7736   3.277   3.602   5.386
  155DPPC   C37 7737   3.327   3.658   5.253
  155DPPC   C38 7738   3.334   3.543   5.152
  155DPPC   C39 7739   3.348   3.598   5.010
  155DPPC   C40 7740   3.357   3.483   4.909
  155DPPC   C41 7741   3.330   3.534   4.767
  155DPPC   C42 7742   3.352   3.408   4.682
  155DPPC   C43 7743   3.382   3.457   4.540
  155DPPC   C44 7744   3.402   3.352   4.431
  155DPPC   C45 7745   3.453   3.402   4.296
  155DPPC   C46 7746   3.478   3.286   4.200
  155DPPC   C47 7747   3.529   3.326   4.061
  155DPPC   C48 7748   3.574   3.198   3.991
  155DPPC   C49 7749   3.603   3.234   3.845
  155DPPC   C50 7750   3.486   3.264   3.752
  156DPPC    C1 7751   7.338   2.706   6.066
  156DPPC    C2 7752   7.117   2.697   6.163
  156DPPC    C3 7753   7.182   2.874   6.020
  156DPPC    N4 7754   7.195   2.730   6.043
  156DPPC    C5 7755   7.162   2.656   5.919
  156DPPC    C6 7756   7.181   2.505   5.916
  156DPPC    O7 7757   7.102   2.455   5.807
  156DPPC    P8 7758   7.155   2.307   5.774
  156DPPC    O9 7759   7.068   2.244   5.671
  156DPPC   O10 7760   7.201   2.244   5.900
  156DPPC   O11 7761   7.282   2.348   5.685
  156DPPC   C12 7762   7.241   2.443   5.586
  156DPPC   C13 7763   7.350   2.483   5.486
  156DPPC   O14 7764   7.305   2.569   5.380
  156DPPC   C15 7765   7.299   2.701   5.410
  156DPPC   O16 7766   7.317   2.725   5.530
  156DPPC   C17 7767   7.261   2.801   5.301
  156DPPC   C18 7768   7.358   2.815   5.183
  156DPPC   C19 7769   7.274   2.898   5.084
  156DPPC   C20 7770   7.148   2.821   5.044
  156DPPC   C21 7771   7.044   2.897   4.962
  156DPPC   C22 7772   6.949   2.793   4.902
  156DPPC   C23 7773   6.847   2.865   4.814
  156DPPC   C24 7774   6.931   2.940   4.711
  156DPPC   C25 7775   6.863   3.020   4.600
  156DPPC   C26 7776   6.766   3.125   4.653
  156DPPC   C27 7777   6.779   3.267   4.597
  156DPPC   C28 7778   6.666   3.291   4.496
  156DPPC   C29 7779   6.696   3.416   4.413
  156DPPC   C30 7780   6.585   3.438   4.310
  156DPPC   C31 7781   6.608   3.563   4.223
  156DPPC   C32 7782   7.440   2.362   5.459
  156DPPC   O33 7783   7.379   2.241   5.415
  156DPPC   C34 7784   7.465   2.138   5.395
  156DPPC   O35 7785   7.577   2.138   5.447
  156DPPC   C36 7786   7.419   2.018   5.312
  156DPPC   C37 7787   7.538   1.965   5.232
  156DPPC   C38 7788   7.500   1.843   5.147
  156DPPC   C39 7789   7.411   1.883   5.029
  156DPPC   C40 7790   7.360   1.765   4.946
  156DPPC   C41 7791   7.265   1.810   4.836
  156DPPC   C42 7792   7.130   1.854   4.894
  156DPPC   C43 7793   7.039   1.923   4.793
  156DPPC   C44 7794   6.889   1.938   4.821
  156DPPC   C45 7795   6.834   2.024   4.707
  156DPPC   C46 7796   6.682   2.009   4.709
  156DPPC   C47 7797   6.620   2.056   4.577
  156DPPC   C48 7798   6.645   1.944   4.476
  156DPPC   C49 7799   6.598   1.983   4.335
  156DPPC   C50 7800   6.635   2.124   4.290
  157DPPC    C1 7801   0.231   1.034   5.317
  157DPPC    C2 7802   0.146   1.208   5.433
  157DPPC    C3 7803   0.386   1.177   5.427
  157DPPC    N4 7804   0.261   1.174   5.349
  157DPPC    C5 7805   0.278   1.245   5.221
  157DPPC    C6 7806   0.314   1.393   5.228
  157DPPC    O7 7807   0.223   1.486   5.288
  157DPPC    P8 7808   0.310   1.596   5.367
  157DPPC    O9 7809   0.389   1.513   5.460
  157DPPC   O10 7810   0.206   1.698   5.399
  157DPPC   O11 7811   0.406   1.658   5.254
  157DPPC   C12 7812   0.338   1.767   5.193
  157DPPC   C13 7813   0.414   1.825   5.074
  157DPPC   O14 7814   0.359   1.942   5.011
  157DPPC   C15 7815   0.355   2.059   5.081
  157DPPC   O16 7816   0.387   2.070   5.199
  157DPPC   C17 7817   0.307   2.179   4.999
  157DPPC   C18 7818   0.329   2.170   4.848
  157DPPC   C19 7819   0.471   2.210   4.804
  157DPPC   C20 7820   0.476   2.196   4.652
  157DPPC   C21 7821   0.483   2.048   4.614
  157DPPC   C22 7822   0.508   2.036   4.463
  157DPPC   C23 7823   0.509   1.892   4.410
  157DPPC   C24 7824   0.509   1.903   4.257
  157DPPC   C25 7825   0.403   2.002   4.207
  157DPPC   C26 7826   0.391   1.993   4.055
  157DPPC   C27 7827   0.392   1.848   4.007
  157DPPC   C28 7828   0.391   1.854   3.854
  157DPPC   C29 7829   0.373   1.709   3.807
  157DPPC   C30 7830   0.358   1.694   3.655
  157DPPC   C31 7831   0.363   1.550   3.606
  157DPPC   C32 7832   0.422   1.707   4.977
  157DPPC   O33 7833   0.290   1.662   4.944
  157DPPC   C34 7834   0.277   1.556   4.859
  157DPPC   O35 7835   0.367   1.474   4.844
  157DPPC   C36 7836   0.136   1.534   4.804
  157DPPC   C37 7837   0.054   1.660   4.777
  157DPPC   C38 7838   0.125   1.762   4.687
  157DPPC   C39 7839   0.034   1.886   4.683
  157DPPC   C40 7840   0.087   1.999   4.595
  157DPPC   C41 7841  -0.025   2.088   4.540
  157DPPC   C42 7842  -0.124   2.008   4.456
  157DPPC   C43 7843  -0.230   2.090   4.382
  157DPPC   C44 7844  -0.329   2.011   4.296
  157DPPC   C45 7845  -0.411   2.111   4.215
  157DPPC   C46 7846  -0.501   2.037   4.116
  157DPPC   C47 7847  -0.586   2.144   4.047
  157DPPC   C48 7848  -0.511   2.239   3.952
  157DPPC   C49 7849  -0.607   2.342   3.892
  157DPPC   C50 7850  -0.701   2.265   3.799
  158DPPC    C1 7851   2.830   0.855   5.436
  158DPPC    C2 7852   2.919   0.630   5.489
  158DPPC    C3 7853   2.994   0.736   5.310
  158DPPC    N4 7854   2.947   0.767   5.446
  158DPPC    C5 7855   3.043   0.825   5.542
  158DPPC    C6 7856   3.142   0.937   5.508
  158DPPC    O7 7857   3.094   1.070   5.525
  158DPPC    P8 7858   3.214   1.154   5.593
  158DPPC    O9 7859   3.276   1.065   5.694
  158DPPC   O10 7860   3.185   1.297   5.618
  158DPPC   O11 7861   3.319   1.147   5.471
  158DPPC   C12 7862   3.276   1.238   5.370
  158DPPC   C13 7863   3.387   1.275   5.271
  158DPPC   O14 7864   3.373   1.404   5.211
  158DPPC   C15 7865   3.487   1.472   5.185
  158DPPC   O16 7866   3.601   1.428   5.201
  158DPPC   C17 7867   3.473   1.557   5.059
  158DPPC   C18 7868   3.413   1.695   5.090
  158DPPC   C19 7869   3.405   1.789   4.969
  158DPPC   C20 7870   3.334   1.725   4.850
  158DPPC   C21 7871   3.340   1.814   4.726
  158DPPC   C22 7872   3.238   1.752   4.629
  158DPPC   C23 7873   3.262   1.788   4.483
  158DPPC   C24 7874   3.163   1.720   4.388
  158DPPC   C25 7875   3.191   1.759   4.243
  158DPPC   C26 7876   3.099   1.682   4.148
  158DPPC   C27 7877   3.149   1.710   4.006
  158DPPC   C28 7878   3.064   1.644   3.898
  158DPPC   C29 7879   3.108   1.678   3.755
  158DPPC   C30 7880   3.253   1.643   3.721
  158DPPC   C31 7881   3.296   1.723   3.598
  158DPPC   C32 7882   3.410   1.157   5.176
  158DPPC   O33 7883   3.294   1.104   5.110
  158DPPC   C34 7884   3.328   1.006   5.021
  158DPPC   O35 7885   3.440   0.959   5.007
  158DPPC   C36 7886   3.204   0.978   4.935
  158DPPC   C37 7887   3.144   0.842   4.970
  158DPPC   C38 7888   3.211   0.720   4.907
  158DPPC   C39 7889   3.123   0.596   4.894
  158DPPC   C40 7890   3.194   0.511   4.788
  158DPPC   C41 7891   3.217   0.590   4.659
  158DPPC   C42 7892   3.291   0.494   4.566
  158DPPC   C43 7893   3.329   0.563   4.435
  158DPPC   C44 7894   3.434   0.670   4.466
  158DPPC   C45 7895   3.518   0.713   4.346
  158DPPC   C46 7896   3.600   0.833   4.395
  158DPPC   C47 7897   3.692   0.888   4.286
  158DPPC   C48 7898   3.776   1.007   4.332
  158DPPC   C49 7899   3.876   1.052   4.225
  158DPPC   C50 7900   3.971   0.936   4.195
  159DPPC    C1 7901   3.479   8.299   4.840
  159DPPC    C2 7902   3.397   8.073   4.826
  159DPPC    C3 7903   3.558   8.128   4.985
  159DPPC    N4 7904   3.438   8.181   4.918
  159DPPC    C5 7905   3.320   8.205   5.002
  159DPPC    C6 7906   3.288   8.335   5.076
  159DPPC    O7 7907   3.225   8.436   4.996
  159DPPC    P8 7908   3.231   8.577   5.073
  159DPPC    O9 7909   3.230   8.540   5.216
  159DPPC   O10 7910   3.126   8.659   5.009
  159DPPC   O11 7911   3.377   8.615   5.015
  159DPPC   C12 7912   3.384   8.728   4.927
  159DPPC   C13 7913   3.525   8.760   4.875
  159DPPC   O14 7914   3.552   8.897   4.844
  159DPPC   C15 7915   3.565   8.998   4.935
  159DPPC   O16 7916   3.545   8.973   5.054
  159DPPC   C17 7917   3.585   9.139   4.881
  159DPPC   C18 7918   3.708   9.158   4.792
  159DPPC   C19 7919   3.729   9.302   4.747
  159DPPC   C20 7920   3.875   9.332   4.714
  159DPPC   C21 7921   3.894   9.477   4.670
  159DPPC   C22 7922   4.045   9.505   4.674
  159DPPC   C23 7923   4.124   9.488   4.543
  159DPPC   C24 7924   4.272   9.513   4.569
  159DPPC   C25 7925   4.351   9.514   4.438
  159DPPC   C26 7926   4.348   9.374   4.376
  159DPPC   C27 7927   4.398   9.381   4.232
  159DPPC   C28 7928   4.364   9.244   4.173
  159DPPC   C29 7929   4.446   9.205   4.050
  159DPPC   C30 7930   4.433   9.306   3.935
  159DPPC   C31 7931   4.299   9.320   3.863
  159DPPC   C32 7932   3.551   8.663   4.759
  159DPPC   O33 7933   3.461   8.675   4.649
  159DPPC   C34 7934   3.496   8.595   4.545
  159DPPC   O35 7935   3.592   8.518   4.546
  159DPPC   C36 7936   3.403   8.616   4.425
  159DPPC   C37 7937   3.484   8.667   4.306
  159DPPC   C38 7938   3.386   8.748   4.221
  159DPPC   C39 7939   3.459   8.803   4.098
  159DPPC   C40 7940   3.368   8.810   3.975
  159DPPC   C41 7941   3.450   8.873   3.862
  159DPPC   C42 7942   3.552   8.779   3.799
  159DPPC   C43 7943   3.612   8.859   3.683
  159DPPC   C44 7944   3.714   8.774   3.608
  159DPPC   C45 7945   3.761   8.838   3.477
  159DPPC   C46 7946   3.645   8.888   3.392
  159DPPC   C47 7947   3.710   8.999   3.309
  159DPPC   C48 7948   3.843   8.944   3.256
  159DPPC   C49 7949   3.911   9.065   3.193
  159DPPC   C50 7950   3.831   9.125   3.077
  160DPPC    C1 7951   0.974   3.532   5.719
  160DPPC    C2 7952   0.879   3.434   5.526
  160DPPC    C3 7953   0.977   3.637   5.500
  160DPPC    N4 7954   0.994   3.511   5.575
  160DPPC    C5 7955   1.118   3.436   5.548
  160DPPC    C6 7956   1.253   3.493   5.592
  160DPPC    O7 7957   1.368   3.424   5.544
  160DPPC    P8 7958   1.507   3.501   5.571
  160DPPC    O9 7959   1.610   3.401   5.610
  160DPPC   O10 7960   1.464   3.615   5.655
  160DPPC   O11 7961   1.520   3.546   5.417
  160DPPC   C12 7962   1.562   3.431   5.343
  160DPPC   C13 7963   1.583   3.447   5.192
  160DPPC   O14 7964   1.715   3.410   5.151
  160DPPC   C15 7965   1.730   3.290   5.088
  160DPPC   O16 7966   1.667   3.197   5.138
  160DPPC   C17 7967   1.860   3.278   5.008
  160DPPC   C18 7968   1.832   3.214   4.872
  160DPPC   C19 7969   1.966   3.216   4.799
  160DPPC   C20 7970   1.972   3.123   4.678
  160DPPC   C21 7971   1.981   2.975   4.715
  160DPPC   C22 7972   1.972   2.890   4.587
  160DPPC   C23 7973   1.843   2.919   4.509
  160DPPC   C24 7974   1.805   2.797   4.425
  160DPPC   C25 7975   1.674   2.817   4.350
  160DPPC   C26 7976   1.638   2.715   4.241
  160DPPC   C27 7977   1.733   2.712   4.121
  160DPPC   C28 7978   1.673   2.623   4.012
  160DPPC   C29 7979   1.774   2.637   3.898
  160DPPC   C30 7980   1.714   2.556   3.783
  160DPPC   C31 7981   1.794   2.533   3.654
  160DPPC   C32 7982   1.538   3.592   5.168
  160DPPC   O33 7983   1.518   3.634   5.033
  160DPPC   C34 7984   1.535   3.769   5.032
  160DPPC   O35 7985   1.570   3.828   5.134
  160DPPC   C36 7986   1.502   3.840   4.900
  160DPPC   C37 7987   1.491   3.733   4.792
  160DPPC   C38 7988   1.469   3.789   4.651
  160DPPC   C39 7989   1.415   3.676   4.563
  160DPPC   C40 7990   1.405   3.708   4.414
  160DPPC   C41 7991   1.320   3.603   4.342
  160DPPC   C42 7992   1.276   3.650   4.203
  160DPPC   C43 7993   1.190   3.547   4.131
  160DPPC   C44 7994   1.112   3.607   4.013
  160DPPC   C45 7995   1.162   3.562   3.875
  160DPPC   C46 7996   1.084   3.611   3.753
  160DPPC   C47 7997   1.144   3.542   3.631
  160DPPC   C48 7998   1.078   3.599   3.506
  160DPPC   C49 7999   1.128   3.541   3.373
  160DPPC   C50 8000   1.280   3.555   3.360
  161DPPC    C1 8001   4.623   5.722   5.721
  161DPPC    C2 8002   4.400   5.663   5.748
  161DPPC    C3 8003   4.494   5.858   5.870
  161DPPC    N4 8004   4.490   5.779   5.746
  161DPPC    C5 8005   4.476   5.858   5.623
  161DPPC    C6 8006   4.370   5.969   5.625
  161DPPC    O7 8007   4.377   6.038   5.500
  161DPPC    P8 8008   4.235   6.108   5.470
  161DPPC    O9 8009   4.241   6.255   5.473
  161DPPC   O10 8010   4.130   6.024   5.532
  161DPPC   O11 8011   4.252   6.080   5.313
  161DPPC   C12 8012   4.345   6.167   5.247
  161DPPC   C13 8013   4.379   6.116   5.107
  161DPPC   O14 8014   4.292   6.146   4.997
  161DPPC   C15 8015   4.261   6.274   4.965
  161DPPC   O16 8016   4.283   6.372   5.037
  161DPPC   C17 8017   4.175   6.304   4.842
  161DPPC   C18 8018   4.152   6.454   4.818
  161DPPC   C19 8019   4.080   6.471   4.684
  161DPPC   C20 8020   3.951   6.390   4.691
  161DPPC   C21 8021   3.896   6.391   4.548
  161DPPC   C22 8022   4.007   6.337   4.458
  161DPPC   C23 8023   3.960   6.273   4.328
  161DPPC   C24 8024   4.064   6.183   4.261
  161DPPC   C25 8025   4.017   6.147   4.120
  161DPPC   C26 8026   4.123   6.066   4.044
  161DPPC   C27 8027   4.054   6.011   3.919
  161DPPC   C28 8028   4.044   6.102   3.796
  161DPPC   C29 8029   4.014   6.021   3.670
  161DPPC   C30 8030   3.887   5.941   3.699
  161DPPC   C31 8031   3.763   6.027   3.672
  161DPPC   C32 8032   4.413   5.969   5.134
  161DPPC   O33 8033   4.505   5.899   5.050
  161DPPC   C34 8034   4.512   5.765   5.073
  161DPPC   O35 8035   4.447   5.713   5.164
  161DPPC   C36 8036   4.585   5.679   4.969
  161DPPC   C37 8037   4.542   5.721   4.828
  161DPPC   C38 8038   4.650   5.675   4.730
  161DPPC   C39 8039   4.621   5.744   4.597
  161DPPC   C40 8040   4.706   5.691   4.482
  161DPPC   C41 8041   4.698   5.769   4.350
  161DPPC   C42 8042   4.808   5.711   4.260
  161DPPC   C43 8043   4.806   5.772   4.120
  161DPPC   C44 8044   4.921   5.718   4.034
  161DPPC   C45 8045   5.049   5.795   4.064
  161DPPC   C46 8046   5.153   5.751   3.962
  161DPPC   C47 8047   5.288   5.822   3.980
  161DPPC   C48 8048   5.389   5.756   3.887
  161DPPC   C49 8049   5.531   5.806   3.917
  161DPPC   C50 8050   5.527   5.958   3.914
  162DPPC    C1 8051   6.154   6.167   5.144
  162DPPC    C2 8052   6.387   6.129   5.173
  162DPPC    C3 8053   6.266   6.225   5.354
  162DPPC    N4 8054   6.258   6.131   5.242
  162DPPC    C5 8055   6.247   5.997   5.302
  162DPPC    C6 8056   6.196   5.883   5.214
  162DPPC    O7 8057   6.272   5.852   5.097
  162DPPC    P8 8058   6.200   5.734   5.013
  162DPPC    O9 8059   6.086   5.822   4.978
  162DPPC   O10 8060   6.198   5.620   5.107
  162DPPC   O11 8061   6.319   5.729   4.904
  162DPPC   C12 8062   6.292   5.841   4.819
  162DPPC   C13 8063   6.404   5.885   4.725
  162DPPC   O14 8064   6.381   5.838   4.592
  162DPPC   C15 8065   6.291   5.911   4.520
  162DPPC   O16 8066   6.210   5.985   4.574
  162DPPC   C17 8067   6.304   5.913   4.368
  162DPPC   C18 8068   6.422   5.826   4.323
  162DPPC   C19 8069   6.451   5.847   4.174
  162DPPC   C20 8070   6.332   5.822   4.081
  162DPPC   C21 8071   6.371   5.832   3.934
  162DPPC   C22 8072   6.398   5.978   3.896
  162DPPC   C23 8073   6.443   5.979   3.750
  162DPPC   C24 8074   6.448   6.120   3.691
  162DPPC   C25 8075   6.531   6.130   3.563
  162DPPC   C26 8076   6.666   6.060   3.585
  162DPPC   C27 8077   6.735   6.084   3.450
  162DPPC   C28 8078   6.662   6.009   3.339
  162DPPC   C29 8079   6.634   5.859   3.356
  162DPPC   C30 8080   6.495   5.831   3.299
  162DPPC   C31 8081   6.490   5.836   3.146
  162DPPC   C32 8082   6.531   5.831   4.791
  162DPPC   O33 8083   6.651   5.885   4.735
  162DPPC   C34 8084   6.767   5.815   4.755
  162DPPC   O35 8085   6.761   5.721   4.834
  162DPPC   C36 8086   6.890   5.869   4.683
  162DPPC   C37 8087   6.930   5.785   4.561
  162DPPC   C38 8088   6.844   5.815   4.438
  162DPPC   C39 8089   6.909   5.753   4.314
  162DPPC   C40 8090   6.828   5.768   4.185
  162DPPC   C41 8091   6.908   5.717   4.065
  162DPPC   C42 8092   6.819   5.722   3.940
  162DPPC   C43 8093   6.889   5.669   3.815
  162DPPC   C44 8094   6.823   5.685   3.678
  162DPPC   C45 8095   6.912   5.638   3.562
  162DPPC   C46 8096   7.023   5.737   3.524
  162DPPC   C47 8097   7.107   5.679   3.411
  162DPPC   C48 8098   7.223   5.774   3.382
  162DPPC   C49 8099   7.175   5.865   3.268
  162DPPC   C50 8100   7.290   5.964   3.248
  163DPPC    C1 8101   6.131   5.129   1.301
  163DPPC    C2 8102   6.114   5.199   1.529
  163DPPC    C3 8103   5.960   5.041   1.428
  163DPPC    N4 8104   6.100   5.084   1.438
  163DPPC    C5 8105   6.195   4.981   1.480
  163DPPC    C6 8106   6.177   4.896   1.606
  163DPPC    O7 8107   6.291   4.816   1.639
  163DPPC    P8 8108   6.242   4.699   1.739
  163DPPC    O9 8109   6.355   4.615   1.785
  163DPPC   O10 8110   6.124   4.629   1.684
  163DPPC   O11 8111   6.178   4.789   1.856
  163DPPC   C12 8112   6.278   4.815   1.955
  163DPPC   C13 8113   6.230   4.932   2.040
  163DPPC   O14 8114   6.336   4.987   2.120
  163DPPC   C15 8115   6.435   5.058   2.060
  163DPPC   O16 8116   6.446   5.056   1.938
  163DPPC   C17 8117   6.553   5.107   2.145
  163DPPC   C18 8118   6.514   5.239   2.211
  163DPPC   C19 8119   6.633   5.288   2.294
  163DPPC   C20 8120   6.603   5.418   2.370
  163DPPC   C21 8121   6.708   5.423   2.481
  163DPPC   C22 8122   6.704   5.562   2.545
  163DPPC   C23 8123   6.567   5.612   2.590
  163DPPC   C24 8124   6.594   5.743   2.663
  163DPPC   C25 8125   6.642   5.853   2.568
  163DPPC   C26 8126   6.659   5.982   2.650
  163DPPC   C27 8127   6.750   5.953   2.769
  163DPPC   C28 8128   6.753   6.072   2.865
  163DPPC   C29 8129   6.862   6.064   2.972
  163DPPC   C30 8130   6.902   6.201   3.028
  163DPPC   C31 8131   7.007   6.201   3.139
  163DPPC   C32 8132   6.111   4.877   2.118
  163DPPC   O33 8133   6.036   4.990   2.164
  163DPPC   C34 8134   5.926   4.948   2.232
  163DPPC   O35 8135   5.904   4.827   2.231
  163DPPC   C36 8136   5.844   5.046   2.316
  163DPPC   C37 8137   5.867   5.046   2.467
  163DPPC   C38 8138   5.775   5.150   2.530
  163DPPC   C39 8139   5.801   5.159   2.681
  163DPPC   C40 8140   5.693   5.246   2.745
  163DPPC   C41 8141   5.692   5.224   2.896
  163DPPC   C42 8142   5.592   5.323   2.956
  163DPPC   C43 8143   5.590   5.330   3.108
  163DPPC   C44 8144   5.545   5.465   3.167
  163DPPC   C45 8145   5.580   5.471   3.315
  163DPPC   C46 8146   5.554   5.616   3.356
  163DPPC   C47 8147   5.579   5.644   3.504
  163DPPC   C48 8148   5.585   5.795   3.526
  163DPPC   C49 8149   5.682   5.848   3.420
  163DPPC   C50 8150   5.698   5.998   3.395
  164DPPC    C1 8151   2.542   2.248   2.287
  164DPPC    C2 8152   2.735   2.244   2.429
  164DPPC    C3 8153   2.647   2.041   2.356
  164DPPC    N4 8154   2.670   2.180   2.314
  164DPPC    C5 8155   2.754   2.174   2.194
  164DPPC    C6 8156   2.794   2.288   2.100
  164DPPC    O7 8157   2.884   2.374   2.169
  164DPPC    P8 8158   2.915   2.492   2.063
  164DPPC    O9 8159   2.779   2.526   2.016
  164DPPC   O10 8160   3.019   2.423   1.984
  164DPPC   O11 8161   2.985   2.595   2.165
  164DPPC   C12 8162   2.898   2.615   2.277
  164DPPC   C13 8163   2.981   2.682   2.387
  164DPPC   O14 8164   2.916   2.707   2.512
  164DPPC   C15 8165   2.921   2.601   2.597
  164DPPC   O16 8166   2.959   2.487   2.569
  164DPPC   C17 8167   2.847   2.608   2.731
  164DPPC   C18 8168   2.904   2.518   2.841
  164DPPC   C19 8169   2.829   2.526   2.974
  164DPPC   C20 8170   2.707   2.434   2.972
  164DPPC   C21 8171   2.609   2.472   3.083
  164DPPC   C22 8172   2.563   2.618   3.081
  164DPPC   C23 8173   2.422   2.613   3.138
  164DPPC   C24 8174   2.456   2.604   3.286
  164DPPC   C25 8175   2.330   2.617   3.373
  164DPPC   C26 8176   2.350   2.608   3.525
  164DPPC   C27 8177   2.220   2.612   3.605
  164DPPC   C28 8178   2.229   2.591   3.756
  164DPPC   C29 8179   2.319   2.695   3.822
  164DPPC   C30 8180   2.251   2.831   3.810
  164DPPC   C31 8181   2.337   2.946   3.863
  164DPPC   C32 8182   3.045   2.802   2.317
  164DPPC   O33 8183   2.953   2.907   2.285
  164DPPC   C34 8184   3.002   3.010   2.211
  164DPPC   O35 8185   3.120   3.011   2.176
  164DPPC   C36 8186   2.919   3.138   2.204
  164DPPC   C37 8187   2.922   3.202   2.343
  164DPPC   C38 8188   2.787   3.272   2.357
  164DPPC   C39 8189   2.771   3.361   2.481
  164DPPC   C40 8190   2.751   3.256   2.591
  164DPPC   C41 8191   2.726   3.330   2.722
  164DPPC   C42 8192   2.748   3.233   2.838
  164DPPC   C43 8193   2.723   3.297   2.974
  164DPPC   C44 8194   2.745   3.190   3.082
  164DPPC   C45 8195   2.741   3.250   3.223
  164DPPC   C46 8196   2.787   3.140   3.318
  164DPPC   C47 8197   2.818   3.205   3.453
  164DPPC   C48 8198   2.849   3.105   3.564
  164DPPC   C49 8199   2.741   3.014   3.622
  164DPPC   C50 8200   2.794   2.978   3.761
  165DPPC    C1 8201   0.109   3.380   1.297
  165DPPC    C2 8202   0.290   3.502   1.422
  165DPPC    C3 8203   0.076   3.589   1.399
  165DPPC    N4 8204   0.149   3.462   1.412
  165DPPC    C5 8205   0.100   3.387   1.529
  165DPPC    C6 8206   0.163   3.250   1.555
  165DPPC    O7 8207   0.084   3.140   1.508
  165DPPC    P8 8208   0.168   3.005   1.484
  165DPPC    O9 8209   0.272   3.061   1.394
  165DPPC   O10 8210   0.065   2.903   1.452
  165DPPC   O11 8211   0.220   2.990   1.635
  165DPPC   C12 8212   0.108   2.947   1.714
  165DPPC   C13 8213   0.111   2.999   1.858
  165DPPC   O14 8214   0.107   3.141   1.879
  165DPPC   C15 8215  -0.014   3.196   1.909
  165DPPC   O16 8216  -0.121   3.141   1.884
  165DPPC   C17 8217  -0.007   3.346   1.937
  165DPPC   C18 8218   0.064   3.383   2.067
  165DPPC   C19 8219  -0.018   3.352   2.193
  165DPPC   C20 8220   0.040   3.400   2.326
  165DPPC   C21 8221  -0.061   3.391   2.440
  165DPPC   C22 8222  -0.007   3.396   2.583
  165DPPC   C23 8223  -0.123   3.378   2.681
  165DPPC   C24 8224  -0.046   3.379   2.813
  165DPPC   C25 8225  -0.135   3.317   2.920
  165DPPC   C26 8226  -0.085   3.385   3.048
  165DPPC   C27 8227  -0.147   3.305   3.163
  165DPPC   C28 8228  -0.300   3.296   3.153
  165DPPC   C29 8229  -0.363   3.240   3.281
  165DPPC   C30 8230  -0.427   3.348   3.368
  165DPPC   C31 8231  -0.485   3.277   3.491
  165DPPC   C32 8232   0.240   2.940   1.917
  165DPPC   O33 8233   0.236   2.887   2.050
  165DPPC   C34 8234   0.192   2.760   2.066
  165DPPC   O35 8235   0.210   2.680   1.974
  165DPPC   C36 8236   0.201   2.715   2.212
  165DPPC   C37 8237   0.148   2.574   2.237
  165DPPC   C38 8238   0.189   2.551   2.383
  165DPPC   C39 8239   0.061   2.512   2.458
  165DPPC   C40 8240   0.079   2.525   2.609
  165DPPC   C41 8241  -0.044   2.484   2.690
  165DPPC   C42 8242  -0.027   2.515   2.839
  165DPPC   C43 8243  -0.145   2.485   2.931
  165DPPC   C44 8244  -0.133   2.579   3.051
  165DPPC   C45 8245  -0.246   2.541   3.147
  165DPPC   C46 8246  -0.237   2.630   3.271
  165DPPC   C47 8247  -0.343   2.578   3.367
  165DPPC   C48 8248  -0.321   2.436   3.420
  165DPPC   C49 8249  -0.427   2.375   3.512
  165DPPC   C50 8250  -0.372   2.247   3.575
  166DPPC    C1 8251   2.272   3.434   1.301
  166DPPC    C2 8252   2.495   3.460   1.400
  166DPPC    C3 8253   2.317   3.362   1.523
  166DPPC    N4 8254   2.374   3.376   1.388
  166DPPC    C5 8255   2.430   3.248   1.340
  166DPPC    C6 8256   2.370   3.112   1.374
  166DPPC    O7 8257   2.242   3.106   1.310
  166DPPC    P8 8258   2.162   2.972   1.348
  166DPPC    O9 8259   2.254   2.857   1.330
  166DPPC   O10 8260   2.030   2.974   1.282
  166DPPC   O11 8261   2.132   3.015   1.501
  166DPPC   C12 8262   2.038   2.918   1.548
  166DPPC   C13 8263   1.978   2.950   1.685
  166DPPC   O14 8264   1.861   2.874   1.719
  166DPPC   C15 8265   1.870   2.744   1.756
  166DPPC   O16 8266   1.976   2.682   1.768
  166DPPC   C17 8267   1.742   2.693   1.823
  166DPPC   C18 8268   1.772   2.656   1.968
  166DPPC   C19 8269   1.655   2.582   2.032
  166DPPC   C20 8270   1.669   2.601   2.183
  166DPPC   C21 8271   1.598   2.498   2.271
  166DPPC   C22 8272   1.627   2.523   2.419
  166DPPC   C23 8273   1.601   2.666   2.469
  166DPPC   C24 8274   1.599   2.667   2.622
  166DPPC   C25 8275   1.645   2.806   2.666
  166DPPC   C26 8276   1.665   2.811   2.818
  166DPPC   C27 8277   1.534   2.766   2.883
  166DPPC   C28 8278   1.556   2.758   3.034
  166DPPC   C29 8279   1.440   2.673   3.084
  166DPPC   C30 8280   1.423   2.675   3.236
  166DPPC   C31 8281   1.311   2.574   3.264
  166DPPC   C32 8282   1.966   3.103   1.681
  166DPPC   O33 8283   1.932   3.172   1.801
  166DPPC   C34 8284   1.940   3.308   1.792
  166DPPC   O35 8285   2.010   3.367   1.710
  166DPPC   C36 8286   1.863   3.392   1.894
  166DPPC   C37 8287   1.956   3.426   2.011
  166DPPC   C38 8288   1.896   3.516   2.118
  166DPPC   C39 8289   2.004   3.522   2.227
  166DPPC   C40 8290   1.943   3.620   2.328
  166DPPC   C41 8291   2.027   3.618   2.456
  166DPPC   C42 8292   1.926   3.602   2.570
  166DPPC   C43 8293   1.983   3.607   2.712
  166DPPC   C44 8294   1.875   3.560   2.810
  166DPPC   C45 8295   1.843   3.670   2.912
  166DPPC   C46 8296   1.817   3.807   2.850
  166DPPC   C47 8297   1.797   3.908   2.963
  166DPPC   C48 8298   1.918   3.930   3.055
  166DPPC   C49 8299   1.885   4.030   3.167
  166DPPC   C50 8300   2.003   4.041   3.263
  167DPPC    C1 8301   2.241   2.330   1.436
  167DPPC    C2 8302   2.417   2.188   1.514
  167DPPC    C3 8303   2.393   2.412   1.588
  167DPPC    N4 8304   2.318   2.290   1.554
  167DPPC    C5 8305   2.235   2.247   1.668
  167DPPC    C6 8306   2.133   2.134   1.655
  167DPPC    O7 8307   2.202   2.011   1.676
  167DPPC    P8 8308   2.095   1.897   1.638
  167DPPC    O9 8309   2.180   1.779   1.612
  167DPPC   O10 8310   2.015   1.963   1.532
  167DPPC   O11 8311   2.033   1.926   1.784
  167DPPC   C12 8312   2.105   1.876   1.897
  167DPPC   C13 8313   2.033   1.911   2.027
  167DPPC   O14 8314   1.918   1.831   2.056
  167DPPC   C15 8315   1.938   1.703   2.098
  167DPPC   O16 8316   2.033   1.637   2.058
  167DPPC   C17 8317   1.835   1.655   2.200
  167DPPC   C18 8318   1.889   1.672   2.342
  167DPPC   C19 8319   1.806   1.617   2.459
  167DPPC   C20 8320   1.857   1.658   2.597
  167DPPC   C21 8321   2.005   1.625   2.616
  167DPPC   C22 8322   2.062   1.711   2.729
  167DPPC   C23 8323   2.200   1.643   2.726
  167DPPC   C24 8324   2.279   1.740   2.813
  167DPPC   C25 8325   2.395   1.672   2.886
  167DPPC   C26 8326   2.336   1.588   2.999
  167DPPC   C27 8327   2.435   1.512   3.088
  167DPPC   C28 8328   2.391   1.377   3.145
  167DPPC   C29 8329   2.511   1.323   3.223
  167DPPC   C30 8330   2.471   1.202   3.307
  167DPPC   C31 8331   2.352   1.245   3.392
  167DPPC   C32 8332   2.020   2.063   2.012
  167DPPC   O33 8333   2.022   2.134   2.136
  167DPPC   C34 8334   1.955   2.253   2.138
  167DPPC   O35 8335   1.880   2.294   2.050
  167DPPC   C36 8336   1.954   2.330   2.270
  167DPPC   C37 8337   2.068   2.431   2.280
  167DPPC   C38 8338   2.034   2.531   2.390
  167DPPC   C39 8339   2.018   2.462   2.525
  167DPPC   C40 8340   2.016   2.577   2.626
  167DPPC   C41 8341   2.020   2.541   2.775
  167DPPC   C42 8342   2.016   2.668   2.861
  167DPPC   C43 8343   1.975   2.634   3.005
  167DPPC   C44 8344   1.952   2.756   3.095
  167DPPC   C45 8345   1.922   2.720   3.241
  167DPPC   C46 8346   1.921   2.851   3.319
  167DPPC   C47 8347   1.854   2.839   3.456
  167DPPC   C48 8348   1.890   2.966   3.534
  167DPPC   C49 8349   1.817   2.959   3.668
  167DPPC   C50 8350   1.876   3.053   3.772
  168DPPC    C1 8351   2.750   8.043   1.394
  168DPPC    C2 8352   2.529   8.004   1.316
  168DPPC    C3 8353   2.591   7.949   1.539
  168DPPC    N4 8354   2.608   8.048   1.432
  168DPPC    C5 8355   2.575   8.184   1.474
  168DPPC    C6 8356   2.640   8.258   1.591
  168DPPC    O7 8357   2.609   8.398   1.598
  168DPPC    P8 8358   2.697   8.467   1.713
  168DPPC    O9 8359   2.680   8.614   1.715
  168DPPC   O10 8360   2.826   8.399   1.687
  168DPPC   O11 8361   2.654   8.386   1.846
  168DPPC   C12 8362   2.532   8.439   1.900
  168DPPC   C13 8363   2.501   8.392   2.042
  168DPPC   O14 8364   2.374   8.443   2.086
  168DPPC   C15 8365   2.265   8.364   2.072
  168DPPC   O16 8366   2.251   8.303   1.966
  168DPPC   C17 8367   2.146   8.380   2.166
  168DPPC   C18 8368   2.132   8.527   2.206
  168DPPC   C19 8369   2.061   8.537   2.342
  168DPPC   C20 8370   2.038   8.686   2.367
  168DPPC   C21 8371   1.977   8.726   2.502
  168DPPC   C22 8372   1.895   8.854   2.483
  168DPPC   C23 8373   1.842   8.907   2.616
  168DPPC   C24 8374   1.725   8.827   2.674
  168DPPC   C25 8375   1.675   8.893   2.802
  168DPPC   C26 8376   1.597   8.796   2.891
  168DPPC   C27 8377   1.681   8.670   2.914
  168DPPC   C28 8378   1.631   8.556   3.004
  168DPPC   C29 8379   1.481   8.530   3.001
  168DPPC   C30 8380   1.459   8.423   3.108
  168DPPC   C31 8381   1.309   8.396   3.116
  168DPPC   C32 8382   2.622   8.440   2.121
  168DPPC   O33 8383   2.648   8.581   2.111
  168DPPC   C34 8384   2.777   8.623   2.120
  168DPPC   O35 8385   2.866   8.547   2.156
  168DPPC   C36 8386   2.789   8.774   2.102
  168DPPC   C37 8387   2.751   8.855   2.226
  168DPPC   C38 8388   2.755   8.998   2.172
  168DPPC   C39 8389   2.726   9.102   2.280
  168DPPC   C40 8390   2.810   9.079   2.405
  168DPPC   C41 8391   2.779   9.184   2.513
  168DPPC   C42 8392   2.863   9.156   2.637
  168DPPC   C43 8393   2.860   9.275   2.733
  168DPPC   C44 8394   2.946   9.254   2.858
  168DPPC   C45 8395   3.094   9.225   2.836
  168DPPC   C46 8396   3.168   9.231   2.970
  168DPPC   C47 8397   3.313   9.183   2.963
  168DPPC   C48 8398   3.379   9.283   2.868
  168DPPC   C49 8399   3.529   9.253   2.865
  168DPPC   C50 8400   3.573   9.150   2.761
  169DPPC    C1 8401   0.091   2.570   1.676
  169DPPC    C2 8402   0.309   2.512   1.660
  169DPPC    C3 8403   0.151   2.358   1.561
  169DPPC    N4 8404   0.183   2.500   1.585
  169DPPC    C5 8405   0.185   2.582   1.463
  169DPPC    C6 8406   0.279   2.557   1.345
  169DPPC    O7 8407   0.411   2.611   1.358
  169DPPC    P8 8408   0.432   2.757   1.293
  169DPPC    O9 8409   0.319   2.801   1.209
  169DPPC   O10 8410   0.566   2.736   1.233
  169DPPC   O11 8411   0.452   2.818   1.441
  169DPPC   C12 8412   0.580   2.789   1.499
  169DPPC   C13 8413   0.602   2.862   1.632
  169DPPC   O14 8414   0.550   2.801   1.750
  169DPPC   C15 8415   0.637   2.742   1.837
  169DPPC   O16 8416   0.740   2.690   1.795
  169DPPC   C17 8417   0.581   2.695   1.971
  169DPPC   C18 8418   0.648   2.567   2.021
  169DPPC   C19 8419   0.644   2.553   2.174
  169DPPC   C20 8420   0.717   2.428   2.221
  169DPPC   C21 8421   0.629   2.303   2.208
  169DPPC   C22 8422   0.514   2.322   2.307
  169DPPC   C23 8423   0.572   2.312   2.449
  169DPPC   C24 8424   0.462   2.339   2.552
  169DPPC   C25 8425   0.515   2.332   2.695
  169DPPC   C26 8426   0.408   2.347   2.803
  169DPPC   C27 8427   0.350   2.206   2.812
  169DPPC   C28 8428   0.237   2.205   2.914
  169DPPC   C29 8429   0.282   2.213   3.060
  169DPPC   C30 8430   0.161   2.213   3.153
  169DPPC   C31 8431   0.080   2.092   3.104
  169DPPC   C32 8432   0.564   3.008   1.603
  169DPPC   O33 8433   0.587   3.097   1.712
  169DPPC   C34 8434   0.544   3.226   1.701
  169DPPC   O35 8435   0.510   3.279   1.595
  169DPPC   C36 8436   0.565   3.306   1.829
  169DPPC   C37 8437   0.487   3.257   1.951
  169DPPC   C38 8438   0.488   3.376   2.047
  169DPPC   C39 8439   0.414   3.334   2.174
  169DPPC   C40 8440   0.393   3.453   2.267
  169DPPC   C41 8441   0.523   3.532   2.284
  169DPPC   C42 8442   0.604   3.481   2.403
  169DPPC   C43 8443   0.751   3.520   2.394
  169DPPC   C44 8444   0.832   3.492   2.521
  169DPPC   C45 8445   0.982   3.490   2.492
  169DPPC   C46 8446   1.031   3.628   2.448
  169DPPC   C47 8447   1.181   3.654   2.455
  169DPPC   C48 8448   1.220   3.791   2.401
  169DPPC   C49 8449   1.185   3.782   2.252
  169DPPC   C50 8450   1.165   3.911   2.172
  170DPPC    C1 8451   6.837   8.436   1.492
  170DPPC    C2 8452   7.013   8.323   1.426
  170DPPC    C3 8453   7.028   8.483   1.613
  170DPPC    N4 8454   6.954   8.371   1.552
  170DPPC    C5 8455   6.904   8.260   1.634
  170DPPC    C6 8456   7.002   8.170   1.710
  170DPPC    O7 8457   6.928   8.060   1.763
  170DPPC    P8 8458   7.015   7.925   1.752
  170DPPC    O9 8459   7.105   7.941   1.636
  170DPPC   O10 8460   6.925   7.808   1.763
  170DPPC   O11 8461   7.117   7.935   1.876
  170DPPC   C12 8462   7.030   7.904   1.985
  170DPPC   C13 8463   7.103   7.896   2.119
  170DPPC   O14 8464   7.032   7.820   2.219
  170DPPC   C15 8465   7.039   7.684   2.219
  170DPPC   O16 8466   7.075   7.622   2.119
  170DPPC   C17 8467   6.964   7.610   2.330
  170DPPC   C18 8468   6.931   7.688   2.457
  170DPPC   C19 8469   6.881   7.598   2.570
  170DPPC   C20 8470   6.822   7.681   2.685
  170DPPC   C21 8471   6.751   7.596   2.791
  170DPPC   C22 8472   6.702   7.677   2.911
  170DPPC   C23 8473   6.815   7.765   2.965
  170DPPC   C24 8474   6.758   7.858   3.072
  170DPPC   C25 8475   6.636   7.937   3.023
  170DPPC   C26 8476   6.572   8.019   3.136
  170DPPC   C27 8477   6.529   7.908   3.231
  170DPPC   C28 8478   6.453   7.965   3.351
  170DPPC   C29 8479   6.389   7.848   3.427
  170DPPC   C30 8480   6.497   7.750   3.471
  170DPPC   C31 8481   6.417   7.626   3.513
  170DPPC   C32 8482   7.142   8.036   2.166
  170DPPC   O33 8483   7.228   8.043   2.280
  170DPPC   C34 8484   7.254   8.165   2.333
  170DPPC   O35 8485   7.182   8.262   2.305
  170DPPC   C36 8486   7.374   8.179   2.426
  170DPPC   C37 8487   7.490   8.221   2.335
  170DPPC   C38 8488   7.622   8.223   2.411
  170DPPC   C39 8489   7.617   8.330   2.521
  170DPPC   C40 8490   7.751   8.351   2.592
  170DPPC   C41 8491   7.746   8.477   2.677
  170DPPC   C42 8492   7.893   8.504   2.709
  170DPPC   C43 8493   7.921   8.618   2.808
  170DPPC   C44 8494   8.066   8.605   2.854
  170DPPC   C45 8495   8.084   8.700   2.972
  170DPPC   C46 8496   8.217   8.690   3.047
  170DPPC   C47 8497   8.213   8.758   3.184
  170DPPC   C48 8498   8.336   8.705   3.258
  170DPPC   C49 8499   8.325   8.761   3.400
  170DPPC   C50 8500   8.442   8.734   3.495
  171DPPC    C1 8501   5.774   7.430   1.396
  171DPPC    C2 8502   5.710   7.225   1.325
  171DPPC    C3 8503   5.933   7.255   1.431
  171DPPC    N4 8504   5.790   7.288   1.432
  171DPPC    C5 8505   5.738   7.245   1.562
  171DPPC    C6 8506   5.618   7.322   1.617
  171DPPC    O7 8507   5.572   7.254   1.734
  171DPPC    P8 8508   5.445   7.304   1.819
  171DPPC    O9 8509   5.418   7.198   1.918
  171DPPC   O10 8510   5.343   7.323   1.713
  171DPPC   O11 8511   5.517   7.442   1.859
  171DPPC   C12 8512   5.582   7.418   1.984
  171DPPC   C13 8513   5.695   7.517   2.010
  171DPPC   O14 8514   5.789   7.477   2.111
  171DPPC   C15 8515   5.908   7.535   2.141
  171DPPC   O16 8516   5.962   7.620   2.071
  171DPPC   C17 8517   6.001   7.459   2.236
  171DPPC   C18 8518   6.129   7.539   2.259
  171DPPC   C19 8519   6.236   7.481   2.351
  171DPPC   C20 8520   6.195   7.527   2.491
  171DPPC   C21 8521   6.296   7.498   2.602
  171DPPC   C22 8522   6.252   7.576   2.726
  171DPPC   C23 8523   6.325   7.522   2.849
  171DPPC   C24 8524   6.302   7.374   2.878
  171DPPC   C25 8525   6.338   7.333   3.021
  171DPPC   C26 8526   6.228   7.359   3.124
  171DPPC   C27 8527   6.293   7.326   3.259
  171DPPC   C28 8528   6.190   7.328   3.372
  171DPPC   C29 8529   6.227   7.218   3.472
  171DPPC   C30 8530   6.101   7.166   3.540
  171DPPC   C31 8531   6.124   7.059   3.648
  171DPPC   C32 8532   5.638   7.653   2.051
  171DPPC   O33 8533   5.545   7.645   2.159
  171DPPC   C34 8534   5.492   7.763   2.201
  171DPPC   O35 8535   5.524   7.872   2.155
  171DPPC   C36 8536   5.407   7.768   2.328
  171DPPC   C37 8537   5.465   7.859   2.437
  171DPPC   C38 8538   5.374   7.861   2.560
  171DPPC   C39 8539   5.436   7.949   2.668
  171DPPC   C40 8540   5.452   8.092   2.618
  171DPPC   C41 8541   5.535   8.185   2.707
  171DPPC   C42 8542   5.520   8.327   2.654
  171DPPC   C43 8543   5.497   8.426   2.768
  171DPPC   C44 8544   5.620   8.429   2.860
  171DPPC   C45 8545   5.573   8.468   3.000
  171DPPC   C46 8546   5.457   8.376   3.041
  171DPPC   C47 8547   5.391   8.423   3.170
  171DPPC   C48 8548   5.249   8.369   3.190
  171DPPC   C49 8549   5.185   8.455   3.299
  171DPPC   C50 8550   5.035   8.437   3.278
  172DPPC    C1 8551   2.984   5.043   1.680
  172DPPC    C2 8552   2.971   5.036   1.933
  172DPPC    C3 8553   3.084   4.888   1.810
  172DPPC    N4 8554   3.052   5.031   1.810
  172DPPC    C5 8555   3.181   5.098   1.830
  172DPPC    C6 8556   3.178   5.250   1.821
  172DPPC    O7 8557   3.302   5.321   1.825
  172DPPC    P8 8558   3.273   5.469   1.768
  172DPPC    O9 8559   3.131   5.485   1.731
  172DPPC   O10 8560   3.382   5.539   1.696
  172DPPC   O11 8561   3.261   5.546   1.908
  172DPPC   C12 8562   3.395   5.519   1.951
  172DPPC   C13 8563   3.428   5.551   2.097
  172DPPC   O14 8564   3.404   5.440   2.184
  172DPPC   C15 8565   3.514   5.417   2.261
  172DPPC   O16 8566   3.623   5.411   2.204
  172DPPC   C17 8567   3.493   5.319   2.377
  172DPPC   C18 8568   3.448   5.388   2.505
  172DPPC   C19 8569   3.544   5.496   2.556
  172DPPC   C20 8570   3.503   5.547   2.694
  172DPPC   C21 8571   3.590   5.664   2.738
  172DPPC   C22 8572   3.546   5.726   2.871
  172DPPC   C23 8573   3.625   5.853   2.901
  172DPPC   C24 8574   3.547   5.936   3.003
  172DPPC   C25 8575   3.637   6.058   3.026
  172DPPC   C26 8576   3.582   6.144   3.139
  172DPPC   C27 8577   3.637   6.286   3.124
  172DPPC   C28 8578   3.590   6.368   3.245
  172DPPC   C29 8579   3.604   6.288   3.375
  172DPPC   C30 8580   3.620   6.367   3.505
  172DPPC   C31 8581   3.497   6.459   3.513
  172DPPC   C32 8582   3.352   5.681   2.127
  172DPPC   O33 8583   3.354   5.718   2.265
  172DPPC   C34 8584   3.275   5.816   2.316
  172DPPC   O35 8585   3.233   5.901   2.238
  172DPPC   C36 8586   3.273   5.848   2.466
  172DPPC   C37 8587   3.211   5.740   2.555
  172DPPC   C38 8588   3.192   5.790   2.699
  172DPPC   C39 8589   3.105   5.704   2.790
  172DPPC   C40 8590   3.107   5.757   2.933
  172DPPC   C41 8591   3.033   5.665   3.030
  172DPPC   C42 8592   3.053   5.703   3.177
  172DPPC   C43 8593   3.198   5.664   3.207
  172DPPC   C44 8594   3.246   5.731   3.336
  172DPPC   C45 8595   3.213   5.651   3.462
  172DPPC   C46 8596   3.259   5.727   3.587
  172DPPC   C47 8597   3.408   5.759   3.574
  172DPPC   C48 8598   3.463   5.836   3.694
  172DPPC   C49 8599   3.473   5.747   3.818
  172DPPC   C50 8600   3.564   5.624   3.802
  173DPPC    C1 8601   6.056   2.041   2.247
  173DPPC    C2 8602   5.923   2.056   2.056
  173DPPC    C3 8603   5.931   2.248   2.207
  173DPPC    N4 8604   6.007   2.137   2.147
  173DPPC    C5 8605   6.132   2.188   2.090
  173DPPC    C6 8606   6.135   2.294   1.979
  173DPPC    O7 8607   6.257   2.348   1.928
  173DPPC    P8 8608   6.248   2.493   1.859
  173DPPC    O9 8609   6.126   2.469   1.778
  173DPPC   O10 8610   6.374   2.549   1.806
  173DPPC   O11 8611   6.205   2.572   1.993
  173DPPC   C12 8612   6.324   2.631   2.046
  173DPPC   C13 8613   6.303   2.706   2.178
  173DPPC   O14 8614   6.424   2.752   2.240
  173DPPC   C15 8615   6.404   2.865   2.313
  173DPPC   O16 8616   6.317   2.940   2.270
  173DPPC   C17 8617   6.530   2.926   2.376
  173DPPC   C18 8618   6.501   3.012   2.499
  173DPPC   C19 8619   6.591   2.981   2.618
  173DPPC   C20 8620   6.576   2.843   2.682
  173DPPC   C21 8621   6.671   2.831   2.802
  173DPPC   C22 8622   6.642   2.700   2.875
  173DPPC   C23 8623   6.729   2.663   2.996
  173DPPC   C24 8624   6.674   2.756   3.104
  173DPPC   C25 8625   6.745   2.733   3.238
  173DPPC   C26 8626   6.654   2.810   3.334
  173DPPC   C27 8627   6.723   2.830   3.469
  173DPPC   C28 8628   6.752   2.702   3.548
  173DPPC   C29 8629   6.803   2.749   3.685
  173DPPC   C30 8630   6.693   2.833   3.749
  173DPPC   C31 8631   6.729   2.889   3.887
  173DPPC   C32 8632   6.248   2.587   2.257
  173DPPC   O33 8633   6.211   2.601   2.395
  173DPPC   C34 8634   6.189   2.490   2.470
  173DPPC   O35 8635   6.164   2.384   2.413
  173DPPC   C36 8636   6.155   2.511   2.618
  173DPPC   C37 8637   6.263   2.528   2.725
  173DPPC   C38 8638   6.207   2.602   2.847
  173DPPC   C39 8639   6.291   2.608   2.975
  173DPPC   C40 8640   6.244   2.712   3.076
  173DPPC   C41 8641   6.288   2.681   3.220
  173DPPC   C42 8642   6.223   2.782   3.314
  173DPPC   C43 8643   6.287   2.786   3.453
  173DPPC   C44 8644   6.274   2.643   3.506
  173DPPC   C45 8645   6.320   2.649   3.652
  173DPPC   C46 8646   6.242   2.754   3.731
  173DPPC   C47 8647   6.287   2.763   3.877
  173DPPC   C48 8648   6.240   2.897   3.935
  173DPPC   C49 8649   6.330   3.019   3.915
  173DPPC   C50 8650   6.259   3.153   3.929
  174DPPC    C1 8651   8.975   4.946   1.164
  174DPPC    C2 8652   9.121   4.888   1.324
  174DPPC    C3 8653   8.982   4.709   1.246
  174DPPC    N4 8654   9.055   4.831   1.206
  174DPPC    C5 8655   9.140   4.817   1.087
  174DPPC    C6 8656   9.228   4.692   1.086
  174DPPC    O7 8657   9.303   4.681   1.208
  174DPPC    P8 8658   9.373   4.537   1.188
  174DPPC    O9 8659   9.459   4.542   1.067
  174DPPC   O10 8660   9.258   4.444   1.189
  174DPPC   O11 8661   9.459   4.545   1.324
  174DPPC   C12 8662   9.375   4.508   1.434
  174DPPC   C13 8663   9.445   4.525   1.568
  174DPPC   O14 8664   9.365   4.491   1.682
  174DPPC   C15 8665   9.376   4.359   1.714
  174DPPC   O16 8666   9.425   4.276   1.637
  174DPPC   C17 8667   9.315   4.309   1.845
  174DPPC   C18 8668   9.309   4.415   1.955
  174DPPC   C19 8669   9.250   4.353   2.082
  174DPPC   C20 8670   9.242   4.449   2.201
  174DPPC   C21 8671   9.158   4.403   2.320
  174DPPC   C22 8672   9.159   4.493   2.444
  174DPPC   C23 8673   9.098   4.410   2.557
  174DPPC   C24 8674   9.099   4.475   2.696
  174DPPC   C25 8675   9.087   4.368   2.805
  174DPPC   C26 8676   9.061   4.422   2.946
  174DPPC   C27 8677   9.022   4.311   3.044
  174DPPC   C28 8678   8.893   4.242   2.999
  174DPPC   C29 8679   8.859   4.148   3.115
  174DPPC   C30 8680   8.740   4.057   3.082
  174DPPC   C31 8681   8.656   4.025   3.205
  174DPPC   C32 8682   9.514   4.662   1.569
  174DPPC   O33 8683   9.427   4.772   1.542
  174DPPC   C34 8684   9.489   4.893   1.548
  174DPPC   O35 8685   9.612   4.898   1.542
  174DPPC   C36 8686   9.393   5.012   1.543
  174DPPC   C37 8687   9.433   5.112   1.651
  174DPPC   C38 8688   9.339   5.233   1.648
  174DPPC   C39 8689   9.350   5.335   1.761
  174DPPC   C40 8690   9.341   5.273   1.901
  174DPPC   C41 8691   9.324   5.383   2.007
  174DPPC   C42 8692   9.306   5.314   2.142
  174DPPC   C43 8693   9.336   5.413   2.255
  174DPPC   C44 8694   9.300   5.350   2.390
  174DPPC   C45 8695   9.339   5.446   2.503
  174DPPC   C46 8696   9.281   5.402   2.638
  174DPPC   C47 8697   9.323   5.511   2.737
  174DPPC   C48 8698   9.251   5.478   2.868
  174DPPC   C49 8699   9.101   5.489   2.838
  174DPPC   C50 8700   9.008   5.442   2.950
  175DPPC    C1 8701   3.744   1.778   1.947
  175DPPC    C2 8702   3.934   1.894   2.024
  175DPPC    C3 8703   3.728   1.988   2.063
  175DPPC    N4 8704   3.796   1.858   2.059
  175DPPC    C5 8705   3.804   1.793   2.191
  175DPPC    C6 8706   3.673   1.724   2.233
  175DPPC    O7 8707   3.560   1.809   2.251
  175DPPC    P8 8708   3.422   1.728   2.270
  175DPPC    O9 8709   3.462   1.588   2.296
  175DPPC   O10 8710   3.322   1.780   2.173
  175DPPC   O11 8711   3.401   1.799   2.413
  175DPPC   C12 8712   3.434   1.704   2.515
  175DPPC   C13 8713   3.458   1.770   2.651
  175DPPC   O14 8714   3.541   1.702   2.746
  175DPPC   C15 8715   3.674   1.687   2.723
  175DPPC   O16 8716   3.734   1.755   2.640
  175DPPC   C17 8717   3.744   1.608   2.834
  175DPPC   C18 8718   3.728   1.692   2.961
  175DPPC   C19 8719   3.777   1.636   3.095
  175DPPC   C20 8720   3.790   1.746   3.201
  175DPPC   C21 8721   3.828   1.695   3.340
  175DPPC   C22 8722   3.960   1.620   3.358
  175DPPC   C23 8723   3.987   1.587   3.505
  175DPPC   C24 8724   3.999   1.701   3.606
  175DPPC   C25 8725   4.019   1.657   3.751
  175DPPC   C26 8726   4.047   1.783   3.834
  175DPPC   C27 8727   4.090   1.742   3.975
  175DPPC   C28 8728   4.159   1.856   4.051
  175DPPC   C29 8729   4.178   1.831   4.201
  175DPPC   C30 8730   4.270   1.709   4.204
  175DPPC   C31 8731   4.408   1.732   4.143
  175DPPC   C32 8732   3.323   1.827   2.696
  175DPPC   O33 8733   3.229   1.720   2.707
  175DPPC   C34 8734   3.113   1.739   2.776
  175DPPC   O35 8735   3.040   1.825   2.726
  175DPPC   C36 8736   3.058   1.601   2.813
  175DPPC   C37 8737   2.918   1.624   2.870
  175DPPC   C38 8738   2.853   1.489   2.903
  175DPPC   C39 8739   2.938   1.398   2.992
  175DPPC   C40 8740   2.861   1.267   3.006
  175DPPC   C41 8741   2.942   1.173   3.096
  175DPPC   C42 8742   2.967   1.238   3.232
  175DPPC   C43 8743   3.079   1.171   3.311
  175DPPC   C44 8744   3.136   1.248   3.430
  175DPPC   C45 8745   3.250   1.152   3.464
  175DPPC   C46 8746   3.338   1.208   3.575
  175DPPC   C47 8747   3.272   1.245   3.708
  175DPPC   C48 8748   3.388   1.245   3.808
  175DPPC   C49 8749   3.339   1.293   3.945
  175DPPC   C50 8750   3.433   1.265   4.062
  176DPPC    C1 8751   8.316   4.771   1.224
  176DPPC    C2 8752   8.385   4.798   0.993
  176DPPC    C3 8753   8.152   4.777   1.057
  176DPPC    N4 8754   8.284   4.832   1.094
  176DPPC    C5 8755   8.269   4.978   1.105
  176DPPC    C6 8756   8.399   5.059   1.117
  176DPPC    O7 8757   8.443   5.074   1.252
  176DPPC    P8 8758   8.599   5.113   1.261
  176DPPC    O9 8759   8.608   5.245   1.326
  176DPPC   O10 8760   8.655   5.105   1.124
  176DPPC   O11 8761   8.650   4.986   1.346
  176DPPC   C12 8762   8.579   4.964   1.469
  176DPPC   C13 8763   8.643   4.860   1.561
  176DPPC   O14 8764   8.561   4.827   1.674
  176DPPC   C15 8765   8.587   4.705   1.730
  176DPPC   O16 8766   8.646   4.620   1.665
  176DPPC   C17 8767   8.510   4.671   1.858
  176DPPC   C18 8768   8.369   4.613   1.842
  176DPPC   C19 8769   8.305   4.589   1.979
  176DPPC   C20 8770   8.160   4.540   1.989
  176DPPC   C21 8771   8.135   4.480   2.128
  176DPPC   C22 8772   7.992   4.428   2.137
  176DPPC   C23 8773   7.956   4.368   2.274
  176DPPC   C24 8774   7.923   4.480   2.373
  176DPPC   C25 8775   7.897   4.431   2.516
  176DPPC   C26 8776   7.825   4.532   2.605
  176DPPC   C27 8777   7.805   4.486   2.750
  176DPPC   C28 8778   7.726   4.591   2.828
  176DPPC   C29 8779   7.743   4.561   2.977
  176DPPC   C30 8780   7.894   4.581   2.988
  176DPPC   C31 8781   7.948   4.508   3.112
  176DPPC   C32 8782   8.786   4.905   1.589
  176DPPC   O33 8783   8.790   5.036   1.648
  176DPPC   C34 8784   8.914   5.086   1.675
  176DPPC   O35 8785   9.013   5.020   1.644
  176DPPC   C36 8786   8.904   5.209   1.765
  176DPPC   C37 8787   8.900   5.178   1.915
  176DPPC   C38 8788   8.914   5.313   1.984
  176DPPC   C39 8789   8.884   5.297   2.133
  176DPPC   C40 8790   8.918   5.420   2.218
  176DPPC   C41 8791   8.866   5.407   2.361
  176DPPC   C42 8792   8.853   5.538   2.438
  176DPPC   C43 8793   8.798   5.503   2.576
  176DPPC   C44 8794   8.762   5.640   2.634
  176DPPC   C45 8795   8.701   5.630   2.774
  176DPPC   C46 8796   8.575   5.543   2.780
  176DPPC   C47 8797   8.449   5.620   2.742
  176DPPC   C48 8798   8.326   5.529   2.732
  176DPPC   C49 8799   8.228   5.607   2.644
  176DPPC   C50 8800   8.188   5.727   2.730
  177DPPC    C1 8801   9.158   2.625   1.656
  177DPPC    C2 8802   8.969   2.630   1.503
  177DPPC    C3 8803   8.963   2.707   1.725
  177DPPC    N4 8804   9.046   2.704   1.603
  177DPPC    C5 8805   9.100   2.834   1.561
  177DPPC    C6 8806   9.038   2.906   1.442
  177DPPC    O7 8807   8.906   2.953   1.473
  177DPPC    P8 8808   8.918   3.110   1.507
  177DPPC    O9 8809   8.838   3.197   1.418
  177DPPC   O10 8810   9.055   3.139   1.555
  177DPPC   O11 8811   8.834   3.104   1.644
  177DPPC   C12 8812   8.918   3.109   1.760
  177DPPC   C13 8813   8.855   3.140   1.896
  177DPPC   O14 8814   8.800   3.024   1.959
  177DPPC   C15 8815   8.872   2.937   2.035
  177DPPC   O16 8816   8.995   2.930   2.033
  177DPPC   C17 8817   8.792   2.829   2.108
  177DPPC   C18 8818   8.772   2.864   2.256
  177DPPC   C19 8819   8.689   2.767   2.341
  177DPPC   C20 8820   8.662   2.824   2.480
  177DPPC   C21 8821   8.570   2.726   2.554
  177DPPC   C22 8822   8.583   2.731   2.706
  177DPPC   C23 8823   8.495   2.627   2.775
  177DPPC   C24 8824   8.482   2.632   2.928
  177DPPC   C25 8825   8.433   2.767   2.980
  177DPPC   C26 8826   8.398   2.758   3.129
  177DPPC   C27 8827   8.295   2.651   3.164
  177DPPC   C28 8828   8.274   2.633   3.314
  177DPPC   C29 8829   8.156   2.537   3.329
  177DPPC   C30 8830   8.141   2.511   3.479
  177DPPC   C31 8831   8.011   2.445   3.527
  177DPPC   C32 8832   8.750   3.250   1.879
  177DPPC   O33 8833   8.668   3.280   1.992
  177DPPC   C34 8834   8.565   3.204   2.036
  177DPPC   O35 8835   8.521   3.107   1.973
  177DPPC   C36 8836   8.488   3.249   2.160
  177DPPC   C37 8837   8.585   3.308   2.263
  177DPPC   C38 8838   8.507   3.362   2.384
  177DPPC   C39 8839   8.612   3.419   2.480
  177DPPC   C40 8840   8.705   3.306   2.524
  177DPPC   C41 8841   8.796   3.360   2.635
  177DPPC   C42 8842   8.905   3.253   2.644
  177DPPC   C43 8843   8.846   3.130   2.714
  177DPPC   C44 8844   8.946   3.024   2.757
  177DPPC   C45 8845   8.894   2.902   2.834
  177DPPC   C46 8846   9.002   2.830   2.914
  177DPPC   C47 8847   8.961   2.737   3.029
  177DPPC   C48 8848   8.859   2.630   2.991
  177DPPC   C49 8849   8.785   2.561   3.105
  177DPPC   C50 8850   8.870   2.457   3.178
  178DPPC    C1 8851   8.009   2.264   1.807
  178DPPC    C2 8852   8.111   2.477   1.868
  178DPPC    C3 8853   8.187   2.264   1.957
  178DPPC    N4 8854   8.133   2.334   1.840
  178DPPC    C5 8855   8.220   2.320   1.722
  178DPPC    C6 8856   8.371   2.329   1.746
  178DPPC    O7 8857   8.417   2.461   1.772
  178DPPC    P8 8858   8.566   2.463   1.833
  178DPPC    O9 8859   8.604   2.605   1.854
  178DPPC   O10 8860   8.655   2.387   1.743
  178DPPC   O11 8861   8.521   2.387   1.968
  178DPPC   C12 8862   8.484   2.473   2.076
  178DPPC   C13 8863   8.449   2.392   2.201
  178DPPC   O14 8864   8.420   2.471   2.317
  178DPPC   C15 8865   8.287   2.492   2.339
  178DPPC   O16 8866   8.210   2.492   2.243
  178DPPC   C17 8867   8.237   2.517   2.481
  178DPPC   C18 8868   8.085   2.508   2.494
  178DPPC   C19 8869   8.062   2.543   2.642
  178DPPC   C20 8870   8.103   2.688   2.671
  178DPPC   C21 8871   8.064   2.700   2.819
  178DPPC   C22 8872   8.042   2.848   2.851
  178DPPC   C23 8873   8.015   2.856   3.002
  178DPPC   C24 8874   8.003   3.005   3.036
  178DPPC   C25 8875   8.066   3.037   3.171
  178DPPC   C26 8876   8.099   3.185   3.189
  178DPPC   C27 8877   8.126   3.234   3.331
  178DPPC   C28 8878   8.259   3.171   3.374
  178DPPC   C29 8879   8.303   3.221   3.511
  178DPPC   C30 8880   8.441   3.160   3.535
  178DPPC   C31 8881   8.498   3.203   3.671
  178DPPC   C32 8882   8.572   2.304   2.222
  178DPPC   O33 8883   8.563   2.191   2.310
  178DPPC   C34 8884   8.492   2.077   2.292
  178DPPC   O35 8885   8.443   2.051   2.183
  178DPPC   C36 8886   8.486   1.987   2.416
  178DPPC   C37 8887   8.377   2.034   2.513
  178DPPC   C38 8888   8.383   1.963   2.649
  178DPPC   C39 8889   8.258   2.012   2.722
  178DPPC   C40 8890   8.239   1.941   2.856
  178DPPC   C41 8891   8.118   2.004   2.925
  178DPPC   C42 8892   8.101   1.926   3.055
  178DPPC   C43 8893   7.974   1.983   3.117
  178DPPC   C44 8894   7.944   1.929   3.257
  178DPPC   C45 8895   7.840   2.026   3.313
  178DPPC   C46 8896   7.757   1.969   3.429
  178DPPC   C47 8897   7.670   1.852   3.381
  178DPPC   C48 8898   7.588   1.792   3.495
  178DPPC   C49 8899   7.484   1.888   3.553
  178DPPC   C50 8900   7.349   1.816   3.564
  179DPPC    C1 8901   5.276   6.445   1.973
  179DPPC    C2 8902   5.393   6.345   2.155
  179DPPC    C3 8903   5.165   6.340   2.149
  179DPPC    N4 8904   5.282   6.327   2.060
  179DPPC    C5 8905   5.305   6.193   2.005
  179DPPC    C6 8906   5.185   6.136   1.928
  179DPPC    O7 8907   5.152   6.191   1.800
  179DPPC    P8 8908   4.993   6.185   1.778
  179DPPC    O9 8909   4.939   6.051   1.812
  179DPPC   O10 8910   4.950   6.266   1.662
  179DPPC   O11 8911   4.951   6.271   1.908
  179DPPC   C12 8912   4.835   6.354   1.900
  179DPPC   C13 8913   4.780   6.418   2.028
  179DPPC   O14 8914   4.870   6.516   2.082
  179DPPC   C15 8915   4.816   6.605   2.169
  179DPPC   O16 8916   4.708   6.658   2.141
  179DPPC   C17 8917   4.899   6.649   2.289
  179DPPC   C18 8918   4.867   6.568   2.414
  179DPPC   C19 8919   4.958   6.590   2.536
  179DPPC   C20 8920   5.104   6.578   2.492
  179DPPC   C21 8921   5.206   6.579   2.606
  179DPPC   C22 8922   5.187   6.440   2.668
  179DPPC   C23 8923   5.269   6.423   2.796
  179DPPC   C24 8924   5.205   6.514   2.901
  179DPPC   C25 8925   5.277   6.503   3.035
  179DPPC   C26 8926   5.269   6.360   3.091
  179DPPC   C27 8927   5.347   6.364   3.223
  179DPPC   C28 8928   5.315   6.246   3.315
  179DPPC   C29 8929   5.368   6.278   3.455
  179DPPC   C30 8930   5.367   6.156   3.548
  179DPPC   C31 8931   5.228   6.139   3.609
  179DPPC   C32 8932   4.750   6.288   2.103
  179DPPC   O33 8933   4.742   6.289   2.245
  179DPPC   C34 8934   4.712   6.176   2.315
  179DPPC   O35 8935   4.701   6.072   2.251
  179DPPC   C36 8936   4.721   6.176   2.468
  179DPPC   C37 8937   4.854   6.175   2.544
  179DPPC   C38 8938   4.830   6.167   2.695
  179DPPC   C39 8939   4.960   6.135   2.769
  179DPPC   C40 8940   4.951   6.157   2.920
  179DPPC   C41 8941   4.829   6.072   2.954
  179DPPC   C42 8942   4.809   6.044   3.103
  179DPPC   C43 8943   4.686   5.960   3.136
  179DPPC   C44 8944   4.642   5.980   3.281
  179DPPC   C45 8945   4.525   5.887   3.315
  179DPPC   C46 8946   4.472   5.902   3.458
  179DPPC   C47 8947   4.335   5.835   3.463
  179DPPC   C48 8948   4.344   5.683   3.443
  179DPPC   C49 8949   4.241   5.604   3.523
  179DPPC   C50 8950   4.094   5.645   3.514
  180DPPC    C1 8951   5.976   2.670   1.339
  180DPPC    C2 8952   6.199   2.653   1.408
  180DPPC    C3 8953   6.088   2.866   1.405
  180DPPC    N4 8954   6.073   2.723   1.436
  180DPPC    C5 8955   6.020   2.718   1.573
  180DPPC    C6 8956   6.098   2.791   1.681
  180DPPC    O7 8957   6.014   2.807   1.796
  180DPPC    P8 8958   6.087   2.902   1.904
  180DPPC    O9 8959   6.006   3.026   1.905
  180DPPC   O10 8960   6.234   2.903   1.887
  180DPPC   O11 8961   6.052   2.815   2.035
  180DPPC   C12 8962   5.948   2.884   2.105
  180DPPC   C13 8963   5.932   2.815   2.240
  180DPPC   O14 8964   5.796   2.783   2.271
  180DPPC   C15 8965   5.765   2.663   2.329
  180DPPC   O16 8966   5.788   2.562   2.262
  180DPPC   C17 8967   5.682   2.652   2.457
  180DPPC   C18 8968   5.755   2.551   2.546
  180DPPC   C19 8969   5.731   2.549   2.697
  180DPPC   C20 8970   5.796   2.424   2.756
  180DPPC   C21 8971   5.773   2.404   2.906
  180DPPC   C22 8972   5.832   2.267   2.942
  180DPPC   C23 8973   5.985   2.266   2.927
  180DPPC   C24 8974   6.031   2.122   2.949
  180DPPC   C25 8975   6.163   2.099   2.876
  180DPPC   C26 8976   6.258   2.203   2.935
  180DPPC   C27 8977   6.397   2.186   2.873
  180DPPC   C28 8978   6.503   2.279   2.935
  180DPPC   C29 8979   6.495   2.268   3.087
  180DPPC   C30 8980   6.578   2.376   3.156
  180DPPC   C31 8981   6.581   2.348   3.307
  180DPPC   C32 8982   6.025   2.893   2.333
  180DPPC   O33 8983   5.985   2.908   2.470
  180DPPC   C34 8984   6.052   2.999   2.547
  180DPPC   O35 8985   6.108   3.093   2.493
  180DPPC   C36 8986   6.013   3.007   2.695
  180DPPC   C37 8987   5.866   2.977   2.724
  180DPPC   C38 8988   5.835   3.002   2.871
  180DPPC   C39 8989   5.699   2.949   2.914
  180DPPC   C40 8990   5.675   2.963   3.064
  180DPPC   C41 8991   5.555   2.894   3.130
  180DPPC   C42 8992   5.564   2.895   3.283
  180DPPC   C43 8993   5.431   2.839   3.333
  180DPPC   C44 8994   5.411   2.845   3.485
  180DPPC   C45 8995   5.276   2.784   3.518
  180DPPC   C46 8996   5.175   2.872   3.445
  180DPPC   C47 8997   5.150   2.994   3.534
  180DPPC   C48 8998   5.032   3.076   3.482
  180DPPC   C49 8999   4.951   3.134   3.598
  180DPPC   C50 9000   5.041   3.193   3.707
  181DPPC    C1 9001   5.639   5.903   1.526
  181DPPC    C2 9002   5.799   5.867   1.711
  181DPPC    C3 9003   5.586   5.972   1.734
  181DPPC    N4 9004   5.660   5.865   1.666
  181DPPC    C5 9005   5.597   5.737   1.704
  181DPPC    C6 9006   5.618   5.604   1.633
  181DPPC    O7 9007   5.588   5.489   1.713
  181DPPC    P8 9008   5.670   5.357   1.672
  181DPPC    O9 9009   5.750   5.401   1.556
  181DPPC   O10 9010   5.570   5.250   1.650
  181DPPC   O11 9011   5.749   5.339   1.812
  181DPPC   C12 9012   5.652   5.343   1.917
  181DPPC   C13 9013   5.709   5.321   2.058
  181DPPC   O14 9014   5.619   5.372   2.158
  181DPPC   C15 9015   5.529   5.285   2.211
  181DPPC   O16 9016   5.521   5.166   2.184
  181DPPC   C17 9017   5.485   5.344   2.345
  181DPPC   C18 9018   5.350   5.412   2.325
  181DPPC   C19 9019   5.312   5.500   2.444
  181DPPC   C20 9020   5.252   5.417   2.558
  181DPPC   C21 9021   5.268   5.491   2.691
  181DPPC   C22 9022   5.200   5.424   2.810
  181DPPC   C23 9023   5.206   5.518   2.931
  181DPPC   C24 9024   5.172   5.451   3.065
  181DPPC   C25 9025   5.033   5.387   3.065
  181DPPC   C26 9026   4.922   5.491   3.078
  181DPPC   C27 9027   4.790   5.437   3.025
  181DPPC   C28 9028   4.669   5.511   3.084
  181DPPC   C29 9029   4.545   5.466   3.008
  181DPPC   C30 9030   4.424   5.554   3.042
  181DPPC   C31 9031   4.441   5.691   2.974
  181DPPC   C32 9032   5.850   5.380   2.068
  181DPPC   O33 9033   5.927   5.321   2.173
  181DPPC   C34 9034   6.061   5.342   2.175
  181DPPC   O35 9035   6.109   5.430   2.103
  181DPPC   C36 9036   6.142   5.262   2.277
  181DPPC   C37 9037   6.161   5.356   2.396
  181DPPC   C38 9038   6.215   5.296   2.526
  181DPPC   C39 9039   6.207   5.395   2.643
  181DPPC   C40 9040   6.272   5.333   2.767
  181DPPC   C41 9041   6.423   5.306   2.759
  181DPPC   C42 9042   6.470   5.244   2.891
  181DPPC   C43 9043   6.617   5.200   2.896
  181DPPC   C44 9044   6.634   5.092   3.003
  181DPPC   C45 9045   6.541   4.971   2.989
  181DPPC   C46 9046   6.597   4.845   3.055
  181DPPC   C47 9047   6.620   4.880   3.202
  181DPPC   C48 9048   6.698   4.777   3.284
  181DPPC   C49 9049   6.646   4.634   3.278
  181DPPC   C50 9050   6.732   4.527   3.344
  182DPPC    C1 9051   8.078   0.613   1.439
  182DPPC    C2 9052   8.299   0.706   1.416
  182DPPC    C3 9053   8.175   0.667   1.224
  182DPPC    N4 9054   8.162   0.708   1.364
  182DPPC    C5 9055   8.113   0.847   1.374
  182DPPC    C6 9056   7.969   0.880   1.335
  182DPPC    O7 9057   7.950   1.021   1.319
  182DPPC    P8 9058   7.809   1.033   1.242
  182DPPC    O9 9059   7.802   0.914   1.155
  182DPPC   O10 9060   7.794   1.174   1.200
  182DPPC   O11 9061   7.738   0.992   1.380
  182DPPC   C12 9062   7.725   1.111   1.458
  182DPPC   C13 9063   7.663   1.068   1.592
  182DPPC   O14 9064   7.633   1.184   1.670
  182DPPC   C15 9065   7.517   1.254   1.655
  182DPPC   O16 9066   7.429   1.225   1.575
  182DPPC   C17 9067   7.497   1.379   1.742
  182DPPC   C18 9068   7.380   1.363   1.839
  182DPPC   C19 9069   7.349   1.501   1.897
  182DPPC   C20 9070   7.244   1.492   2.007
  182DPPC   C21 9071   7.193   1.629   2.054
  182DPPC   C22 9072   7.094   1.608   2.169
  182DPPC   C23 9073   7.153   1.545   2.295
  182DPPC   C24 9074   7.045   1.521   2.400
  182DPPC   C25 9075   7.112   1.484   2.533
  182DPPC   C26 9076   7.015   1.471   2.651
  182DPPC   C27 9077   7.081   1.467   2.789
  182DPPC   C28 9078   6.996   1.408   2.901
  182DPPC   C29 9079   7.074   1.419   3.032
  182DPPC   C30 9080   6.990   1.341   3.134
  182DPPC   C31 9081   7.043   1.340   3.277
  182DPPC   C32 9082   7.762   0.964   1.646
  182DPPC   O33 9083   7.882   1.034   1.678
  182DPPC   C34 9084   7.986   0.959   1.723
  182DPPC   O35 9085   7.993   0.837   1.712
  182DPPC   C36 9086   8.083   1.045   1.804
  182DPPC   C37 9087   8.039   1.082   1.946
  182DPPC   C38 9088   8.141   1.172   2.016
  182DPPC   C39 9089   8.111   1.186   2.165
  182DPPC   C40 9090   8.222   1.270   2.228
  182DPPC   C41 9091   8.189   1.309   2.372
  182DPPC   C42 9092   8.094   1.429   2.366
  182DPPC   C43 9093   8.067   1.502   2.498
  182DPPC   C44 9094   8.002   1.635   2.459
  182DPPC   C45 9095   7.962   1.714   2.584
  182DPPC   C46 9096   7.836   1.641   2.630
  182DPPC   C47 9097   7.781   1.711   2.754
  182DPPC   C48 9098   7.648   1.649   2.800
  182DPPC   C49 9099   7.602   1.697   2.938
  182DPPC   C50 9100   7.700   1.672   3.052
  183DPPC    C1 9101   7.527   3.547   1.798
  183DPPC    C2 9102   7.560   3.738   1.675
  183DPPC    C3 9103   7.465   3.539   1.569
  183DPPC    N4 9104   7.467   3.625   1.689
  183DPPC    C5 9105   7.336   3.684   1.718
  183DPPC    C6 9106   7.207   3.602   1.722
  183DPPC    O7 9107   7.194   3.493   1.813
  183DPPC    P8 9108   7.054   3.414   1.811
  183DPPC    O9 9109   7.065   3.309   1.915
  183DPPC   O10 9110   7.020   3.389   1.670
  183DPPC   O11 9111   6.970   3.536   1.874
  183DPPC   C12 9112   6.943   3.508   2.012
  183DPPC   C13 9113   7.020   3.607   2.100
  183DPPC   O14 9114   7.036   3.552   2.231
  183DPPC   C15 9115   7.140   3.614   2.295
  183DPPC   O16 9116   7.244   3.648   2.239
  183DPPC   C17 9117   7.137   3.595   2.446
  183DPPC   C18 9118   7.248   3.504   2.500
  183DPPC   C19 9119   7.222   3.484   2.649
  183DPPC   C20 9120   7.318   3.398   2.732
  183DPPC   C21 9121   7.257   3.403   2.873
  183DPPC   C22 9122   7.354   3.327   2.964
  183DPPC   C23 9123   7.298   3.343   3.105
  183DPPC   C24 9124   7.388   3.297   3.220
  183DPPC   C25 9125   7.309   3.283   3.350
  183DPPC   C26 9126   7.380   3.233   3.476
  183DPPC   C27 9127   7.509   3.310   3.508
  183DPPC   C28 9128   7.567   3.277   3.646
  183DPPC   C29 9129   7.467   3.268   3.761
  183DPPC   C30 9130   7.539   3.214   3.885
  183DPPC   C31 9131   7.604   3.077   3.867
  183DPPC   C32 9132   6.945   3.739   2.086
  183DPPC   O33 9133   7.009   3.851   2.149
  183DPPC   C34 9134   7.117   3.906   2.088
  183DPPC   O35 9135   7.175   3.852   1.994
  183DPPC   C36 9136   7.178   4.029   2.155
  183DPPC   C37 9137   7.269   3.991   2.272
  183DPPC   C38 9138   7.181   3.978   2.396
  183DPPC   C39 9139   7.274   3.960   2.516
  183DPPC   C40 9140   7.183   3.948   2.639
  183DPPC   C41 9141   7.232   3.843   2.739
  183DPPC   C42 9142   7.366   3.899   2.789
  183DPPC   C43 9143   7.425   3.824   2.908
  183DPPC   C44 9144   7.325   3.832   3.024
  183DPPC   C45 9145   7.375   3.782   3.160
  183DPPC   C46 9146   7.274   3.818   3.269
  183DPPC   C47 9147   7.149   3.736   3.238
  183DPPC   C48 9148   7.039   3.748   3.343
  183DPPC   C49 9149   6.946   3.628   3.324
  183DPPC   C50 9150   6.865   3.643   3.195
  184DPPC    C1 9151   1.650   1.780   1.642
  184DPPC    C2 9152   1.440   1.807   1.750
  184DPPC    C3 9153   1.634   1.777   1.872
  184DPPC    N4 9154   1.582   1.847   1.753
  184DPPC    C5 9155   1.608   1.990   1.772
  184DPPC    C6 9156   1.552   2.076   1.658
  184DPPC    O7 9157   1.598   2.211   1.670
  184DPPC    P8 9158   1.525   2.276   1.543
  184DPPC    O9 9159   1.488   2.184   1.433
  184DPPC   O10 9160   1.576   2.415   1.535
  184DPPC   O11 9161   1.396   2.297   1.637
  184DPPC   C12 9162   1.419   2.397   1.737
  184DPPC   C13 9163   1.308   2.410   1.842
  184DPPC   O14 9164   1.326   2.530   1.919
  184DPPC   C15 9165   1.215   2.606   1.942
  184DPPC   O16 9166   1.121   2.584   1.866
  184DPPC   C17 9167   1.235   2.728   2.032
  184DPPC   C18 9168   1.266   2.675   2.172
  184DPPC   C19 9169   1.135   2.624   2.232
  184DPPC   C20 9170   1.152   2.603   2.383
  184DPPC   C21 9171   1.023   2.565   2.456
  184DPPC   C22 9172   1.045   2.580   2.606
  184DPPC   C23 9173   0.920   2.512   2.663
  184DPPC   C24 9174   0.900   2.560   2.807
  184DPPC   C25 9175   0.790   2.502   2.895
  184DPPC   C26 9176   0.777   2.558   3.037
  184DPPC   C27 9177   0.648   2.495   3.089
  184DPPC   C28 9178   0.616   2.521   3.237
  184DPPC   C29 9179   0.722   2.448   3.320
  184DPPC   C30 9180   0.696   2.297   3.314
  184DPPC   C31 9181   0.801   2.234   3.405
  184DPPC   C32 9182   1.297   2.274   1.911
  184DPPC   O33 9183   1.420   2.245   1.977
  184DPPC   C34 9184   1.429   2.126   2.043
  184DPPC   O35 9185   1.391   2.026   1.982
  184DPPC   C36 9186   1.554   2.114   2.131
  184DPPC   C37 9187   1.544   2.019   2.251
  184DPPC   C38 9188   1.670   2.033   2.337
  184DPPC   C39 9189   1.646   1.965   2.472
  184DPPC   C40 9190   1.776   1.994   2.547
  184DPPC   C41 9191   1.793   2.146   2.540
  184DPPC   C42 9192   1.710   2.214   2.649
  184DPPC   C43 9193   1.749   2.146   2.781
  184DPPC   C44 9194   1.711   2.226   2.906
  184DPPC   C45 9195   1.776   2.155   3.025
  184DPPC   C46 9196   1.755   2.005   3.003
  184DPPC   C47 9197   1.834   1.915   3.097
  184DPPC   C48 9198   1.808   1.766   3.077
  184DPPC   C49 9199   1.871   1.687   3.192
  184DPPC   C50 9200   1.822   1.542   3.195
  185DPPC    C1 9201   6.606   7.269   1.545
  185DPPC    C2 9202   6.556   7.356   1.780
  185DPPC    C3 9203   6.430   7.415   1.590
  185DPPC    N4 9204   6.510   7.308   1.650
  185DPPC    C5 9205   6.410   7.203   1.673
  185DPPC    C6 9206   6.443   7.057   1.703
  185DPPC    O7 9207   6.551   7.051   1.796
  185DPPC    P8 9208   6.657   6.937   1.755
  185DPPC    O9 9209   6.782   6.979   1.823
  185DPPC   O10 9210   6.653   6.923   1.608
  185DPPC   O11 9211   6.596   6.820   1.848
  185DPPC   C12 9212   6.611   6.861   1.984
  185DPPC   C13 9213   6.515   6.777   2.069
  185DPPC   O14 9214   6.506   6.802   2.210
  185DPPC   C15 9215   6.394   6.755   2.271
  185DPPC   O16 9216   6.303   6.703   2.206
  185DPPC   C17 9217   6.379   6.790   2.419
  185DPPC   C18 9218   6.244   6.856   2.446
  185DPPC   C19 9219   6.195   6.830   2.589
  185DPPC   C20 9220   6.277   6.895   2.701
  185DPPC   C21 9221   6.228   6.866   2.843
  185DPPC   C22 9222   6.323   6.937   2.939
  185DPPC   C23 9223   6.297   6.901   3.086
  185DPPC   C24 9224   6.394   6.965   3.186
  185DPPC   C25 9225   6.383   6.897   3.323
  185DPPC   C26 9226   6.466   6.985   3.417
  185DPPC   C27 9227   6.504   6.912   3.547
  185DPPC   C28 9228   6.584   6.990   3.651
  185DPPC   C29 9229   6.638   6.892   3.756
  185DPPC   C30 9230   6.533   6.863   3.863
  185DPPC   C31 9231   6.588   6.771   3.972
  185DPPC   C32 9232   6.580   6.640   2.046
  185DPPC   O33 9233   6.722   6.633   2.059
  185DPPC   C34 9234   6.774   6.522   2.000
  185DPPC   O35 9235   6.704   6.444   1.936
  185DPPC   C36 9236   6.925   6.521   2.028
  185DPPC   C37 9237   6.975   6.418   2.129
  185DPPC   C38 9238   6.978   6.470   2.272
  185DPPC   C39 9239   7.012   6.357   2.370
  185DPPC   C40 9240   7.023   6.409   2.513
  185DPPC   C41 9241   7.061   6.302   2.615
  185DPPC   C42 9242   7.191   6.222   2.598
  185DPPC   C43 9243   7.187   6.099   2.690
  185DPPC   C44 9244   7.308   6.010   2.662
  185DPPC   C45 9245   7.312   5.895   2.762
  185DPPC   C46 9246   7.438   5.808   2.765
  185DPPC   C47 9247   7.430   5.711   2.647
  185DPPC   C48 9248   7.550   5.617   2.639
  185DPPC   C49 9249   7.686   5.687   2.635
  185DPPC   C50 9250   7.795   5.585   2.603
  186DPPC    C1 9251   6.759   2.197   1.810
  186DPPC    C2 9252   6.756   2.426   1.804
  186DPPC    C3 9253   6.563   2.309   1.720
  186DPPC    N4 9254   6.667   2.311   1.824
  186DPPC    C5 9255   6.605   2.328   1.956
  186DPPC    C6 9256   6.505   2.222   2.002
  186DPPC    O7 9257   6.559   2.090   2.016
  186DPPC    P8 9258   6.450   1.973   2.028
  186DPPC    O9 9259   6.531   1.850   2.042
  186DPPC   O10 9260   6.366   1.996   1.908
  186DPPC   O11 9261   6.395   2.022   2.171
  186DPPC   C12 9262   6.480   1.947   2.258
  186DPPC   C13 9263   6.445   1.974   2.405
  186DPPC   O14 9264   6.329   1.906   2.453
  186DPPC   C15 9265   6.336   1.770   2.460
  186DPPC   O16 9266   6.426   1.715   2.398
  186DPPC   C17 9267   6.232   1.693   2.543
  186DPPC   C18 9268   6.281   1.631   2.674
  186DPPC   C19 9269   6.286   1.721   2.797
  186DPPC   C20 9270   6.302   1.635   2.923
  186DPPC   C21 9271   6.346   1.731   3.033
  186DPPC   C22 9272   6.330   1.681   3.176
  186DPPC   C23 9273   6.361   1.781   3.288
  186DPPC   C24 9274   6.257   1.893   3.298
  186DPPC   C25 9275   6.290   2.016   3.381
  186DPPC   C26 9276   6.213   2.141   3.339
  186DPPC   C27 9277   6.245   2.249   3.442
  186DPPC   C28 9278   6.169   2.218   3.571
  186DPPC   C29 9279   6.224   2.302   3.687
  186DPPC   C30 9280   6.152   2.267   3.817
  186DPPC   C31 9281   6.211   2.342   3.937
  186DPPC   C32 9282   6.447   2.125   2.427
  186DPPC   O33 9283   6.576   2.171   2.468
  186DPPC   C34 9284   6.586   2.306   2.480
  186DPPC   O35 9285   6.486   2.377   2.482
  186DPPC   C36 9286   6.719   2.364   2.529
  186DPPC   C37 9287   6.737   2.329   2.677
  186DPPC   C38 9288   6.877   2.356   2.731
  186DPPC   C39 9289   6.879   2.288   2.868
  186DPPC   C40 9290   7.027   2.280   2.907
  186DPPC   C41 9291   7.045   2.220   3.047
  186DPPC   C42 9292   7.005   2.313   3.161
  186DPPC   C43 9293   7.007   2.248   3.299
  186DPPC   C44 9294   7.008   2.352   3.411
  186DPPC   C45 9295   7.019   2.294   3.551
  186DPPC   C46 9296   6.966   2.400   3.648
  186DPPC   C47 9297   6.927   2.356   3.789
  186DPPC   C48 9298   6.817   2.249   3.791
  186DPPC   C49 9299   6.679   2.295   3.745
  186DPPC   C50 9300   6.578   2.205   3.817
  187DPPC    C1 9301   9.209   1.287   0.677
  187DPPC    C2 9302   8.986   1.258   0.697
  187DPPC    C3 9303   9.129   1.079   0.613
  187DPPC    N4 9304   9.112   1.184   0.715
  187DPPC    C5 9305   9.139   1.149   0.855
  187DPPC    C6 9306   9.060   1.031   0.911
  187DPPC    O7 9307   8.935   1.076   0.964
  187DPPC    P8 9308   8.883   0.944   1.041
  187DPPC    O9 9309   8.970   0.827   1.019
  187DPPC   O10 9310   8.737   0.920   1.034
  187DPPC   O11 9311   8.936   0.988   1.187
  187DPPC   C12 9312   8.836   1.002   1.288
  187DPPC   C13 9313   8.876   1.026   1.433
  187DPPC   O14 9314   8.784   1.005   1.542
  187DPPC   C15 9315   8.743   0.880   1.578
  187DPPC   O16 9316   8.800   0.785   1.526
  187DPPC   C17 9317   8.638   0.861   1.688
  187DPPC   C18 9318   8.655   0.740   1.779
  187DPPC   C19 9319   8.545   0.721   1.883
  187DPPC   C20 9320   8.407   0.695   1.821
  187DPPC   C21 9321   8.318   0.667   1.942
  187DPPC   C22 9322   8.311   0.801   2.015
  187DPPC   C23 9323   8.296   0.746   2.158
  187DPPC   C24 9324   8.298   0.874   2.242
  187DPPC   C25 9325   8.307   0.854   2.394
  187DPPC   C26 9326   8.323   0.992   2.456
  187DPPC   C27 9327   8.342   0.984   2.608
  187DPPC   C28 9328   8.319   1.116   2.682
  187DPPC   C29 9329   8.338   1.084   2.830
  187DPPC   C30 9330   8.489   1.074   2.855
  187DPPC   C31 9331   8.510   1.071   3.007
  187DPPC   C32 9332   8.923   1.171   1.429
  187DPPC   O33 9333   9.001   1.223   1.537
  187DPPC   C34 9334   9.126   1.169   1.544
  187DPPC   O35 9335   9.179   1.124   1.443
  187DPPC   C36 9336   9.191   1.171   1.683
  187DPPC   C37 9337   9.236   1.033   1.732
  187DPPC   C38 9338   9.124   0.959   1.803
  187DPPC   C39 9339   9.084   1.020   1.938
  187DPPC   C40 9340   8.973   0.932   1.995
  187DPPC   C41 9341   9.023   0.788   2.000
  187DPPC   C42 9342   8.913   0.690   2.041
  187DPPC   C43 9343   8.845   0.736   2.170
  187DPPC   C44 9344   8.743   0.635   2.223
  187DPPC   C45 9345   8.673   0.694   2.345
  187DPPC   C46 9346   8.618   0.592   2.445
  187DPPC   C47 9347   8.567   0.674   2.563
  187DPPC   C48 9348   8.551   0.586   2.687
  187DPPC   C49 9349   8.499   0.676   2.799
  187DPPC   C50 9350   8.427   0.604   2.913
  188DPPC    C1 9351   7.422   2.403   1.741
  188DPPC    C2 9352   7.526   2.197   1.675
  188DPPC    C3 9353   7.296   2.241   1.617
  188DPPC    N4 9354   7.429   2.301   1.635
  188DPPC    C5 9355   7.466   2.366   1.509
  188DPPC    C6 9356   7.602   2.425   1.470
  188DPPC    O7 9357   7.714   2.338   1.484
  188DPPC    P8 9358   7.843   2.434   1.473
  188DPPC    O9 9359   7.816   2.534   1.367
  188DPPC   O10 9360   7.968   2.355   1.480
  188DPPC   O11 9361   7.826   2.515   1.612
  188DPPC   C12 9362   7.845   2.653   1.579
  188DPPC   C13 9363   7.879   2.742   1.699
  188DPPC   O14 9364   8.021   2.749   1.717
  188DPPC   C15 9365   8.070   2.872   1.748
  188DPPC   O16 9366   8.041   2.969   1.679
  188DPPC   C17 9367   8.205   2.862   1.820
  188DPPC   C18 9368   8.203   2.815   1.966
  188DPPC   C19 9369   8.131   2.910   2.063
  188DPPC   C20 9370   8.181   2.890   2.207
  188DPPC   C21 9371   8.157   3.007   2.303
  188DPPC   C22 9372   8.234   2.961   2.426
  188DPPC   C23 9373   8.215   3.076   2.525
  188DPPC   C24 9374   8.301   3.039   2.646
  188DPPC   C25 9375   8.321   3.163   2.732
  188DPPC   C26 9376   8.399   3.138   2.861
  188DPPC   C27 9377   8.402   3.269   2.941
  188DPPC   C28 9378   8.472   3.237   3.073
  188DPPC   C29 9379   8.611   3.178   3.052
  188DPPC   C30 9380   8.662   3.146   3.193
  188DPPC   C31 9381   8.674   2.994   3.208
  188DPPC   C32 9382   7.792   2.684   1.811
  188DPPC   O33 9383   7.776   2.765   1.928
  188DPPC   C34 9384   7.671   2.730   2.007
  188DPPC   O35 9385   7.587   2.651   1.963
  188DPPC   C36 9386   7.641   2.814   2.131
  188DPPC   C37 9387   7.765   2.839   2.216
  188DPPC   C38 9388   7.768   2.942   2.330
  188DPPC   C39 9389   7.661   2.896   2.430
  188DPPC   C40 9390   7.667   2.997   2.544
  188DPPC   C41 9391   7.568   2.969   2.658
  188DPPC   C42 9392   7.626   3.004   2.795
  188DPPC   C43 9393   7.534   2.967   2.912
  188DPPC   C44 9394   7.623   2.990   3.034
  188DPPC   C45 9395   7.582   2.917   3.162
  188DPPC   C46 9396   7.687   2.947   3.269
  188DPPC   C47 9397   7.668   2.875   3.402
  188DPPC   C48 9398   7.799   2.884   3.479
  188DPPC   C49 9399   7.784   2.823   3.619
  188DPPC   C50 9400   7.899   2.851   3.715
  189DPPC    C1 9401   8.963   3.732   1.322
  189DPPC    C2 9402   8.842   3.542   1.412
  189DPPC    C3 9403   8.882   3.742   1.545
  189DPPC    N4 9404   8.854   3.689   1.411
  189DPPC    C5 9405   8.721   3.728   1.364
  189DPPC    C6 9406   8.673   3.872   1.384
  189DPPC    O7 9407   8.774   3.966   1.346
  189DPPC    P8 9408   8.733   4.121   1.335
  189DPPC    O9 9409   8.588   4.121   1.306
  189DPPC   O10 9410   8.830   4.189   1.246
  189DPPC   O11 9411   8.754   4.154   1.491
  189DPPC   C12 9412   8.895   4.146   1.515
  189DPPC   C13 9413   8.952   4.222   1.634
  189DPPC   O14 9414   8.925   4.171   1.765
  189DPPC   C15 9415   8.985   4.056   1.807
  189DPPC   O16 9416   9.040   3.983   1.725
  189DPPC   C17 9417   8.949   4.014   1.949
  189DPPC   C18 9418   8.990   4.120   2.052
  189DPPC   C19 9419   8.901   4.110   2.176
  189DPPC   C20 9420   8.756   4.143   2.142
  189DPPC   C21 9421   8.688   4.198   2.268
  189DPPC   C22 9422   8.539   4.222   2.245
  189DPPC   C23 9423   8.489   4.257   2.386
  189DPPC   C24 9424   8.348   4.315   2.372
  189DPPC   C25 9425   8.298   4.376   2.503
  189DPPC   C26 9426   8.296   4.290   2.630
  189DPPC   C27 9427   8.244   4.361   2.755
  189DPPC   C28 9428   8.223   4.272   2.878
  189DPPC   C29 9429   8.353   4.255   2.955
  189DPPC   C30 9430   8.351   4.289   3.104
  189DPPC   C31 9431   8.246   4.206   3.180
  189DPPC   C32 9432   8.928   4.372   1.613
  189DPPC   O33 9433   9.013   4.458   1.689
  189DPPC   C34 9434   9.030   4.586   1.648
  189DPPC   O35 9435   9.001   4.622   1.533
  189DPPC   C36 9436   9.111   4.678   1.740
  189DPPC   C37 9437   9.019   4.750   1.839
  189DPPC   C38 9438   8.975   4.669   1.962
  189DPPC   C39 9439   8.852   4.738   2.020
  189DPPC   C40 9440   8.829   4.709   2.168
  189DPPC   C41 9441   8.709   4.779   2.233
  189DPPC   C42 9442   8.738   4.772   2.382
  189DPPC   C43 9443   8.719   4.628   2.428
  189DPPC   C44 9444   8.696   4.627   2.579
  189DPPC   C45 9445   8.668   4.490   2.642
  189DPPC   C46 9446   8.621   4.524   2.784
  189DPPC   C47 9447   8.725   4.618   2.846
  189DPPC   C48 9448   8.662   4.676   2.972
  189DPPC   C49 9449   8.595   4.566   3.054
  189DPPC   C50 9450   8.533   4.636   3.175
  190DPPC    C1 9451   5.043   7.192   1.739
  190DPPC    C2 9452   4.810   7.259   1.698
  190DPPC    C3 9453   4.913   7.295   1.912
  190DPPC    N4 9454   4.936   7.288   1.767
  190DPPC    C5 9455   4.974   7.428   1.738
  190DPPC    C6 9456   5.105   7.479   1.798
  190DPPC    O7 9457   5.083   7.573   1.903
  190DPPC    P8 9458   5.229   7.627   1.942
  190DPPC    O9 9459   5.188   7.716   2.052
  190DPPC   O10 9460   5.306   7.665   1.821
  190DPPC   O11 9461   5.270   7.484   2.002
  190DPPC   C12 9462   5.209   7.472   2.130
  190DPPC   C13 9463   5.192   7.323   2.161
  190DPPC   O14 9464   5.075   7.277   2.231
  190DPPC   C15 9465   5.046   7.146   2.212
  190DPPC   O16 9466   5.096   7.068   2.131
  190DPPC   C17 9467   4.932   7.102   2.304
  190DPPC   C18 9468   4.990   7.009   2.410
  190DPPC   C19 9469   5.104   7.077   2.486
  190DPPC   C20 9470   5.189   6.961   2.536
  190DPPC   C21 9471   5.341   6.982   2.538
  190DPPC   C22 9472   5.400   6.903   2.655
  190DPPC   C23 9473   5.548   6.938   2.677
  190DPPC   C24 9474   5.583   6.894   2.819
  190DPPC   C25 9475   5.578   6.741   2.828
  190DPPC   C26 9476   5.676   6.664   2.739
  190DPPC   C27 9477   5.631   6.518   2.743
  190DPPC   C28 9478   5.662   6.456   2.879
  190DPPC   C29 9479   5.648   6.303   2.881
  190DPPC   C30 9480   5.708   6.254   3.013
  190DPPC   C31 9481   5.667   6.111   3.046
  190DPPC   C32 9482   5.329   7.287   2.218
  190DPPC   O33 9483   5.372   7.355   2.337
  190DPPC   C34 9484   5.504   7.320   2.343
  190DPPC   O35 9485   5.533   7.209   2.301
  190DPPC   C36 9486   5.600   7.431   2.387
  190DPPC   C37 9487   5.597   7.447   2.539
  190DPPC   C38 9488   5.665   7.577   2.582
  190DPPC   C39 9489   5.816   7.558   2.597
  190DPPC   C40 9490   5.880   7.675   2.672
  190DPPC   C41 9491   5.856   7.804   2.594
  190DPPC   C42 9492   5.901   7.928   2.672
  190DPPC   C43 9493   5.816   7.940   2.799
  190DPPC   C44 9494   5.867   8.046   2.897
  190DPPC   C45 9495   5.785   8.065   3.025
  190DPPC   C46 9496   5.851   8.165   3.120
  190DPPC   C47 9497   5.774   8.190   3.250
  190DPPC   C48 9498   5.853   8.280   3.345
  190DPPC   C49 9499   5.777   8.294   3.477
  190DPPC   C50 9500   5.854   8.340   3.601
  191DPPC    C1 9501   0.994   2.281   1.363
  191DPPC    C2 9502   1.179   2.161   1.257
  191DPPC    C3 9503   1.137   2.142   1.495
  191DPPC    N4 9504   1.076   2.159   1.362
  191DPPC    C5 9505   0.996   2.044   1.317
  191DPPC    C6 9506   0.903   1.974   1.416
  191DPPC    O7 9507   0.805   2.055   1.481
  191DPPC    P8 9508   0.710   1.966   1.576
  191DPPC    O9 9509   0.814   1.886   1.646
  191DPPC   O10 9510   0.630   1.916   1.463
  191DPPC   O11 9511   0.644   2.098   1.639
  191DPPC   C12 9512   0.705   2.102   1.768
  191DPPC   C13 9513   0.719   2.244   1.822
  191DPPC   O14 9514   0.800   2.270   1.938
  191DPPC   C15 9515   0.928   2.227   1.955
  191DPPC   O16 9516   0.999   2.210   1.856
  191DPPC   C17 9517   0.988   2.239   2.096
  191DPPC   C18 9518   0.998   2.101   2.160
  191DPPC   C19 9519   1.050   2.126   2.302
  191DPPC   C20 9520   1.180   2.207   2.309
  191DPPC   C21 9521   1.235   2.165   2.446
  191DPPC   C22 9522   1.294   2.282   2.523
  191DPPC   C23 9523   1.304   2.245   2.671
  191DPPC   C24 9524   1.364   2.358   2.754
  191DPPC   C25 9525   1.327   2.332   2.900
  191DPPC   C26 9526   1.176   2.317   2.923
  191DPPC   C27 9527   1.145   2.266   3.064
  191DPPC   C28 9528   1.230   2.142   3.093
  191DPPC   C29 9529   1.184   2.089   3.229
  191DPPC   C30 9530   1.248   1.957   3.275
  191DPPC   C31 9531   1.194   1.908   3.409
  191DPPC   C32 9532   0.572   2.283   1.841
  191DPPC   O33 9533   0.496   2.202   1.931
  191DPPC   C34 9534   0.360   2.205   1.924
  191DPPC   O35 9535   0.299   2.273   1.842
  191DPPC   C36 9536   0.292   2.093   2.003
  191DPPC   C37 9537   0.216   2.136   2.128
  191DPPC   C38 9538   0.178   2.008   2.203
  191DPPC   C39 9539   0.138   2.046   2.346
  191DPPC   C40 9540   0.012   2.132   2.343
  191DPPC   C41 9541  -0.035   2.129   2.488
  191DPPC   C42 9542  -0.055   1.981   2.519
  191DPPC   C43 9543  -0.076   1.957   2.669
  191DPPC   C44 9544  -0.188   2.040   2.731
  191DPPC   C45 9545  -0.222   1.949   2.849
  191DPPC   C46 9546  -0.337   2.018   2.923
  191DPPC   C47 9547  -0.307   2.138   3.013
  191DPPC   C48 9548  -0.434   2.184   3.085
  191DPPC   C49 9549  -0.486   2.059   3.156
  191DPPC   C50 9550  -0.616   2.058   3.236
  192DPPC    C1 9551   4.809   1.083   1.749
  192DPPC    C2 9552   4.799   0.844   1.756
  192DPPC    C3 9553   5.011   0.952   1.733
  192DPPC    N4 9554   4.878   0.962   1.795
  192DPPC    C5 9555   4.892   0.948   1.941
  192DPPC    C6 9556   4.945   1.052   2.039
  192DPPC    O7 9557   4.879   1.178   2.027
  192DPPC    P8 9558   4.965   1.286   2.110
  192DPPC    O9 9559   4.903   1.415   2.074
  192DPPC   O10 9560   5.105   1.253   2.076
  192DPPC   O11 9561   4.928   1.261   2.264
  192DPPC   C12 9562   4.812   1.326   2.316
  192DPPC   C13 9563   4.818   1.318   2.468
  192DPPC   O14 9564   4.697   1.363   2.530
  192DPPC   C15 9565   4.590   1.280   2.516
  192DPPC   O16 9566   4.589   1.176   2.449
  192DPPC   C17 9567   4.458   1.333   2.573
  192DPPC   C18 9568   4.474   1.457   2.661
  192DPPC   C19 9569   4.344   1.509   2.722
  192DPPC   C20 9570   4.294   1.430   2.843
  192DPPC   C21 9571   4.174   1.496   2.912
  192DPPC   C22 9572   4.120   1.399   3.017
  192DPPC   C23 9573   4.203   1.389   3.145
  192DPPC   C24 9574   4.139   1.298   3.249
  192DPPC   C25 9575   4.237   1.279   3.364
  192DPPC   C26 9576   4.372   1.251   3.296
  192DPPC   C27 9577   4.448   1.164   3.397
  192DPPC   C28 9578   4.544   1.083   3.310
  192DPPC   C29 9579   4.620   0.983   3.398
  192DPPC   C30 9580   4.710   0.900   3.305
  192DPPC   C31 9581   4.845   0.963   3.272
  192DPPC   C32 9582   4.948   1.384   2.516
  192DPPC   O33 9583   4.987   1.338   2.645
  192DPPC   C34 9584   5.115   1.365   2.683
  192DPPC   O35 9585   5.207   1.355   2.602
  192DPPC   C36 9586   5.131   1.336   2.833
  192DPPC   C37 9587   5.189   1.195   2.842
  192DPPC   C38 9588   5.204   1.185   2.994
  192DPPC   C39 9589   5.169   1.043   3.039
  192DPPC   C40 9590   5.237   1.022   3.175
  192DPPC   C41 9591   5.273   0.878   3.209
  192DPPC   C42 9592   5.330   0.871   3.351
  192DPPC   C43 9593   5.369   0.730   3.395
  192DPPC   C44 9594   5.408   0.710   3.542
  192DPPC   C45 9595   5.395   0.564   3.585
  192DPPC   C46 9596   5.473   0.482   3.481
  192DPPC   C47 9597   5.472   0.336   3.526
  192DPPC   C48 9598   5.552   0.254   3.426
  192DPPC   C49 9599   5.586   0.114   3.477
  192DPPC   C50 9600   5.465   0.038   3.531
  193DPPC    C1 9601   5.432   5.740   6.110
  193DPPC    C2 9602   5.297   5.552   6.105
  193DPPC    C3 9603   5.255   5.741   5.971
  193DPPC    N4 9604   5.361   5.651   6.018
  193DPPC    C5 9605   5.454   5.592   5.920
  193DPPC    C6 9606   5.407   5.466   5.848
  193DPPC    O7 9607   5.475   5.448   5.723
  193DPPC    P8 9608   5.444   5.292   5.694
  193DPPC    O9 9609   5.410   5.228   5.823
  193DPPC   O10 9610   5.551   5.233   5.611
  193DPPC   O11 9611   5.316   5.304   5.597
  193DPPC   C12 9612   5.340   5.267   5.461
  193DPPC   C13 9613   5.227   5.313   5.368
  193DPPC   O14 9614   5.218   5.218   5.261
  193DPPC   C15 9615   5.133   5.112   5.274
  193DPPC   O16 9616   5.044   5.119   5.358
  193DPPC   C17 9617   5.129   5.020   5.152
  193DPPC   C18 9618   5.269   5.004   5.093
  193DPPC   C19 9619   5.263   4.889   4.994
  193DPPC   C20 9620   5.363   4.910   4.880
  193DPPC   C21 9621   5.361   4.785   4.791
  193DPPC   C22 9622   5.477   4.797   4.692
  193DPPC   C23 9623   5.479   4.669   4.607
  193DPPC   C24 9624   5.564   4.714   4.488
  193DPPC   C25 9625   5.578   4.602   4.384
  193DPPC   C26 9626   5.638   4.666   4.258
  193DPPC   C27 9627   5.781   4.713   4.285
  193DPPC   C28 9628   5.834   4.796   4.167
  193DPPC   C29 9629   5.838   4.714   4.038
  193DPPC   C30 9630   5.910   4.798   3.933
  193DPPC   C31 9631   5.818   4.901   3.867
  193DPPC   C32 9632   5.248   5.459   5.328
  193DPPC   O33 9633   5.364   5.484   5.248
  193DPPC   C34 9634   5.317   5.507   5.123
  193DPPC   O35 9635   5.208   5.558   5.101
  193DPPC   C36 9636   5.429   5.499   5.018
  193DPPC   C37 9637   5.468   5.352   5.001
  193DPPC   C38 9638   5.610   5.342   4.944
  193DPPC   C39 9639   5.615   5.193   4.913
  193DPPC   C40 9640   5.753   5.145   4.866
  193DPPC   C41 9641   5.765   4.992   4.859
  193DPPC   C42 9642   5.894   4.944   4.793
  193DPPC   C43 9643   5.929   4.800   4.831
  193DPPC   C44 9644   6.047   4.765   4.740
  193DPPC   C45 9645   6.014   4.794   4.593
  193DPPC   C46 9646   6.124   4.743   4.499
  193DPPC   C47 9647   6.141   4.591   4.512
  193DPPC   C48 9648   6.256   4.542   4.425
  193DPPC   C49 9649   6.216   4.550   4.278
  193DPPC   C50 9650   6.327   4.476   4.202
  194DPPC    C1 9651   8.004   5.527   0.982
  194DPPC    C2 9652   7.841   5.701   1.021
  194DPPC    C3 9653   7.828   5.553   0.832
  194DPPC    N4 9654   7.862   5.563   0.975
  194DPPC    C5 9655   7.761   5.479   1.041
  194DPPC    C6 9656   7.770   5.326   1.043
  194DPPC    O7 9657   7.860   5.283   1.145
  194DPPC    P8 9658   7.857   5.123   1.161
  194DPPC    O9 9659   7.883   5.080   1.021
  194DPPC   O10 9660   7.724   5.095   1.220
  194DPPC   O11 9661   7.979   5.094   1.262
  194DPPC   C12 9662   7.947   5.149   1.390
  194DPPC   C13 9663   8.024   5.272   1.439
  194DPPC   O14 9664   8.115   5.241   1.545
  194DPPC   C15 9665   8.199   5.326   1.609
  194DPPC   O16 9666   8.212   5.440   1.565
  194DPPC   C17 9667   8.290   5.279   1.723
  194DPPC   C18 9668   8.235   5.172   1.817
  194DPPC   C19 9669   8.348   5.075   1.852
  194DPPC   C20 9670   8.405   5.059   1.993
  194DPPC   C21 9671   8.298   4.988   2.075
  194DPPC   C22 9672   8.339   4.971   2.221
  194DPPC   C23 9673   8.274   4.848   2.285
  194DPPC   C24 9674   8.242   4.885   2.429
  194DPPC   C25 9675   8.160   4.774   2.494
  194DPPC   C26 9676   8.163   4.802   2.645
  194DPPC   C27 9677   8.302   4.788   2.707
  194DPPC   C28 9678   8.282   4.791   2.858
  194DPPC   C29 9679   8.191   4.898   2.920
  194DPPC   C30 9680   8.208   4.909   3.072
  194DPPC   C31 9681   8.126   5.030   3.118
  194DPPC   C32 9682   7.913   5.365   1.487
  194DPPC   O33 9683   7.829   5.325   1.596
  194DPPC   C34 9684   7.716   5.398   1.613
  194DPPC   O35 9685   7.697   5.492   1.535
  194DPPC   C36 9686   7.634   5.362   1.736
  194DPPC   C37 9687   7.498   5.431   1.738
  194DPPC   C38 9688   7.424   5.410   1.870
  194DPPC   C39 9689   7.295   5.492   1.873
  194DPPC   C40 9690   7.200   5.467   1.990
  194DPPC   C41 9691   7.135   5.328   1.987
  194DPPC   C42 9692   7.057   5.310   2.117
  194DPPC   C43 9693   7.151   5.317   2.238
  194DPPC   C44 9694   7.078   5.321   2.373
  194DPPC   C45 9695   7.189   5.355   2.472
  194DPPC   C46 9696   7.142   5.329   2.615
  194DPPC   C47 9697   7.241   5.364   2.726
  194DPPC   C48 9698   7.176   5.328   2.859
  194DPPC   C49 9699   7.277   5.356   2.970
  194DPPC   C50 9700   7.402   5.271   2.948
  195DPPC    C1 9701   2.510   3.569   5.518
  195DPPC    C2 9702   2.300   3.630   5.463
  195DPPC    C3 9703   2.432   3.583   5.282
  195DPPC    N4 9704   2.406   3.537   5.419
  195DPPC    C5 9705   2.350   3.402   5.434
  195DPPC    C6 9706   2.411   3.283   5.360
  195DPPC    O7 9707   2.536   3.240   5.415
  195DPPC    P8 9708   2.580   3.094   5.363
  195DPPC    O9 9709   2.545   3.095   5.219
  195DPPC   O10 9710   2.526   2.996   5.461
  195DPPC   O11 9711   2.740   3.106   5.370
  195DPPC   C12 9712   2.771   3.213   5.281
  195DPPC   C13 9713   2.843   3.342   5.324
  195DPPC   O14 9714   2.823   3.440   5.221
  195DPPC   C15 9715   2.854   3.572   5.236
  195DPPC   O16 9716   2.836   3.617   5.349
  195DPPC   C17 9717   2.852   3.661   5.112
  195DPPC   C18 9718   2.959   3.619   5.012
  195DPPC   C19 9719   2.945   3.710   4.890
  195DPPC   C20 9720   3.009   3.648   4.766
  195DPPC   C21 9721   2.927   3.524   4.730
  195DPPC   C22 9722   2.958   3.468   4.592
  195DPPC   C23 9723   2.910   3.578   4.497
  195DPPC   C24 9724   2.940   3.558   4.348
  195DPPC   C25 9725   2.894   3.424   4.290
  195DPPC   C26 9726   2.929   3.405   4.142
  195DPPC   C27 9727   3.080   3.421   4.125
  195DPPC   C28 9728   3.102   3.429   3.974
  195DPPC   C29 9729   3.072   3.291   3.914
  195DPPC   C30 9730   3.166   3.196   3.988
  195DPPC   C31 9731   3.158   3.053   3.934
  195DPPC   C32 9732   2.989   3.304   5.348
  195DPPC   O33 9733   3.042   3.212   5.252
  195DPPC   C34 9734   3.173   3.180   5.270
  195DPPC   O35 9735   3.232   3.227   5.366
  195DPPC   C36 9736   3.240   3.082   5.174
  195DPPC   C37 9737   3.307   3.168   5.067
  195DPPC   C38 9738   3.325   3.086   4.938
  195DPPC   C39 9739   3.190   3.075   4.867
  195DPPC   C40 9740   3.224   3.019   4.728
  195DPPC   C41 9741   3.119   3.052   4.621
  195DPPC   C42 9742   3.181   3.010   4.488
  195DPPC   C43 9743   3.087   3.027   4.368
  195DPPC   C44 9744   2.945   2.973   4.381
  195DPPC   C45 9745   2.868   2.991   4.250
  195DPPC   C46 9746   2.720   2.954   4.265
  195DPPC   C47 9747   2.621   3.008   4.162
  195DPPC   C48 9748   2.621   3.160   4.144
  195DPPC   C49 9749   2.588   3.213   4.005
  195DPPC   C50 9750   2.590   3.364   4.030
  196DPPC    C1 9751   0.644   0.144   1.569
  196DPPC    C2 9752   0.505   0.298   1.470
  196DPPC    C3 9753   0.474   0.254   1.705
  196DPPC    N4 9754   0.573   0.269   1.597
  196DPPC    C5 9755   0.676   0.373   1.611
  196DPPC    C6 9756   0.637   0.521   1.617
  196DPPC    O7 9757   0.524   0.564   1.694
  196DPPC    P8 9758   0.522   0.725   1.689
  196DPPC    O9 9759   0.387   0.776   1.656
  196DPPC   O10 9760   0.637   0.772   1.607
  196DPPC   O11 9761   0.584   0.764   1.832
  196DPPC   C12 9762   0.471   0.749   1.917
  196DPPC   C13 9763   0.506   0.723   2.064
  196DPPC   O14 9764   0.394   0.679   2.142
  196DPPC   C15 9765   0.348   0.553   2.120
  196DPPC   O16 9766   0.413   0.471   2.056
  196DPPC   C17 9767   0.212   0.508   2.175
  196DPPC   C18 9768   0.222   0.489   2.327
  196DPPC   C19 9769   0.099   0.437   2.402
  196DPPC   C20 9770   0.142   0.434   2.549
  196DPPC   C21 9771   0.045   0.372   2.649
  196DPPC   C22 9772   0.146   0.305   2.743
  196DPPC   C23 9773   0.063   0.261   2.863
  196DPPC   C24 9774   0.155   0.207   2.972
  196DPPC   C25 9775   0.062   0.147   3.078
  196DPPC   C26 9776   0.131   0.049   3.173
  196DPPC   C27 9777   0.164  -0.087   3.110
  196DPPC   C28 9778   0.217  -0.185   3.215
  196DPPC   C29 9779   0.263  -0.320   3.158
  196DPPC   C30 9780   0.278  -0.450   3.237
  196DPPC   C31 9781   0.309  -0.567   3.144
  196DPPC   C32 9782   0.592   0.841   2.109
  196DPPC   O33 9783   0.528   0.965   2.076
  196DPPC   C34 9784   0.596   1.083   2.074
  196DPPC   O35 9785   0.713   1.075   2.109
  196DPPC   C36 9786   0.516   1.208   2.038
  196DPPC   C37 9787   0.445   1.286   2.149
  196DPPC   C38 9788   0.348   1.389   2.092
  196DPPC   C39 9789   0.270   1.450   2.209
  196DPPC   C40 9790   0.200   1.343   2.292
  196DPPC   C41 9791   0.123   1.410   2.406
  196DPPC   C42 9792   0.058   1.304   2.495
  196DPPC   C43 9793  -0.015   1.373   2.611
  196DPPC   C44 9794  -0.072   1.268   2.707
  196DPPC   C45 9795  -0.098   1.317   2.850
  196DPPC   C46 9796  -0.172   1.217   2.939
  196DPPC   C47 9797  -0.218   1.280   3.071
  196DPPC   C48 9798  -0.282   1.176   3.163
  196DPPC   C49 9799  -0.183   1.128   3.269
  196DPPC   C50 9800  -0.251   1.057   3.386
  197DPPC    C1 9801   8.829   2.064   5.720
  197DPPC    C2 9802   8.878   1.828   5.736
  197DPPC    C3 9803   8.718   1.914   5.586
  197DPPC    N4 9804   8.850   1.940   5.644
  197DPPC    C5 9805   8.964   1.955   5.553
  197DPPC    C6 9806   9.004   1.836   5.464
  197DPPC    O7 9807   8.904   1.781   5.378
  197DPPC    P8 9808   8.975   1.687   5.268
  197DPPC    O9 9809   8.876   1.596   5.205
  197DPPC   O10 9810   9.109   1.645   5.316
  197DPPC   O11 9811   9.004   1.807   5.166
  197DPPC   C12 9812   8.878   1.855   5.118
  197DPPC   C13 9813   8.879   2.000   5.067
  197DPPC   O14 9814   8.752   2.056   5.032
  197DPPC   C15 9815   8.734   2.189   5.055
  197DPPC   O16 9816   8.787   2.238   5.154
  197DPPC   C17 9817   8.622   2.259   4.979
  197DPPC   C18 9818   8.671   2.293   4.838
  197DPPC   C19 9819   8.546   2.309   4.751
  197DPPC   C20 9820   8.590   2.364   4.616
  197DPPC   C21 9821   8.472   2.395   4.524
  197DPPC   C22 9822   8.513   2.418   4.378
  197DPPC   C23 9823   8.388   2.458   4.300
  197DPPC   C24 9824   8.294   2.544   4.385
  197DPPC   C25 9825   8.181   2.591   4.293
  197DPPC   C26 9826   8.148   2.465   4.211
  197DPPC   C27 9827   8.030   2.509   4.124
  197DPPC   C28 9828   7.983   2.381   4.055
  197DPPC   C29 9829   7.857   2.424   3.980
  197DPPC   C30 9830   7.785   2.297   3.933
  197DPPC   C31 9831   7.866   2.199   3.848
  197DPPC   C32 9832   8.978   1.989   4.951
  197DPPC   O33 9833   9.013   2.110   4.884
  197DPPC   C34 9834   9.111   2.105   4.789
  197DPPC   O35 9835   9.194   2.014   4.785
  197DPPC   C36 9836   9.127   2.229   4.702
  197DPPC   C37 9837   9.005   2.246   4.610
  197DPPC   C38 9838   9.014   2.352   4.500
  197DPPC   C39 9839   8.899   2.360   4.400
  197DPPC   C40 9840   8.930   2.499   4.345
  197DPPC   C41 9841   8.900   2.613   4.442
  197DPPC   C42 9842   8.949   2.750   4.394
  197DPPC   C43 9843   8.913   2.860   4.493
  197DPPC   C44 9844   8.993   2.989   4.468
  197DPPC   C45 9845   8.966   3.091   4.578
  197DPPC   C46 9846   9.080   3.192   4.595
  197DPPC   C47 9847   9.015   3.291   4.691
  197DPPC   C48 9848   9.106   3.407   4.735
  197DPPC   C49 9849   9.047   3.490   4.849
  197DPPC   C50 9850   9.029   3.406   4.975
  198DPPC    C1 9851   3.957   4.857   5.306
  198DPPC    C2 9852   3.747   4.794   5.386
  198DPPC    C3 9853   3.931   4.785   5.534
  198DPPC    N4 9854   3.871   4.863   5.425
  198DPPC    C5 9855   3.841   5.000   5.470
  198DPPC    C6 9856   3.944   5.082   5.549
  198DPPC    O7 9857   4.045   5.134   5.463
  198DPPC    P8 9858   4.182   5.128   5.549
  198DPPC    O9 9859   4.207   4.983   5.528
  198DPPC   O10 9860   4.166   5.194   5.680
  198DPPC   O11 9861   4.268   5.213   5.443
  198DPPC   C12 9862   4.320   5.124   5.344
  198DPPC   C13 9863   4.395   5.185   5.225
  198DPPC   O14 9864   4.518   5.257   5.237
  198DPPC   C15 9865   4.625   5.174   5.254
  198DPPC   O16 9866   4.620   5.061   5.301
  198DPPC   C17 9867   4.766   5.227   5.228
  198DPPC   C18 9868   4.768   5.299   5.093
  198DPPC   C19 9869   4.897   5.348   5.027
  198DPPC   C20 9870   4.873   5.396   4.883
  198DPPC   C21 9871   5.008   5.425   4.818
  198DPPC   C22 9872   5.083   5.296   4.785
  198DPPC   C23 9873   5.197   5.338   4.692
  198DPPC   C24 9874   5.275   5.227   4.622
  198DPPC   C25 9875   5.419   5.267   4.589
  198DPPC   C26 9876   5.485   5.160   4.502
  198DPPC   C27 9877   5.630   5.189   4.464
  198DPPC   C28 9878   5.663   5.112   4.336
  198DPPC   C29 9879   5.805   5.149   4.295
  198DPPC   C30 9880   5.899   5.116   4.411
  198DPPC   C31 9881   6.052   5.115   4.402
  198DPPC   C32 9882   4.282   5.255   5.149
  198DPPC   O33 9883   4.178   5.170   5.102
  198DPPC   C34 9884   4.074   5.233   5.040
  198DPPC   O35 9885   4.077   5.353   5.013
  198DPPC   C36 9886   3.947   5.156   5.006
  198DPPC   C37 9887   4.005   5.023   4.957
  198DPPC   C38 9888   4.065   5.023   4.816
  198DPPC   C39 9889   4.127   4.886   4.790
  198DPPC   C40 9890   4.186   4.886   4.649
  198DPPC   C41 9891   4.243   4.749   4.614
  198DPPC   C42 9892   4.351   4.765   4.507
  198DPPC   C43 9893   4.448   4.648   4.494
  198DPPC   C44 9894   4.549   4.672   4.382
  198DPPC   C45 9895   4.667   4.575   4.371
  198DPPC   C46 9896   4.767   4.608   4.260
  198DPPC   C47 9897   4.884   4.510   4.251
  198DPPC   C48 9898   4.845   4.365   4.224
  198DPPC   C49 9899   4.966   4.279   4.187
  198DPPC   C50 9900   4.915   4.143   4.139
  199DPPC    C1 9901   6.945   6.320   5.348
  199DPPC    C2 9902   6.898   6.543   5.283
  199DPPC    C3 9903   6.811   6.369   5.160
  199DPPC    N4 9904   6.839   6.409   5.299
  199DPPC    C5 9905   6.722   6.399   5.388
  199DPPC    C6 9906   6.613   6.505   5.377
  199DPPC    O7 9907   6.529   6.480   5.264
  199DPPC    P8 9908   6.407   6.585   5.261
  199DPPC    O9 9909   6.480   6.714   5.249
  199DPPC   O10 9910   6.314   6.547   5.369
  199DPPC   O11 9911   6.340   6.530   5.126
  199DPPC   C12 9912   6.439   6.473   5.039
  199DPPC   C13 9913   6.407   6.496   4.891
  199DPPC   O14 9914   6.496   6.436   4.796
  199DPPC   C15 9915   6.480   6.305   4.764
  199DPPC   O16 9916   6.410   6.237   4.839
  199DPPC   C17 9917   6.547   6.245   4.641
  199DPPC   C18 9918   6.503   6.296   4.503
  199DPPC   C19 9919   6.590   6.221   4.402
  199DPPC   C20 9920   6.558   6.286   4.268
  199DPPC   C21 9921   6.640   6.203   4.169
  199DPPC   C22 9922   6.635   6.263   4.029
  199DPPC   C23 9923   6.734   6.379   4.020
  199DPPC   C24 9924   6.728   6.427   3.875
  199DPPC   C25 9925   6.816   6.353   3.776
  199DPPC   C26 9926   6.815   6.434   3.646
  199DPPC   C27 9927   6.870   6.575   3.670
  199DPPC   C28 9928   6.870   6.656   3.540
  199DPPC   C29 9929   6.953   6.783   3.557
  199DPPC   C30 9930   6.983   6.864   3.430
  199DPPC   C31 9931   7.057   6.992   3.467
  199DPPC   C32 9932   6.392   6.648   4.886
  199DPPC   O33 9933   6.497   6.735   4.930
  199DPPC   C34 9934   6.463   6.867   4.923
  199DPPC   O35 9935   6.349   6.900   4.894
  199DPPC   C36 9936   6.568   6.964   4.976
  199DPPC   C37 9937   6.568   7.094   4.895
  199DPPC   C38 9938   6.483   7.205   4.956
  199DPPC   C39 9939   6.455   7.324   4.863
  199DPPC   C40 9940   6.388   7.276   4.735
  199DPPC   C41 9941   6.369   7.398   4.645
  199DPPC   C42 9942   6.507   7.454   4.609
  199DPPC   C43 9943   6.583   7.368   4.508
  199DPPC   C44 9944   6.715   7.439   4.479
  199DPPC   C45 9945   6.703   7.579   4.418
  199DPPC   C46 9946   6.839   7.621   4.363
  199DPPC   C47 9947   6.897   7.522   4.261
  199DPPC   C48 9948   7.037   7.564   4.214
  199DPPC   C49 9949   7.127   7.575   4.337
  199DPPC   C50 9950   7.272   7.613   4.303
  200DPPC    C1 9951   2.643   7.581   5.073
  200DPPC    C2 9952   2.725   7.449   5.266
  200DPPC    C3 9953   2.775   7.669   5.230
  200DPPC    N4 9954   2.664   7.574   5.218
  200DPPC    C5 9955   2.560   7.637   5.302
  200DPPC    C6 9956   2.419   7.581   5.289
  200DPPC    O7 9957   2.398   7.441   5.312
  200DPPC    P8 9958   2.248   7.389   5.290
  200DPPC    O9 9959   2.152   7.496   5.324
  200DPPC   O10 9960   2.255   7.265   5.370
  200DPPC   O11 9961   2.256   7.372   5.130
  200DPPC   C12 9962   2.337   7.255   5.112
  200DPPC   C13 9963   2.318   7.196   4.972
  200DPPC   O14 9964   2.400   7.243   4.863
  200DPPC   C15 9965   2.535   7.227   4.864
  200DPPC   O16 9966   2.605   7.221   4.965
  200DPPC   C17 9967   2.586   7.252   4.722
  200DPPC   C18 9968   2.682   7.140   4.681
  200DPPC   C19 9969   2.731   7.179   4.541
  200DPPC   C20 9970   2.840   7.083   4.494
  200DPPC   C21 9971   2.891   7.104   4.352
  200DPPC   C22 9972   2.785   7.091   4.241
  200DPPC   C23 9973   2.860   7.097   4.108
  200DPPC   C24 9974   2.775   7.094   3.980
  200DPPC   C25 9975   2.851   7.107   3.849
  200DPPC   C26 9976   2.926   7.239   3.831
  200DPPC   C27 9977   3.001   7.249   3.697
  200DPPC   C28 9978   3.100   7.365   3.690
  200DPPC   C29 9979   3.167   7.366   3.553
  200DPPC   C30 9980   3.248   7.237   3.535
  200DPPC   C31 9981   3.346   7.226   3.418
  200DPPC   C32 9982   2.166   7.184   4.964
  200DPPC   O33 9983   2.118   7.103   4.857
  200DPPC   C34 9984   1.983   7.091   4.865
  200DPPC   O35 9985   1.916   7.107   4.967
  200DPPC   C36 9986   1.928   7.018   4.742
  200DPPC   C37 9987   1.888   7.103   4.622
  200DPPC   C38 9988   1.851   7.013   4.503
  200DPPC   C39 9989   1.979   6.959   4.439
  200DPPC   C40 9990   1.960   6.847   4.336
  200DPPC   C41 9991   2.088   6.797   4.269
  200DPPC   C42 9992   2.043   6.690   4.170
  200DPPC   C43 9993   1.924   6.744   4.090
  200DPPC   C44 9994   1.852   6.633   4.014
  200DPPC   C45 9995   1.704   6.668   3.993
  200DPPC   C46 9996   1.675   6.803   3.927
  200DPPC   C47 9997   1.531   6.816   3.876
  200DPPC   C48 9998   1.500   6.963   3.850
  200DPPC   C49 9999   1.358   6.999   3.805
  200DPPC   C5010000   1.339   7.150   3.787
  201DPPC    C110001   7.794   1.518   5.700
  201DPPC    C210002   7.804   1.585   5.933
  201DPPC    C310003   7.828   1.361   5.879
  201DPPC    N410004   7.859   1.496   5.830
  201DPPC    C510005   8.005   1.508   5.843
  201DPPC    C610006   8.079   1.619   5.767
  201DPPC    O710007   8.034   1.743   5.823
  201DPPC    P810008   8.087   1.866   5.734
  201DPPC    O910009   8.229   1.833   5.707
  201DPPC   O1010010   8.053   2.003   5.778
  201DPPC   O1110011   8.000   1.831   5.603
  201DPPC   C1210012   8.070   1.890   5.493
  201DPPC   C1310013   7.995   1.917   5.362
  201DPPC   O1410014   7.896   2.021   5.359
  201DPPC   C1510015   7.935   2.151   5.372
  201DPPC   O1610016   8.027   2.180   5.447
  201DPPC   C1710017   7.843   2.251   5.302
  201DPPC   C1810018   7.865   2.250   5.150
  201DPPC   C1910019   7.783   2.362   5.085
  201DPPC   C2010020   7.635   2.326   5.100
  201DPPC   C2110021   7.545   2.432   5.036
  201DPPC   C2210022   7.401   2.386   5.015
  201DPPC   C2310023   7.320   2.498   4.951
  201DPPC   C2410024   7.358   2.512   4.803
  201DPPC   C2510025   7.266   2.615   4.737
  201DPPC   C2610026   7.289   2.616   4.586
  201DPPC   C2710027   7.173   2.679   4.508
  201DPPC   C2810028   7.176   2.639   4.360
  201DPPC   C2910029   7.050   2.660   4.276
  201DPPC   C3010030   7.058   2.603   4.134
  201DPPC   C3110031   6.941   2.506   4.117
  201DPPC   C3210032   7.941   1.777   5.330
  201DPPC   O3310033   8.051   1.688   5.311
  201DPPC   C3410034   8.017   1.559   5.334
  201DPPC   O3510035   7.903   1.532   5.373
  201DPPC   C3610036   8.125   1.455   5.305
  201DPPC   C3710037   8.181   1.471   5.163
  201DPPC   C3810038   8.261   1.350   5.115
  201DPPC   C3910039   8.320   1.371   4.975
  201DPPC   C4010040   8.209   1.420   4.883
  201DPPC   C4110041   8.260   1.469   4.747
  201DPPC   C4210042   8.146   1.554   4.689
  201DPPC   C4310043   8.169   1.627   4.557
  201DPPC   C4410044   8.037   1.689   4.511
  201DPPC   C4510045   7.919   1.594   4.488
  201DPPC   C4610046   7.796   1.672   4.442
  201DPPC   C4710047   7.670   1.585   4.439
  201DPPC   C4810048   7.553   1.680   4.412
  201DPPC   C4910049   7.424   1.616   4.463
  201DPPC   C5010050   7.435   1.584   4.612
  202DPPC    C110051   0.670   2.612   5.615
  202DPPC    C210052   0.885   2.626   5.714
  202DPPC    C310053   0.683   2.697   5.817
  202DPPC    N410054   0.745   2.589   5.739
  202DPPC    C510055   0.723   2.459   5.804
  202DPPC    C610056   0.702   2.331   5.723
  202DPPC    O710057   0.574   2.324   5.660
  202DPPC    P810058   0.545   2.185   5.585
  202DPPC    O910059   0.401   2.153   5.591
  202DPPC   O1010060   0.658   2.105   5.638
  202DPPC   O1110061   0.590   2.243   5.441
  202DPPC   C1210062   0.489   2.311   5.366
  202DPPC   C1310063   0.548   2.416   5.272
  202DPPC   O1410064   0.447   2.458   5.180
  202DPPC   C1510065   0.443   2.585   5.132
  202DPPC   O1610066   0.435   2.678   5.213
  202DPPC   C1710067   0.388   2.604   4.991
  202DPPC   C1810068   0.351   2.743   4.938
  202DPPC   C1910069   0.325   2.737   4.787
  202DPPC   C2010070   0.266   2.876   4.763
  202DPPC   C2110071   0.209   2.901   4.623
  202DPPC   C2210072   0.319   2.900   4.516
  202DPPC   C2310073   0.253   2.940   4.384
  202DPPC   C2410074   0.348   2.899   4.272
  202DPPC   C2510075   0.288   2.908   4.131
  202DPPC   C2610076   0.384   2.843   4.032
  202DPPC   C2710077   0.341   2.862   3.886
  202DPPC   C2810078   0.454   2.809   3.798
  202DPPC   C2910079   0.431   2.834   3.648
  202DPPC   C3010080   0.556   2.813   3.563
  202DPPC   C3110081   0.550   2.882   3.427
  202DPPC   C3210082   0.661   2.332   5.212
  202DPPC   O3310083   0.716   2.363   5.083
  202DPPC   C3410084   0.803   2.274   5.029
  202DPPC   O3510085   0.820   2.168   5.088
  202DPPC   C3610086   0.834   2.291   4.880
  202DPPC   C3710087   0.784   2.427   4.833
  202DPPC   C3810088   0.778   2.443   4.681
  202DPPC   C3910089   0.768   2.595   4.669
  202DPPC   C4010090   0.723   2.645   4.531
  202DPPC   C4110091   0.694   2.796   4.534
  202DPPC   C4210092   0.684   2.839   4.388
  202DPPC   C4310093   0.811   2.800   4.313
  202DPPC   C4410094   0.786   2.800   4.162
  202DPPC   C4510095   0.907   2.766   4.074
  202DPPC   C4610096   0.862   2.751   3.929
  202DPPC   C4710097   0.987   2.758   3.840
  202DPPC   C4810098   0.942   2.729   3.696
  202DPPC   C4910099   1.045   2.740   3.583
  202DPPC   C5010100   0.978   2.688   3.455
  203DPPC    C110101   1.937   7.637   4.409
  203DPPC    C210102   1.726   7.582   4.304
  203DPPC    C310103   1.843   7.424   4.443
  203DPPC    N410104   1.809   7.566   4.424
  203DPPC    C510105   1.734   7.616   4.540
  203DPPC    C610106   1.758   7.578   4.686
  203DPPC    O710107   1.880   7.631   4.739
  203DPPC    P810108   1.949   7.516   4.828
  203DPPC    O910109   1.856   7.405   4.859
  203DPPC   O1010110   2.035   7.589   4.924
  203DPPC   O1110111   2.045   7.446   4.720
  203DPPC   C1210112   2.184   7.477   4.733
  203DPPC   C1310113   2.244   7.430   4.600
  203DPPC   O1410114   2.233   7.527   4.495
  203DPPC   C1510115   2.340   7.604   4.462
  203DPPC   O1610116   2.381   7.670   4.557
  203DPPC   C1710117   2.349   7.646   4.315
  203DPPC   C1810118   2.489   7.636   4.254
  203DPPC   C1910119   2.485   7.636   4.101
  203DPPC   C2010120   2.619   7.644   4.028
  203DPPC   C2110121   2.726   7.545   4.074
  203DPPC   C2210122   2.853   7.555   3.989
  203DPPC   C2310123   2.876   7.700   3.948
  203DPPC   C2410124   3.001   7.724   3.862
  203DPPC   C2510125   3.022   7.873   3.838
  203DPPC   C2610126   3.126   7.897   3.727
  203DPPC   C2710127   3.161   8.042   3.696
  203DPPC   C2810128   3.206   8.109   3.826
  203DPPC   C2910129   3.262   8.249   3.805
  203DPPC   C3010130   3.272   8.308   3.946
  203DPPC   C3110131   3.371   8.425   3.940
  203DPPC   C3210132   2.209   7.284   4.572
  203DPPC   O3310133   2.265   7.225   4.454
  203DPPC   C3410134   2.218   7.266   4.334
  203DPPC   O3510135   2.113   7.330   4.327
  203DPPC   C3610136   2.313   7.260   4.214
  203DPPC   C3710137   2.275   7.147   4.117
  203DPPC   C3810138   2.385   7.139   4.010
  203DPPC   C3910139   2.373   7.009   3.930
  203DPPC   C4010140   2.265   7.023   3.822
  203DPPC   C4110141   2.213   6.885   3.784
  203DPPC   C4210142   2.082   6.892   3.705
  203DPPC   C4310143   2.021   6.754   3.677
  203DPPC   C4410144   1.894   6.779   3.597
  203DPPC   C4510145   1.821   6.657   3.540
  203DPPC   C4610146   1.691   6.706   3.477
  203DPPC   C4710147   1.584   6.598   3.495
  203DPPC   C4810148   1.457   6.648   3.426
  203DPPC   C4910149   1.381   6.752   3.508
  203DPPC   C5010150   1.246   6.797   3.450
  204DPPC    C110151   9.424   7.704   4.655
  204DPPC    C210152   9.614   7.682   4.506
  204DPPC    C310153   9.627   7.608   4.728
  204DPPC    N410154   9.536   7.618   4.613
  204DPPC    C510155   9.499   7.485   4.563
  204DPPC    C610156   9.379   7.422   4.634
  204DPPC    O710157   9.328   7.310   4.562
  204DPPC    P810158   9.236   7.241   4.674
  204DPPC    O910159   9.197   7.337   4.779
  204DPPC   O1010160   9.302   7.111   4.703
  204DPPC   O1110161   9.112   7.224   4.572
  204DPPC   C1210162   9.129   7.096   4.509
  204DPPC   C1310163   9.007   7.051   4.429
  204DPPC   O1410164   8.994   6.914   4.387
  204DPPC   C1510165   8.966   6.818   4.479
  204DPPC   O1610166   8.947   6.848   4.597
  204DPPC   C1710167   8.952   6.676   4.423
  204DPPC   C1810168   8.814   6.634   4.374
  204DPPC   C1910169   8.815   6.496   4.308
  204DPPC   C2010170   8.907   6.495   4.186
  204DPPC   C2110171   8.869   6.374   4.099
  204DPPC   C2210172   8.930   6.408   3.963
  204DPPC   C2310173   8.834   6.371   3.849
  204DPPC   C2410174   8.902   6.424   3.722
  204DPPC   C2510175   9.036   6.352   3.707
  204DPPC   C2610176   9.103   6.398   3.578
  204DPPC   C2710177   9.002   6.412   3.463
  204DPPC   C2810178   9.062   6.475   3.337
  204DPPC   C2910179   8.944   6.540   3.264
  204DPPC   C3010180   8.880   6.444   3.163
  204DPPC   C3110181   8.770   6.516   3.085
  204DPPC   C3210182   8.982   7.160   4.326
  204DPPC   O3310183   9.087   7.194   4.235
  204DPPC   C3410184   9.050   7.286   4.143
  204DPPC   O3510185   8.939   7.338   4.137
  204DPPC   C3610186   9.165   7.325   4.049
  204DPPC   C3710187   9.120   7.369   3.909
  204DPPC   C3810188   9.236   7.386   3.811
  204DPPC   C3910189   9.289   7.246   3.778
  204DPPC   C4010190   9.177   7.173   3.704
  204DPPC   C4110191   9.236   7.044   3.648
  204DPPC   C4210192   9.134   6.969   3.561
  204DPPC   C4310193   9.212   6.855   3.495
  204DPPC   C4410194   9.330   6.903   3.411
  204DPPC   C4510195   9.416   6.786   3.363
  204DPPC   C4610196   9.459   6.693   3.476
  204DPPC   C4710197   9.538   6.580   3.412
  204DPPC   C4810198   9.456   6.534   3.291
  204DPPC   C4910199   9.529   6.433   3.203
  204DPPC   C5010200   9.602   6.323   3.281
  205DPPC    C110201   2.161   8.139   5.560
  205DPPC    C210202   2.381   8.035   5.554
  205DPPC    C310203   2.197   7.927   5.468
  205DPPC    N410204   2.257   8.061   5.480
  205DPPC    C510205   2.279   8.135   5.355
  205DPPC    C610206   2.167   8.138   5.250
  205DPPC    O710207   2.058   8.223   5.287
  205DPPC    P810208   1.920   8.168   5.224
  205DPPC    O910209   1.806   8.248   5.274
  205DPPC   O1010210   1.923   8.022   5.249
  205DPPC   O1110211   1.953   8.198   5.069
  205DPPC   C1210212   1.893   8.324   5.040
  205DPPC   C1310213   1.976   8.452   5.052
  205DPPC   O1410214   1.894   8.565   5.020
  205DPPC   C1510215   1.937   8.690   5.052
  205DPPC   O1610216   2.017   8.703   5.144
  205DPPC   C1710217   1.841   8.798   5.002
  205DPPC   C1810218   1.850   8.814   4.850
  205DPPC   C1910219   1.781   8.948   4.826
  205DPPC   C2010220   1.751   8.976   4.679
  205DPPC   C2110221   1.648   8.871   4.634
  205DPPC   C2210222   1.609   8.879   4.487
  205DPPC   C2310223   1.501   8.772   4.467
  205DPPC   C2410224   1.367   8.823   4.414
  205DPPC   C2510225   1.385   8.894   4.280
  205DPPC   C2610226   1.259   8.951   4.214
  205DPPC   C2710227   1.295   8.994   4.071
  205DPPC   C2810228   1.166   9.059   4.020
  205DPPC   C2910229   1.206   9.114   3.883
  205DPPC   C3010230   1.090   9.159   3.793
  205DPPC   C3110231   1.144   9.227   3.667
  205DPPC   C3210232   2.102   8.442   4.965
  205DPPC   O3310233   2.084   8.426   4.824
  205DPPC   C3410234   2.164   8.498   4.742
  205DPPC   O3510235   2.241   8.587   4.776
  205DPPC   C3610236   2.160   8.467   4.592
  205DPPC   C3710237   2.249   8.351   4.547
  205DPPC   C3810238   2.229   8.333   4.396
  205DPPC   C3910239   2.306   8.211   4.348
  205DPPC   C4010240   2.290   8.196   4.196
  205DPPC   C4110241   2.345   8.065   4.139
  205DPPC   C4210242   2.323   8.077   3.988
  205DPPC   C4310243   2.346   7.942   3.920
  205DPPC   C4410244   2.381   7.986   3.778
  205DPPC   C4510245   2.424   7.875   3.683
  205DPPC   C4610246   2.452   7.927   3.542
  205DPPC   C4710247   2.527   7.829   3.451
  205DPPC   C4810248   2.648   7.778   3.530
  205DPPC   C4910249   2.744   7.698   3.441
  205DPPC   C5010250   2.861   7.636   3.517
  206DPPC    C110251   2.005   5.384   4.908
  206DPPC    C210252   1.932   5.213   4.761
  206DPPC    C310253   2.045   5.147   4.966
  206DPPC    N410254   1.956   5.245   4.903
  206DPPC    C510255   1.841   5.214   4.989
  206DPPC    C610256   1.718   5.305   4.981
  206DPPC    O710257   1.650   5.314   4.856
  206DPPC    P810258   1.505   5.383   4.866
  206DPPC    O910259   1.523   5.459   4.991
  206DPPC   O1010260   1.387   5.293   4.858
  206DPPC   O1110261   1.518   5.487   4.744
  206DPPC   C1210262   1.474   5.416   4.627
  206DPPC   C1310263   1.496   5.491   4.496
  206DPPC   O1410264   1.428   5.434   4.383
  206DPPC   C1510265   1.292   5.444   4.374
  206DPPC   O1610266   1.224   5.508   4.453
  206DPPC   C1710267   1.224   5.368   4.260
  206DPPC   C1810268   1.176   5.456   4.145
  206DPPC   C1910269   1.148   5.354   4.034
  206DPPC   C2010270   1.110   5.430   3.906
  206DPPC   C2110271   1.083   5.333   3.791
  206DPPC   C2210272   1.048   5.422   3.671
  206DPPC   C2310273   1.014   5.345   3.544
  206DPPC   C2410274   0.988   5.441   3.428
  206DPPC   C2510275   1.115   5.524   3.405
  206DPPC   C2610276   1.100   5.631   3.297
  206DPPC   C2710277   1.222   5.714   3.259
  206DPPC   C2810278   1.255   5.832   3.350
  206DPPC   C2910279   1.391   5.896   3.319
  206DPPC   C3010280   1.440   5.986   3.433
  206DPPC   C3110281   1.483   5.905   3.555
  206DPPC   C3210282   1.648   5.475   4.486
  206DPPC   O3310283   1.696   5.356   4.422
  206DPPC   C3410284   1.832   5.348   4.419
  206DPPC   O3510285   1.910   5.408   4.494
  206DPPC   C3610286   1.883   5.221   4.352
  206DPPC   C3710287   1.931   5.254   4.211
  206DPPC   C3810288   1.984   5.126   4.146
  206DPPC   C3910289   2.083   5.056   4.239
  206DPPC   C4010290   2.114   4.935   4.150
  206DPPC   C4110291   2.217   4.837   4.207
  206DPPC   C4210292   2.243   4.740   4.091
  206DPPC   C4310293   2.311   4.811   3.974
  206DPPC   C4410294   2.452   4.858   4.011
  206DPPC   C4510295   2.546   4.878   3.893
  206DPPC   C4610296   2.692   4.912   3.926
  206DPPC   C4710297   2.786   4.907   3.806
  206DPPC   C4810298   2.923   4.960   3.847
  206DPPC   C4910299   3.014   4.973   3.725
  206DPPC   C5010300   3.159   4.993   3.770
  207DPPC    C110301   6.483   0.328   6.009
  207DPPC    C210302   6.690   0.350   5.900
  207DPPC    C310303   6.520   0.223   5.796
  207DPPC    N410304   6.545   0.343   5.877
  207DPPC    C510305   6.486   0.454   5.800
  207DPPC    C610306   6.532   0.599   5.823
  207DPPC    O710307   6.450   0.688   5.746
  207DPPC    P810308   6.510   0.837   5.756
  207DPPC    O910309   6.528   0.869   5.899
  207DPPC   O1010310   6.427   0.926   5.672
  207DPPC   O1110311   6.644   0.792   5.679
  207DPPC   C1210312   6.674   0.853   5.553
  207DPPC   C1310313   6.816   0.900   5.520
  207DPPC   O1410314   6.829   1.013   5.433
  207DPPC   C1510315   6.946   1.083   5.432
  207DPPC   O1610316   7.024   1.066   5.525
  207DPPC   C1710317   6.974   1.174   5.312
  207DPPC   C1810318   6.914   1.313   5.332
  207DPPC   C1910319   6.912   1.402   5.207
  207DPPC   C2010320   6.830   1.349   5.090
  207DPPC   C2110321   6.827   1.440   4.967
  207DPPC   C2210322   6.955   1.419   4.886
  207DPPC   C2310323   6.928   1.514   4.769
  207DPPC   C2410324   7.029   1.490   4.657
  207DPPC   C2510325   6.980   1.566   4.533
  207DPPC   C2610326   7.090   1.554   4.427
  207DPPC   C2710327   7.054   1.597   4.285
  207DPPC   C2810328   7.010   1.744   4.277
  207DPPC   C2910329   6.937   1.763   4.144
  207DPPC   C3010330   6.972   1.905   4.097
  207DPPC   C3110331   6.922   1.934   3.956
  207DPPC   C3210332   6.882   0.774   5.464
  207DPPC   O3310333   6.807   0.708   5.362
  207DPPC   C3410334   6.878   0.612   5.297
  207DPPC   O3510335   6.989   0.573   5.331
  207DPPC   C3610336   6.801   0.543   5.184
  207DPPC   C3710337   6.685   0.623   5.125
  207DPPC   C3810338   6.607   0.548   5.017
  207DPPC   C3910339   6.514   0.637   4.935
  207DPPC   C4010340   6.472   0.554   4.813
  207DPPC   C4110341   6.382   0.440   4.861
  207DPPC   C4210342   6.340   0.352   4.743
  207DPPC   C4310343   6.296   0.210   4.776
  207DPPC   C4410344   6.287   0.122   4.651
  207DPPC   C4510345   6.419   0.125   4.572
  207DPPC   C4610346   6.385   0.062   4.437
  207DPPC   C4710347   6.503   0.019   4.350
  207DPPC   C4810348   6.460  -0.019   4.208
  207DPPC   C4910349   6.590  -0.048   4.131
  207DPPC   C5010350   6.533  -0.115   4.006
  208DPPC    C110351   5.187   1.511   5.489
  208DPPC    C210352   5.334   1.412   5.335
  208DPPC    C310353   5.232   1.636   5.297
  208DPPC    N410354   5.292   1.541   5.391
  208DPPC    C510355   5.411   1.615   5.436
  208DPPC    C610356   5.499   1.557   5.547
  208DPPC    O710357   5.636   1.594   5.528
  208DPPC    P810358   5.744   1.555   5.640
  208DPPC    O910359   5.668   1.556   5.767
  208DPPC   O1010360   5.875   1.615   5.606
  208DPPC   O1110361   5.759   1.399   5.602
  208DPPC   C1210362   5.814   1.392   5.470
  208DPPC   C1310363   5.831   1.251   5.415
  208DPPC   O1410364   5.931   1.250   5.313
  208DPPC   C1510365   6.040   1.170   5.330
  208DPPC   O1610366   6.043   1.082   5.416
  208DPPC   C1710367   6.159   1.211   5.243
  208DPPC   C1810368   6.121   1.311   5.133
  208DPPC   C1910369   6.247   1.388   5.092
  208DPPC   C2010370   6.213   1.440   4.952
  208DPPC   C2110371   6.316   1.533   4.888
  208DPPC   C2210372   6.240   1.588   4.767
  208DPPC   C2310373   6.163   1.712   4.814
  208DPPC   C2410374   6.102   1.783   4.693
  208DPPC   C2510375   6.020   1.906   4.734
  208DPPC   C2610376   5.955   1.961   4.607
  208DPPC   C2710377   5.838   1.877   4.556
  208DPPC   C2810378   5.800   1.938   4.421
  208DPPC   C2910379   5.927   1.925   4.336
  208DPPC   C3010380   5.883   1.968   4.196
  208DPPC   C3110381   5.980   1.920   4.088
  208DPPC   C3210382   5.687   1.207   5.389
  208DPPC   O3310383   5.653   1.182   5.252
  208DPPC   C3410384   5.661   1.285   5.164
  208DPPC   O3510385   5.632   1.398   5.204
  208DPPC   C3610386   5.655   1.250   5.015
  208DPPC   C3710387   5.777   1.304   4.941
  208DPPC   C3810388   5.772   1.285   4.789
  208DPPC   C3910389   5.898   1.343   4.724
  208DPPC   C4010390   5.888   1.344   4.571
  208DPPC   C4110391   5.984   1.450   4.516
  208DPPC   C4210392   5.982   1.425   4.365
  208DPPC   C4310393   6.068   1.519   4.280
  208DPPC   C4410394   6.219   1.509   4.304
  208DPPC   C4510395   6.275   1.617   4.213
  208DPPC   C4610396   6.412   1.641   4.277
  208DPPC   C4710397   6.479   1.504   4.279
  208DPPC   C4810398   6.625   1.499   4.325
  208DPPC   C4910399   6.632   1.536   4.473
  208DPPC   C5010400   6.600   1.407   4.549
  209DPPC    C110401   4.744   3.865   6.007
  209DPPC    C210402   4.883   4.029   5.890
  209DPPC    C310403   4.877   3.791   5.834
  209DPPC    N410404   4.800   3.909   5.878
  209DPPC    C510405   4.694   3.917   5.777
  209DPPC    C610406   4.591   4.024   5.815
  209DPPC    O710407   4.472   4.033   5.736
  209DPPC    P810408   4.380   4.154   5.789
  209DPPC    O910409   4.431   4.181   5.926
  209DPPC   O1010410   4.240   4.115   5.761
  209DPPC   O1110411   4.442   4.275   5.702
  209DPPC   C1210412   4.459   4.237   5.566
  209DPPC   C1310413   4.327   4.216   5.492
  209DPPC   O1410414   4.338   4.155   5.362
  209DPPC   C1510415   4.225   4.097   5.312
  209DPPC   O1610416   4.136   4.067   5.391
  209DPPC   C1710417   4.236   4.033   5.174
  209DPPC   C1810418   4.099   4.001   5.115
  209DPPC   C1910419   4.117   4.007   4.963
  209DPPC   C2010420   4.225   3.906   4.924
  209DPPC   C2110421   4.239   3.898   4.772
  209DPPC   C2210422   4.348   3.797   4.736
  209DPPC   C2310423   4.381   3.779   4.588
  209DPPC   C2410424   4.503   3.687   4.589
  209DPPC   C2510425   4.498   3.551   4.658
  209DPPC   C2610426   4.623   3.462   4.658
  209DPPC   C2710427   4.669   3.425   4.516
  209DPPC   C2810428   4.795   3.340   4.524
  209DPPC   C2910429   4.837   3.305   4.381
  209DPPC   C3010430   4.975   3.240   4.363
  209DPPC   C3110431   5.016   3.199   4.221
  209DPPC   C3210432   4.245   4.344   5.504
  209DPPC   O3310433   4.294   4.464   5.443
  209DPPC   C3410434   4.237   4.585   5.470
  209DPPC   O3510435   4.199   4.614   5.583
  209DPPC   C3610436   4.284   4.697   5.377
  209DPPC   C3710437   4.308   4.639   5.238
  209DPPC   C3810438   4.391   4.734   5.152
  209DPPC   C3910439   4.401   4.675   5.011
  209DPPC   C4010440   4.523   4.725   4.933
  209DPPC   C4110441   4.489   4.874   4.923
  209DPPC   C4210442   4.604   4.936   4.844
  209DPPC   C4310443   4.735   4.926   4.922
  209DPPC   C4410444   4.862   4.962   4.844
  209DPPC   C4510445   4.863   4.885   4.712
  209DPPC   C4610446   4.964   4.946   4.614
  209DPPC   C4710447   4.935   4.882   4.478
  209DPPC   C4810448   5.011   4.940   4.359
  209DPPC   C4910449   5.160   4.908   4.368
  209DPPC   C5010450   5.180   4.756   4.370
  210DPPC    C110451   6.416   1.429   5.858
  210DPPC    C210452   6.375   1.472   6.095
  210DPPC    C310453   6.257   1.299   5.982
  210DPPC    N410454   6.386   1.370   5.990
  210DPPC    C510455   6.488   1.273   6.033
  210DPPC    C610456   6.563   1.204   5.919
  210DPPC    O710457   6.677   1.279   5.876
  210DPPC    P810458   6.763   1.208   5.760
  210DPPC    O910459   6.817   1.080   5.813
  210DPPC   O1010460   6.839   1.325   5.710
  210DPPC   O1110461   6.643   1.181   5.656
  210DPPC   C1210462   6.632   1.299   5.576
  210DPPC   C1310463   6.523   1.303   5.468
  210DPPC   O1410464   6.403   1.364   5.517
  210DPPC   C1510465   6.398   1.496   5.483
  210DPPC   O1610466   6.503   1.559   5.488
  210DPPC   C1710467   6.266   1.574   5.491
  210DPPC   C1810468   6.290   1.707   5.420
  210DPPC   C1910469   6.161   1.789   5.419
  210DPPC   C2010470   6.179   1.913   5.331
  210DPPC   C2110471   6.080   2.017   5.386
  210DPPC   C2210472   6.114   2.154   5.329
  210DPPC   C2310473   6.124   2.151   5.176
  210DPPC   C2410474   6.168   2.284   5.114
  210DPPC   C2510475   6.170   2.261   4.963
  210DPPC   C2610476   6.239   2.369   4.880
  210DPPC   C2710477   6.237   2.341   4.729
  210DPPC   C2810478   6.289   2.464   4.654
  210DPPC   C2910479   6.313   2.393   4.521
  210DPPC   C3010480   6.182   2.356   4.451
  210DPPC   C3110481   6.190   2.256   4.336
  210DPPC   C3210482   6.524   1.159   5.417
  210DPPC   O3310483   6.551   1.144   5.277
  210DPPC   C3410484   6.538   1.020   5.223
  210DPPC   O3510485   6.451   0.947   5.271
  210DPPC   C3610486   6.584   1.008   5.078
  210DPPC   C3710487   6.494   1.081   4.978
  210DPPC   C3810488   6.556   1.114   4.843
  210DPPC   C3910489   6.623   0.982   4.803
  210DPPC   C4010490   6.693   0.992   4.666
  210DPPC   C4110491   6.812   1.087   4.679
  210DPPC   C4210492   6.889   1.101   4.548
  210DPPC   C4310493   6.803   1.135   4.426
  210DPPC   C4410494   6.895   1.166   4.308
  210DPPC   C4510495   6.926   1.035   4.235
  210DPPC   C4610496   6.805   0.973   4.164
  210DPPC   C4710497   6.835   0.854   4.073
  210DPPC   C4810498   6.707   0.822   3.995
  210DPPC   C4910499   6.671   0.936   3.899
  210DPPC   C5010500   6.547   0.903   3.815
  211DPPC    C110501   1.366   7.987   5.267
  211DPPC    C210502   1.503   8.184   5.260
  211DPPC    C310503   1.547   7.997   5.417
  211DPPC    N410504   1.503   8.038   5.283
  211DPPC    C510505   1.596   7.996   5.177
  211DPPC    C610506   1.602   7.853   5.124
  211DPPC    O710507   1.500   7.827   5.028
  211DPPC    P810508   1.522   7.692   4.944
  211DPPC    O910509   1.384   7.641   4.959
  211DPPC   O1010510   1.641   7.629   5.006
  211DPPC   O1110511   1.560   7.790   4.822
  211DPPC   C1210512   1.440   7.844   4.766
  211DPPC   C1310513   1.467   7.947   4.656
  211DPPC   O1410514   1.485   7.894   4.524
  211DPPC   C1510515   1.373   7.862   4.455
  211DPPC   O1610516   1.266   7.855   4.516
  211DPPC   C1710517   1.398   7.789   4.323
  211DPPC   C1810518   1.382   7.898   4.217
  211DPPC   C1910519   1.234   7.935   4.204
  211DPPC   C2010520   1.199   8.008   4.074
  211DPPC   C2110521   1.059   8.067   4.090
  211DPPC   C2210522   1.021   8.164   3.977
  211DPPC   C2310523   1.062   8.096   3.846
  211DPPC   C2410524   1.039   8.198   3.735
  211DPPC   C2510525   1.053   8.141   3.594
  211DPPC   C2610526   0.932   8.061   3.545
  211DPPC   C2710527   0.840   8.150   3.460
  211DPPC   C2810528   0.919   8.220   3.349
  211DPPC   C2910529   0.815   8.280   3.255
  211DPPC   C3010530   0.865   8.376   3.147
  211DPPC   C3110531   0.962   8.313   3.047
  211DPPC   C3210532   1.578   8.037   4.710
  211DPPC   O3310533   1.599   8.152   4.629
  211DPPC   C3410534   1.667   8.241   4.706
  211DPPC   O3510535   1.715   8.206   4.814
  211DPPC   C3610536   1.681   8.384   4.652
  211DPPC   C3710537   1.800   8.393   4.556
  211DPPC   C3810538   1.784   8.522   4.475
  211DPPC   C3910539   1.883   8.525   4.358
  211DPPC   C4010540   1.843   8.656   4.291
  211DPPC   C4110541   1.808   8.630   4.144
  211DPPC   C4210542   1.760   8.757   4.075
  211DPPC   C4310543   1.725   8.732   3.929
  211DPPC   C4410544   1.707   8.854   3.838
  211DPPC   C4510545   1.567   8.913   3.858
  211DPPC   C4610546   1.546   9.044   3.782
  211DPPC   C4710547   1.588   9.021   3.637
  211DPPC   C4810548   1.569   9.156   3.568
  211DPPC   C4910549   1.666   9.268   3.609
  211DPPC   C5010550   1.601   9.388   3.539
  212DPPC    C110551   4.643   8.245   5.655
  212DPPC    C210552   4.697   8.460   5.576
  212DPPC    C310553   4.852   8.288   5.533
  212DPPC    N410554   4.709   8.317   5.545
  212DPPC    C510555   4.630   8.280   5.426
  212DPPC    C610556   4.638   8.361   5.297
  212DPPC    O710557   4.769   8.382   5.243
  212DPPC    P810558   4.755   8.528   5.175
  212DPPC    O910559   4.876   8.556   5.095
  212DPPC   O1010560   4.697   8.612   5.282
  212DPPC   O1110561   4.644   8.510   5.060
  212DPPC   C1210562   4.697   8.403   4.980
  212DPPC   C1310563   4.606   8.348   4.870
  212DPPC   O1410564   4.659   8.235   4.799
  212DPPC   C1510565   4.674   8.113   4.857
  212DPPC   O1610566   4.624   8.096   4.968
  212DPPC   C1710567   4.729   8.006   4.762
  212DPPC   C1810568   4.663   8.026   4.626
  212DPPC   C1910569   4.713   7.935   4.513
  212DPPC   C2010570   4.615   7.975   4.403
  212DPPC   C2110571   4.659   7.904   4.274
  212DPPC   C2210572   4.530   7.839   4.223
  212DPPC   C2310573   4.540   7.752   4.097
  212DPPC   C2410574   4.413   7.670   4.075
  212DPPC   C2510575   4.433   7.585   3.949
  212DPPC   C2610576   4.443   7.661   3.817
  212DPPC   C2710577   4.485   7.544   3.726
  212DPPC   C2810578   4.532   7.578   3.585
  212DPPC   C2910579   4.571   7.456   3.502
  212DPPC   C3010580   4.604   7.484   3.355
  212DPPC   C3110581   4.648   7.346   3.306
  212DPPC   C3210582   4.558   8.471   4.794
  212DPPC   O3310583   4.670   8.536   4.733
  212DPPC   C3410584   4.649   8.652   4.666
  212DPPC   O3510585   4.543   8.714   4.671
  212DPPC   C3610586   4.782   8.712   4.619
  212DPPC   C3710587   4.778   8.718   4.466
  212DPPC   C3810588   4.912   8.725   4.393
  212DPPC   C3910589   4.875   8.752   4.247
  212DPPC   C4010590   5.001   8.766   4.160
  212DPPC   C4110591   5.113   8.665   4.188
  212DPPC   C4210592   5.235   8.687   4.098
  212DPPC   C4310593   5.368   8.621   4.134
  212DPPC   C4410594   5.423   8.680   4.263
  212DPPC   C4510595   5.545   8.596   4.304
  212DPPC   C4610596   5.645   8.597   4.189
  212DPPC   C4710597   5.777   8.545   4.246
  212DPPC   C4810598   5.884   8.515   4.141
  212DPPC   C4910599   5.993   8.445   4.222
  212DPPC   C5010600   6.086   8.399   4.110
  213DPPC    C110601   7.649   1.971   5.932
  213DPPC    C210602   7.712   2.178   5.855
  213DPPC    C310603   7.734   2.009   5.700
  213DPPC    N410604   7.648   2.053   5.811
  213DPPC    C510605   7.516   2.082   5.752
  213DPPC    C610606   7.411   1.972   5.747
  213DPPC    O710607   7.459   1.852   5.685
  213DPPC    P810608   7.391   1.728   5.760
  213DPPC    O910609   7.311   1.775   5.876
  213DPPC   O1010610   7.496   1.625   5.776
  213DPPC   O1110611   7.294   1.673   5.643
  213DPPC   C1210612   7.360   1.655   5.517
  213DPPC   C1310613   7.271   1.629   5.395
  213DPPC   O1410614   7.341   1.574   5.283
  213DPPC   C1510615   7.377   1.443   5.295
  213DPPC   O1610616   7.354   1.377   5.396
  213DPPC   C1710617   7.438   1.377   5.171
  213DPPC   C1810618   7.340   1.356   5.056
  213DPPC   C1910619   7.390   1.265   4.943
  213DPPC   C2010620   7.281   1.239   4.839
  213DPPC   C2110621   7.322   1.143   4.727
  213DPPC   C2210622   7.443   1.195   4.649
  213DPPC   C2310623   7.508   1.076   4.578
  213DPPC   C2410624   7.419   1.060   4.455
  213DPPC   C2510625   7.401   1.189   4.375
  213DPPC   C2610626   7.522   1.190   4.281
  213DPPC   C2710627   7.513   1.316   4.195
  213DPPC   C2810628   7.395   1.296   4.100
  213DPPC   C2910629   7.376   1.404   3.992
  213DPPC   C3010630   7.234   1.410   3.936
  213DPPC   C3110631   7.243   1.507   3.819
  213DPPC   C3210632   7.177   1.750   5.385
  213DPPC   O3310633   7.063   1.731   5.302
  213DPPC   C3410634   6.975   1.833   5.280
  213DPPC   O3510635   6.975   1.932   5.354
  213DPPC   C3610636   6.862   1.812   5.180
  213DPPC   C3710637   6.737   1.775   5.260
  213DPPC   C3810638   6.614   1.790   5.169
  213DPPC   C3910639   6.606   1.924   5.097
  213DPPC   C4010640   6.570   2.028   5.203
  213DPPC   C4110641   6.569   2.173   5.155
  213DPPC   C4210642   6.546   2.279   5.263
  213DPPC   C4310643   6.540   2.420   5.204
  213DPPC   C4410644   6.659   2.475   5.124
  213DPPC   C4510645   6.645   2.622   5.085
  213DPPC   C4610646   6.513   2.639   5.010
  213DPPC   C4710647   6.500   2.780   4.952
  213DPPC   C4810648   6.373   2.808   4.870
  213DPPC   C4910649   6.374   2.954   4.824
  213DPPC   C5010650   6.325   3.040   4.940
  214DPPC    C110651   5.491   7.927   5.569
  214DPPC    C210652   5.507   7.749   5.721
  214DPPC    C310653   5.459   7.690   5.493
  214DPPC    N410654   5.529   7.785   5.580
  214DPPC    C510655   5.675   7.774   5.575
  214DPPC    C610656   5.755   7.816   5.451
  214DPPC    O710657   5.752   7.712   5.353
  214DPPC    P810658   5.838   7.757   5.224
  214DPPC    O910659   5.911   7.629   5.210
  214DPPC   O1010660   5.903   7.884   5.262
  214DPPC   O1110661   5.707   7.764   5.131
  214DPPC   C1210662   5.699   7.654   5.040
  214DPPC   C1310663   5.553   7.639   4.998
  214DPPC   O1410664   5.526   7.524   4.917
  214DPPC   C1510665   5.544   7.402   4.976
  214DPPC   O1610666   5.565   7.380   5.095
  214DPPC   C1710667   5.550   7.299   4.864
  214DPPC   C1810668   5.632   7.175   4.902
  214DPPC   C1910669   5.678   7.096   4.780
  214DPPC   C2010670   5.760   6.968   4.800
  214DPPC   C2110671   5.752   6.876   4.678
  214DPPC   C2210672   5.846   6.757   4.698
  214DPPC   C2310673   5.986   6.820   4.696
  214DPPC   C2410674   6.088   6.706   4.703
  214DPPC   C2510675   6.061   6.599   4.597
  214DPPC   C2610676   6.149   6.474   4.604
  214DPPC   C2710677   6.097   6.371   4.504
  214DPPC   C2810678   5.944   6.376   4.501
  214DPPC   C2910679   5.895   6.289   4.385
  214DPPC   C3010680   5.894   6.138   4.411
  214DPPC   C3110681   5.883   6.048   4.289
  214DPPC   C3210682   5.533   7.770   4.921
  214DPPC   O3310683   5.624   7.819   4.823
  214DPPC   C3410684   5.584   7.941   4.778
  214DPPC   O3510685   5.502   8.005   4.845
  214DPPC   C3610686   5.645   8.006   4.654
  214DPPC   C3710687   5.702   7.904   4.556
  214DPPC   C3810688   5.797   7.962   4.451
  214DPPC   C3910689   5.873   7.843   4.391
  214DPPC   C4010690   5.937   7.874   4.256
  214DPPC   C4110691   6.029   7.753   4.239
  214DPPC   C4210692   6.016   7.708   4.094
  214DPPC   C4310693   6.109   7.590   4.065
  214DPPC   C4410694   6.251   7.616   4.116
  214DPPC   C4510695   6.352   7.516   4.059
  214DPPC   C4610696   6.303   7.376   4.096
  214DPPC   C4710697   6.391   7.258   4.053
  214DPPC   C4810698   6.530   7.273   4.115
  214DPPC   C4910699   6.613   7.149   4.078
  214DPPC   C5010700   6.748   7.155   4.149
  215DPPC    C110701   8.056   0.314   5.208
  215DPPC    C210702   8.139   0.445   5.397
  215DPPC    C310703   7.950   0.319   5.407
  215DPPC    N410704   8.086   0.315   5.352
  215DPPC    C510705   8.148   0.194   5.409
  215DPPC    C610706   8.299   0.185   5.387
  215DPPC    O710707   8.342   0.117   5.269
  215DPPC    P810708   8.484   0.165   5.211
  215DPPC    O910709   8.583   0.078   5.278
  215DPPC   O1010710   8.475   0.307   5.252
  215DPPC   O1110711   8.451   0.134   5.056
  215DPPC   C1210712   8.391   0.249   4.998
  215DPPC   C1310713   8.372   0.224   4.848
  215DPPC   O1410714   8.341   0.342   4.772
  215DPPC   C1510715   8.235   0.423   4.797
  215DPPC   O1610716   8.182   0.427   4.907
  215DPPC   C1710717   8.208   0.526   4.687
  215DPPC   C1810718   8.169   0.441   4.566
  215DPPC   C1910719   8.147   0.514   4.433
  215DPPC   C2010720   8.109   0.409   4.329
  215DPPC   C2110721   8.069   0.467   4.193
  215DPPC   C2210722   8.188   0.547   4.142
  215DPPC   C2310723   8.143   0.614   4.011
  215DPPC   C2410724   8.079   0.747   4.050
  215DPPC   C2510725   8.027   0.821   3.926
  215DPPC   C2610726   7.962   0.952   3.971
  215DPPC   C2710727   7.901   1.003   3.840
  215DPPC   C2810728   7.823   0.891   3.770
  215DPPC   C2910729   7.740   0.927   3.647
  215DPPC   C3010730   7.613   0.995   3.696
  215DPPC   C3110731   7.546   0.926   3.815
  215DPPC   C3210732   8.259   0.121   4.841
  215DPPC   O3310733   8.214   0.102   4.707
  215DPPC   C3410734   8.290   0.063   4.600
  215DPPC   O3510735   8.388  -0.005   4.631
  215DPPC   C3610736   8.227   0.080   4.462
  215DPPC   C3710737   8.149  -0.043   4.415
  215DPPC   C3810738   8.079   0.004   4.287
  215DPPC   C3910739   7.975  -0.103   4.253
  215DPPC   C4010740   7.881  -0.067   4.138
  215DPPC   C4110741   7.803  -0.191   4.095
  215DPPC   C4210742   7.701  -0.153   3.987
  215DPPC   C4310743   7.775  -0.110   3.860
  215DPPC   C4410744   7.675  -0.103   3.744
  215DPPC   C4510745   7.568   0.006   3.750
  215DPPC   C4610746   7.470   0.000   3.632
  215DPPC   C4710747   7.397  -0.134   3.626
  215DPPC   C4810748   7.333  -0.137   3.487
  215DPPC   C4910749   7.270  -0.273   3.453
  215DPPC   C5010750   7.287  -0.305   3.304
  216DPPC    C110751   4.427   0.257   5.092
  216DPPC    C210752   4.492   0.452   4.950
  216DPPC    C310753   4.332   0.479   5.117
  216DPPC    N410754   4.452   0.401   5.082
  216DPPC    C510755   4.550   0.438   5.186
  216DPPC    C610756   4.611   0.578   5.194
  216DPPC    O710757   4.531   0.679   5.256
  216DPPC    P810758   4.615   0.815   5.239
  216DPPC    O910759   4.760   0.785   5.255
  216DPPC   O1010760   4.530   0.883   5.339
  216DPPC   O1110761   4.569   0.854   5.090
  216DPPC   C1210762   4.431   0.892   5.083
  216DPPC   C1310763   4.380   0.931   4.944
  216DPPC   O1410764   4.319   0.815   4.886
  216DPPC   C1510765   4.186   0.786   4.893
  216DPPC   O1610766   4.131   0.821   4.997
  216DPPC   C1710767   4.163   0.651   4.824
  216DPPC   C1810768   4.236   0.629   4.691
  216DPPC   C1910769   4.218   0.491   4.628
  216DPPC   C2010770   4.255   0.490   4.480
  216DPPC   C2110771   4.224   0.361   4.403
  216DPPC   C2210772   4.283   0.350   4.263
  216DPPC   C2310773   4.435   0.348   4.243
  216DPPC   C2410774   4.484   0.357   4.098
  216DPPC   C2510775   4.531   0.216   4.062
  216DPPC   C2610776   4.652   0.221   3.968
  216DPPC   C2710777   4.718   0.093   3.917
  216DPPC   C2810778   4.831   0.124   3.819
  216DPPC   C2910779   4.897  -0.003   3.763
  216DPPC   C3010780   4.810  -0.077   3.662
  216DPPC   C3110781   4.756   0.009   3.547
  216DPPC   C3210782   4.485   1.004   4.861
  216DPPC   O3310783   4.503   1.145   4.879
  216DPPC   C3410784   4.604   1.197   4.804
  216DPPC   O3510785   4.694   1.126   4.760
  216DPPC   C3610786   4.583   1.341   4.756
  216DPPC   C3710787   4.492   1.355   4.634
  216DPPC   C3810788   4.427   1.494   4.644
  216DPPC   C3910789   4.308   1.511   4.550
  216DPPC   C4010790   4.216   1.398   4.596
  216DPPC   C4110791   4.114   1.355   4.490
  216DPPC   C4210792   4.003   1.460   4.478
  216DPPC   C4310793   3.897   1.406   4.381
  216DPPC   C4410794   3.945   1.380   4.238
  216DPPC   C4510795   3.832   1.418   4.142
  216DPPC   C4610796   3.856   1.375   3.997
  216DPPC   C4710797   3.757   1.435   3.897
  216DPPC   C4810798   3.774   1.352   3.769
  216DPPC   C4910799   3.686   1.404   3.655
  216DPPC   C5010800   3.695   1.314   3.531
  217DPPC    C110801   5.499   6.888   5.475
  217DPPC    C210802   5.518   7.057   5.317
  217DPPC    C310803   5.380   6.875   5.272
  217DPPC    N410804   5.420   6.967   5.380
  217DPPC    C510805   5.298   7.020   5.444
  217DPPC    C610806   5.310   7.161   5.502
  217DPPC    O710807   5.188   7.235   5.496
  217DPPC    P810808   5.204   7.373   5.577
  217DPPC    O910809   5.326   7.387   5.659
  217DPPC   O1010810   5.083   7.443   5.626
  217DPPC   O1110811   5.254   7.451   5.445
  217DPPC   C1210812   5.149   7.469   5.350
  217DPPC   C1310813   5.189   7.527   5.214
  217DPPC   O1410814   5.096   7.622   5.159
  217DPPC   C1510815   5.124   7.707   5.057
  217DPPC   O1610816   5.238   7.747   5.035
  217DPPC   C1710817   5.004   7.766   4.981
  217DPPC   C1810818   5.037   7.787   4.833
  217DPPC   C1910819   5.084   7.930   4.804
  217DPPC   C2010820   5.070   7.967   4.657
  217DPPC   C2110821   5.139   7.874   4.557
  217DPPC   C2210822   5.121   7.920   4.412
  217DPPC   C2310823   5.198   7.821   4.324
  217DPPC   C2410824   5.176   7.871   4.181
  217DPPC   C2510825   5.026   7.856   4.154
  217DPPC   C2610826   5.010   7.880   4.003
  217DPPC   C2710827   4.866   7.904   3.959
  217DPPC   C2810828   4.861   7.990   3.833
  217DPPC   C2910829   4.916   7.909   3.716
  217DPPC   C3010830   4.941   8.008   3.602
  217DPPC   C3110831   5.014   7.934   3.489
  217DPPC   C3210832   5.232   7.409   5.126
  217DPPC   O3310833   5.122   7.317   5.126
  217DPPC   C3410834   5.163   7.197   5.075
  217DPPC   O3510835   5.278   7.168   5.044
  217DPPC   C3610836   5.049   7.096   5.065
  217DPPC   C3710837   4.948   7.134   4.957
  217DPPC   C3810838   5.010   7.106   4.819
  217DPPC   C3910839   4.902   7.046   4.729
  217DPPC   C4010840   4.892   7.097   4.585
  217DPPC   C4110841   4.769   7.043   4.511
  217DPPC   C4210842   4.788   7.066   4.361
  217DPPC   C4310843   4.917   7.014   4.297
  217DPPC   C4410844   4.897   7.063   4.153
  217DPPC   C4510845   5.020   7.029   4.068
  217DPPC   C4610846   4.989   7.051   3.920
  217DPPC   C4710847   5.114   7.027   3.835
  217DPPC   C4810848   5.195   7.140   3.901
  217DPPC   C4910849   5.316   7.173   3.813
  217DPPC   C5010850   5.421   7.269   3.868
  218DPPC    C110851   1.997   4.302   5.806
  218DPPC    C210852   2.178   4.413   5.725
  218DPPC    C310853   2.201   4.277   5.923
  218DPPC    N410854   2.142   4.285   5.788
  218DPPC    C510855   2.159   4.172   5.696
  218DPPC    C610856   2.299   4.150   5.638
  218DPPC    O710857   2.309   4.043   5.544
  218DPPC    P810858   2.458   4.033   5.485
  218DPPC    O910859   2.483   3.888   5.469
  218DPPC   O1010860   2.559   4.109   5.562
  218DPPC   O1110861   2.427   4.073   5.332
  218DPPC   C1210862   2.380   3.964   5.252
  218DPPC   C1310863   2.227   3.971   5.242
  218DPPC   O1410864   2.185   3.853   5.173
  218DPPC   C1510865   2.055   3.814   5.183
  218DPPC   O1610866   1.980   3.873   5.261
  218DPPC   C1710867   2.006   3.699   5.094
  218DPPC   C1810868   1.936   3.755   4.971
  218DPPC   C1910869   1.890   3.636   4.886
  218DPPC   C2010870   1.834   3.673   4.748
  218DPPC   C2110871   1.849   3.554   4.652
  218DPPC   C2210872   1.802   3.603   4.515
  218DPPC   C2310873   1.747   3.485   4.434
  218DPPC   C2410874   1.723   3.529   4.289
  218DPPC   C2510875   1.638   3.430   4.210
  218DPPC   C2610876   1.622   3.485   4.068
  218DPPC   C2710877   1.560   3.380   3.976
  218DPPC   C2810878   1.528   3.441   3.840
  218DPPC   C2910879   1.650   3.513   3.782
  218DPPC   C3010880   1.636   3.541   3.632
  218DPPC   C3110881   1.763   3.613   3.586
  218DPPC   C3210882   2.199   4.105   5.173
  218DPPC   O3310883   2.271   4.118   5.050
  218DPPC   C3410884   2.254   4.236   4.984
  218DPPC   O3510885   2.149   4.298   4.987
  218DPPC   C3610886   2.338   4.245   4.856
  218DPPC   C3710887   2.247   4.269   4.736
  218DPPC   C3810888   2.321   4.254   4.603
  218DPPC   C3910889   2.440   4.347   4.575
  218DPPC   C4010890   2.481   4.327   4.429
  218DPPC   C4110891   2.594   4.424   4.394
  218DPPC   C4210892   2.605   4.456   4.245
  218DPPC   C4310893   2.737   4.531   4.224
  218DPPC   C4410894   2.738   4.657   4.312
  218DPPC   C4510895   2.878   4.717   4.294
  218DPPC   C4610896   2.891   4.851   4.368
  218DPPC   C4710897   3.036   4.900   4.365
  218DPPC   C4810898   3.092   4.905   4.222
  218DPPC   C4910899   3.242   4.936   4.229
  218DPPC   C5010900   3.306   4.921   4.090
  219DPPC    C110901   8.930   6.814   5.026
  219DPPC    C210902   9.108   6.920   4.940
  219DPPC    C310903   9.140   6.809   5.145
  219DPPC    N410904   9.075   6.797   5.014
  219DPPC    C510905   9.119   6.698   4.914
  219DPPC    C610906   9.047   6.572   4.864
  219DPPC    O710907   9.134   6.494   4.781
  219DPPC    P810908   9.036   6.374   4.740
  219DPPC    O910909   8.924   6.443   4.672
  219DPPC   O1010910   9.005   6.291   4.859
  219DPPC   O1110911   9.121   6.272   4.649
  219DPPC   C1210912   9.129   6.344   4.526
  219DPPC   C1310913   9.215   6.286   4.413
  219DPPC   O1410914   9.203   6.359   4.290
  219DPPC   C1510915   9.296   6.347   4.191
  219DPPC   O1610916   9.397   6.282   4.218
  219DPPC   C1710917   9.287   6.432   4.064
  219DPPC   C1810918   9.357   6.374   3.941
  219DPPC   C1910919   9.379   6.483   3.837
  219DPPC   C2010920   9.502   6.458   3.749
  219DPPC   C2110921   9.483   6.325   3.676
  219DPPC   C2210922   9.626   6.270   3.673
  219DPPC   C2310923   9.629   6.124   3.629
  219DPPC   C2410924   9.775   6.092   3.600
  219DPPC   C2510925   9.770   5.951   3.540
  219DPPC   C2610926   9.680   5.864   3.627
  219DPPC   C2710927   9.619   5.746   3.550
  219DPPC   C2810928   9.538   5.807   3.436
  219DPPC   C2910929   9.418   5.890   3.481
  219DPPC   C3010930   9.400   5.998   3.374
  219DPPC   C3110931   9.266   6.070   3.398
  219DPPC   C3210932   9.185   6.137   4.395
  219DPPC   O3310933   9.051   6.092   4.378
  219DPPC   C3410934   9.040   5.957   4.378
  219DPPC   O3510935   9.127   5.895   4.441
  219DPPC   C3610936   8.918   5.890   4.316
  219DPPC   C3710937   8.893   5.758   4.390
  219DPPC   C3810938   8.756   5.708   4.344
  219DPPC   C3910939   8.755   5.668   4.197
  219DPPC   C4010940   8.624   5.610   4.143
  219DPPC   C4110941   8.623   5.589   3.992
  219DPPC   C4210942   8.489   5.523   3.957
  219DPPC   C4310943   8.482   5.486   3.809
  219DPPC   C4410944   8.512   5.609   3.723
  219DPPC   C4510945   8.529   5.573   3.576
  219DPPC   C4610946   8.395   5.521   3.524
  219DPPC   C4710947   8.398   5.541   3.372
  219DPPC   C4810948   8.265   5.527   3.298
  219DPPC   C4910949   8.290   5.494   3.151
  219DPPC   C5010950   8.152   5.480   3.085
  220DPPC    C110951   4.559   6.735   5.261
  220DPPC    C210952   4.400   6.572   5.272
  220DPPC    C310953   4.412   6.716   5.088
  220DPPC    N410954   4.494   6.633   5.178
  220DPPC    C510955   4.573   6.532   5.105
  220DPPC    C610956   4.684   6.465   5.186
  220DPPC    O710957   4.633   6.373   5.282
  220DPPC    P810958   4.727   6.250   5.327
  220DPPC    O910959   4.654   6.200   5.446
  220DPPC   O1010960   4.864   6.305   5.319
  220DPPC   O1110961   4.678   6.163   5.201
  220DPPC   C1210962   4.785   6.125   5.113
  220DPPC   C1310963   4.746   6.087   4.970
  220DPPC   O1410964   4.863   6.061   4.890
  220DPPC   C1510965   4.902   5.930   4.891
  220DPPC   O1610966   4.854   5.849   4.969
  220DPPC   C1710967   5.029   5.908   4.808
  220DPPC   C1810968   5.014   5.914   4.656
  220DPPC   C1910969   5.140   5.904   4.570
  220DPPC   C2010970   5.210   5.769   4.584
  220DPPC   C2110971   5.321   5.729   4.487
  220DPPC   C2210972   5.265   5.690   4.350
  220DPPC   C2310973   5.387   5.672   4.260
  220DPPC   C2410974   5.497   5.577   4.306
  220DPPC   C2510975   5.597   5.538   4.197
  220DPPC   C2610976   5.549   5.428   4.103
  220DPPC   C2710977   5.661   5.388   4.007
  220DPPC   C2810978   5.600   5.295   3.902
  220DPPC   C2910979   5.708   5.253   3.802
  220DPPC   C3010980   5.671   5.298   3.661
  220DPPC   C3110981   5.799   5.304   3.577
  220DPPC   C3210982   4.669   6.206   4.914
  220DPPC   O3310983   4.616   6.202   4.781
  220DPPC   C3410984   4.551   6.313   4.737
  220DPPC   O3510985   4.548   6.419   4.798
  220DPPC   C3610986   4.478   6.290   4.604
  220DPPC   C3710987   4.584   6.308   4.495
  220DPPC   C3810988   4.639   6.170   4.459
  220DPPC   C3910989   4.739   6.189   4.345
  220DPPC   C4010990   4.706   6.124   4.210
  220DPPC   C4110991   4.565   6.159   4.162
  220DPPC   C4210992   4.538   6.068   4.042
  220DPPC   C4310993   4.648   6.079   3.936
  220DPPC   C4410994   4.615   5.993   3.813
  220DPPC   C4510995   4.742   5.972   3.731
  220DPPC   C4610996   4.814   6.104   3.704
  220DPPC   C4710997   4.736   6.201   3.615
  220DPPC   C4810998   4.816   6.330   3.598
  220DPPC   C4910999   4.749   6.428   3.502
  220DPPC   C5011000   4.832   6.556   3.517
  221DPPC    C111001   0.382   6.243   4.533
  221DPPC    C211002   0.331   6.049   4.414
  221DPPC    C311003   0.464   6.209   4.303
  221DPPC    N411004   0.437   6.149   4.435
  221DPPC    C511005   0.558   6.086   4.489
  221DPPC    C611006   0.683   6.164   4.531
  221DPPC    O711007   0.779   6.110   4.622
  221DPPC    P811008   0.888   6.226   4.647
  221DPPC    O911009   0.973   6.184   4.760
  221DPPC   O1011010   0.815   6.355   4.646
  221DPPC   O1111011   0.960   6.211   4.504
  221DPPC   C1211012   1.080   6.136   4.515
  221DPPC   C1311013   1.150   6.103   4.383
  221DPPC   O1411014   1.246   6.188   4.319
  221DPPC   C1511015   1.371   6.207   4.370
  221DPPC   O1611016   1.412   6.129   4.455
  221DPPC   C1711017   1.454   6.295   4.277
  221DPPC   C1811018   1.399   6.438   4.267
  221DPPC   C1911019   1.295   6.463   4.158
  221DPPC   C2011020   1.349   6.427   4.019
  221DPPC   C2111021   1.243   6.426   3.909
  221DPPC   C2211022   1.314   6.373   3.785
  221DPPC   C2311023   1.222   6.376   3.663
  221DPPC   C2411024   1.297   6.310   3.546
  221DPPC   C2511025   1.210   6.323   3.420
  221DPPC   C2611026   1.079   6.245   3.434
  221DPPC   C2711027   0.989   6.248   3.311
  221DPPC   C2811028   0.925   6.385   3.284
  221DPPC   C2911029   0.887   6.416   3.139
  221DPPC   C3011030   0.988   6.514   3.080
  221DPPC   C3111031   0.991   6.630   3.180
  221DPPC   C3211032   1.034   6.070   4.289
  221DPPC   O3311033   0.996   5.934   4.316
  221DPPC   C3411034   0.877   5.914   4.254
  221DPPC   O3511035   0.800   6.007   4.229
  221DPPC   C3611036   0.826   5.772   4.274
  221DPPC   C3711037   0.799   5.705   4.139
  221DPPC   C3811038   0.726   5.571   4.154
  221DPPC   C3911039   0.730   5.462   4.048
  221DPPC   C4011040   0.658   5.507   3.920
  221DPPC   C4111041   0.709   5.407   3.816
  221DPPC   C4211042   0.651   5.448   3.681
  221DPPC   C4311043   0.498   5.436   3.674
  221DPPC   C4411044   0.438   5.434   3.533
  221DPPC   C4511045   0.290   5.394   3.531
  221DPPC   C4611046   0.226   5.437   3.398
  221DPPC   C4711047   0.093   5.366   3.374
  221DPPC   C4811048   0.035   5.397   3.235
  221DPPC   C4911049  -0.095   5.319   3.212
  221DPPC   C5011050  -0.073   5.169   3.231
  222DPPC    C111051   5.846   4.117   6.381
  222DPPC    C211052   5.664   3.986   6.390
  222DPPC    C311053   5.705   4.105   6.183
  222DPPC    N411054   5.767   4.029   6.294
  222DPPC    C511055   5.871   3.941   6.241
  222DPPC    C611056   5.852   3.793   6.206
  222DPPC    O711057   5.735   3.768   6.128
  222DPPC    P811058   5.708   3.609   6.136
  222DPPC    O911059   5.561   3.603   6.153
  222DPPC   O1011060   5.799   3.538   6.228
  222DPPC   O1111061   5.765   3.577   5.989
  222DPPC   C1211062   5.673   3.626   5.891
  222DPPC   C1311063   5.711   3.623   5.743
  222DPPC   O1411064   5.596   3.638   5.657
  222DPPC   C1511065   5.560   3.753   5.593
  222DPPC   O1611066   5.624   3.854   5.621
  222DPPC   C1711067   5.485   3.724   5.463
  222DPPC   C1811068   5.503   3.815   5.341
  222DPPC   C1911069   5.639   3.825   5.272
  222DPPC   C2011070   5.624   3.931   5.164
  222DPPC   C2111071   5.513   3.898   5.064
  222DPPC   C2211072   5.551   3.966   4.932
  222DPPC   C2311073   5.441   3.965   4.826
  222DPPC   C2411074   5.483   4.058   4.712
  222DPPC   C2511075   5.373   4.073   4.608
  222DPPC   C2611076   5.303   4.209   4.611
  222DPPC   C2711077   5.230   4.230   4.478
  222DPPC   C2811078   5.158   4.365   4.481
  222DPPC   C2911079   5.084   4.369   4.615
  222DPPC   C3011080   5.011   4.498   4.651
  222DPPC   C3111081   5.013   4.497   4.804
  222DPPC   C3211082   5.792   3.494   5.725
  222DPPC   O3311083   5.887   3.498   5.618
  222DPPC   C3411084   5.929   3.382   5.562
  222DPPC   O3511085   5.875   3.273   5.575
  222DPPC   C3611086   6.046   3.398   5.463
  222DPPC   C3711087   5.994   3.396   5.320
  222DPPC   C3811088   5.878   3.485   5.276
  222DPPC   C3911089   5.852   3.459   5.127
  222DPPC   C4011090   5.753   3.553   5.059
  222DPPC   C4111091   5.760   3.534   4.908
  222DPPC   C4211092   5.668   3.630   4.832
  222DPPC   C4311093   5.674   3.607   4.681
  222DPPC   C4411094   5.583   3.716   4.624
  222DPPC   C4511095   5.582   3.707   4.472
  222DPPC   C4611096   5.481   3.794   4.397
  222DPPC   C4711097   5.516   3.798   4.248
  222DPPC   C4811098   5.423   3.888   4.166
  222DPPC   C4911099   5.271   3.871   4.178
  222DPPC   C5011100   5.197   3.933   4.060
  223DPPC    C111101   3.440   7.435   5.866
  223DPPC    C211102   3.522   7.213   5.887
  223DPPC    C311103   3.293   7.252   5.833
  223DPPC    N411104   3.431   7.299   5.811
  223DPPC    C511105   3.492   7.293   5.677
  223DPPC    C611106   3.437   7.385   5.567
  223DPPC    O711107   3.479   7.350   5.435
  223DPPC    P811108   3.396   7.432   5.325
  223DPPC    O911109   3.474   7.554   5.297
  223DPPC   O1011110   3.260   7.430   5.382
  223DPPC   O1111111   3.421   7.312   5.220
  223DPPC   C1211112   3.541   7.338   5.147
  223DPPC   C1311113   3.605   7.219   5.074
  223DPPC   O1411114   3.713   7.271   4.996
  223DPPC   C1511115   3.828   7.198   4.995
  223DPPC   O1611116   3.835   7.095   5.061
  223DPPC   C1711117   3.947   7.248   4.913
  223DPPC   C1811118   3.902   7.308   4.780
  223DPPC   C1911119   3.844   7.201   4.687
  223DPPC   C2011120   3.819   7.253   4.545
  223DPPC   C2111121   3.780   7.156   4.434
  223DPPC   C2211122   3.909   7.107   4.368
  223DPPC   C2311123   3.894   7.020   4.243
  223DPPC   C2411124   3.862   7.115   4.127
  223DPPC   C2511125   3.877   7.048   3.991
  223DPPC   C2611126   4.022   7.031   3.943
  223DPPC   C2711127   4.022   6.974   3.801
  223DPPC   C2811128   3.974   6.828   3.801
  223DPPC   C2911129   4.016   6.757   3.672
  223DPPC   C3011130   3.943   6.623   3.663
  223DPPC   C3111131   3.991   6.553   3.535
  223DPPC   C3211132   3.490   7.149   5.001
  223DPPC   O3311133   3.416   7.215   4.898
  223DPPC   C3411134   3.314   7.146   4.839
  223DPPC   O3511135   3.281   7.040   4.892
  223DPPC   C3611136   3.250   7.201   4.711
  223DPPC   C3711137   3.348   7.206   4.594
  223DPPC   C3811138   3.284   7.237   4.458
  223DPPC   C3911139   3.387   7.267   4.350
  223DPPC   C4011140   3.339   7.296   4.207
  223DPPC   C4111141   3.461   7.327   4.120
  223DPPC   C4211142   3.416   7.391   3.988
  223DPPC   C4311143   3.544   7.409   3.906
  223DPPC   C4411144   3.505   7.446   3.763
  223DPPC   C4511145   3.622   7.472   3.668
  223DPPC   C4611146   3.573   7.489   3.524
  223DPPC   C4711147   3.691   7.530   3.436
  223DPPC   C4811148   3.646   7.544   3.291
  223DPPC   C4911149   3.769   7.517   3.203
  223DPPC   C5011150   3.735   7.542   3.056
  224DPPC    C111151   3.544   3.481   6.052
  224DPPC    C211152   3.327   3.396   5.979
  224DPPC    C311153   3.342   3.609   6.065
  224DPPC    N411154   3.417   3.512   5.984
  224DPPC    C511155   3.437   3.581   5.856
  224DPPC    C611156   3.543   3.528   5.759
  224DPPC    O711157   3.530   3.392   5.719
  224DPPC    P811158   3.671   3.330   5.671
  224DPPC    O911159   3.618   3.192   5.674
  224DPPC   O1011160   3.769   3.386   5.766
  224DPPC   O1111161   3.669   3.397   5.525
  224DPPC   C1211162   3.657   3.290   5.431
  224DPPC   C1311163   3.656   3.330   5.283
  224DPPC   O1411164   3.648   3.220   5.192
  224DPPC   C1511165   3.740   3.120   5.184
  224DPPC   O1611166   3.838   3.122   5.258
  224DPPC   C1711167   3.748   3.047   5.050
  224DPPC   C1811168   3.732   3.146   4.935
  224DPPC   C1911169   3.735   3.069   4.802
  224DPPC   C2011170   3.729   3.163   4.681
  224DPPC   C2111171   3.732   3.109   4.538
  224DPPC   C2211172   3.616   3.016   4.500
  224DPPC   C2311173   3.637   2.970   4.356
  224DPPC   C2411174   3.523   2.886   4.299
  224DPPC   C2511175   3.541   2.871   4.148
  224DPPC   C2611176   3.668   2.792   4.116
  224DPPC   C2711177   3.656   2.712   3.986
  224DPPC   C2811178   3.631   2.796   3.860
  224DPPC   C2911179   3.648   2.718   3.730
  224DPPC   C3011180   3.631   2.806   3.606
  224DPPC   C3111181   3.647   2.727   3.476
  224DPPC   C3211182   3.784   3.413   5.271
  224DPPC   O3311183   3.770   3.514   5.171
  224DPPC   C3411184   3.886   3.578   5.139
  224DPPC   O3511185   3.988   3.570   5.207
  224DPPC   C3611186   3.876   3.667   5.015
  224DPPC   C3711187   3.793   3.613   4.897
  224DPPC   C3811188   3.807   3.713   4.782
  224DPPC   C3911189   3.740   3.661   4.654
  224DPPC   C4011190   3.749   3.760   4.538
  224DPPC   C4111191   3.705   3.693   4.407
  224DPPC   C4211192   3.751   3.759   4.277
  224DPPC   C4311193   3.672   3.699   4.161
  224DPPC   C4411194   3.703   3.780   4.035
  224DPPC   C4511195   3.648   3.704   3.914
  224DPPC   C4611196   3.635   3.800   3.796
  224DPPC   C4711197   3.635   3.721   3.665
  224DPPC   C4811198   3.754   3.626   3.655
  224DPPC   C4911199   3.726   3.548   3.527
  224DPPC   C5011200   3.819   3.430   3.495
  225DPPC    C111201   8.951   3.125   5.300
  225DPPC    C211202   9.139   3.256   5.300
  225DPPC    C311203   9.037   3.189   5.508
  225DPPC    N411204   9.077   3.145   5.374
  225DPPC    C511205   9.161   3.025   5.381
  225DPPC    C611206   9.291   3.029   5.462
  225DPPC    O711207   9.385   3.133   5.433
  225DPPC    P811208   9.511   3.106   5.529
  225DPPC    O911209   9.477   3.003   5.630
  225DPPC   O1011210   9.571   3.239   5.556
  225DPPC   O1111211   9.596   3.029   5.416
  225DPPC   C1211212   9.672   3.119   5.335
  225DPPC   C1311213   9.658   3.097   5.185
  225DPPC   O1411214   9.738   3.196   5.118
  225DPPC   C1511215   9.872   3.187   5.096
  225DPPC   O1611216   9.942   3.154   5.191
  225DPPC   C1711217   9.919   3.293   4.997
  225DPPC   C1811218   9.915   3.228   4.858
  225DPPC   C1911219   9.952   3.330   4.751
  225DPPC   C2011220   9.912   3.274   4.614
  225DPPC   C2111221   9.964   3.358   4.497
  225DPPC   C2211222   9.887   3.314   4.373
  225DPPC   C2311223   9.937   3.376   4.242
  225DPPC   C2411224   9.841   3.341   4.128
  225DPPC   C2511225   9.892   3.390   3.992
  225DPPC   C2611226   9.793   3.370   3.877
  225DPPC   C2711227   9.847   3.426   3.746
  225DPPC   C2811228   9.770   3.364   3.629
  225DPPC   C2911229   9.858   3.375   3.505
  225DPPC   C3011230   9.789   3.316   3.382
  225DPPC   C3111231   9.870   3.347   3.256
  225DPPC   C3211232   9.508   3.099   5.159
  225DPPC   O3311233   9.471   3.000   5.062
  225DPPC   C3411234   9.350   3.013   5.001
  225DPPC   O3511235   9.274   3.102   5.039
  225DPPC   C3611236   9.316   2.896   4.909
  225DPPC   C3711237   9.353   2.942   4.768
  225DPPC   C3811238   9.308   2.817   4.691
  225DPPC   C3911239   9.343   2.831   4.543
  225DPPC   C4011240   9.350   2.695   4.473
  225DPPC   C4111241   9.373   2.708   4.323
  225DPPC   C4211242   9.390   2.570   4.259
  225DPPC   C4311243   9.372   2.595   4.109
  225DPPC   C4411244   9.411   2.470   4.029
  225DPPC   C4511245   9.400   2.490   3.877
  225DPPC   C4611246   9.522   2.573   3.837
  225DPPC   C4711247   9.516   2.606   3.687
  225DPPC   C4811248   9.521   2.481   3.599
  225DPPC   C4911249   9.541   2.506   3.449
  225DPPC   C5011250   9.673   2.583   3.435
  226DPPC    C111251   3.823   7.963   5.562
  226DPPC    C211252   3.794   8.193   5.539
  226DPPC    C311253   4.011   8.119   5.521
  226DPPC    N411254   3.873   8.080   5.489
  226DPPC    C511255   3.839   8.061   5.347
  226DPPC    C611256   3.922   7.966   5.259
  226DPPC    O711257   4.029   8.035   5.194
  226DPPC    P811258   4.118   7.921   5.124
  226DPPC    O911259   4.011   7.866   5.039
  226DPPC   O1011260   4.163   7.852   5.248
  226DPPC   O1111261   4.204   8.048   5.077
  226DPPC   C1211262   4.163   8.114   4.957
  226DPPC   C1311263   4.263   8.128   4.842
  226DPPC   O1411264   4.218   8.202   4.727
  226DPPC   C1511265   4.241   8.336   4.718
  226DPPC   O1611266   4.275   8.397   4.819
  226DPPC   C1711267   4.194   8.402   4.589
  226DPPC   C1811268   4.303   8.471   4.506
  226DPPC   C1911269   4.431   8.389   4.484
  226DPPC   C2011270   4.521   8.431   4.368
  226DPPC   C2111271   4.660   8.367   4.380
  226DPPC   C2211272   4.734   8.383   4.247
  226DPPC   C2311273   4.876   8.329   4.260
  226DPPC   C2411274   4.936   8.318   4.120
  226DPPC   C2511275   5.081   8.271   4.113
  226DPPC   C2611276   5.141   8.272   3.972
  226DPPC   C2711277   5.280   8.210   3.982
  226DPPC   C2811278   5.358   8.235   3.854
  226DPPC   C2911279   5.285   8.168   3.737
  226DPPC   C3011280   5.385   8.146   3.624
  226DPPC   C3111281   5.494   8.049   3.668
  226DPPC   C3211282   4.326   7.992   4.813
  226DPPC   O3311283   4.229   7.888   4.802
  226DPPC   C3411284   4.282   7.763   4.803
  226DPPC   O3511285   4.400   7.738   4.825
  226DPPC   C3611286   4.186   7.646   4.777
  226DPPC   C3711287   4.156   7.620   4.629
  226DPPC   C3811288   4.267   7.554   4.548
  226DPPC   C3911289   4.215   7.428   4.479
  226DPPC   C4011290   4.335   7.385   4.395
  226DPPC   C4111291   4.300   7.294   4.277
  226DPPC   C4211292   4.422   7.274   4.188
  226DPPC   C4311293   4.377   7.207   4.058
  226DPPC   C4411294   4.496   7.201   3.963
  226DPPC   C4511295   4.441   7.164   3.825
  226DPPC   C4611296   4.554   7.100   3.745
  226DPPC   C4711297   4.512   7.053   3.605
  226DPPC   C4811298   4.636   6.996   3.536
  226DPPC   C4911299   4.611   6.957   3.391
  226DPPC   C5011300   4.741   6.925   3.315
  227DPPC    C111301   4.694   4.141   1.521
  227DPPC    C211302   4.750   4.356   1.475
  227DPPC    C311303   4.521   4.304   1.459
  227DPPC    N411304   4.642   4.277   1.537
  227DPPC    C511305   4.624   4.320   1.677
  227DPPC    C611306   4.607   4.470   1.703
  227DPPC    O711307   4.580   4.498   1.840
  227DPPC    P811308   4.639   4.640   1.888
  227DPPC    O911309   4.567   4.682   2.010
  227DPPC   O1011310   4.654   4.725   1.767
  227DPPC   O1111311   4.791   4.602   1.926
  227DPPC   C1211312   4.796   4.592   2.068
  227DPPC   C1311313   4.932   4.535   2.107
  227DPPC   O1411314   4.941   4.460   2.228
  227DPPC   C1511315   4.874   4.342   2.242
  227DPPC   O1611316   4.815   4.298   2.144
  227DPPC   C1711317   4.866   4.278   2.381
  227DPPC   C1811318   4.982   4.184   2.415
  227DPPC   C1911319   4.982   4.161   2.567
  227DPPC   C2011320   5.086   4.065   2.624
  227DPPC   C2111321   5.059   4.039   2.772
  227DPPC   C2211322   5.167   3.960   2.846
  227DPPC   C2311323   5.139   3.912   2.988
  227DPPC   C2411324   5.276   3.919   3.055
  227DPPC   C2511325   5.227   3.866   3.190
  227DPPC   C2611326   5.336   3.846   3.296
  227DPPC   C2711327   5.268   3.825   3.431
  227DPPC   C2811328   5.366   3.814   3.549
  227DPPC   C2911329   5.304   3.766   3.680
  227DPPC   C3011330   5.254   3.623   3.661
  227DPPC   C3111331   5.204   3.583   3.800
  227DPPC   C3211332   5.035   4.646   2.084
  227DPPC   O3311333   5.025   4.741   2.191
  227DPPC   C3411334   5.135   4.820   2.204
  227DPPC   O3511335   5.208   4.838   2.107
  227DPPC   C3611336   5.151   4.914   2.324
  227DPPC   C3711337   5.275   4.873   2.403
  227DPPC   C3811338   5.310   4.961   2.524
  227DPPC   C3911339   5.230   4.932   2.651
  227DPPC   C4011340   5.271   5.024   2.766
  227DPPC   C4111341   5.212   5.001   2.905
  227DPPC   C4211342   5.308   5.062   3.007
  227DPPC   C4311343   5.232   5.059   3.140
  227DPPC   C4411344   5.300   5.122   3.262
  227DPPC   C4511345   5.236   5.064   3.389
  227DPPC   C4611346   5.334   5.097   3.502
  227DPPC   C4711347   5.298   5.009   3.622
  227DPPC   C4811348   5.404   5.036   3.730
  227DPPC   C4911349   5.357   4.942   3.840
  227DPPC   C5011350   5.440   4.953   3.968
  228DPPC    C111351   5.525   2.760   2.049
  228DPPC    C211352   5.687   2.683   1.879
  228DPPC    C311353   5.491   2.577   1.895
  228DPPC    N411354   5.547   2.712   1.912
  228DPPC    C511355   5.470   2.787   1.812
  228DPPC    C611356   5.475   2.940   1.813
  228DPPC    O711357   5.599   2.984   1.758
  228DPPC    P811358   5.587   3.140   1.722
  228DPPC    O911359   5.451   3.161   1.669
  228DPPC   O1011360   5.706   3.174   1.640
  228DPPC   O1111361   5.588   3.213   1.865
  228DPPC   C1211362   5.713   3.183   1.927
  228DPPC   C1311363   5.719   3.201   2.079
  228DPPC   O1411364   5.648   3.100   2.151
  228DPPC   C1511365   5.666   3.106   2.286
  228DPPC   O1611366   5.764   3.153   2.343
  228DPPC   C1711367   5.572   3.010   2.360
  228DPPC   C1811368   5.521   3.084   2.484
  228DPPC   C1911369   5.440   2.987   2.569
  228DPPC   C2011370   5.388   3.072   2.684
  228DPPC   C2111371   5.301   2.992   2.782
  228DPPC   C2211372   5.257   3.101   2.880
  228DPPC   C2311373   5.194   3.044   3.008
  228DPPC   C2411374   5.061   2.979   2.968
  228DPPC   C2511375   4.968   2.960   3.088
  228DPPC   C2611376   4.854   2.861   3.061
  228DPPC   C2711377   4.817   2.780   3.186
  228DPPC   C2811378   4.935   2.696   3.235
  228DPPC   C2911379   4.883   2.629   3.362
  228DPPC   C3011380   4.993   2.531   3.405
  228DPPC   C3111381   4.944   2.427   3.506
  228DPPC   C3211382   5.678   3.344   2.114
  228DPPC   O3311383   5.783   3.441   2.116
  228DPPC   C3411384   5.742   3.568   2.143
  228DPPC   O3511385   5.629   3.602   2.107
  228DPPC   C3611386   5.859   3.654   2.190
  228DPPC   C3711387   5.837   3.746   2.310
  228DPPC   C3811388   5.860   3.675   2.444
  228DPPC   C3911389   5.854   3.788   2.547
  228DPPC   C4011390   5.852   3.728   2.687
  228DPPC   C4111391   5.847   3.845   2.785
  228DPPC   C4211392   5.844   3.765   2.916
  228DPPC   C4311393   5.825   3.863   3.032
  228DPPC   C4411394   5.805   3.781   3.159
  228DPPC   C4511395   5.756   3.881   3.265
  228DPPC   C4611396   5.790   3.843   3.409
  228DPPC   C4711397   5.925   3.906   3.442
  228DPPC   C4811398   6.046   3.834   3.381
  228DPPC   C4911399   6.166   3.915   3.431
  228DPPC   C5011400   6.295   3.867   3.365
  229DPPC    C111401   3.275   3.956   2.115
  229DPPC    C211402   3.507   3.997   2.104
  229DPPC    C311403   3.414   3.872   2.293
  229DPPC    N411404   3.406   3.900   2.148
  229DPPC    C511405   3.432   3.773   2.079
  229DPPC    C611406   3.331   3.660   2.103
  229DPPC    O711407   3.388   3.533   2.068
  229DPPC    P811408   3.301   3.402   2.101
  229DPPC    O911409   3.387   3.304   2.030
  229DPPC   O1011410   3.162   3.433   2.060
  229DPPC   O1111411   3.333   3.412   2.259
  229DPPC   C1211412   3.355   3.282   2.314
  229DPPC   C1311413   3.384   3.278   2.464
  229DPPC   O1411414   3.266   3.251   2.541
  229DPPC   C1511415   3.236   3.121   2.570
  229DPPC   O1611416   3.294   3.030   2.511
  229DPPC   C1711417   3.122   3.090   2.667
  229DPPC   C1811418   3.174   2.990   2.771
  229DPPC   C1911419   3.075   2.966   2.885
  229DPPC   C2011420   3.131   2.868   2.988
  229DPPC   C2111421   3.071   2.891   3.127
  229DPPC   C2211422   3.025   2.758   3.188
  229DPPC   C2311423   2.956   2.786   3.321
  229DPPC   C2411424   2.880   2.661   3.365
  229DPPC   C2511425   2.845   2.654   3.514
  229DPPC   C2611426   2.761   2.530   3.543
  229DPPC   C2711427   2.766   2.477   3.686
  229DPPC   C2811428   2.745   2.594   3.783
  229DPPC   C2911429   2.749   2.534   3.924
  229DPPC   C3011430   2.801   2.609   4.046
  229DPPC   C3111431   2.805   2.511   4.164
  229DPPC   C3211432   3.453   3.405   2.513
  229DPPC   O3311433   3.575   3.437   2.444
  229DPPC   C3411434   3.630   3.559   2.464
  229DPPC   O3511435   3.571   3.660   2.502
  229DPPC   C3611436   3.771   3.565   2.403
  229DPPC   C3711437   3.889   3.540   2.497
  229DPPC   C3811438   3.866   3.618   2.627
  229DPPC   C3911439   3.994   3.607   2.711
  229DPPC   C4011440   3.984   3.693   2.837
  229DPPC   C4111441   4.109   3.671   2.923
  229DPPC   C4211442   4.073   3.719   3.064
  229DPPC   C4311443   4.188   3.751   3.160
  229DPPC   C4411444   4.125   3.786   3.295
  229DPPC   C4511445   4.233   3.818   3.398
  229DPPC   C4611446   4.180   3.844   3.539
  229DPPC   C4711447   4.128   3.988   3.549
  229DPPC   C4811448   4.089   4.019   3.693
  229DPPC   C4911449   4.073   4.170   3.708
  229DPPC   C5011450   4.025   4.195   3.851
  230DPPC    C111451   5.529   1.120   2.260
  230DPPC    C211452   5.368   1.108   2.445
  230DPPC    C311453   5.350   1.265   2.264
  230DPPC    N411454   5.388   1.128   2.300
  230DPPC    C511455   5.316   1.016   2.238
  230DPPC    C611456   5.339   0.966   2.095
  230DPPC    O711457   5.228   0.911   2.025
  230DPPC    P811458   5.263   0.764   1.971
  230DPPC    O911459   5.391   0.781   1.900
  230DPPC   O1011460   5.150   0.715   1.888
  230DPPC   O1111461   5.278   0.699   2.117
  230DPPC   C1211462   5.148   0.652   2.155
  230DPPC   C1311463   5.111   0.667   2.303
  230DPPC   O1411464   5.070   0.796   2.349
  230DPPC   C1511465   4.945   0.845   2.324
  230DPPC   O1611466   4.871   0.806   2.234
  230DPPC   C1711467   4.890   0.954   2.416
  230DPPC   C1811468   4.875   0.898   2.558
  230DPPC   C1911469   4.833   1.018   2.642
  230DPPC   C2011470   4.833   0.978   2.790
  230DPPC   C2111471   4.797   1.105   2.868
  230DPPC   C2211472   4.647   1.135   2.873
  230DPPC   C2311473   4.638   1.247   2.977
  230DPPC   C2411474   4.739   1.357   2.944
  230DPPC   C2511475   4.718   1.464   3.051
  230DPPC   C2611476   4.765   1.407   3.186
  230DPPC   C2711477   4.747   1.491   3.312
  230DPPC   C2811478   4.780   1.393   3.425
  230DPPC   C2911479   4.914   1.321   3.414
  230DPPC   C3011480   4.929   1.248   3.547
  230DPPC   C3111481   5.048   1.153   3.560
  230DPPC   C3211482   5.232   0.609   2.377
  230DPPC   O3311483   5.237   0.592   2.518
  230DPPC   C3411484   5.283   0.705   2.577
  230DPPC   O3511485   5.334   0.799   2.516
  230DPPC   C3611486   5.270   0.714   2.729
  230DPPC   C3711487   5.278   0.575   2.792
  230DPPC   C3811488   5.301   0.586   2.943
  230DPPC   C3911489   5.274   0.451   3.008
  230DPPC   C4011490   5.294   0.450   3.160
  230DPPC   C4111491   5.258   0.307   3.203
  230DPPC   C4211492   5.111   0.270   3.189
  230DPPC   C4311493   5.040   0.339   3.306
  230DPPC   C4411494   4.889   0.317   3.305
  230DPPC   C4511495   4.811   0.388   3.417
  230DPPC   C4611496   4.659   0.375   3.410
  230DPPC   C4711497   4.592   0.457   3.521
  230DPPC   C4811498   4.600   0.605   3.486
  230DPPC   C4911499   4.461   0.658   3.449
  230DPPC   C5011500   4.354   0.627   3.554
  231DPPC    C111501   1.072   0.230   1.747
  231DPPC    C211502   1.153   0.410   1.649
  231DPPC    C311503   1.322   0.282   1.762
  231DPPC    N411504   1.197   0.274   1.684
  231DPPC    C511505   1.224   0.199   1.561
  231DPPC    C611506   1.306   0.070   1.558
  231DPPC    O711507   1.240  -0.037   1.627
  231DPPC    P811508   1.346  -0.154   1.660
  231DPPC    O911509   1.441  -0.111   1.765
  231DPPC   O1011510   1.368  -0.235   1.538
  231DPPC   O1111511   1.230  -0.234   1.737
  231DPPC   C1211512   1.219  -0.179   1.869
  231DPPC   C1311513   1.083  -0.201   1.935
  231DPPC   O1411514   1.063  -0.131   2.059
  231DPPC   C1511515   0.962  -0.040   2.063
  231DPPC   O1611516   0.887  -0.027   1.966
  231DPPC   C1711517   0.952   0.054   2.184
  231DPPC   C1811518   0.988   0.198   2.148
  231DPPC   C1911519   0.939   0.301   2.251
  231DPPC   C2011520   0.787   0.318   2.249
  231DPPC   C2111521   0.750   0.435   2.340
  231DPPC   C2211522   0.803   0.418   2.482
  231DPPC   C2311523   0.770   0.537   2.571
  231DPPC   C2411524   0.803   0.498   2.715
  231DPPC   C2511525   0.762   0.621   2.796
  231DPPC   C2611526   0.798   0.607   2.944
  231DPPC   C2711527   0.758   0.729   3.028
  231DPPC   C2811528   0.764   0.691   3.176
  231DPPC   C2911529   0.767   0.819   3.261
  231DPPC   C3011530   0.783   0.789   3.410
  231DPPC   C3111531   0.665   0.710   3.466
  231DPPC   C3211532   1.064  -0.353   1.930
  231DPPC   O3311533   1.185  -0.421   1.964
  231DPPC   C3411534   1.169  -0.554   1.989
  231DPPC   O3511535   1.103  -0.621   1.910
  231DPPC   C3611536   1.274  -0.612   2.084
  231DPPC   C3711537   1.203  -0.649   2.214
  231DPPC   C3811538   1.318  -0.718   2.286
  231DPPC   C3911539   1.290  -0.793   2.417
  231DPPC   C4011540   1.423  -0.850   2.467
  231DPPC   C4111541   1.407  -0.931   2.596
  231DPPC   C4211542   1.548  -0.971   2.639
  231DPPC   C4311543   1.618  -0.839   2.673
  231DPPC   C4411544   1.740  -0.849   2.764
  231DPPC   C4511545   1.804  -0.710   2.767
  231DPPC   C4611546   1.946  -0.723   2.711
  231DPPC   C4711547   2.029  -0.595   2.726
  231DPPC   C4811548   2.163  -0.632   2.790
  231DPPC   C4911549   2.283  -0.571   2.718
  231DPPC   C5011550   2.407  -0.647   2.767
  232DPPC    C111551   7.702   6.907   1.228
  232DPPC    C211552   7.806   7.034   1.409
  232DPPC    C311553   7.583   7.068   1.353
  232DPPC    N411554   7.686   6.963   1.363
  232DPPC    C511555   7.654   6.852   1.454
  232DPPC    C611556   7.765   6.751   1.486
  232DPPC    O711557   7.715   6.632   1.548
  232DPPC    P811558   7.787   6.496   1.500
  232DPPC    O911559   7.833   6.510   1.360
  232DPPC   O1011560   7.698   6.386   1.543
  232DPPC   O1111561   7.910   6.498   1.604
  232DPPC   C1211562   7.869   6.458   1.735
  232DPPC   C1311563   7.950   6.524   1.847
  232DPPC   O1411564   7.953   6.447   1.968
  232DPPC   C1511565   8.061   6.366   1.985
  232DPPC   O1611566   8.152   6.370   1.903
  232DPPC   C1711567   8.066   6.285   2.115
  232DPPC   C1811568   8.194   6.309   2.195
  232DPPC   C1911569   8.184   6.220   2.319
  232DPPC   C2011570   8.291   6.245   2.427
  232DPPC   C2111571   8.258   6.156   2.547
  232DPPC   C2211572   8.358   6.160   2.663
  232DPPC   C2311573   8.308   6.080   2.783
  232DPPC   C2411574   8.395   6.115   2.904
  232DPPC   C2511575   8.546   6.112   2.883
  232DPPC   C2611576   8.615   6.143   3.016
  232DPPC   C2711577   8.614   6.018   3.104
  232DPPC   C2811578   8.677   6.045   3.242
  232DPPC   C2911579   8.605   6.159   3.314
  232DPPC   C3011580   8.654   6.179   3.458
  232DPPC   C3111581   8.574   6.290   3.527
  232DPPC   C3211582   7.900   6.669   1.851
  232DPPC   O3311583   7.760   6.686   1.875
  232DPPC   C3411584   7.719   6.815   1.864
  232DPPC   O3511585   7.783   6.895   1.795
  232DPPC   C3611586   7.581   6.843   1.923
  232DPPC   C3711587   7.589   6.938   2.043
  232DPPC   C3811588   7.621   6.853   2.166
  232DPPC   C3911589   7.630   6.956   2.279
  232DPPC   C4011590   7.495   7.026   2.297
  232DPPC   C4111591   7.500   7.122   2.416
  232DPPC   C4211592   7.550   7.041   2.535
  232DPPC   C4311593   7.556   7.122   2.665
  232DPPC   C4411594   7.602   7.041   2.786
  232DPPC   C4511595   7.729   6.960   2.760
  232DPPC   C4611596   7.731   6.840   2.855
  232DPPC   C4711597   7.875   6.789   2.860
  232DPPC   C4811598   7.893   6.664   2.947
  232DPPC   C4911599   7.786   6.565   2.900
  232DPPC   C5011600   7.781   6.448   2.999
  233DPPC    C111601   0.413   5.384   1.194
  233DPPC    C211602   0.585   5.220   1.197
  233DPPC    C311603   0.621   5.437   1.136
  233DPPC    N411604   0.551   5.357   1.238
  233DPPC    C511605   0.586   5.380   1.379
  233DPPC    C611606   0.572   5.524   1.427
  233DPPC    O711607   0.694   5.579   1.478
  233DPPC    P811608   0.667   5.732   1.519
  233DPPC    O911609   0.578   5.777   1.409
  233DPPC   O1011610   0.792   5.805   1.549
  233DPPC   O1111611   0.577   5.709   1.651
  233DPPC   C1211612   0.532   5.826   1.720
  233DPPC   C1311613   0.412   5.909   1.673
  233DPPC   O1411614   0.394   6.029   1.750
  233DPPC   C1511615   0.458   6.143   1.713
  233DPPC   O1611616   0.538   6.135   1.620
  233DPPC   C1711617   0.452   6.261   1.810
  233DPPC   C1811618   0.587   6.301   1.869
  233DPPC   C1911619   0.555   6.406   1.975
  233DPPC   C2011620   0.686   6.458   2.036
  233DPPC   C2111621   0.763   6.349   2.110
  233DPPC   C2211622   0.890   6.400   2.179
  233DPPC   C2311623   0.956   6.279   2.245
  233DPPC   C2411624   1.102   6.309   2.277
  233DPPC   C2511625   1.162   6.199   2.365
  233DPPC   C2611626   1.160   6.066   2.289
  233DPPC   C2711627   1.257   5.965   2.351
  233DPPC   C2811628   1.249   5.978   2.503
  233DPPC   C2911629   1.353   5.885   2.567
  233DPPC   C3011630   1.331   5.879   2.719
  233DPPC   C3111631   1.407   5.763   2.784
  233DPPC   C3211632   0.293   5.815   1.696
  233DPPC   O3311633   0.307   5.737   1.815
  233DPPC   C3411634   0.198   5.660   1.841
  233DPPC   O3511635   0.107   5.658   1.758
  233DPPC   C3611636   0.193   5.584   1.974
  233DPPC   C3711637   0.125   5.665   2.085
  233DPPC   C3811638   0.194   5.798   2.115
  233DPPC   C3911639   0.120   5.886   2.215
  233DPPC   C4011640   0.205   6.008   2.253
  233DPPC   C4111641   0.340   5.962   2.308
  233DPPC   C4211642   0.431   6.080   2.344
  233DPPC   C4311643   0.563   6.023   2.394
  233DPPC   C4411644   0.661   6.117   2.465
  233DPPC   C4511645   0.759   6.040   2.554
  233DPPC   C4611646   0.810   6.129   2.667
  233DPPC   C4711647   0.934   6.067   2.732
  233DPPC   C4811648   0.990   6.156   2.844
  233DPPC   C4911649   1.081   6.073   2.935
  233DPPC   C5011650   0.986   5.963   2.984
  234DPPC    C111651   8.535   1.903   1.066
  234DPPC    C211652   8.464   1.682   1.115
  234DPPC    C311653   8.674   1.709   1.045
  234DPPC    N411654   8.575   1.777   1.130
  234DPPC    C511655   8.624   1.789   1.268
  234DPPC    C611656   8.733   1.882   1.322
  234DPPC    O711657   8.862   1.866   1.262
  234DPPC    P811658   8.958   1.991   1.293
  234DPPC    O911659   8.861   2.099   1.264
  234DPPC   O1011660   9.076   1.961   1.208
  234DPPC   O1111661   8.979   1.942   1.445
  234DPPC   C1211662   8.933   2.040   1.539
  234DPPC   C1311663   8.904   1.966   1.670
  234DPPC   O1411664   8.880   2.058   1.777
  234DPPC   C1511665   8.780   2.020   1.862
  234DPPC   O1611666   8.671   1.983   1.819
  234DPPC   C1711667   8.791   2.078   2.003
  234DPPC   C1811668   8.938   2.095   2.041
  234DPPC   C1911669   8.966   2.107   2.191
  234DPPC   C2011670   8.922   1.984   2.272
  234DPPC   C2111671   8.952   1.998   2.421
  234DPPC   C2211672   8.894   1.873   2.488
  234DPPC   C2311673   8.886   1.906   2.638
  234DPPC   C2411674   8.774   1.828   2.706
  234DPPC   C2511675   8.771   1.862   2.856
  234DPPC   C2611676   8.648   1.808   2.928
  234DPPC   C2711677   8.643   1.833   3.079
  234DPPC   C2811678   8.516   1.776   3.143
  234DPPC   C2911679   8.521   1.773   3.296
  234DPPC   C3011680   8.385   1.723   3.344
  234DPPC   C3111681   8.382   1.724   3.497
  234DPPC   C3211682   9.035   1.894   1.701
  234DPPC   O3311683   9.040   1.790   1.799
  234DPPC   C3411684   8.982   1.667   1.791
  234DPPC   O3511685   8.961   1.625   1.678
  234DPPC   C3611686   8.988   1.575   1.913
  234DPPC   C3711687   8.877   1.635   2.001
  234DPPC   C3811688   8.877   1.555   2.132
  234DPPC   C3911689   8.753   1.594   2.212
  234DPPC   C4011690   8.735   1.531   2.350
  234DPPC   C4111691   8.589   1.563   2.382
  234DPPC   C4211692   8.545   1.503   2.515
  234DPPC   C4311693   8.412   1.560   2.564
  234DPPC   C4411694   8.383   1.488   2.696
  234DPPC   C4511695   8.279   1.576   2.766
  234DPPC   C4611696   8.253   1.508   2.901
  234DPPC   C4711697   8.375   1.472   2.986
  234DPPC   C4811698   8.342   1.408   3.120
  234DPPC   C4911699   8.465   1.368   3.202
  234DPPC   C5011700   8.425   1.271   3.314
  235DPPC    C111701   2.596   4.070   1.953
  235DPPC    C211702   2.410   4.218   1.931
  235DPPC    C311703   2.500   4.168   2.144
  235DPPC    N411704   2.535   4.194   2.004
  235DPPC    C511705   2.629   4.307   2.009
  235DPPC    C611706   2.677   4.357   1.873
  235DPPC    O711707   2.754   4.476   1.886
  235DPPC    P811708   2.796   4.522   1.737
  235DPPC    O911709   2.772   4.411   1.642
  235DPPC   O1011710   2.929   4.585   1.724
  235DPPC   O1111711   2.677   4.628   1.712
  235DPPC   C1211712   2.700   4.729   1.810
  235DPPC   C1311713   2.583   4.821   1.847
  235DPPC   O1411714   2.628   4.935   1.922
  235DPPC   C1511715   2.541   5.038   1.928
  235DPPC   O1611716   2.448   5.046   1.847
  235DPPC   C1711717   2.557   5.136   2.045
  235DPPC   C1811718   2.589   5.051   2.168
  235DPPC   C1911719   2.475   4.968   2.226
  235DPPC   C2011720   2.539   4.910   2.353
  235DPPC   C2111721   2.448   4.818   2.435
  235DPPC   C2211722   2.508   4.816   2.576
  235DPPC   C2311723   2.471   4.941   2.655
  235DPPC   C2411724   2.545   4.933   2.788
  235DPPC   C2511725   2.530   5.072   2.849
  235DPPC   C2611726   2.382   5.112   2.859
  235DPPC   C2711727   2.355   5.251   2.916
  235DPPC   C2811728   2.384   5.237   3.066
  235DPPC   C2911729   2.357   5.359   3.153
  235DPPC   C3011730   2.369   5.316   3.300
  235DPPC   C3111731   2.309   5.413   3.401
  235DPPC   C3211732   2.470   4.730   1.896
  235DPPC   O3311733   2.473   4.652   2.015
  235DPPC   C3411734   2.359   4.588   2.052
  235DPPC   O3511735   2.282   4.563   1.960
  235DPPC   C3611736   2.365   4.522   2.190
  235DPPC   C3711737   2.233   4.452   2.223
  235DPPC   C3811738   2.241   4.370   2.352
  235DPPC   C3911739   2.289   4.441   2.478
  235DPPC   C4011740   2.275   4.356   2.605
  235DPPC   C4111741   2.322   4.420   2.736
  235DPPC   C4211742   2.228   4.526   2.793
  235DPPC   C4311743   2.308   4.588   2.908
  235DPPC   C4411744   2.202   4.674   2.976
  235DPPC   C4511745   2.252   4.730   3.110
  235DPPC   C4611746   2.186   4.861   3.155
  235DPPC   C4711747   2.248   4.915   3.284
  235DPPC   C4811748   2.233   4.811   3.396
  235DPPC   C4911749   2.295   4.872   3.522
  235DPPC   C5011750   2.441   4.911   3.497
  236DPPC    C111751   0.274   1.152   1.173
  236DPPC    C211752   0.141   1.278   1.015
  236DPPC    C311753   0.039   1.112   1.154
  236DPPC    N411754   0.144   1.216   1.149
  236DPPC    C511755   0.118   1.308   1.260
  236DPPC    C611756   0.184   1.446   1.267
  236DPPC    O711757   0.327   1.440   1.278
  236DPPC    P811758   0.393   1.587   1.275
  236DPPC    O911759   0.315   1.662   1.174
  236DPPC   O1011760   0.539   1.563   1.270
  236DPPC   O1111761   0.332   1.636   1.416
  236DPPC   C1211762   0.401   1.577   1.526
  236DPPC   C1311763   0.378   1.662   1.651
  236DPPC   O1411764   0.475   1.645   1.756
  236DPPC   C1511765   0.509   1.746   1.841
  236DPPC   O1611766   0.484   1.861   1.807
  236DPPC   C1711767   0.622   1.726   1.942
  236DPPC   C1811768   0.592   1.820   2.059
  236DPPC   C1911769   0.700   1.800   2.165
  236DPPC   C2011770   0.678   1.897   2.281
  236DPPC   C2111771   0.568   1.842   2.372
  236DPPC   C2211772   0.578   1.896   2.514
  236DPPC   C2311773   0.481   1.816   2.602
  236DPPC   C2411774   0.339   1.815   2.546
  236DPPC   C2511775   0.244   1.788   2.663
  236DPPC   C2611776   0.292   1.653   2.717
  236DPPC   C2711777   0.207   1.608   2.836
  236DPPC   C2811778   0.194   1.706   2.954
  236DPPC   C2911779   0.087   1.650   3.047
  236DPPC   C3011780   0.086   1.726   3.180
  236DPPC   C3111781  -0.036   1.700   3.269
  236DPPC   C3211782   0.233   1.627   1.684
  236DPPC   O3311783   0.220   1.486   1.702
  236DPPC   C3411784   0.093   1.437   1.695
  236DPPC   O3511785   0.002   1.505   1.646
  236DPPC   C3611786   0.064   1.297   1.748
  236DPPC   C3711787   0.055   1.294   1.901
  236DPPC   C3811788  -0.092   1.317   1.939
  236DPPC   C3911789  -0.128   1.267   2.079
  236DPPC   C4011790  -0.271   1.290   2.128
  236DPPC   C4111791  -0.279   1.247   2.274
  236DPPC   C4211792  -0.259   1.096   2.289
  236DPPC   C4311793  -0.264   1.053   2.436
  236DPPC   C4411794  -0.254   0.902   2.454
  236DPPC   C4511795  -0.253   0.886   2.607
  236DPPC   C4611796  -0.220   0.745   2.655
  236DPPC   C4711797  -0.228   0.734   2.808
  236DPPC   C4811798  -0.101   0.795   2.869
  236DPPC   C4911799  -0.112   0.807   3.021
  236DPPC   C5011800   0.012   0.877   3.077
  237DPPC    C111801   7.367   7.752   1.691
  237DPPC    C211802   7.579   7.640   1.716
  237DPPC    C311803   7.424   7.569   1.569
  237DPPC    N411804   7.482   7.694   1.619
  237DPPC    C511805   7.552   7.764   1.510
  237DPPC    C611806   7.594   7.910   1.530
  237DPPC    O711807   7.485   8.003   1.533
  237DPPC    P811808   7.541   8.152   1.560
  237DPPC    O911809   7.444   8.253   1.514
  237DPPC   O1011810   7.684   8.151   1.524
  237DPPC   O1111811   7.521   8.136   1.719
  237DPPC   C1211812   7.386   8.140   1.766
  237DPPC   C1311813   7.381   8.156   1.919
  237DPPC   O1411814   7.381   8.290   1.969
  237DPPC   C1511815   7.270   8.368   1.954
  237DPPC   O1611816   7.170   8.316   1.904
  237DPPC   C1711817   7.281   8.514   1.998
  237DPPC   C1811818   7.373   8.515   2.120
  237DPPC   C1911819   7.382   8.654   2.184
  237DPPC   C2011820   7.446   8.643   2.322
  237DPPC   C2111821   7.339   8.613   2.427
  237DPPC   C2211822   7.405   8.629   2.564
  237DPPC   C2311823   7.309   8.614   2.682
  237DPPC   C2411824   7.371   8.673   2.808
  237DPPC   C2511825   7.387   8.824   2.789
  237DPPC   C2611826   7.483   8.872   2.898
  237DPPC   C2711827   7.474   8.811   3.039
  237DPPC   C2811828   7.580   8.863   3.136
  237DPPC   C2911829   7.725   8.847   3.089
  237DPPC   C3011830   7.813   8.912   3.196
  237DPPC   C3111831   7.783   9.061   3.208
  237DPPC   C3211832   7.476   8.049   1.973
  237DPPC   O3311833   7.402   7.930   1.997
  237DPPC   C3411834   7.481   7.834   2.052
  237DPPC   O3511835   7.599   7.817   2.020
  237DPPC   C3611836   7.420   7.722   2.136
  237DPPC   C3711837   7.417   7.758   2.285
  237DPPC   C3811838   7.385   7.641   2.379
  237DPPC   C3911839   7.366   7.684   2.524
  237DPPC   C4011840   7.317   7.568   2.612
  237DPPC   C4111841   7.255   7.632   2.736
  237DPPC   C4211842   7.196   7.521   2.823
  237DPPC   C4311843   7.296   7.412   2.863
  237DPPC   C4411844   7.406   7.480   2.945
  237DPPC   C4511845   7.506   7.376   2.997
  237DPPC   C4611846   7.599   7.445   3.097
  237DPPC   C4711847   7.718   7.351   3.120
  237DPPC   C4811848   7.678   7.211   3.167
  237DPPC   C4911849   7.806   7.137   3.129
  237DPPC   C5011850   7.918   7.183   3.223
  238DPPC    C111851   3.267   2.093   2.403
  238DPPC    C211852   3.344   2.151   2.187
  238DPPC    C311853   3.112   2.104   2.214
  238DPPC    N411854   3.230   2.163   2.279
  238DPPC    C511855   3.175   2.297   2.301
  238DPPC    C611856   3.251   2.391   2.394
  238DPPC    O711857   3.351   2.467   2.324
  238DPPC    P811858   3.424   2.573   2.421
  238DPPC    O911859   3.349   2.594   2.547
  238DPPC   O1011860   3.490   2.684   2.349
  238DPPC   O1111861   3.540   2.464   2.448
  238DPPC   C1211862   3.535   2.443   2.590
  238DPPC   C1311863   3.585   2.313   2.652
  238DPPC   O1411864   3.536   2.299   2.786
  238DPPC   C1511865   3.524   2.175   2.841
  238DPPC   O1611866   3.521   2.074   2.770
  238DPPC   C1711867   3.489   2.163   2.989
  238DPPC   C1811868   3.609   2.139   3.081
  238DPPC   C1911869   3.586   2.143   3.232
  238DPPC   C2011870   3.529   2.273   3.288
  238DPPC   C2111871   3.507   2.252   3.438
  238DPPC   C2211872   3.449   2.382   3.495
  238DPPC   C2311873   3.456   2.375   3.648
  238DPPC   C2411874   3.596   2.347   3.705
  238DPPC   C2511875   3.580   2.331   3.856
  238DPPC   C2611876   3.526   2.205   3.924
  238DPPC   C2711877   3.556   2.207   4.074
  238DPPC   C2811878   3.461   2.298   4.152
  238DPPC   C2911879   3.485   2.279   4.301
  238DPPC   C3011880   3.444   2.138   4.342
  238DPPC   C3111881   3.450   2.098   4.490
  238DPPC   C3211882   3.737   2.318   2.637
  238DPPC   O3311883   3.803   2.444   2.652
  238DPPC   C3411884   3.937   2.450   2.634
  238DPPC   O3511885   4.000   2.347   2.610
  238DPPC   C3611886   4.004   2.588   2.636
  238DPPC   C3711887   4.077   2.622   2.766
  238DPPC   C3811888   4.164   2.748   2.756
  238DPPC   C3911889   4.249   2.763   2.882
  238DPPC   C4011890   4.156   2.756   3.003
  238DPPC   C4111891   4.223   2.761   3.141
  238DPPC   C4211892   4.119   2.731   3.249
  238DPPC   C4311893   4.163   2.727   3.395
  238DPPC   C4411894   4.060   2.718   3.509
  238DPPC   C4511895   3.982   2.587   3.504
  238DPPC   C4611896   4.045   2.469   3.579
  238DPPC   C4711897   3.956   2.345   3.566
  238DPPC   C4811898   3.985   2.226   3.657
  238DPPC   C4911899   4.093   2.138   3.594
  238DPPC   C5011900   4.038   2.104   3.455
  239DPPC    C111901   3.297   2.653   2.066
  239DPPC    C211902   3.477   2.750   1.934
  239DPPC    C311903   3.311   2.606   1.839
  239DPPC    N411904   3.334   2.713   1.937
  239DPPC    C511905   3.266   2.838   1.901
  239DPPC    C611906   3.114   2.822   1.886
  239DPPC    O711907   3.046   2.916   1.803
  239DPPC    P811908   2.897   2.862   1.775
  239DPPC    O911909   2.928   2.723   1.737
  239DPPC   O1011910   2.846   2.960   1.676
  239DPPC   O1111911   2.848   2.885   1.927
  239DPPC   C1211912   2.726   2.960   1.930
  239DPPC   C1311913   2.613   2.858   1.942
  239DPPC   O1411914   2.478   2.898   1.914
  239DPPC   C1511915   2.374   2.811   1.914
  239DPPC   O1611916   2.379   2.689   1.901
  239DPPC   C1711917   2.236   2.875   1.934
  239DPPC   C1811918   2.182   2.844   2.074
  239DPPC   C1911919   2.058   2.930   2.098
  239DPPC   C2011920   1.991   2.916   2.234
  239DPPC   C2111921   2.083   2.976   2.341
  239DPPC   C2211922   1.998   2.970   2.468
  239DPPC   C2311923   2.060   3.064   2.572
  239DPPC   C2411924   1.987   3.063   2.706
  239DPPC   C2511925   1.860   3.148   2.704
  239DPPC   C2611926   1.795   3.172   2.841
  239DPPC   C2711927   1.892   3.232   2.943
  239DPPC   C2811928   1.809   3.243   3.071
  239DPPC   C2911929   1.886   3.343   3.158
  239DPPC   C3011930   1.795   3.381   3.274
  239DPPC   C3111931   1.693   3.484   3.223
  239DPPC   C3211932   2.642   2.824   2.088
  239DPPC   O3311933   2.611   2.922   2.187
  239DPPC   C3411934   2.605   2.875   2.315
  239DPPC   O3511935   2.621   2.757   2.344
  239DPPC   C3611936   2.564   2.980   2.419
  239DPPC   C3711937   2.551   2.910   2.555
  239DPPC   C3811938   2.453   2.988   2.642
  239DPPC   C3911939   2.452   2.928   2.783
  239DPPC   C4011940   2.376   3.017   2.882
  239DPPC   C4111941   2.432   2.986   3.021
  239DPPC   C4211942   2.350   3.060   3.126
  239DPPC   C4311943   2.389   3.039   3.272
  239DPPC   C4411944   2.296   3.095   3.381
  239DPPC   C4511945   2.327   3.238   3.425
  239DPPC   C4611946   2.208   3.310   3.488
  239DPPC   C4711947   2.221   3.352   3.635
  239DPPC   C4811948   2.087   3.389   3.698
  239DPPC   C4911949   2.114   3.444   3.838
  239DPPC   C5011950   2.159   3.330   3.929
  240DPPC    C111951   1.260   4.726   1.275
  240DPPC    C211952   1.462   4.740   1.161
  240DPPC    C311953   1.244   4.779   1.053
  240DPPC    N411954   1.330   4.802   1.171
  240DPPC    C511955   1.341   4.947   1.193
  240DPPC    C611956   1.401   4.983   1.329
  240DPPC    O711957   1.306   5.023   1.428
  240DPPC    P811958   1.396   5.050   1.559
  240DPPC    O911959   1.305   5.127   1.647
  240DPPC   O1011960   1.517   5.115   1.503
  240DPPC   O1111961   1.410   4.893   1.590
  240DPPC   C1211962   1.301   4.850   1.672
  240DPPC   C1311963   1.261   4.703   1.684
  240DPPC   O1411964   1.140   4.679   1.757
  240DPPC   C1511965   1.027   4.647   1.689
  240DPPC   O1611966   1.041   4.635   1.567
  240DPPC   C1711967   0.893   4.623   1.759
  240DPPC   C1811968   0.836   4.742   1.836
  240DPPC   C1911969   0.691   4.708   1.871
  240DPPC   C2011970   0.652   4.828   1.957
  240DPPC   C2111971   0.580   4.770   2.079
  240DPPC   C2211972   0.540   4.886   2.170
  240DPPC   C2311973   0.678   4.941   2.208
  240DPPC   C2411974   0.657   5.046   2.318
  240DPPC   C2511975   0.801   5.081   2.359
  240DPPC   C2611976   0.885   5.162   2.260
  240DPPC   C2711977   1.020   5.170   2.332
  240DPPC   C2811978   0.986   5.221   2.472
  240DPPC   C2911979   1.110   5.273   2.546
  240DPPC   C3011980   1.078   5.309   2.691
  240DPPC   C3111981   1.166   5.421   2.747
  240DPPC   C3211982   1.389   4.638   1.736
  240DPPC   O3311983   1.431   4.679   1.867
  240DPPC   C3411984   1.512   4.589   1.927
  240DPPC   O3511985   1.562   4.497   1.862
  240DPPC   C3611986   1.541   4.606   2.077
  240DPPC   C3711987   1.441   4.703   2.141
  240DPPC   C3811988   1.469   4.684   2.290
  240DPPC   C3911989   1.499   4.539   2.328
  240DPPC   C4011990   1.507   4.509   2.478
  240DPPC   C4111991   1.377   4.524   2.558
  240DPPC   C4211992   1.411   4.513   2.707
  240DPPC   C4311993   1.291   4.566   2.785
  240DPPC   C4411994   1.307   4.575   2.937
  240DPPC   C4511995   1.201   4.667   2.998
  240DPPC   C4611996   1.233   4.672   3.147
  240DPPC   C4711997   1.361   4.749   3.182
  240DPPC   C4811998   1.376   4.757   3.334
  240DPPC   C4911999   1.486   4.856   3.368
  240DPPC   C5012000   1.483   4.906   3.513
  241DPPC    C112001   3.034   3.248   1.803
  241DPPC    C212002   3.238   3.288   1.709
  241DPPC    C312003   3.041   3.307   1.577
  241DPPC    N412004   3.100   3.339   1.708
  241DPPC    C512005   3.098   3.484   1.728
  241DPPC    C612006   2.957   3.534   1.759
  241DPPC    O712007   2.960   3.677   1.762
  241DPPC    P812008   2.808   3.714   1.801
  241DPPC    O912009   2.723   3.613   1.736
  241DPPC   O1012010   2.774   3.857   1.782
  241DPPC   O1112011   2.812   3.679   1.958
  241DPPC   C1212012   2.893   3.787   2.005
  241DPPC   C1312013   2.891   3.795   2.158
  241DPPC   O1412014   2.972   3.905   2.201
  241DPPC   C1512015   2.912   4.024   2.229
  241DPPC   O1612016   2.837   4.071   2.144
  241DPPC   C1712017   2.984   4.109   2.333
  241DPPC   C1812018   3.073   4.044   2.440
  241DPPC   C1912019   3.130   4.158   2.524
  241DPPC   C2012020   3.248   4.116   2.611
  241DPPC   C2112021   3.210   4.021   2.725
  241DPPC   C2212022   3.331   4.012   2.819
  241DPPC   C2312023   3.357   3.866   2.856
  241DPPC   C2412024   3.476   3.872   2.952
  241DPPC   C2512025   3.521   3.738   3.011
  241DPPC   C2612026   3.641   3.758   3.103
  241DPPC   C2712027   3.688   3.620   3.150
  241DPPC   C2812028   3.700   3.519   3.036
  241DPPC   C2912029   3.757   3.391   3.098
  241DPPC   C3012030   3.781   3.288   2.987
  241DPPC   C3112031   3.654   3.281   2.902
  241DPPC   C3212032   2.953   3.662   2.202
  241DPPC   O3312033   2.950   3.629   2.341
  241DPPC   C3412034   3.053   3.670   2.419
  241DPPC   O3512035   3.165   3.708   2.384
  241DPPC   C3612036   3.021   3.633   2.564
  241DPPC   C3712037   3.131   3.551   2.631
  241DPPC   C3812038   3.093   3.513   2.774
  241DPPC   C3912039   3.195   3.423   2.844
  241DPPC   C4012040   3.140   3.397   2.984
  241DPPC   C4112041   3.231   3.317   3.078
  241DPPC   C4212042   3.157   3.289   3.208
  241DPPC   C4312043   3.247   3.207   3.301
  241DPPC   C4412044   3.202   3.247   3.441
  241DPPC   C4512045   3.188   3.399   3.451
  241DPPC   C4612046   3.091   3.420   3.567
  241DPPC   C4712047   3.051   3.560   3.615
  241DPPC   C4812048   2.926   3.555   3.703
  241DPPC   C4912049   2.889   3.696   3.750
  241DPPC   C5012050   2.761   3.697   3.833
  242DPPC    C112051   5.222   5.196   1.897
  242DPPC    C212052   5.217   5.179   1.667
  242DPPC    C312053   5.043   5.298   1.773
  242DPPC    N412054   5.187   5.273   1.776
  242DPPC    C512055   5.269   5.394   1.771
  242DPPC    C612056   5.241   5.501   1.877
  242DPPC    O712057   5.336   5.608   1.886
  242DPPC    P812058   5.264   5.752   1.886
  242DPPC    O912059   5.132   5.715   1.941
  242DPPC   O1012060   5.276   5.822   1.757
  242DPPC   O1112061   5.368   5.827   1.984
  242DPPC   C1212062   5.433   5.740   2.077
  242DPPC   C1312063   5.528   5.825   2.162
  242DPPC   O1412064   5.618   5.764   2.256
  242DPPC   C1512065   5.725   5.694   2.209
  242DPPC   O1612066   5.760   5.699   2.092
  242DPPC   C1712067   5.799   5.607   2.311
  242DPPC   C1812068   5.730   5.597   2.447
  242DPPC   C1912069   5.813   5.662   2.559
  242DPPC   C2012070   5.753   5.641   2.698
  242DPPC   C2112071   5.864   5.665   2.800
  242DPPC   C2212072   5.809   5.694   2.940
  242DPPC   C2312073   5.905   5.715   3.058
  242DPPC   C2412074   5.991   5.589   3.074
  242DPPC   C2512075   6.051   5.588   3.215
  242DPPC   C2612076   6.144   5.469   3.235
  242DPPC   C2712077   6.067   5.337   3.235
  242DPPC   C2812078   6.161   5.222   3.274
  242DPPC   C2912079   6.085   5.089   3.279
  242DPPC   C3012080   6.182   4.976   3.316
  242DPPC   C3112081   6.102   4.845   3.323
  242DPPC   C3212082   5.426   5.927   2.213
  242DPPC   O3312083   5.320   5.872   2.292
  242DPPC   C3412084   5.227   5.964   2.330
  242DPPC   O3512085   5.254   6.079   2.294
  242DPPC   C3612086   5.123   5.930   2.437
  242DPPC   C3712087   4.992   5.880   2.376
  242DPPC   C3812088   4.893   5.811   2.470
  242DPPC   C3912089   4.950   5.684   2.534
  242DPPC   C4012090   4.831   5.610   2.595
  242DPPC   C4112091   4.888   5.477   2.646
  242DPPC   C4212092   4.771   5.379   2.651
  242DPPC   C4312093   4.825   5.245   2.701
  242DPPC   C4412094   4.722   5.133   2.712
  242DPPC   C4512095   4.599   5.181   2.790
  242DPPC   C4612096   4.528   5.058   2.845
  242DPPC   C4712097   4.467   4.979   2.728
  242DPPC   C4812098   4.411   4.840   2.760
  242DPPC   C4912099   4.320   4.803   2.642
  242DPPC   C5012100   4.209   4.907   2.626
  243DPPC    C112101   8.242   6.219   1.583
  243DPPC    C212102   8.397   6.140   1.755
  243DPPC    C312103   8.172   6.045   1.711
  243DPPC    N412104   8.295   6.103   1.655
  243DPPC    C512105   8.344   5.991   1.573
  243DPPC    C612106   8.457   6.022   1.474
  243DPPC    O712107   8.513   5.907   1.410
  243DPPC    P812108   8.651   5.953   1.342
  243DPPC    O912109   8.658   6.089   1.284
  243DPPC   O1012110   8.700   5.833   1.270
  243DPPC   O1112111   8.735   5.979   1.477
  243DPPC   C1212112   8.795   5.856   1.519
  243DPPC   C1312113   8.800   5.825   1.669
  243DPPC   O1412114   8.701   5.732   1.713
  243DPPC   C1512115   8.711   5.597   1.694
  243DPPC   O1612116   8.779   5.554   1.601
  243DPPC   C1712117   8.599   5.525   1.769
  243DPPC   C1812118   8.648   5.508   1.912
  243DPPC   C1912119   8.545   5.457   2.013
  243DPPC   C2012120   8.426   5.553   2.028
  243DPPC   C2112121   8.357   5.484   2.146
  243DPPC   C2212122   8.451   5.463   2.265
  243DPPC   C2312123   8.432   5.328   2.333
  243DPPC   C2412124   8.505   5.304   2.466
  243DPPC   C2512125   8.498   5.152   2.476
  243DPPC   C2612126   8.576   5.105   2.599
  243DPPC   C2712127   8.510   5.168   2.722
  243DPPC   C2812128   8.577   5.133   2.856
  243DPPC   C2912129   8.521   5.198   2.982
  243DPPC   C3012130   8.607   5.150   3.099
  243DPPC   C3112131   8.562   5.216   3.230
  243DPPC   C3212132   8.795   5.963   1.736
  243DPPC   O3312133   8.787   5.965   1.878
  243DPPC   C3412134   8.749   6.086   1.930
  243DPPC   O3512135   8.721   6.180   1.857
  243DPPC   C3612136   8.718   6.078   2.080
  243DPPC   C3712137   8.804   5.974   2.152
  243DPPC   C3812138   8.762   5.955   2.298
  243DPPC   C3912139   8.789   6.085   2.373
  243DPPC   C4012140   8.769   6.055   2.522
  243DPPC   C4112141   8.804   6.176   2.608
  243DPPC   C4212142   8.723   6.296   2.557
  243DPPC   C4312143   8.746   6.401   2.666
  243DPPC   C4412144   8.894   6.439   2.654
  243DPPC   C4512145   8.929   6.551   2.753
  243DPPC   C4612146   9.078   6.571   2.780
  243DPPC   C4712147   9.117   6.426   2.812
  243DPPC   C4812148   9.242   6.418   2.901
  243DPPC   C4912149   9.311   6.283   2.922
  243DPPC   C5012150   9.245   6.197   3.030
  244DPPC    C112151   6.684   3.066   1.611
  244DPPC    C212152   6.808   2.882   1.527
  244DPPC    C312153   6.861   3.101   1.448
  244DPPC    N412154   6.817   3.023   1.565
  244DPPC    C512155   6.912   3.053   1.673
  244DPPC    C612156   7.051   2.990   1.683
  244DPPC    O712157   7.048   2.867   1.756
  244DPPC    P812158   7.186   2.787   1.739
  244DPPC    O912159   7.290   2.871   1.675
  244DPPC   O1012160   7.134   2.669   1.666
  244DPPC   O1112161   7.209   2.749   1.894
  244DPPC   C1212162   7.111   2.654   1.936
  244DPPC   C1312163   7.122   2.624   2.085
  244DPPC   O1412164   7.064   2.732   2.159
  244DPPC   C1512165   6.945   2.703   2.218
  244DPPC   O1612166   6.873   2.616   2.170
  244DPPC   C1712167   6.886   2.808   2.313
  244DPPC   C1812168   6.860   2.763   2.456
  244DPPC   C1912169   6.994   2.743   2.526
  244DPPC   C2012170   6.979   2.702   2.672
  244DPPC   C2112171   7.112   2.694   2.748
  244DPPC   C2212172   7.084   2.655   2.893
  244DPPC   C2312173   7.216   2.623   2.964
  244DPPC   C2412174   7.203   2.636   3.115
  244DPPC   C2512175   7.130   2.766   3.150
  244DPPC   C2612176   7.109   2.787   3.301
  244DPPC   C2712177   7.239   2.789   3.382
  244DPPC   C2812178   7.215   2.798   3.533
  244DPPC   C2912179   7.344   2.790   3.615
  244DPPC   C3012180   7.316   2.779   3.765
  244DPPC   C3112181   7.240   2.899   3.822
  244DPPC   C3212182   7.269   2.598   2.118
  244DPPC   O3312183   7.305   2.546   2.246
  244DPPC   C3412184   7.354   2.642   2.328
  244DPPC   O3512185   7.363   2.761   2.295
  244DPPC   C3612186   7.397   2.588   2.465
  244DPPC   C3712187   7.542   2.542   2.449
  244DPPC   C3812188   7.596   2.459   2.566
  244DPPC   C3912189   7.607   2.523   2.705
  244DPPC   C4012190   7.714   2.450   2.786
  244DPPC   C4112191   7.760   2.529   2.908
  244DPPC   C4212192   7.710   2.469   3.039
  244DPPC   C4312193   7.774   2.548   3.154
  244DPPC   C4412194   7.712   2.501   3.286
  244DPPC   C4512195   7.560   2.521   3.282
  244DPPC   C4612196   7.479   2.475   3.404
  244DPPC   C4712197   7.509   2.334   3.454
  244DPPC   C4812198   7.443   2.305   3.589
  244DPPC   C4912199   7.509   2.395   3.694
  244DPPC   C5012200   7.419   2.369   3.816
  245DPPC    C112201   5.390   3.608   1.575
  245DPPC    C212202   5.455   3.500   1.775
  245DPPC    C312203   5.594   3.669   1.694
  245DPPC    N412204   5.452   3.630   1.707
  245DPPC    C512205   5.389   3.734   1.790
  245DPPC    C612206   5.341   3.863   1.724
  245DPPC    O712207   5.439   3.966   1.715
  245DPPC    P812208   5.351   4.097   1.678
  245DPPC    O912209   5.269   4.058   1.561
  245DPPC   O1012210   5.431   4.220   1.663
  245DPPC   O1112211   5.258   4.105   1.810
  245DPPC   C1212212   5.330   4.151   1.925
  245DPPC   C1312213   5.239   4.191   2.041
  245DPPC   O1412214   5.302   4.260   2.150
  245DPPC   C1512215   5.312   4.396   2.151
  245DPPC   O1612216   5.301   4.461   2.047
  245DPPC   C1712217   5.387   4.441   2.276
  245DPPC   C1812218   5.296   4.429   2.399
  245DPPC   C1912219   5.360   4.507   2.513
  245DPPC   C2012220   5.282   4.503   2.645
  245DPPC   C2112221   5.346   4.588   2.755
  245DPPC   C2212222   5.242   4.587   2.866
  245DPPC   C2312223   5.314   4.648   2.987
  245DPPC   C2412224   5.212   4.639   3.101
  245DPPC   C2512225   5.275   4.684   3.233
  245DPPC   C2612226   5.193   4.628   3.349
  245DPPC   C2712227   5.278   4.617   3.476
  245DPPC   C2812228   5.198   4.579   3.601
  245DPPC   C2912229   5.279   4.580   3.731
  245DPPC   C3012230   5.203   4.527   3.853
  245DPPC   C3112231   5.301   4.522   3.971
  245DPPC   C3212232   5.158   4.066   2.072
  245DPPC   O3312233   5.244   3.965   2.126
  245DPPC   C3412234   5.181   3.844   2.129
  245DPPC   O3512235   5.068   3.837   2.083
  245DPPC   C3612236   5.270   3.726   2.169
  245DPPC   C3712237   5.264   3.676   2.313
  245DPPC   C3812238   5.384   3.587   2.346
  245DPPC   C3912239   5.392   3.551   2.494
  245DPPC   C4012240   5.513   3.464   2.531
  245DPPC   C4112241   5.501   3.406   2.672
  245DPPC   C4212242   5.638   3.365   2.726
  245DPPC   C4312243   5.618   3.352   2.877
  245DPPC   C4412244   5.573   3.491   2.924
  245DPPC   C4512245   5.581   3.494   3.077
  245DPPC   C4612246   5.505   3.381   3.146
  245DPPC   C4712247   5.513   3.390   3.299
  245DPPC   C4812248   5.428   3.287   3.373
  245DPPC   C4912249   5.447   3.312   3.523
  245DPPC   C5012250   5.594   3.316   3.564
  246DPPC    C112251   9.244   7.972   1.420
  246DPPC    C212252   9.414   8.099   1.507
  246DPPC    C312253   9.245   8.011   1.652
  246DPPC    N412254   9.332   7.981   1.537
  246DPPC    C512255   9.422   7.865   1.534
  246DPPC    C612256   9.495   7.810   1.656
  246DPPC    O712257   9.593   7.909   1.689
  246DPPC    P812258   9.686   7.845   1.803
  246DPPC    O912259   9.803   7.935   1.818
  246DPPC   O1012260   9.695   7.698   1.797
  246DPPC   O1112261   9.573   7.883   1.911
  246DPPC   C1212262   9.583   8.020   1.950
  246DPPC   C1312263   9.452   8.098   1.961
  246DPPC   O1412264   9.482   8.235   1.993
  246DPPC   C1512265   9.526   8.327   1.904
  246DPPC   O1612266   9.513   8.294   1.786
  246DPPC   C1712267   9.602   8.451   1.953
  246DPPC   C1812268   9.550   8.528   2.074
  246DPPC   C1912269   9.636   8.650   2.110
  246DPPC   C2012270   9.785   8.623   2.129
  246DPPC   C2112271   9.840   8.581   2.266
  246DPPC   C2212272   9.993   8.578   2.267
  246DPPC   C2312273  10.054   8.567   2.407
  246DPPC   C2412274   9.985   8.448   2.474
  246DPPC   C2512275   9.994   8.451   2.627
  246DPPC   C2612276   9.908   8.342   2.691
  246DPPC   C2712277   9.927   8.337   2.843
  246DPPC   C2812278  10.062   8.285   2.891
  246DPPC   C2912279  10.069   8.146   2.827
  246DPPC   C3012280  10.191   8.075   2.886
  246DPPC   C3112281  10.191   7.940   2.814
  246DPPC   C3212282   9.342   8.049   2.055
  246DPPC   O3312283   9.264   7.943   2.000
  246DPPC   C3412284   9.180   7.891   2.094
  246DPPC   O3512285   9.196   7.918   2.213
  246DPPC   C3612286   9.097   7.778   2.033
  246DPPC   C3712287   8.949   7.778   2.073
  246DPPC   C3812288   8.928   7.705   2.206
  246DPPC   C3912289   8.783   7.707   2.256
  246DPPC   C4012290   8.772   7.642   2.394
  246DPPC   C4112291   8.822   7.743   2.498
  246DPPC   C4212292   8.790   7.694   2.640
  246DPPC   C4312293   8.874   7.769   2.743
  246DPPC   C4412294   8.832   7.726   2.884
  246DPPC   C4512295   8.953   7.698   2.973
  246DPPC   C4612296   9.027   7.829   3.000
  246DPPC   C4712297   9.145   7.821   3.098
  246DPPC   C4812298   9.225   7.950   3.110
  246DPPC   C4912299   9.275   8.001   2.975
  246DPPC   C5012300   9.369   8.122   2.975
  247DPPC    C112301   7.027   1.286   1.040
  247DPPC    C212302   7.269   1.304   1.057
  247DPPC    C312303   7.154   1.168   1.213
  247DPPC    N412304   7.153   1.216   1.074
  247DPPC    C512305   7.142   1.101   0.983
  247DPPC    C612306   7.258   1.002   0.974
  247DPPC    O712307   7.291   0.937   1.097
  247DPPC    P812308   7.451   0.948   1.107
  247DPPC    O912309   7.469   1.053   1.210
  247DPPC   O1012310   7.518   0.959   0.976
  247DPPC   O1112311   7.477   0.804   1.174
  247DPPC   C1212312   7.466   0.828   1.315
  247DPPC   C1312313   7.474   0.705   1.405
  247DPPC   O1412314   7.437   0.736   1.541
  247DPPC   C1512315   7.306   0.727   1.575
  247DPPC   O1612316   7.209   0.721   1.500
  247DPPC   C1712317   7.284   0.757   1.724
  247DPPC   C1812318   7.366   0.880   1.761
  247DPPC   C1912319   7.351   0.908   1.911
  247DPPC   C2012320   7.436   1.020   1.972
  247DPPC   C2112321   7.389   1.064   2.111
  247DPPC   C2212322   7.384   0.946   2.208
  247DPPC   C2312323   7.304   0.978   2.335
  247DPPC   C2412324   7.362   1.108   2.391
  247DPPC   C2512325   7.362   1.105   2.544
  247DPPC   C2612326   7.429   1.216   2.625
  247DPPC   C2712327   7.422   1.185   2.775
  247DPPC   C2812328   7.503   1.286   2.857
  247DPPC   C2912329   7.468   1.287   3.006
  247DPPC   C3012330   7.537   1.179   3.089
  247DPPC   C3112331   7.512   1.194   3.239
  247DPPC   C3212332   7.621   0.674   1.377
  247DPPC   O3312333   7.711   0.636   1.481
  247DPPC   C3412334   7.684   0.513   1.532
  247DPPC   O3512335   7.626   0.427   1.466
  247DPPC   C3612336   7.746   0.482   1.668
  247DPPC   C3712337   7.706   0.593   1.766
  247DPPC   C3812338   7.805   0.617   1.880
  247DPPC   C3912339   7.748   0.727   1.970
  247DPPC   C4012340   7.824   0.743   2.102
  247DPPC   C4112341   7.778   0.848   2.203
  247DPPC   C4212342   7.859   0.863   2.332
  247DPPC   C4312343   7.823   0.997   2.396
  247DPPC   C4412344   7.885   1.011   2.535
  247DPPC   C4512345   7.869   1.155   2.584
  247DPPC   C4612346   7.923   1.157   2.727
  247DPPC   C4712347   7.903   1.286   2.806
  247DPPC   C4812348   7.935   1.267   2.955
  247DPPC   C4912349   7.889   1.380   3.047
  247DPPC   C5012350   7.929   1.354   3.192
  248DPPC    C112351   6.300   1.288   1.735
  248DPPC    C212352   6.438   1.459   1.846
  248DPPC    C312353   6.211   1.470   1.851
  248DPPC    N412354   6.320   1.371   1.855
  248DPPC    C512355   6.328   1.299   1.983
  248DPPC    C612356   6.222   1.192   2.007
  248DPPC    O712357   6.090   1.236   2.037
  248DPPC    P812358   5.978   1.127   1.997
  248DPPC    O912359   5.998   1.085   1.857
  248DPPC   O1012360   5.851   1.192   2.035
  248DPPC   O1112361   6.012   1.009   2.102
  248DPPC   C1212362   5.988   1.056   2.235
  248DPPC   C1312363   6.039   0.957   2.339
  248DPPC   O1412364   5.961   0.951   2.459
  248DPPC   C1512365   5.836   0.898   2.458
  248DPPC   O1612366   5.782   0.859   2.355
  248DPPC   C1712367   5.767   0.882   2.594
  248DPPC   C1812368   5.688   1.012   2.617
  248DPPC   C1912369   5.606   1.008   2.746
  248DPPC   C2012370   5.689   0.985   2.871
  248DPPC   C2112371   5.616   0.998   3.005
  248DPPC   C2212372   5.705   1.043   3.121
  248DPPC   C2312373   5.649   0.989   3.252
  248DPPC   C2412374   5.732   1.013   3.378
  248DPPC   C2512375   5.654   0.957   3.497
  248DPPC   C2612376   5.740   0.982   3.621
  248DPPC   C2712377   5.655   0.967   3.748
  248DPPC   C2812378   5.540   1.067   3.734
  248DPPC   C2912379   5.451   1.082   3.857
  248DPPC   C3012380   5.393   1.220   3.892
  248DPPC   C3112381   5.304   1.277   3.782
  248DPPC   C3212382   6.190   0.961   2.364
  248DPPC   O3312383   6.230   1.097   2.385
  248DPPC   C3412384   6.357   1.129   2.423
  248DPPC   O3512385   6.460   1.065   2.406
  248DPPC   C3612386   6.354   1.277   2.462
  248DPPC   C3712387   6.475   1.315   2.548
  248DPPC   C3812388   6.487   1.238   2.680
  248DPPC   C3912389   6.524   1.331   2.795
  248DPPC   C4012390   6.523   1.229   2.908
  248DPPC   C4112391   6.586   1.305   3.026
  248DPPC   C4212392   6.553   1.223   3.150
  248DPPC   C4312393   6.613   1.275   3.281
  248DPPC   C4412394   6.656   1.167   3.380
  248DPPC   C4512395   6.759   1.224   3.478
  248DPPC   C4612396   6.801   1.142   3.600
  248DPPC   C4712397   6.922   1.208   3.666
  248DPPC   C4812398   7.005   1.129   3.768
  248DPPC   C4912399   7.083   1.007   3.718
  248DPPC   C5012400   7.146   0.921   3.828
  249DPPC    C112401   1.825   5.613   1.631
  249DPPC    C212402   1.997   5.728   1.508
  249DPPC    C312403   1.987   5.493   1.509
  249DPPC    N412404   1.904   5.614   1.507
  249DPPC    C512405   1.828   5.626   1.381
  249DPPC    C612406   1.769   5.760   1.340
  249DPPC    O712407   1.656   5.807   1.415
  249DPPC    P812408   1.641   5.965   1.386
  249DPPC    O912409   1.500   6.003   1.410
  249DPPC   O1012410   1.738   6.012   1.285
  249DPPC   O1112411   1.713   5.988   1.528
  249DPPC   C1212412   1.630   5.945   1.636
  249DPPC   C1312413   1.705   5.924   1.768
  249DPPC   O1412414   1.616   5.915   1.881
  249DPPC   C1512415   1.551   5.797   1.897
  249DPPC   O1612416   1.572   5.706   1.817
  249DPPC   C1712417   1.463   5.771   2.020
  249DPPC   C1812418   1.542   5.766   2.151
  249DPPC   C1912419   1.614   5.631   2.163
  249DPPC   C2012420   1.696   5.642   2.291
  249DPPC   C2112421   1.599   5.667   2.408
  249DPPC   C2212422   1.663   5.675   2.547
  249DPPC   C2312423   1.725   5.544   2.597
  249DPPC   C2412424   1.796   5.579   2.728
  249DPPC   C2512425   1.891   5.469   2.775
  249DPPC   C2612426   1.933   5.503   2.918
  249DPPC   C2712427   1.959   5.379   3.004
  249DPPC   C2812428   1.966   5.424   3.151
  249DPPC   C2912429   1.954   5.297   3.235
  249DPPC   C3012430   1.817   5.230   3.245
  249DPPC   C3112431   1.820   5.084   3.292
  249DPPC   C3212432   1.800   6.044   1.776
  249DPPC   O3312433   1.901   6.051   1.877
  249DPPC   C3412434   1.993   5.951   1.882
  249DPPC   O3512435   2.004   5.863   1.796
  249DPPC   C3612436   2.096   5.960   1.995
  249DPPC   C3712437   2.057   5.860   2.104
  249DPPC   C3812438   2.162   5.825   2.208
  249DPPC   C3912439   2.106   5.752   2.331
  249DPPC   C4012440   2.211   5.763   2.442
  249DPPC   C4112441   2.149   5.691   2.562
  249DPPC   C4212442   2.256   5.677   2.671
  249DPPC   C4312443   2.308   5.814   2.713
  249DPPC   C4412444   2.213   5.887   2.809
  249DPPC   C4512445   2.250   5.851   2.953
  249DPPC   C4612446   2.393   5.867   3.006
  249DPPC   C4712447   2.396   5.884   3.158
  249DPPC   C4812448   2.542   5.893   3.201
  249DPPC   C4912449   2.569   5.925   3.348
  249DPPC   C5012450   2.470   5.840   3.427
  250DPPC    C112451   8.687   8.137   1.127
  250DPPC    C212452   8.875   8.191   1.258
  250DPPC    C312453   8.917   8.162   1.030
  250DPPC    N412454   8.815   8.210   1.125
  250DPPC    C512455   8.806   8.351   1.085
  250DPPC    C612456   8.791   8.467   1.183
  250DPPC    O712457   8.910   8.488   1.260
  250DPPC    P812458   8.879   8.579   1.389
  250DPPC    O912459   8.815   8.700   1.333
  250DPPC   O1012460   9.016   8.585   1.446
  250DPPC   O1112461   8.777   8.463   1.434
  250DPPC   C1212462   8.713   8.497   1.557
  250DPPC   C1312463   8.654   8.383   1.640
  250DPPC   O1412464   8.568   8.426   1.746
  250DPPC   C1512465   8.438   8.385   1.745
  250DPPC   O1612466   8.392   8.315   1.655
  250DPPC   C1712467   8.346   8.439   1.854
  250DPPC   C1812468   8.342   8.351   1.979
  250DPPC   C1912469   8.291   8.440   2.093
  250DPPC   C2012470   8.281   8.360   2.223
  250DPPC   C2112471   8.169   8.258   2.211
  250DPPC   C2212472   8.142   8.210   2.354
  250DPPC   C2312473   8.035   8.102   2.338
  250DPPC   C2412474   8.011   8.019   2.463
  250DPPC   C2512475   7.884   7.933   2.456
  250DPPC   C2612476   7.849   7.872   2.591
  250DPPC   C2712477   7.714   7.799   2.586
  250DPPC   C2812478   7.711   7.728   2.722
  250DPPC   C2912479   7.749   7.820   2.838
  250DPPC   C3012480   7.762   7.728   2.960
  250DPPC   C3112481   7.803   7.826   3.070
  250DPPC   C3212482   8.771   8.288   1.670
  250DPPC   O3312483   8.873   8.360   1.739
  250DPPC   C3412484   8.978   8.282   1.778
  250DPPC   O3512485   8.983   8.163   1.747
  250DPPC   C3612486   9.087   8.339   1.869
  250DPPC   C3712487   9.029   8.357   2.010
  250DPPC   C3812488   9.121   8.446   2.093
  250DPPC   C3912489   9.061   8.463   2.233
  250DPPC   C4012490   9.164   8.531   2.322
  250DPPC   C4112491   9.120   8.533   2.469
  250DPPC   C4212492   9.223   8.601   2.559
  250DPPC   C4312493   9.353   8.521   2.561
  250DPPC   C4412494   9.351   8.380   2.622
  250DPPC   C4512495   9.494   8.325   2.621
  250DPPC   C4612496   9.517   8.259   2.486
  250DPPC   C4712497   9.656   8.196   2.484
  250DPPC   C4812498   9.687   8.134   2.347
  250DPPC   C4912499   9.833   8.088   2.338
  250DPPC   C5012500   9.870   7.991   2.450
  251DPPC    C112501   6.512   5.708   1.502
  251DPPC    C212502   6.731   5.695   1.415
  251DPPC    C312503   6.578   5.850   1.324
  251DPPC    N412504   6.623   5.789   1.449
  251DPPC    C512505   6.666   5.890   1.547
  251DPPC    C612506   6.582   6.013   1.582
  251DPPC    O712507   6.466   5.986   1.662
  251DPPC    P812508   6.387   6.103   1.740
  251DPPC    O912509   6.282   6.021   1.804
  251DPPC   O1012510   6.351   6.212   1.647
  251DPPC   O1112511   6.491   6.162   1.848
  251DPPC   C1212512   6.538   6.043   1.911
  251DPPC   C1312513   6.630   6.073   2.030
  251DPPC   O1412514   6.690   5.952   2.077
  251DPPC   C1512515   6.825   5.941   2.072
  251DPPC   O1612516   6.894   5.990   1.982
  251DPPC   C1712517   6.880   5.837   2.170
  251DPPC   C1812518   6.926   5.908   2.297
  251DPPC   C1912519   6.981   5.808   2.399
  251DPPC   C2012520   7.103   5.734   2.343
  251DPPC   C2112521   7.216   5.832   2.315
  251DPPC   C2212522   7.336   5.756   2.257
  251DPPC   C2312523   7.467   5.830   2.230
  251DPPC   C2412524   7.568   5.730   2.173
  251DPPC   C2512525   7.705   5.798   2.174
  251DPPC   C2612526   7.784   5.729   2.285
  251DPPC   C2712527   7.910   5.816   2.295
  251DPPC   C2812528   8.000   5.822   2.172
  251DPPC   C2912529   8.130   5.893   2.209
  251DPPC   C3012530   8.230   5.902   2.094
  251DPPC   C3112531   8.367   5.939   2.151
  251DPPC   C3212532   6.552   6.164   2.125
  251DPPC   O3312533   6.638   6.254   2.195
  251DPPC   C3412534   6.564   6.339   2.272
  251DPPC   O3512535   6.442   6.342   2.259
  251DPPC   C3612536   6.629   6.435   2.371
  251DPPC   C3712537   6.533   6.442   2.490
  251DPPC   C3812538   6.607   6.516   2.603
  251DPPC   C3912539   6.553   6.481   2.742
  251DPPC   C4012540   6.594   6.577   2.854
  251DPPC   C4112541   6.555   6.510   2.986
  251DPPC   C4212542   6.597   6.603   3.101
  251DPPC   C4312543   6.583   6.544   3.241
  251DPPC   C4412544   6.444   6.485   3.264
  251DPPC   C4512545   6.423   6.435   3.408
  251DPPC   C4612546   6.440   6.565   3.487
  251DPPC   C4712547   6.442   6.538   3.638
  251DPPC   C4812548   6.303   6.524   3.699
  251DPPC   C4912549   6.230   6.659   3.696
  251DPPC   C5012550   6.086   6.655   3.747
  252DPPC    C112551   4.421   2.611   1.742
  252DPPC    C212552   4.618   2.636   1.889
  252DPPC    C312553   4.426   2.750   1.926
  252DPPC    N412554   4.472   2.619   1.879
  252DPPC    C512555   4.422   2.495   1.941
  252DPPC    C612556   4.276   2.456   1.965
  252DPPC    O712557   4.204   2.557   2.035
  252DPPC    P812558   4.070   2.490   2.095
  252DPPC    O912559   4.112   2.374   2.177
  252DPPC   O1012560   3.980   2.472   1.979
  252DPPC   O1112561   4.032   2.616   2.186
  252DPPC   C1212562   4.132   2.634   2.287
  252DPPC   C1312563   4.193   2.774   2.289
  252DPPC   O1412564   4.303   2.793   2.380
  252DPPC   C1512565   4.414   2.868   2.359
  252DPPC   O1612566   4.432   2.936   2.258
  252DPPC   C1712567   4.505   2.872   2.482
  252DPPC   C1812568   4.594   2.748   2.489
  252DPPC   C1912569   4.649   2.737   2.631
  252DPPC   C2012570   4.755   2.628   2.651
  252DPPC   C2112571   4.778   2.591   2.798
  252DPPC   C2212572   4.820   2.446   2.821
  252DPPC   C2312573   4.820   2.418   2.972
  252DPPC   C2412574   4.865   2.274   2.993
  252DPPC   C2512575   4.912   2.237   3.134
  252DPPC   C2612576   4.966   2.095   3.147
  252DPPC   C2712577   4.851   2.003   3.108
  252DPPC   C2812578   4.896   1.865   3.058
  252DPPC   C2912579   5.011   1.876   2.958
  252DPPC   C3012580   5.099   1.751   2.944
  252DPPC   C3112581   5.229   1.783   2.870
  252DPPC   C3212582   4.079   2.874   2.312
  252DPPC   O3312583   3.997   2.854   2.427
  252DPPC   C3412584   3.889   2.936   2.423
  252DPPC   O3512585   3.866   2.999   2.320
  252DPPC   C3612586   3.805   2.946   2.551
  252DPPC   C3712587   3.692   2.844   2.534
  252DPPC   C3812588   3.591   2.839   2.649
  252DPPC   C3912589   3.670   2.797   2.773
  252DPPC   C4012590   3.585   2.791   2.900
  252DPPC   C4112591   3.662   2.725   3.014
  252DPPC   C4212592   3.709   2.581   2.990
  252DPPC   C4312593   3.793   2.530   3.108
  252DPPC   C4412594   3.843   2.390   3.071
  252DPPC   C4512595   3.988   2.377   3.118
  252DPPC   C4612596   4.053   2.240   3.100
  252DPPC   C4712597   4.058   2.205   2.951
  252DPPC   C4812598   4.140   2.076   2.948
  252DPPC   C4912599   4.064   1.979   3.040
  252DPPC   C5012600   4.116   1.835   3.034
  253DPPC    C112601   3.768   7.549   1.788
  253DPPC    C212602   3.739   7.781   1.736
  253DPPC    C312603   3.561   7.619   1.689
  253DPPC    N412604   3.670   7.658   1.779
  253DPPC    C512605   3.611   7.672   1.913
  253DPPC    C612606   3.691   7.687   2.043
  253DPPC    O712607   3.748   7.813   2.081
  253DPPC    P812608   3.905   7.801   2.114
  253DPPC    O912609   3.976   7.930   2.104
  253DPPC   O1012610   3.957   7.697   2.022
  253DPPC   O1112611   3.898   7.754   2.268
  253DPPC   C1212612   3.824   7.849   2.345
  253DPPC   C1312613   3.747   7.780   2.458
  253DPPC   O1412614   3.651   7.857   2.532
  253DPPC   C1512615   3.520   7.858   2.493
  253DPPC   O1612616   3.484   7.798   2.392
  253DPPC   C1712617   3.422   7.933   2.583
  253DPPC   C1812618   3.278   7.893   2.552
  253DPPC   C1912619   3.191   7.977   2.647
  253DPPC   C2012620   3.047   7.929   2.665
  253DPPC   C2112621   3.004   7.991   2.797
  253DPPC   C2212622   2.865   7.936   2.832
  253DPPC   C2312623   2.816   8.018   2.951
  253DPPC   C2412624   2.665   8.020   2.974
  253DPPC   C2512625   2.622   8.075   3.110
  253DPPC   C2612626   2.477   8.040   3.147
  253DPPC   C2712627   2.380   8.110   3.051
  253DPPC   C2812628   2.327   8.249   3.087
  253DPPC   C2912629   2.256   8.311   2.966
  253DPPC   C3012630   2.211   8.447   3.020
  253DPPC   C3112631   2.130   8.541   2.932
  253DPPC   C3212632   3.854   7.718   2.547
  253DPPC   O3312633   3.957   7.793   2.612
  253DPPC   C3412634   4.056   7.727   2.677
  253DPPC   O3512635   4.052   7.604   2.686
  253DPPC   C3612636   4.176   7.807   2.729
  253DPPC   C3712637   4.165   7.869   2.869
  253DPPC   C3812638   4.294   7.947   2.889
  253DPPC   C3912639   4.306   8.084   2.821
  253DPPC   C4012640   4.434   8.156   2.866
  253DPPC   C4112641   4.560   8.070   2.854
  253DPPC   C4212642   4.667   8.126   2.948
  253DPPC   C4312643   4.770   8.014   2.959
  253DPPC   C4412644   4.883   8.065   3.050
  253DPPC   C4512645   5.010   7.985   3.021
  253DPPC   C4612646   5.124   8.031   3.111
  253DPPC   C4712647   5.243   7.940   3.080
  253DPPC   C4812648   5.352   7.968   3.183
  253DPPC   C4912649   5.469   7.870   3.203
  253DPPC   C5012650   5.558   7.897   3.324
  254DPPC    C112651   3.071   1.469   2.433
  254DPPC    C212652   2.978   1.689   2.414
  254DPPC    C312653   3.093   1.586   2.237
  254DPPC    N412654   2.996   1.561   2.344
  254DPPC    C512655   2.873   1.499   2.292
  254DPPC    C612656   2.796   1.555   2.172
  254DPPC    O712657   2.661   1.589   2.203
  254DPPC    P812658   2.611   1.659   2.067
  254DPPC    O912659   2.668   1.580   1.956
  254DPPC   O1012660   2.637   1.802   2.097
  254DPPC   O1112661   2.463   1.625   2.119
  254DPPC   C1212662   2.418   1.719   2.218
  254DPPC   C1312663   2.272   1.717   2.263
  254DPPC   O1412664   2.228   1.801   2.370
  254DPPC   C1512665   2.248   1.935   2.361
  254DPPC   O1612666   2.297   2.000   2.269
  254DPPC   C1712667   2.188   2.012   2.479
  254DPPC   C1812668   2.294   2.076   2.569
  254DPPC   C1912669   2.230   2.119   2.701
  254DPPC   C2012670   2.345   2.152   2.795
  254DPPC   C2112671   2.290   2.232   2.913
  254DPPC   C2212672   2.369   2.198   3.039
  254DPPC   C2312673   2.378   2.054   3.089
  254DPPC   C2412674   2.268   2.014   3.188
  254DPPC   C2512675   2.293   1.872   3.240
  254DPPC   C2612676   2.185   1.844   3.344
  254DPPC   C2712677   2.192   1.713   3.422
  254DPPC   C2812678   2.329   1.723   3.491
  254DPPC   C2912679   2.362   1.599   3.575
  254DPPC   C3012680   2.248   1.562   3.671
  254DPPC   C3112681   2.304   1.453   3.762
  254DPPC   C3212682   2.256   1.566   2.287
  254DPPC   O3312683   2.326   1.515   2.401
  254DPPC   C3412684   2.352   1.382   2.393
  254DPPC   O3512685   2.314   1.315   2.297
  254DPPC   C3612686   2.437   1.327   2.508
  254DPPC   C3712687   2.356   1.230   2.594
  254DPPC   C3812688   2.450   1.171   2.699
  254DPPC   C3912689   2.383   1.069   2.790
  254DPPC   C4012690   2.486   1.018   2.891
  254DPPC   C4112691   2.433   0.904   2.978
  254DPPC   C4212692   2.558   0.834   3.030
  254DPPC   C4312693   2.642   0.900   3.139
  254DPPC   C4412694   2.745   0.796   3.183
  254DPPC   C4512695   2.819   0.829   3.313
  254DPPC   C4612696   2.732   0.838   3.439
  254DPPC   C4712697   2.825   0.828   3.561
  254DPPC   C4812698   2.754   0.815   3.696
  254DPPC   C4912699   2.856   0.804   3.809
  254DPPC   C5012700   2.808   0.865   3.941
  255DPPC    C112701   1.499   7.703   1.752
  255DPPC    C212702   1.507   7.474   1.677
  255DPPC    C312703   1.343   7.611   1.596
  255DPPC    N412704   1.484   7.613   1.637
  255DPPC    C512705   1.566   7.663   1.526
  255DPPC    C612706   1.718   7.677   1.529
  255DPPC    O712707   1.808   7.566   1.526
  255DPPC    P812708   1.963   7.604   1.506
  255DPPC    O912709   1.967   7.725   1.422
  255DPPC   O1012710   2.032   7.477   1.473
  255DPPC   O1112711   1.972   7.631   1.665
  255DPPC   C1212712   1.956   7.504   1.730
  255DPPC   C1312713   1.975   7.506   1.881
  255DPPC   O1412714   1.983   7.376   1.940
  255DPPC   C1512715   2.108   7.323   1.954
  255DPPC   O1612716   2.208   7.367   1.899
  255DPPC   C1712717   2.117   7.190   2.030
  255DPPC   C1812718   2.002   7.149   2.121
  255DPPC   C1912719   2.042   7.035   2.215
  255DPPC   C2012720   1.919   6.971   2.280
  255DPPC   C2112721   1.848   6.877   2.182
  255DPPC   C2212722   1.719   6.820   2.240
  255DPPC   C2312723   1.740   6.718   2.353
  255DPPC   C2412724   1.610   6.694   2.431
  255DPPC   C2512725   1.641   6.570   2.515
  255DPPC   C2612726   1.532   6.542   2.618
  255DPPC   C2712727   1.541   6.394   2.657
  255DPPC   C2812728   1.423   6.354   2.746
  255DPPC   C2912729   1.429   6.437   2.874
  255DPPC   C3012730   1.354   6.345   2.970
  255DPPC   C3112731   1.419   6.211   3.004
  255DPPC   C3212732   1.869   7.606   1.929
  255DPPC   O3312733   1.877   7.672   2.056
  255DPPC   C3412734   1.755   7.721   2.091
  255DPPC   O3512735   1.660   7.704   2.015
  255DPPC   C3612736   1.722   7.772   2.231
  255DPPC   C3712737   1.794   7.904   2.256
  255DPPC   C3812738   1.750   7.962   2.390
  255DPPC   C3912739   1.820   8.095   2.419
  255DPPC   C4012740   1.784   8.129   2.564
  255DPPC   C4112741   1.841   8.269   2.587
  255DPPC   C4212742   1.818   8.321   2.729
  255DPPC   C4312743   1.909   8.239   2.821
  255DPPC   C4412744   1.834   8.173   2.937
  255DPPC   C4512745   1.943   8.092   3.008
  255DPPC   C4612746   1.893   8.030   3.138
  255DPPC   C4712747   1.994   7.937   3.205
  255DPPC   C4812748   1.960   7.790   3.180
  255DPPC   C4912749   2.069   7.705   3.245
  255DPPC   C5012750   2.064   7.734   3.395
  256DPPC    C112751   2.695   6.745   1.784
  256DPPC    C212752   2.657   6.519   1.834
  256DPPC    C312753   2.546   6.633   1.646
  256DPPC    N412754   2.670   6.614   1.723
  256DPPC    C512755   2.781   6.587   1.631
  256DPPC    C612756   2.822   6.440   1.621
  256DPPC    O712757   2.722   6.368   1.548
  256DPPC    P812758   2.768   6.215   1.533
  256DPPC    O912759   2.915   6.222   1.518
  256DPPC   O1012760   2.670   6.172   1.431
  256DPPC   O1112761   2.715   6.179   1.681
  256DPPC   C1212762   2.575   6.172   1.655
  256DPPC   C1312763   2.497   6.119   1.776
  256DPPC   O1412764   2.451   6.222   1.865
  256DPPC   C1512765   2.326   6.273   1.853
  256DPPC   O1612766   2.259   6.266   1.750
  256DPPC   C1712767   2.293   6.377   1.960
  256DPPC   C1812768   2.218   6.304   2.072
  256DPPC   C1912769   2.172   6.419   2.162
  256DPPC   C2012770   2.088   6.353   2.272
  256DPPC   C2112771   2.065   6.458   2.380
  256DPPC   C2212772   2.183   6.518   2.457
  256DPPC   C2312773   2.132   6.602   2.574
  256DPPC   C2412774   2.093   6.739   2.517
  256DPPC   C2512775   2.047   6.817   2.641
  256DPPC   C2612776   1.939   6.749   2.725
  256DPPC   C2712777   1.909   6.807   2.863
  256DPPC   C2812778   1.781   6.749   2.922
  256DPPC   C2912779   1.808   6.604   2.964
  256DPPC   C3012780   1.709   6.563   3.073
  256DPPC   C3112781   1.764   6.434   3.135
  256DPPC   C3212782   2.581   6.003   1.829
  256DPPC   O3312783   2.524   5.919   1.929
  256DPPC   C3412784   2.598   5.814   1.975
  256DPPC   O3512785   2.717   5.802   1.948
  256DPPC   C3612786   2.509   5.710   2.044
  256DPPC   C3712787   2.580   5.647   2.165
  256DPPC   C3812788   2.486   5.584   2.267
  256DPPC   C3912789   2.439   5.448   2.214
  256DPPC   C4012790   2.332   5.394   2.309
  256DPPC   C4112791   2.400   5.376   2.445
  256DPPC   C4212792   2.286   5.345   2.543
  256DPPC   C4312793   2.217   5.216   2.499
  256DPPC   C4412794   2.113   5.161   2.596
  256DPPC   C4512795   2.063   5.023   2.550
  256DPPC   C4612796   1.949   4.983   2.643
  256DPPC   C4712797   1.997   4.973   2.788
  256DPPC   C4812798   1.875   4.969   2.881
  256DPPC   C4912799   1.864   4.823   2.926
  256DPPC   C5012800   1.740   4.815   3.015
  257SOL     OW12801   0.230   0.628   0.113
  257SOL    HW112802   0.137   0.626   0.150
  257SOL    HW212803   0.231   0.589   0.021
  258SOL     OW12804   0.225   0.275   0.996
  258SOL    HW112805   0.260   0.258   1.088
  258SOL    HW212806   0.137   0.230   0.984
  259SOL     OW12807   0.019   0.368   0.647
  259SOL    HW112808  -0.063   0.411   0.686
  259SOL    HW212809  -0.009   0.295   0.584
  260SOL     OW12810   0.569   1.275   1.165
  260SOL    HW112811   0.476   1.268   1.128
  260SOL    HW212812   0.580   1.364   1.209
  261SOL     OW12813   1.555   1.511   0.703
  261SOL    HW112814   1.498   1.495   0.784
  261SOL    HW212815   1.496   1.521   0.623
  262SOL     OW12816   1.135   0.703   0.717
  262SOL    HW112817   1.192   0.781   0.692
  262SOL    HW212818   1.075   0.729   0.793
  263SOL     OW12819   1.755   0.607   0.231
  263SOL    HW112820   1.743   0.594   0.132
  263SOL    HW212821   1.725   0.526   0.280
  264SOL     OW12822   0.768   1.144   1.023
  264SOL    HW112823   0.690   1.161   1.083
  264SOL    HW212824   0.802   1.231   0.987
  265SOL     OW12825   0.850   0.798   1.823
  265SOL    HW112826   0.846   0.874   1.888
  265SOL    HW212827   0.872   0.834   1.732
  266SOL     OW12828   0.685   1.012   0.665
  266SOL    HW112829   0.754   0.996   0.735
  266SOL    HW212830   0.612   1.069   0.703
  267SOL     OW12831   0.686   1.161   1.803
  267SOL    HW112832   0.746   1.240   1.817
  267SOL    HW212833   0.600   1.192   1.762
  268SOL     OW12834   0.335   1.435   1.061
  268SOL    HW112835   0.257   1.404   1.008
  268SOL    HW212836   0.393   1.493   1.004
  269SOL     OW12837   1.460   1.505   1.339
  269SOL    HW112838   1.484   1.599   1.365
  269SOL    HW212839   1.444   1.451   1.421
  270SOL     OW12840   1.603   0.447   0.737
  270SOL    HW112841   1.529   0.493   0.687
  270SOL    HW212842   1.654   0.515   0.790
  271SOL     OW12843   0.231   1.713   0.483
  271SOL    HW112844   0.265   1.790   0.537
  271SOL    HW212845   0.275   1.713   0.393
  272SOL     OW12846   0.230   1.434   0.538
  272SOL    HW112847   0.204   1.530   0.538
  272SOL    HW212848   0.159   1.380   0.583
  273SOL     OW12849   0.606   0.964   0.123
  273SOL    HW112850   0.613   1.048   0.069
  273SOL    HW212851   0.652   0.977   0.211
  274SOL     OW12852   1.594   0.114   1.480
  274SOL    HW112853   1.576   0.181   1.408
  274SOL    HW212854   1.591   0.160   1.569
  275SOL     OW12855   0.122   0.643   0.563
  275SOL    HW112856   0.077   0.555   0.580
  275SOL    HW212857   0.121   0.697   0.647
  276SOL     OW12858   1.842   1.767   0.359
  276SOL    HW112859   1.896   1.738   0.439
  276SOL    HW212860   1.872   1.857   0.330
  277SOL     OW12861   0.027   1.596   0.117
  277SOL    HW112862   0.008   1.500   0.138
  277SOL    HW212863  -0.006   1.654   0.192
  278SOL     OW12864   1.689   0.922   0.612
  278SOL    HW112865   1.784   0.893   0.620
  278SOL    HW212866   1.681   0.987   0.537
  279SOL     OW12867   1.641   1.108   0.432
  279SOL    HW112868   1.727   1.110   0.380
  279SOL    HW212869   1.655   1.155   0.520
  280SOL     OW12870   0.613   1.365   0.726
  280SOL    HW112871   0.564   1.278   0.735
  280SOL    HW212872   0.590   1.408   0.639
  281SOL     OW12873   0.809   0.004   0.502
  281SOL    HW112874   0.849   0.095   0.493
  281SOL    HW212875   0.709   0.012   0.508
  282SOL     OW12876   0.197   0.976   1.264
  282SOL    HW112877   0.286   0.931   1.250
  282SOL    HW212878   0.124   0.911   1.245
  283SOL     OW12879   1.525   0.999   0.190
  283SOL    HW112880   1.462   0.923   0.203
  283SOL    HW212881   1.573   1.017   0.276
  284SOL     OW12882   1.187   1.792   1.616
  284SOL    HW112883   1.211   1.852   1.540
  284SOL    HW212884   1.194   1.697   1.586
  285SOL     OW12885   1.466   1.417   0.953
  285SOL    HW112886   1.407   1.423   1.033
  285SOL    HW212887   1.451   1.329   0.907
  286SOL     OW12888   1.667   1.714   0.572
  286SOL    HW112889   1.626   1.691   0.484
  286SOL    HW212890   1.649   1.640   0.637
  287SOL     OW12891   0.598   0.729   0.270
  287SOL    HW112892   0.622   0.798   0.202
  287SOL    HW212893   0.520   0.762   0.324
  288SOL     OW12894   1.281   0.345   0.944
  288SOL    HW112895   1.195   0.295   0.931
  288SOL    HW212896   1.343   0.291   1.000
  289SOL     OW12897   1.576   1.662   0.307
  289SOL    HW112898   1.665   1.708   0.310
  289SOL    HW212899   1.555   1.638   0.212
  290SOL     OW12900   1.394   0.469   1.674
  290SOL    HW112901   1.374   0.512   1.762
  290SOL    HW212902   1.472   0.407   1.683
  291SOL     OW12903   0.973   0.890   1.572
  291SOL    HW112904   1.019   0.806   1.543
  291SOL    HW212905   0.917   0.924   1.497
  292SOL     OW12906   0.991   0.410   1.242
  292SOL    HW112907   0.914   0.444   1.296
  292SOL    HW212908   0.957   0.359   1.163
  293SOL     OW12909   1.041   0.701   0.429
  293SOL    HW112910   1.067   0.697   0.525
  293SOL    HW212911   0.956   0.650   0.415
  294SOL     OW12912   0.076   0.811   0.789
  294SOL    HW112913   0.175   0.799   0.798
  294SOL    HW212914   0.052   0.906   0.810
  295SOL     OW12915   0.130   1.821   1.571
  295SOL    HW112916   0.120   1.806   1.670
  295SOL    HW212917   0.044   1.857   1.535
  296SOL     OW12918   0.865   0.348   0.195
  296SOL    HW112919   0.924   0.411   0.146
  296SOL    HW212920   0.884   0.254   0.166
  297SOL     OW12921   1.362   1.144   0.545
  297SOL    HW112922   1.445   1.115   0.497
  297SOL    HW212923   1.313   1.211   0.489
  298SOL     OW12924   0.550   0.196   0.885
  298SOL    HW112925   0.545   0.191   0.985
  298SOL    HW212926   0.552   0.292   0.856
  299SOL     OW12927   1.008   1.456   0.477
  299SOL    HW112928   0.962   1.528   0.425
  299SOL    HW212929   1.004   1.476   0.575
  300SOL     OW12930   0.351   1.801   0.853
  300SOL    HW112931   0.401   1.715   0.859
  300SOL    HW212932   0.416   1.878   0.850
  301SOL     OW12933   1.795   1.066   0.873
  301SOL    HW112934   1.733   1.051   0.797
  301SOL    HW212935   1.743   1.077   0.958
  302SOL     OW12936   0.321   0.943   0.242
  302SOL    HW112937   0.403   0.982   0.200
  302SOL    HW212938   0.294   0.861   0.193
  303SOL     OW12939   1.458   0.735   0.728
  303SOL    HW112940   1.453   0.670   0.803
  303SOL    HW212941   1.538   0.794   0.741
  304SOL     OW12942   0.461   1.266   1.727
  304SOL    HW112943   0.411   1.267   1.641
  304SOL    HW212944   0.398   1.248   1.803
  305SOL     OW12945   1.111   1.776   0.237
  305SOL    HW112946   1.051   1.714   0.287
  305SOL    HW212947   1.142   1.732   0.152
  306SOL     OW12948   1.632   1.377   0.081
  306SOL    HW112949   1.600   1.471   0.071
  306SOL    HW212950   1.556   1.314   0.069
  307SOL     OW12951   0.464   1.743   0.323
  307SOL    HW112952   0.497   1.782   0.409
  307SOL    HW212953   0.540   1.736   0.258
  308SOL     OW12954   1.400   0.107   0.426
  308SOL    HW112955   1.376   0.070   0.336
  308SOL    HW212956   1.499   0.123   0.430
  309SOL     OW12957   0.940   1.698   0.904
  309SOL    HW112958   1.020   1.641   0.925
  309SOL    HW212959   0.891   1.658   0.827
  310SOL     OW12960   0.382   0.700   0.480
  310SOL    HW112961   0.427   0.610   0.477
  310SOL    HW212962   0.288   0.689   0.513
  311SOL     OW12963   1.547   0.222   1.729
  311SOL    HW112964   1.542   0.259   1.821
  311SOL    HW212965   1.475   0.153   1.717
  312SOL     OW12966   0.614   0.122   0.117
  312SOL    HW112967   0.712   0.100   0.124
  312SOL    HW212968   0.583   0.105   0.024
  313SOL     OW12969   0.781   0.264   1.749
  313SOL    HW112970   0.848   0.203   1.792
  313SOL    HW212971   0.708   0.283   1.814
  314SOL     OW12972   0.888   1.514   1.195
  314SOL    HW112973   0.865   1.489   1.101
  314SOL    HW212974   0.949   1.445   1.234
  315SOL     OW12975   1.351   0.590   1.433
  315SOL    HW112976   1.379   0.547   1.518
  315SOL    HW212977   1.376   0.686   1.434
  316SOL     OW12978   0.803   1.402   0.924
  316SOL    HW112979   0.893   1.416   0.882
  316SOL    HW212980   0.732   1.404   0.853
  317SOL     OW12981   0.922   0.503   0.899
  317SOL    HW112982   0.897   0.494   0.803
  317SOL    HW212983   0.970   0.421   0.930
  318SOL     OW12984   0.539   0.064   0.512
  318SOL    HW112985   0.458   0.065   0.570
  318SOL    HW212986   0.542   0.147   0.457
  319SOL     OW12987   1.434   1.188   0.041
  319SOL    HW112988   1.466   1.112   0.098
  319SOL    HW212989   1.342   1.215   0.071
  320SOL     OW12990   0.297   0.035   0.171
  320SOL    HW112991   0.346   0.119   0.150
  320SOL    HW212992   0.359  -0.030   0.216
  321SOL     OW12993   0.935   0.236   0.480
  321SOL    HW112994   0.887   0.277   0.402
  321SOL    HW212995   1.034   0.234   0.461
  322SOL     OW12996   1.076   0.683   1.464
  322SOL    HW112997   0.996   0.622   1.467
  322SOL    HW212998   1.157   0.630   1.440
  323SOL     OW12999   1.227   1.570   0.793
  323SOL    HW113000   1.248   1.644   0.728
  323SOL    HW213001   1.295   1.570   0.866
  324SOL     OW13002   0.459   1.152   0.741
  324SOL    HW113003   0.388   1.125   0.806
  324SOL    HW213004   0.433   1.124   0.648
  325SOL     OW13005   1.271   1.797   0.591
  325SOL    HW113006   1.315   1.861   0.527
  325SOL    HW213007   1.221   1.849   0.661
  326SOL     OW13008   1.032   0.549   0.016
  326SOL    HW113009   0.991   0.631  -0.023
  326SOL    HW213010   1.096   0.575   0.089
  327SOL     OW13011   0.561   0.222   1.147
  327SOL    HW113012   0.599   0.138   1.184
  327SOL    HW213013   0.473   0.241   1.191
  328SOL     OW13014   0.866   0.454   0.642
  328SOL    HW113015   0.834   0.526   0.580
  328SOL    HW213016   0.890   0.373   0.589
  329SOL     OW13017   1.017   0.039   0.753
  329SOL    HW113018   0.945   0.044   0.684
  329SOL    HW213019   0.993  -0.030   0.822
  330SOL     OW13020   1.429   1.173   0.867
  330SOL    HW113021   1.374   1.089   0.860
  330SOL    HW213022   1.455   1.202   0.775
  331SOL     OW13023   1.466   0.590   0.992
  331SOL    HW113024   1.436   0.495   0.999
  331SOL    HW213025   1.539   0.606   1.058
  332SOL     OW13026   1.857   0.833   0.377
  332SOL    HW113027   1.899   0.769   0.441
  332SOL    HW213028   1.819   0.782   0.299
  333SOL     OW13029   0.488   1.385   0.174
  333SOL    HW113030   0.401   1.370   0.221
  333SOL    HW213031   0.471   1.411   0.079
  334SOL     OW13032   1.664   1.280   0.657
  334SOL    HW113033   1.763   1.288   0.671
  334SOL    HW213034   1.619   1.364   0.688
  335SOL     OW13035   1.390   0.575   0.078
  335SOL    HW113036   1.336   0.554   0.159
  335SOL    HW213037   1.481   0.534   0.087
  336SOL     OW13038   0.527   0.256   0.328
  336SOL    HW113039   0.554   0.197   0.253
  336SOL    HW213040   0.527   0.351   0.297
  337SOL     OW13041   1.064   1.347   1.340
  337SOL    HW113042   0.984   1.324   1.395
  337SOL    HW213043   1.147   1.321   1.389
  338SOL     OW13044   1.111   1.195   1.100
  338SOL    HW113045   1.071   1.239   1.181
  338SOL    HW213046   1.070   1.232   1.017
  339SOL     OW13047   1.638   1.099   1.079
  339SOL    HW113048   1.643   1.180   1.138
  339SOL    HW213049   1.552   1.101   1.028
  340SOL     OW13050   0.915   0.089   1.402
  340SOL    HW113051   0.940   0.069   1.307
  340SOL    HW213052   0.987   0.145   1.444
  341SOL     OW13053   0.980   1.116   1.719
  341SOL    HW113054   0.881   1.122   1.729
  341SOL    HW213055   1.003   1.036   1.663
  342SOL     OW13056   0.705   1.050   0.368
  342SOL    HW113057   0.691   1.057   0.467
  342SOL    HW213058   0.789   0.999   0.350
  343SOL     OW13059   0.410   0.813   1.251
  343SOL    HW113060   0.496   0.825   1.301
  343SOL    HW213061   0.368   0.726   1.278
  344SOL     OW13062   1.274   0.386   1.262
  344SOL    HW113063   1.295   0.460   1.326
  344SOL    HW213064   1.185   0.403   1.219
  345SOL     OW13065   0.367   1.100   0.501
  345SOL    HW113066   0.360   1.183   0.445
  345SOL    HW213067   0.371   1.020   0.441
  346SOL     OW13068   0.566   0.537   0.865
  346SOL    HW113069   0.578   0.603   0.791
  346SOL    HW213070   0.612   0.571   0.948
  347SOL     OW13071   1.252   1.348   0.388
  347SOL    HW113072   1.302   1.425   0.428
  347SOL    HW213073   1.157   1.350   0.420
  348SOL     OW13074   1.272   1.445   1.142
  348SOL    HW113075   1.319   1.458   1.229
  348SOL    HW213076   1.206   1.371   1.151
  349SOL     OW13077   1.582   0.639   0.472
  349SOL    HW113078   1.551   0.700   0.545
  349SOL    HW213079   1.632   0.691   0.403
  350SOL     OW13080   0.573   0.870   1.029
  350SOL    HW113081   0.617   0.959   1.020
  350SOL    HW213082   0.510   0.870   1.106
  351SOL     OW13083   1.360   0.862   1.045
  351SOL    HW113084   1.285   0.862   0.979
  351SOL    HW213085   1.397   0.770   1.054
  352SOL     OW13086   1.209   0.525   0.275
  352SOL    HW113087   1.222   0.441   0.329
  352SOL    HW213088   1.180   0.599   0.335
  353SOL     OW13089   0.307   0.213   1.231
  353SOL    HW113090   0.284   0.250   1.321
  353SOL    HW213091   0.277   0.118   1.225
  354SOL     OW13092   0.732   0.634   1.064
  354SOL    HW113093   0.791   0.608   0.988
  354SOL    HW213094   0.704   0.730   1.053
  355SOL     OW13095   1.728   0.935   1.854
  355SOL    HW113096   1.682   0.928   1.765
  355SOL    HW213097   1.666   0.979   1.920
  356SOL     OW13098   0.307   0.063   0.618
  356SOL    HW113099   0.296   0.157   0.651
  356SOL    HW213100   0.302   0.000   0.695
  357SOL     OW13101   1.622   0.367   0.374
  357SOL    HW113102   1.624   0.291   0.438
  357SOL    HW213103   1.574   0.444   0.414
  358SOL     OW13104   1.023   0.766   0.966
  358SOL    HW113105   1.038   0.787   1.062
  358SOL    HW213106   0.993   0.671   0.957
  359SOL     OW13107   1.859   1.518   1.605
  359SOL    HW113108   1.873   1.545   1.510
  359SOL    HW213109   1.942   1.540   1.658
  360SOL     OW13110   1.540   0.274   0.125
  360SOL    HW113111   1.479   0.199   0.148
  360SOL    HW213112   1.562   0.326   0.208
  361SOL     OW13113   1.303   0.838   0.042
  361SOL    HW113114   1.337   0.745   0.057
  361SOL    HW213115   1.321   0.865  -0.053
  362SOL     OW13116   1.068   1.333   0.849
  362SOL    HW113117   1.075   1.249   0.794
  362SOL    HW213118   1.130   1.402   0.813
  363SOL     OW13119   0.319   0.810   0.949
  363SOL    HW113120   0.412   0.846   0.954
  363SOL    HW213121   0.313   0.725   1.001
  364SOL     OW13122   0.339   0.509   1.006
  364SOL    HW113123   0.287   0.426   0.989
  364SOL    HW213124   0.416   0.514   0.942
  365SOL     OW13125   0.008   1.326   0.200
  365SOL    HW113126  -0.085   1.347   0.169
  365SOL    HW213127   0.018   1.227   0.213
  366SOL     OW13128   0.088   1.801   0.927
  366SOL    HW113129   0.046   1.715   0.900
  366SOL    HW213130   0.182   1.804   0.893
  367SOL     OW13131   0.504   1.568   0.910
  367SOL    HW113132   0.570   1.642   0.919
  367SOL    HW213133   0.548   1.489   0.868
  368SOL     OW13134   1.002   0.796   1.238
  368SOL    HW113135   1.043   0.764   1.324
  368SOL    HW213136   0.906   0.769   1.235
  369SOL     OW13137   0.815   0.572   0.325
  369SOL    HW113138   0.822   0.483   0.279
  369SOL    HW213139   0.721   0.606   0.317
  370SOL     OW13140   1.657   0.604   1.206
  370SOL    HW113141   1.619   0.535   1.268
  370SOL    HW213142   1.739   0.568   1.162
  371SOL     OW13143   0.671   0.464   1.269
  371SOL    HW113144   0.637   0.375   1.239
  371SOL    HW213145   0.697   0.518   1.189
  372SOL     OW13146   0.473   0.500   0.191
  372SOL    HW113147   0.534   0.580   0.195
  372SOL    HW213148   0.378   0.531   0.198
  373SOL     OW13149   0.159   1.137   1.466
  373SOL    HW113150   0.181   1.076   1.542
  373SOL    HW213151   0.169   1.088   1.380
  374SOL     OW13152   1.347   1.059   1.234
  374SOL    HW113153   1.371   0.996   1.160
  374SOL    HW213154   1.257   1.099   1.216
  375SOL     OW13155   1.302   0.855   0.309
  375SOL    HW113156   1.216   0.824   0.351
  375SOL    HW213157   1.298   0.841   0.210
  376SOL     OW13158   1.759   1.747   1.154
  376SOL    HW113159   1.820   1.777   1.081
  376SOL    HW213160   1.721   1.658   1.132
  377SOL     OW13161   1.252   1.731   1.128
  377SOL    HW113162   1.336   1.736   1.074
  377SOL    HW213163   1.229   1.635   1.146
  378SOL     OW13164   0.903   0.086   0.133
  378SOL    HW113165   0.954   0.087   0.047
  378SOL    HW213166   0.959   0.044   0.204
  379SOL     OW13167   1.726   0.135   0.523
  379SOL    HW113168   1.799   0.118   0.456
  379SOL    HW213169   1.695   0.048   0.561
  380SOL     OW13170   1.388   1.573   0.477
  380SOL    HW113171   1.455   1.585   0.403
  380SOL    HW213172   1.348   1.662   0.500
  381SOL     OW13173   0.130   1.794   1.851
  381SOL    HW113174   0.089   1.720   1.904
  381SOL    HW213175   0.194   1.845   1.909
  382SOL     OW13176   1.280   0.927   0.672
  382SOL    HW113177   1.340   0.846   0.674
  382SOL    HW213178   1.320   0.996   0.612
  383SOL     OW13179   0.830   1.273   1.422
  383SOL    HW113180   0.825   1.306   1.517
  383SOL    HW213181   0.744   1.292   1.376
  384SOL     OW13182   0.672   1.616   0.154
  384SOL    HW113183   0.681   1.626   0.055
  384SOL    HW213184   0.632   1.527   0.175
  385SOL     OW13185   1.650   1.720   1.394
  385SOL    HW113186   1.703   1.730   1.310
  385SOL    HW213187   1.623   1.810   1.428
  386SOL     OW13188   1.841   0.175   0.963
  386SOL    HW113189   1.880   0.090   0.927
  386SOL    HW213190   1.743   0.177   0.944
  387SOL     OW13191   0.263   0.326   0.720
  387SOL    HW113192   0.184   0.377   0.686
  387SOL    HW213193   0.254   0.311   0.818
  388SOL     OW13194   1.194   1.612   0.031
  388SOL    HW113195   1.200   1.519   0.068
  388SOL    HW213196   1.135   1.612  -0.049
  389SOL     OW13197   0.822   1.002   1.372
  389SOL    HW113198   0.862   1.001   1.280
  389SOL    HW213199   0.832   1.094   1.412
  390SOL     OW13200   0.916   0.910   0.291
  390SOL    HW113201   0.979   0.948   0.223
  390SOL    HW213202   0.956   0.827   0.330
  391SOL     OW13203   1.504   1.607   0.044
  391SOL    HW113204   1.412   1.644   0.051
  391SOL    HW213205   1.542   1.627  -0.046
  392SOL     OW13206   0.372   1.288   1.490
  392SOL    HW113207   0.359   1.381   1.456
  392SOL    HW213208   0.288   1.236   1.477
  393SOL     OW13209   1.039   1.098   0.696
  393SOL    HW113210   0.969   1.051   0.750
  393SOL    HW213211   1.098   1.030   0.653
  394SOL     OW13212   1.014   0.236   0.971
  394SOL    HW113213   1.006   0.200   0.878
  394SOL    HW213214   1.012   0.160   1.036
  395SOL     OW13215   0.590   1.487   0.491
  395SOL    HW113216   0.632   1.429   0.421
  395SOL    HW213217   0.546   1.566   0.447
  396SOL     OW13218   1.709   0.385   1.381
  396SOL    HW113219   1.782   0.454   1.385
  396SOL    HW213220   1.737   0.310   1.322
  397SOL     OW13221   0.255   1.348   0.290
  397SOL    HW113222   0.159   1.349   0.263
  397SOL    HW213223   0.267   1.401   0.374
  398SOL     OW13224   0.075   0.345   0.033
  398SOL    HW113225  -0.017   0.317   0.004
  398SOL    HW213226   0.106   0.422  -0.023
  399SOL     OW13227   0.072   0.166   0.318
  399SOL    HW113228   0.055   0.249   0.264
  399SOL    HW213229   0.162   0.129   0.296
  400SOL     OW13230   1.183   1.335   0.119
  400SOL    HW113231   1.084   1.324   0.121
  400SOL    HW213232   1.217   1.350   0.212
  401SOL     OW13233   0.613   0.842   1.431
  401SOL    HW113234   0.669   0.923   1.414
  401SOL    HW213235   0.672   0.762   1.434
  402SOL     OW13236   1.493   1.767   0.959
  402SOL    HW113237   1.526   1.831   0.890
  402SOL    HW213238   1.559   1.761   1.034
  403SOL     OW13239   1.674   0.883   1.254
  403SOL    HW113240   1.647   0.794   1.217
  403SOL    HW213241   1.675   0.951   1.181
  404SOL     OW13242   1.225   0.325   0.449
  404SOL    HW113243   1.290   0.251   0.438
  404SOL    HW213244   1.245   0.375   0.533
  405SOL     OW13245   0.594   0.745   0.652
  405SOL    HW113246   0.644   0.830   0.633
  405SOL    HW213247   0.506   0.747   0.604
  406SOL     OW13248   1.777   0.342   1.642
  406SOL    HW113249   1.760   0.373   1.548
  406SOL    HW213250   1.693   0.305   1.680
  407SOL     OW13251   0.859   1.374   0.016
  407SOL    HW113252   0.813   1.389   0.104
  407SOL    HW213253   0.903   1.459  -0.014
  408SOL     OW13254   0.661   1.790   0.953
  408SOL    HW113255   0.615   1.878   0.940
  408SOL    HW213256   0.760   1.802   0.946
  409SOL     OW13257   0.859   0.956   0.861
  409SOL    HW113258   0.913   0.887   0.909
  409SOL    HW213259   0.827   1.025   0.927
  410SOL     OW13260   1.083   0.984   0.087
  410SOL    HW113261   1.060   1.037   0.005
  410SOL    HW213262   1.164   0.928   0.068
  411SOL     OW13263   1.861   1.569   0.851
  411SOL    HW113264   1.790   1.557   0.781
  411SOL    HW213265   1.862   1.490   0.911
  412SOL     OW13266   0.079   1.240   0.653
  412SOL    HW113267   0.078   1.193   0.741
  412SOL    HW213268   0.161   1.212   0.602
  413SOL     OW13269   1.824   0.192   1.227
  413SOL    HW113270   1.820   0.102   1.271
  413SOL    HW213271   1.827   0.181   1.128
  414SOL     OW13272   0.428   0.424   0.520
  414SOL    HW113273   0.458   0.352   0.458
  414SOL    HW213274   0.389   0.384   0.603
  415SOL     OW13275   1.705   1.487   1.104
  415SOL    HW113276   1.612   1.462   1.077
  415SOL    HW213277   1.731   1.437   1.186
  416SOL     OW13278   0.317   0.547   1.280
  416SOL    HW113279   0.355   0.488   1.352
  416SOL    HW213280   0.357   0.521   1.192
  417SOL     OW13281   0.812   1.586   0.687
  417SOL    HW113282   0.844   1.596   0.593
  417SOL    HW213283   0.733   1.524   0.689
  418SOL     OW13284   1.424   0.214   1.112
  418SOL    HW113285   1.476   0.149   1.167
  418SOL    HW213286   1.375   0.277   1.173
  419SOL     OW13287   1.001   0.034   1.154
  419SOL    HW113288   0.938  -0.038   1.123
  419SOL    HW213289   1.094  -0.002   1.154
  420SOL     OW13290   0.770   1.330   0.301
  420SOL    HW113291   0.724   1.243   0.318
  420SOL    HW213292   0.861   1.327   0.342
  421SOL     OW13293   1.352   0.052   0.168
  421SOL    HW113294   1.387   0.011   0.084
  421SOL    HW213295   1.262   0.014   0.188
  422SOL     OW13296   1.300   0.453   0.691
  422SOL    HW113297   1.241   0.533   0.695
  422SOL    HW213298   1.315   0.418   0.784
  423SOL     OW13299   1.593   0.221   0.882
  423SOL    HW113300   1.509   0.220   0.936
  423SOL    HW213301   1.595   0.304   0.826
  424SOL     OW13302   0.039   1.077   0.300
  424SOL    HW113303   0.138   1.066   0.291
  424SOL    HW213304  -0.001   0.991   0.332
  425SOL     OW13305   0.875   1.646   0.337
  425SOL    HW113306   0.798   1.611   0.283
  425SOL    HW213307   0.843   1.717   0.399
  426SOL     OW13308   0.230   0.628   1.975
  426SOL    HW113309   0.137   0.626   2.012
  426SOL    HW213310   0.231   0.589   1.883
  427SOL     OW13311   0.850   0.798   3.685
  427SOL    HW113312   0.846   0.874   3.750
  427SOL    HW213313   0.872   0.834   3.594
  428SOL     OW13314   0.335   1.435   2.923
  428SOL    HW113315   0.257   1.404   2.870
  428SOL    HW213316   0.393   1.493   2.866
  429SOL     OW13317   1.460   1.505   3.201
  429SOL    HW113318   1.484   1.599   3.227
  429SOL    HW213319   1.444   1.451   3.283
  430SOL     OW13320   1.603   0.447   2.599
  430SOL    HW113321   1.529   0.493   2.549
  430SOL    HW213322   1.654   0.515   2.652
  431SOL     OW13323   0.231   1.713   2.345
  431SOL    HW113324   0.265   1.790   2.399
  431SOL    HW213325   0.275   1.713   2.255
  432SOL     OW13326   1.127   1.341   3.552
  432SOL    HW113327   1.174   1.341   3.640
  432SOL    HW213328   1.079   1.254   3.541
  433SOL     OW13329   0.240   1.091   2.748
  433SOL    HW113330   0.254   1.007   2.800
  433SOL    HW213331   0.185   1.155   2.803
  434SOL     OW13332   0.620   1.786   3.301
  434SOL    HW113333   0.528   1.769   3.336
  434SOL    HW213334   0.648   1.878   3.327
  435SOL     OW13335   0.027   1.596   1.979
  435SOL    HW113336   0.008   1.500   2.000
  435SOL    HW213337  -0.006   1.654   2.054
  436SOL     OW13338   0.113   0.737   3.459
  436SOL    HW113339   0.201   0.724   3.504
  436SOL    HW213340   0.100   0.834   3.437
  437SOL     OW13341   1.525   0.999   2.052
  437SOL    HW113342   1.462   0.923   2.065
  437SOL    HW213343   1.573   1.017   2.138
  438SOL     OW13344   0.317   0.251   3.663
  438SOL    HW113345   0.388   0.322   3.669
  438SOL    HW213346   0.229   0.290   3.691
  439SOL     OW13347   1.281   0.345   2.806
  439SOL    HW113348   1.195   0.295   2.793
  439SOL    HW213349   1.343   0.291   2.862
  440SOL     OW13350   1.576   1.662   2.169
  440SOL    HW113351   1.665   1.708   2.172
  440SOL    HW213352   1.555   1.638   2.074
  441SOL     OW13353   1.394   0.469   3.536
  441SOL    HW113354   1.374   0.512   3.624
  441SOL    HW213355   1.472   0.407   3.545
  442SOL     OW13356   0.973   0.890   3.434
  442SOL    HW113357   1.019   0.806   3.405
  442SOL    HW213358   0.917   0.924   3.359
  443SOL     OW13359   1.041   0.701   2.291
  443SOL    HW113360   1.067   0.697   2.387
  443SOL    HW213361   0.956   0.650   2.277
  444SOL     OW13362   0.076   0.811   2.651
  444SOL    HW113363   0.175   0.799   2.660
  444SOL    HW213364   0.052   0.906   2.672
  445SOL     OW13365   0.130   1.821   3.433
  445SOL    HW113366   0.120   1.806   3.532
  445SOL    HW213367   0.044   1.857   3.397
  446SOL     OW13368   0.865   0.348   2.057
  446SOL    HW113369   0.924   0.411   2.008
  446SOL    HW213370   0.884   0.254   2.028
  447SOL     OW13371   0.550   0.196   2.747
  447SOL    HW113372   0.545   0.191   2.847
  447SOL    HW213373   0.552   0.292   2.718
  448SOL     OW13374   1.008   1.456   2.339
  448SOL    HW113375   0.962   1.528   2.287
  448SOL    HW213376   1.004   1.476   2.437
  449SOL     OW13377   1.795   1.066   2.735
  449SOL    HW113378   1.733   1.051   2.659
  449SOL    HW213379   1.743   1.077   2.820
  450SOL     OW13380   1.227   1.550   3.368
  450SOL    HW113381   1.233   1.473   3.432
  450SOL    HW213382   1.175   1.524   3.288
  451SOL     OW13383   1.111   1.776   2.099
  451SOL    HW113384   1.051   1.714   2.149
  451SOL    HW213385   1.142   1.732   2.014
  452SOL     OW13386   1.547   0.222   3.591
  452SOL    HW113387   1.542   0.259   3.683
  452SOL    HW213388   1.475   0.153   3.579
  453SOL     OW13389   0.614   0.122   1.979
  453SOL    HW113390   0.712   0.100   1.986
  453SOL    HW213391   0.583   0.105   1.886
  454SOL     OW13392   0.781   0.264   3.611
  454SOL    HW113393   0.848   0.203   3.654
  454SOL    HW213394   0.708   0.283   3.676
  455SOL     OW13395   0.888   1.514   3.057
  455SOL    HW113396   0.865   1.489   2.963
  455SOL    HW213397   0.949   1.445   3.096
  456SOL     OW13398   1.351   0.590   3.295
  456SOL    HW113399   1.379   0.547   3.380
  456SOL    HW213400   1.376   0.686   3.296
  457SOL     OW13401   0.459   1.152   2.603
  457SOL    HW113402   0.388   1.125   2.668
  457SOL    HW213403   0.433   1.124   2.510
  458SOL     OW13404   0.078   0.556   3.248
  458SOL    HW113405   0.170   0.555   3.207
  458SOL    HW213406   0.072   0.630   3.315
  459SOL     OW13407   0.561   0.222   3.009
  459SOL    HW113408   0.599   0.138   3.046
  459SOL    HW213409   0.473   0.241   3.053
  460SOL     OW13410   1.429   1.173   2.729
  460SOL    HW113411   1.374   1.089   2.722
  460SOL    HW213412   1.455   1.202   2.637
  461SOL     OW13413   1.466   0.590   2.854
  461SOL    HW113414   1.436   0.495   2.861
  461SOL    HW213415   1.539   0.606   2.920
  462SOL     OW13416   0.527   0.256   2.190
  462SOL    HW113417   0.554   0.197   2.115
  462SOL    HW213418   0.527   0.351   2.159
  463SOL     OW13419   1.754   1.223   3.450
  463SOL    HW113420   1.845   1.184   3.437
  463SOL    HW213421   1.762   1.319   3.474
  464SOL     OW13422   0.980   1.116   3.581
  464SOL    HW113423   0.881   1.122   3.591
  464SOL    HW213424   1.003   1.036   3.525
  465SOL     OW13425   0.367   1.100   2.363
  465SOL    HW113426   0.360   1.183   2.307
  465SOL    HW213427   0.371   1.020   2.303
  466SOL     OW13428   1.272   1.445   3.004
  466SOL    HW113429   1.319   1.458   3.091
  466SOL    HW213430   1.206   1.371   3.013
  467SOL     OW13431   0.354   1.510   3.191
  467SOL    HW113432   0.333   1.466   3.104
  467SOL    HW213433   0.451   1.536   3.194
  468SOL     OW13434   0.402   0.751   3.460
  468SOL    HW113435   0.470   0.806   3.413
  468SOL    HW213436   0.442   0.663   3.487
  469SOL     OW13437   1.013   0.105   3.632
  469SOL    HW113438   1.019   0.190   3.580
  469SOL    HW213439   1.045   0.029   3.575
  470SOL     OW13440   1.360   0.862   2.907
  470SOL    HW113441   1.285   0.862   2.841
  470SOL    HW213442   1.397   0.770   2.916
  471SOL     OW13443   0.307   0.213   3.093
  471SOL    HW113444   0.284   0.250   3.183
  471SOL    HW213445   0.277   0.118   3.087
  472SOL     OW13446   0.307   0.063   2.480
  472SOL    HW113447   0.296   0.157   2.513
  472SOL    HW213448   0.302   0.000   2.557
  473SOL     OW13449   1.622   0.367   2.236
  473SOL    HW113450   1.624   0.291   2.300
  473SOL    HW213451   1.574   0.444   2.276
  474SOL     OW13452   1.023   0.766   2.828
  474SOL    HW113453   1.038   0.787   2.924
  474SOL    HW213454   0.993   0.671   2.819
  475SOL     OW13455   0.980   1.573   3.562
  475SOL    HW113456   0.960   1.617   3.474
  475SOL    HW213457   1.019   1.482   3.546
  476SOL     OW13458   1.859   1.518   3.467
  476SOL    HW113459   1.873   1.545   3.372
  476SOL    HW213460   1.942   1.540   3.520
  477SOL     OW13461   1.540   0.274   1.987
  477SOL    HW113462   1.479   0.199   2.010
  477SOL    HW213463   1.562   0.326   2.070
  478SOL     OW13464   1.068   1.333   2.711
  478SOL    HW113465   1.075   1.249   2.656
  478SOL    HW213466   1.130   1.402   2.675
  479SOL     OW13467   0.319   0.810   2.811
  479SOL    HW113468   0.412   0.846   2.816
  479SOL    HW213469   0.313   0.725   2.863
  480SOL     OW13470   0.339   0.509   2.868
  480SOL    HW113471   0.287   0.426   2.851
  480SOL    HW213472   0.416   0.514   2.804
  481SOL     OW13473   1.002   0.796   3.100
  481SOL    HW113474   1.043   0.764   3.186
  481SOL    HW213475   0.906   0.769   3.097
  482SOL     OW13476   0.040   0.544   2.976
  482SOL    HW113477   0.125   0.511   2.935
  482SOL    HW213478   0.053   0.559   3.074
  483SOL     OW13479   0.815   0.572   2.187
  483SOL    HW113480   0.822   0.483   2.141
  483SOL    HW213481   0.721   0.606   2.179
  484SOL     OW13482   0.671   0.464   3.131
  484SOL    HW113483   0.637   0.375   3.101
  484SOL    HW213484   0.697   0.518   3.051
  485SOL     OW13485   0.930   1.678   3.327
  485SOL    HW113486   0.906   1.660   3.232
  485SOL    HW213487   0.960   1.772   3.337
  486SOL     OW13488   1.252   1.731   2.990
  486SOL    HW113489   1.336   1.736   2.936
  486SOL    HW213490   1.229   1.635   3.008
  487SOL     OW13491   0.130   1.794   3.713
  487SOL    HW113492   0.089   1.720   3.766
  487SOL    HW213493   0.194   1.845   3.771
  488SOL     OW13494   0.830   1.273   3.284
  488SOL    HW113495   0.825   1.306   3.379
  488SOL    HW213496   0.744   1.292   3.238
  489SOL     OW13497   0.822   1.002   3.234
  489SOL    HW113498   0.862   1.001   3.142
  489SOL    HW213499   0.832   1.094   3.274
  490SOL     OW13500   0.916   0.910   2.153
  490SOL    HW113501   0.979   0.948   2.085
  490SOL    HW213502   0.956   0.827   2.192
  491SOL     OW13503   1.504   1.607   1.906
  491SOL    HW113504   1.412   1.644   1.913
  491SOL    HW213505   1.542   1.627   1.816
  492SOL     OW13506   1.709   0.385   3.243
  492SOL    HW113507   1.782   0.454   3.247
  492SOL    HW213508   1.737   0.310   3.184
  493SOL     OW13509   0.075   0.345   1.895
  493SOL    HW113510  -0.017   0.317   1.866
  493SOL    HW213511   0.106   0.422   1.839
  494SOL     OW13512   0.716   0.565   3.570
  494SOL    HW113513   0.735   0.630   3.644
  494SOL    HW213514   0.776   0.485   3.579
  495SOL     OW13515   0.390   1.741   3.422
  495SOL    HW113516   0.299   1.782   3.420
  495SOL    HW213517   0.383   1.647   3.454
  496SOL     OW13518   1.777   0.342   3.504
  496SOL    HW113519   1.760   0.373   3.410
  496SOL    HW213520   1.693   0.305   3.542
  497SOL     OW13521   0.859   1.374   1.878
  497SOL    HW113522   0.813   1.389   1.966
  497SOL    HW213523   0.903   1.459   1.848
  498SOL     OW13524   0.661   1.790   2.815
  498SOL    HW113525   0.615   1.878   2.802
  498SOL    HW213526   0.760   1.802   2.808
  499SOL     OW13527   0.428   0.424   2.382
  499SOL    HW113528   0.458   0.352   2.320
  499SOL    HW213529   0.389   0.384   2.465
  500SOL     OW13530   0.618   1.567   3.146
  500SOL    HW113531   0.613   1.649   3.203
  500SOL    HW213532   0.707   1.564   3.101
  501SOL     OW13533   1.352   0.052   2.030
  501SOL    HW113534   1.387   0.011   1.946
  501SOL    HW213535   1.262   0.014   2.050
  502SOL     OW13536   0.875   1.646   2.199
  502SOL    HW113537   0.798   1.611   2.145
  502SOL    HW213538   0.843   1.717   2.261
  503SOL     OW13539   0.230   0.628   3.837
  503SOL    HW113540   0.137   0.626   3.874
  503SOL    HW213541   0.231   0.589   3.745
  504SOL     OW13542   0.225   0.275   4.720
  504SOL    HW113543   0.260   0.258   4.812
  504SOL    HW213544   0.137   0.230   4.708
  505SOL     OW13545   0.569   1.275   4.889
  505SOL    HW113546   0.476   1.268   4.852
  505SOL    HW213547   0.580   1.364   4.933
  506SOL     OW13548   1.555   1.511   4.427
  506SOL    HW113549   1.498   1.495   4.508
  506SOL    HW213550   1.496   1.521   4.347
  507SOL     OW13551   1.135   0.703   4.441
  507SOL    HW113552   1.192   0.781   4.416
  507SOL    HW213553   1.075   0.729   4.517
  508SOL     OW13554   1.755   0.607   3.955
  508SOL    HW113555   1.743   0.594   3.856
  508SOL    HW213556   1.725   0.526   4.004
  509SOL     OW13557   0.768   1.144   4.747
  509SOL    HW113558   0.690   1.161   4.807
  509SOL    HW213559   0.802   1.231   4.711
  510SOL     OW13560   0.850   0.798   5.547
  510SOL    HW113561   0.846   0.874   5.612
  510SOL    HW213562   0.872   0.834   5.456
  511SOL     OW13563   0.686   1.161   5.527
  511SOL    HW113564   0.746   1.240   5.541
  511SOL    HW213565   0.600   1.192   5.486
  512SOL     OW13566   0.231   1.713   4.207
  512SOL    HW113567   0.265   1.790   4.261
  512SOL    HW213568   0.275   1.713   4.117
  513SOL     OW13569   0.620   1.786   5.163
  513SOL    HW113570   0.528   1.769   5.198
  513SOL    HW213571   0.648   1.878   5.189
  514SOL     OW13572   1.594   0.114   5.204
  514SOL    HW113573   1.576   0.181   5.132
  514SOL    HW213574   1.591   0.160   5.293
  515SOL     OW13575   1.842   1.767   4.083
  515SOL    HW113576   1.896   1.738   4.163
  515SOL    HW213577   1.872   1.857   4.054
  516SOL     OW13578   1.525   0.999   3.914
  516SOL    HW113579   1.462   0.923   3.927
  516SOL    HW213580   1.573   1.017   4.000
  517SOL     OW13581   1.187   1.792   5.340
  517SOL    HW113582   1.211   1.852   5.264
  517SOL    HW213583   1.194   1.697   5.310
  518SOL     OW13584   0.598   0.729   3.994
  518SOL    HW113585   0.622   0.798   3.926
  518SOL    HW213586   0.520   0.762   4.048
  519SOL     OW13587   1.281   0.345   4.668
  519SOL    HW113588   1.195   0.295   4.655
  519SOL    HW213589   1.343   0.291   4.724
  520SOL     OW13590   0.991   0.410   4.966
  520SOL    HW113591   0.914   0.444   5.020
  520SOL    HW213592   0.957   0.359   4.887
  521SOL     OW13593   1.719   0.585   5.555
  521SOL    HW113594   1.693   0.674   5.519
  521SOL    HW213595   1.717   0.517   5.482
  522SOL     OW13596   0.351   1.801   4.577
  522SOL    HW113597   0.401   1.715   4.583
  522SOL    HW213598   0.416   1.878   4.574
  523SOL     OW13599   1.458   0.735   4.452
  523SOL    HW113600   1.453   0.670   4.527
  523SOL    HW213601   1.538   0.794   4.465
  524SOL     OW13602   0.940   1.698   4.628
  524SOL    HW113603   1.020   1.641   4.649
  524SOL    HW213604   0.891   1.658   4.551
  525SOL     OW13605   0.382   0.700   4.204
  525SOL    HW113606   0.427   0.610   4.201
  525SOL    HW213607   0.288   0.689   4.237
  526SOL     OW13608   1.547   0.222   5.453
  526SOL    HW113609   1.542   0.259   5.545
  526SOL    HW213610   1.475   0.153   5.441
  527SOL     OW13611   0.781   0.264   5.473
  527SOL    HW113612   0.848   0.203   5.516
  527SOL    HW213613   0.708   0.283   5.538
  528SOL     OW13614   0.888   1.514   4.919
  528SOL    HW113615   0.865   1.489   4.825
  528SOL    HW213616   0.949   1.445   4.958
  529SOL     OW13617   0.803   1.402   4.648
  529SOL    HW113618   0.893   1.416   4.606
  529SOL    HW213619   0.732   1.404   4.577
  530SOL     OW13620   0.297   0.035   3.895
  530SOL    HW113621   0.346   0.119   3.874
  530SOL    HW213622   0.359  -0.030   3.940
  531SOL     OW13623   1.271   1.797   4.315
  531SOL    HW113624   1.315   1.861   4.251
  531SOL    HW213625   1.221   1.849   4.385
  532SOL     OW13626   0.561   0.222   4.871
  532SOL    HW113627   0.599   0.138   4.908
  532SOL    HW213628   0.473   0.241   4.915
  533SOL     OW13629   1.017   0.039   4.477
  533SOL    HW113630   0.945   0.044   4.408
  533SOL    HW213631   0.993  -0.030   4.546
  534SOL     OW13632   1.466   0.590   4.716
  534SOL    HW113633   1.436   0.495   4.723
  534SOL    HW213634   1.539   0.606   4.782
  535SOL     OW13635   0.488   1.385   3.898
  535SOL    HW113636   0.401   1.370   3.945
  535SOL    HW213637   0.471   1.411   3.803
  536SOL     OW13638   1.664   1.280   4.381
  536SOL    HW113639   1.763   1.288   4.395
  536SOL    HW213640   1.619   1.364   4.412
  537SOL     OW13641   1.754   1.223   5.312
  537SOL    HW113642   1.845   1.184   5.299
  537SOL    HW213643   1.762   1.319   5.336
  538SOL     OW13644   0.980   1.116   5.443
  538SOL    HW113645   0.881   1.122   5.453
  538SOL    HW213646   1.003   1.036   5.387
  539SOL     OW13647   1.274   0.386   4.986
  539SOL    HW113648   1.295   0.460   5.050
  539SOL    HW213649   1.185   0.403   4.943
  540SOL     OW13650   1.252   1.348   4.112
  540SOL    HW113651   1.302   1.425   4.152
  540SOL    HW213652   1.157   1.350   4.144
  541SOL     OW13653   1.013   0.105   5.494
  541SOL    HW113654   1.019   0.190   5.442
  541SOL    HW213655   1.045   0.029   5.437
  542SOL     OW13656   0.504   0.050   5.464
  542SOL    HW113657   0.462  -0.007   5.394
  542SOL    HW213658   0.438   0.119   5.496
  543SOL     OW13659   1.360   0.862   4.769
  543SOL    HW113660   1.285   0.862   4.703
  543SOL    HW213661   1.397   0.770   4.778
  544SOL     OW13662   1.728   0.935   5.578
  544SOL    HW113663   1.682   0.928   5.489
  544SOL    HW213664   1.666   0.979   5.644
  545SOL     OW13665   0.350   0.898   5.528
  545SOL    HW113666   0.426   0.942   5.576
  545SOL    HW213667   0.385   0.851   5.446
  546SOL     OW13668   1.303   0.838   3.766
  546SOL    HW113669   1.337   0.745   3.781
  546SOL    HW213670   1.321   0.865   3.671
  547SOL     OW13671   0.339   0.509   4.730
  547SOL    HW113672   0.287   0.426   4.713
  547SOL    HW213673   0.416   0.514   4.666
  548SOL     OW13674   1.138   0.380   5.402
  548SOL    HW113675   1.093   0.443   5.466
  548SOL    HW213676   1.231   0.411   5.385
  549SOL     OW13677   1.160   0.207   5.201
  549SOL    HW113678   1.160   0.271   5.278
  549SOL    HW213679   1.188   0.255   5.118
  550SOL     OW13680   1.302   0.855   4.033
  550SOL    HW113681   1.216   0.824   4.075
  550SOL    HW213682   1.298   0.841   3.934
  551SOL     OW13683   1.759   1.747   4.878
  551SOL    HW113684   1.820   1.777   4.805
  551SOL    HW213685   1.721   1.658   4.856
  552SOL     OW13686   0.688   1.662   5.440
  552SOL    HW113687   0.632   1.743   5.449
  552SOL    HW213688   0.740   1.666   5.354
  553SOL     OW13689   0.130   1.794   5.575
  553SOL    HW113690   0.089   1.720   5.628
  553SOL    HW213691   0.194   1.845   5.633
  554SOL     OW13692   1.280   0.927   4.396
  554SOL    HW113693   1.340   0.846   4.398
  554SOL    HW213694   1.320   0.996   4.336
  555SOL     OW13695   0.830   1.273   5.146
  555SOL    HW113696   0.825   1.306   5.241
  555SOL    HW213697   0.744   1.292   5.100
  556SOL     OW13698   0.672   1.616   3.878
  556SOL    HW113699   0.681   1.626   3.779
  556SOL    HW213700   0.632   1.527   3.899
  557SOL     OW13701   1.841   0.175   4.687
  557SOL    HW113702   1.880   0.090   4.651
  557SOL    HW213703   1.743   0.177   4.668
  558SOL     OW13704   0.263   0.326   4.444
  558SOL    HW113705   0.184   0.377   4.410
  558SOL    HW213706   0.254   0.311   4.542
  559SOL     OW13707   1.614   1.292   5.013
  559SOL    HW113708   1.674   1.295   5.093
  559SOL    HW213709   1.539   1.356   5.026
  560SOL     OW13710   0.105   1.013   5.450
  560SOL    HW113711   0.028   0.980   5.504
  560SOL    HW213712   0.190   0.983   5.492
  561SOL     OW13713   0.672   0.203   5.213
  561SOL    HW113714   0.762   0.187   5.173
  561SOL    HW213715   0.680   0.208   5.312
  562SOL     OW13716   0.613   0.842   5.155
  562SOL    HW113717   0.669   0.923   5.138
  562SOL    HW213718   0.672   0.762   5.158
  563SOL     OW13719   1.493   1.767   4.683
  563SOL    HW113720   1.526   1.831   4.614
  563SOL    HW213721   1.559   1.761   4.758
  564SOL     OW13722   0.716   0.565   5.432
  564SOL    HW113723   0.735   0.630   5.506
  564SOL    HW213724   0.776   0.485   5.441
  565SOL     OW13725   1.450   1.220   5.357
  565SOL    HW113726   1.441   1.210   5.456
  565SOL    HW213727   1.546   1.213   5.331
  566SOL     OW13728   1.674   0.883   4.978
  566SOL    HW113729   1.647   0.794   4.941
  566SOL    HW213730   1.675   0.951   4.905
  567SOL     OW13731   0.594   0.745   4.376
  567SOL    HW113732   0.644   0.830   4.357
  567SOL    HW213733   0.506   0.747   4.328
  568SOL     OW13734   1.777   0.342   5.366
  568SOL    HW113735   1.760   0.373   5.272
  568SOL    HW213736   1.693   0.305   5.404
  569SOL     OW13737   1.730   0.934   5.241
  569SOL    HW113738   1.768   1.025   5.256
  569SOL    HW213739   1.722   0.917   5.142
  570SOL     OW13740   1.083   0.984   3.811
  570SOL    HW113741   1.060   1.037   3.729
  570SOL    HW213742   1.164   0.928   3.792
  571SOL     OW13743   0.079   1.240   4.377
  571SOL    HW113744   0.078   1.193   4.465
  571SOL    HW213745   0.161   1.212   4.326
  572SOL     OW13746   0.672   1.391   5.348
  572SOL    HW113747   0.594   1.341   5.386
  572SOL    HW213748   0.669   1.486   5.379
  573SOL     OW13749   1.424   0.214   4.836
  573SOL    HW113750   1.476   0.149   4.891
  573SOL    HW213751   1.375   0.277   4.897
  574SOL     OW13752   0.618   1.567   5.008
  574SOL    HW113753   0.613   1.649   5.065
  574SOL    HW213754   0.707   1.564   4.963
  575SOL     OW13755   0.875   1.646   4.061
  575SOL    HW113756   0.798   1.611   4.007
  575SOL    HW213757   0.843   1.717   4.123
  576SOL     OW13758   0.230   0.628   5.699
  576SOL    HW113759   0.137   0.626   5.736
  576SOL    HW213760   0.231   0.589   5.607
  577SOL     OW13761   0.225   0.275   6.582
  577SOL    HW113762   0.260   0.258   6.674
  577SOL    HW213763   0.137   0.230   6.570
  578SOL     OW13764   0.019   0.368   6.233
  578SOL    HW113765  -0.063   0.411   6.272
  578SOL    HW213766  -0.009   0.295   6.170
  579SOL     OW13767   0.569   1.275   6.751
  579SOL    HW113768   0.476   1.268   6.714
  579SOL    HW213769   0.580   1.364   6.795
  580SOL     OW13770   1.555   1.511   6.289
  580SOL    HW113771   1.498   1.495   6.370
  580SOL    HW213772   1.496   1.521   6.209
  581SOL     OW13773   1.135   0.703   6.303
  581SOL    HW113774   1.192   0.781   6.278
  581SOL    HW213775   1.075   0.729   6.379
  582SOL     OW13776   1.755   0.607   5.817
  582SOL    HW113777   1.743   0.594   5.718
  582SOL    HW213778   1.725   0.526   5.866
  583SOL     OW13779   0.768   1.144   6.609
  583SOL    HW113780   0.690   1.161   6.669
  583SOL    HW213781   0.802   1.231   6.573
  584SOL     OW13782   0.685   1.012   6.251
  584SOL    HW113783   0.754   0.996   6.321
  584SOL    HW213784   0.612   1.069   6.289
  585SOL     OW13785   0.335   1.435   6.647
  585SOL    HW113786   0.257   1.404   6.594
  585SOL    HW213787   0.393   1.493   6.590
  586SOL     OW13788   0.438   0.392   7.085
  586SOL    HW113789   0.520   0.336   7.094
  586SOL    HW213790   0.357   0.334   7.089
  587SOL     OW13791   1.603   0.447   6.323
  587SOL    HW113792   1.529   0.493   6.273
  587SOL    HW213793   1.654   0.515   6.376
  588SOL     OW13794   0.231   1.713   6.069
  588SOL    HW113795   0.265   1.790   6.123
  588SOL    HW213796   0.275   1.713   5.979
  589SOL     OW13797   0.230   1.434   6.124
  589SOL    HW113798   0.204   1.530   6.124
  589SOL    HW213799   0.159   1.380   6.169
  590SOL     OW13800   0.240   1.091   6.472
  590SOL    HW113801   0.254   1.007   6.524
  590SOL    HW213802   0.185   1.155   6.527
  591SOL     OW13803   0.620   1.786   7.025
  591SOL    HW113804   0.528   1.769   7.060
  591SOL    HW213805   0.648   1.878   7.051
  592SOL     OW13806   0.606   0.964   5.709
  592SOL    HW113807   0.613   1.048   5.655
  592SOL    HW213808   0.652   0.977   5.797
  593SOL     OW13809   0.122   0.643   6.149
  593SOL    HW113810   0.077   0.555   6.166
  593SOL    HW213811   0.121   0.697   6.233
  594SOL     OW13812   1.842   1.767   5.945
  594SOL    HW113813   1.896   1.738   6.025
  594SOL    HW213814   1.872   1.857   5.916
  595SOL     OW13815   0.027   1.596   5.703
  595SOL    HW113816   0.008   1.500   5.724
  595SOL    HW213817  -0.006   1.654   5.778
  596SOL     OW13818   1.689   0.922   6.198
  596SOL    HW113819   1.784   0.893   6.206
  596SOL    HW213820   1.681   0.987   6.123
  597SOL     OW13821   1.641   1.108   6.018
  597SOL    HW113822   1.727   1.110   5.966
  597SOL    HW213823   1.655   1.155   6.106
  598SOL     OW13824   0.613   1.365   6.312
  598SOL    HW113825   0.564   1.278   6.321
  598SOL    HW213826   0.590   1.408   6.225
  599SOL     OW13827   0.809   0.004   6.088
  599SOL    HW113828   0.849   0.095   6.079
  599SOL    HW213829   0.709   0.012   6.094
  600SOL     OW13830   0.197   0.976   6.850
  600SOL    HW113831   0.286   0.931   6.836
  600SOL    HW213832   0.124   0.911   6.831
  601SOL     OW13833   1.525   0.999   5.776
  601SOL    HW113834   1.462   0.923   5.789
  601SOL    HW213835   1.573   1.017   5.862
  602SOL     OW13836   1.466   1.417   6.539
  602SOL    HW113837   1.407   1.423   6.619
  602SOL    HW213838   1.451   1.329   6.493
  603SOL     OW13839   1.667   1.714   6.158
  603SOL    HW113840   1.626   1.691   6.070
  603SOL    HW213841   1.649   1.640   6.223
  604SOL     OW13842   0.598   0.729   5.856
  604SOL    HW113843   0.622   0.798   5.788
  604SOL    HW213844   0.520   0.762   5.910
  605SOL     OW13845   1.281   0.345   6.530
  605SOL    HW113846   1.195   0.295   6.517
  605SOL    HW213847   1.343   0.291   6.586
  606SOL     OW13848   1.576   1.662   5.893
  606SOL    HW113849   1.665   1.708   5.896
  606SOL    HW213850   1.555   1.638   5.798
  607SOL     OW13851   0.807   0.605   7.051
  607SOL    HW113852   0.760   0.602   7.140
  607SOL    HW213853   0.756   0.550   6.985
  608SOL     OW13854   0.991   0.410   6.828
  608SOL    HW113855   0.914   0.444   6.882
  608SOL    HW213856   0.957   0.359   6.749
  609SOL     OW13857   1.041   0.701   6.015
  609SOL    HW113858   1.067   0.697   6.111
  609SOL    HW213859   0.956   0.650   6.001
  610SOL     OW13860   0.076   0.811   6.375
  610SOL    HW113861   0.175   0.799   6.384
  610SOL    HW213862   0.052   0.906   6.396
  611SOL     OW13863   0.130   1.821   7.157
  611SOL    HW113864   0.120   1.806   7.256
  611SOL    HW213865   0.044   1.857   7.121
  612SOL     OW13866   0.865   0.348   5.781
  612SOL    HW113867   0.924   0.411   5.732
  612SOL    HW213868   0.884   0.254   5.752
  613SOL     OW13869   1.362   1.144   6.131
  613SOL    HW113870   1.445   1.115   6.083
  613SOL    HW213871   1.313   1.211   6.075
  614SOL     OW13872   0.550   0.196   6.471
  614SOL    HW113873   0.545   0.191   6.571
  614SOL    HW213874   0.552   0.292   6.442
  615SOL     OW13875   1.008   1.456   6.063
  615SOL    HW113876   0.962   1.528   6.011
  615SOL    HW213877   1.004   1.476   6.161
  616SOL     OW13878   0.351   1.801   6.439
  616SOL    HW113879   0.401   1.715   6.445
  616SOL    HW213880   0.416   1.878   6.436
  617SOL     OW13881   1.795   1.066   6.459
  617SOL    HW113882   1.733   1.051   6.383
  617SOL    HW213883   1.743   1.077   6.544
  618SOL     OW13884   0.321   0.943   5.828
  618SOL    HW113885   0.403   0.982   5.786
  618SOL    HW213886   0.294   0.861   5.779
  619SOL     OW13887   1.458   0.735   6.314
  619SOL    HW113888   1.453   0.670   6.389
  619SOL    HW213889   1.538   0.794   6.327
  620SOL     OW13890   1.111   1.776   5.823
  620SOL    HW113891   1.051   1.714   5.873
  620SOL    HW213892   1.142   1.732   5.738
  621SOL     OW13893   1.632   1.377   5.667
  621SOL    HW113894   1.600   1.471   5.657
  621SOL    HW213895   1.556   1.314   5.655
  622SOL     OW13896   0.464   1.743   5.909
  622SOL    HW113897   0.497   1.782   5.995
  622SOL    HW213898   0.540   1.736   5.844
  623SOL     OW13899   1.400   0.107   6.012
  623SOL    HW113900   1.376   0.070   5.922
  623SOL    HW213901   1.499   0.123   6.016
  624SOL     OW13902   0.249   1.785   6.827
  624SOL    HW113903   0.306   1.720   6.877
  624SOL    HW213904   0.233   1.752   6.734
  625SOL     OW13905   0.940   1.698   6.490
  625SOL    HW113906   1.020   1.641   6.511
  625SOL    HW213907   0.891   1.658   6.413
  626SOL     OW13908   0.382   0.700   6.066
  626SOL    HW113909   0.427   0.610   6.063
  626SOL    HW213910   0.288   0.689   6.099
  627SOL     OW13911   0.614   0.122   5.703
  627SOL    HW113912   0.712   0.100   5.710
  627SOL    HW213913   0.583   0.105   5.610
  628SOL     OW13914   0.888   1.514   6.781
  628SOL    HW113915   0.865   1.489   6.687
  628SOL    HW213916   0.949   1.445   6.820
  629SOL     OW13917   0.803   1.402   6.510
  629SOL    HW113918   0.893   1.416   6.468
  629SOL    HW213919   0.732   1.404   6.439
  630SOL     OW13920   0.922   0.503   6.485
  630SOL    HW113921   0.897   0.494   6.389
  630SOL    HW213922   0.970   0.421   6.516
  631SOL     OW13923   0.539   0.064   6.098
  631SOL    HW113924   0.458   0.065   6.156
  631SOL    HW213925   0.542   0.147   6.043
  632SOL     OW13926   1.434   1.188   5.627
  632SOL    HW113927   1.466   1.112   5.684
  632SOL    HW213928   1.342   1.215   5.657
  633SOL     OW13929   0.297   0.035   5.757
  633SOL    HW113930   0.346   0.119   5.736
  633SOL    HW213931   0.359  -0.030   5.802
  634SOL     OW13932   0.935   0.236   6.066
  634SOL    HW113933   0.887   0.277   5.988
  634SOL    HW213934   1.034   0.234   6.047
  635SOL     OW13935   1.227   1.570   6.379
  635SOL    HW113936   1.248   1.644   6.314
  635SOL    HW213937   1.295   1.570   6.452
  636SOL     OW13938   0.459   1.152   6.327
  636SOL    HW113939   0.388   1.125   6.392
  636SOL    HW213940   0.433   1.124   6.234
  637SOL     OW13941   1.271   1.797   6.177
  637SOL    HW113942   1.315   1.861   6.113
  637SOL    HW213943   1.221   1.849   6.247
  638SOL     OW13944   1.032   0.549   5.602
  638SOL    HW113945   0.991   0.631   5.563
  638SOL    HW213946   1.096   0.575   5.675
  639SOL     OW13947   0.561   0.222   6.733
  639SOL    HW113948   0.599   0.138   6.770
  639SOL    HW213949   0.473   0.241   6.777
  640SOL     OW13950   0.866   0.454   6.228
  640SOL    HW113951   0.834   0.526   6.166
  640SOL    HW213952   0.890   0.373   6.175
  641SOL     OW13953   1.017   0.039   6.339
  641SOL    HW113954   0.945   0.044   6.270
  641SOL    HW213955   0.993  -0.030   6.408
  642SOL     OW13956   1.429   1.173   6.453
  642SOL    HW113957   1.374   1.089   6.446
  642SOL    HW213958   1.455   1.202   6.361
  643SOL     OW13959   1.466   0.590   6.578
  643SOL    HW113960   1.436   0.495   6.585
  643SOL    HW213961   1.539   0.606   6.644
  644SOL     OW13962   1.857   0.833   5.963
  644SOL    HW113963   1.899   0.769   6.027
  644SOL    HW213964   1.819   0.782   5.885
  645SOL     OW13965   0.488   1.385   5.760
  645SOL    HW113966   0.401   1.370   5.807
  645SOL    HW213967   0.471   1.411   5.665
  646SOL     OW13968   1.664   1.280   6.243
  646SOL    HW113969   1.763   1.288   6.257
  646SOL    HW213970   1.619   1.364   6.274
  647SOL     OW13971   1.390   0.575   5.664
  647SOL    HW113972   1.336   0.554   5.745
  647SOL    HW213973   1.481   0.534   5.673
  648SOL     OW13974   0.527   0.256   5.914
  648SOL    HW113975   0.554   0.197   5.839
  648SOL    HW213976   0.527   0.351   5.883
  649SOL     OW13977   1.064   1.347   6.926
  649SOL    HW113978   0.984   1.324   6.981
  649SOL    HW213979   1.147   1.321   6.975
  650SOL     OW13980   1.111   1.195   6.686
  650SOL    HW113981   1.071   1.239   6.767
  650SOL    HW213982   1.070   1.232   6.603
  651SOL     OW13983   1.638   1.099   6.665
  651SOL    HW113984   1.643   1.180   6.724
  651SOL    HW213985   1.552   1.101   6.614
  652SOL     OW13986   0.705   1.050   5.954
  652SOL    HW113987   0.691   1.057   6.053
  652SOL    HW213988   0.789   0.999   5.936
  653SOL     OW13989   0.410   0.813   6.837
  653SOL    HW113990   0.496   0.825   6.887
  653SOL    HW213991   0.368   0.726   6.864
  654SOL     OW13992   1.274   0.386   6.848
  654SOL    HW113993   1.295   0.460   6.912
  654SOL    HW213994   1.185   0.403   6.805
  655SOL     OW13995   0.064   1.564   6.917
  655SOL    HW113996   0.018   1.646   6.883
  655SOL    HW213997   0.162   1.583   6.926
  656SOL     OW13998   0.367   1.100   6.087
  656SOL    HW113999   0.360   1.183   6.031
  656SOL    HW214000   0.371   1.020   6.027
  657SOL     OW14001   0.566   0.537   6.451
  657SOL    HW114002   0.578   0.603   6.377
  657SOL    HW214003   0.612   0.571   6.534
  658SOL     OW14004   1.252   1.348   5.974
  658SOL    HW114005   1.302   1.425   6.014
  658SOL    HW214006   1.157   1.350   6.006
  659SOL     OW14007   1.272   1.445   6.728
  659SOL    HW114008   1.319   1.458   6.815
  659SOL    HW214009   1.206   1.371   6.737
  660SOL     OW14010   1.582   0.639   6.058
  660SOL    HW114011   1.551   0.700   6.131
  660SOL    HW214012   1.632   0.691   5.989
  661SOL     OW14013   0.354   1.510   6.915
  661SOL    HW114014   0.333   1.466   6.828
  661SOL    HW214015   0.451   1.536   6.918
  662SOL     OW14016   0.573   0.870   6.615
  662SOL    HW114017   0.617   0.959   6.606
  662SOL    HW214018   0.510   0.870   6.692
  663SOL     OW14019   1.360   0.862   6.631
  663SOL    HW114020   1.285   0.862   6.565
  663SOL    HW214021   1.397   0.770   6.640
  664SOL     OW14022   1.209   0.525   5.861
  664SOL    HW114023   1.222   0.441   5.915
  664SOL    HW214024   1.180   0.599   5.921
  665SOL     OW14025   0.307   0.213   6.817
  665SOL    HW114026   0.284   0.250   6.907
  665SOL    HW214027   0.277   0.118   6.811
  666SOL     OW14028   0.037   1.310   6.868
  666SOL    HW114029   0.090   1.261   6.936
  666SOL    HW214030   0.059   1.408   6.873
  667SOL     OW14031   0.732   0.634   6.650
  667SOL    HW114032   0.791   0.608   6.574
  667SOL    HW214033   0.704   0.730   6.639
  668SOL     OW14034   0.307   0.063   6.204
  668SOL    HW114035   0.296   0.157   6.237
  668SOL    HW214036   0.302   0.000   6.281
  669SOL     OW14037   1.622   0.367   5.960
  669SOL    HW114038   1.624   0.291   6.024
  669SOL    HW214039   1.574   0.444   6.000
  670SOL     OW14040   1.023   0.766   6.552
  670SOL    HW114041   1.038   0.787   6.648
  670SOL    HW214042   0.993   0.671   6.543
  671SOL     OW14043   1.540   0.274   5.711
  671SOL    HW114044   1.479   0.199   5.734
  671SOL    HW214045   1.562   0.326   5.794
  672SOL     OW14046   1.303   0.838   5.628
  672SOL    HW114047   1.337   0.745   5.643
  672SOL    HW214048   1.321   0.865   5.533
  673SOL     OW14049   1.068   1.333   6.435
  673SOL    HW114050   1.075   1.249   6.380
  673SOL    HW214051   1.130   1.402   6.399
  674SOL     OW14052   0.319   0.810   6.535
  674SOL    HW114053   0.412   0.846   6.540
  674SOL    HW214054   0.313   0.725   6.587
  675SOL     OW14055   0.339   0.509   6.592
  675SOL    HW114056   0.287   0.426   6.575
  675SOL    HW214057   0.416   0.514   6.528
  676SOL     OW14058   1.160   0.207   7.063
  676SOL    HW114059   1.160   0.271   7.140
  676SOL    HW214060   1.188   0.255   6.980
  677SOL     OW14061   0.008   1.326   5.786
  677SOL    HW114062  -0.085   1.347   5.755
  677SOL    HW214063   0.018   1.227   5.799
  678SOL     OW14064   0.088   1.801   6.513
  678SOL    HW114065   0.046   1.715   6.486
  678SOL    HW214066   0.182   1.804   6.479
  679SOL     OW14067   0.504   1.568   6.496
  679SOL    HW114068   0.570   1.642   6.505
  679SOL    HW214069   0.548   1.489   6.454
  680SOL     OW14070   1.002   0.796   6.824
  680SOL    HW114071   1.043   0.764   6.910
  680SOL    HW214072   0.906   0.769   6.821
  681SOL     OW14073   0.040   0.544   6.700
  681SOL    HW114074   0.125   0.511   6.659
  681SOL    HW214075   0.053   0.559   6.798
  682SOL     OW14076   0.815   0.572   5.911
  682SOL    HW114077   0.822   0.483   5.865
  682SOL    HW214078   0.721   0.606   5.903
  683SOL     OW14079   1.657   0.604   6.792
  683SOL    HW114080   1.619   0.535   6.854
  683SOL    HW214081   1.739   0.568   6.748
  684SOL     OW14082   0.671   0.464   6.855
  684SOL    HW114083   0.637   0.375   6.825
  684SOL    HW214084   0.697   0.518   6.775
  685SOL     OW14085   0.930   1.678   7.051
  685SOL    HW114086   0.906   1.660   6.956
  685SOL    HW214087   0.960   1.772   7.061
  686SOL     OW14088   0.473   0.500   5.777
  686SOL    HW114089   0.534   0.580   5.781
  686SOL    HW214090   0.378   0.531   5.784
  687SOL     OW14091   0.159   1.137   7.052
  687SOL    HW114092   0.181   1.076   7.128
  687SOL    HW214093   0.169   1.088   6.966
  688SOL     OW14094   1.347   1.059   6.820
  688SOL    HW114095   1.371   0.996   6.746
  688SOL    HW214096   1.257   1.099   6.802
  689SOL     OW14097   1.302   0.855   5.895
  689SOL    HW114098   1.216   0.824   5.937
  689SOL    HW214099   1.298   0.841   5.796
  690SOL     OW14100   1.759   1.747   6.740
  690SOL    HW114101   1.820   1.777   6.667
  690SOL    HW214102   1.721   1.658   6.718
  691SOL     OW14103   1.252   1.731   6.714
  691SOL    HW114104   1.336   1.736   6.660
  691SOL    HW214105   1.229   1.635   6.732
  692SOL     OW14106   0.083   1.258   6.608
  692SOL    HW114107   0.078   1.257   6.708
  692SOL    HW214108   0.000   1.217   6.570
  693SOL     OW14109   1.726   0.135   6.109
  693SOL    HW114110   1.799   0.118   6.042
  693SOL    HW214111   1.695   0.048   6.147
  694SOL     OW14112   1.388   1.573   6.063
  694SOL    HW114113   1.455   1.585   5.989
  694SOL    HW214114   1.348   1.662   6.086
  695SOL     OW14115   1.280   0.927   6.258
  695SOL    HW114116   1.340   0.846   6.260
  695SOL    HW214117   1.320   0.996   6.198
  696SOL     OW14118   0.672   1.616   5.740
  696SOL    HW114119   0.681   1.626   5.641
  696SOL    HW214120   0.632   1.527   5.761
  697SOL     OW14121   1.841   0.175   6.549
  697SOL    HW114122   1.880   0.090   6.513
  697SOL    HW214123   1.743   0.177   6.530
  698SOL     OW14124   0.263   0.326   6.306
  698SOL    HW114125   0.184   0.377   6.272
  698SOL    HW214126   0.254   0.311   6.404
  699SOL     OW14127   1.194   1.612   5.617
  699SOL    HW114128   1.200   1.519   5.654
  699SOL    HW214129   1.135   1.612   5.537
  700SOL     OW14130   0.822   1.002   6.958
  700SOL    HW114131   0.862   1.001   6.866
  700SOL    HW214132   0.832   1.094   6.998
  701SOL     OW14133   0.916   0.910   5.877
  701SOL    HW114134   0.979   0.948   5.809
  701SOL    HW214135   0.956   0.827   5.916
  702SOL     OW14136   1.504   1.607   5.630
  702SOL    HW114137   1.412   1.644   5.637
  702SOL    HW214138   1.542   1.627   5.540
  703SOL     OW14139   0.372   1.288   7.076
  703SOL    HW114140   0.359   1.381   7.042
  703SOL    HW214141   0.288   1.236   7.063
  704SOL     OW14142   1.614   1.292   6.875
  704SOL    HW114143   1.674   1.295   6.955
  704SOL    HW214144   1.539   1.356   6.888
  705SOL     OW14145   1.039   1.098   6.282
  705SOL    HW114146   0.969   1.051   6.336
  705SOL    HW214147   1.098   1.030   6.239
  706SOL     OW14148   1.014   0.236   6.557
  706SOL    HW114149   1.006   0.200   6.464
  706SOL    HW214150   1.012   0.160   6.622
  707SOL     OW14151   0.590   1.487   6.077
  707SOL    HW114152   0.632   1.429   6.007
  707SOL    HW214153   0.546   1.566   6.033
  708SOL     OW14154   1.709   0.385   6.967
  708SOL    HW114155   1.782   0.454   6.971
  708SOL    HW214156   1.737   0.310   6.908
  709SOL     OW14157   0.255   1.348   5.876
  709SOL    HW114158   0.159   1.349   5.849
  709SOL    HW214159   0.267   1.401   5.960
  710SOL     OW14160   0.075   0.345   5.619
  710SOL    HW114161  -0.017   0.317   5.590
  710SOL    HW214162   0.106   0.422   5.563
  711SOL     OW14163   0.072   0.166   5.904
  711SOL    HW114164   0.055   0.249   5.850
  711SOL    HW214165   0.162   0.129   5.882
  712SOL     OW14166   1.183   1.335   5.705
  712SOL    HW114167   1.084   1.324   5.707
  712SOL    HW214168   1.217   1.350   5.798
  713SOL     OW14169   0.613   0.842   7.017
  713SOL    HW114170   0.669   0.923   7.000
  713SOL    HW214171   0.672   0.762   7.020
  714SOL     OW14172   1.493   1.767   6.545
  714SOL    HW114173   1.526   1.831   6.476
  714SOL    HW214174   1.559   1.761   6.620
  715SOL     OW14175   0.390   1.741   7.146
  715SOL    HW114176   0.299   1.782   7.144
  715SOL    HW214177   0.383   1.647   7.178
  716SOL     OW14178   1.674   0.883   6.840
  716SOL    HW114179   1.647   0.794   6.803
  716SOL    HW214180   1.675   0.951   6.767
  717SOL     OW14181   1.225   0.325   6.035
  717SOL    HW114182   1.290   0.251   6.024
  717SOL    HW214183   1.245   0.375   6.119
  718SOL     OW14184   0.594   0.745   6.238
  718SOL    HW114185   0.644   0.830   6.219
  718SOL    HW214186   0.506   0.747   6.190
  719SOL     OW14187   1.730   0.934   7.103
  719SOL    HW114188   1.768   1.025   7.118
  719SOL    HW214189   1.722   0.917   7.004
  720SOL     OW14190   0.859   1.374   5.602
  720SOL    HW114191   0.813   1.389   5.690
  720SOL    HW214192   0.903   1.459   5.572
  721SOL     OW14193   0.661   1.790   6.539
  721SOL    HW114194   0.615   1.878   6.526
  721SOL    HW214195   0.760   1.802   6.532
  722SOL     OW14196   0.859   0.956   6.447
  722SOL    HW114197   0.913   0.887   6.495
  722SOL    HW214198   0.827   1.025   6.513
  723SOL     OW14199   1.083   0.984   5.673
  723SOL    HW114200   1.060   1.037   5.591
  723SOL    HW214201   1.164   0.928   5.654
  724SOL     OW14202   1.861   1.569   6.437
  724SOL    HW114203   1.790   1.557   6.367
  724SOL    HW214204   1.862   1.490   6.497
  725SOL     OW14205   0.079   1.240   6.239
  725SOL    HW114206   0.078   1.193   6.327
  725SOL    HW214207   0.161   1.212   6.188
  726SOL     OW14208   1.824   0.192   6.813
  726SOL    HW114209   1.820   0.102   6.857
  726SOL    HW214210   1.827   0.181   6.714
  727SOL     OW14211   0.428   0.424   6.106
  727SOL    HW114212   0.458   0.352   6.044
  727SOL    HW214213   0.389   0.384   6.189
  728SOL     OW14214   1.705   1.487   6.690
  728SOL    HW114215   1.612   1.462   6.663
  728SOL    HW214216   1.731   1.437   6.772
  729SOL     OW14217   0.317   0.547   6.866
  729SOL    HW114218   0.355   0.488   6.938
  729SOL    HW214219   0.357   0.521   6.778
  730SOL     OW14220   0.812   1.586   6.273
  730SOL    HW114221   0.844   1.596   6.179
  730SOL    HW214222   0.733   1.524   6.275
  731SOL     OW14223   1.424   0.214   6.698
  731SOL    HW114224   1.476   0.149   6.753
  731SOL    HW214225   1.375   0.277   6.759
  732SOL     OW14226   1.001   0.034   6.740
  732SOL    HW114227   0.938  -0.038   6.709
  732SOL    HW214228   1.094  -0.002   6.740
  733SOL     OW14229   0.770   1.330   5.887
  733SOL    HW114230   0.724   1.243   5.904
  733SOL    HW214231   0.861   1.327   5.928
  734SOL     OW14232   0.618   1.567   6.870
  734SOL    HW114233   0.613   1.649   6.927
  734SOL    HW214234   0.707   1.564   6.825
  735SOL     OW14235   1.352   0.052   5.754
  735SOL    HW114236   1.387   0.011   5.670
  735SOL    HW214237   1.262   0.014   5.774
  736SOL     OW14238   1.300   0.453   6.277
  736SOL    HW114239   1.241   0.533   6.281
  736SOL    HW214240   1.315   0.418   6.370
  737SOL     OW14241   1.593   0.221   6.468
  737SOL    HW114242   1.509   0.220   6.522
  737SOL    HW214243   1.595   0.304   6.412
  738SOL     OW14244   0.039   1.077   5.886
  738SOL    HW114245   0.138   1.066   5.877
  738SOL    HW214246  -0.001   0.991   5.918
  739SOL     OW14247   0.875   1.646   5.923
  739SOL    HW114248   0.798   1.611   5.869
  739SOL    HW214249   0.843   1.717   5.985
  740SOL     OW14250   0.230   2.490   0.113
  740SOL    HW114251   0.137   2.488   0.150
  740SOL    HW214252   0.231   2.451   0.021
  741SOL     OW14253   0.225   2.137   0.996
  741SOL    HW114254   0.260   2.120   1.088
  741SOL    HW214255   0.137   2.092   0.984
  742SOL     OW14256   0.019   2.230   0.647
  742SOL    HW114257  -0.063   2.273   0.686
  742SOL    HW214258  -0.009   2.157   0.584
  743SOL     OW14259   0.569   3.137   1.165
  743SOL    HW114260   0.476   3.130   1.128
  743SOL    HW214261   0.580   3.226   1.209
  744SOL     OW14262   1.555   3.373   0.703
  744SOL    HW114263   1.498   3.357   0.784
  744SOL    HW214264   1.496   3.383   0.623
  745SOL     OW14265   1.135   2.565   0.717
  745SOL    HW114266   1.192   2.643   0.692
  745SOL    HW214267   1.075   2.591   0.793
  746SOL     OW14268   1.755   2.469   0.231
  746SOL    HW114269   1.743   2.456   0.132
  746SOL    HW214270   1.725   2.388   0.280
  747SOL     OW14271   0.768   3.006   1.023
  747SOL    HW114272   0.690   3.023   1.083
  747SOL    HW214273   0.802   3.093   0.987
  748SOL     OW14274   0.685   2.874   0.665
  748SOL    HW114275   0.754   2.858   0.735
  748SOL    HW214276   0.612   2.931   0.703
  749SOL     OW14277   0.335   3.297   1.061
  749SOL    HW114278   0.257   3.266   1.008
  749SOL    HW214279   0.393   3.355   1.004
  750SOL     OW14280   1.460   3.367   1.339
  750SOL    HW114281   1.484   3.461   1.365
  750SOL    HW214282   1.444   3.313   1.421
  751SOL     OW14283   0.438   2.254   1.499
  751SOL    HW114284   0.520   2.198   1.508
  751SOL    HW214285   0.357   2.196   1.503
  752SOL     OW14286   1.603   2.309   0.737
  752SOL    HW114287   1.529   2.355   0.687
  752SOL    HW214288   1.654   2.377   0.790
  753SOL     OW14289   0.231   3.575   0.483
  753SOL    HW114290   0.265   3.652   0.537
  753SOL    HW214291   0.275   3.575   0.393
  754SOL     OW14292   0.230   3.296   0.538
  754SOL    HW114293   0.204   3.392   0.538
  754SOL    HW214294   0.159   3.242   0.583
  755SOL     OW14295   0.240   2.953   0.886
  755SOL    HW114296   0.254   2.869   0.938
  755SOL    HW214297   0.185   3.017   0.941
  756SOL     OW14298   0.606   2.826   0.123
  756SOL    HW114299   0.613   2.910   0.069
  756SOL    HW214300   0.652   2.839   0.211
  757SOL     OW14301   0.122   2.505   0.563
  757SOL    HW114302   0.077   2.417   0.580
  757SOL    HW214303   0.121   2.559   0.647
  758SOL     OW14304   1.842   3.629   0.359
  758SOL    HW114305   1.896   3.600   0.439
  758SOL    HW214306   1.872   3.719   0.330
  759SOL     OW14307   0.027   3.458   0.117
  759SOL    HW114308   0.008   3.362   0.138
  759SOL    HW214309  -0.006   3.516   0.192
  760SOL     OW14310   1.689   2.784   0.612
  760SOL    HW114311   1.784   2.755   0.620
  760SOL    HW214312   1.681   2.849   0.537
  761SOL     OW14313   1.641   2.970   0.432
  761SOL    HW114314   1.727   2.972   0.380
  761SOL    HW214315   1.655   3.017   0.520
  762SOL     OW14316   0.613   3.227   0.726
  762SOL    HW114317   0.564   3.140   0.735
  762SOL    HW214318   0.590   3.270   0.639
  763SOL     OW14319   0.809   1.866   0.502
  763SOL    HW114320   0.849   1.957   0.493
  763SOL    HW214321   0.709   1.874   0.508
  764SOL     OW14322   1.525   2.861   0.190
  764SOL    HW114323   1.462   2.785   0.203
  764SOL    HW214324   1.573   2.879   0.276
  765SOL     OW14325   1.667   3.576   0.572
  765SOL    HW114326   1.626   3.553   0.484
  765SOL    HW214327   1.649   3.502   0.637
  766SOL     OW14328   0.598   2.591   0.270
  766SOL    HW114329   0.622   2.660   0.202
  766SOL    HW214330   0.520   2.624   0.324
  767SOL     OW14331   1.281   2.207   0.944
  767SOL    HW114332   1.195   2.157   0.931
  767SOL    HW214333   1.343   2.153   1.000
  768SOL     OW14334   1.576   3.524   0.307
  768SOL    HW114335   1.665   3.570   0.310
  768SOL    HW214336   1.555   3.500   0.212
  769SOL     OW14337   0.807   2.467   1.465
  769SOL    HW114338   0.760   2.464   1.554
  769SOL    HW214339   0.756   2.412   1.399
  770SOL     OW14340   0.973   2.752   1.572
  770SOL    HW114341   1.019   2.668   1.543
  770SOL    HW214342   0.917   2.786   1.497
  771SOL     OW14343   1.041   2.563   0.429
  771SOL    HW114344   1.067   2.559   0.525
  771SOL    HW214345   0.956   2.512   0.415
  772SOL     OW14346   0.076   2.673   0.789
  772SOL    HW114347   0.175   2.661   0.798
  772SOL    HW214348   0.052   2.768   0.810
  773SOL     OW14349   0.130   3.683   1.571
  773SOL    HW114350   0.120   3.668   1.670
  773SOL    HW214351   0.044   3.719   1.535
  774SOL     OW14352   0.865   2.210   0.195
  774SOL    HW114353   0.924   2.273   0.146
  774SOL    HW214354   0.884   2.116   0.166
  775SOL     OW14355   1.719   2.447   1.831
  775SOL    HW114356   1.693   2.536   1.795
  775SOL    HW214357   1.717   2.379   1.758
  776SOL     OW14358   1.362   3.006   0.545
  776SOL    HW114359   1.445   2.977   0.497
  776SOL    HW214360   1.313   3.073   0.489
  777SOL     OW14361   0.550   2.058   0.885
  777SOL    HW114362   0.545   2.053   0.985
  777SOL    HW214363   0.552   2.154   0.856
  778SOL     OW14364   1.008   3.318   0.477
  778SOL    HW114365   0.962   3.390   0.425
  778SOL    HW214366   1.004   3.338   0.575
  779SOL     OW14367   0.351   3.663   0.853
  779SOL    HW114368   0.401   3.577   0.859
  779SOL    HW214369   0.416   3.740   0.850
  780SOL     OW14370   1.795   2.928   0.873
  780SOL    HW114371   1.733   2.913   0.797
  780SOL    HW214372   1.743   2.939   0.958
  781SOL     OW14373   0.321   2.805   0.242
  781SOL    HW114374   0.403   2.844   0.200
  781SOL    HW214375   0.294   2.723   0.193
  782SOL     OW14376   1.458   2.597   0.728
  782SOL    HW114377   1.453   2.532   0.803
  782SOL    HW214378   1.538   2.656   0.741
  783SOL     OW14379   1.111   3.638   0.237
  783SOL    HW114380   1.051   3.576   0.287
  783SOL    HW214381   1.142   3.594   0.152
  784SOL     OW14382   0.202   2.147   1.498
  784SOL    HW114383   0.122   2.207   1.485
  784SOL    HW214384   0.192   2.098   1.584
  785SOL     OW14385   1.632   3.239   0.081
  785SOL    HW114386   1.600   3.333   0.071
  785SOL    HW214387   1.556   3.176   0.069
  786SOL     OW14388   0.464   3.605   0.323
  786SOL    HW114389   0.497   3.644   0.409
  786SOL    HW214390   0.540   3.598   0.258
  787SOL     OW14391   1.400   1.969   0.426
  787SOL    HW114392   1.376   1.932   0.336
  787SOL    HW214393   1.499   1.985   0.430
  788SOL     OW14394   0.940   3.560   0.904
  788SOL    HW114395   1.020   3.503   0.925
  788SOL    HW214396   0.891   3.520   0.827
  789SOL     OW14397   0.382   2.562   0.480
  789SOL    HW114398   0.427   2.472   0.477
  789SOL    HW214399   0.288   2.551   0.513
  790SOL     OW14400   1.351   2.452   1.433
  790SOL    HW114401   1.379   2.409   1.518
  790SOL    HW214402   1.376   2.548   1.434
  791SOL     OW14403   0.803   3.264   0.924
  791SOL    HW114404   0.893   3.278   0.882
  791SOL    HW214405   0.732   3.266   0.853
  792SOL     OW14406   0.922   2.365   0.899
  792SOL    HW114407   0.897   2.356   0.803
  792SOL    HW214408   0.970   2.283   0.930
  793SOL     OW14409   0.539   1.926   0.512
  793SOL    HW114410   0.458   1.927   0.570
  793SOL    HW214411   0.542   2.009   0.457
  794SOL     OW14412   1.434   3.050   0.041
  794SOL    HW114413   1.466   2.974   0.098
  794SOL    HW214414   1.342   3.077   0.071
  795SOL     OW14415   0.935   2.098   0.480
  795SOL    HW114416   0.887   2.139   0.402
  795SOL    HW214417   1.034   2.096   0.461
  796SOL     OW14418   1.076   2.545   1.464
  796SOL    HW114419   0.996   2.484   1.467
  796SOL    HW214420   1.157   2.492   1.440
  797SOL     OW14421   0.459   3.014   0.741
  797SOL    HW114422   0.388   2.987   0.806
  797SOL    HW214423   0.433   2.986   0.648
  798SOL     OW14424   1.271   3.659   0.591
  798SOL    HW114425   1.315   3.723   0.527
  798SOL    HW214426   1.221   3.711   0.661
  799SOL     OW14427   1.032   2.411   0.016
  799SOL    HW114428   0.991   2.493  -0.023
  799SOL    HW214429   1.096   2.437   0.089
  800SOL     OW14430   0.561   2.084   1.147
  800SOL    HW114431   0.599   2.000   1.184
  800SOL    HW214432   0.473   2.103   1.191
  801SOL     OW14433   0.866   2.316   0.642
  801SOL    HW114434   0.834   2.388   0.580
  801SOL    HW214435   0.890   2.235   0.589
  802SOL     OW14436   1.017   1.901   0.753
  802SOL    HW114437   0.945   1.906   0.684
  802SOL    HW214438   0.993   1.832   0.822
  803SOL     OW14439   1.429   3.035   0.867
  803SOL    HW114440   1.374   2.951   0.860
  803SOL    HW214441   1.455   3.064   0.775
  804SOL     OW14442   1.466   2.452   0.992
  804SOL    HW114443   1.436   2.357   0.999
  804SOL    HW214444   1.539   2.468   1.058
  805SOL     OW14445   1.857   2.695   0.377
  805SOL    HW114446   1.899   2.631   0.441
  805SOL    HW214447   1.819   2.644   0.299
  806SOL     OW14448   0.488   3.247   0.174
  806SOL    HW114449   0.401   3.232   0.221
  806SOL    HW214450   0.471   3.273   0.079
  807SOL     OW14451   1.664   3.142   0.657
  807SOL    HW114452   1.763   3.150   0.671
  807SOL    HW214453   1.619   3.226   0.688
  808SOL     OW14454   1.390   2.437   0.078
  808SOL    HW114455   1.336   2.416   0.159
  808SOL    HW214456   1.481   2.396   0.087
  809SOL     OW14457   0.527   2.118   0.328
  809SOL    HW114458   0.554   2.059   0.253
  809SOL    HW214459   0.527   2.213   0.297
  810SOL     OW14460   1.111   3.057   1.100
  810SOL    HW114461   1.071   3.101   1.181
  810SOL    HW214462   1.070   3.094   1.017
  811SOL     OW14463   1.638   2.961   1.079
  811SOL    HW114464   1.643   3.042   1.138
  811SOL    HW214465   1.552   2.963   1.028
  812SOL     OW14466   0.705   2.912   0.368
  812SOL    HW114467   0.691   2.919   0.467
  812SOL    HW214468   0.789   2.861   0.350
  813SOL     OW14469   0.367   2.962   0.501
  813SOL    HW114470   0.360   3.045   0.445
  813SOL    HW214471   0.371   2.882   0.441
  814SOL     OW14472   0.566   2.399   0.865
  814SOL    HW114473   0.578   2.465   0.791
  814SOL    HW214474   0.612   2.433   0.948
  815SOL     OW14475   1.252   3.210   0.388
  815SOL    HW114476   1.302   3.287   0.428
  815SOL    HW214477   1.157   3.212   0.420
  816SOL     OW14478   1.272   3.307   1.142
  816SOL    HW114479   1.319   3.320   1.229
  816SOL    HW214480   1.206   3.233   1.151
  817SOL     OW14481   1.582   2.501   0.472
  817SOL    HW114482   1.551   2.562   0.545
  817SOL    HW214483   1.632   2.553   0.403
  818SOL     OW14484   1.013   1.967   1.770
  818SOL    HW114485   1.019   2.052   1.718
  818SOL    HW214486   1.045   1.891   1.713
  819SOL     OW14487   1.360   2.724   1.045
  819SOL    HW114488   1.285   2.724   0.979
  819SOL    HW214489   1.397   2.632   1.054
  820SOL     OW14490   1.209   2.387   0.275
  820SOL    HW114491   1.222   2.303   0.329
  820SOL    HW214492   1.180   2.461   0.335
  821SOL     OW14493   0.307   2.075   1.231
  821SOL    HW114494   0.284   2.112   1.321
  821SOL    HW214495   0.277   1.980   1.225
  822SOL     OW14496   0.732   2.496   1.064
  822SOL    HW114497   0.791   2.470   0.988
  822SOL    HW214498   0.704   2.592   1.053
  823SOL     OW14499   0.307   1.925   0.618
  823SOL    HW114500   0.296   2.019   0.651
  823SOL    HW214501   0.302   1.862   0.695
  824SOL     OW14502   1.622   2.229   0.374
  824SOL    HW114503   1.624   2.153   0.438
  824SOL    HW214504   1.574   2.306   0.414
  825SOL     OW14505   1.023   2.628   0.966
  825SOL    HW114506   1.038   2.649   1.062
  825SOL    HW214507   0.993   2.533   0.957
  826SOL     OW14508   0.980   3.435   1.700
  826SOL    HW114509   0.960   3.479   1.612
  826SOL    HW214510   1.019   3.344   1.684
  827SOL     OW14511   0.350   2.760   1.804
  827SOL    HW114512   0.426   2.804   1.852
  827SOL    HW214513   0.385   2.713   1.722
  828SOL     OW14514   1.540   2.136   0.125
  828SOL    HW114515   1.479   2.061   0.148
  828SOL    HW214516   1.562   2.188   0.208
  829SOL     OW14517   1.303   2.700   0.042
  829SOL    HW114518   1.337   2.607   0.057
  829SOL    HW214519   1.321   2.727  -0.053
  830SOL     OW14520   1.068   3.195   0.849
  830SOL    HW114521   1.075   3.111   0.794
  830SOL    HW214522   1.130   3.264   0.813
  831SOL     OW14523   0.319   2.672   0.949
  831SOL    HW114524   0.412   2.708   0.954
  831SOL    HW214525   0.313   2.587   1.001
  832SOL     OW14526   0.339   2.371   1.006
  832SOL    HW114527   0.287   2.288   0.989
  832SOL    HW214528   0.416   2.376   0.942
  833SOL     OW14529   1.138   2.242   1.678
  833SOL    HW114530   1.093   2.305   1.742
  833SOL    HW214531   1.231   2.273   1.661
  834SOL     OW14532   0.008   3.188   0.200
  834SOL    HW114533  -0.085   3.209   0.169
  834SOL    HW214534   0.018   3.089   0.213
  835SOL     OW14535   0.088   3.663   0.927
  835SOL    HW114536   0.046   3.577   0.900
  835SOL    HW214537   0.182   3.666   0.893
  836SOL     OW14538   0.504   3.430   0.910
  836SOL    HW114539   0.570   3.504   0.919
  836SOL    HW214540   0.548   3.351   0.868
  837SOL     OW14541   1.002   2.658   1.238
  837SOL    HW114542   1.043   2.626   1.324
  837SOL    HW214543   0.906   2.631   1.235
  838SOL     OW14544   0.040   2.406   1.114
  838SOL    HW114545   0.125   2.373   1.073
  838SOL    HW214546   0.053   2.421   1.212
  839SOL     OW14547   0.815   2.434   0.325
  839SOL    HW114548   0.822   2.345   0.279
  839SOL    HW214549   0.721   2.468   0.317
  840SOL     OW14550   1.657   2.466   1.206
  840SOL    HW114551   1.619   2.397   1.268
  840SOL    HW214552   1.739   2.430   1.162
  841SOL     OW14553   0.671   2.326   1.269
  841SOL    HW114554   0.637   2.237   1.239
  841SOL    HW214555   0.697   2.380   1.189
  842SOL     OW14556   0.473   2.362   0.191
  842SOL    HW114557   0.534   2.442   0.195
  842SOL    HW214558   0.378   2.393   0.198
  843SOL     OW14559   1.347   2.921   1.234
  843SOL    HW114560   1.371   2.858   1.160
  843SOL    HW214561   1.257   2.961   1.216
  844SOL     OW14562   1.302   2.717   0.309
  844SOL    HW114563   1.216   2.686   0.351
  844SOL    HW214564   1.298   2.703   0.210
  845SOL     OW14565   1.759   3.609   1.154
  845SOL    HW114566   1.820   3.639   1.081
  845SOL    HW214567   1.721   3.520   1.132
  846SOL     OW14568   0.083   3.120   1.022
  846SOL    HW114569   0.078   3.119   1.122
  846SOL    HW214570   0.000   3.079   0.984
  847SOL     OW14571   0.903   1.948   0.133
  847SOL    HW114572   0.954   1.949   0.047
  847SOL    HW214573   0.959   1.906   0.204
  848SOL     OW14574   1.726   1.997   0.523
  848SOL    HW114575   1.799   1.980   0.456
  848SOL    HW214576   1.695   1.910   0.561
  849SOL     OW14577   1.388   3.435   0.477
  849SOL    HW114578   1.455   3.447   0.403
  849SOL    HW214579   1.348   3.524   0.500
  850SOL     OW14580   1.280   2.789   0.672
  850SOL    HW114581   1.340   2.708   0.674
  850SOL    HW214582   1.320   2.858   0.612
  851SOL     OW14583   0.830   3.135   1.422
  851SOL    HW114584   0.825   3.168   1.517
  851SOL    HW214585   0.744   3.154   1.376
  852SOL     OW14586   0.672   3.478   0.154
  852SOL    HW114587   0.681   3.488   0.055
  852SOL    HW214588   0.632   3.389   0.175
  853SOL     OW14589   1.841   2.037   0.963
  853SOL    HW114590   1.880   1.952   0.927
  853SOL    HW214591   1.743   2.039   0.944
  854SOL     OW14592   0.263   2.188   0.720
  854SOL    HW114593   0.184   2.239   0.686
  854SOL    HW214594   0.254   2.173   0.818
  855SOL     OW14595   1.194   3.474   0.031
  855SOL    HW114596   1.200   3.381   0.068
  855SOL    HW214597   1.135   3.474  -0.049
  856SOL     OW14598   0.822   2.864   1.372
  856SOL    HW114599   0.862   2.863   1.280
  856SOL    HW214600   0.832   2.956   1.412
  857SOL     OW14601   0.916   2.772   0.291
  857SOL    HW114602   0.979   2.810   0.223
  857SOL    HW214603   0.956   2.689   0.330
  858SOL     OW14604   1.504   3.469   0.044
  858SOL    HW114605   1.412   3.506   0.051
  858SOL    HW214606   1.542   3.489  -0.046
  859SOL     OW14607   1.039   2.960   0.696
  859SOL    HW114608   0.969   2.913   0.750
  859SOL    HW214609   1.098   2.892   0.653
  860SOL     OW14610   1.014   2.098   0.971
  860SOL    HW114611   1.006   2.062   0.878
  860SOL    HW214612   1.012   2.022   1.036
  861SOL     OW14613   0.590   3.349   0.491
  861SOL    HW114614   0.632   3.291   0.421
  861SOL    HW214615   0.546   3.428   0.447
  862SOL     OW14616   1.709   2.247   1.381
  862SOL    HW114617   1.782   2.316   1.385
  862SOL    HW214618   1.737   2.172   1.322
  863SOL     OW14619   0.255   3.210   0.290
  863SOL    HW114620   0.159   3.211   0.263
  863SOL    HW214621   0.267   3.263   0.374
  864SOL     OW14622   0.075   2.207   0.033
  864SOL    HW114623  -0.017   2.179   0.004
  864SOL    HW214624   0.106   2.284  -0.023
  865SOL     OW14625   0.072   2.028   0.318
  865SOL    HW114626   0.055   2.111   0.264
  865SOL    HW214627   0.162   1.991   0.296
  866SOL     OW14628   1.183   3.197   0.119
  866SOL    HW114629   1.084   3.186   0.121
  866SOL    HW214630   1.217   3.212   0.212
  867SOL     OW14631   1.674   2.745   1.254
  867SOL    HW114632   1.647   2.656   1.217
  867SOL    HW214633   1.675   2.813   1.181
  868SOL     OW14634   1.225   2.187   0.449
  868SOL    HW114635   1.290   2.113   0.438
  868SOL    HW214636   1.245   2.237   0.533
  869SOL     OW14637   0.594   2.607   0.652
  869SOL    HW114638   0.644   2.692   0.633
  869SOL    HW214639   0.506   2.609   0.604
  870SOL     OW14640   0.859   3.236   0.016
  870SOL    HW114641   0.813   3.251   0.104
  870SOL    HW214642   0.903   3.321  -0.014
  871SOL     OW14643   0.661   3.652   0.953
  871SOL    HW114644   0.615   3.740   0.940
  871SOL    HW214645   0.760   3.664   0.946
  872SOL     OW14646   0.859   2.818   0.861
  872SOL    HW114647   0.913   2.749   0.909
  872SOL    HW214648   0.827   2.887   0.927
  873SOL     OW14649   1.083   2.846   0.087
  873SOL    HW114650   1.060   2.899   0.005
  873SOL    HW214651   1.164   2.790   0.068
  874SOL     OW14652   1.861   3.431   0.851
  874SOL    HW114653   1.790   3.419   0.781
  874SOL    HW214654   1.862   3.352   0.911
  875SOL     OW14655   0.079   3.102   0.653
  875SOL    HW114656   0.078   3.055   0.741
  875SOL    HW214657   0.161   3.074   0.602
  876SOL     OW14658   1.824   2.054   1.227
  876SOL    HW114659   1.820   1.964   1.271
  876SOL    HW214660   1.827   2.043   1.128
  877SOL     OW14661   0.428   2.286   0.520
  877SOL    HW114662   0.458   2.214   0.458
  877SOL    HW214663   0.389   2.246   0.603
  878SOL     OW14664   0.812   3.448   0.687
  878SOL    HW114665   0.844   3.458   0.593
  878SOL    HW214666   0.733   3.386   0.689
  879SOL     OW14667   1.424   2.076   1.112
  879SOL    HW114668   1.476   2.011   1.167
  879SOL    HW214669   1.375   2.139   1.173
  880SOL     OW14670   1.001   1.896   1.154
  880SOL    HW114671   0.938   1.824   1.123
  880SOL    HW214672   1.094   1.860   1.154
  881SOL     OW14673   0.770   3.192   0.301
  881SOL    HW114674   0.724   3.105   0.318
  881SOL    HW214675   0.861   3.189   0.342
  882SOL     OW14676   1.352   1.914   0.168
  882SOL    HW114677   1.387   1.873   0.084
  882SOL    HW214678   1.262   1.876   0.188
  883SOL     OW14679   1.300   2.315   0.691
  883SOL    HW114680   1.241   2.395   0.695
  883SOL    HW214681   1.315   2.280   0.784
  884SOL     OW14682   1.593   2.083   0.882
  884SOL    HW114683   1.509   2.082   0.936
  884SOL    HW214684   1.595   2.166   0.826
  885SOL     OW14685   0.039   2.939   0.300
  885SOL    HW114686   0.138   2.928   0.291
  885SOL    HW214687  -0.001   2.853   0.332
  886SOL     OW14688   0.875   3.508   0.337
  886SOL    HW114689   0.798   3.473   0.283
  886SOL    HW214690   0.843   3.579   0.399
  887SOL     OW14691   0.230   2.490   1.975
  887SOL    HW114692   0.137   2.488   2.012
  887SOL    HW214693   0.231   2.451   1.883
  888SOL     OW14694   0.335   3.297   2.923
  888SOL    HW114695   0.257   3.266   2.870
  888SOL    HW214696   0.393   3.355   2.866
  889SOL     OW14697   0.438   2.254   3.361
  889SOL    HW114698   0.520   2.198   3.370
  889SOL    HW214699   0.357   2.196   3.365
  890SOL     OW14700   0.231   3.575   2.345
  890SOL    HW114701   0.265   3.652   2.399
  890SOL    HW214702   0.275   3.575   2.255
  891SOL     OW14703   1.127   3.203   3.552
  891SOL    HW114704   1.174   3.203   3.640
  891SOL    HW214705   1.079   3.116   3.541
  892SOL     OW14706   0.230   3.296   2.400
  892SOL    HW114707   0.204   3.392   2.400
  892SOL    HW214708   0.159   3.242   2.445
  893SOL     OW14709   1.641   2.970   2.294
  893SOL    HW114710   1.727   2.972   2.242
  893SOL    HW214711   1.655   3.017   2.382
  894SOL     OW14712   1.466   3.279   2.815
  894SOL    HW114713   1.407   3.285   2.895
  894SOL    HW214714   1.451   3.191   2.769
  895SOL     OW14715   1.576   3.524   2.169
  895SOL    HW114716   1.665   3.570   2.172
  895SOL    HW214717   1.555   3.500   2.074
  896SOL     OW14718   1.362   3.006   2.407
  896SOL    HW114719   1.445   2.977   2.359
  896SOL    HW214720   1.313   3.073   2.351
  897SOL     OW14721   0.550   2.058   2.747
  897SOL    HW114722   0.545   2.053   2.847
  897SOL    HW214723   0.552   2.154   2.718
  898SOL     OW14724   0.351   3.663   2.715
  898SOL    HW114725   0.401   3.577   2.721
  898SOL    HW214726   0.416   3.740   2.712
  899SOL     OW14727   0.461   3.128   3.589
  899SOL    HW114728   0.411   3.129   3.503
  899SOL    HW214729   0.398   3.110   3.665
  900SOL     OW14730   1.111   3.638   2.099
  900SOL    HW114731   1.051   3.576   2.149
  900SOL    HW214732   1.142   3.594   2.014
  901SOL     OW14733   0.249   3.647   3.103
  901SOL    HW114734   0.306   3.582   3.153
  901SOL    HW214735   0.233   3.614   3.010
  902SOL     OW14736   0.614   1.984   1.979
  902SOL    HW114737   0.712   1.962   1.986
  902SOL    HW214738   0.583   1.967   1.886
  903SOL     OW14739   0.781   2.126   3.611
  903SOL    HW114740   0.848   2.065   3.654
  903SOL    HW214741   0.708   2.145   3.676
  904SOL     OW14742   0.888   3.376   3.057
  904SOL    HW114743   0.865   3.351   2.963
  904SOL    HW214744   0.949   3.307   3.096
  905SOL     OW14745   1.076   2.545   3.326
  905SOL    HW114746   0.996   2.484   3.329
  905SOL    HW214747   1.157   2.492   3.302
  906SOL     OW14748   1.227   3.432   2.655
  906SOL    HW114749   1.248   3.506   2.590
  906SOL    HW214750   1.295   3.432   2.728
  907SOL     OW14751   1.032   2.411   1.878
  907SOL    HW114752   0.991   2.493   1.839
  907SOL    HW214753   1.096   2.437   1.951
  908SOL     OW14754   0.866   2.316   2.504
  908SOL    HW114755   0.834   2.388   2.442
  908SOL    HW214756   0.890   2.235   2.451
  909SOL     OW14757   1.429   3.035   2.729
  909SOL    HW114758   1.374   2.951   2.722
  909SOL    HW214759   1.455   3.064   2.637
  910SOL     OW14760   1.638   2.961   2.941
  910SOL    HW114761   1.643   3.042   3.000
  910SOL    HW214762   1.552   2.963   2.890
  911SOL     OW14763   0.915   1.951   3.264
  911SOL    HW114764   0.940   1.931   3.169
  911SOL    HW214765   0.987   2.007   3.306
  912SOL     OW14766   0.980   2.978   3.581
  912SOL    HW114767   0.881   2.984   3.591
  912SOL    HW214768   1.003   2.898   3.525
  913SOL     OW14769   0.410   2.675   3.113
  913SOL    HW114770   0.496   2.687   3.163
  913SOL    HW214771   0.368   2.588   3.140
  914SOL     OW14772   0.064   3.426   3.193
  914SOL    HW114773   0.018   3.508   3.159
  914SOL    HW214774   0.162   3.445   3.202
  915SOL     OW14775   0.402   2.613   3.460
  915SOL    HW114776   0.470   2.668   3.413
  915SOL    HW214777   0.442   2.525   3.487
  916SOL     OW14778   1.587   2.641   3.532
  916SOL    HW114779   1.495   2.679   3.527
  916SOL    HW214780   1.647   2.688   3.467
  917SOL     OW14781   1.013   1.967   3.632
  917SOL    HW114782   1.019   2.052   3.580
  917SOL    HW214783   1.045   1.891   3.575
  918SOL     OW14784   0.504   1.912   3.602
  918SOL    HW114785   0.462   1.855   3.532
  918SOL    HW214786   0.438   1.981   3.634
  919SOL     OW14787   0.573   2.732   2.891
  919SOL    HW114788   0.617   2.821   2.882
  919SOL    HW214789   0.510   2.732   2.968
  920SOL     OW14790   0.037   3.172   3.144
  920SOL    HW114791   0.090   3.123   3.212
  920SOL    HW214792   0.059   3.270   3.149
  921SOL     OW14793   1.728   2.797   3.716
  921SOL    HW114794   1.682   2.790   3.627
  921SOL    HW214795   1.666   2.841   3.782
  922SOL     OW14796   0.980   3.435   3.562
  922SOL    HW114797   0.960   3.479   3.474
  922SOL    HW214798   1.019   3.344   3.546
  923SOL     OW14799   0.319   2.672   2.811
  923SOL    HW114800   0.412   2.708   2.816
  923SOL    HW214801   0.313   2.587   2.863
  924SOL     OW14802   0.088   3.663   2.789
  924SOL    HW114803   0.046   3.577   2.762
  924SOL    HW214804   0.182   3.666   2.755
  925SOL     OW14805   0.504   3.430   2.772
  925SOL    HW114806   0.570   3.504   2.781
  925SOL    HW214807   0.548   3.351   2.730
  926SOL     OW14808   0.040   2.406   2.976
  926SOL    HW114809   0.125   2.373   2.935
  926SOL    HW214810   0.053   2.421   3.074
  927SOL     OW14811   1.657   2.466   3.068
  927SOL    HW114812   1.619   2.397   3.130
  927SOL    HW214813   1.739   2.430   3.024
  928SOL     OW14814   0.930   3.540   3.327
  928SOL    HW114815   0.906   3.522   3.232
  928SOL    HW214816   0.960   3.634   3.337
  929SOL     OW14817   0.473   2.362   2.053
  929SOL    HW114818   0.534   2.442   2.057
  929SOL    HW214819   0.378   2.393   2.060
  930SOL     OW14820   1.347   2.921   3.096
  930SOL    HW114821   1.371   2.858   3.022
  930SOL    HW214822   1.257   2.961   3.078
  931SOL     OW14823   0.083   3.120   2.884
  931SOL    HW114824   0.078   3.119   2.984
  931SOL    HW214825   0.000   3.079   2.846
  932SOL     OW14826   1.388   3.435   2.339
  932SOL    HW114827   1.455   3.447   2.265
  932SOL    HW214828   1.348   3.524   2.362
  933SOL     OW14829   1.280   2.789   2.534
  933SOL    HW114830   1.340   2.708   2.536
  933SOL    HW214831   1.320   2.858   2.474
  934SOL     OW14832   0.263   2.188   2.582
  934SOL    HW114833   0.184   2.239   2.548
  934SOL    HW214834   0.254   2.173   2.680
  935SOL     OW14835   0.916   2.772   2.153
  935SOL    HW114836   0.979   2.810   2.085
  935SOL    HW214837   0.956   2.689   2.192
  936SOL     OW14838   1.014   2.098   2.833
  936SOL    HW114839   1.006   2.062   2.740
  936SOL    HW214840   1.012   2.022   2.898
  937SOL     OW14841   0.255   3.210   2.152
  937SOL    HW114842   0.159   3.211   2.125
  937SOL    HW214843   0.267   3.263   2.236
  938SOL     OW14844   0.105   2.875   3.588
  938SOL    HW114845   0.028   2.842   3.642
  938SOL    HW214846   0.190   2.845   3.630
  939SOL     OW14847   0.672   2.065   3.351
  939SOL    HW114848   0.762   2.049   3.311
  939SOL    HW214849   0.680   2.070   3.450
  940SOL     OW14850   0.716   2.427   3.570
  940SOL    HW114851   0.735   2.492   3.644
  940SOL    HW214852   0.776   2.347   3.579
  941SOL     OW14853   0.594   2.607   2.514
  941SOL    HW114854   0.644   2.692   2.495
  941SOL    HW214855   0.506   2.609   2.466
  942SOL     OW14856   0.661   3.652   2.815
  942SOL    HW114857   0.615   3.740   2.802
  942SOL    HW214858   0.760   3.664   2.808
  943SOL     OW14859   0.859   2.818   2.723
  943SOL    HW114860   0.913   2.749   2.771
  943SOL    HW214861   0.827   2.887   2.789
  944SOL     OW14862   0.221   3.176   3.706
  944SOL    HW114863   0.156   3.103   3.685
  944SOL    HW214864   0.225   3.190   3.804
  945SOL     OW14865   0.672   3.253   3.486
  945SOL    HW114866   0.594   3.203   3.524
  945SOL    HW214867   0.669   3.348   3.517
  946SOL     OW14868   0.317   2.409   3.142
  946SOL    HW114869   0.355   2.350   3.214
  946SOL    HW214870   0.357   2.383   3.054
  947SOL     OW14871   1.001   1.896   3.016
  947SOL    HW114872   0.938   1.824   2.985
  947SOL    HW214873   1.094   1.860   3.016
  948SOL     OW14874   0.618   3.429   3.146
  948SOL    HW114875   0.613   3.511   3.203
  948SOL    HW214876   0.707   3.426   3.101
  949SOL     OW14877   0.875   3.508   2.199
  949SOL    HW114878   0.798   3.473   2.145
  949SOL    HW214879   0.843   3.579   2.261
  950SOL     OW14880   0.019   2.230   4.371
  950SOL    HW114881  -0.063   2.273   4.410
  950SOL    HW214882  -0.009   2.157   4.308
  951SOL     OW14883   1.555   3.373   4.427
  951SOL    HW114884   1.498   3.357   4.508
  951SOL    HW214885   1.496   3.383   4.347
  952SOL     OW14886   1.135   2.565   4.441
  952SOL    HW114887   1.192   2.643   4.416
  952SOL    HW214888   1.075   2.591   4.517
  953SOL     OW14889   0.686   3.023   5.527
  953SOL    HW114890   0.746   3.102   5.541
  953SOL    HW214891   0.600   3.054   5.486
  954SOL     OW14892   1.127   3.203   5.414
  954SOL    HW114893   1.174   3.203   5.502
  954SOL    HW214894   1.079   3.116   5.403
  955SOL     OW14895   0.230   3.296   4.262
  955SOL    HW114896   0.204   3.392   4.262
  955SOL    HW214897   0.159   3.242   4.307
  956SOL     OW14898   1.594   1.976   5.204
  956SOL    HW114899   1.576   2.043   5.132
  956SOL    HW214900   1.591   2.022   5.293
  957SOL     OW14901   1.842   3.629   4.083
  957SOL    HW114902   1.896   3.600   4.163
  957SOL    HW214903   1.872   3.719   4.054
  958SOL     OW14904   0.027   3.458   3.841
  958SOL    HW114905   0.008   3.362   3.862
  958SOL    HW214906  -0.006   3.516   3.916
  959SOL     OW14907   1.641   2.970   4.156
  959SOL    HW114908   1.727   2.972   4.104
  959SOL    HW214909   1.655   3.017   4.244
  960SOL     OW14910   0.613   3.227   4.450
  960SOL    HW114911   0.564   3.140   4.459
  960SOL    HW214912   0.590   3.270   4.363
  961SOL     OW14913   1.525   2.861   3.914
  961SOL    HW114914   1.462   2.785   3.927
  961SOL    HW214915   1.573   2.879   4.000
  962SOL     OW14916   1.187   3.654   5.340
  962SOL    HW114917   1.211   3.714   5.264
  962SOL    HW214918   1.194   3.559   5.310
  963SOL     OW14919   0.598   2.591   3.994
  963SOL    HW114920   0.622   2.660   3.926
  963SOL    HW214921   0.520   2.624   4.048
  964SOL     OW14922   1.394   2.331   5.398
  964SOL    HW114923   1.374   2.374   5.486
  964SOL    HW214924   1.472   2.269   5.407
  965SOL     OW14925   0.076   2.673   4.513
  965SOL    HW114926   0.175   2.661   4.522
  965SOL    HW214927   0.052   2.768   4.534
  966SOL     OW14928   0.865   2.210   3.919
  966SOL    HW114929   0.924   2.273   3.870
  966SOL    HW214930   0.884   2.116   3.890
  967SOL     OW14931   1.719   2.447   5.555
  967SOL    HW114932   1.693   2.536   5.519
  967SOL    HW214933   1.717   2.379   5.482
  968SOL     OW14934   0.461   3.128   5.451
  968SOL    HW114935   0.411   3.129   5.365
  968SOL    HW214936   0.398   3.110   5.527
  969SOL     OW14937   0.202   2.147   5.222
  969SOL    HW114938   0.122   2.207   5.209
  969SOL    HW214939   0.192   2.098   5.308
  970SOL     OW14940   0.888   3.376   4.919
  970SOL    HW114941   0.865   3.351   4.825
  970SOL    HW214942   0.949   3.307   4.958
  971SOL     OW14943   1.351   2.452   5.157
  971SOL    HW114944   1.379   2.409   5.242
  971SOL    HW214945   1.376   2.548   5.158
  972SOL     OW14946   0.866   2.316   4.366
  972SOL    HW114947   0.834   2.388   4.304
  972SOL    HW214948   0.890   2.235   4.313
  973SOL     OW14949   1.664   3.142   4.381
  973SOL    HW114950   1.763   3.150   4.395
  973SOL    HW214951   1.619   3.226   4.412
  974SOL     OW14952   1.390   2.437   3.802
  974SOL    HW114953   1.336   2.416   3.883
  974SOL    HW214954   1.481   2.396   3.811
  975SOL     OW14955   0.527   2.118   4.052
  975SOL    HW114956   0.554   2.059   3.977
  975SOL    HW214957   0.527   2.213   4.021
  976SOL     OW14958   1.111   3.057   4.824
  976SOL    HW114959   1.071   3.101   4.905
  976SOL    HW214960   1.070   3.094   4.741
  977SOL     OW14961   1.638   2.961   4.803
  977SOL    HW114962   1.643   3.042   4.862
  977SOL    HW214963   1.552   2.963   4.752
  978SOL     OW14964   0.915   1.951   5.126
  978SOL    HW114965   0.940   1.931   5.031
  978SOL    HW214966   0.987   2.007   5.168
  979SOL     OW14967   0.980   2.978   5.443
  979SOL    HW114968   0.881   2.984   5.453
  979SOL    HW214969   1.003   2.898   5.387
  980SOL     OW14970   0.566   2.399   4.589
  980SOL    HW114971   0.578   2.465   4.515
  980SOL    HW214972   0.612   2.433   4.672
  981SOL     OW14973   1.252   3.210   4.112
  981SOL    HW114974   1.302   3.287   4.152
  981SOL    HW214975   1.157   3.212   4.144
  982SOL     OW14976   1.587   2.641   5.394
  982SOL    HW114977   1.495   2.679   5.389
  982SOL    HW214978   1.647   2.688   5.329
  983SOL     OW14979   0.504   1.912   5.464
  983SOL    HW114980   0.462   1.855   5.394
  983SOL    HW214981   0.438   1.981   5.496
  984SOL     OW14982   0.573   2.732   4.753
  984SOL    HW114983   0.617   2.821   4.744
  984SOL    HW214984   0.510   2.732   4.830
  985SOL     OW14985   1.360   2.724   4.769
  985SOL    HW114986   1.285   2.724   4.703
  985SOL    HW214987   1.397   2.632   4.778
  986SOL     OW14988   1.728   2.797   5.578
  986SOL    HW114989   1.682   2.790   5.489
  986SOL    HW214990   1.666   2.841   5.644
  987SOL     OW14991   1.023   2.628   4.690
  987SOL    HW114992   1.038   2.649   4.786
  987SOL    HW214993   0.993   2.533   4.681
  988SOL     OW14994   1.859   3.380   5.329
  988SOL    HW114995   1.873   3.407   5.234
  988SOL    HW214996   1.942   3.402   5.382
  989SOL     OW14997   1.303   2.700   3.766
  989SOL    HW114998   1.337   2.607   3.781
  989SOL    HW214999   1.321   2.727   3.671
  990SOL     OW15000   1.068   3.195   4.573
  990SOL    HW115001   1.075   3.111   4.518
  990SOL    HW215002   1.130   3.264   4.537
  991SOL     OW15003   0.339   2.371   4.730
  991SOL    HW115004   0.287   2.288   4.713
  991SOL    HW215005   0.416   2.376   4.666
  992SOL     OW15006   1.160   2.069   5.201
  992SOL    HW115007   1.160   2.133   5.278
  992SOL    HW215008   1.188   2.117   5.118
  993SOL     OW15009   0.088   3.663   4.651
  993SOL    HW115010   0.046   3.577   4.624
  993SOL    HW215011   0.182   3.666   4.617
  994SOL     OW15012   1.369   2.812   5.384
  994SOL    HW115013   1.408   2.901   5.404
  994SOL    HW215014   1.379   2.792   5.287
  995SOL     OW15015   0.815   2.434   4.049
  995SOL    HW115016   0.822   2.345   4.003
  995SOL    HW215017   0.721   2.468   4.041
  996SOL     OW15018   0.252   3.426   5.468
  996SOL    HW115019   0.222   3.483   5.544
  996SOL    HW215020   0.245   3.329   5.494
  997SOL     OW15021   0.930   3.540   5.189
  997SOL    HW115022   0.906   3.522   5.094
  997SOL    HW215023   0.960   3.634   5.199
  998SOL     OW15024   1.302   2.717   4.033
  998SOL    HW115025   1.216   2.686   4.075
  998SOL    HW215026   1.298   2.703   3.934
  999SOL     OW15027   0.083   3.120   4.746
  999SOL    HW115028   0.078   3.119   4.846
  999SOL    HW215029   0.000   3.079   4.708
 1000SOL     OW15030   0.688   3.524   5.440
 1000SOL    HW115031   0.632   3.605   5.449
 1000SOL    HW215032   0.740   3.528   5.354
 1001SOL     OW15033   1.726   1.997   4.247
 1001SOL    HW115034   1.799   1.980   4.180
 1001SOL    HW215035   1.695   1.910   4.285
 1002SOL     OW15036   0.130   3.656   5.575
 1002SOL    HW115037   0.089   3.582   5.628
 1002SOL    HW215038   0.194   3.707   5.633
 1003SOL     OW15039   1.280   2.789   4.396
 1003SOL    HW115040   1.340   2.708   4.398
 1003SOL    HW215041   1.320   2.858   4.336
 1004SOL     OW15042   0.830   3.135   5.146
 1004SOL    HW115043   0.825   3.168   5.241
 1004SOL    HW215044   0.744   3.154   5.100
 1005SOL     OW15045   0.672   3.478   3.878
 1005SOL    HW115046   0.681   3.488   3.779
 1005SOL    HW215047   0.632   3.389   3.899
 1006SOL     OW15048   0.263   2.188   4.444
 1006SOL    HW115049   0.184   2.239   4.410
 1006SOL    HW215050   0.254   2.173   4.542
 1007SOL     OW15051   1.039   2.960   4.420
 1007SOL    HW115052   0.969   2.913   4.474
 1007SOL    HW215053   1.098   2.892   4.377
 1008SOL     OW15054   0.672   2.065   5.213
 1008SOL    HW115055   0.762   2.049   5.173
 1008SOL    HW215056   0.680   2.070   5.312
 1009SOL     OW15057   0.075   2.207   3.757
 1009SOL    HW115058  -0.017   2.179   3.728
 1009SOL    HW215059   0.106   2.284   3.701
 1010SOL     OW15060   0.072   2.028   4.042
 1010SOL    HW115061   0.055   2.111   3.988
 1010SOL    HW215062   0.162   1.991   4.020
 1011SOL     OW15063   1.183   3.197   3.843
 1011SOL    HW115064   1.084   3.186   3.845
 1011SOL    HW215065   1.217   3.212   3.936
 1012SOL     OW15066   0.716   2.427   5.432
 1012SOL    HW115067   0.735   2.492   5.506
 1012SOL    HW215068   0.776   2.347   5.441
 1013SOL     OW15069   1.674   2.745   4.978
 1013SOL    HW115070   1.647   2.656   4.941
 1013SOL    HW215071   1.675   2.813   4.905
 1014SOL     OW15072   1.730   2.796   5.241
 1014SOL    HW115073   1.768   2.887   5.256
 1014SOL    HW215074   1.722   2.779   5.142
 1015SOL     OW15075   0.079   3.102   4.377
 1015SOL    HW115076   0.078   3.055   4.465
 1015SOL    HW215077   0.161   3.074   4.326
 1016SOL     OW15078   0.672   3.253   5.348
 1016SOL    HW115079   0.594   3.203   5.386
 1016SOL    HW215080   0.669   3.348   5.379
 1017SOL     OW15081   0.317   2.409   5.004
 1017SOL    HW115082   0.355   2.350   5.076
 1017SOL    HW215083   0.357   2.383   4.916
 1018SOL     OW15084   0.618   3.429   5.008
 1018SOL    HW115085   0.613   3.511   5.065
 1018SOL    HW215086   0.707   3.426   4.963
 1019SOL     OW15087   1.593   2.083   4.606
 1019SOL    HW115088   1.509   2.082   4.660
 1019SOL    HW215089   1.595   2.166   4.550
 1020SOL     OW15090   0.039   2.939   4.024
 1020SOL    HW115091   0.138   2.928   4.015
 1020SOL    HW215092  -0.001   2.853   4.056
 1021SOL     OW15093   0.875   3.508   4.061
 1021SOL    HW115094   0.798   3.473   4.007
 1021SOL    HW215095   0.843   3.579   4.123
 1022SOL     OW15096   0.230   2.490   5.699
 1022SOL    HW115097   0.137   2.488   5.736
 1022SOL    HW215098   0.231   2.451   5.607
 1023SOL     OW15099   0.225   2.137   6.582
 1023SOL    HW115100   0.260   2.120   6.674
 1023SOL    HW215101   0.137   2.092   6.570
 1024SOL     OW15102   0.019   2.230   6.233
 1024SOL    HW115103  -0.063   2.273   6.272
 1024SOL    HW215104  -0.009   2.157   6.170
 1025SOL     OW15105   0.569   3.137   6.751
 1025SOL    HW115106   0.476   3.130   6.714
 1025SOL    HW215107   0.580   3.226   6.795
 1026SOL     OW15108   1.555   3.373   6.289
 1026SOL    HW115109   1.498   3.357   6.370
 1026SOL    HW215110   1.496   3.383   6.209
 1027SOL     OW15111   1.135   2.565   6.303
 1027SOL    HW115112   1.192   2.643   6.278
 1027SOL    HW215113   1.075   2.591   6.379
 1028SOL     OW15114   1.755   2.469   5.817
 1028SOL    HW115115   1.743   2.456   5.718
 1028SOL    HW215116   1.725   2.388   5.866
 1029SOL     OW15117   0.768   3.006   6.609
 1029SOL    HW115118   0.690   3.023   6.669
 1029SOL    HW215119   0.802   3.093   6.573
 1030SOL     OW15120   0.685   2.874   6.251
 1030SOL    HW115121   0.754   2.858   6.321
 1030SOL    HW215122   0.612   2.931   6.289
 1031SOL     OW15123   0.335   3.297   6.647
 1031SOL    HW115124   0.257   3.266   6.594
 1031SOL    HW215125   0.393   3.355   6.590
 1032SOL     OW15126   0.438   2.254   7.085
 1032SOL    HW115127   0.520   2.198   7.094
 1032SOL    HW215128   0.357   2.196   7.089
 1033SOL     OW15129   1.603   2.309   6.323
 1033SOL    HW115130   1.529   2.355   6.273
 1033SOL    HW215131   1.654   2.377   6.376
 1034SOL     OW15132   0.230   3.296   6.124
 1034SOL    HW115133   0.204   3.392   6.124
 1034SOL    HW215134   0.159   3.242   6.169
 1035SOL     OW15135   0.240   2.953   6.472
 1035SOL    HW115136   0.254   2.869   6.524
 1035SOL    HW215137   0.185   3.017   6.527
 1036SOL     OW15138   0.620   3.648   7.025
 1036SOL    HW115139   0.528   3.631   7.060
 1036SOL    HW215140   0.648   3.740   7.051
 1037SOL     OW15141   0.122   2.505   6.149
 1037SOL    HW115142   0.077   2.417   6.166
 1037SOL    HW215143   0.121   2.559   6.233
 1038SOL     OW15144   1.842   3.629   5.945
 1038SOL    HW115145   1.896   3.600   6.025
 1038SOL    HW215146   1.872   3.719   5.916
 1039SOL     OW15147   1.689   2.784   6.198
 1039SOL    HW115148   1.784   2.755   6.206
 1039SOL    HW215149   1.681   2.849   6.123
 1040SOL     OW15150   1.641   2.970   6.018
 1040SOL    HW115151   1.727   2.972   5.966
 1040SOL    HW215152   1.655   3.017   6.106
 1041SOL     OW15153   0.613   3.227   6.312
 1041SOL    HW115154   0.564   3.140   6.321
 1041SOL    HW215155   0.590   3.270   6.225
 1042SOL     OW15156   0.809   1.866   6.088
 1042SOL    HW115157   0.849   1.957   6.079
 1042SOL    HW215158   0.709   1.874   6.094
 1043SOL     OW15159   0.197   2.838   6.850
 1043SOL    HW115160   0.286   2.793   6.836
 1043SOL    HW215161   0.124   2.773   6.831
 1044SOL     OW15162   1.525   2.861   5.776
 1044SOL    HW115163   1.462   2.785   5.789
 1044SOL    HW215164   1.573   2.879   5.862
 1045SOL     OW15165   1.466   3.279   6.539
 1045SOL    HW115166   1.407   3.285   6.619
 1045SOL    HW215167   1.451   3.191   6.493
 1046SOL     OW15168   1.667   3.576   6.158
 1046SOL    HW115169   1.626   3.553   6.070
 1046SOL    HW215170   1.649   3.502   6.223
 1047SOL     OW15171   1.281   2.207   6.530
 1047SOL    HW115172   1.195   2.157   6.517
 1047SOL    HW215173   1.343   2.153   6.586
 1048SOL     OW15174   1.576   3.524   5.893
 1048SOL    HW115175   1.665   3.570   5.896
 1048SOL    HW215176   1.555   3.500   5.798
 1049SOL     OW15177   0.807   2.467   7.051
 1049SOL    HW115178   0.760   2.464   7.140
 1049SOL    HW215179   0.756   2.412   6.985
 1050SOL     OW15180   0.991   2.272   6.828
 1050SOL    HW115181   0.914   2.306   6.882
 1050SOL    HW215182   0.957   2.221   6.749
 1051SOL     OW15183   1.041   2.563   6.015
 1051SOL    HW115184   1.067   2.559   6.111
 1051SOL    HW215185   0.956   2.512   6.001
 1052SOL     OW15186   0.076   2.673   6.375
 1052SOL    HW115187   0.175   2.661   6.384
 1052SOL    HW215188   0.052   2.768   6.396
 1053SOL     OW15189   0.130   3.683   7.157
 1053SOL    HW115190   0.120   3.668   7.256
 1053SOL    HW215191   0.044   3.719   7.121
 1054SOL     OW15192   1.362   3.006   6.131
 1054SOL    HW115193   1.445   2.977   6.083
 1054SOL    HW215194   1.313   3.073   6.075
 1055SOL     OW15195   0.550   2.058   6.471
 1055SOL    HW115196   0.545   2.053   6.571
 1055SOL    HW215197   0.552   2.154   6.442
 1056SOL     OW15198   1.008   3.318   6.063
 1056SOL    HW115199   0.962   3.390   6.011
 1056SOL    HW215200   1.004   3.338   6.161
 1057SOL     OW15201   0.351   3.663   6.439
 1057SOL    HW115202   0.401   3.577   6.445
 1057SOL    HW215203   0.416   3.740   6.436
 1058SOL     OW15204   1.795   2.928   6.459
 1058SOL    HW115205   1.733   2.913   6.383
 1058SOL    HW215206   1.743   2.939   6.544
 1059SOL     OW15207   0.321   2.805   5.828
 1059SOL    HW115208   0.403   2.844   5.786
 1059SOL    HW215209   0.294   2.723   5.779
 1060SOL     OW15210   1.458   2.597   6.314
 1060SOL    HW115211   1.453   2.532   6.389
 1060SOL    HW215212   1.538   2.656   6.327
 1061SOL     OW15213   1.111   3.638   5.823
 1061SOL    HW115214   1.051   3.576   5.873
 1061SOL    HW215215   1.142   3.594   5.738
 1062SOL     OW15216   0.464   3.605   5.909
 1062SOL    HW115217   0.497   3.644   5.995
 1062SOL    HW215218   0.540   3.598   5.844
 1063SOL     OW15219   1.400   1.969   6.012
 1063SOL    HW115220   1.376   1.932   5.922
 1063SOL    HW215221   1.499   1.985   6.016
 1064SOL     OW15222   0.249   3.647   6.827
 1064SOL    HW115223   0.306   3.582   6.877
 1064SOL    HW215224   0.233   3.614   6.734
 1065SOL     OW15225   0.940   3.560   6.490
 1065SOL    HW115226   1.020   3.503   6.511
 1065SOL    HW215227   0.891   3.520   6.413
 1066SOL     OW15228   0.382   2.562   6.066
 1066SOL    HW115229   0.427   2.472   6.063
 1066SOL    HW215230   0.288   2.551   6.099
 1067SOL     OW15231   0.888   3.376   6.781
 1067SOL    HW115232   0.865   3.351   6.687
 1067SOL    HW215233   0.949   3.307   6.820
 1068SOL     OW15234   0.803   3.264   6.510
 1068SOL    HW115235   0.893   3.278   6.468
 1068SOL    HW215236   0.732   3.266   6.439
 1069SOL     OW15237   0.922   2.365   6.485
 1069SOL    HW115238   0.897   2.356   6.389
 1069SOL    HW215239   0.970   2.283   6.516
 1070SOL     OW15240   0.539   1.926   6.098
 1070SOL    HW115241   0.458   1.927   6.156
 1070SOL    HW215242   0.542   2.009   6.043
 1071SOL     OW15243   1.434   3.050   5.627
 1071SOL    HW115244   1.466   2.974   5.684
 1071SOL    HW215245   1.342   3.077   5.657
 1072SOL     OW15246   0.297   1.897   5.757
 1072SOL    HW115247   0.346   1.981   5.736
 1072SOL    HW215248   0.359   1.832   5.802
 1073SOL     OW15249   0.935   2.098   6.066
 1073SOL    HW115250   0.887   2.139   5.988
 1073SOL    HW215251   1.034   2.096   6.047
 1074SOL     OW15252   1.227   3.432   6.379
 1074SOL    HW115253   1.248   3.506   6.314
 1074SOL    HW215254   1.295   3.432   6.452
 1075SOL     OW15255   0.459   3.014   6.327
 1075SOL    HW115256   0.388   2.987   6.392
 1075SOL    HW215257   0.433   2.986   6.234
 1076SOL     OW15258   1.271   3.659   6.177
 1076SOL    HW115259   1.315   3.723   6.113
 1076SOL    HW215260   1.221   3.711   6.247
 1077SOL     OW15261   0.561   2.084   6.733
 1077SOL    HW115262   0.599   2.000   6.770
 1077SOL    HW215263   0.473   2.103   6.777
 1078SOL     OW15264   0.866   2.316   6.228
 1078SOL    HW115265   0.834   2.388   6.166
 1078SOL    HW215266   0.890   2.235   6.175
 1079SOL     OW15267   1.017   1.901   6.339
 1079SOL    HW115268   0.945   1.906   6.270
 1079SOL    HW215269   0.993   1.832   6.408
 1080SOL     OW15270   1.429   3.035   6.453
 1080SOL    HW115271   1.374   2.951   6.446
 1080SOL    HW215272   1.455   3.064   6.361
 1081SOL     OW15273   1.466   2.452   6.578
 1081SOL    HW115274   1.436   2.357   6.585
 1081SOL    HW215275   1.539   2.468   6.644
 1082SOL     OW15276   1.857   2.695   5.963
 1082SOL    HW115277   1.899   2.631   6.027
 1082SOL    HW215278   1.819   2.644   5.885
 1083SOL     OW15279   0.488   3.247   5.760
 1083SOL    HW115280   0.401   3.232   5.807
 1083SOL    HW215281   0.471   3.273   5.665
 1084SOL     OW15282   1.664   3.142   6.243
 1084SOL    HW115283   1.763   3.150   6.257
 1084SOL    HW215284   1.619   3.226   6.274
 1085SOL     OW15285   0.527   2.118   5.914
 1085SOL    HW115286   0.554   2.059   5.839
 1085SOL    HW215287   0.527   2.213   5.883
 1086SOL     OW15288   1.064   3.209   6.926
 1086SOL    HW115289   0.984   3.186   6.981
 1086SOL    HW215290   1.147   3.183   6.975
 1087SOL     OW15291   1.111   3.057   6.686
 1087SOL    HW115292   1.071   3.101   6.767
 1087SOL    HW215293   1.070   3.094   6.603
 1088SOL     OW15294   1.638   2.961   6.665
 1088SOL    HW115295   1.643   3.042   6.724
 1088SOL    HW215296   1.552   2.963   6.614
 1089SOL     OW15297   0.705   2.912   5.954
 1089SOL    HW115298   0.691   2.919   6.053
 1089SOL    HW215299   0.789   2.861   5.936
 1090SOL     OW15300   0.410   2.675   6.837
 1090SOL    HW115301   0.496   2.687   6.887
 1090SOL    HW215302   0.368   2.588   6.864
 1091SOL     OW15303   1.274   2.248   6.848
 1091SOL    HW115304   1.295   2.322   6.912
 1091SOL    HW215305   1.185   2.265   6.805
 1092SOL     OW15306   0.064   3.426   6.917
 1092SOL    HW115307   0.018   3.508   6.883
 1092SOL    HW215308   0.162   3.445   6.926
 1093SOL     OW15309   0.367   2.962   6.087
 1093SOL    HW115310   0.360   3.045   6.031
 1093SOL    HW215311   0.371   2.882   6.027
 1094SOL     OW15312   0.566   2.399   6.451
 1094SOL    HW115313   0.578   2.465   6.377
 1094SOL    HW215314   0.612   2.433   6.534
 1095SOL     OW15315   1.252   3.210   5.974
 1095SOL    HW115316   1.302   3.287   6.014
 1095SOL    HW215317   1.157   3.212   6.006
 1096SOL     OW15318   1.272   3.307   6.728
 1096SOL    HW115319   1.319   3.320   6.815
 1096SOL    HW215320   1.206   3.233   6.737
 1097SOL     OW15321   1.582   2.501   6.058
 1097SOL    HW115322   1.551   2.562   6.131
 1097SOL    HW215323   1.632   2.553   5.989
 1098SOL     OW15324   0.354   3.372   6.915
 1098SOL    HW115325   0.333   3.328   6.828
 1098SOL    HW215326   0.451   3.398   6.918
 1099SOL     OW15327   0.504   1.912   7.326
 1099SOL    HW115328   0.462   1.855   7.256
 1099SOL    HW215329   0.438   1.981   7.358
 1100SOL     OW15330   0.573   2.732   6.615
 1100SOL    HW115331   0.617   2.821   6.606
 1100SOL    HW215332   0.510   2.732   6.692
 1101SOL     OW15333   1.360   2.724   6.631
 1101SOL    HW115334   1.285   2.724   6.565
 1101SOL    HW215335   1.397   2.632   6.640
 1102SOL     OW15336   1.209   2.387   5.861
 1102SOL    HW115337   1.222   2.303   5.915
 1102SOL    HW215338   1.180   2.461   5.921
 1103SOL     OW15339   0.307   2.075   6.817
 1103SOL    HW115340   0.284   2.112   6.907
 1103SOL    HW215341   0.277   1.980   6.811
 1104SOL     OW15342   0.037   3.172   6.868
 1104SOL    HW115343   0.090   3.123   6.936
 1104SOL    HW215344   0.059   3.270   6.873
 1105SOL     OW15345   0.732   2.496   6.650
 1105SOL    HW115346   0.791   2.470   6.574
 1105SOL    HW215347   0.704   2.592   6.639
 1106SOL     OW15348   0.307   1.925   6.204
 1106SOL    HW115349   0.296   2.019   6.237
 1106SOL    HW215350   0.302   1.862   6.281
 1107SOL     OW15351   1.622   2.229   5.960
 1107SOL    HW115352   1.624   2.153   6.024
 1107SOL    HW215353   1.574   2.306   6.000
 1108SOL     OW15354   1.023   2.628   6.552
 1108SOL    HW115355   1.038   2.649   6.648
 1108SOL    HW215356   0.993   2.533   6.543
 1109SOL     OW15357   1.303   2.700   5.628
 1109SOL    HW115358   1.337   2.607   5.643
 1109SOL    HW215359   1.321   2.727   5.533
 1110SOL     OW15360   1.068   3.195   6.435
 1110SOL    HW115361   1.075   3.111   6.380
 1110SOL    HW215362   1.130   3.264   6.399
 1111SOL     OW15363   0.319   2.672   6.535
 1111SOL    HW115364   0.412   2.708   6.540
 1111SOL    HW215365   0.313   2.587   6.587
 1112SOL     OW15366   0.339   2.371   6.592
 1112SOL    HW115367   0.287   2.288   6.575
 1112SOL    HW215368   0.416   2.376   6.528
 1113SOL     OW15369   1.160   2.069   7.063
 1113SOL    HW115370   1.160   2.133   7.140
 1113SOL    HW215371   1.188   2.117   6.980
 1114SOL     OW15372   0.008   3.188   5.786
 1114SOL    HW115373  -0.085   3.209   5.755
 1114SOL    HW215374   0.018   3.089   5.799
 1115SOL     OW15375   0.088   3.663   6.513
 1115SOL    HW115376   0.046   3.577   6.486
 1115SOL    HW215377   0.182   3.666   6.479
 1116SOL     OW15378   0.504   3.430   6.496
 1116SOL    HW115379   0.570   3.504   6.505
 1116SOL    HW215380   0.548   3.351   6.454
 1117SOL     OW15381   1.002   2.658   6.824
 1117SOL    HW115382   1.043   2.626   6.910
 1117SOL    HW215383   0.906   2.631   6.821
 1118SOL     OW15384   0.040   2.406   6.700
 1118SOL    HW115385   0.125   2.373   6.659
 1118SOL    HW215386   0.053   2.421   6.798
 1119SOL     OW15387   1.657   2.466   6.792
 1119SOL    HW115388   1.619   2.397   6.854
 1119SOL    HW215389   1.739   2.430   6.748
 1120SOL     OW15390   0.671   2.326   6.855
 1120SOL    HW115391   0.637   2.237   6.825
 1120SOL    HW215392   0.697   2.380   6.775
 1121SOL     OW15393   0.930   3.540   7.051
 1121SOL    HW115394   0.906   3.522   6.956
 1121SOL    HW215395   0.960   3.634   7.061
 1122SOL     OW15396   0.159   2.999   7.052
 1122SOL    HW115397   0.181   2.938   7.128
 1122SOL    HW215398   0.169   2.950   6.966
 1123SOL     OW15399   1.347   2.921   6.820
 1123SOL    HW115400   1.371   2.858   6.746
 1123SOL    HW215401   1.257   2.961   6.802
 1124SOL     OW15402   1.302   2.717   5.895
 1124SOL    HW115403   1.216   2.686   5.937
 1124SOL    HW215404   1.298   2.703   5.796
 1125SOL     OW15405   1.759   3.609   6.740
 1125SOL    HW115406   1.820   3.639   6.667
 1125SOL    HW215407   1.721   3.520   6.718
 1126SOL     OW15408   1.252   3.593   6.714
 1126SOL    HW115409   1.336   3.598   6.660
 1126SOL    HW215410   1.229   3.497   6.732
 1127SOL     OW15411   0.083   3.120   6.608
 1127SOL    HW115412   0.078   3.119   6.708
 1127SOL    HW215413   0.000   3.079   6.570
 1128SOL     OW15414   1.726   1.997   6.109
 1128SOL    HW115415   1.799   1.980   6.042
 1128SOL    HW215416   1.695   1.910   6.147
 1129SOL     OW15417   1.388   3.435   6.063
 1129SOL    HW115418   1.455   3.447   5.989
 1129SOL    HW215419   1.348   3.524   6.086
 1130SOL     OW15420   1.280   2.789   6.258
 1130SOL    HW115421   1.340   2.708   6.260
 1130SOL    HW215422   1.320   2.858   6.198
 1131SOL     OW15423   0.672   3.478   5.740
 1131SOL    HW115424   0.681   3.488   5.641
 1131SOL    HW215425   0.632   3.389   5.761
 1132SOL     OW15426   1.841   2.037   6.549
 1132SOL    HW115427   1.880   1.952   6.513
 1132SOL    HW215428   1.743   2.039   6.530
 1133SOL     OW15429   0.263   2.188   6.306
 1133SOL    HW115430   0.184   2.239   6.272
 1133SOL    HW215431   0.254   2.173   6.404
 1134SOL     OW15432   0.822   2.864   6.958
 1134SOL    HW115433   0.862   2.863   6.866
 1134SOL    HW215434   0.832   2.956   6.998
 1135SOL     OW15435   0.916   2.772   5.877
 1135SOL    HW115436   0.979   2.810   5.809
 1135SOL    HW215437   0.956   2.689   5.916
 1136SOL     OW15438   0.372   3.150   7.076
 1136SOL    HW115439   0.359   3.243   7.042
 1136SOL    HW215440   0.288   3.098   7.063
 1137SOL     OW15441   1.614   3.154   6.875
 1137SOL    HW115442   1.674   3.157   6.955
 1137SOL    HW215443   1.539   3.218   6.888
 1138SOL     OW15444   1.039   2.960   6.282
 1138SOL    HW115445   0.969   2.913   6.336
 1138SOL    HW215446   1.098   2.892   6.239
 1139SOL     OW15447   1.014   2.098   6.557
 1139SOL    HW115448   1.006   2.062   6.464
 1139SOL    HW215449   1.012   2.022   6.622
 1140SOL     OW15450   0.590   3.349   6.077
 1140SOL    HW115451   0.632   3.291   6.007
 1140SOL    HW215452   0.546   3.428   6.033
 1141SOL     OW15453   1.709   2.247   6.967
 1141SOL    HW115454   1.782   2.316   6.971
 1141SOL    HW215455   1.737   2.172   6.908
 1142SOL     OW15456   0.255   3.210   5.876
 1142SOL    HW115457   0.159   3.211   5.849
 1142SOL    HW215458   0.267   3.263   5.960
 1143SOL     OW15459   0.672   2.065   7.075
 1143SOL    HW115460   0.762   2.049   7.035
 1143SOL    HW215461   0.680   2.070   7.174
 1144SOL     OW15462   0.075   2.207   5.619
 1144SOL    HW115463  -0.017   2.179   5.590
 1144SOL    HW215464   0.106   2.284   5.563
 1145SOL     OW15465   0.072   2.028   5.904
 1145SOL    HW115466   0.055   2.111   5.850
 1145SOL    HW215467   0.162   1.991   5.882
 1146SOL     OW15468   1.183   3.197   5.705
 1146SOL    HW115469   1.084   3.186   5.707
 1146SOL    HW215470   1.217   3.212   5.798
 1147SOL     OW15471   0.613   2.704   7.017
 1147SOL    HW115472   0.669   2.785   7.000
 1147SOL    HW215473   0.672   2.624   7.020
 1148SOL     OW15474   1.493   3.629   6.545
 1148SOL    HW115475   1.526   3.693   6.476
 1148SOL    HW215476   1.559   3.623   6.620
 1149SOL     OW15477   0.390   3.603   7.146
 1149SOL    HW115478   0.299   3.644   7.144
 1149SOL    HW215479   0.383   3.509   7.178
 1150SOL     OW15480   1.674   2.745   6.840
 1150SOL    HW115481   1.647   2.656   6.803
 1150SOL    HW215482   1.675   2.813   6.767
 1151SOL     OW15483   1.225   2.187   6.035
 1151SOL    HW115484   1.290   2.113   6.024
 1151SOL    HW215485   1.245   2.237   6.119
 1152SOL     OW15486   0.594   2.607   6.238
 1152SOL    HW115487   0.644   2.692   6.219
 1152SOL    HW215488   0.506   2.609   6.190
 1153SOL     OW15489   1.730   2.796   7.103
 1153SOL    HW115490   1.768   2.887   7.118
 1153SOL    HW215491   1.722   2.779   7.004
 1154SOL     OW15492   0.661   3.652   6.539
 1154SOL    HW115493   0.615   3.740   6.526
 1154SOL    HW215494   0.760   3.664   6.532
 1155SOL     OW15495   0.859   2.818   6.447
 1155SOL    HW115496   0.913   2.749   6.495
 1155SOL    HW215497   0.827   2.887   6.513
 1156SOL     OW15498   1.083   2.846   5.673
 1156SOL    HW115499   1.060   2.899   5.591
 1156SOL    HW215500   1.164   2.790   5.654
 1157SOL     OW15501   1.861   3.431   6.437
 1157SOL    HW115502   1.790   3.419   6.367
 1157SOL    HW215503   1.862   3.352   6.497
 1158SOL     OW15504   0.079   3.102   6.239
 1158SOL    HW115505   0.078   3.055   6.327
 1158SOL    HW215506   0.161   3.074   6.188
 1159SOL     OW15507   1.824   2.054   6.813
 1159SOL    HW115508   1.820   1.964   6.857
 1159SOL    HW215509   1.827   2.043   6.714
 1160SOL     OW15510   0.428   2.286   6.106
 1160SOL    HW115511   0.458   2.214   6.044
 1160SOL    HW215512   0.389   2.246   6.189
 1161SOL     OW15513   1.705   3.349   6.690
 1161SOL    HW115514   1.612   3.324   6.663
 1161SOL    HW215515   1.731   3.299   6.772
 1162SOL     OW15516   0.317   2.409   6.866
 1162SOL    HW115517   0.355   2.350   6.938
 1162SOL    HW215518   0.357   2.383   6.778
 1163SOL     OW15519   0.812   3.448   6.273
 1163SOL    HW115520   0.844   3.458   6.179
 1163SOL    HW215521   0.733   3.386   6.275
 1164SOL     OW15522   1.424   2.076   6.698
 1164SOL    HW115523   1.476   2.011   6.753
 1164SOL    HW215524   1.375   2.139   6.759
 1165SOL     OW15525   1.001   1.896   6.740
 1165SOL    HW115526   0.938   1.824   6.709
 1165SOL    HW215527   1.094   1.860   6.740
 1166SOL     OW15528   0.770   3.192   5.887
 1166SOL    HW115529   0.724   3.105   5.904
 1166SOL    HW215530   0.861   3.189   5.928
 1167SOL     OW15531   0.618   3.429   6.870
 1167SOL    HW115532   0.613   3.511   6.927
 1167SOL    HW215533   0.707   3.426   6.825
 1168SOL     OW15534   1.352   1.914   5.754
 1168SOL    HW115535   1.387   1.873   5.670
 1168SOL    HW215536   1.262   1.876   5.774
 1169SOL     OW15537   1.300   2.315   6.277
 1169SOL    HW115538   1.241   2.395   6.281
 1169SOL    HW215539   1.315   2.280   6.370
 1170SOL     OW15540   1.593   2.083   6.468
 1170SOL    HW115541   1.509   2.082   6.522
 1170SOL    HW215542   1.595   2.166   6.412
 1171SOL     OW15543   0.039   2.939   5.886
 1171SOL    HW115544   0.138   2.928   5.877
 1171SOL    HW215545  -0.001   2.853   5.918
 1172SOL     OW15546   0.875   3.508   5.923
 1172SOL    HW115547   0.798   3.473   5.869
 1172SOL    HW215548   0.843   3.579   5.985
 1173SOL     OW15549   0.230   4.352   0.113
 1173SOL    HW115550   0.137   4.350   0.150
 1173SOL    HW215551   0.231   4.313   0.021
 1174SOL     OW15552   0.225   3.999   0.996
 1174SOL    HW115553   0.260   3.982   1.088
 1174SOL    HW215554   0.137   3.954   0.984
 1175SOL     OW15555   0.019   4.092   0.647
 1175SOL    HW115556  -0.063   4.135   0.686
 1175SOL    HW215557  -0.009   4.019   0.584
 1176SOL     OW15558   1.555   5.235   0.703
 1176SOL    HW115559   1.498   5.219   0.784
 1176SOL    HW215560   1.496   5.245   0.623
 1177SOL     OW15561   1.135   4.427   0.717
 1177SOL    HW115562   1.192   4.505   0.692
 1177SOL    HW215563   1.075   4.453   0.793
 1178SOL     OW15564   1.755   4.331   0.231
 1178SOL    HW115565   1.743   4.318   0.132
 1178SOL    HW215566   1.725   4.250   0.280
 1179SOL     OW15567   0.768   4.868   1.023
 1179SOL    HW115568   0.690   4.885   1.083
 1179SOL    HW215569   0.802   4.955   0.987
 1180SOL     OW15570   0.685   4.736   0.665
 1180SOL    HW115571   0.754   4.720   0.735
 1180SOL    HW215572   0.612   4.793   0.703
 1181SOL     OW15573   0.335   5.159   1.061
 1181SOL    HW115574   0.257   5.128   1.008
 1181SOL    HW215575   0.393   5.217   1.004
 1182SOL     OW15576   1.603   4.171   0.737
 1182SOL    HW115577   1.529   4.217   0.687
 1182SOL    HW215578   1.654   4.239   0.790
 1183SOL     OW15579   0.231   5.437   0.483
 1183SOL    HW115580   0.265   5.514   0.537
 1183SOL    HW215581   0.275   5.437   0.393
 1184SOL     OW15582   1.127   5.065   1.690
 1184SOL    HW115583   1.174   5.065   1.778
 1184SOL    HW215584   1.079   4.978   1.679
 1185SOL     OW15585   0.230   5.158   0.538
 1185SOL    HW115586   0.204   5.254   0.538
 1185SOL    HW215587   0.159   5.104   0.583
 1186SOL     OW15588   0.240   4.815   0.886
 1186SOL    HW115589   0.254   4.731   0.938
 1186SOL    HW215590   0.185   4.879   0.941
 1187SOL     OW15591   0.606   4.688   0.123
 1187SOL    HW115592   0.613   4.772   0.069
 1187SOL    HW215593   0.652   4.701   0.211
 1188SOL     OW15594   1.594   3.838   1.480
 1188SOL    HW115595   1.576   3.905   1.408
 1188SOL    HW215596   1.591   3.884   1.569
 1189SOL     OW15597   0.122   4.367   0.563
 1189SOL    HW115598   0.077   4.279   0.580
 1189SOL    HW215599   0.121   4.421   0.647
 1190SOL     OW15600   1.842   5.491   0.359
 1190SOL    HW115601   1.896   5.462   0.439
 1190SOL    HW215602   1.872   5.581   0.330
 1191SOL     OW15603   0.027   5.320   0.117
 1191SOL    HW115604   0.008   5.224   0.138
 1191SOL    HW215605  -0.006   5.378   0.192
 1192SOL     OW15606   1.689   4.646   0.612
 1192SOL    HW115607   1.784   4.617   0.620
 1192SOL    HW215608   1.681   4.711   0.537
 1193SOL     OW15609   1.641   4.832   0.432
 1193SOL    HW115610   1.727   4.834   0.380
 1193SOL    HW215611   1.655   4.879   0.520
 1194SOL     OW15612   0.613   5.089   0.726
 1194SOL    HW115613   0.564   5.002   0.735
 1194SOL    HW215614   0.590   5.132   0.639
 1195SOL     OW15615   0.809   3.728   0.502
 1195SOL    HW115616   0.849   3.819   0.493
 1195SOL    HW215617   0.709   3.736   0.508
 1196SOL     OW15618   0.197   4.700   1.264
 1196SOL    HW115619   0.286   4.655   1.250
 1196SOL    HW215620   0.124   4.635   1.245
 1197SOL     OW15621   1.525   4.723   0.190
 1197SOL    HW115622   1.462   4.647   0.203
 1197SOL    HW215623   1.573   4.741   0.276
 1198SOL     OW15624   1.187   5.516   1.616
 1198SOL    HW115625   1.211   5.576   1.540
 1198SOL    HW215626   1.194   5.421   1.586
 1199SOL     OW15627   1.466   5.141   0.953
 1199SOL    HW115628   1.407   5.147   1.033
 1199SOL    HW215629   1.451   5.053   0.907
 1200SOL     OW15630   1.667   5.438   0.572
 1200SOL    HW115631   1.626   5.415   0.484
 1200SOL    HW215632   1.649   5.364   0.637
 1201SOL     OW15633   0.598   4.453   0.270
 1201SOL    HW115634   0.622   4.522   0.202
 1201SOL    HW215635   0.520   4.486   0.324
 1202SOL     OW15636   1.281   4.069   0.944
 1202SOL    HW115637   1.195   4.019   0.931
 1202SOL    HW215638   1.343   4.015   1.000
 1203SOL     OW15639   1.576   5.386   0.307
 1203SOL    HW115640   1.665   5.432   0.310
 1203SOL    HW215641   1.555   5.362   0.212
 1204SOL     OW15642   0.807   4.329   1.465
 1204SOL    HW115643   0.760   4.326   1.554
 1204SOL    HW215644   0.756   4.274   1.399
 1205SOL     OW15645   1.041   4.425   0.429
 1205SOL    HW115646   1.067   4.421   0.525
 1205SOL    HW215647   0.956   4.374   0.415
 1206SOL     OW15648   0.076   4.535   0.789
 1206SOL    HW115649   0.175   4.523   0.798
 1206SOL    HW215650   0.052   4.630   0.810
 1207SOL     OW15651   0.130   5.545   1.571
 1207SOL    HW115652   0.120   5.530   1.670
 1207SOL    HW215653   0.044   5.581   1.535
 1208SOL     OW15654   0.865   4.072   0.195
 1208SOL    HW115655   0.924   4.135   0.146
 1208SOL    HW215656   0.884   3.978   0.166
 1209SOL     OW15657   1.362   4.868   0.545
 1209SOL    HW115658   1.445   4.839   0.497
 1209SOL    HW215659   1.313   4.935   0.489
 1210SOL     OW15660   0.550   3.920   0.885
 1210SOL    HW115661   0.545   3.915   0.985
 1210SOL    HW215662   0.552   4.016   0.856
 1211SOL     OW15663   1.008   5.180   0.477
 1211SOL    HW115664   0.962   5.252   0.425
 1211SOL    HW215665   1.004   5.200   0.575
 1212SOL     OW15666   0.351   5.525   0.853
 1212SOL    HW115667   0.401   5.439   0.859
 1212SOL    HW215668   0.416   5.602   0.850
 1213SOL     OW15669   1.795   4.790   0.873
 1213SOL    HW115670   1.733   4.775   0.797
 1213SOL    HW215671   1.743   4.801   0.958
 1214SOL     OW15672   0.321   4.667   0.242
 1214SOL    HW115673   0.403   4.706   0.200
 1214SOL    HW215674   0.294   4.585   0.193
 1215SOL     OW15675   1.458   4.459   0.728
 1215SOL    HW115676   1.453   4.394   0.803
 1215SOL    HW215677   1.538   4.518   0.741
 1216SOL     OW15678   1.111   5.500   0.237
 1216SOL    HW115679   1.051   5.438   0.287
 1216SOL    HW215680   1.142   5.456   0.152
 1217SOL     OW15681   0.202   4.009   1.498
 1217SOL    HW115682   0.122   4.069   1.485
 1217SOL    HW215683   0.192   3.960   1.584
 1218SOL     OW15684   1.632   5.101   0.081
 1218SOL    HW115685   1.600   5.195   0.071
 1218SOL    HW215686   1.556   5.038   0.069
 1219SOL     OW15687   0.464   5.467   0.323
 1219SOL    HW115688   0.497   5.506   0.409
 1219SOL    HW215689   0.540   5.460   0.258
 1220SOL     OW15690   1.400   3.831   0.426
 1220SOL    HW115691   1.376   3.794   0.336
 1220SOL    HW215692   1.499   3.847   0.430
 1221SOL     OW15693   0.940   5.422   0.904
 1221SOL    HW115694   1.020   5.365   0.925
 1221SOL    HW215695   0.891   5.382   0.827
 1222SOL     OW15696   0.382   4.424   0.480
 1222SOL    HW115697   0.427   4.334   0.477
 1222SOL    HW215698   0.288   4.413   0.513
 1223SOL     OW15699   0.781   3.988   1.749
 1223SOL    HW115700   0.848   3.927   1.792
 1223SOL    HW215701   0.708   4.007   1.814
 1224SOL     OW15702   0.888   5.238   1.195
 1224SOL    HW115703   0.865   5.213   1.101
 1224SOL    HW215704   0.949   5.169   1.234
 1225SOL     OW15705   1.351   4.314   1.433
 1225SOL    HW115706   1.379   4.271   1.518
 1225SOL    HW215707   1.376   4.410   1.434
 1226SOL     OW15708   0.803   5.126   0.924
 1226SOL    HW115709   0.893   5.140   0.882
 1226SOL    HW215710   0.732   5.128   0.853
 1227SOL     OW15711   0.922   4.227   0.899
 1227SOL    HW115712   0.897   4.218   0.803
 1227SOL    HW215713   0.970   4.145   0.930
 1228SOL     OW15714   0.539   3.788   0.512
 1228SOL    HW115715   0.458   3.789   0.570
 1228SOL    HW215716   0.542   3.871   0.457
 1229SOL     OW15717   1.434   4.912   0.041
 1229SOL    HW115718   1.466   4.836   0.098
 1229SOL    HW215719   1.342   4.939   0.071
 1230SOL     OW15720   0.935   3.960   0.480
 1230SOL    HW115721   0.887   4.001   0.402
 1230SOL    HW215722   1.034   3.958   0.461
 1231SOL     OW15723   1.076   4.407   1.464
 1231SOL    HW115724   0.996   4.346   1.467
 1231SOL    HW215725   1.157   4.354   1.440
 1232SOL     OW15726   1.227   5.294   0.793
 1232SOL    HW115727   1.248   5.368   0.728
 1232SOL    HW215728   1.295   5.294   0.866
 1233SOL     OW15729   0.459   4.876   0.741
 1233SOL    HW115730   0.388   4.849   0.806
 1233SOL    HW215731   0.433   4.848   0.648
 1234SOL     OW15732   1.271   5.521   0.591
 1234SOL    HW115733   1.315   5.585   0.527
 1234SOL    HW215734   1.221   5.573   0.661
 1235SOL     OW15735   1.032   4.273   0.016
 1235SOL    HW115736   0.991   4.355  -0.023
 1235SOL    HW215737   1.096   4.299   0.089
 1236SOL     OW15738   0.866   4.178   0.642
 1236SOL    HW115739   0.834   4.250   0.580
 1236SOL    HW215740   0.890   4.097   0.589
 1237SOL     OW15741   1.017   3.763   0.753
 1237SOL    HW115742   0.945   3.768   0.684
 1237SOL    HW215743   0.993   3.694   0.822
 1238SOL     OW15744   1.429   4.897   0.867
 1238SOL    HW115745   1.374   4.813   0.860
 1238SOL    HW215746   1.455   4.926   0.775
 1239SOL     OW15747   1.466   4.314   0.992
 1239SOL    HW115748   1.436   4.219   0.999
 1239SOL    HW215749   1.539   4.330   1.058
 1240SOL     OW15750   1.857   4.557   0.377
 1240SOL    HW115751   1.899   4.493   0.441
 1240SOL    HW215752   1.819   4.506   0.299
 1241SOL     OW15753   0.488   5.109   0.174
 1241SOL    HW115754   0.401   5.094   0.221
 1241SOL    HW215755   0.471   5.135   0.079
 1242SOL     OW15756   1.664   5.004   0.657
 1242SOL    HW115757   1.763   5.012   0.671
 1242SOL    HW215758   1.619   5.088   0.688
 1243SOL     OW15759   1.390   4.299   0.078
 1243SOL    HW115760   1.336   4.278   0.159
 1243SOL    HW215761   1.481   4.258   0.087
 1244SOL     OW15762   0.527   3.980   0.328
 1244SOL    HW115763   0.554   3.921   0.253
 1244SOL    HW215764   0.527   4.075   0.297
 1245SOL     OW15765   1.064   5.071   1.340
 1245SOL    HW115766   0.984   5.048   1.395
 1245SOL    HW215767   1.147   5.045   1.389
 1246SOL     OW15768   1.592   5.353   1.625
 1246SOL    HW115769   1.619   5.387   1.535
 1246SOL    HW215770   1.671   5.315   1.671
 1247SOL     OW15771   1.111   4.919   1.100
 1247SOL    HW115772   1.071   4.963   1.181
 1247SOL    HW215773   1.070   4.956   1.017
 1248SOL     OW15774   1.638   4.823   1.079
 1248SOL    HW115775   1.643   4.904   1.138
 1248SOL    HW215776   1.552   4.825   1.028
 1249SOL     OW15777   0.915   3.813   1.402
 1249SOL    HW115778   0.940   3.793   1.307
 1249SOL    HW215779   0.987   3.869   1.444
 1250SOL     OW15780   0.705   4.774   0.368
 1250SOL    HW115781   0.691   4.781   0.467
 1250SOL    HW215782   0.789   4.723   0.350
 1251SOL     OW15783   1.274   4.110   1.262
 1251SOL    HW115784   1.295   4.184   1.326
 1251SOL    HW215785   1.185   4.127   1.219
 1252SOL     OW15786   0.064   5.288   1.331
 1252SOL    HW115787   0.018   5.370   1.297
 1252SOL    HW215788   0.162   5.307   1.340
 1253SOL     OW15789   0.367   4.824   0.501
 1253SOL    HW115790   0.360   4.907   0.445
 1253SOL    HW215791   0.371   4.744   0.441
 1254SOL     OW15792   0.566   4.261   0.865
 1254SOL    HW115793   0.578   4.327   0.791
 1254SOL    HW215794   0.612   4.295   0.948
 1255SOL     OW15795   1.252   5.072   0.388
 1255SOL    HW115796   1.302   5.149   0.428
 1255SOL    HW215797   1.157   5.074   0.420
 1256SOL     OW15798   1.272   5.169   1.142
 1256SOL    HW115799   1.319   5.182   1.229
 1256SOL    HW215800   1.206   5.095   1.151
 1257SOL     OW15801   1.582   4.363   0.472
 1257SOL    HW115802   1.551   4.424   0.545
 1257SOL    HW215803   1.632   4.415   0.403
 1258SOL     OW15804   0.354   5.234   1.329
 1258SOL    HW115805   0.333   5.190   1.242
 1258SOL    HW215806   0.451   5.260   1.332
 1259SOL     OW15807   0.402   4.475   1.598
 1259SOL    HW115808   0.470   4.530   1.551
 1259SOL    HW215809   0.442   4.387   1.625
 1260SOL     OW15810   0.573   4.594   1.029
 1260SOL    HW115811   0.617   4.683   1.020
 1260SOL    HW215812   0.510   4.594   1.106
 1261SOL     OW15813   1.360   4.586   1.045
 1261SOL    HW115814   1.285   4.586   0.979
 1261SOL    HW215815   1.397   4.494   1.054
 1262SOL     OW15816   1.209   4.249   0.275
 1262SOL    HW115817   1.222   4.165   0.329
 1262SOL    HW215818   1.180   4.323   0.335
 1263SOL     OW15819   0.037   5.034   1.282
 1263SOL    HW115820   0.090   4.985   1.350
 1263SOL    HW215821   0.059   5.132   1.287
 1264SOL     OW15822   0.732   4.358   1.064
 1264SOL    HW115823   0.791   4.332   0.988
 1264SOL    HW215824   0.704   4.454   1.053
 1265SOL     OW15825   1.728   4.659   1.854
 1265SOL    HW115826   1.682   4.652   1.765
 1265SOL    HW215827   1.666   4.703   1.920
 1266SOL     OW15828   0.307   3.787   0.618
 1266SOL    HW115829   0.296   3.881   0.651
 1266SOL    HW215830   0.302   3.724   0.695
 1267SOL     OW15831   1.622   4.091   0.374
 1267SOL    HW115832   1.624   4.015   0.438
 1267SOL    HW215833   1.574   4.168   0.414
 1268SOL     OW15834   1.023   4.490   0.966
 1268SOL    HW115835   1.038   4.511   1.062
 1268SOL    HW215836   0.993   4.395   0.957
 1269SOL     OW15837   1.859   5.242   1.605
 1269SOL    HW115838   1.873   5.269   1.510
 1269SOL    HW215839   1.942   5.264   1.658
 1270SOL     OW15840   1.540   3.998   0.125
 1270SOL    HW115841   1.479   3.923   0.148
 1270SOL    HW215842   1.562   4.050   0.208
 1271SOL     OW15843   1.303   4.562   0.042
 1271SOL    HW115844   1.337   4.469   0.057
 1271SOL    HW215845   1.321   4.589  -0.053
 1272SOL     OW15846   1.068   5.057   0.849
 1272SOL    HW115847   1.075   4.973   0.794
 1272SOL    HW215848   1.130   5.126   0.813
 1273SOL     OW15849   0.339   4.233   1.006
 1273SOL    HW115850   0.287   4.150   0.989
 1273SOL    HW215851   0.416   4.238   0.942
 1274SOL     OW15852   0.008   5.050   0.200
 1274SOL    HW115853  -0.085   5.071   0.169
 1274SOL    HW215854   0.018   4.951   0.213
 1275SOL     OW15855   0.088   5.525   0.927
 1275SOL    HW115856   0.046   5.439   0.900
 1275SOL    HW215857   0.182   5.528   0.893
 1276SOL     OW15858   0.504   5.292   0.910
 1276SOL    HW115859   0.570   5.366   0.919
 1276SOL    HW215860   0.548   5.213   0.868
 1277SOL     OW15861   1.002   4.520   1.238
 1277SOL    HW115862   1.043   4.488   1.324
 1277SOL    HW215863   0.906   4.493   1.235
 1278SOL     OW15864   0.040   4.268   1.114
 1278SOL    HW115865   0.125   4.235   1.073
 1278SOL    HW215866   0.053   4.283   1.212
 1279SOL     OW15867   0.189   4.244   1.722
 1279SOL    HW115868   0.248   4.204   1.652
 1279SOL    HW215869   0.131   4.315   1.681
 1280SOL     OW15870   0.815   4.296   0.325
 1280SOL    HW115871   0.822   4.207   0.279
 1280SOL    HW215872   0.721   4.330   0.317
 1281SOL     OW15873   1.657   4.328   1.206
 1281SOL    HW115874   1.619   4.259   1.268
 1281SOL    HW215875   1.739   4.292   1.162
 1282SOL     OW15876   0.930   5.402   1.465
 1282SOL    HW115877   0.906   5.384   1.370
 1282SOL    HW215878   0.960   5.496   1.475
 1283SOL     OW15879   0.473   4.224   0.191
 1283SOL    HW115880   0.534   4.304   0.195
 1283SOL    HW215881   0.378   4.255   0.198
 1284SOL     OW15882   1.302   4.579   0.309
 1284SOL    HW115883   1.216   4.548   0.351
 1284SOL    HW215884   1.298   4.565   0.210
 1285SOL     OW15885   1.759   5.471   1.154
 1285SOL    HW115886   1.820   5.501   1.081
 1285SOL    HW215887   1.721   5.382   1.132
 1286SOL     OW15888   1.252   5.455   1.128
 1286SOL    HW115889   1.336   5.460   1.074
 1286SOL    HW215890   1.229   5.359   1.146
 1287SOL     OW15891   0.083   4.982   1.022
 1287SOL    HW115892   0.078   4.981   1.122
 1287SOL    HW215893   0.000   4.941   0.984
 1288SOL     OW15894   0.903   3.810   0.133
 1288SOL    HW115895   0.954   3.811   0.047
 1288SOL    HW215896   0.959   3.768   0.204
 1289SOL     OW15897   1.726   3.859   0.523
 1289SOL    HW115898   1.799   3.842   0.456
 1289SOL    HW215899   1.695   3.772   0.561
 1290SOL     OW15900   1.388   5.297   0.477
 1290SOL    HW115901   1.455   5.309   0.403
 1290SOL    HW215902   1.348   5.386   0.500
 1291SOL     OW15903   1.280   4.651   0.672
 1291SOL    HW115904   1.340   4.570   0.674
 1291SOL    HW215905   1.320   4.720   0.612
 1292SOL     OW15906   0.672   5.340   0.154
 1292SOL    HW115907   0.681   5.350   0.055
 1292SOL    HW215908   0.632   5.251   0.175
 1293SOL     OW15909   1.650   5.444   1.394
 1293SOL    HW115910   1.703   5.454   1.310
 1293SOL    HW215911   1.623   5.534   1.428
 1294SOL     OW15912   1.841   3.899   0.963
 1294SOL    HW115913   1.880   3.814   0.927
 1294SOL    HW215914   1.743   3.901   0.944
 1295SOL     OW15915   0.263   4.050   0.720
 1295SOL    HW115916   0.184   4.101   0.686
 1295SOL    HW215917   0.254   4.035   0.818
 1296SOL     OW15918   1.194   5.336   0.031
 1296SOL    HW115919   1.200   5.243   0.068
 1296SOL    HW215920   1.135   5.336  -0.049
 1297SOL     OW15921   0.822   4.726   1.372
 1297SOL    HW115922   0.862   4.725   1.280
 1297SOL    HW215923   0.832   4.818   1.412
 1298SOL     OW15924   0.916   4.634   0.291
 1298SOL    HW115925   0.979   4.672   0.223
 1298SOL    HW215926   0.956   4.551   0.330
 1299SOL     OW15927   1.504   5.331   0.044
 1299SOL    HW115928   1.412   5.368   0.051
 1299SOL    HW215929   1.542   5.351  -0.046
 1300SOL     OW15930   1.614   5.016   1.289
 1300SOL    HW115931   1.674   5.019   1.369
 1300SOL    HW215932   1.539   5.080   1.302
 1301SOL     OW15933   1.039   4.822   0.696
 1301SOL    HW115934   0.969   4.775   0.750
 1301SOL    HW215935   1.098   4.754   0.653
 1302SOL     OW15936   0.590   5.211   0.491
 1302SOL    HW115937   0.632   5.153   0.421
 1302SOL    HW215938   0.546   5.290   0.447
 1303SOL     OW15939   0.255   5.072   0.290
 1303SOL    HW115940   0.159   5.073   0.263
 1303SOL    HW215941   0.267   5.125   0.374
 1304SOL     OW15942   0.075   4.069   0.033
 1304SOL    HW115943  -0.017   4.041   0.004
 1304SOL    HW215944   0.106   4.146  -0.023
 1305SOL     OW15945   0.072   3.890   0.318
 1305SOL    HW115946   0.055   3.973   0.264
 1305SOL    HW215947   0.162   3.853   0.296
 1306SOL     OW15948   1.183   5.059   0.119
 1306SOL    HW115949   1.084   5.048   0.121
 1306SOL    HW215950   1.217   5.074   0.212
 1307SOL     OW15951   0.613   4.566   1.431
 1307SOL    HW115952   0.669   4.647   1.414
 1307SOL    HW215953   0.672   4.486   1.434
 1308SOL     OW15954   1.493   5.491   0.959
 1308SOL    HW115955   1.526   5.555   0.890
 1308SOL    HW215956   1.559   5.485   1.034
 1309SOL     OW15957   0.390   5.465   1.560
 1309SOL    HW115958   0.299   5.506   1.558
 1309SOL    HW215959   0.383   5.371   1.592
 1310SOL     OW15960   1.674   4.607   1.254
 1310SOL    HW115961   1.647   4.518   1.217
 1310SOL    HW215962   1.675   4.675   1.181
 1311SOL     OW15963   1.225   4.049   0.449
 1311SOL    HW115964   1.290   3.975   0.438
 1311SOL    HW215965   1.245   4.099   0.533
 1312SOL     OW15966   0.594   4.469   0.652
 1312SOL    HW115967   0.644   4.554   0.633
 1312SOL    HW215968   0.506   4.471   0.604
 1313SOL     OW15969   0.859   5.098   0.016
 1313SOL    HW115970   0.813   5.113   0.104
 1313SOL    HW215971   0.903   5.183  -0.014
 1314SOL     OW15972   0.661   5.514   0.953
 1314SOL    HW115973   0.615   5.602   0.940
 1314SOL    HW215974   0.760   5.526   0.946
 1315SOL     OW15975   0.859   4.680   0.861
 1315SOL    HW115976   0.913   4.611   0.909
 1315SOL    HW215977   0.827   4.749   0.927
 1316SOL     OW15978   1.083   4.708   0.087
 1316SOL    HW115979   1.060   4.761   0.005
 1316SOL    HW215980   1.164   4.652   0.068
 1317SOL     OW15981   1.861   5.293   0.851
 1317SOL    HW115982   1.790   5.281   0.781
 1317SOL    HW215983   1.862   5.214   0.911
 1318SOL     OW15984   0.079   4.964   0.653
 1318SOL    HW115985   0.078   4.917   0.741
 1318SOL    HW215986   0.161   4.936   0.602
 1319SOL     OW15987   1.824   3.916   1.227
 1319SOL    HW115988   1.820   3.826   1.271
 1319SOL    HW215989   1.827   3.905   1.128
 1320SOL     OW15990   0.428   4.148   0.520
 1320SOL    HW115991   0.458   4.076   0.458
 1320SOL    HW215992   0.389   4.108   0.603
 1321SOL     OW15993   1.705   5.211   1.104
 1321SOL    HW115994   1.612   5.186   1.077
 1321SOL    HW215995   1.731   5.161   1.186
 1322SOL     OW15996   0.812   5.310   0.687
 1322SOL    HW115997   0.844   5.320   0.593
 1322SOL    HW215998   0.733   5.248   0.689
 1323SOL     OW15999   1.424   3.938   1.112
 1323SOL    HW116000   1.476   3.873   1.167
 1323SOL    HW216001   1.375   4.001   1.173
 1324SOL     OW16002   0.770   5.054   0.301
 1324SOL    HW116003   0.724   4.967   0.318
 1324SOL    HW216004   0.861   5.051   0.342
 1325SOL     OW16005   1.352   3.776   0.168
 1325SOL    HW116006   1.387   3.735   0.084
 1325SOL    HW216007   1.262   3.738   0.188
 1326SOL     OW16008   1.300   4.177   0.691
 1326SOL    HW116009   1.241   4.257   0.695
 1326SOL    HW216010   1.315   4.142   0.784
 1327SOL     OW16011   1.593   3.945   0.882
 1327SOL    HW116012   1.509   3.944   0.936
 1327SOL    HW216013   1.595   4.028   0.826
 1328SOL     OW16014   0.039   4.801   0.300
 1328SOL    HW116015   0.138   4.790   0.291
 1328SOL    HW216016  -0.001   4.715   0.332
 1329SOL     OW16017   0.875   5.370   0.337
 1329SOL    HW116018   0.798   5.335   0.283
 1329SOL    HW216019   0.843   5.441   0.399
 1330SOL     OW16020   0.569   4.999   3.027
 1330SOL    HW116021   0.476   4.992   2.990
 1330SOL    HW216022   0.580   5.088   3.071
 1331SOL     OW16023   1.135   4.427   2.579
 1331SOL    HW116024   1.192   4.505   2.554
 1331SOL    HW216025   1.075   4.453   2.655
 1332SOL     OW16026   0.685   4.736   2.527
 1332SOL    HW116027   0.754   4.720   2.597
 1332SOL    HW216028   0.612   4.793   2.565
 1333SOL     OW16029   0.335   5.159   2.923
 1333SOL    HW116030   0.257   5.128   2.870
 1333SOL    HW216031   0.393   5.217   2.866
 1334SOL     OW16032   0.438   4.116   3.361
 1334SOL    HW116033   0.520   4.060   3.370
 1334SOL    HW216034   0.357   4.058   3.365
 1335SOL     OW16035   0.231   5.437   2.345
 1335SOL    HW116036   0.265   5.514   2.399
 1335SOL    HW216037   0.275   5.437   2.255
 1336SOL     OW16038   0.240   4.815   2.748
 1336SOL    HW116039   0.254   4.731   2.800
 1336SOL    HW216040   0.185   4.879   2.803
 1337SOL     OW16041   0.620   5.510   3.301
 1337SOL    HW116042   0.528   5.493   3.336
 1337SOL    HW216043   0.648   5.602   3.327
 1338SOL     OW16044   1.842   5.491   2.221
 1338SOL    HW116045   1.896   5.462   2.301
 1338SOL    HW216046   1.872   5.581   2.192
 1339SOL     OW16047   1.641   4.832   2.294
 1339SOL    HW116048   1.727   4.834   2.242
 1339SOL    HW216049   1.655   4.879   2.382
 1340SOL     OW16050   0.113   4.461   3.459
 1340SOL    HW116051   0.201   4.448   3.504
 1340SOL    HW216052   0.100   4.558   3.437
 1341SOL     OW16053   1.667   5.438   2.434
 1341SOL    HW116054   1.626   5.415   2.346
 1341SOL    HW216055   1.649   5.364   2.499
 1342SOL     OW16056   1.576   5.386   2.169
 1342SOL    HW116057   1.665   5.432   2.172
 1342SOL    HW216058   1.555   5.362   2.074
 1343SOL     OW16059   0.807   4.329   3.327
 1343SOL    HW116060   0.760   4.326   3.416
 1343SOL    HW216061   0.756   4.274   3.261
 1344SOL     OW16062   0.973   4.614   3.434
 1344SOL    HW116063   1.019   4.530   3.405
 1344SOL    HW216064   0.917   4.648   3.359
 1345SOL     OW16065   0.991   4.134   3.104
 1345SOL    HW116066   0.914   4.168   3.158
 1345SOL    HW216067   0.957   4.083   3.025
 1346SOL     OW16068   0.865   4.072   2.057
 1346SOL    HW116069   0.924   4.135   2.008
 1346SOL    HW216070   0.884   3.978   2.028
 1347SOL     OW16071   1.719   4.309   3.693
 1347SOL    HW116072   1.693   4.398   3.657
 1347SOL    HW216073   1.717   4.241   3.620
 1348SOL     OW16074   1.362   4.868   2.407
 1348SOL    HW116075   1.445   4.839   2.359
 1348SOL    HW216076   1.313   4.935   2.351
 1349SOL     OW16077   1.227   5.274   3.368
 1349SOL    HW116078   1.233   5.197   3.432
 1349SOL    HW216079   1.175   5.248   3.288
 1350SOL     OW16080   0.321   4.667   2.104
 1350SOL    HW116081   0.403   4.706   2.062
 1350SOL    HW216082   0.294   4.585   2.055
 1351SOL     OW16083   0.202   4.009   3.360
 1351SOL    HW116084   0.122   4.069   3.347
 1351SOL    HW216085   0.192   3.960   3.446
 1352SOL     OW16086   0.249   5.509   3.103
 1352SOL    HW116087   0.306   5.444   3.153
 1352SOL    HW216088   0.233   5.476   3.010
 1353SOL     OW16089   0.382   4.424   2.342
 1353SOL    HW116090   0.427   4.334   2.339
 1353SOL    HW216091   0.288   4.413   2.375
 1354SOL     OW16092   0.781   3.988   3.611
 1354SOL    HW116093   0.848   3.927   3.654
 1354SOL    HW216094   0.708   4.007   3.676
 1355SOL     OW16095   0.935   3.960   2.342
 1355SOL    HW116096   0.887   4.001   2.264
 1355SOL    HW216097   1.034   3.958   2.323
 1356SOL     OW16098   1.076   4.407   3.326
 1356SOL    HW116099   0.996   4.346   3.329
 1356SOL    HW216100   1.157   4.354   3.302
 1357SOL     OW16101   0.459   4.876   2.603
 1357SOL    HW116102   0.388   4.849   2.668
 1357SOL    HW216103   0.433   4.848   2.510
 1358SOL     OW16104   1.271   5.521   2.453
 1358SOL    HW116105   1.315   5.585   2.389
 1358SOL    HW216106   1.221   5.573   2.523
 1359SOL     OW16107   1.032   4.273   1.878
 1359SOL    HW116108   0.991   4.355   1.839
 1359SOL    HW216109   1.096   4.299   1.951
 1360SOL     OW16110   0.078   4.280   3.248
 1360SOL    HW116111   0.170   4.279   3.207
 1360SOL    HW216112   0.072   4.354   3.315
 1361SOL     OW16113   0.561   3.946   3.009
 1361SOL    HW116114   0.599   3.862   3.046
 1361SOL    HW216115   0.473   3.965   3.053
 1362SOL     OW16116   1.017   3.763   2.615
 1362SOL    HW116117   0.945   3.768   2.546
 1362SOL    HW216118   0.993   3.694   2.684
 1363SOL     OW16119   1.754   4.947   3.450
 1363SOL    HW116120   1.845   4.908   3.437
 1363SOL    HW216121   1.762   5.043   3.474
 1364SOL     OW16122   0.410   4.537   3.113
 1364SOL    HW116123   0.496   4.549   3.163
 1364SOL    HW216124   0.368   4.450   3.140
 1365SOL     OW16125   0.367   4.824   2.363
 1365SOL    HW116126   0.360   4.907   2.307
 1365SOL    HW216127   0.371   4.744   2.303
 1366SOL     OW16128   1.252   5.072   2.250
 1366SOL    HW116129   1.302   5.149   2.290
 1366SOL    HW216130   1.157   5.074   2.282
 1367SOL     OW16131   0.402   4.475   3.460
 1367SOL    HW116132   0.470   4.530   3.413
 1367SOL    HW216133   0.442   4.387   3.487
 1368SOL     OW16134   1.013   3.829   3.632
 1368SOL    HW116135   1.019   3.914   3.580
 1368SOL    HW216136   1.045   3.753   3.575
 1369SOL     OW16137   1.728   4.659   3.716
 1369SOL    HW116138   1.682   4.652   3.627
 1369SOL    HW216139   1.666   4.703   3.782
 1370SOL     OW16140   0.307   3.787   2.480
 1370SOL    HW116141   0.296   3.881   2.513
 1370SOL    HW216142   0.302   3.724   2.557
 1371SOL     OW16143   1.068   5.057   2.711
 1371SOL    HW116144   1.075   4.973   2.656
 1371SOL    HW216145   1.130   5.126   2.675
 1372SOL     OW16146   1.160   3.931   3.339
 1372SOL    HW116147   1.160   3.995   3.416
 1372SOL    HW216148   1.188   3.979   3.256
 1373SOL     OW16149   0.040   4.268   2.976
 1373SOL    HW116150   0.125   4.235   2.935
 1373SOL    HW216151   0.053   4.283   3.074
 1374SOL     OW16152   0.189   4.244   3.584
 1374SOL    HW116153   0.248   4.204   3.514
 1374SOL    HW216154   0.131   4.315   3.543
 1375SOL     OW16155   0.671   4.188   3.131
 1375SOL    HW116156   0.637   4.099   3.101
 1375SOL    HW216157   0.697   4.242   3.051
 1376SOL     OW16158   1.302   4.579   2.171
 1376SOL    HW116159   1.216   4.548   2.213
 1376SOL    HW216160   1.298   4.565   2.072
 1377SOL     OW16161   1.252   5.455   2.990
 1377SOL    HW116162   1.336   5.460   2.936
 1377SOL    HW216163   1.229   5.359   3.008
 1378SOL     OW16164   0.083   4.982   2.884
 1378SOL    HW116165   0.078   4.981   2.984
 1378SOL    HW216166   0.000   4.941   2.846
 1379SOL     OW16167   1.388   5.297   2.339
 1379SOL    HW116168   1.455   5.309   2.265
 1379SOL    HW216169   1.348   5.386   2.362
 1380SOL     OW16170   0.130   5.518   3.713
 1380SOL    HW116171   0.089   5.444   3.766
 1380SOL    HW216172   0.194   5.569   3.771
 1381SOL     OW16173   0.672   5.340   2.016
 1381SOL    HW116174   0.681   5.350   1.917
 1381SOL    HW216175   0.632   5.251   2.037
 1382SOL     OW16176   1.650   5.444   3.256
 1382SOL    HW116177   1.703   5.454   3.172
 1382SOL    HW216178   1.623   5.534   3.290
 1383SOL     OW16179   1.194   5.336   1.893
 1383SOL    HW116180   1.200   5.243   1.930
 1383SOL    HW216181   1.135   5.336   1.813
 1384SOL     OW16182   0.822   4.726   3.234
 1384SOL    HW116183   0.862   4.725   3.142
 1384SOL    HW216184   0.832   4.818   3.274
 1385SOL     OW16185   0.916   4.634   2.153
 1385SOL    HW116186   0.979   4.672   2.085
 1385SOL    HW216187   0.956   4.551   2.192
 1386SOL     OW16188   0.372   5.012   3.352
 1386SOL    HW116189   0.359   5.105   3.318
 1386SOL    HW216190   0.288   4.960   3.339
 1387SOL     OW16191   1.183   5.059   1.981
 1387SOL    HW116192   1.084   5.048   1.983
 1387SOL    HW216193   1.217   5.074   2.074
 1388SOL     OW16194   1.493   5.491   2.821
 1388SOL    HW116195   1.526   5.555   2.752
 1388SOL    HW216196   1.559   5.485   2.896
 1389SOL     OW16197   0.716   4.289   3.570
 1389SOL    HW116198   0.735   4.354   3.644
 1389SOL    HW216199   0.776   4.209   3.579
 1390SOL     OW16200   1.225   4.049   2.311
 1390SOL    HW116201   1.290   3.975   2.300
 1390SOL    HW216202   1.245   4.099   2.395
 1391SOL     OW16203   1.777   4.066   3.504
 1391SOL    HW116204   1.760   4.097   3.410
 1391SOL    HW216205   1.693   4.029   3.542
 1392SOL     OW16206   0.859   4.680   2.723
 1392SOL    HW116207   0.913   4.611   2.771
 1392SOL    HW216208   0.827   4.749   2.789
 1393SOL     OW16209   1.083   4.708   1.949
 1393SOL    HW116210   1.060   4.761   1.867
 1393SOL    HW216211   1.164   4.652   1.930
 1394SOL     OW16212   1.861   5.293   2.713
 1394SOL    HW116213   1.790   5.281   2.643
 1394SOL    HW216214   1.862   5.214   2.773
 1395SOL     OW16215   0.079   4.964   2.515
 1395SOL    HW116216   0.078   4.917   2.603
 1395SOL    HW216217   0.161   4.936   2.464
 1396SOL     OW16218   0.428   4.148   2.382
 1396SOL    HW116219   0.458   4.076   2.320
 1396SOL    HW216220   0.389   4.108   2.465
 1397SOL     OW16221   0.812   5.310   2.549
 1397SOL    HW116222   0.844   5.320   2.455
 1397SOL    HW216223   0.733   5.248   2.551
 1398SOL     OW16224   1.352   3.776   2.030
 1398SOL    HW116225   1.387   3.735   1.946
 1398SOL    HW216226   1.262   3.738   2.050
 1399SOL     OW16227   1.300   4.177   2.553
 1399SOL    HW116228   1.241   4.257   2.557
 1399SOL    HW216229   1.315   4.142   2.646
 1400SOL     OW16230   0.875   5.370   2.199
 1400SOL    HW116231   0.798   5.335   2.145
 1400SOL    HW216232   0.843   5.441   2.261
 1401SOL     OW16233   0.768   4.868   4.747
 1401SOL    HW116234   0.690   4.885   4.807
 1401SOL    HW216235   0.802   4.955   4.711
 1402SOL     OW16236   0.850   4.522   5.547
 1402SOL    HW116237   0.846   4.598   5.612
 1402SOL    HW216238   0.872   4.558   5.456
 1403SOL     OW16239   0.686   4.885   5.527
 1403SOL    HW116240   0.746   4.964   5.541
 1403SOL    HW216241   0.600   4.916   5.486
 1404SOL     OW16242   1.460   5.229   5.063
 1404SOL    HW116243   1.484   5.323   5.089
 1404SOL    HW216244   1.444   5.175   5.145
 1405SOL     OW16245   1.127   5.065   5.414
 1405SOL    HW116246   1.174   5.065   5.502
 1405SOL    HW216247   1.079   4.978   5.403
 1406SOL     OW16248   0.113   4.461   5.321
 1406SOL    HW116249   0.201   4.448   5.366
 1406SOL    HW216250   0.100   4.558   5.299
 1407SOL     OW16251   0.613   5.089   4.450
 1407SOL    HW116252   0.564   5.002   4.459
 1407SOL    HW216253   0.590   5.132   4.363
 1408SOL     OW16254   1.293   4.952   5.147
 1408SOL    HW116255   1.330   4.879   5.089
 1408SOL    HW216256   1.345   4.957   5.232
 1409SOL     OW16257   0.991   4.134   4.966
 1409SOL    HW116258   0.914   4.168   5.020
 1409SOL    HW216259   0.957   4.083   4.887
 1410SOL     OW16260   0.130   5.545   5.295
 1410SOL    HW116261   0.120   5.530   5.394
 1410SOL    HW216262   0.044   5.581   5.259
 1411SOL     OW16263   1.719   4.309   5.555
 1411SOL    HW116264   1.693   4.398   5.519
 1411SOL    HW216265   1.717   4.241   5.482
 1412SOL     OW16266   1.008   5.180   4.201
 1412SOL    HW116267   0.962   5.252   4.149
 1412SOL    HW216268   1.004   5.200   4.299
 1413SOL     OW16269   1.795   4.790   4.597
 1413SOL    HW116270   1.733   4.775   4.521
 1413SOL    HW216271   1.743   4.801   4.682
 1414SOL     OW16272   0.461   4.990   5.451
 1414SOL    HW116273   0.411   4.991   5.365
 1414SOL    HW216274   0.398   4.972   5.527
 1415SOL     OW16275   0.781   3.988   5.473
 1415SOL    HW116276   0.848   3.927   5.516
 1415SOL    HW216277   0.708   4.007   5.538
 1416SOL     OW16278   0.888   5.238   4.919
 1416SOL    HW116279   0.865   5.213   4.825
 1416SOL    HW216280   0.949   5.169   4.958
 1417SOL     OW16281   0.922   4.227   4.623
 1417SOL    HW116282   0.897   4.218   4.527
 1417SOL    HW216283   0.970   4.145   4.654
 1418SOL     OW16284   1.434   4.912   3.765
 1418SOL    HW116285   1.466   4.836   3.822
 1418SOL    HW216286   1.342   4.939   3.795
 1419SOL     OW16287   0.459   4.876   4.465
 1419SOL    HW116288   0.388   4.849   4.530
 1419SOL    HW216289   0.433   4.848   4.372
 1420SOL     OW16290   0.078   4.280   5.110
 1420SOL    HW116291   0.170   4.279   5.069
 1420SOL    HW216292   0.072   4.354   5.177
 1421SOL     OW16293   0.866   4.178   4.366
 1421SOL    HW116294   0.834   4.250   4.304
 1421SOL    HW216295   0.890   4.097   4.313
 1422SOL     OW16296   1.017   3.763   4.477
 1422SOL    HW116297   0.945   3.768   4.408
 1422SOL    HW216298   0.993   3.694   4.546
 1423SOL     OW16299   1.390   4.299   3.802
 1423SOL    HW116300   1.336   4.278   3.883
 1423SOL    HW216301   1.481   4.258   3.811
 1424SOL     OW16302   1.592   5.353   5.349
 1424SOL    HW116303   1.619   5.387   5.259
 1424SOL    HW216304   1.671   5.315   5.395
 1425SOL     OW16305   1.111   4.919   4.824
 1425SOL    HW116306   1.071   4.963   4.905
 1425SOL    HW216307   1.070   4.956   4.741
 1426SOL     OW16308   0.915   3.813   5.126
 1426SOL    HW116309   0.940   3.793   5.031
 1426SOL    HW216310   0.987   3.869   5.168
 1427SOL     OW16311   0.980   4.840   5.443
 1427SOL    HW116312   0.881   4.846   5.453
 1427SOL    HW216313   1.003   4.760   5.387
 1428SOL     OW16314   0.705   4.774   4.092
 1428SOL    HW116315   0.691   4.781   4.191
 1428SOL    HW216316   0.789   4.723   4.074
 1429SOL     OW16317   0.410   4.537   4.975
 1429SOL    HW116318   0.496   4.549   5.025
 1429SOL    HW216319   0.368   4.450   5.002
 1430SOL     OW16320   1.252   5.072   4.112
 1430SOL    HW116321   1.302   5.149   4.152
 1430SOL    HW216322   1.157   5.074   4.144
 1431SOL     OW16323   0.402   4.475   5.322
 1431SOL    HW116324   0.470   4.530   5.275
 1431SOL    HW216325   0.442   4.387   5.349
 1432SOL     OW16326   1.209   4.249   3.999
 1432SOL    HW116327   1.222   4.165   4.053
 1432SOL    HW216328   1.180   4.323   4.059
 1433SOL     OW16329   1.728   4.659   5.578
 1433SOL    HW116330   1.682   4.652   5.489
 1433SOL    HW216331   1.666   4.703   5.644
 1434SOL     OW16332   1.859   5.242   5.329
 1434SOL    HW116333   1.873   5.269   5.234
 1434SOL    HW216334   1.942   5.264   5.382
 1435SOL     OW16335   0.350   4.622   5.528
 1435SOL    HW116336   0.426   4.666   5.576
 1435SOL    HW216337   0.385   4.575   5.446
 1436SOL     OW16338   0.815   4.296   4.049
 1436SOL    HW116339   0.822   4.207   4.003
 1436SOL    HW216340   0.721   4.330   4.041
 1437SOL     OW16341   0.252   5.288   5.468
 1437SOL    HW116342   0.222   5.345   5.544
 1437SOL    HW216343   0.245   5.191   5.494
 1438SOL     OW16344   1.252   5.455   4.852
 1438SOL    HW116345   1.336   5.460   4.798
 1438SOL    HW216346   1.229   5.359   4.870
 1439SOL     OW16347   0.688   5.386   5.440
 1439SOL    HW116348   0.632   5.467   5.449
 1439SOL    HW216349   0.740   5.390   5.354
 1440SOL     OW16350   1.726   3.859   4.247
 1440SOL    HW116351   1.799   3.842   4.180
 1440SOL    HW216352   1.695   3.772   4.285
 1441SOL     OW16353   0.130   5.518   5.575
 1441SOL    HW116354   0.089   5.444   5.628
 1441SOL    HW216355   0.194   5.569   5.633
 1442SOL     OW16356   0.830   4.997   5.146
 1442SOL    HW116357   0.825   5.030   5.241
 1442SOL    HW216358   0.744   5.016   5.100
 1443SOL     OW16359   1.841   3.899   4.687
 1443SOL    HW116360   1.880   3.814   4.651
 1443SOL    HW216361   1.743   3.901   4.668
 1444SOL     OW16362   0.822   4.726   5.096
 1444SOL    HW116363   0.862   4.725   5.004
 1444SOL    HW216364   0.832   4.818   5.136
 1445SOL     OW16365   0.916   4.634   4.015
 1445SOL    HW116366   0.979   4.672   3.947
 1445SOL    HW216367   0.956   4.551   4.054
 1446SOL     OW16368   1.014   3.960   4.695
 1446SOL    HW116369   1.006   3.924   4.602
 1446SOL    HW216370   1.012   3.884   4.760
 1447SOL     OW16371   0.590   5.211   4.215
 1447SOL    HW116372   0.632   5.153   4.145
 1447SOL    HW216373   0.546   5.290   4.171
 1448SOL     OW16374   0.105   4.737   5.450
 1448SOL    HW116375   0.028   4.704   5.504
 1448SOL    HW216376   0.190   4.707   5.492
 1449SOL     OW16377   0.075   4.069   3.757
 1449SOL    HW116378  -0.017   4.041   3.728
 1449SOL    HW216379   0.106   4.146   3.701
 1450SOL     OW16380   0.390   5.465   5.284
 1450SOL    HW116381   0.299   5.506   5.282
 1450SOL    HW216382   0.383   5.371   5.316
 1451SOL     OW16383   1.777   4.066   5.366
 1451SOL    HW116384   1.760   4.097   5.272
 1451SOL    HW216385   1.693   4.029   5.404
 1452SOL     OW16386   1.730   4.658   5.241
 1452SOL    HW116387   1.768   4.749   5.256
 1452SOL    HW216388   1.722   4.641   5.142
 1453SOL     OW16389   0.859   5.098   3.740
 1453SOL    HW116390   0.813   5.113   3.828
 1453SOL    HW216391   0.903   5.183   3.710
 1454SOL     OW16392   0.221   5.038   5.568
 1454SOL    HW116393   0.156   4.965   5.547
 1454SOL    HW216394   0.225   5.052   5.666
 1455SOL     OW16395   0.079   4.964   4.377
 1455SOL    HW116396   0.078   4.917   4.465
 1455SOL    HW216397   0.161   4.936   4.326
 1456SOL     OW16398   0.672   5.115   5.348
 1456SOL    HW116399   0.594   5.065   5.386
 1456SOL    HW216400   0.669   5.210   5.379
 1457SOL     OW16401   0.770   5.054   4.025
 1457SOL    HW116402   0.724   4.967   4.042
 1457SOL    HW216403   0.861   5.051   4.066
 1458SOL     OW16404   0.039   4.801   4.024
 1458SOL    HW116405   0.138   4.790   4.015
 1458SOL    HW216406  -0.001   4.715   4.056
 1459SOL     OW16407   0.225   3.999   6.582
 1459SOL    HW116408   0.260   3.982   6.674
 1459SOL    HW216409   0.137   3.954   6.570
 1460SOL     OW16410   0.019   4.092   6.233
 1460SOL    HW116411  -0.063   4.135   6.272
 1460SOL    HW216412  -0.009   4.019   6.170
 1461SOL     OW16413   0.569   4.999   6.751
 1461SOL    HW116414   0.476   4.992   6.714
 1461SOL    HW216415   0.580   5.088   6.795
 1462SOL     OW16416   1.555   5.235   6.289
 1462SOL    HW116417   1.498   5.219   6.370
 1462SOL    HW216418   1.496   5.245   6.209
 1463SOL     OW16419   1.135   4.427   6.303
 1463SOL    HW116420   1.192   4.505   6.278
 1463SOL    HW216421   1.075   4.453   6.379
 1464SOL     OW16422   1.755   4.331   5.817
 1464SOL    HW116423   1.743   4.318   5.718
 1464SOL    HW216424   1.725   4.250   5.866
 1465SOL     OW16425   0.768   4.868   6.609
 1465SOL    HW116426   0.690   4.885   6.669
 1465SOL    HW216427   0.802   4.955   6.573
 1466SOL     OW16428   0.685   4.736   6.251
 1466SOL    HW116429   0.754   4.720   6.321
 1466SOL    HW216430   0.612   4.793   6.289
 1467SOL     OW16431   0.335   5.159   6.647
 1467SOL    HW116432   0.257   5.128   6.594
 1467SOL    HW216433   0.393   5.217   6.590
 1468SOL     OW16434   0.438   4.116   7.085
 1468SOL    HW116435   0.520   4.060   7.094
 1468SOL    HW216436   0.357   4.058   7.089
 1469SOL     OW16437   1.603   4.171   6.323
 1469SOL    HW116438   1.529   4.217   6.273
 1469SOL    HW216439   1.654   4.239   6.376
 1470SOL     OW16440   0.231   5.437   6.069
 1470SOL    HW116441   0.265   5.514   6.123
 1470SOL    HW216442   0.275   5.437   5.979
 1471SOL     OW16443   0.230   5.158   6.124
 1471SOL    HW116444   0.204   5.254   6.124
 1471SOL    HW216445   0.159   5.104   6.169
 1472SOL     OW16446   0.240   4.815   6.472
 1472SOL    HW116447   0.254   4.731   6.524
 1472SOL    HW216448   0.185   4.879   6.527
 1473SOL     OW16449   0.620   5.510   7.025
 1473SOL    HW116450   0.528   5.493   7.060
 1473SOL    HW216451   0.648   5.602   7.051
 1474SOL     OW16452   0.606   4.688   5.709
 1474SOL    HW116453   0.613   4.772   5.655
 1474SOL    HW216454   0.652   4.701   5.797
 1475SOL     OW16455   0.122   4.367   6.149
 1475SOL    HW116456   0.077   4.279   6.166
 1475SOL    HW216457   0.121   4.421   6.233
 1476SOL     OW16458   1.842   5.491   5.945
 1476SOL    HW116459   1.896   5.462   6.025
 1476SOL    HW216460   1.872   5.581   5.916
 1477SOL     OW16461   0.027   5.320   5.703
 1477SOL    HW116462   0.008   5.224   5.724
 1477SOL    HW216463  -0.006   5.378   5.778
 1478SOL     OW16464   1.689   4.646   6.198
 1478SOL    HW116465   1.784   4.617   6.206
 1478SOL    HW216466   1.681   4.711   6.123
 1479SOL     OW16467   1.641   4.832   6.018
 1479SOL    HW116468   1.727   4.834   5.966
 1479SOL    HW216469   1.655   4.879   6.106
 1480SOL     OW16470   0.613   5.089   6.312
 1480SOL    HW116471   0.564   5.002   6.321
 1480SOL    HW216472   0.590   5.132   6.225
 1481SOL     OW16473   0.809   3.728   6.088
 1481SOL    HW116474   0.849   3.819   6.079
 1481SOL    HW216475   0.709   3.736   6.094
 1482SOL     OW16476   0.197   4.700   6.850
 1482SOL    HW116477   0.286   4.655   6.836
 1482SOL    HW216478   0.124   4.635   6.831
 1483SOL     OW16479   1.525   4.723   5.776
 1483SOL    HW116480   1.462   4.647   5.789
 1483SOL    HW216481   1.573   4.741   5.862
 1484SOL     OW16482   1.466   5.141   6.539
 1484SOL    HW116483   1.407   5.147   6.619
 1484SOL    HW216484   1.451   5.053   6.493
 1485SOL     OW16485   1.667   5.438   6.158
 1485SOL    HW116486   1.626   5.415   6.070
 1485SOL    HW216487   1.649   5.364   6.223
 1486SOL     OW16488   1.281   4.069   6.530
 1486SOL    HW116489   1.195   4.019   6.517
 1486SOL    HW216490   1.343   4.015   6.586
 1487SOL     OW16491   1.576   5.386   5.893
 1487SOL    HW116492   1.665   5.432   5.896
 1487SOL    HW216493   1.555   5.362   5.798
 1488SOL     OW16494   0.807   4.329   7.051
 1488SOL    HW116495   0.760   4.326   7.140
 1488SOL    HW216496   0.756   4.274   6.985
 1489SOL     OW16497   0.991   4.134   6.828
 1489SOL    HW116498   0.914   4.168   6.882
 1489SOL    HW216499   0.957   4.083   6.749
 1490SOL     OW16500   1.041   4.425   6.015
 1490SOL    HW116501   1.067   4.421   6.111
 1490SOL    HW216502   0.956   4.374   6.001
 1491SOL     OW16503   0.076   4.535   6.375
 1491SOL    HW116504   0.175   4.523   6.384
 1491SOL    HW216505   0.052   4.630   6.396
 1492SOL     OW16506   0.130   5.545   7.157
 1492SOL    HW116507   0.120   5.530   7.256
 1492SOL    HW216508   0.044   5.581   7.121
 1493SOL     OW16509   0.865   4.072   5.781
 1493SOL    HW116510   0.924   4.135   5.732
 1493SOL    HW216511   0.884   3.978   5.752
 1494SOL     OW16512   1.362   4.868   6.131
 1494SOL    HW116513   1.445   4.839   6.083
 1494SOL    HW216514   1.313   4.935   6.075
 1495SOL     OW16515   0.550   3.920   6.471
 1495SOL    HW116516   0.545   3.915   6.571
 1495SOL    HW216517   0.552   4.016   6.442
 1496SOL     OW16518   1.008   5.180   6.063
 1496SOL    HW116519   0.962   5.252   6.011
 1496SOL    HW216520   1.004   5.200   6.161
 1497SOL     OW16521   0.351   5.525   6.439
 1497SOL    HW116522   0.401   5.439   6.445
 1497SOL    HW216523   0.416   5.602   6.436
 1498SOL     OW16524   1.795   4.790   6.459
 1498SOL    HW116525   1.733   4.775   6.383
 1498SOL    HW216526   1.743   4.801   6.544
 1499SOL     OW16527   0.321   4.667   5.828
 1499SOL    HW116528   0.403   4.706   5.786
 1499SOL    HW216529   0.294   4.585   5.779
 1500SOL     OW16530   1.458   4.459   6.314
 1500SOL    HW116531   1.453   4.394   6.389
 1500SOL    HW216532   1.538   4.518   6.327
 1501SOL     OW16533   1.111   5.500   5.823
 1501SOL    HW116534   1.051   5.438   5.873
 1501SOL    HW216535   1.142   5.456   5.738
 1502SOL     OW16536   1.632   5.101   5.667
 1502SOL    HW116537   1.600   5.195   5.657
 1502SOL    HW216538   1.556   5.038   5.655
 1503SOL     OW16539   0.464   5.467   5.909
 1503SOL    HW116540   0.497   5.506   5.995
 1503SOL    HW216541   0.540   5.460   5.844
 1504SOL     OW16542   1.400   3.831   6.012
 1504SOL    HW116543   1.376   3.794   5.922
 1504SOL    HW216544   1.499   3.847   6.016
 1505SOL     OW16545   0.249   5.509   6.827
 1505SOL    HW116546   0.306   5.444   6.877
 1505SOL    HW216547   0.233   5.476   6.734
 1506SOL     OW16548   0.940   5.422   6.490
 1506SOL    HW116549   1.020   5.365   6.511
 1506SOL    HW216550   0.891   5.382   6.413
 1507SOL     OW16551   0.382   4.424   6.066
 1507SOL    HW116552   0.427   4.334   6.063
 1507SOL    HW216553   0.288   4.413   6.099
 1508SOL     OW16554   0.888   5.238   6.781
 1508SOL    HW116555   0.865   5.213   6.687
 1508SOL    HW216556   0.949   5.169   6.820
 1509SOL     OW16557   0.803   5.126   6.510
 1509SOL    HW116558   0.893   5.140   6.468
 1509SOL    HW216559   0.732   5.128   6.439
 1510SOL     OW16560   0.922   4.227   6.485
 1510SOL    HW116561   0.897   4.218   6.389
 1510SOL    HW216562   0.970   4.145   6.516
 1511SOL     OW16563   0.539   3.788   6.098
 1511SOL    HW116564   0.458   3.789   6.156
 1511SOL    HW216565   0.542   3.871   6.043
 1512SOL     OW16566   1.434   4.912   5.627
 1512SOL    HW116567   1.466   4.836   5.684
 1512SOL    HW216568   1.342   4.939   5.657
 1513SOL     OW16569   0.935   3.960   6.066
 1513SOL    HW116570   0.887   4.001   5.988
 1513SOL    HW216571   1.034   3.958   6.047
 1514SOL     OW16572   1.227   5.294   6.379
 1514SOL    HW116573   1.248   5.368   6.314
 1514SOL    HW216574   1.295   5.294   6.452
 1515SOL     OW16575   0.459   4.876   6.327
 1515SOL    HW116576   0.388   4.849   6.392
 1515SOL    HW216577   0.433   4.848   6.234
 1516SOL     OW16578   1.271   5.521   6.177
 1516SOL    HW116579   1.315   5.585   6.113
 1516SOL    HW216580   1.221   5.573   6.247
 1517SOL     OW16581   0.561   3.946   6.733
 1517SOL    HW116582   0.599   3.862   6.770
 1517SOL    HW216583   0.473   3.965   6.777
 1518SOL     OW16584   0.866   4.178   6.228
 1518SOL    HW116585   0.834   4.250   6.166
 1518SOL    HW216586   0.890   4.097   6.175
 1519SOL     OW16587   1.017   3.763   6.339
 1519SOL    HW116588   0.945   3.768   6.270
 1519SOL    HW216589   0.993   3.694   6.408
 1520SOL     OW16590   1.429   4.897   6.453
 1520SOL    HW116591   1.374   4.813   6.446
 1520SOL    HW216592   1.455   4.926   6.361
 1521SOL     OW16593   1.466   4.314   6.578
 1521SOL    HW116594   1.436   4.219   6.585
 1521SOL    HW216595   1.539   4.330   6.644
 1522SOL     OW16596   1.857   4.557   5.963
 1522SOL    HW116597   1.899   4.493   6.027
 1522SOL    HW216598   1.819   4.506   5.885
 1523SOL     OW16599   0.488   5.109   5.760
 1523SOL    HW116600   0.401   5.094   5.807
 1523SOL    HW216601   0.471   5.135   5.665
 1524SOL     OW16602   1.664   5.004   6.243
 1524SOL    HW116603   1.763   5.012   6.257
 1524SOL    HW216604   1.619   5.088   6.274
 1525SOL     OW16605   1.390   4.299   5.664
 1525SOL    HW116606   1.336   4.278   5.745
 1525SOL    HW216607   1.481   4.258   5.673
 1526SOL     OW16608   1.064   5.071   6.926
 1526SOL    HW116609   0.984   5.048   6.981
 1526SOL    HW216610   1.147   5.045   6.975
 1527SOL     OW16611   1.111   4.919   6.686
 1527SOL    HW116612   1.071   4.963   6.767
 1527SOL    HW216613   1.070   4.956   6.603
 1528SOL     OW16614   1.638   4.823   6.665
 1528SOL    HW116615   1.643   4.904   6.724
 1528SOL    HW216616   1.552   4.825   6.614
 1529SOL     OW16617   0.705   4.774   5.954
 1529SOL    HW116618   0.691   4.781   6.053
 1529SOL    HW216619   0.789   4.723   5.936
 1530SOL     OW16620   0.410   4.537   6.837
 1530SOL    HW116621   0.496   4.549   6.887
 1530SOL    HW216622   0.368   4.450   6.864
 1531SOL     OW16623   1.274   4.110   6.848
 1531SOL    HW116624   1.295   4.184   6.912
 1531SOL    HW216625   1.185   4.127   6.805
 1532SOL     OW16626   0.064   5.288   6.917
 1532SOL    HW116627   0.018   5.370   6.883
 1532SOL    HW216628   0.162   5.307   6.926
 1533SOL     OW16629   0.367   4.824   6.087
 1533SOL    HW116630   0.360   4.907   6.031
 1533SOL    HW216631   0.371   4.744   6.027
 1534SOL     OW16632   0.566   4.261   6.451
 1534SOL    HW116633   0.578   4.327   6.377
 1534SOL    HW216634   0.612   4.295   6.534
 1535SOL     OW16635   1.252   5.072   5.974
 1535SOL    HW116636   1.302   5.149   6.014
 1535SOL    HW216637   1.157   5.074   6.006
 1536SOL     OW16638   1.272   5.169   6.728
 1536SOL    HW116639   1.319   5.182   6.815
 1536SOL    HW216640   1.206   5.095   6.737
 1537SOL     OW16641   1.582   4.363   6.058
 1537SOL    HW116642   1.551   4.424   6.131
 1537SOL    HW216643   1.632   4.415   5.989
 1538SOL     OW16644   0.354   5.234   6.915
 1538SOL    HW116645   0.333   5.190   6.828
 1538SOL    HW216646   0.451   5.260   6.918
 1539SOL     OW16647   0.504   3.774   7.326
 1539SOL    HW116648   0.462   3.717   7.256
 1539SOL    HW216649   0.438   3.843   7.358
 1540SOL     OW16650   0.573   4.594   6.615
 1540SOL    HW116651   0.617   4.683   6.606
 1540SOL    HW216652   0.510   4.594   6.692
 1541SOL     OW16653   1.360   4.586   6.631
 1541SOL    HW116654   1.285   4.586   6.565
 1541SOL    HW216655   1.397   4.494   6.640
 1542SOL     OW16656   1.209   4.249   5.861
 1542SOL    HW116657   1.222   4.165   5.915
 1542SOL    HW216658   1.180   4.323   5.921
 1543SOL     OW16659   0.307   3.937   6.817
 1543SOL    HW116660   0.284   3.974   6.907
 1543SOL    HW216661   0.277   3.842   6.811
 1544SOL     OW16662   0.037   5.034   6.868
 1544SOL    HW116663   0.090   4.985   6.936
 1544SOL    HW216664   0.059   5.132   6.873
 1545SOL     OW16665   0.732   4.358   6.650
 1545SOL    HW116666   0.791   4.332   6.574
 1545SOL    HW216667   0.704   4.454   6.639
 1546SOL     OW16668   0.307   3.787   6.204
 1546SOL    HW116669   0.296   3.881   6.237
 1546SOL    HW216670   0.302   3.724   6.281
 1547SOL     OW16671   1.622   4.091   5.960
 1547SOL    HW116672   1.624   4.015   6.024
 1547SOL    HW216673   1.574   4.168   6.000
 1548SOL     OW16674   1.023   4.490   6.552
 1548SOL    HW116675   1.038   4.511   6.648
 1548SOL    HW216676   0.993   4.395   6.543
 1549SOL     OW16677   1.540   3.998   5.711
 1549SOL    HW116678   1.479   3.923   5.734
 1549SOL    HW216679   1.562   4.050   5.794
 1550SOL     OW16680   1.303   4.562   5.628
 1550SOL    HW116681   1.337   4.469   5.643
 1550SOL    HW216682   1.321   4.589   5.533
 1551SOL     OW16683   1.068   5.057   6.435
 1551SOL    HW116684   1.075   4.973   6.380
 1551SOL    HW216685   1.130   5.126   6.399
 1552SOL     OW16686   0.319   4.534   6.535
 1552SOL    HW116687   0.412   4.570   6.540
 1552SOL    HW216688   0.313   4.449   6.587
 1553SOL     OW16689   0.339   4.233   6.592
 1553SOL    HW116690   0.287   4.150   6.575
 1553SOL    HW216691   0.416   4.238   6.528
 1554SOL     OW16692   1.160   3.931   7.063
 1554SOL    HW116693   1.160   3.995   7.140
 1554SOL    HW216694   1.188   3.979   6.980
 1555SOL     OW16695   0.008   5.050   5.786
 1555SOL    HW116696  -0.085   5.071   5.755
 1555SOL    HW216697   0.018   4.951   5.799
 1556SOL     OW16698   0.088   5.525   6.513
 1556SOL    HW116699   0.046   5.439   6.486
 1556SOL    HW216700   0.182   5.528   6.479
 1557SOL     OW16701   0.504   5.292   6.496
 1557SOL    HW116702   0.570   5.366   6.505
 1557SOL    HW216703   0.548   5.213   6.454
 1558SOL     OW16704   1.002   4.520   6.824
 1558SOL    HW116705   1.043   4.488   6.910
 1558SOL    HW216706   0.906   4.493   6.821
 1559SOL     OW16707   0.040   4.268   6.700
 1559SOL    HW116708   0.125   4.235   6.659
 1559SOL    HW216709   0.053   4.283   6.798
 1560SOL     OW16710   1.657   4.328   6.792
 1560SOL    HW116711   1.619   4.259   6.854
 1560SOL    HW216712   1.739   4.292   6.748
 1561SOL     OW16713   0.671   4.188   6.855
 1561SOL    HW116714   0.637   4.099   6.825
 1561SOL    HW216715   0.697   4.242   6.775
 1562SOL     OW16716   0.930   5.402   7.051
 1562SOL    HW116717   0.906   5.384   6.956
 1562SOL    HW216718   0.960   5.496   7.061
 1563SOL     OW16719   0.159   4.861   7.052
 1563SOL    HW116720   0.181   4.800   7.128
 1563SOL    HW216721   0.169   4.812   6.966
 1564SOL     OW16722   1.347   4.783   6.820
 1564SOL    HW116723   1.371   4.720   6.746
 1564SOL    HW216724   1.257   4.823   6.802
 1565SOL     OW16725   1.302   4.579   5.895
 1565SOL    HW116726   1.216   4.548   5.937
 1565SOL    HW216727   1.298   4.565   5.796
 1566SOL     OW16728   1.759   5.471   6.740
 1566SOL    HW116729   1.820   5.501   6.667
 1566SOL    HW216730   1.721   5.382   6.718
 1567SOL     OW16731   1.252   5.455   6.714
 1567SOL    HW116732   1.336   5.460   6.660
 1567SOL    HW216733   1.229   5.359   6.732
 1568SOL     OW16734   0.083   4.982   6.608
 1568SOL    HW116735   0.078   4.981   6.708
 1568SOL    HW216736   0.000   4.941   6.570
 1569SOL     OW16737   1.726   3.859   6.109
 1569SOL    HW116738   1.799   3.842   6.042
 1569SOL    HW216739   1.695   3.772   6.147
 1570SOL     OW16740   1.388   5.297   6.063
 1570SOL    HW116741   1.455   5.309   5.989
 1570SOL    HW216742   1.348   5.386   6.086
 1571SOL     OW16743   1.280   4.651   6.258
 1571SOL    HW116744   1.340   4.570   6.260
 1571SOL    HW216745   1.320   4.720   6.198
 1572SOL     OW16746   0.672   5.340   5.740
 1572SOL    HW116747   0.681   5.350   5.641
 1572SOL    HW216748   0.632   5.251   5.761
 1573SOL     OW16749   1.841   3.899   6.549
 1573SOL    HW116750   1.880   3.814   6.513
 1573SOL    HW216751   1.743   3.901   6.530
 1574SOL     OW16752   0.263   4.050   6.306
 1574SOL    HW116753   0.184   4.101   6.272
 1574SOL    HW216754   0.254   4.035   6.404
 1575SOL     OW16755   1.194   5.336   5.617
 1575SOL    HW116756   1.200   5.243   5.654
 1575SOL    HW216757   1.135   5.336   5.537
 1576SOL     OW16758   0.822   4.726   6.958
 1576SOL    HW116759   0.862   4.725   6.866
 1576SOL    HW216760   0.832   4.818   6.998
 1577SOL     OW16761   0.916   4.634   5.877
 1577SOL    HW116762   0.979   4.672   5.809
 1577SOL    HW216763   0.956   4.551   5.916
 1578SOL     OW16764   1.504   5.331   5.630
 1578SOL    HW116765   1.412   5.368   5.637
 1578SOL    HW216766   1.542   5.351   5.540
 1579SOL     OW16767   0.372   5.012   7.076
 1579SOL    HW116768   0.359   5.105   7.042
 1579SOL    HW216769   0.288   4.960   7.063
 1580SOL     OW16770   1.614   5.016   6.875
 1580SOL    HW116771   1.674   5.019   6.955
 1580SOL    HW216772   1.539   5.080   6.888
 1581SOL     OW16773   1.039   4.822   6.282
 1581SOL    HW116774   0.969   4.775   6.336
 1581SOL    HW216775   1.098   4.754   6.239
 1582SOL     OW16776   1.014   3.960   6.557
 1582SOL    HW116777   1.006   3.924   6.464
 1582SOL    HW216778   1.012   3.884   6.622
 1583SOL     OW16779   0.590   5.211   6.077
 1583SOL    HW116780   0.632   5.153   6.007
 1583SOL    HW216781   0.546   5.290   6.033
 1584SOL     OW16782   1.709   4.109   6.967
 1584SOL    HW116783   1.782   4.178   6.971
 1584SOL    HW216784   1.737   4.034   6.908
 1585SOL     OW16785   0.255   5.072   5.876
 1585SOL    HW116786   0.159   5.073   5.849
 1585SOL    HW216787   0.267   5.125   5.960
 1586SOL     OW16788   0.672   3.927   7.075
 1586SOL    HW116789   0.762   3.911   7.035
 1586SOL    HW216790   0.680   3.932   7.174
 1587SOL     OW16791   1.183   5.059   5.705
 1587SOL    HW116792   1.084   5.048   5.707
 1587SOL    HW216793   1.217   5.074   5.798
 1588SOL     OW16794   0.613   4.566   7.017
 1588SOL    HW116795   0.669   4.647   7.000
 1588SOL    HW216796   0.672   4.486   7.020
 1589SOL     OW16797   1.493   5.491   6.545
 1589SOL    HW116798   1.526   5.555   6.476
 1589SOL    HW216799   1.559   5.485   6.620
 1590SOL     OW16800   0.390   5.465   7.146
 1590SOL    HW116801   0.299   5.506   7.144
 1590SOL    HW216802   0.383   5.371   7.178
 1591SOL     OW16803   1.674   4.607   6.840
 1591SOL    HW116804   1.647   4.518   6.803
 1591SOL    HW216805   1.675   4.675   6.767
 1592SOL     OW16806   1.225   4.049   6.035
 1592SOL    HW116807   1.290   3.975   6.024
 1592SOL    HW216808   1.245   4.099   6.119
 1593SOL     OW16809   0.594   4.469   6.238
 1593SOL    HW116810   0.644   4.554   6.219
 1593SOL    HW216811   0.506   4.471   6.190
 1594SOL     OW16812   1.730   4.658   7.103
 1594SOL    HW116813   1.768   4.749   7.118
 1594SOL    HW216814   1.722   4.641   7.004
 1595SOL     OW16815   0.859   5.098   5.602
 1595SOL    HW116816   0.813   5.113   5.690
 1595SOL    HW216817   0.903   5.183   5.572
 1596SOL     OW16818   0.661   5.514   6.539
 1596SOL    HW116819   0.615   5.602   6.526
 1596SOL    HW216820   0.760   5.526   6.532
 1597SOL     OW16821   0.859   4.680   6.447
 1597SOL    HW116822   0.913   4.611   6.495
 1597SOL    HW216823   0.827   4.749   6.513
 1598SOL     OW16824   1.083   4.708   5.673
 1598SOL    HW116825   1.060   4.761   5.591
 1598SOL    HW216826   1.164   4.652   5.654
 1599SOL     OW16827   1.861   5.293   6.437
 1599SOL    HW116828   1.790   5.281   6.367
 1599SOL    HW216829   1.862   5.214   6.497
 1600SOL     OW16830   0.079   4.964   6.239
 1600SOL    HW116831   0.078   4.917   6.327
 1600SOL    HW216832   0.161   4.936   6.188
 1601SOL     OW16833   1.824   3.916   6.813
 1601SOL    HW116834   1.820   3.826   6.857
 1601SOL    HW216835   1.827   3.905   6.714
 1602SOL     OW16836   0.428   4.148   6.106
 1602SOL    HW116837   0.458   4.076   6.044
 1602SOL    HW216838   0.389   4.108   6.189
 1603SOL     OW16839   1.705   5.211   6.690
 1603SOL    HW116840   1.612   5.186   6.663
 1603SOL    HW216841   1.731   5.161   6.772
 1604SOL     OW16842   0.317   4.271   6.866
 1604SOL    HW116843   0.355   4.212   6.938
 1604SOL    HW216844   0.357   4.245   6.778
 1605SOL     OW16845   0.812   5.310   6.273
 1605SOL    HW116846   0.844   5.320   6.179
 1605SOL    HW216847   0.733   5.248   6.275
 1606SOL     OW16848   1.424   3.938   6.698
 1606SOL    HW116849   1.476   3.873   6.753
 1606SOL    HW216850   1.375   4.001   6.759
 1607SOL     OW16851   1.001   3.758   6.740
 1607SOL    HW116852   0.938   3.686   6.709
 1607SOL    HW216853   1.094   3.722   6.740
 1608SOL     OW16854   0.770   5.054   5.887
 1608SOL    HW116855   0.724   4.967   5.904
 1608SOL    HW216856   0.861   5.051   5.928
 1609SOL     OW16857   0.618   5.291   6.870
 1609SOL    HW116858   0.613   5.373   6.927
 1609SOL    HW216859   0.707   5.288   6.825
 1610SOL     OW16860   1.300   4.177   6.277
 1610SOL    HW116861   1.241   4.257   6.281
 1610SOL    HW216862   1.315   4.142   6.370
 1611SOL     OW16863   1.593   3.945   6.468
 1611SOL    HW116864   1.509   3.944   6.522
 1611SOL    HW216865   1.595   4.028   6.412
 1612SOL     OW16866   0.039   4.801   5.886
 1612SOL    HW116867   0.138   4.790   5.877
 1612SOL    HW216868  -0.001   4.715   5.918
 1613SOL     OW16869   0.875   5.370   5.923
 1613SOL    HW116870   0.798   5.335   5.869
 1613SOL    HW216871   0.843   5.441   5.985
 1614SOL     OW16872   0.230   6.214   0.113
 1614SOL    HW116873   0.137   6.212   0.150
 1614SOL    HW216874   0.231   6.175   0.021
 1615SOL     OW16875   0.225   5.861   0.996
 1615SOL    HW116876   0.260   5.844   1.088
 1615SOL    HW216877   0.137   5.816   0.984
 1616SOL     OW16878   0.569   6.861   1.165
 1616SOL    HW116879   0.476   6.854   1.128
 1616SOL    HW216880   0.580   6.950   1.209
 1617SOL     OW16881   1.555   7.097   0.703
 1617SOL    HW116882   1.498   7.081   0.784
 1617SOL    HW216883   1.496   7.107   0.623
 1618SOL     OW16884   1.135   6.289   0.717
 1618SOL    HW116885   1.192   6.367   0.692
 1618SOL    HW216886   1.075   6.315   0.793
 1619SOL     OW16887   1.755   6.193   0.231
 1619SOL    HW116888   1.743   6.180   0.132
 1619SOL    HW216889   1.725   6.112   0.280
 1620SOL     OW16890   0.768   6.730   1.023
 1620SOL    HW116891   0.690   6.747   1.083
 1620SOL    HW216892   0.802   6.817   0.987
 1621SOL     OW16893   0.685   6.598   0.665
 1621SOL    HW116894   0.754   6.582   0.735
 1621SOL    HW216895   0.612   6.655   0.703
 1622SOL     OW16896   0.686   6.747   1.803
 1622SOL    HW116897   0.746   6.826   1.817
 1622SOL    HW216898   0.600   6.778   1.762
 1623SOL     OW16899   0.335   7.021   1.061
 1623SOL    HW116900   0.257   6.990   1.008
 1623SOL    HW216901   0.393   7.079   1.004
 1624SOL     OW16902   0.438   5.978   1.499
 1624SOL    HW116903   0.520   5.922   1.508
 1624SOL    HW216904   0.357   5.920   1.503
 1625SOL     OW16905   1.603   6.033   0.737
 1625SOL    HW116906   1.529   6.079   0.687
 1625SOL    HW216907   1.654   6.101   0.790
 1626SOL     OW16908   0.231   7.299   0.483
 1626SOL    HW116909   0.265   7.376   0.537
 1626SOL    HW216910   0.275   7.299   0.393
 1627SOL     OW16911   0.230   7.020   0.538
 1627SOL    HW116912   0.204   7.116   0.538
 1627SOL    HW216913   0.159   6.966   0.583
 1628SOL     OW16914   0.240   6.677   0.886
 1628SOL    HW116915   0.254   6.593   0.938
 1628SOL    HW216916   0.185   6.741   0.941
 1629SOL     OW16917   0.620   7.372   1.439
 1629SOL    HW116918   0.528   7.355   1.474
 1629SOL    HW216919   0.648   7.464   1.465
 1630SOL     OW16920   0.606   6.550   0.123
 1630SOL    HW116921   0.613   6.634   0.069
 1630SOL    HW216922   0.652   6.563   0.211
 1631SOL     OW16923   1.842   7.353   0.359
 1631SOL    HW116924   1.896   7.324   0.439
 1631SOL    HW216925   1.872   7.443   0.330
 1632SOL     OW16926   0.027   7.182   0.117
 1632SOL    HW116927   0.008   7.086   0.138
 1632SOL    HW216928  -0.006   7.240   0.192
 1633SOL     OW16929   1.689   6.508   0.612
 1633SOL    HW116930   1.784   6.479   0.620
 1633SOL    HW216931   1.681   6.573   0.537
 1634SOL     OW16932   1.641   6.694   0.432
 1634SOL    HW116933   1.727   6.696   0.380
 1634SOL    HW216934   1.655   6.741   0.520
 1635SOL     OW16935   0.113   6.323   1.597
 1635SOL    HW116936   0.201   6.310   1.642
 1635SOL    HW216937   0.100   6.420   1.575
 1636SOL     OW16938   0.613   6.951   0.726
 1636SOL    HW116939   0.564   6.864   0.735
 1636SOL    HW216940   0.590   6.994   0.639
 1637SOL     OW16941   0.809   5.590   0.502
 1637SOL    HW116942   0.849   5.681   0.493
 1637SOL    HW216943   0.709   5.598   0.508
 1638SOL     OW16944   1.525   6.585   0.190
 1638SOL    HW116945   1.462   6.509   0.203
 1638SOL    HW216946   1.573   6.603   0.276
 1639SOL     OW16947   1.187   7.378   1.616
 1639SOL    HW116948   1.211   7.438   1.540
 1639SOL    HW216949   1.194   7.283   1.586
 1640SOL     OW16950   1.466   7.003   0.953
 1640SOL    HW116951   1.407   7.009   1.033
 1640SOL    HW216952   1.451   6.915   0.907
 1641SOL     OW16953   1.667   7.300   0.572
 1641SOL    HW116954   1.626   7.277   0.484
 1641SOL    HW216955   1.649   7.226   0.637
 1642SOL     OW16956   0.598   6.315   0.270
 1642SOL    HW116957   0.622   6.384   0.202
 1642SOL    HW216958   0.520   6.348   0.324
 1643SOL     OW16959   1.281   5.931   0.944
 1643SOL    HW116960   1.195   5.881   0.931
 1643SOL    HW216961   1.343   5.877   1.000
 1644SOL     OW16962   1.576   7.248   0.307
 1644SOL    HW116963   1.665   7.294   0.310
 1644SOL    HW216964   1.555   7.224   0.212
 1645SOL     OW16965   1.394   6.055   1.674
 1645SOL    HW116966   1.374   6.098   1.762
 1645SOL    HW216967   1.472   5.993   1.683
 1646SOL     OW16968   0.991   5.996   1.242
 1646SOL    HW116969   0.914   6.030   1.296
 1646SOL    HW216970   0.957   5.945   1.163
 1647SOL     OW16971   1.041   6.287   0.429
 1647SOL    HW116972   1.067   6.283   0.525
 1647SOL    HW216973   0.956   6.236   0.415
 1648SOL     OW16974   0.865   5.934   0.195
 1648SOL    HW116975   0.924   5.997   0.146
 1648SOL    HW216976   0.884   5.840   0.166
 1649SOL     OW16977   1.362   6.730   0.545
 1649SOL    HW116978   1.445   6.701   0.497
 1649SOL    HW216979   1.313   6.797   0.489
 1650SOL     OW16980   0.550   5.782   0.885
 1650SOL    HW116981   0.545   5.777   0.985
 1650SOL    HW216982   0.552   5.878   0.856
 1651SOL     OW16983   1.008   7.042   0.477
 1651SOL    HW116984   0.962   7.114   0.425
 1651SOL    HW216985   1.004   7.062   0.575
 1652SOL     OW16986   0.351   7.387   0.853
 1652SOL    HW116987   0.401   7.301   0.859
 1652SOL    HW216988   0.416   7.464   0.850
 1653SOL     OW16989   1.795   6.652   0.873
 1653SOL    HW116990   1.733   6.637   0.797
 1653SOL    HW216991   1.743   6.663   0.958
 1654SOL     OW16992   0.321   6.529   0.242
 1654SOL    HW116993   0.403   6.568   0.200
 1654SOL    HW216994   0.294   6.447   0.193
 1655SOL     OW16995   1.458   6.321   0.728
 1655SOL    HW116996   1.453   6.256   0.803
 1655SOL    HW216997   1.538   6.380   0.741
 1656SOL     OW16998   1.111   7.362   0.237
 1656SOL    HW116999   1.051   7.300   0.287
 1656SOL    HW217000   1.142   7.318   0.152
 1657SOL     OW17001   1.632   6.963   0.081
 1657SOL    HW117002   1.600   7.057   0.071
 1657SOL    HW217003   1.556   6.900   0.069
 1658SOL     OW17004   0.464   7.329   0.323
 1658SOL    HW117005   0.497   7.368   0.409
 1658SOL    HW217006   0.540   7.322   0.258
 1659SOL     OW17007   1.400   5.693   0.426
 1659SOL    HW117008   1.376   5.656   0.336
 1659SOL    HW217009   1.499   5.709   0.430
 1660SOL     OW17010   0.249   7.371   1.241
 1660SOL    HW117011   0.306   7.306   1.291
 1660SOL    HW217012   0.233   7.338   1.148
 1661SOL     OW17013   0.940   7.284   0.904
 1661SOL    HW117014   1.020   7.227   0.925
 1661SOL    HW217015   0.891   7.244   0.827
 1662SOL     OW17016   0.781   5.850   1.749
 1662SOL    HW117017   0.848   5.789   1.792
 1662SOL    HW217018   0.708   5.869   1.814
 1663SOL     OW17019   0.888   7.100   1.195
 1663SOL    HW117020   0.865   7.075   1.101
 1663SOL    HW217021   0.949   7.031   1.234
 1664SOL     OW17022   1.351   6.176   1.433
 1664SOL    HW117023   1.379   6.133   1.518
 1664SOL    HW217024   1.376   6.272   1.434
 1665SOL     OW17025   0.803   6.988   0.924
 1665SOL    HW117026   0.893   7.002   0.882
 1665SOL    HW217027   0.732   6.990   0.853
 1666SOL     OW17028   0.922   6.089   0.899
 1666SOL    HW117029   0.897   6.080   0.803
 1666SOL    HW217030   0.970   6.007   0.930
 1667SOL     OW17031   0.539   5.650   0.512
 1667SOL    HW117032   0.458   5.651   0.570
 1667SOL    HW217033   0.542   5.733   0.457
 1668SOL     OW17034   1.434   6.774   0.041
 1668SOL    HW117035   1.466   6.698   0.098
 1668SOL    HW217036   1.342   6.801   0.071
 1669SOL     OW17037   0.935   5.822   0.480
 1669SOL    HW117038   0.887   5.863   0.402
 1669SOL    HW217039   1.034   5.820   0.461
 1670SOL     OW17040   1.227   7.156   0.793
 1670SOL    HW117041   1.248   7.230   0.728
 1670SOL    HW217042   1.295   7.156   0.866
 1671SOL     OW17043   0.459   6.738   0.741
 1671SOL    HW117044   0.388   6.711   0.806
 1671SOL    HW217045   0.433   6.710   0.648
 1672SOL     OW17046   1.271   7.383   0.591
 1672SOL    HW117047   1.315   7.447   0.527
 1672SOL    HW217048   1.221   7.435   0.661
 1673SOL     OW17049   1.032   6.135   0.016
 1673SOL    HW117050   0.991   6.217  -0.023
 1673SOL    HW217051   1.096   6.161   0.089
 1674SOL     OW17052   0.561   5.808   1.147
 1674SOL    HW117053   0.599   5.724   1.184
 1674SOL    HW217054   0.473   5.827   1.191
 1675SOL     OW17055   0.866   6.040   0.642
 1675SOL    HW117056   0.834   6.112   0.580
 1675SOL    HW217057   0.890   5.959   0.589
 1676SOL     OW17058   1.017   5.625   0.753
 1676SOL    HW117059   0.945   5.630   0.684
 1676SOL    HW217060   0.993   5.556   0.822
 1677SOL     OW17061   1.429   6.759   0.867
 1677SOL    HW117062   1.374   6.675   0.860
 1677SOL    HW217063   1.455   6.788   0.775
 1678SOL     OW17064   1.466   6.176   0.992
 1678SOL    HW117065   1.436   6.081   0.999
 1678SOL    HW217066   1.539   6.192   1.058
 1679SOL     OW17067   1.857   6.419   0.377
 1679SOL    HW117068   1.899   6.355   0.441
 1679SOL    HW217069   1.819   6.368   0.299
 1680SOL     OW17070   0.488   6.971   0.174
 1680SOL    HW117071   0.401   6.956   0.221
 1680SOL    HW217072   0.471   6.997   0.079
 1681SOL     OW17073   1.664   6.866   0.657
 1681SOL    HW117074   1.763   6.874   0.671
 1681SOL    HW217075   1.619   6.950   0.688
 1682SOL     OW17076   1.390   6.161   0.078
 1682SOL    HW117077   1.336   6.140   0.159
 1682SOL    HW217078   1.481   6.120   0.087
 1683SOL     OW17079   0.527   5.842   0.328
 1683SOL    HW117080   0.554   5.783   0.253
 1683SOL    HW217081   0.527   5.937   0.297
 1684SOL     OW17082   1.064   6.933   1.340
 1684SOL    HW117083   0.984   6.910   1.395
 1684SOL    HW217084   1.147   6.907   1.389
 1685SOL     OW17085   1.111   6.781   1.100
 1685SOL    HW117086   1.071   6.825   1.181
 1685SOL    HW217087   1.070   6.818   1.017
 1686SOL     OW17088   1.638   6.685   1.079
 1686SOL    HW117089   1.643   6.766   1.138
 1686SOL    HW217090   1.552   6.687   1.028
 1687SOL     OW17091   0.915   5.675   1.402
 1687SOL    HW117092   0.940   5.655   1.307
 1687SOL    HW217093   0.987   5.731   1.444
 1688SOL     OW17094   0.705   6.636   0.368
 1688SOL    HW117095   0.691   6.643   0.467
 1688SOL    HW217096   0.789   6.585   0.350
 1689SOL     OW17097   0.410   6.399   1.251
 1689SOL    HW117098   0.496   6.411   1.301
 1689SOL    HW217099   0.368   6.312   1.278
 1690SOL     OW17100   1.274   5.972   1.262
 1690SOL    HW117101   1.295   6.046   1.326
 1690SOL    HW217102   1.185   5.989   1.219
 1691SOL     OW17103   0.064   7.150   1.331
 1691SOL    HW117104   0.018   7.232   1.297
 1691SOL    HW217105   0.162   7.169   1.340
 1692SOL     OW17106   0.367   6.686   0.501
 1692SOL    HW117107   0.360   6.769   0.445
 1692SOL    HW217108   0.371   6.606   0.441
 1693SOL     OW17109   1.252   6.934   0.388
 1693SOL    HW117110   1.302   7.011   0.428
 1693SOL    HW217111   1.157   6.936   0.420
 1694SOL     OW17112   1.272   7.031   1.142
 1694SOL    HW117113   1.319   7.044   1.229
 1694SOL    HW217114   1.206   6.957   1.151
 1695SOL     OW17115   1.582   6.225   0.472
 1695SOL    HW117116   1.551   6.286   0.545
 1695SOL    HW217117   1.632   6.277   0.403
 1696SOL     OW17118   0.354   7.096   1.329
 1696SOL    HW117119   0.333   7.052   1.242
 1696SOL    HW217120   0.451   7.122   1.332
 1697SOL     OW17121   1.013   5.691   1.770
 1697SOL    HW117122   1.019   5.776   1.718
 1697SOL    HW217123   1.045   5.615   1.713
 1698SOL     OW17124   0.573   6.456   1.029
 1698SOL    HW117125   0.617   6.545   1.020
 1698SOL    HW217126   0.510   6.456   1.106
 1699SOL     OW17127   1.360   6.448   1.045
 1699SOL    HW117128   1.285   6.448   0.979
 1699SOL    HW217129   1.397   6.356   1.054
 1700SOL     OW17130   1.209   6.111   0.275
 1700SOL    HW117131   1.222   6.027   0.329
 1700SOL    HW217132   1.180   6.185   0.335
 1701SOL     OW17133   0.307   5.799   1.231
 1701SOL    HW117134   0.284   5.836   1.321
 1701SOL    HW217135   0.277   5.704   1.225
 1702SOL     OW17136   0.037   6.896   1.282
 1702SOL    HW117137   0.090   6.847   1.350
 1702SOL    HW217138   0.059   6.994   1.287
 1703SOL     OW17139   0.732   6.220   1.064
 1703SOL    HW117140   0.791   6.194   0.988
 1703SOL    HW217141   0.704   6.316   1.053
 1704SOL     OW17142   0.307   5.649   0.618
 1704SOL    HW117143   0.296   5.743   0.651
 1704SOL    HW217144   0.302   5.586   0.695
 1705SOL     OW17145   1.622   5.953   0.374
 1705SOL    HW117146   1.624   5.877   0.438
 1705SOL    HW217147   1.574   6.030   0.414
 1706SOL     OW17148   1.023   6.352   0.966
 1706SOL    HW117149   1.038   6.373   1.062
 1706SOL    HW217150   0.993   6.257   0.957
 1707SOL     OW17151   0.980   7.159   1.700
 1707SOL    HW117152   0.960   7.203   1.612
 1707SOL    HW217153   1.019   7.068   1.684
 1708SOL     OW17154   0.350   6.484   1.804
 1708SOL    HW117155   0.426   6.528   1.852
 1708SOL    HW217156   0.385   6.437   1.722
 1709SOL     OW17157   1.540   5.860   0.125
 1709SOL    HW117158   1.479   5.785   0.148
 1709SOL    HW217159   1.562   5.912   0.208
 1710SOL     OW17160   1.303   6.424   0.042
 1710SOL    HW117161   1.337   6.331   0.057
 1710SOL    HW217162   1.321   6.451  -0.053
 1711SOL     OW17163   1.068   6.919   0.849
 1711SOL    HW117164   1.075   6.835   0.794
 1711SOL    HW217165   1.130   6.988   0.813
 1712SOL     OW17166   0.339   6.095   1.006
 1712SOL    HW117167   0.287   6.012   0.989
 1712SOL    HW217168   0.416   6.100   0.942
 1713SOL     OW17169   1.160   5.793   1.477
 1713SOL    HW117170   1.160   5.857   1.554
 1713SOL    HW217171   1.188   5.841   1.394
 1714SOL     OW17172   0.008   6.912   0.200
 1714SOL    HW117173  -0.085   6.933   0.169
 1714SOL    HW217174   0.018   6.813   0.213
 1715SOL     OW17175   0.088   7.387   0.927
 1715SOL    HW117176   0.046   7.301   0.900
 1715SOL    HW217177   0.182   7.390   0.893
 1716SOL     OW17178   0.504   7.154   0.910
 1716SOL    HW117179   0.570   7.228   0.919
 1716SOL    HW217180   0.548   7.075   0.868
 1717SOL     OW17181   1.002   6.382   1.238
 1717SOL    HW117182   1.043   6.350   1.324
 1717SOL    HW217183   0.906   6.355   1.235
 1718SOL     OW17184   0.815   6.158   0.325
 1718SOL    HW117185   0.822   6.069   0.279
 1718SOL    HW217186   0.721   6.192   0.317
 1719SOL     OW17187   1.657   6.190   1.206
 1719SOL    HW117188   1.619   6.121   1.268
 1719SOL    HW217189   1.739   6.154   1.162
 1720SOL     OW17190   0.671   6.050   1.269
 1720SOL    HW117191   0.637   5.961   1.239
 1720SOL    HW217192   0.697   6.104   1.189
 1721SOL     OW17193   0.930   7.264   1.465
 1721SOL    HW117194   0.906   7.246   1.370
 1721SOL    HW217195   0.960   7.358   1.475
 1722SOL     OW17196   0.473   6.086   0.191
 1722SOL    HW117197   0.534   6.166   0.195
 1722SOL    HW217198   0.378   6.117   0.198
 1723SOL     OW17199   1.347   6.645   1.234
 1723SOL    HW117200   1.371   6.582   1.160
 1723SOL    HW217201   1.257   6.685   1.216
 1724SOL     OW17202   1.302   6.441   0.309
 1724SOL    HW117203   1.216   6.410   0.351
 1724SOL    HW217204   1.298   6.427   0.210
 1725SOL     OW17205   1.759   7.333   1.154
 1725SOL    HW117206   1.820   7.363   1.081
 1725SOL    HW217207   1.721   7.244   1.132
 1726SOL     OW17208   1.252   7.317   1.128
 1726SOL    HW117209   1.336   7.322   1.074
 1726SOL    HW217210   1.229   7.221   1.146
 1727SOL     OW17211   0.083   6.844   1.022
 1727SOL    HW117212   0.078   6.843   1.122
 1727SOL    HW217213   0.000   6.803   0.984
 1728SOL     OW17214   0.903   5.672   0.133
 1728SOL    HW117215   0.954   5.673   0.047
 1728SOL    HW217216   0.959   5.630   0.204
 1729SOL     OW17217   1.726   5.721   0.523
 1729SOL    HW117218   1.799   5.704   0.456
 1729SOL    HW217219   1.695   5.634   0.561
 1730SOL     OW17220   1.388   7.159   0.477
 1730SOL    HW117221   1.455   7.171   0.403
 1730SOL    HW217222   1.348   7.248   0.500
 1731SOL     OW17223   0.130   7.380   1.851
 1731SOL    HW117224   0.089   7.306   1.904
 1731SOL    HW217225   0.194   7.431   1.909
 1732SOL     OW17226   1.280   6.513   0.672
 1732SOL    HW117227   1.340   6.432   0.674
 1732SOL    HW217228   1.320   6.582   0.612
 1733SOL     OW17229   0.830   6.859   1.422
 1733SOL    HW117230   0.825   6.892   1.517
 1733SOL    HW217231   0.744   6.878   1.376
 1734SOL     OW17232   0.672   7.202   0.154
 1734SOL    HW117233   0.681   7.212   0.055
 1734SOL    HW217234   0.632   7.113   0.175
 1735SOL     OW17235   1.650   7.306   1.394
 1735SOL    HW117236   1.703   7.316   1.310
 1735SOL    HW217237   1.623   7.396   1.428
 1736SOL     OW17238   1.841   5.761   0.963
 1736SOL    HW117239   1.880   5.676   0.927
 1736SOL    HW217240   1.743   5.763   0.944
 1737SOL     OW17241   0.263   5.912   0.720
 1737SOL    HW117242   0.184   5.963   0.686
 1737SOL    HW217243   0.254   5.897   0.818
 1738SOL     OW17244   1.194   7.198   0.031
 1738SOL    HW117245   1.200   7.105   0.068
 1738SOL    HW217246   1.135   7.198  -0.049
 1739SOL     OW17247   0.822   6.588   1.372
 1739SOL    HW117248   0.862   6.587   1.280
 1739SOL    HW217249   0.832   6.680   1.412
 1740SOL     OW17250   0.916   6.496   0.291
 1740SOL    HW117251   0.979   6.534   0.223
 1740SOL    HW217252   0.956   6.413   0.330
 1741SOL     OW17253   1.504   7.193   0.044
 1741SOL    HW117254   1.412   7.230   0.051
 1741SOL    HW217255   1.542   7.213  -0.046
 1742SOL     OW17256   0.372   6.874   1.490
 1742SOL    HW117257   0.359   6.967   1.456
 1742SOL    HW217258   0.288   6.822   1.477
 1743SOL     OW17259   1.039   6.684   0.696
 1743SOL    HW117260   0.969   6.637   0.750
 1743SOL    HW217261   1.098   6.616   0.653
 1744SOL     OW17262   1.014   5.822   0.971
 1744SOL    HW117263   1.006   5.786   0.878
 1744SOL    HW217264   1.012   5.746   1.036
 1745SOL     OW17265   0.590   7.073   0.491
 1745SOL    HW117266   0.632   7.015   0.421
 1745SOL    HW217267   0.546   7.152   0.447
 1746SOL     OW17268   0.255   6.934   0.290
 1746SOL    HW117269   0.159   6.935   0.263
 1746SOL    HW217270   0.267   6.987   0.374
 1747SOL     OW17271   0.075   5.931   0.033
 1747SOL    HW117272  -0.017   5.903   0.004
 1747SOL    HW217273   0.106   6.008  -0.023
 1748SOL     OW17274   1.440   6.442   1.398
 1748SOL    HW117275   1.383   6.494   1.335
 1748SOL    HW217276   1.536   6.454   1.374
 1749SOL     OW17277   0.072   5.752   0.318
 1749SOL    HW117278   0.055   5.835   0.264
 1749SOL    HW217279   0.162   5.715   0.296
 1750SOL     OW17280   1.183   6.921   0.119
 1750SOL    HW117281   1.084   6.910   0.121
 1750SOL    HW217282   1.217   6.936   0.212
 1751SOL     OW17283   0.613   6.428   1.431
 1751SOL    HW117284   0.669   6.509   1.414
 1751SOL    HW217285   0.672   6.348   1.434
 1752SOL     OW17286   1.493   7.353   0.959
 1752SOL    HW117287   1.526   7.417   0.890
 1752SOL    HW217288   1.559   7.347   1.034
 1753SOL     OW17289   1.674   6.469   1.254
 1753SOL    HW117290   1.647   6.380   1.217
 1753SOL    HW217291   1.675   6.537   1.181
 1754SOL     OW17292   1.225   5.911   0.449
 1754SOL    HW117293   1.290   5.837   0.438
 1754SOL    HW217294   1.245   5.961   0.533
 1755SOL     OW17295   0.859   6.960   0.016
 1755SOL    HW117296   0.813   6.975   0.104
 1755SOL    HW217297   0.903   7.045  -0.014
 1756SOL     OW17298   0.661   7.376   0.953
 1756SOL    HW117299   0.615   7.464   0.940
 1756SOL    HW217300   0.760   7.388   0.946
 1757SOL     OW17301   0.859   6.542   0.861
 1757SOL    HW117302   0.913   6.473   0.909
 1757SOL    HW217303   0.827   6.611   0.927
 1758SOL     OW17304   1.083   6.570   0.087
 1758SOL    HW117305   1.060   6.623   0.005
 1758SOL    HW217306   1.164   6.514   0.068
 1759SOL     OW17307   1.861   7.155   0.851
 1759SOL    HW117308   1.790   7.143   0.781
 1759SOL    HW217309   1.862   7.076   0.911
 1760SOL     OW17310   0.079   6.826   0.653
 1760SOL    HW117311   0.078   6.779   0.741
 1760SOL    HW217312   0.161   6.798   0.602
 1761SOL     OW17313   0.672   6.977   1.624
 1761SOL    HW117314   0.594   6.927   1.662
 1761SOL    HW217315   0.669   7.072   1.655
 1762SOL     OW17316   0.428   6.010   0.520
 1762SOL    HW117317   0.458   5.938   0.458
 1762SOL    HW217318   0.389   5.970   0.603
 1763SOL     OW17319   1.705   7.073   1.104
 1763SOL    HW117320   1.612   7.048   1.077
 1763SOL    HW217321   1.731   7.023   1.186
 1764SOL     OW17322   0.317   6.133   1.280
 1764SOL    HW117323   0.355   6.074   1.352
 1764SOL    HW217324   0.357   6.107   1.192
 1765SOL     OW17325   0.812   7.172   0.687
 1765SOL    HW117326   0.844   7.182   0.593
 1765SOL    HW217327   0.733   7.110   0.689
 1766SOL     OW17328   1.424   5.800   1.112
 1766SOL    HW117329   1.476   5.735   1.167
 1766SOL    HW217330   1.375   5.863   1.173
 1767SOL     OW17331   1.001   5.620   1.154
 1767SOL    HW117332   0.938   5.548   1.123
 1767SOL    HW217333   1.094   5.584   1.154
 1768SOL     OW17334   0.770   6.916   0.301
 1768SOL    HW117335   0.724   6.829   0.318
 1768SOL    HW217336   0.861   6.913   0.342
 1769SOL     OW17337   0.618   7.153   1.284
 1769SOL    HW117338   0.613   7.235   1.341
 1769SOL    HW217339   0.707   7.150   1.239
 1770SOL     OW17340   1.352   5.638   0.168
 1770SOL    HW117341   1.387   5.597   0.084
 1770SOL    HW217342   1.262   5.600   0.188
 1771SOL     OW17343   1.300   6.039   0.691
 1771SOL    HW117344   1.241   6.119   0.695
 1771SOL    HW217345   1.315   6.004   0.784
 1772SOL     OW17346   1.593   5.807   0.882
 1772SOL    HW117347   1.509   5.806   0.936
 1772SOL    HW217348   1.595   5.890   0.826
 1773SOL     OW17349   0.039   6.663   0.300
 1773SOL    HW117350   0.138   6.652   0.291
 1773SOL    HW217351  -0.001   6.577   0.332
 1774SOL     OW17352   0.875   7.232   0.337
 1774SOL    HW117353   0.798   7.197   0.283
 1774SOL    HW217354   0.843   7.303   0.399
 1775SOL     OW17355   0.019   5.954   2.509
 1775SOL    HW117356  -0.063   5.997   2.548
 1775SOL    HW217357  -0.009   5.881   2.446
 1776SOL     OW17358   1.135   6.289   2.579
 1776SOL    HW117359   1.192   6.367   2.554
 1776SOL    HW217360   1.075   6.315   2.655
 1777SOL     OW17361   0.768   6.730   2.885
 1777SOL    HW117362   0.690   6.747   2.945
 1777SOL    HW217363   0.802   6.817   2.849
 1778SOL     OW17364   0.686   6.747   3.665
 1778SOL    HW117365   0.746   6.826   3.679
 1778SOL    HW217366   0.600   6.778   3.624
 1779SOL     OW17367   0.335   7.021   2.923
 1779SOL    HW117368   0.257   6.990   2.870
 1779SOL    HW217369   0.393   7.079   2.866
 1780SOL     OW17370   0.438   5.978   3.361
 1780SOL    HW117371   0.520   5.922   3.370
 1780SOL    HW217372   0.357   5.920   3.365
 1781SOL     OW17373   1.603   6.033   2.599
 1781SOL    HW117374   1.529   6.079   2.549
 1781SOL    HW217375   1.654   6.101   2.652
 1782SOL     OW17376   1.127   6.927   3.552
 1782SOL    HW117377   1.174   6.927   3.640
 1782SOL    HW217378   1.079   6.840   3.541
 1783SOL     OW17379   0.620   7.372   3.301
 1783SOL    HW117380   0.528   7.355   3.336
 1783SOL    HW217381   0.648   7.464   3.327
 1784SOL     OW17382   1.594   5.700   3.342
 1784SOL    HW117383   1.576   5.767   3.270
 1784SOL    HW217384   1.591   5.746   3.431
 1785SOL     OW17385   0.027   7.182   1.979
 1785SOL    HW117386   0.008   7.086   2.000
 1785SOL    HW217387  -0.006   7.240   2.054
 1786SOL     OW17388   0.807   6.191   3.327
 1786SOL    HW117389   0.760   6.188   3.416
 1786SOL    HW217390   0.756   6.136   3.261
 1787SOL     OW17391   0.076   6.397   2.651
 1787SOL    HW117392   0.175   6.385   2.660
 1787SOL    HW217393   0.052   6.492   2.672
 1788SOL     OW17394   1.719   6.171   3.693
 1788SOL    HW117395   1.693   6.260   3.657
 1788SOL    HW217396   1.717   6.103   3.620
 1789SOL     OW17397   0.550   5.782   2.747
 1789SOL    HW117398   0.545   5.777   2.847
 1789SOL    HW217399   0.552   5.878   2.718
 1790SOL     OW17400   0.321   6.529   2.104
 1790SOL    HW117401   0.403   6.568   2.062
 1790SOL    HW217402   0.294   6.447   2.055
 1791SOL     OW17403   1.111   7.362   2.099
 1791SOL    HW117404   1.051   7.300   2.149
 1791SOL    HW217405   1.142   7.318   2.014
 1792SOL     OW17406   0.464   7.329   2.185
 1792SOL    HW117407   0.497   7.368   2.271
 1792SOL    HW217408   0.540   7.322   2.120
 1793SOL     OW17409   0.940   7.284   2.766
 1793SOL    HW117410   1.020   7.227   2.787
 1793SOL    HW217411   0.891   7.244   2.689
 1794SOL     OW17412   0.781   5.850   3.611
 1794SOL    HW117413   0.848   5.789   3.654
 1794SOL    HW217414   0.708   5.869   3.676
 1795SOL     OW17415   0.888   7.100   3.057
 1795SOL    HW117416   0.865   7.075   2.963
 1795SOL    HW217417   0.949   7.031   3.096
 1796SOL     OW17418   1.351   6.176   3.295
 1796SOL    HW117419   1.379   6.133   3.380
 1796SOL    HW217420   1.376   6.272   3.296
 1797SOL     OW17421   0.935   5.822   2.342
 1797SOL    HW117422   0.887   5.863   2.264
 1797SOL    HW217423   1.034   5.820   2.323
 1798SOL     OW17424   0.459   6.738   2.603
 1798SOL    HW117425   0.388   6.711   2.668
 1798SOL    HW217426   0.433   6.710   2.510
 1799SOL     OW17427   1.271   7.383   2.453
 1799SOL    HW117428   1.315   7.447   2.389
 1799SOL    HW217429   1.221   7.435   2.523
 1800SOL     OW17430   1.429   6.759   2.729
 1800SOL    HW117431   1.374   6.675   2.722
 1800SOL    HW217432   1.455   6.788   2.637
 1801SOL     OW17433   1.857   6.419   2.239
 1801SOL    HW117434   1.899   6.355   2.303
 1801SOL    HW217435   1.819   6.368   2.161
 1802SOL     OW17436   1.664   6.866   2.519
 1802SOL    HW117437   1.763   6.874   2.533
 1802SOL    HW217438   1.619   6.950   2.550
 1803SOL     OW17439   0.980   6.702   3.581
 1803SOL    HW117440   0.881   6.708   3.591
 1803SOL    HW217441   1.003   6.622   3.525
 1804SOL     OW17442   0.705   6.636   2.230
 1804SOL    HW117443   0.691   6.643   2.329
 1804SOL    HW217444   0.789   6.585   2.212
 1805SOL     OW17445   1.274   5.972   3.124
 1805SOL    HW117446   1.295   6.046   3.188
 1805SOL    HW217447   1.185   5.989   3.081
 1806SOL     OW17448   0.566   6.123   2.727
 1806SOL    HW117449   0.578   6.189   2.653
 1806SOL    HW217450   0.612   6.157   2.810
 1807SOL     OW17451   0.402   6.337   3.460
 1807SOL    HW117452   0.470   6.392   3.413
 1807SOL    HW217453   0.442   6.249   3.487
 1808SOL     OW17454   1.587   6.365   3.532
 1808SOL    HW117455   1.495   6.403   3.527
 1808SOL    HW217456   1.647   6.412   3.467
 1809SOL     OW17457   0.573   6.456   2.891
 1809SOL    HW117458   0.617   6.545   2.882
 1809SOL    HW217459   0.510   6.456   2.968
 1810SOL     OW17460   0.307   5.799   3.093
 1810SOL    HW117461   0.284   5.836   3.183
 1810SOL    HW217462   0.277   5.704   3.087
 1811SOL     OW17463   0.037   6.896   3.144
 1811SOL    HW117464   0.090   6.847   3.212
 1811SOL    HW217465   0.059   6.994   3.149
 1812SOL     OW17466   0.732   6.220   2.926
 1812SOL    HW117467   0.791   6.194   2.850
 1812SOL    HW217468   0.704   6.316   2.915
 1813SOL     OW17469   1.728   6.521   3.716
 1813SOL    HW117470   1.682   6.514   3.627
 1813SOL    HW217471   1.666   6.565   3.782
 1814SOL     OW17472   1.622   5.953   2.236
 1814SOL    HW117473   1.624   5.877   2.300
 1814SOL    HW217474   1.574   6.030   2.276
 1815SOL     OW17475   1.859   7.104   3.467
 1815SOL    HW117476   1.873   7.131   3.372
 1815SOL    HW217477   1.942   7.126   3.520
 1816SOL     OW17478   0.350   6.484   3.666
 1816SOL    HW117479   0.426   6.528   3.714
 1816SOL    HW217480   0.385   6.437   3.584
 1817SOL     OW17481   1.068   6.919   2.711
 1817SOL    HW117482   1.075   6.835   2.656
 1817SOL    HW217483   1.130   6.988   2.675
 1818SOL     OW17484   0.319   6.396   2.811
 1818SOL    HW117485   0.412   6.432   2.816
 1818SOL    HW217486   0.313   6.311   2.863
 1819SOL     OW17487   1.138   5.966   3.540
 1819SOL    HW117488   1.093   6.029   3.604
 1819SOL    HW217489   1.231   5.997   3.523
 1820SOL     OW17490   0.040   6.130   2.976
 1820SOL    HW117491   0.125   6.097   2.935
 1820SOL    HW217492   0.053   6.145   3.074
 1821SOL     OW17493   0.815   6.158   2.187
 1821SOL    HW117494   0.822   6.069   2.141
 1821SOL    HW217495   0.721   6.192   2.179
 1822SOL     OW17496   1.657   6.190   3.068
 1822SOL    HW117497   1.619   6.121   3.130
 1822SOL    HW217498   1.739   6.154   3.024
 1823SOL     OW17499   0.671   6.050   3.131
 1823SOL    HW117500   0.637   5.961   3.101
 1823SOL    HW217501   0.697   6.104   3.051
 1824SOL     OW17502   0.473   6.086   2.053
 1824SOL    HW117503   0.534   6.166   2.057
 1824SOL    HW217504   0.378   6.117   2.060
 1825SOL     OW17505   1.347   6.645   3.096
 1825SOL    HW117506   1.371   6.582   3.022
 1825SOL    HW217507   1.257   6.685   3.078
 1826SOL     OW17508   1.302   6.441   2.171
 1826SOL    HW117509   1.216   6.410   2.213
 1826SOL    HW217510   1.298   6.427   2.072
 1827SOL     OW17511   1.280   6.513   2.534
 1827SOL    HW117512   1.340   6.432   2.536
 1827SOL    HW217513   1.320   6.582   2.474
 1828SOL     OW17514   0.672   7.202   2.016
 1828SOL    HW117515   0.681   7.212   1.917
 1828SOL    HW217516   0.632   7.113   2.037
 1829SOL     OW17517   0.263   5.912   2.582
 1829SOL    HW117518   0.184   5.963   2.548
 1829SOL    HW217519   0.254   5.897   2.680
 1830SOL     OW17520   1.014   5.822   2.833
 1830SOL    HW117521   1.006   5.786   2.740
 1830SOL    HW217522   1.012   5.746   2.898
 1831SOL     OW17523   0.590   7.073   2.353
 1831SOL    HW117524   0.632   7.015   2.283
 1831SOL    HW217525   0.546   7.152   2.309
 1832SOL     OW17526   1.440   6.442   3.260
 1832SOL    HW117527   1.383   6.494   3.197
 1832SOL    HW217528   1.536   6.454   3.236
 1833SOL     OW17529   1.777   5.928   3.504
 1833SOL    HW117530   1.760   5.959   3.410
 1833SOL    HW217531   1.693   5.891   3.542
 1834SOL     OW17532   0.661   7.376   2.815
 1834SOL    HW117533   0.615   7.464   2.802
 1834SOL    HW217534   0.760   7.388   2.808
 1835SOL     OW17535   0.317   6.133   3.142
 1835SOL    HW117536   0.355   6.074   3.214
 1835SOL    HW217537   0.357   6.107   3.054
 1836SOL     OW17538   1.424   5.800   2.974
 1836SOL    HW117539   1.476   5.735   3.029
 1836SOL    HW217540   1.375   5.863   3.035
 1837SOL     OW17541   1.001   5.620   3.016
 1837SOL    HW117542   0.938   5.548   2.985
 1837SOL    HW217543   1.094   5.584   3.016
 1838SOL     OW17544   0.770   6.916   2.163
 1838SOL    HW117545   0.724   6.829   2.180
 1838SOL    HW217546   0.861   6.913   2.204
 1839SOL     OW17547   0.225   5.861   4.720
 1839SOL    HW117548   0.260   5.844   4.812
 1839SOL    HW217549   0.137   5.816   4.708
 1840SOL     OW17550   0.019   5.954   4.371
 1840SOL    HW117551  -0.063   5.997   4.410
 1840SOL    HW217552  -0.009   5.881   4.308
 1841SOL     OW17553   0.569   6.861   4.889
 1841SOL    HW117554   0.476   6.854   4.852
 1841SOL    HW217555   0.580   6.950   4.933
 1842SOL     OW17556   0.768   6.730   4.747
 1842SOL    HW117557   0.690   6.747   4.807
 1842SOL    HW217558   0.802   6.817   4.711
 1843SOL     OW17559   0.850   6.384   5.547
 1843SOL    HW117560   0.846   6.460   5.612
 1843SOL    HW217561   0.872   6.420   5.456
 1844SOL     OW17562   0.685   6.598   4.389
 1844SOL    HW117563   0.754   6.582   4.459
 1844SOL    HW217564   0.612   6.655   4.427
 1845SOL     OW17565   0.686   6.747   5.527
 1845SOL    HW117566   0.746   6.826   5.541
 1845SOL    HW217567   0.600   6.778   5.486
 1846SOL     OW17568   0.438   5.978   5.223
 1846SOL    HW117569   0.520   5.922   5.232
 1846SOL    HW217570   0.357   5.920   5.227
 1847SOL     OW17571   1.127   6.927   5.414
 1847SOL    HW117572   1.174   6.927   5.502
 1847SOL    HW217573   1.079   6.840   5.403
 1848SOL     OW17574   0.230   7.020   4.262
 1848SOL    HW117575   0.204   7.116   4.262
 1848SOL    HW217576   0.159   6.966   4.307
 1849SOL     OW17577   0.240   6.677   4.610
 1849SOL    HW117578   0.254   6.593   4.662
 1849SOL    HW217579   0.185   6.741   4.665
 1850SOL     OW17580   0.620   7.372   5.163
 1850SOL    HW117581   0.528   7.355   5.198
 1850SOL    HW217582   0.648   7.464   5.189
 1851SOL     OW17583   1.594   5.700   5.204
 1851SOL    HW117584   1.576   5.767   5.132
 1851SOL    HW217585   1.591   5.746   5.293
 1852SOL     OW17586   0.122   6.229   4.287
 1852SOL    HW117587   0.077   6.141   4.304
 1852SOL    HW217588   0.121   6.283   4.371
 1853SOL     OW17589   0.027   7.182   3.841
 1853SOL    HW117590   0.008   7.086   3.862
 1853SOL    HW217591  -0.006   7.240   3.916
 1854SOL     OW17592   1.689   6.508   4.336
 1854SOL    HW117593   1.784   6.479   4.344
 1854SOL    HW217594   1.681   6.573   4.261
 1855SOL     OW17595   0.113   6.323   5.321
 1855SOL    HW117596   0.201   6.310   5.366
 1855SOL    HW217597   0.100   6.420   5.299
 1856SOL     OW17598   1.293   6.814   5.147
 1856SOL    HW117599   1.330   6.741   5.089
 1856SOL    HW217600   1.345   6.819   5.232
 1857SOL     OW17601   0.197   6.562   4.988
 1857SOL    HW117602   0.286   6.517   4.974
 1857SOL    HW217603   0.124   6.497   4.969
 1858SOL     OW17604   1.187   7.378   5.340
 1858SOL    HW117605   1.211   7.438   5.264
 1858SOL    HW217606   1.194   7.283   5.310
 1859SOL     OW17607   0.317   5.837   5.525
 1859SOL    HW117608   0.388   5.908   5.531
 1859SOL    HW217609   0.229   5.876   5.553
 1860SOL     OW17610   1.466   7.003   4.677
 1860SOL    HW117611   1.407   7.009   4.757
 1860SOL    HW217612   1.451   6.915   4.631
 1861SOL     OW17613   1.281   5.931   4.668
 1861SOL    HW117614   1.195   5.881   4.655
 1861SOL    HW217615   1.343   5.877   4.724
 1862SOL     OW17616   1.576   7.248   4.031
 1862SOL    HW117617   1.665   7.294   4.034
 1862SOL    HW217618   1.555   7.224   3.936
 1863SOL     OW17619   0.807   6.191   5.189
 1863SOL    HW117620   0.760   6.188   5.278
 1863SOL    HW217621   0.756   6.136   5.123
 1864SOL     OW17622   1.394   6.055   5.398
 1864SOL    HW117623   1.374   6.098   5.486
 1864SOL    HW217624   1.472   5.993   5.407
 1865SOL     OW17625   0.973   6.476   5.296
 1865SOL    HW117626   1.019   6.392   5.267
 1865SOL    HW217627   0.917   6.510   5.221
 1866SOL     OW17628   0.991   5.996   4.966
 1866SOL    HW117629   0.914   6.030   5.020
 1866SOL    HW217630   0.957   5.945   4.887
 1867SOL     OW17631   0.076   6.397   4.513
 1867SOL    HW117632   0.175   6.385   4.522
 1867SOL    HW217633   0.052   6.492   4.534
 1868SOL     OW17634   0.130   7.407   5.295
 1868SOL    HW117635   0.120   7.392   5.394
 1868SOL    HW217636   0.044   7.443   5.259
 1869SOL     OW17637   1.362   6.730   4.269
 1869SOL    HW117638   1.445   6.701   4.221
 1869SOL    HW217639   1.313   6.797   4.213
 1870SOL     OW17640   0.550   5.782   4.609
 1870SOL    HW117641   0.545   5.777   4.709
 1870SOL    HW217642   0.552   5.878   4.580
 1871SOL     OW17643   0.351   7.387   4.577
 1871SOL    HW117644   0.401   7.301   4.583
 1871SOL    HW217645   0.416   7.464   4.574
 1872SOL     OW17646   1.795   6.652   4.597
 1872SOL    HW117647   1.733   6.637   4.521
 1872SOL    HW217648   1.743   6.663   4.682
 1873SOL     OW17649   1.227   7.136   5.230
 1873SOL    HW117650   1.233   7.059   5.294
 1873SOL    HW217651   1.175   7.110   5.150
 1874SOL     OW17652   0.461   6.852   5.451
 1874SOL    HW117653   0.411   6.853   5.365
 1874SOL    HW217654   0.398   6.834   5.527
 1875SOL     OW17655   0.202   5.871   5.222
 1875SOL    HW117656   0.122   5.931   5.209
 1875SOL    HW217657   0.192   5.822   5.308
 1876SOL     OW17658   0.464   7.329   4.047
 1876SOL    HW117659   0.497   7.368   4.133
 1876SOL    HW217660   0.540   7.322   3.982
 1877SOL     OW17661   1.400   5.693   4.150
 1877SOL    HW117662   1.376   5.656   4.060
 1877SOL    HW217663   1.499   5.709   4.154
 1878SOL     OW17664   0.249   7.371   4.965
 1878SOL    HW117665   0.306   7.306   5.015
 1878SOL    HW217666   0.233   7.338   4.872
 1879SOL     OW17667   1.547   5.808   5.453
 1879SOL    HW117668   1.542   5.845   5.545
 1879SOL    HW217669   1.475   5.739   5.441
 1880SOL     OW17670   0.614   5.708   3.841
 1880SOL    HW117671   0.712   5.686   3.848
 1880SOL    HW217672   0.583   5.691   3.748
 1881SOL     OW17673   0.781   5.850   5.473
 1881SOL    HW117674   0.848   5.789   5.516
 1881SOL    HW217675   0.708   5.869   5.538
 1882SOL     OW17676   0.888   7.100   4.919
 1882SOL    HW117677   0.865   7.075   4.825
 1882SOL    HW217678   0.949   7.031   4.958
 1883SOL     OW17679   1.351   6.176   5.157
 1883SOL    HW117680   1.379   6.133   5.242
 1883SOL    HW217681   1.376   6.272   5.158
 1884SOL     OW17682   0.539   5.650   4.236
 1884SOL    HW117683   0.458   5.651   4.294
 1884SOL    HW217684   0.542   5.733   4.181
 1885SOL     OW17685   1.076   6.269   5.188
 1885SOL    HW117686   0.996   6.208   5.191
 1885SOL    HW217687   1.157   6.216   5.164
 1886SOL     OW17688   1.227   7.156   4.517
 1886SOL    HW117689   1.248   7.230   4.452
 1886SOL    HW217690   1.295   7.156   4.590
 1887SOL     OW17691   0.459   6.738   4.465
 1887SOL    HW117692   0.388   6.711   4.530
 1887SOL    HW217693   0.433   6.710   4.372
 1888SOL     OW17694   1.032   6.135   3.740
 1888SOL    HW117695   0.991   6.217   3.701
 1888SOL    HW217696   1.096   6.161   3.813
 1889SOL     OW17697   0.078   6.142   5.110
 1889SOL    HW117698   0.170   6.141   5.069
 1889SOL    HW217699   0.072   6.216   5.177
 1890SOL     OW17700   0.561   5.808   4.871
 1890SOL    HW117701   0.599   5.724   4.908
 1890SOL    HW217702   0.473   5.827   4.915
 1891SOL     OW17703   1.017   5.625   4.477
 1891SOL    HW117704   0.945   5.630   4.408
 1891SOL    HW217705   0.993   5.556   4.546
 1892SOL     OW17706   0.488   6.971   3.898
 1892SOL    HW117707   0.401   6.956   3.945
 1892SOL    HW217708   0.471   6.997   3.803
 1893SOL     OW17709   1.664   6.866   4.381
 1893SOL    HW117710   1.763   6.874   4.395
 1893SOL    HW217711   1.619   6.950   4.412
 1894SOL     OW17712   1.754   6.809   5.312
 1894SOL    HW117713   1.845   6.770   5.299
 1894SOL    HW217714   1.762   6.905   5.336
 1895SOL     OW17715   1.064   6.933   5.064
 1895SOL    HW117716   0.984   6.910   5.119
 1895SOL    HW217717   1.147   6.907   5.113
 1896SOL     OW17718   1.592   7.215   5.349
 1896SOL    HW117719   1.619   7.249   5.259
 1896SOL    HW217720   1.671   7.177   5.395
 1897SOL     OW17721   1.111   6.781   4.824
 1897SOL    HW117722   1.071   6.825   4.905
 1897SOL    HW217723   1.070   6.818   4.741
 1898SOL     OW17724   1.638   6.685   4.803
 1898SOL    HW117725   1.643   6.766   4.862
 1898SOL    HW217726   1.552   6.687   4.752
 1899SOL     OW17727   0.915   5.675   5.126
 1899SOL    HW117728   0.940   5.655   5.031
 1899SOL    HW217729   0.987   5.731   5.168
 1900SOL     OW17730   0.980   6.702   5.443
 1900SOL    HW117731   0.881   6.708   5.453
 1900SOL    HW217732   1.003   6.622   5.387
 1901SOL     OW17733   0.410   6.399   4.975
 1901SOL    HW117734   0.496   6.411   5.025
 1901SOL    HW217735   0.368   6.312   5.002
 1902SOL     OW17736   1.274   5.972   4.986
 1902SOL    HW117737   1.295   6.046   5.050
 1902SOL    HW217738   1.185   5.989   4.943
 1903SOL     OW17739   0.064   7.150   5.055
 1903SOL    HW117740   0.018   7.232   5.021
 1903SOL    HW217741   0.162   7.169   5.064
 1904SOL     OW17742   0.367   6.686   4.225
 1904SOL    HW117743   0.360   6.769   4.169
 1904SOL    HW217744   0.371   6.606   4.165
 1905SOL     OW17745   0.354   7.096   5.053
 1905SOL    HW117746   0.333   7.052   4.966
 1905SOL    HW217747   0.451   7.122   5.056
 1906SOL     OW17748   0.402   6.337   5.322
 1906SOL    HW117749   0.470   6.392   5.275
 1906SOL    HW217750   0.442   6.249   5.349
 1907SOL     OW17751   1.587   6.365   5.394
 1907SOL    HW117752   1.495   6.403   5.389
 1907SOL    HW217753   1.647   6.412   5.329
 1908SOL     OW17754   1.013   5.691   5.494
 1908SOL    HW117755   1.019   5.776   5.442
 1908SOL    HW217756   1.045   5.615   5.437
 1909SOL     OW17757   0.504   5.636   5.464
 1909SOL    HW117758   0.462   5.579   5.394
 1909SOL    HW217759   0.438   5.705   5.496
 1910SOL     OW17760   0.573   6.456   4.753
 1910SOL    HW117761   0.617   6.545   4.744
 1910SOL    HW217762   0.510   6.456   4.830
 1911SOL     OW17763   0.307   5.799   4.955
 1911SOL    HW117764   0.284   5.836   5.045
 1911SOL    HW217765   0.277   5.704   4.949
 1912SOL     OW17766   0.037   6.896   5.006
 1912SOL    HW117767   0.090   6.847   5.074
 1912SOL    HW217768   0.059   6.994   5.011
 1913SOL     OW17769   1.728   6.521   5.578
 1913SOL    HW117770   1.682   6.514   5.489
 1913SOL    HW217771   1.666   6.565   5.644
 1914SOL     OW17772   1.622   5.953   4.098
 1914SOL    HW117773   1.624   5.877   4.162
 1914SOL    HW217774   1.574   6.030   4.138
 1915SOL     OW17775   0.980   7.159   5.424
 1915SOL    HW117776   0.960   7.203   5.336
 1915SOL    HW217777   1.019   7.068   5.408
 1916SOL     OW17778   0.350   6.484   5.528
 1916SOL    HW117779   0.426   6.528   5.576
 1916SOL    HW217780   0.385   6.437   5.446
 1917SOL     OW17781   1.068   6.919   4.573
 1917SOL    HW117782   1.075   6.835   4.518
 1917SOL    HW217783   1.130   6.988   4.537
 1918SOL     OW17784   0.319   6.396   4.673
 1918SOL    HW117785   0.412   6.432   4.678
 1918SOL    HW217786   0.313   6.311   4.725
 1919SOL     OW17787   0.339   6.095   4.730
 1919SOL    HW117788   0.287   6.012   4.713
 1919SOL    HW217789   0.416   6.100   4.666
 1920SOL     OW17790   1.138   5.966   5.402
 1920SOL    HW117791   1.093   6.029   5.466
 1920SOL    HW217792   1.231   5.997   5.385
 1921SOL     OW17793   1.160   5.793   5.201
 1921SOL    HW117794   1.160   5.857   5.278
 1921SOL    HW217795   1.188   5.841   5.118
 1922SOL     OW17796   0.008   6.912   3.924
 1922SOL    HW117797  -0.085   6.933   3.893
 1922SOL    HW217798   0.018   6.813   3.937
 1923SOL     OW17799   1.002   6.382   4.962
 1923SOL    HW117800   1.043   6.350   5.048
 1923SOL    HW217801   0.906   6.355   4.959
 1924SOL     OW17802   0.040   6.130   4.838
 1924SOL    HW117803   0.125   6.097   4.797
 1924SOL    HW217804   0.053   6.145   4.936
 1925SOL     OW17805   0.189   6.106   5.446
 1925SOL    HW117806   0.248   6.066   5.376
 1925SOL    HW217807   0.131   6.177   5.405
 1926SOL     OW17808   1.369   6.536   5.384
 1926SOL    HW117809   1.408   6.625   5.404
 1926SOL    HW217810   1.379   6.516   5.287
 1927SOL     OW17811   0.815   6.158   4.049
 1927SOL    HW117812   0.822   6.069   4.003
 1927SOL    HW217813   0.721   6.192   4.041
 1928SOL     OW17814   0.252   7.150   5.468
 1928SOL    HW117815   0.222   7.207   5.544
 1928SOL    HW217816   0.245   7.053   5.494
 1929SOL     OW17817   0.671   6.050   4.993
 1929SOL    HW117818   0.637   5.961   4.963
 1929SOL    HW217819   0.697   6.104   4.913
 1930SOL     OW17820   0.930   7.264   5.189
 1930SOL    HW117821   0.906   7.246   5.094
 1930SOL    HW217822   0.960   7.358   5.199
 1931SOL     OW17823   0.159   6.723   5.190
 1931SOL    HW117824   0.181   6.662   5.266
 1931SOL    HW217825   0.169   6.674   5.104
 1932SOL     OW17826   1.347   6.645   4.958
 1932SOL    HW117827   1.371   6.582   4.884
 1932SOL    HW217828   1.257   6.685   4.940
 1933SOL     OW17829   1.252   7.317   4.852
 1933SOL    HW117830   1.336   7.322   4.798
 1933SOL    HW217831   1.229   7.221   4.870
 1934SOL     OW17832   0.083   6.844   4.746
 1934SOL    HW117833   0.078   6.843   4.846
 1934SOL    HW217834   0.000   6.803   4.708
 1935SOL     OW17835   0.688   7.248   5.440
 1935SOL    HW117836   0.632   7.329   5.449
 1935SOL    HW217837   0.740   7.252   5.354
 1936SOL     OW17838   0.130   7.380   5.575
 1936SOL    HW117839   0.089   7.306   5.628
 1936SOL    HW217840   0.194   7.431   5.633
 1937SOL     OW17841   0.830   6.859   5.146
 1937SOL    HW117842   0.825   6.892   5.241
 1937SOL    HW217843   0.744   6.878   5.100
 1938SOL     OW17844   1.650   7.306   5.118
 1938SOL    HW117845   1.703   7.316   5.034
 1938SOL    HW217846   1.623   7.396   5.152
 1939SOL     OW17847   0.822   6.588   5.096
 1939SOL    HW117848   0.862   6.587   5.004
 1939SOL    HW217849   0.832   6.680   5.136
 1940SOL     OW17850   0.372   6.874   5.214
 1940SOL    HW117851   0.359   6.967   5.180
 1940SOL    HW217852   0.288   6.822   5.201
 1941SOL     OW17853   1.614   6.878   5.013
 1941SOL    HW117854   1.674   6.881   5.093
 1941SOL    HW217855   1.539   6.942   5.026
 1942SOL     OW17856   1.014   5.822   4.695
 1942SOL    HW117857   1.006   5.786   4.602
 1942SOL    HW217858   1.012   5.746   4.760
 1943SOL     OW17859   0.590   7.073   4.215
 1943SOL    HW117860   0.632   7.015   4.145
 1943SOL    HW217861   0.546   7.152   4.171
 1944SOL     OW17862   1.709   5.971   5.105
 1944SOL    HW117863   1.782   6.040   5.109
 1944SOL    HW217864   1.737   5.896   5.046
 1945SOL     OW17865   0.255   6.934   4.014
 1945SOL    HW117866   0.159   6.935   3.987
 1945SOL    HW217867   0.267   6.987   4.098
 1946SOL     OW17868   0.105   6.599   5.450
 1946SOL    HW117869   0.028   6.566   5.504
 1946SOL    HW217870   0.190   6.569   5.492
 1947SOL     OW17871   0.672   5.789   5.213
 1947SOL    HW117872   0.762   5.773   5.173
 1947SOL    HW217873   0.680   5.794   5.312
 1948SOL     OW17874   1.440   6.442   5.122
 1948SOL    HW117875   1.383   6.494   5.059
 1948SOL    HW217876   1.536   6.454   5.098
 1949SOL     OW17877   0.613   6.428   5.155
 1949SOL    HW117878   0.669   6.509   5.138
 1949SOL    HW217879   0.672   6.348   5.158
 1950SOL     OW17880   0.716   6.151   5.432
 1950SOL    HW117881   0.735   6.216   5.506
 1950SOL    HW217882   0.776   6.071   5.441
 1951SOL     OW17883   1.450   6.806   5.357
 1951SOL    HW117884   1.441   6.796   5.456
 1951SOL    HW217885   1.546   6.799   5.331
 1952SOL     OW17886   0.390   7.327   5.284
 1952SOL    HW117887   0.299   7.368   5.282
 1952SOL    HW217888   0.383   7.233   5.316
 1953SOL     OW17889   1.730   6.520   5.241
 1953SOL    HW117890   1.768   6.611   5.256
 1953SOL    HW217891   1.722   6.503   5.142
 1954SOL     OW17892   0.859   6.960   3.740
 1954SOL    HW117893   0.813   6.975   3.828
 1954SOL    HW217894   0.903   7.045   3.710
 1955SOL     OW17895   0.661   7.376   4.677
 1955SOL    HW117896   0.615   7.464   4.664
 1955SOL    HW217897   0.760   7.388   4.670
 1956SOL     OW17898   1.083   6.570   3.811
 1956SOL    HW117899   1.060   6.623   3.729
 1956SOL    HW217900   1.164   6.514   3.792
 1957SOL     OW17901   0.221   6.900   5.568
 1957SOL    HW117902   0.156   6.827   5.547
 1957SOL    HW217903   0.225   6.914   5.666
 1958SOL     OW17904   0.079   6.826   4.377
 1958SOL    HW117905   0.078   6.779   4.465
 1958SOL    HW217906   0.161   6.798   4.326
 1959SOL     OW17907   0.672   6.977   5.348
 1959SOL    HW117908   0.594   6.927   5.386
 1959SOL    HW217909   0.669   7.072   5.379
 1960SOL     OW17910   1.824   5.778   4.951
 1960SOL    HW117911   1.820   5.688   4.995
 1960SOL    HW217912   1.827   5.767   4.852
 1961SOL     OW17913   1.705   7.073   4.828
 1961SOL    HW117914   1.612   7.048   4.801
 1961SOL    HW217915   1.731   7.023   4.910
 1962SOL     OW17916   0.317   6.133   5.004
 1962SOL    HW117917   0.355   6.074   5.076
 1962SOL    HW217918   0.357   6.107   4.916
 1963SOL     OW17919   1.424   5.800   4.836
 1963SOL    HW117920   1.476   5.735   4.891
 1963SOL    HW217921   1.375   5.863   4.897
 1964SOL     OW17922   1.001   5.620   4.878
 1964SOL    HW117923   0.938   5.548   4.847
 1964SOL    HW217924   1.094   5.584   4.878
 1965SOL     OW17925   0.618   7.153   5.008
 1965SOL    HW117926   0.613   7.235   5.065
 1965SOL    HW217927   0.707   7.150   4.963
 1966SOL     OW17928   1.352   5.638   3.892
 1966SOL    HW117929   1.387   5.597   3.808
 1966SOL    HW217930   1.262   5.600   3.912
 1967SOL     OW17931   1.593   5.807   4.606
 1967SOL    HW117932   1.509   5.806   4.660
 1967SOL    HW217933   1.595   5.890   4.550
 1968SOL     OW17934   0.039   6.663   4.024
 1968SOL    HW117935   0.138   6.652   4.015
 1968SOL    HW217936  -0.001   6.577   4.056
 1969SOL     OW17937   0.230   6.214   5.699
 1969SOL    HW117938   0.137   6.212   5.736
 1969SOL    HW217939   0.231   6.175   5.607
 1970SOL     OW17940   0.225   5.861   6.582
 1970SOL    HW117941   0.260   5.844   6.674
 1970SOL    HW217942   0.137   5.816   6.570
 1971SOL     OW17943   0.019   5.954   6.233
 1971SOL    HW117944  -0.063   5.997   6.272
 1971SOL    HW217945  -0.009   5.881   6.170
 1972SOL     OW17946   0.569   6.861   6.751
 1972SOL    HW117947   0.476   6.854   6.714
 1972SOL    HW217948   0.580   6.950   6.795
 1973SOL     OW17949   1.555   7.097   6.289
 1973SOL    HW117950   1.498   7.081   6.370
 1973SOL    HW217951   1.496   7.107   6.209
 1974SOL     OW17952   1.135   6.289   6.303
 1974SOL    HW117953   1.192   6.367   6.278
 1974SOL    HW217954   1.075   6.315   6.379
 1975SOL     OW17955   1.755   6.193   5.817
 1975SOL    HW117956   1.743   6.180   5.718
 1975SOL    HW217957   1.725   6.112   5.866
 1976SOL     OW17958   0.768   6.730   6.609
 1976SOL    HW117959   0.690   6.747   6.669
 1976SOL    HW217960   0.802   6.817   6.573
 1977SOL     OW17961   0.685   6.598   6.251
 1977SOL    HW117962   0.754   6.582   6.321
 1977SOL    HW217963   0.612   6.655   6.289
 1978SOL     OW17964   0.335   7.021   6.647
 1978SOL    HW117965   0.257   6.990   6.594
 1978SOL    HW217966   0.393   7.079   6.590
 1979SOL     OW17967   0.438   5.978   7.085
 1979SOL    HW117968   0.520   5.922   7.094
 1979SOL    HW217969   0.357   5.920   7.089
 1980SOL     OW17970   1.603   6.033   6.323
 1980SOL    HW117971   1.529   6.079   6.273
 1980SOL    HW217972   1.654   6.101   6.376
 1981SOL     OW17973   0.231   7.299   6.069
 1981SOL    HW117974   0.265   7.376   6.123
 1981SOL    HW217975   0.275   7.299   5.979
 1982SOL     OW17976   0.230   7.020   6.124
 1982SOL    HW117977   0.204   7.116   6.124
 1982SOL    HW217978   0.159   6.966   6.169
 1983SOL     OW17979   0.240   6.677   6.472
 1983SOL    HW117980   0.254   6.593   6.524
 1983SOL    HW217981   0.185   6.741   6.527
 1984SOL     OW17982   0.620   7.372   7.025
 1984SOL    HW117983   0.528   7.355   7.060
 1984SOL    HW217984   0.648   7.464   7.051
 1985SOL     OW17985   0.606   6.550   5.709
 1985SOL    HW117986   0.613   6.634   5.655
 1985SOL    HW217987   0.652   6.563   5.797
 1986SOL     OW17988   0.122   6.229   6.149
 1986SOL    HW117989   0.077   6.141   6.166
 1986SOL    HW217990   0.121   6.283   6.233
 1987SOL     OW17991   1.842   7.353   5.945
 1987SOL    HW117992   1.896   7.324   6.025
 1987SOL    HW217993   1.872   7.443   5.916
 1988SOL     OW17994   0.027   7.182   5.703
 1988SOL    HW117995   0.008   7.086   5.724
 1988SOL    HW217996  -0.006   7.240   5.778
 1989SOL     OW17997   1.689   6.508   6.198
 1989SOL    HW117998   1.784   6.479   6.206
 1989SOL    HW217999   1.681   6.573   6.123
 1990SOL     OW18000   1.641   6.694   6.018
 1990SOL    HW118001   1.727   6.696   5.966
 1990SOL    HW218002   1.655   6.741   6.106
 1991SOL     OW18003   0.613   6.951   6.312
 1991SOL    HW118004   0.564   6.864   6.321
 1991SOL    HW218005   0.590   6.994   6.225
 1992SOL     OW18006   0.809   5.590   6.088
 1992SOL    HW118007   0.849   5.681   6.079
 1992SOL    HW218008   0.709   5.598   6.094
 1993SOL     OW18009   0.197   6.562   6.850
 1993SOL    HW118010   0.286   6.517   6.836
 1993SOL    HW218011   0.124   6.497   6.831
 1994SOL     OW18012   1.525   6.585   5.776
 1994SOL    HW118013   1.462   6.509   5.789
 1994SOL    HW218014   1.573   6.603   5.862
 1995SOL     OW18015   1.466   7.003   6.539
 1995SOL    HW118016   1.407   7.009   6.619
 1995SOL    HW218017   1.451   6.915   6.493
 1996SOL     OW18018   1.667   7.300   6.158
 1996SOL    HW118019   1.626   7.277   6.070
 1996SOL    HW218020   1.649   7.226   6.223
 1997SOL     OW18021   0.598   6.315   5.856
 1997SOL    HW118022   0.622   6.384   5.788
 1997SOL    HW218023   0.520   6.348   5.910
 1998SOL     OW18024   1.281   5.931   6.530
 1998SOL    HW118025   1.195   5.881   6.517
 1998SOL    HW218026   1.343   5.877   6.586
 1999SOL     OW18027   1.576   7.248   5.893
 1999SOL    HW118028   1.665   7.294   5.896
 1999SOL    HW218029   1.555   7.224   5.798
 2000SOL     OW18030   0.807   6.191   7.051
 2000SOL    HW118031   0.760   6.188   7.140
 2000SOL    HW218032   0.756   6.136   6.985
 2001SOL     OW18033   0.991   5.996   6.828
 2001SOL    HW118034   0.914   6.030   6.882
 2001SOL    HW218035   0.957   5.945   6.749
 2002SOL     OW18036   1.041   6.287   6.015
 2002SOL    HW118037   1.067   6.283   6.111
 2002SOL    HW218038   0.956   6.236   6.001
 2003SOL     OW18039   0.076   6.397   6.375
 2003SOL    HW118040   0.175   6.385   6.384
 2003SOL    HW218041   0.052   6.492   6.396
 2004SOL     OW18042   0.130   7.407   7.157
 2004SOL    HW118043   0.120   7.392   7.256
 2004SOL    HW218044   0.044   7.443   7.121
 2005SOL     OW18045   0.865   5.934   5.781
 2005SOL    HW118046   0.924   5.997   5.732
 2005SOL    HW218047   0.884   5.840   5.752
 2006SOL     OW18048   1.362   6.730   6.131
 2006SOL    HW118049   1.445   6.701   6.083
 2006SOL    HW218050   1.313   6.797   6.075
 2007SOL     OW18051   0.550   5.782   6.471
 2007SOL    HW118052   0.545   5.777   6.571
 2007SOL    HW218053   0.552   5.878   6.442
 2008SOL     OW18054   1.008   7.042   6.063
 2008SOL    HW118055   0.962   7.114   6.011
 2008SOL    HW218056   1.004   7.062   6.161
 2009SOL     OW18057   0.351   7.387   6.439
 2009SOL    HW118058   0.401   7.301   6.445
 2009SOL    HW218059   0.416   7.464   6.436
 2010SOL     OW18060   1.795   6.652   6.459
 2010SOL    HW118061   1.733   6.637   6.383
 2010SOL    HW218062   1.743   6.663   6.544
 2011SOL     OW18063   0.321   6.529   5.828
 2011SOL    HW118064   0.403   6.568   5.786
 2011SOL    HW218065   0.294   6.447   5.779
 2012SOL     OW18066   1.458   6.321   6.314
 2012SOL    HW118067   1.453   6.256   6.389
 2012SOL    HW218068   1.538   6.380   6.327
 2013SOL     OW18069   1.111   7.362   5.823
 2013SOL    HW118070   1.051   7.300   5.873
 2013SOL    HW218071   1.142   7.318   5.738
 2014SOL     OW18072   1.632   6.963   5.667
 2014SOL    HW118073   1.600   7.057   5.657
 2014SOL    HW218074   1.556   6.900   5.655
 2015SOL     OW18075   0.464   7.329   5.909
 2015SOL    HW118076   0.497   7.368   5.995
 2015SOL    HW218077   0.540   7.322   5.844
 2016SOL     OW18078   1.400   5.693   6.012
 2016SOL    HW118079   1.376   5.656   5.922
 2016SOL    HW218080   1.499   5.709   6.016
 2017SOL     OW18081   0.249   7.371   6.827
 2017SOL    HW118082   0.306   7.306   6.877
 2017SOL    HW218083   0.233   7.338   6.734
 2018SOL     OW18084   0.940   7.284   6.490
 2018SOL    HW118085   1.020   7.227   6.511
 2018SOL    HW218086   0.891   7.244   6.413
 2019SOL     OW18087   0.382   6.286   6.066
 2019SOL    HW118088   0.427   6.196   6.063
 2019SOL    HW218089   0.288   6.275   6.099
 2020SOL     OW18090   0.614   5.708   5.703
 2020SOL    HW118091   0.712   5.686   5.710
 2020SOL    HW218092   0.583   5.691   5.610
 2021SOL     OW18093   0.888   7.100   6.781
 2021SOL    HW118094   0.865   7.075   6.687
 2021SOL    HW218095   0.949   7.031   6.820
 2022SOL     OW18096   0.803   6.988   6.510
 2022SOL    HW118097   0.893   7.002   6.468
 2022SOL    HW218098   0.732   6.990   6.439
 2023SOL     OW18099   0.922   6.089   6.485
 2023SOL    HW118100   0.897   6.080   6.389
 2023SOL    HW218101   0.970   6.007   6.516
 2024SOL     OW18102   0.539   5.650   6.098
 2024SOL    HW118103   0.458   5.651   6.156
 2024SOL    HW218104   0.542   5.733   6.043
 2025SOL     OW18105   1.434   6.774   5.627
 2025SOL    HW118106   1.466   6.698   5.684
 2025SOL    HW218107   1.342   6.801   5.657
 2026SOL     OW18108   0.297   5.621   5.757
 2026SOL    HW118109   0.346   5.705   5.736
 2026SOL    HW218110   0.359   5.556   5.802
 2027SOL     OW18111   0.935   5.822   6.066
 2027SOL    HW118112   0.887   5.863   5.988
 2027SOL    HW218113   1.034   5.820   6.047
 2028SOL     OW18114   1.227   7.156   6.379
 2028SOL    HW118115   1.248   7.230   6.314
 2028SOL    HW218116   1.295   7.156   6.452
 2029SOL     OW18117   0.459   6.738   6.327
 2029SOL    HW118118   0.388   6.711   6.392
 2029SOL    HW218119   0.433   6.710   6.234
 2030SOL     OW18120   1.271   7.383   6.177
 2030SOL    HW118121   1.315   7.447   6.113
 2030SOL    HW218122   1.221   7.435   6.247
 2031SOL     OW18123   1.032   6.135   5.602
 2031SOL    HW118124   0.991   6.217   5.563
 2031SOL    HW218125   1.096   6.161   5.675
 2032SOL     OW18126   0.561   5.808   6.733
 2032SOL    HW118127   0.599   5.724   6.770
 2032SOL    HW218128   0.473   5.827   6.777
 2033SOL     OW18129   0.866   6.040   6.228
 2033SOL    HW118130   0.834   6.112   6.166
 2033SOL    HW218131   0.890   5.959   6.175
 2034SOL     OW18132   1.017   5.625   6.339
 2034SOL    HW118133   0.945   5.630   6.270
 2034SOL    HW218134   0.993   5.556   6.408
 2035SOL     OW18135   1.429   6.759   6.453
 2035SOL    HW118136   1.374   6.675   6.446
 2035SOL    HW218137   1.455   6.788   6.361
 2036SOL     OW18138   1.466   6.176   6.578
 2036SOL    HW118139   1.436   6.081   6.585
 2036SOL    HW218140   1.539   6.192   6.644
 2037SOL     OW18141   1.857   6.419   5.963
 2037SOL    HW118142   1.899   6.355   6.027
 2037SOL    HW218143   1.819   6.368   5.885
 2038SOL     OW18144   0.488   6.971   5.760
 2038SOL    HW118145   0.401   6.956   5.807
 2038SOL    HW218146   0.471   6.997   5.665
 2039SOL     OW18147   1.664   6.866   6.243
 2039SOL    HW118148   1.763   6.874   6.257
 2039SOL    HW218149   1.619   6.950   6.274
 2040SOL     OW18150   1.390   6.161   5.664
 2040SOL    HW118151   1.336   6.140   5.745
 2040SOL    HW218152   1.481   6.120   5.673
 2041SOL     OW18153   0.527   5.842   5.914
 2041SOL    HW118154   0.554   5.783   5.839
 2041SOL    HW218155   0.527   5.937   5.883
 2042SOL     OW18156   1.064   6.933   6.926
 2042SOL    HW118157   0.984   6.910   6.981
 2042SOL    HW218158   1.147   6.907   6.975
 2043SOL     OW18159   1.111   6.781   6.686
 2043SOL    HW118160   1.071   6.825   6.767
 2043SOL    HW218161   1.070   6.818   6.603
 2044SOL     OW18162   1.638   6.685   6.665
 2044SOL    HW118163   1.643   6.766   6.724
 2044SOL    HW218164   1.552   6.687   6.614
 2045SOL     OW18165   0.705   6.636   5.954
 2045SOL    HW118166   0.691   6.643   6.053
 2045SOL    HW218167   0.789   6.585   5.936
 2046SOL     OW18168   0.410   6.399   6.837
 2046SOL    HW118169   0.496   6.411   6.887
 2046SOL    HW218170   0.368   6.312   6.864
 2047SOL     OW18171   1.274   5.972   6.848
 2047SOL    HW118172   1.295   6.046   6.912
 2047SOL    HW218173   1.185   5.989   6.805
 2048SOL     OW18174   0.064   7.150   6.917
 2048SOL    HW118175   0.018   7.232   6.883
 2048SOL    HW218176   0.162   7.169   6.926
 2049SOL     OW18177   0.367   6.686   6.087
 2049SOL    HW118178   0.360   6.769   6.031
 2049SOL    HW218179   0.371   6.606   6.027
 2050SOL     OW18180   0.566   6.123   6.451
 2050SOL    HW118181   0.578   6.189   6.377
 2050SOL    HW218182   0.612   6.157   6.534
 2051SOL     OW18183   1.252   6.934   5.974
 2051SOL    HW118184   1.302   7.011   6.014
 2051SOL    HW218185   1.157   6.936   6.006
 2052SOL     OW18186   1.272   7.031   6.728
 2052SOL    HW118187   1.319   7.044   6.815
 2052SOL    HW218188   1.206   6.957   6.737
 2053SOL     OW18189   1.582   6.225   6.058
 2053SOL    HW118190   1.551   6.286   6.131
 2053SOL    HW218191   1.632   6.277   5.989
 2054SOL     OW18192   0.354   7.096   6.915
 2054SOL    HW118193   0.333   7.052   6.828
 2054SOL    HW218194   0.451   7.122   6.918
 2055SOL     OW18195   0.504   5.636   7.326
 2055SOL    HW118196   0.462   5.579   7.256
 2055SOL    HW218197   0.438   5.705   7.358
 2056SOL     OW18198   0.573   6.456   6.615
 2056SOL    HW118199   0.617   6.545   6.606
 2056SOL    HW218200   0.510   6.456   6.692
 2057SOL     OW18201   1.360   6.448   6.631
 2057SOL    HW118202   1.285   6.448   6.565
 2057SOL    HW218203   1.397   6.356   6.640
 2058SOL     OW18204   1.209   6.111   5.861
 2058SOL    HW118205   1.222   6.027   5.915
 2058SOL    HW218206   1.180   6.185   5.921
 2059SOL     OW18207   0.307   5.799   6.817
 2059SOL    HW118208   0.284   5.836   6.907
 2059SOL    HW218209   0.277   5.704   6.811
 2060SOL     OW18210   0.037   6.896   6.868
 2060SOL    HW118211   0.090   6.847   6.936
 2060SOL    HW218212   0.059   6.994   6.873
 2061SOL     OW18213   0.732   6.220   6.650
 2061SOL    HW118214   0.791   6.194   6.574
 2061SOL    HW218215   0.704   6.316   6.639
 2062SOL     OW18216   0.307   5.649   6.204
 2062SOL    HW118217   0.296   5.743   6.237
 2062SOL    HW218218   0.302   5.586   6.281
 2063SOL     OW18219   1.622   5.953   5.960
 2063SOL    HW118220   1.624   5.877   6.024
 2063SOL    HW218221   1.574   6.030   6.000
 2064SOL     OW18222   1.023   6.352   6.552
 2064SOL    HW118223   1.038   6.373   6.648
 2064SOL    HW218224   0.993   6.257   6.543
 2065SOL     OW18225   1.540   5.860   5.711
 2065SOL    HW118226   1.479   5.785   5.734
 2065SOL    HW218227   1.562   5.912   5.794
 2066SOL     OW18228   1.303   6.424   5.628
 2066SOL    HW118229   1.337   6.331   5.643
 2066SOL    HW218230   1.321   6.451   5.533
 2067SOL     OW18231   1.068   6.919   6.435
 2067SOL    HW118232   1.075   6.835   6.380
 2067SOL    HW218233   1.130   6.988   6.399
 2068SOL     OW18234   0.319   6.396   6.535
 2068SOL    HW118235   0.412   6.432   6.540
 2068SOL    HW218236   0.313   6.311   6.587
 2069SOL     OW18237   0.339   6.095   6.592
 2069SOL    HW118238   0.287   6.012   6.575
 2069SOL    HW218239   0.416   6.100   6.528
 2070SOL     OW18240   1.160   5.793   7.063
 2070SOL    HW118241   1.160   5.857   7.140
 2070SOL    HW218242   1.188   5.841   6.980
 2071SOL     OW18243   0.008   6.912   5.786
 2071SOL    HW118244  -0.085   6.933   5.755
 2071SOL    HW218245   0.018   6.813   5.799
 2072SOL     OW18246   0.088   7.387   6.513
 2072SOL    HW118247   0.046   7.301   6.486
 2072SOL    HW218248   0.182   7.390   6.479
 2073SOL     OW18249   0.504   7.154   6.496
 2073SOL    HW118250   0.570   7.228   6.505
 2073SOL    HW218251   0.548   7.075   6.454
 2074SOL     OW18252   1.002   6.382   6.824
 2074SOL    HW118253   1.043   6.350   6.910
 2074SOL    HW218254   0.906   6.355   6.821
 2075SOL     OW18255   0.040   6.130   6.700
 2075SOL    HW118256   0.125   6.097   6.659
 2075SOL    HW218257   0.053   6.145   6.798
 2076SOL     OW18258   0.815   6.158   5.911
 2076SOL    HW118259   0.822   6.069   5.865
 2076SOL    HW218260   0.721   6.192   5.903
 2077SOL     OW18261   1.657   6.190   6.792
 2077SOL    HW118262   1.619   6.121   6.854
 2077SOL    HW218263   1.739   6.154   6.748
 2078SOL     OW18264   0.671   6.050   6.855
 2078SOL    HW118265   0.637   5.961   6.825
 2078SOL    HW218266   0.697   6.104   6.775
 2079SOL     OW18267   0.930   7.264   7.051
 2079SOL    HW118268   0.906   7.246   6.956
 2079SOL    HW218269   0.960   7.358   7.061
 2080SOL     OW18270   0.473   6.086   5.777
 2080SOL    HW118271   0.534   6.166   5.781
 2080SOL    HW218272   0.378   6.117   5.784
 2081SOL     OW18273   0.159   6.723   7.052
 2081SOL    HW118274   0.181   6.662   7.128
 2081SOL    HW218275   0.169   6.674   6.966
 2082SOL     OW18276   1.347   6.645   6.820
 2082SOL    HW118277   1.371   6.582   6.746
 2082SOL    HW218278   1.257   6.685   6.802
 2083SOL     OW18279   1.302   6.441   5.895
 2083SOL    HW118280   1.216   6.410   5.937
 2083SOL    HW218281   1.298   6.427   5.796
 2084SOL     OW18282   1.759   7.333   6.740
 2084SOL    HW118283   1.820   7.363   6.667
 2084SOL    HW218284   1.721   7.244   6.718
 2085SOL     OW18285   1.252   7.317   6.714
 2085SOL    HW118286   1.336   7.322   6.660
 2085SOL    HW218287   1.229   7.221   6.732
 2086SOL     OW18288   0.083   6.844   6.608
 2086SOL    HW118289   0.078   6.843   6.708
 2086SOL    HW218290   0.000   6.803   6.570
 2087SOL     OW18291   1.726   5.721   6.109
 2087SOL    HW118292   1.799   5.704   6.042
 2087SOL    HW218293   1.695   5.634   6.147
 2088SOL     OW18294   1.388   7.159   6.063
 2088SOL    HW118295   1.455   7.171   5.989
 2088SOL    HW218296   1.348   7.248   6.086
 2089SOL     OW18297   1.280   6.513   6.258
 2089SOL    HW118298   1.340   6.432   6.260
 2089SOL    HW218299   1.320   6.582   6.198
 2090SOL     OW18300   0.672   7.202   5.740
 2090SOL    HW118301   0.681   7.212   5.641
 2090SOL    HW218302   0.632   7.113   5.761
 2091SOL     OW18303   1.841   5.761   6.549
 2091SOL    HW118304   1.880   5.676   6.513
 2091SOL    HW218305   1.743   5.763   6.530
 2092SOL     OW18306   0.263   5.912   6.306
 2092SOL    HW118307   0.184   5.963   6.272
 2092SOL    HW218308   0.254   5.897   6.404
 2093SOL     OW18309   1.194   7.198   5.617
 2093SOL    HW118310   1.200   7.105   5.654
 2093SOL    HW218311   1.135   7.198   5.537
 2094SOL     OW18312   0.822   6.588   6.958
 2094SOL    HW118313   0.862   6.587   6.866
 2094SOL    HW218314   0.832   6.680   6.998
 2095SOL     OW18315   0.916   6.496   5.877
 2095SOL    HW118316   0.979   6.534   5.809
 2095SOL    HW218317   0.956   6.413   5.916
 2096SOL     OW18318   1.504   7.193   5.630
 2096SOL    HW118319   1.412   7.230   5.637
 2096SOL    HW218320   1.542   7.213   5.540
 2097SOL     OW18321   0.372   6.874   7.076
 2097SOL    HW118322   0.359   6.967   7.042
 2097SOL    HW218323   0.288   6.822   7.063
 2098SOL     OW18324   1.614   6.878   6.875
 2098SOL    HW118325   1.674   6.881   6.955
 2098SOL    HW218326   1.539   6.942   6.888
 2099SOL     OW18327   1.039   6.684   6.282
 2099SOL    HW118328   0.969   6.637   6.336
 2099SOL    HW218329   1.098   6.616   6.239
 2100SOL     OW18330   1.014   5.822   6.557
 2100SOL    HW118331   1.006   5.786   6.464
 2100SOL    HW218332   1.012   5.746   6.622
 2101SOL     OW18333   0.590   7.073   6.077
 2101SOL    HW118334   0.632   7.015   6.007
 2101SOL    HW218335   0.546   7.152   6.033
 2102SOL     OW18336   1.709   5.971   6.967
 2102SOL    HW118337   1.782   6.040   6.971
 2102SOL    HW218338   1.737   5.896   6.908
 2103SOL     OW18339   0.255   6.934   5.876
 2103SOL    HW118340   0.159   6.935   5.849
 2103SOL    HW218341   0.267   6.987   5.960
 2104SOL     OW18342   0.672   5.789   7.075
 2104SOL    HW118343   0.762   5.773   7.035
 2104SOL    HW218344   0.680   5.794   7.174
 2105SOL     OW18345   0.075   5.931   5.619
 2105SOL    HW118346  -0.017   5.903   5.590
 2105SOL    HW218347   0.106   6.008   5.563
 2106SOL     OW18348   0.072   5.752   5.904
 2106SOL    HW118349   0.055   5.835   5.850
 2106SOL    HW218350   0.162   5.715   5.882
 2107SOL     OW18351   1.183   6.921   5.705
 2107SOL    HW118352   1.084   6.910   5.707
 2107SOL    HW218353   1.217   6.936   5.798
 2108SOL     OW18354   0.613   6.428   7.017
 2108SOL    HW118355   0.669   6.509   7.000
 2108SOL    HW218356   0.672   6.348   7.020
 2109SOL     OW18357   1.493   7.353   6.545
 2109SOL    HW118358   1.526   7.417   6.476
 2109SOL    HW218359   1.559   7.347   6.620
 2110SOL     OW18360   0.390   7.327   7.146
 2110SOL    HW118361   0.299   7.368   7.144
 2110SOL    HW218362   0.383   7.233   7.178
 2111SOL     OW18363   1.674   6.469   6.840
 2111SOL    HW118364   1.647   6.380   6.803
 2111SOL    HW218365   1.675   6.537   6.767
 2112SOL     OW18366   1.225   5.911   6.035
 2112SOL    HW118367   1.290   5.837   6.024
 2112SOL    HW218368   1.245   5.961   6.119
 2113SOL     OW18369   0.594   6.331   6.238
 2113SOL    HW118370   0.644   6.416   6.219
 2113SOL    HW218371   0.506   6.333   6.190
 2114SOL     OW18372   1.730   6.520   7.103
 2114SOL    HW118373   1.768   6.611   7.118
 2114SOL    HW218374   1.722   6.503   7.004
 2115SOL     OW18375   0.859   6.960   5.602
 2115SOL    HW118376   0.813   6.975   5.690
 2115SOL    HW218377   0.903   7.045   5.572
 2116SOL     OW18378   0.661   7.376   6.539
 2116SOL    HW118379   0.615   7.464   6.526
 2116SOL    HW218380   0.760   7.388   6.532
 2117SOL     OW18381   0.859   6.542   6.447
 2117SOL    HW118382   0.913   6.473   6.495
 2117SOL    HW218383   0.827   6.611   6.513
 2118SOL     OW18384   1.083   6.570   5.673
 2118SOL    HW118385   1.060   6.623   5.591
 2118SOL    HW218386   1.164   6.514   5.654
 2119SOL     OW18387   1.861   7.155   6.437
 2119SOL    HW118388   1.790   7.143   6.367
 2119SOL    HW218389   1.862   7.076   6.497
 2120SOL     OW18390   0.079   6.826   6.239
 2120SOL    HW118391   0.078   6.779   6.327
 2120SOL    HW218392   0.161   6.798   6.188
 2121SOL     OW18393   1.824   5.778   6.813
 2121SOL    HW118394   1.820   5.688   6.857
 2121SOL    HW218395   1.827   5.767   6.714
 2122SOL     OW18396   0.428   6.010   6.106
 2122SOL    HW118397   0.458   5.938   6.044
 2122SOL    HW218398   0.389   5.970   6.189
 2123SOL     OW18399   1.705   7.073   6.690
 2123SOL    HW118400   1.612   7.048   6.663
 2123SOL    HW218401   1.731   7.023   6.772
 2124SOL     OW18402   0.317   6.133   6.866
 2124SOL    HW118403   0.355   6.074   6.938
 2124SOL    HW218404   0.357   6.107   6.778
 2125SOL     OW18405   0.812   7.172   6.273
 2125SOL    HW118406   0.844   7.182   6.179
 2125SOL    HW218407   0.733   7.110   6.275
 2126SOL     OW18408   1.424   5.800   6.698
 2126SOL    HW118409   1.476   5.735   6.753
 2126SOL    HW218410   1.375   5.863   6.759
 2127SOL     OW18411   1.001   5.620   6.740
 2127SOL    HW118412   0.938   5.548   6.709
 2127SOL    HW218413   1.094   5.584   6.740
 2128SOL     OW18414   0.770   6.916   5.887
 2128SOL    HW118415   0.724   6.829   5.904
 2128SOL    HW218416   0.861   6.913   5.928
 2129SOL     OW18417   0.618   7.153   6.870
 2129SOL    HW118418   0.613   7.235   6.927
 2129SOL    HW218419   0.707   7.150   6.825
 2130SOL     OW18420   1.352   5.638   5.754
 2130SOL    HW118421   1.387   5.597   5.670
 2130SOL    HW218422   1.262   5.600   5.774
 2131SOL     OW18423   1.300   6.039   6.277
 2131SOL    HW118424   1.241   6.119   6.281
 2131SOL    HW218425   1.315   6.004   6.370
 2132SOL     OW18426   1.593   5.807   6.468
 2132SOL    HW118427   1.509   5.806   6.522
 2132SOL    HW218428   1.595   5.890   6.412
 2133SOL     OW18429   0.039   6.663   5.886
 2133SOL    HW118430   0.138   6.652   5.877
 2133SOL    HW218431  -0.001   6.577   5.918
 2134SOL     OW18432   0.875   7.232   5.923
 2134SOL    HW118433   0.798   7.197   5.869
 2134SOL    HW218434   0.843   7.303   5.985
 2135SOL     OW18435   0.230   8.076   0.113
 2135SOL    HW118436   0.137   8.074   0.150
 2135SOL    HW218437   0.231   8.037   0.021
 2136SOL     OW18438   0.225   7.723   0.996
 2136SOL    HW118439   0.260   7.706   1.088
 2136SOL    HW218440   0.137   7.678   0.984
 2137SOL     OW18441   0.019   7.816   0.647
 2137SOL    HW118442  -0.063   7.859   0.686
 2137SOL    HW218443  -0.009   7.743   0.584
 2138SOL     OW18444   1.135   8.151   0.717
 2138SOL    HW118445   1.192   8.229   0.692
 2138SOL    HW218446   1.075   8.177   0.793
 2139SOL     OW18447   1.755   8.055   0.231
 2139SOL    HW118448   1.743   8.042   0.132
 2139SOL    HW218449   1.725   7.974   0.280
 2140SOL     OW18450   0.768   8.592   1.023
 2140SOL    HW118451   0.690   8.609   1.083
 2140SOL    HW218452   0.802   8.679   0.987
 2141SOL     OW18453   0.850   8.246   1.823
 2141SOL    HW118454   0.846   8.322   1.888
 2141SOL    HW218455   0.872   8.282   1.732
 2142SOL     OW18456   0.685   8.460   0.665
 2142SOL    HW118457   0.754   8.444   0.735
 2142SOL    HW218458   0.612   8.517   0.703
 2143SOL     OW18459   0.438   7.840   1.499
 2143SOL    HW118460   0.520   7.784   1.508
 2143SOL    HW218461   0.357   7.782   1.503
 2144SOL     OW18462   1.603   7.895   0.737
 2144SOL    HW118463   1.529   7.941   0.687
 2144SOL    HW218464   1.654   7.963   0.790
 2145SOL     OW18465   0.240   8.539   0.886
 2145SOL    HW118466   0.254   8.455   0.938
 2145SOL    HW218467   0.185   8.603   0.941
 2146SOL     OW18468   0.122   8.091   0.563
 2146SOL    HW118469   0.077   8.003   0.580
 2146SOL    HW218470   0.121   8.145   0.647
 2147SOL     OW18471   0.113   8.185   1.597
 2147SOL    HW118472   0.201   8.172   1.642
 2147SOL    HW218473   0.100   8.282   1.575
 2148SOL     OW18474   0.809   7.452   0.502
 2148SOL    HW118475   0.849   7.543   0.493
 2148SOL    HW218476   0.709   7.460   0.508
 2149SOL     OW18477   0.197   8.424   1.264
 2149SOL    HW118478   0.286   8.379   1.250
 2149SOL    HW218479   0.124   8.359   1.245
 2150SOL     OW18480   1.525   8.447   0.190
 2150SOL    HW118481   1.462   8.371   0.203
 2150SOL    HW218482   1.573   8.465   0.276
 2151SOL     OW18483   0.598   8.177   0.270
 2151SOL    HW118484   0.622   8.246   0.202
 2151SOL    HW218485   0.520   8.210   0.324
 2152SOL     OW18486   1.281   7.793   0.944
 2152SOL    HW118487   1.195   7.743   0.931
 2152SOL    HW218488   1.343   7.739   1.000
 2153SOL     OW18489   0.807   8.053   1.465
 2153SOL    HW118490   0.760   8.050   1.554
 2153SOL    HW218491   0.756   7.998   1.399
 2154SOL     OW18492   1.394   7.917   1.674
 2154SOL    HW118493   1.374   7.960   1.762
 2154SOL    HW218494   1.472   7.855   1.683
 2155SOL     OW18495   0.973   8.338   1.572
 2155SOL    HW118496   1.019   8.254   1.543
 2155SOL    HW218497   0.917   8.372   1.497
 2156SOL     OW18498   1.041   8.149   0.429
 2156SOL    HW118499   1.067   8.145   0.525
 2156SOL    HW218500   0.956   8.098   0.415
 2157SOL     OW18501   0.076   8.259   0.789
 2157SOL    HW118502   0.175   8.247   0.798
 2157SOL    HW218503   0.052   8.354   0.810
 2158SOL     OW18504   0.865   7.796   0.195
 2158SOL    HW118505   0.924   7.859   0.146
 2158SOL    HW218506   0.884   7.702   0.166
 2159SOL     OW18507   0.550   7.644   0.885
 2159SOL    HW118508   0.545   7.639   0.985
 2159SOL    HW218509   0.552   7.740   0.856
 2160SOL     OW18510   1.458   8.183   0.728
 2160SOL    HW118511   1.453   8.118   0.803
 2160SOL    HW218512   1.538   8.242   0.741
 2161SOL     OW18513   0.202   7.733   1.498
 2161SOL    HW118514   0.122   7.793   1.485
 2161SOL    HW218515   0.192   7.684   1.584
 2162SOL     OW18516   1.400   7.555   0.426
 2162SOL    HW118517   1.376   7.518   0.336
 2162SOL    HW218518   1.499   7.571   0.430
 2163SOL     OW18519   0.382   8.148   0.480
 2163SOL    HW118520   0.427   8.058   0.477
 2163SOL    HW218521   0.288   8.137   0.513
 2164SOL     OW18522   1.351   8.038   1.433
 2164SOL    HW118523   1.379   7.995   1.518
 2164SOL    HW218524   1.376   8.134   1.434
 2165SOL     OW18525   0.922   7.951   0.899
 2165SOL    HW118526   0.897   7.942   0.803
 2165SOL    HW218527   0.970   7.869   0.930
 2166SOL     OW18528   0.539   7.512   0.512
 2166SOL    HW118529   0.458   7.513   0.570
 2166SOL    HW218530   0.542   7.595   0.457
 2167SOL     OW18531   0.935   7.684   0.480
 2167SOL    HW118532   0.887   7.725   0.402
 2167SOL    HW218533   1.034   7.682   0.461
 2168SOL     OW18534   1.076   8.131   1.464
 2168SOL    HW118535   0.996   8.070   1.467
 2168SOL    HW218536   1.157   8.078   1.440
 2169SOL     OW18537   1.032   7.997   0.016
 2169SOL    HW118538   0.991   8.079  -0.023
 2169SOL    HW218539   1.096   8.023   0.089
 2170SOL     OW18540   0.866   7.902   0.642
 2170SOL    HW118541   0.834   7.974   0.580
 2170SOL    HW218542   0.890   7.821   0.589
 2171SOL     OW18543   1.017   7.487   0.753
 2171SOL    HW118544   0.945   7.492   0.684
 2171SOL    HW218545   0.993   7.418   0.822
 2172SOL     OW18546   1.466   8.038   0.992
 2172SOL    HW118547   1.436   7.943   0.999
 2172SOL    HW218548   1.539   8.054   1.058
 2173SOL     OW18549   1.857   8.281   0.377
 2173SOL    HW118550   1.899   8.217   0.441
 2173SOL    HW218551   1.819   8.230   0.299
 2174SOL     OW18552   1.390   8.023   0.078
 2174SOL    HW118553   1.336   8.002   0.159
 2174SOL    HW218554   1.481   7.982   0.087
 2175SOL     OW18555   0.527   7.704   0.328
 2175SOL    HW118556   0.554   7.645   0.253
 2175SOL    HW218557   0.527   7.799   0.297
 2176SOL     OW18558   1.638   8.547   1.079
 2176SOL    HW118559   1.643   8.628   1.138
 2176SOL    HW218560   1.552   8.549   1.028
 2177SOL     OW18561   0.915   7.537   1.402
 2177SOL    HW118562   0.940   7.517   1.307
 2177SOL    HW218563   0.987   7.593   1.444
 2178SOL     OW18564   0.410   8.261   1.251
 2178SOL    HW118565   0.496   8.273   1.301
 2178SOL    HW218566   0.368   8.174   1.278
 2179SOL     OW18567   1.274   7.834   1.262
 2179SOL    HW118568   1.295   7.908   1.326
 2179SOL    HW218569   1.185   7.851   1.219
 2180SOL     OW18570   0.566   7.985   0.865
 2180SOL    HW118571   0.578   8.051   0.791
 2180SOL    HW218572   0.612   8.019   0.948
 2181SOL     OW18573   1.582   8.087   0.472
 2181SOL    HW118574   1.551   8.148   0.545
 2181SOL    HW218575   1.632   8.139   0.403
 2182SOL     OW18576   0.402   8.199   1.598
 2182SOL    HW118577   0.470   8.254   1.551
 2182SOL    HW218578   0.442   8.111   1.625
 2183SOL     OW18579   1.013   7.553   1.770
 2183SOL    HW118580   1.019   7.638   1.718
 2183SOL    HW218581   1.045   7.477   1.713
 2184SOL     OW18582   0.504   7.498   1.740
 2184SOL    HW118583   0.462   7.441   1.670
 2184SOL    HW218584   0.438   7.567   1.772
 2185SOL     OW18585   0.573   8.318   1.029
 2185SOL    HW118586   0.617   8.407   1.020
 2185SOL    HW218587   0.510   8.318   1.106
 2186SOL     OW18588   1.360   8.310   1.045
 2186SOL    HW118589   1.285   8.310   0.979
 2186SOL    HW218590   1.397   8.218   1.054
 2187SOL     OW18591   1.209   7.973   0.275
 2187SOL    HW118592   1.222   7.889   0.329
 2187SOL    HW218593   1.180   8.047   0.335
 2188SOL     OW18594   0.307   7.661   1.231
 2188SOL    HW118595   0.284   7.698   1.321
 2188SOL    HW218596   0.277   7.566   1.225
 2189SOL     OW18597   0.037   8.758   1.282
 2189SOL    HW118598   0.090   8.709   1.350
 2189SOL    HW218599   0.059   8.856   1.287
 2190SOL     OW18600   0.732   8.082   1.064
 2190SOL    HW118601   0.791   8.056   0.988
 2190SOL    HW218602   0.704   8.178   1.053
 2191SOL     OW18603   1.728   8.383   1.854
 2191SOL    HW118604   1.682   8.376   1.765
 2191SOL    HW218605   1.666   8.427   1.920
 2192SOL     OW18606   0.307   7.511   0.618
 2192SOL    HW118607   0.296   7.605   0.651
 2192SOL    HW218608   0.302   7.448   0.695
 2193SOL     OW18609   1.622   7.815   0.374
 2193SOL    HW118610   1.624   7.739   0.438
 2193SOL    HW218611   1.574   7.892   0.414
 2194SOL     OW18612   1.023   8.214   0.966
 2194SOL    HW118613   1.038   8.235   1.062
 2194SOL    HW218614   0.993   8.119   0.957
 2195SOL     OW18615   0.350   8.346   1.804
 2195SOL    HW118616   0.426   8.390   1.852
 2195SOL    HW218617   0.385   8.299   1.722
 2196SOL     OW18618   1.540   7.722   0.125
 2196SOL    HW118619   1.479   7.647   0.148
 2196SOL    HW218620   1.562   7.774   0.208
 2197SOL     OW18621   1.303   8.286   0.042
 2197SOL    HW118622   1.337   8.193   0.057
 2197SOL    HW218623   1.321   8.313  -0.053
 2198SOL     OW18624   0.319   8.258   0.949
 2198SOL    HW118625   0.412   8.294   0.954
 2198SOL    HW218626   0.313   8.173   1.001
 2199SOL     OW18627   0.339   7.957   1.006
 2199SOL    HW118628   0.287   7.874   0.989
 2199SOL    HW218629   0.416   7.962   0.942
 2200SOL     OW18630   1.138   7.828   1.678
 2200SOL    HW118631   1.093   7.891   1.742
 2200SOL    HW218632   1.231   7.859   1.661
 2201SOL     OW18633   1.160   7.655   1.477
 2201SOL    HW118634   1.160   7.719   1.554
 2201SOL    HW218635   1.188   7.703   1.394
 2202SOL     OW18636   1.002   8.244   1.238
 2202SOL    HW118637   1.043   8.212   1.324
 2202SOL    HW218638   0.906   8.217   1.235
 2203SOL     OW18639   0.040   7.992   1.114
 2203SOL    HW118640   0.125   7.959   1.073
 2203SOL    HW218641   0.053   8.007   1.212
 2204SOL     OW18642   0.815   8.020   0.325
 2204SOL    HW118643   0.822   7.931   0.279
 2204SOL    HW218644   0.721   8.054   0.317
 2205SOL     OW18645   1.657   8.052   1.206
 2205SOL    HW118646   1.619   7.983   1.268
 2205SOL    HW218647   1.739   8.016   1.162
 2206SOL     OW18648   0.473   7.948   0.191
 2206SOL    HW118649   0.534   8.028   0.195
 2206SOL    HW218650   0.378   7.979   0.198
 2207SOL     OW18651   0.159   8.585   1.466
 2207SOL    HW118652   0.181   8.524   1.542
 2207SOL    HW218653   0.169   8.536   1.380
 2208SOL     OW18654   1.347   8.507   1.234
 2208SOL    HW118655   1.371   8.444   1.160
 2208SOL    HW218656   1.257   8.547   1.216
 2209SOL     OW18657   1.302   8.303   0.309
 2209SOL    HW118658   1.216   8.272   0.351
 2209SOL    HW218659   1.298   8.289   0.210
 2210SOL     OW18660   0.903   7.534   0.133
 2210SOL    HW118661   0.954   7.535   0.047
 2210SOL    HW218662   0.959   7.492   0.204
 2211SOL     OW18663   1.726   7.583   0.523
 2211SOL    HW118664   1.799   7.566   0.456
 2211SOL    HW218665   1.695   7.496   0.561
 2212SOL     OW18666   1.280   8.375   0.672
 2212SOL    HW118667   1.340   8.294   0.674
 2212SOL    HW218668   1.320   8.444   0.612
 2213SOL     OW18669   1.841   7.623   0.963
 2213SOL    HW118670   1.880   7.538   0.927
 2213SOL    HW218671   1.743   7.625   0.944
 2214SOL     OW18672   0.263   7.774   0.720
 2214SOL    HW118673   0.184   7.825   0.686
 2214SOL    HW218674   0.254   7.759   0.818
 2215SOL     OW18675   0.916   8.358   0.291
 2215SOL    HW118676   0.979   8.396   0.223
 2215SOL    HW218677   0.956   8.275   0.330
 2216SOL     OW18678   1.014   7.684   0.971
 2216SOL    HW118679   1.006   7.648   0.878
 2216SOL    HW218680   1.012   7.608   1.036
 2217SOL     OW18681   1.709   7.833   1.381
 2217SOL    HW118682   1.782   7.902   1.385
 2217SOL    HW218683   1.737   7.758   1.322
 2218SOL     OW18684   0.075   7.793   0.033
 2218SOL    HW118685  -0.017   7.765   0.004
 2218SOL    HW218686   0.106   7.870  -0.023
 2219SOL     OW18687   0.072   7.614   0.318
 2219SOL    HW118688   0.055   7.697   0.264
 2219SOL    HW218689   0.162   7.577   0.296
 2220SOL     OW18690   0.613   8.290   1.431
 2220SOL    HW118691   0.669   8.371   1.414
 2220SOL    HW218692   0.672   8.210   1.434
 2221SOL     OW18693   0.716   8.013   1.708
 2221SOL    HW118694   0.735   8.078   1.782
 2221SOL    HW218695   0.776   7.933   1.717
 2222SOL     OW18696   1.674   8.331   1.254
 2222SOL    HW118697   1.647   8.242   1.217
 2222SOL    HW218698   1.675   8.399   1.181
 2223SOL     OW18699   1.225   7.773   0.449
 2223SOL    HW118700   1.290   7.699   0.438
 2223SOL    HW218701   1.245   7.823   0.533
 2224SOL     OW18702   0.594   8.193   0.652
 2224SOL    HW118703   0.644   8.278   0.633
 2224SOL    HW218704   0.506   8.195   0.604
 2225SOL     OW18705   1.730   8.382   1.517
 2225SOL    HW118706   1.768   8.473   1.532
 2225SOL    HW218707   1.722   8.365   1.418
 2226SOL     OW18708   1.083   8.432   0.087
 2226SOL    HW118709   1.060   8.485   0.005
 2226SOL    HW218710   1.164   8.376   0.068
 2227SOL     OW18711   1.824   7.640   1.227
 2227SOL    HW118712   1.820   7.550   1.271
 2227SOL    HW218713   1.827   7.629   1.128
 2228SOL     OW18714   0.428   7.872   0.520
 2228SOL    HW118715   0.458   7.800   0.458
 2228SOL    HW218716   0.389   7.832   0.603
 2229SOL     OW18717   0.317   7.995   1.280
 2229SOL    HW118718   0.355   7.936   1.352
 2229SOL    HW218719   0.357   7.969   1.192
 2230SOL     OW18720   1.424   7.662   1.112
 2230SOL    HW118721   1.476   7.597   1.167
 2230SOL    HW218722   1.375   7.725   1.173
 2231SOL     OW18723   1.001   7.482   1.154
 2231SOL    HW118724   0.938   7.410   1.123
 2231SOL    HW218725   1.094   7.446   1.154
 2232SOL     OW18726   1.352   7.500   0.168
 2232SOL    HW118727   1.387   7.459   0.084
 2232SOL    HW218728   1.262   7.462   0.188
 2233SOL     OW18729   1.300   7.901   0.691
 2233SOL    HW118730   1.241   7.981   0.695
 2233SOL    HW218731   1.315   7.866   0.784
 2234SOL     OW18732   1.593   7.669   0.882
 2234SOL    HW118733   1.509   7.668   0.936
 2234SOL    HW218734   1.595   7.752   0.826
 2235SOL     OW18735   0.225   7.723   2.858
 2235SOL    HW118736   0.260   7.706   2.950
 2235SOL    HW218737   0.137   7.678   2.846
 2236SOL     OW18738   0.850   8.246   3.685
 2236SOL    HW118739   0.846   8.322   3.750
 2236SOL    HW218740   0.872   8.282   3.594
 2237SOL     OW18741   1.603   7.895   2.599
 2237SOL    HW118742   1.529   7.941   2.549
 2237SOL    HW218743   1.654   7.963   2.652
 2238SOL     OW18744   0.240   8.539   2.748
 2238SOL    HW118745   0.254   8.455   2.800
 2238SOL    HW218746   0.185   8.603   2.803
 2239SOL     OW18747   1.594   7.562   3.342
 2239SOL    HW118748   1.576   7.629   3.270
 2239SOL    HW218749   1.591   7.608   3.431
 2240SOL     OW18750   0.113   8.185   3.459
 2240SOL    HW118751   0.201   8.172   3.504
 2240SOL    HW218752   0.100   8.282   3.437
 2241SOL     OW18753   0.317   7.699   3.663
 2241SOL    HW118754   0.388   7.770   3.669
 2241SOL    HW218755   0.229   7.738   3.691
 2242SOL     OW18756   0.598   8.177   2.132
 2242SOL    HW118757   0.622   8.246   2.064
 2242SOL    HW218758   0.520   8.210   2.186
 2243SOL     OW18759   1.281   7.793   2.806
 2243SOL    HW118760   1.195   7.743   2.793
 2243SOL    HW218761   1.343   7.739   2.862
 2244SOL     OW18762   0.865   7.796   2.057
 2244SOL    HW118763   0.924   7.859   2.008
 2244SOL    HW218764   0.884   7.702   2.028
 2245SOL     OW18765   0.550   7.644   2.747
 2245SOL    HW118766   0.545   7.639   2.847
 2245SOL    HW218767   0.552   7.740   2.718
 2246SOL     OW18768   1.400   7.555   2.288
 2246SOL    HW118769   1.376   7.518   2.198
 2246SOL    HW218770   1.499   7.571   2.292
 2247SOL     OW18771   0.922   7.951   2.761
 2247SOL    HW118772   0.897   7.942   2.665
 2247SOL    HW218773   0.970   7.869   2.792
 2248SOL     OW18774   0.539   7.512   2.374
 2248SOL    HW118775   0.458   7.513   2.432
 2248SOL    HW218776   0.542   7.595   2.319
 2249SOL     OW18777   1.857   8.281   2.239
 2249SOL    HW118778   1.899   8.217   2.303
 2249SOL    HW218779   1.819   8.230   2.161
 2250SOL     OW18780   0.915   7.537   3.264
 2250SOL    HW118781   0.940   7.517   3.169
 2250SOL    HW218782   0.987   7.593   3.306
 2251SOL     OW18783   1.274   7.834   3.124
 2251SOL    HW118784   1.295   7.908   3.188
 2251SOL    HW218785   1.185   7.851   3.081
 2252SOL     OW18786   1.582   8.087   2.334
 2252SOL    HW118787   1.551   8.148   2.407
 2252SOL    HW218788   1.632   8.139   2.265
 2253SOL     OW18789   0.402   8.199   3.460
 2253SOL    HW118790   0.470   8.254   3.413
 2253SOL    HW218791   0.442   8.111   3.487
 2254SOL     OW18792   1.360   8.310   2.907
 2254SOL    HW118793   1.285   8.310   2.841
 2254SOL    HW218794   1.397   8.218   2.916
 2255SOL     OW18795   0.307   7.661   3.093
 2255SOL    HW118796   0.284   7.698   3.183
 2255SOL    HW218797   0.277   7.566   3.087
 2256SOL     OW18798   0.307   7.511   2.480
 2256SOL    HW118799   0.296   7.605   2.513
 2256SOL    HW218800   0.302   7.448   2.557
 2257SOL     OW18801   0.339   7.957   2.868
 2257SOL    HW118802   0.287   7.874   2.851
 2257SOL    HW218803   0.416   7.962   2.804
 2258SOL     OW18804   1.138   7.828   3.540
 2258SOL    HW118805   1.093   7.891   3.604
 2258SOL    HW218806   1.231   7.859   3.523
 2259SOL     OW18807   0.040   7.992   2.976
 2259SOL    HW118808   0.125   7.959   2.935
 2259SOL    HW218809   0.053   8.007   3.074
 2260SOL     OW18810   0.189   7.968   3.584
 2260SOL    HW118811   0.248   7.928   3.514
 2260SOL    HW218812   0.131   8.039   3.543
 2261SOL     OW18813   0.671   7.912   3.131
 2261SOL    HW118814   0.637   7.823   3.101
 2261SOL    HW218815   0.697   7.966   3.051
 2262SOL     OW18816   1.302   8.303   2.171
 2262SOL    HW118817   1.216   8.272   2.213
 2262SOL    HW218818   1.298   8.289   2.072
 2263SOL     OW18819   1.726   7.583   2.385
 2263SOL    HW118820   1.799   7.566   2.318
 2263SOL    HW218821   1.695   7.496   2.423
 2264SOL     OW18822   0.263   7.774   2.582
 2264SOL    HW118823   0.184   7.825   2.548
 2264SOL    HW218824   0.254   7.759   2.680
 2265SOL     OW18825   0.105   8.461   3.588
 2265SOL    HW118826   0.028   8.428   3.642
 2265SOL    HW218827   0.190   8.431   3.630
 2266SOL     OW18828   0.716   8.013   3.570
 2266SOL    HW118829   0.735   8.078   3.644
 2266SOL    HW218830   0.776   7.933   3.579
 2267SOL     OW18831   1.674   8.331   3.116
 2267SOL    HW118832   1.647   8.242   3.079
 2267SOL    HW218833   1.675   8.399   3.043
 2268SOL     OW18834   0.594   8.193   2.514
 2268SOL    HW118835   0.644   8.278   2.495
 2268SOL    HW218836   0.506   8.195   2.466
 2269SOL     OW18837   1.777   7.790   3.504
 2269SOL    HW118838   1.760   7.821   3.410
 2269SOL    HW218839   1.693   7.753   3.542
 2270SOL     OW18840   1.824   7.640   3.089
 2270SOL    HW118841   1.820   7.550   3.133
 2270SOL    HW218842   1.827   7.629   2.990
 2271SOL     OW18843   1.352   7.500   2.030
 2271SOL    HW118844   1.387   7.459   1.946
 2271SOL    HW218845   1.262   7.462   2.050
 2272SOL     OW18846   0.019   7.816   4.371
 2272SOL    HW118847  -0.063   7.859   4.410
 2272SOL    HW218848  -0.009   7.743   4.308
 2273SOL     OW18849   0.850   8.246   5.547
 2273SOL    HW118850   0.846   8.322   5.612
 2273SOL    HW218851   0.872   8.282   5.456
 2274SOL     OW18852   0.240   8.539   4.610
 2274SOL    HW118853   0.254   8.455   4.662
 2274SOL    HW218854   0.185   8.603   4.665
 2275SOL     OW18855   0.809   7.452   4.226
 2275SOL    HW118856   0.849   7.543   4.217
 2275SOL    HW218857   0.709   7.460   4.232
 2276SOL     OW18858   0.197   8.424   4.988
 2276SOL    HW118859   0.286   8.379   4.974
 2276SOL    HW218860   0.124   8.359   4.969
 2277SOL     OW18861   1.525   8.447   3.914
 2277SOL    HW118862   1.462   8.371   3.927
 2277SOL    HW218863   1.573   8.465   4.000
 2278SOL     OW18864   0.807   8.053   5.189
 2278SOL    HW118865   0.760   8.050   5.278
 2278SOL    HW218866   0.756   7.998   5.123
 2279SOL     OW18867   0.973   8.338   5.296
 2279SOL    HW118868   1.019   8.254   5.267
 2279SOL    HW218869   0.917   8.372   5.221
 2280SOL     OW18870   1.719   8.033   5.555
 2280SOL    HW118871   1.693   8.122   5.519
 2280SOL    HW218872   1.717   7.965   5.482
 2281SOL     OW18873   1.458   8.183   4.452
 2281SOL    HW118874   1.453   8.118   4.527
 2281SOL    HW218875   1.538   8.242   4.465
 2282SOL     OW18876   1.547   7.670   5.453
 2282SOL    HW118877   1.542   7.707   5.545
 2282SOL    HW218878   1.475   7.601   5.441
 2283SOL     OW18879   0.614   7.570   3.841
 2283SOL    HW118880   0.712   7.548   3.848
 2283SOL    HW218881   0.583   7.553   3.748
 2284SOL     OW18882   0.781   7.712   5.473
 2284SOL    HW118883   0.848   7.651   5.516
 2284SOL    HW218884   0.708   7.731   5.538
 2285SOL     OW18885   0.935   7.684   4.204
 2285SOL    HW118886   0.887   7.725   4.126
 2285SOL    HW218887   1.034   7.682   4.185
 2286SOL     OW18888   1.076   8.131   5.188
 2286SOL    HW118889   0.996   8.070   5.191
 2286SOL    HW218890   1.157   8.078   5.164
 2287SOL     OW18891   0.078   8.004   5.110
 2287SOL    HW118892   0.170   8.003   5.069
 2287SOL    HW218893   0.072   8.078   5.177
 2288SOL     OW18894   0.866   7.902   4.366
 2288SOL    HW118895   0.834   7.974   4.304
 2288SOL    HW218896   0.890   7.821   4.313
 2289SOL     OW18897   1.017   7.487   4.477
 2289SOL    HW118898   0.945   7.492   4.408
 2289SOL    HW218899   0.993   7.418   4.546
 2290SOL     OW18900   1.857   8.281   4.101
 2290SOL    HW118901   1.899   8.217   4.165
 2290SOL    HW218902   1.819   8.230   4.023
 2291SOL     OW18903   1.390   8.023   3.802
 2291SOL    HW118904   1.336   8.002   3.883
 2291SOL    HW218905   1.481   7.982   3.811
 2292SOL     OW18906   1.638   8.547   4.803
 2292SOL    HW118907   1.643   8.628   4.862
 2292SOL    HW218908   1.552   8.549   4.752
 2293SOL     OW18909   0.915   7.537   5.126
 2293SOL    HW118910   0.940   7.517   5.031
 2293SOL    HW218911   0.987   7.593   5.168
 2294SOL     OW18912   1.274   7.834   4.986
 2294SOL    HW118913   1.295   7.908   5.050
 2294SOL    HW218914   1.185   7.851   4.943
 2295SOL     OW18915   1.582   8.087   4.196
 2295SOL    HW118916   1.551   8.148   4.269
 2295SOL    HW218917   1.632   8.139   4.127
 2296SOL     OW18918   1.013   7.553   5.494
 2296SOL    HW118919   1.019   7.638   5.442
 2296SOL    HW218920   1.045   7.477   5.437
 2297SOL     OW18921   0.504   7.498   5.464
 2297SOL    HW118922   0.462   7.441   5.394
 2297SOL    HW218923   0.438   7.567   5.496
 2298SOL     OW18924   0.307   7.661   4.955
 2298SOL    HW118925   0.284   7.698   5.045
 2298SOL    HW218926   0.277   7.566   4.949
 2299SOL     OW18927   1.728   8.383   5.578
 2299SOL    HW118928   1.682   8.376   5.489
 2299SOL    HW218929   1.666   8.427   5.644
 2300SOL     OW18930   0.307   7.511   4.342
 2300SOL    HW118931   0.296   7.605   4.375
 2300SOL    HW218932   0.302   7.448   4.419
 2301SOL     OW18933   1.622   7.815   4.098
 2301SOL    HW118934   1.624   7.739   4.162
 2301SOL    HW218935   1.574   7.892   4.138
 2302SOL     OW18936   1.023   8.214   4.690
 2302SOL    HW118937   1.038   8.235   4.786
 2302SOL    HW218938   0.993   8.119   4.681
 2303SOL     OW18939   0.350   8.346   5.528
 2303SOL    HW118940   0.426   8.390   5.576
 2303SOL    HW218941   0.385   8.299   5.446
 2304SOL     OW18942   1.303   8.286   3.766
 2304SOL    HW118943   1.337   8.193   3.781
 2304SOL    HW218944   1.321   8.313   3.671
 2305SOL     OW18945   0.339   7.957   4.730
 2305SOL    HW118946   0.287   7.874   4.713
 2305SOL    HW218947   0.416   7.962   4.666
 2306SOL     OW18948   1.138   7.828   5.402
 2306SOL    HW118949   1.093   7.891   5.466
 2306SOL    HW218950   1.231   7.859   5.385
 2307SOL     OW18951   1.160   7.655   5.201
 2307SOL    HW118952   1.160   7.719   5.278
 2307SOL    HW218953   1.188   7.703   5.118
 2308SOL     OW18954   0.040   7.992   4.838
 2308SOL    HW118955   0.125   7.959   4.797
 2308SOL    HW218956   0.053   8.007   4.936
 2309SOL     OW18957   1.369   8.398   5.384
 2309SOL    HW118958   1.408   8.487   5.404
 2309SOL    HW218959   1.379   8.378   5.287
 2310SOL     OW18960   1.657   8.052   4.930
 2310SOL    HW118961   1.619   7.983   4.992
 2310SOL    HW218962   1.739   8.016   4.886
 2311SOL     OW18963   0.671   7.912   4.993
 2311SOL    HW118964   0.637   7.823   4.963
 2311SOL    HW218965   0.697   7.966   4.913
 2312SOL     OW18966   1.347   8.507   4.958
 2312SOL    HW118967   1.371   8.444   4.884
 2312SOL    HW218968   1.257   8.547   4.940
 2313SOL     OW18969   1.302   8.303   4.033
 2313SOL    HW118970   1.216   8.272   4.075
 2313SOL    HW218971   1.298   8.289   3.934
 2314SOL     OW18972   0.105   8.461   5.450
 2314SOL    HW118973   0.028   8.428   5.504
 2314SOL    HW218974   0.190   8.431   5.492
 2315SOL     OW18975   0.672   7.651   5.213
 2315SOL    HW118976   0.762   7.635   5.173
 2315SOL    HW218977   0.680   7.656   5.312
 2316SOL     OW18978   1.440   8.304   5.122
 2316SOL    HW118979   1.383   8.356   5.059
 2316SOL    HW218980   1.536   8.316   5.098
 2317SOL     OW18981   0.072   7.614   4.042
 2317SOL    HW118982   0.055   7.697   3.988
 2317SOL    HW218983   0.162   7.577   4.020
 2318SOL     OW18984   0.613   8.290   5.155
 2318SOL    HW118985   0.669   8.371   5.138
 2318SOL    HW218986   0.672   8.210   5.158
 2319SOL     OW18987   0.716   8.013   5.432
 2319SOL    HW118988   0.735   8.078   5.506
 2319SOL    HW218989   0.776   7.933   5.441
 2320SOL     OW18990   1.777   7.790   5.366
 2320SOL    HW118991   1.760   7.821   5.272
 2320SOL    HW218992   1.693   7.753   5.404
 2321SOL     OW18993   1.083   8.432   3.811
 2321SOL    HW118994   1.060   8.485   3.729
 2321SOL    HW218995   1.164   8.376   3.792
 2322SOL     OW18996   1.001   7.482   4.878
 2322SOL    HW118997   0.938   7.410   4.847
 2322SOL    HW218998   1.094   7.446   4.878
 2323SOL     OW18999   0.230   8.076   5.699
 2323SOL    HW119000   0.137   8.074   5.736
 2323SOL    HW219001   0.231   8.037   5.607
 2324SOL     OW19002   0.225   7.723   6.582
 2324SOL    HW119003   0.260   7.706   6.674
 2324SOL    HW219004   0.137   7.678   6.570
 2325SOL     OW19005   0.019   7.816   6.233
 2325SOL    HW119006  -0.063   7.859   6.272
 2325SOL    HW219007  -0.009   7.743   6.170
 2326SOL     OW19008   1.135   8.151   6.303
 2326SOL    HW119009   1.192   8.229   6.278
 2326SOL    HW219010   1.075   8.177   6.379
 2327SOL     OW19011   1.755   8.055   5.817
 2327SOL    HW119012   1.743   8.042   5.718
 2327SOL    HW219013   1.725   7.974   5.866
 2328SOL     OW19014   0.768   8.592   6.609
 2328SOL    HW119015   0.690   8.609   6.669
 2328SOL    HW219016   0.802   8.679   6.573
 2329SOL     OW19017   0.685   8.460   6.251
 2329SOL    HW119018   0.754   8.444   6.321
 2329SOL    HW219019   0.612   8.517   6.289
 2330SOL     OW19020   0.438   7.840   7.085
 2330SOL    HW119021   0.520   7.784   7.094
 2330SOL    HW219022   0.357   7.782   7.089
 2331SOL     OW19023   1.603   7.895   6.323
 2331SOL    HW119024   1.529   7.941   6.273
 2331SOL    HW219025   1.654   7.963   6.376
 2332SOL     OW19026   0.240   8.539   6.472
 2332SOL    HW119027   0.254   8.455   6.524
 2332SOL    HW219028   0.185   8.603   6.527
 2333SOL     OW19029   0.122   8.091   6.149
 2333SOL    HW119030   0.077   8.003   6.166
 2333SOL    HW219031   0.121   8.145   6.233
 2334SOL     OW19032   0.809   7.452   6.088
 2334SOL    HW119033   0.849   7.543   6.079
 2334SOL    HW219034   0.709   7.460   6.094
 2335SOL     OW19035   0.197   8.424   6.850
 2335SOL    HW119036   0.286   8.379   6.836
 2335SOL    HW219037   0.124   8.359   6.831
 2336SOL     OW19038   1.525   8.447   5.776
 2336SOL    HW119039   1.462   8.371   5.789
 2336SOL    HW219040   1.573   8.465   5.862
 2337SOL     OW19041   0.598   8.177   5.856
 2337SOL    HW119042   0.622   8.246   5.788
 2337SOL    HW219043   0.520   8.210   5.910
 2338SOL     OW19044   1.281   7.793   6.530
 2338SOL    HW119045   1.195   7.743   6.517
 2338SOL    HW219046   1.343   7.739   6.586
 2339SOL     OW19047   0.807   8.053   7.051
 2339SOL    HW119048   0.760   8.050   7.140
 2339SOL    HW219049   0.756   7.998   6.985
 2340SOL     OW19050   0.991   7.858   6.828
 2340SOL    HW119051   0.914   7.892   6.882
 2340SOL    HW219052   0.957   7.807   6.749
 2341SOL     OW19053   1.041   8.149   6.015
 2341SOL    HW119054   1.067   8.145   6.111
 2341SOL    HW219055   0.956   8.098   6.001
 2342SOL     OW19056   0.076   8.259   6.375
 2342SOL    HW119057   0.175   8.247   6.384
 2342SOL    HW219058   0.052   8.354   6.396
 2343SOL     OW19059   0.865   7.796   5.781
 2343SOL    HW119060   0.924   7.859   5.732
 2343SOL    HW219061   0.884   7.702   5.752
 2344SOL     OW19062   0.550   7.644   6.471
 2344SOL    HW119063   0.545   7.639   6.571
 2344SOL    HW219064   0.552   7.740   6.442
 2345SOL     OW19065   1.458   8.183   6.314
 2345SOL    HW119066   1.453   8.118   6.389
 2345SOL    HW219067   1.538   8.242   6.327
 2346SOL     OW19068   1.400   7.555   6.012
 2346SOL    HW119069   1.376   7.518   5.922
 2346SOL    HW219070   1.499   7.571   6.016
 2347SOL     OW19071   0.382   8.148   6.066
 2347SOL    HW119072   0.427   8.058   6.063
 2347SOL    HW219073   0.288   8.137   6.099
 2348SOL     OW19074   0.614   7.570   5.703
 2348SOL    HW119075   0.712   7.548   5.710
 2348SOL    HW219076   0.583   7.553   5.610
 2349SOL     OW19077   0.922   7.951   6.485
 2349SOL    HW119078   0.897   7.942   6.389
 2349SOL    HW219079   0.970   7.869   6.516
 2350SOL     OW19080   0.539   7.512   6.098
 2350SOL    HW119081   0.458   7.513   6.156
 2350SOL    HW219082   0.542   7.595   6.043
 2351SOL     OW19083   0.297   7.483   5.757
 2351SOL    HW119084   0.346   7.567   5.736
 2351SOL    HW219085   0.359   7.418   5.802
 2352SOL     OW19086   0.935   7.684   6.066
 2352SOL    HW119087   0.887   7.725   5.988
 2352SOL    HW219088   1.034   7.682   6.047
 2353SOL     OW19089   1.032   7.997   5.602
 2353SOL    HW119090   0.991   8.079   5.563
 2353SOL    HW219091   1.096   8.023   5.675
 2354SOL     OW19092   0.561   7.670   6.733
 2354SOL    HW119093   0.599   7.586   6.770
 2354SOL    HW219094   0.473   7.689   6.777
 2355SOL     OW19095   0.866   7.902   6.228
 2355SOL    HW119096   0.834   7.974   6.166
 2355SOL    HW219097   0.890   7.821   6.175
 2356SOL     OW19098   1.017   7.487   6.339
 2356SOL    HW119099   0.945   7.492   6.270
 2356SOL    HW219100   0.993   7.418   6.408
 2357SOL     OW19101   1.466   8.038   6.578
 2357SOL    HW119102   1.436   7.943   6.585
 2357SOL    HW219103   1.539   8.054   6.644
 2358SOL     OW19104   1.857   8.281   5.963
 2358SOL    HW119105   1.899   8.217   6.027
 2358SOL    HW219106   1.819   8.230   5.885
 2359SOL     OW19107   1.390   8.023   5.664
 2359SOL    HW119108   1.336   8.002   5.745
 2359SOL    HW219109   1.481   7.982   5.673
 2360SOL     OW19110   0.527   7.704   5.914
 2360SOL    HW119111   0.554   7.645   5.839
 2360SOL    HW219112   0.527   7.799   5.883
 2361SOL     OW19113   1.754   8.671   7.174
 2361SOL    HW119114   1.845   8.632   7.161
 2361SOL    HW219115   1.762   8.767   7.198
 2362SOL     OW19116   1.638   8.547   6.665
 2362SOL    HW119117   1.643   8.628   6.724
 2362SOL    HW219118   1.552   8.549   6.614
 2363SOL     OW19119   0.410   8.261   6.837
 2363SOL    HW119120   0.496   8.273   6.887
 2363SOL    HW219121   0.368   8.174   6.864
 2364SOL     OW19122   1.274   7.834   6.848
 2364SOL    HW119123   1.295   7.908   6.912
 2364SOL    HW219124   1.185   7.851   6.805
 2365SOL     OW19125   0.566   7.985   6.451
 2365SOL    HW119126   0.578   8.051   6.377
 2365SOL    HW219127   0.612   8.019   6.534
 2366SOL     OW19128   1.582   8.087   6.058
 2366SOL    HW119129   1.551   8.148   6.131
 2366SOL    HW219130   1.632   8.139   5.989
 2367SOL     OW19131   0.504   7.498   7.326
 2367SOL    HW119132   0.462   7.441   7.256
 2367SOL    HW219133   0.438   7.567   7.358
 2368SOL     OW19134   0.573   8.318   6.615
 2368SOL    HW119135   0.617   8.407   6.606
 2368SOL    HW219136   0.510   8.318   6.692
 2369SOL     OW19137   1.360   8.310   6.631
 2369SOL    HW119138   1.285   8.310   6.565
 2369SOL    HW219139   1.397   8.218   6.640
 2370SOL     OW19140   1.209   7.973   5.861
 2370SOL    HW119141   1.222   7.889   5.915
 2370SOL    HW219142   1.180   8.047   5.921
 2371SOL     OW19143   0.307   7.661   6.817
 2371SOL    HW119144   0.284   7.698   6.907
 2371SOL    HW219145   0.277   7.566   6.811
 2372SOL     OW19146   0.037   8.758   6.868
 2372SOL    HW119147   0.090   8.709   6.936
 2372SOL    HW219148   0.059   8.856   6.873
 2373SOL     OW19149   0.732   8.082   6.650
 2373SOL    HW119150   0.791   8.056   6.574
 2373SOL    HW219151   0.704   8.178   6.639
 2374SOL     OW19152   0.307   7.511   6.204
 2374SOL    HW119153   0.296   7.605   6.237
 2374SOL    HW219154   0.302   7.448   6.281
 2375SOL     OW19155   1.622   7.815   5.960
 2375SOL    HW119156   1.624   7.739   6.024
 2375SOL    HW219157   1.574   7.892   6.000
 2376SOL     OW19158   1.023   8.214   6.552
 2376SOL    HW119159   1.038   8.235   6.648
 2376SOL    HW219160   0.993   8.119   6.543
 2377SOL     OW19161   0.350   8.346   7.390
 2377SOL    HW119162   0.426   8.390   7.438
 2377SOL    HW219163   0.385   8.299   7.308
 2378SOL     OW19164   1.540   7.722   5.711
 2378SOL    HW119165   1.479   7.647   5.734
 2378SOL    HW219166   1.562   7.774   5.794
 2379SOL     OW19167   1.303   8.286   5.628
 2379SOL    HW119168   1.337   8.193   5.643
 2379SOL    HW219169   1.321   8.313   5.533
 2380SOL     OW19170   0.319   8.258   6.535
 2380SOL    HW119171   0.412   8.294   6.540
 2380SOL    HW219172   0.313   8.173   6.587
 2381SOL     OW19173   0.339   7.957   6.592
 2381SOL    HW119174   0.287   7.874   6.575
 2381SOL    HW219175   0.416   7.962   6.528
 2382SOL     OW19176   1.160   7.655   7.063
 2382SOL    HW119177   1.160   7.719   7.140
 2382SOL    HW219178   1.188   7.703   6.980
 2383SOL     OW19179   1.002   8.244   6.824
 2383SOL    HW119180   1.043   8.212   6.910
 2383SOL    HW219181   0.906   8.217   6.821
 2384SOL     OW19182   0.040   7.992   6.700
 2384SOL    HW119183   0.125   7.959   6.659
 2384SOL    HW219184   0.053   8.007   6.798
 2385SOL     OW19185   0.815   8.020   5.911
 2385SOL    HW119186   0.822   7.931   5.865
 2385SOL    HW219187   0.721   8.054   5.903
 2386SOL     OW19188   1.657   8.052   6.792
 2386SOL    HW119189   1.619   7.983   6.854
 2386SOL    HW219190   1.739   8.016   6.748
 2387SOL     OW19191   0.671   7.912   6.855
 2387SOL    HW119192   0.637   7.823   6.825
 2387SOL    HW219193   0.697   7.966   6.775
 2388SOL     OW19194   0.473   7.948   5.777
 2388SOL    HW119195   0.534   8.028   5.781
 2388SOL    HW219196   0.378   7.979   5.784
 2389SOL     OW19197   0.159   8.585   7.052
 2389SOL    HW119198   0.181   8.524   7.128
 2389SOL    HW219199   0.169   8.536   6.966
 2390SOL     OW19200   1.347   8.507   6.820
 2390SOL    HW119201   1.371   8.444   6.746
 2390SOL    HW219202   1.257   8.547   6.802
 2391SOL     OW19203   1.302   8.303   5.895
 2391SOL    HW119204   1.216   8.272   5.937
 2391SOL    HW219205   1.298   8.289   5.796
 2392SOL     OW19206   1.726   7.583   6.109
 2392SOL    HW119207   1.799   7.566   6.042
 2392SOL    HW219208   1.695   7.496   6.147
 2393SOL     OW19209   1.280   8.375   6.258
 2393SOL    HW119210   1.340   8.294   6.260
 2393SOL    HW219211   1.320   8.444   6.198
 2394SOL     OW19212   0.830   8.721   7.008
 2394SOL    HW119213   0.825   8.754   7.103
 2394SOL    HW219214   0.744   8.740   6.962
 2395SOL     OW19215   1.841   7.623   6.549
 2395SOL    HW119216   1.880   7.538   6.513
 2395SOL    HW219217   1.743   7.625   6.530
 2396SOL     OW19218   0.263   7.774   6.306
 2396SOL    HW119219   0.184   7.825   6.272
 2396SOL    HW219220   0.254   7.759   6.404
 2397SOL     OW19221   0.822   8.450   6.958
 2397SOL    HW119222   0.862   8.449   6.866
 2397SOL    HW219223   0.832   8.542   6.998
 2398SOL     OW19224   0.916   8.358   5.877
 2398SOL    HW119225   0.979   8.396   5.809
 2398SOL    HW219226   0.956   8.275   5.916
 2399SOL     OW19227   1.014   7.684   6.557
 2399SOL    HW119228   1.006   7.648   6.464
 2399SOL    HW219229   1.012   7.608   6.622
 2400SOL     OW19230   1.709   7.833   6.967
 2400SOL    HW119231   1.782   7.902   6.971
 2400SOL    HW219232   1.737   7.758   6.908
 2401SOL     OW19233   0.105   8.461   7.312
 2401SOL    HW119234   0.028   8.428   7.366
 2401SOL    HW219235   0.190   8.431   7.354
 2402SOL     OW19236   0.672   7.651   7.075
 2402SOL    HW119237   0.762   7.635   7.035
 2402SOL    HW219238   0.680   7.656   7.174
 2403SOL     OW19239   0.072   7.614   5.904
 2403SOL    HW119240   0.055   7.697   5.850
 2403SOL    HW219241   0.162   7.577   5.882
 2404SOL     OW19242   0.613   8.290   7.017
 2404SOL    HW119243   0.669   8.371   7.000
 2404SOL    HW219244   0.672   8.210   7.020
 2405SOL     OW19245   1.674   8.331   6.840
 2405SOL    HW119246   1.647   8.242   6.803
 2405SOL    HW219247   1.675   8.399   6.767
 2406SOL     OW19248   1.225   7.773   6.035
 2406SOL    HW119249   1.290   7.699   6.024
 2406SOL    HW219250   1.245   7.823   6.119
 2407SOL     OW19251   0.594   8.193   6.238
 2407SOL    HW119252   0.644   8.278   6.219
 2407SOL    HW219253   0.506   8.195   6.190
 2408SOL     OW19254   1.730   8.382   7.103
 2408SOL    HW119255   1.768   8.473   7.118
 2408SOL    HW219256   1.722   8.365   7.004
 2409SOL     OW19257   1.083   8.432   5.673
 2409SOL    HW119258   1.060   8.485   5.591
 2409SOL    HW219259   1.164   8.376   5.654
 2410SOL     OW19260   1.824   7.640   6.813
 2410SOL    HW119261   1.820   7.550   6.857
 2410SOL    HW219262   1.827   7.629   6.714
 2411SOL     OW19263   0.428   7.872   6.106
 2411SOL    HW119264   0.458   7.800   6.044
 2411SOL    HW219265   0.389   7.832   6.189
 2412SOL     OW19266   0.317   7.995   6.866
 2412SOL    HW119267   0.355   7.936   6.938
 2412SOL    HW219268   0.357   7.969   6.778
 2413SOL     OW19269   1.424   7.662   6.698
 2413SOL    HW119270   1.476   7.597   6.753
 2413SOL    HW219271   1.375   7.725   6.759
 2414SOL     OW19272   1.001   7.482   6.740
 2414SOL    HW119273   0.938   7.410   6.709
 2414SOL    HW219274   1.094   7.446   6.740
 2415SOL     OW19275   1.352   7.500   5.754
 2415SOL    HW119276   1.387   7.459   5.670
 2415SOL    HW219277   1.262   7.462   5.774
 2416SOL     OW19278   1.300   7.901   6.277
 2416SOL    HW119279   1.241   7.981   6.281
 2416SOL    HW219280   1.315   7.866   6.370
 2417SOL     OW19281   1.593   7.669   6.468
 2417SOL    HW119282   1.509   7.668   6.522
 2417SOL    HW219283   1.595   7.752   6.412
 2418SOL     OW19284   2.092   0.628   0.113
 2418SOL    HW119285   1.999   0.626   0.150
 2418SOL    HW219286   2.093   0.589   0.021
 2419SOL     OW19287   2.087   0.275   0.996
 2419SOL    HW119288   2.122   0.258   1.088
 2419SOL    HW219289   1.999   0.230   0.984
 2420SOL     OW19290   1.881   0.368   0.647
 2420SOL    HW119291   1.799   0.411   0.686
 2420SOL    HW219292   1.853   0.295   0.584
 2421SOL     OW19293   2.431   1.275   1.165
 2421SOL    HW119294   2.338   1.268   1.128
 2421SOL    HW219295   2.442   1.364   1.209
 2422SOL     OW19296   3.417   1.511   0.703
 2422SOL    HW119297   3.360   1.495   0.784
 2422SOL    HW219298   3.358   1.521   0.623
 2423SOL     OW19299   2.997   0.703   0.717
 2423SOL    HW119300   3.054   0.781   0.692
 2423SOL    HW219301   2.937   0.729   0.793
 2424SOL     OW19302   3.617   0.607   0.231
 2424SOL    HW119303   3.605   0.594   0.132
 2424SOL    HW219304   3.587   0.526   0.280
 2425SOL     OW19305   2.630   1.144   1.023
 2425SOL    HW119306   2.552   1.161   1.083
 2425SOL    HW219307   2.664   1.231   0.987
 2426SOL     OW19308   2.712   0.798   1.823
 2426SOL    HW119309   2.708   0.874   1.888
 2426SOL    HW219310   2.734   0.834   1.732
 2427SOL     OW19311   2.547   1.012   0.665
 2427SOL    HW119312   2.616   0.996   0.735
 2427SOL    HW219313   2.474   1.069   0.703
 2428SOL     OW19314   2.197   1.435   1.061
 2428SOL    HW119315   2.119   1.404   1.008
 2428SOL    HW219316   2.255   1.493   1.004
 2429SOL     OW19317   3.322   1.505   1.339
 2429SOL    HW119318   3.346   1.599   1.365
 2429SOL    HW219319   3.306   1.451   1.421
 2430SOL     OW19320   2.300   0.392   1.499
 2430SOL    HW119321   2.382   0.336   1.508
 2430SOL    HW219322   2.219   0.334   1.503
 2431SOL     OW19323   3.465   0.447   0.737
 2431SOL    HW119324   3.391   0.493   0.687
 2431SOL    HW219325   3.516   0.515   0.790
 2432SOL     OW19326   2.093   1.713   0.483
 2432SOL    HW119327   2.127   1.790   0.537
 2432SOL    HW219328   2.137   1.713   0.393
 2433SOL     OW19329   2.989   1.341   1.690
 2433SOL    HW119330   3.036   1.341   1.778
 2433SOL    HW219331   2.941   1.254   1.679
 2434SOL     OW19332   2.092   1.434   0.538
 2434SOL    HW119333   2.066   1.530   0.538
 2434SOL    HW219334   2.021   1.380   0.583
 2435SOL     OW19335   2.102   1.091   0.886
 2435SOL    HW119336   2.116   1.007   0.938
 2435SOL    HW219337   2.047   1.155   0.941
 2436SOL     OW19338   2.482   1.786   1.439
 2436SOL    HW119339   2.390   1.769   1.474
 2436SOL    HW219340   2.510   1.878   1.465
 2437SOL     OW19341   2.468   0.964   0.123
 2437SOL    HW119342   2.475   1.048   0.069
 2437SOL    HW219343   2.514   0.977   0.211
 2438SOL     OW19344   3.456   0.114   1.480
 2438SOL    HW119345   3.438   0.181   1.408
 2438SOL    HW219346   3.453   0.160   1.569
 2439SOL     OW19347   1.984   0.643   0.563
 2439SOL    HW119348   1.939   0.555   0.580
 2439SOL    HW219349   1.983   0.697   0.647
 2440SOL     OW19350   3.704   1.767   0.359
 2440SOL    HW119351   3.758   1.738   0.439
 2440SOL    HW219352   3.734   1.857   0.330
 2441SOL     OW19353   1.889   1.596   0.117
 2441SOL    HW119354   1.870   1.500   0.138
 2441SOL    HW219355   1.856   1.654   0.192
 2442SOL     OW19356   3.551   0.922   0.612
 2442SOL    HW119357   3.646   0.893   0.620
 2442SOL    HW219358   3.543   0.987   0.537
 2443SOL     OW19359   3.503   1.108   0.432
 2443SOL    HW119360   3.589   1.110   0.380
 2443SOL    HW219361   3.517   1.155   0.520
 2444SOL     OW19362   1.975   0.737   1.597
 2444SOL    HW119363   2.063   0.724   1.642
 2444SOL    HW219364   1.962   0.834   1.575
 2445SOL     OW19365   2.475   1.365   0.726
 2445SOL    HW119366   2.426   1.278   0.735
 2445SOL    HW219367   2.452   1.408   0.639
 2446SOL     OW19368   3.155   1.228   1.423
 2446SOL    HW119369   3.192   1.155   1.365
 2446SOL    HW219370   3.207   1.233   1.508
 2447SOL     OW19371   2.671   0.004   0.502
 2447SOL    HW119372   2.711   0.095   0.493
 2447SOL    HW219373   2.571   0.012   0.508
 2448SOL     OW19374   2.059   0.976   1.264
 2448SOL    HW119375   2.148   0.931   1.250
 2448SOL    HW219376   1.986   0.911   1.245
 2449SOL     OW19377   3.387   0.999   0.190
 2449SOL    HW119378   3.324   0.923   0.203
 2449SOL    HW219379   3.435   1.017   0.276
 2450SOL     OW19380   3.049   1.792   1.616
 2450SOL    HW119381   3.073   1.852   1.540
 2450SOL    HW219382   3.056   1.697   1.586
 2451SOL     OW19383   3.328   1.417   0.953
 2451SOL    HW119384   3.269   1.423   1.033
 2451SOL    HW219385   3.313   1.329   0.907
 2452SOL     OW19386   3.529   1.714   0.572
 2452SOL    HW119387   3.488   1.691   0.484
 2452SOL    HW219388   3.511   1.640   0.637
 2453SOL     OW19389   2.460   0.729   0.270
 2453SOL    HW119390   2.484   0.798   0.202
 2453SOL    HW219391   2.382   0.762   0.324
 2454SOL     OW19392   3.143   0.345   0.944
 2454SOL    HW119393   3.057   0.295   0.931
 2454SOL    HW219394   3.205   0.291   1.000
 2455SOL     OW19395   3.438   1.662   0.307
 2455SOL    HW119396   3.527   1.708   0.310
 2455SOL    HW219397   3.417   1.638   0.212
 2456SOL     OW19398   2.669   0.605   1.465
 2456SOL    HW119399   2.622   0.602   1.554
 2456SOL    HW219400   2.618   0.550   1.399
 2457SOL     OW19401   3.256   0.469   1.674
 2457SOL    HW119402   3.236   0.512   1.762
 2457SOL    HW219403   3.334   0.407   1.683
 2458SOL     OW19404   2.835   0.890   1.572
 2458SOL    HW119405   2.881   0.806   1.543
 2458SOL    HW219406   2.779   0.924   1.497
 2459SOL     OW19407   2.853   0.410   1.242
 2459SOL    HW119408   2.776   0.444   1.296
 2459SOL    HW219409   2.819   0.359   1.163
 2460SOL     OW19410   2.903   0.701   0.429
 2460SOL    HW119411   2.929   0.697   0.525
 2460SOL    HW219412   2.818   0.650   0.415
 2461SOL     OW19413   1.938   0.811   0.789
 2461SOL    HW119414   2.037   0.799   0.798
 2461SOL    HW219415   1.914   0.906   0.810
 2462SOL     OW19416   2.727   0.348   0.195
 2462SOL    HW119417   2.786   0.411   0.146
 2462SOL    HW219418   2.746   0.254   0.166
 2463SOL     OW19419   3.224   1.144   0.545
 2463SOL    HW119420   3.307   1.115   0.497
 2463SOL    HW219421   3.175   1.211   0.489
 2464SOL     OW19422   2.412   0.196   0.885
 2464SOL    HW119423   2.407   0.191   0.985
 2464SOL    HW219424   2.414   0.292   0.856
 2465SOL     OW19425   2.870   1.456   0.477
 2465SOL    HW119426   2.824   1.528   0.425
 2465SOL    HW219427   2.866   1.476   0.575
 2466SOL     OW19428   2.213   1.801   0.853
 2466SOL    HW119429   2.263   1.715   0.859
 2466SOL    HW219430   2.278   1.878   0.850
 2467SOL     OW19431   3.657   1.066   0.873
 2467SOL    HW119432   3.595   1.051   0.797
 2467SOL    HW219433   3.605   1.077   0.958
 2468SOL     OW19434   3.089   1.550   1.506
 2468SOL    HW119435   3.095   1.473   1.570
 2468SOL    HW219436   3.037   1.524   1.426
 2469SOL     OW19437   2.183   0.943   0.242
 2469SOL    HW119438   2.265   0.982   0.200
 2469SOL    HW219439   2.156   0.861   0.193
 2470SOL     OW19440   3.320   0.735   0.728
 2470SOL    HW119441   3.315   0.670   0.803
 2470SOL    HW219442   3.400   0.794   0.741
 2471SOL     OW19443   2.973   1.776   0.237
 2471SOL    HW119444   2.913   1.714   0.287
 2471SOL    HW219445   3.004   1.732   0.152
 2472SOL     OW19446   2.064   0.285   1.498
 2472SOL    HW119447   1.984   0.345   1.485
 2472SOL    HW219448   2.054   0.236   1.584
 2473SOL     OW19449   3.494   1.377   0.081
 2473SOL    HW119450   3.462   1.471   0.071
 2473SOL    HW219451   3.418   1.314   0.069
 2474SOL     OW19452   2.326   1.743   0.323
 2474SOL    HW119453   2.359   1.782   0.409
 2474SOL    HW219454   2.402   1.736   0.258
 2475SOL     OW19455   3.262   0.107   0.426
 2475SOL    HW119456   3.238   0.070   0.336
 2475SOL    HW219457   3.361   0.123   0.430
 2476SOL     OW19458   2.111   1.785   1.241
 2476SOL    HW119459   2.168   1.720   1.291
 2476SOL    HW219460   2.095   1.752   1.148
 2477SOL     OW19461   2.802   1.698   0.904
 2477SOL    HW119462   2.882   1.641   0.925
 2477SOL    HW219463   2.753   1.658   0.827
 2478SOL     OW19464   2.244   0.700   0.480
 2478SOL    HW119465   2.289   0.610   0.477
 2478SOL    HW219466   2.150   0.689   0.513
 2479SOL     OW19467   2.476   0.122   0.117
 2479SOL    HW119468   2.574   0.100   0.124
 2479SOL    HW219469   2.445   0.105   0.024
 2480SOL     OW19470   2.750   1.514   1.195
 2480SOL    HW119471   2.727   1.489   1.101
 2480SOL    HW219472   2.811   1.445   1.234
 2481SOL     OW19473   3.213   0.590   1.433
 2481SOL    HW119474   3.241   0.547   1.518
 2481SOL    HW219475   3.238   0.686   1.434
 2482SOL     OW19476   2.665   1.402   0.924
 2482SOL    HW119477   2.755   1.416   0.882
 2482SOL    HW219478   2.594   1.404   0.853
 2483SOL     OW19479   2.784   0.503   0.899
 2483SOL    HW119480   2.759   0.494   0.803
 2483SOL    HW219481   2.832   0.421   0.930
 2484SOL     OW19482   2.401   0.064   0.512
 2484SOL    HW119483   2.320   0.065   0.570
 2484SOL    HW219484   2.404   0.147   0.457
 2485SOL     OW19485   3.296   1.188   0.041
 2485SOL    HW119486   3.328   1.112   0.098
 2485SOL    HW219487   3.204   1.215   0.071
 2486SOL     OW19488   2.159   0.035   0.171
 2486SOL    HW119489   2.208   0.119   0.150
 2486SOL    HW219490   2.221  -0.030   0.216
 2487SOL     OW19491   2.797   0.236   0.480
 2487SOL    HW119492   2.749   0.277   0.402
 2487SOL    HW219493   2.896   0.234   0.461
 2488SOL     OW19494   2.938   0.683   1.464
 2488SOL    HW119495   2.858   0.622   1.467
 2488SOL    HW219496   3.019   0.630   1.440
 2489SOL     OW19497   3.089   1.570   0.793
 2489SOL    HW119498   3.110   1.644   0.728
 2489SOL    HW219499   3.157   1.570   0.866
 2490SOL     OW19500   2.321   1.152   0.741
 2490SOL    HW119501   2.250   1.125   0.806
 2490SOL    HW219502   2.295   1.124   0.648
 2491SOL     OW19503   3.133   1.797   0.591
 2491SOL    HW119504   3.177   1.861   0.527
 2491SOL    HW219505   3.083   1.849   0.661
 2492SOL     OW19506   2.894   0.549   0.016
 2492SOL    HW119507   2.853   0.631  -0.023
 2492SOL    HW219508   2.958   0.575   0.089
 2493SOL     OW19509   1.940   0.556   1.386
 2493SOL    HW119510   2.032   0.555   1.345
 2493SOL    HW219511   1.934   0.630   1.453
 2494SOL     OW19512   2.423   0.222   1.147
 2494SOL    HW119513   2.461   0.138   1.184
 2494SOL    HW219514   2.335   0.241   1.191
 2495SOL     OW19515   2.728   0.454   0.642
 2495SOL    HW119516   2.696   0.526   0.580
 2495SOL    HW219517   2.752   0.373   0.589
 2496SOL     OW19518   2.879   0.039   0.753
 2496SOL    HW119519   2.807   0.044   0.684
 2496SOL    HW219520   2.855  -0.030   0.822
 2497SOL     OW19521   3.291   1.173   0.867
 2497SOL    HW119522   3.236   1.089   0.860
 2497SOL    HW219523   3.317   1.202   0.775
 2498SOL     OW19524   3.328   0.590   0.992
 2498SOL    HW119525   3.298   0.495   0.999
 2498SOL    HW219526   3.401   0.606   1.058
 2499SOL     OW19527   3.719   0.833   0.377
 2499SOL    HW119528   3.761   0.769   0.441
 2499SOL    HW219529   3.681   0.782   0.299
 2500SOL     OW19530   2.350   1.385   0.174
 2500SOL    HW119531   2.263   1.370   0.221
 2500SOL    HW219532   2.333   1.411   0.079
 2501SOL     OW19533   3.526   1.280   0.657
 2501SOL    HW119534   3.625   1.288   0.671
 2501SOL    HW219535   3.481   1.364   0.688
 2502SOL     OW19536   3.252   0.575   0.078
 2502SOL    HW119537   3.198   0.554   0.159
 2502SOL    HW219538   3.343   0.534   0.087
 2503SOL     OW19539   2.389   0.256   0.328
 2503SOL    HW119540   2.416   0.197   0.253
 2503SOL    HW219541   2.389   0.351   0.297
 2504SOL     OW19542   3.616   1.223   1.588
 2504SOL    HW119543   3.707   1.184   1.575
 2504SOL    HW219544   3.624   1.319   1.612
 2505SOL     OW19545   2.926   1.347   1.340
 2505SOL    HW119546   2.846   1.324   1.395
 2505SOL    HW219547   3.009   1.321   1.389
 2506SOL     OW19548   3.454   1.629   1.625
 2506SOL    HW119549   3.481   1.663   1.535
 2506SOL    HW219550   3.533   1.591   1.671
 2507SOL     OW19551   2.973   1.195   1.100
 2507SOL    HW119552   2.933   1.239   1.181
 2507SOL    HW219553   2.932   1.232   1.017
 2508SOL     OW19554   3.500   1.099   1.079
 2508SOL    HW119555   3.505   1.180   1.138
 2508SOL    HW219556   3.414   1.101   1.028
 2509SOL     OW19557   2.777   0.089   1.402
 2509SOL    HW119558   2.802   0.069   1.307
 2509SOL    HW219559   2.849   0.145   1.444
 2510SOL     OW19560   2.842   1.116   1.719
 2510SOL    HW119561   2.743   1.122   1.729
 2510SOL    HW219562   2.865   1.036   1.663
 2511SOL     OW19563   2.567   1.050   0.368
 2511SOL    HW119564   2.553   1.057   0.467
 2511SOL    HW219565   2.651   0.999   0.350
 2512SOL     OW19566   2.272   0.813   1.251
 2512SOL    HW119567   2.358   0.825   1.301
 2512SOL    HW219568   2.230   0.726   1.278
 2513SOL     OW19569   3.136   0.386   1.262
 2513SOL    HW119570   3.157   0.460   1.326
 2513SOL    HW219571   3.047   0.403   1.219
 2514SOL     OW19572   1.926   1.564   1.331
 2514SOL    HW119573   1.880   1.646   1.297
 2514SOL    HW219574   2.024   1.583   1.340
 2515SOL     OW19575   2.229   1.100   0.501
 2515SOL    HW119576   2.222   1.183   0.445
 2515SOL    HW219577   2.233   1.020   0.441
 2516SOL     OW19578   2.428   0.537   0.865
 2516SOL    HW119579   2.440   0.603   0.791
 2516SOL    HW219580   2.474   0.571   0.948
 2517SOL     OW19581   3.114   1.348   0.388
 2517SOL    HW119582   3.164   1.425   0.428
 2517SOL    HW219583   3.019   1.350   0.420
 2518SOL     OW19584   3.134   1.445   1.142
 2518SOL    HW119585   3.181   1.458   1.229
 2518SOL    HW219586   3.068   1.371   1.151
 2519SOL     OW19587   3.444   0.639   0.472
 2519SOL    HW119588   3.413   0.700   0.545
 2519SOL    HW219589   3.494   0.691   0.403
 2520SOL     OW19590   2.216   1.510   1.329
 2520SOL    HW119591   2.195   1.466   1.242
 2520SOL    HW219592   2.313   1.536   1.332
 2521SOL     OW19593   2.435   0.870   1.029
 2521SOL    HW119594   2.479   0.959   1.020
 2521SOL    HW219595   2.372   0.870   1.106
 2522SOL     OW19596   3.222   0.862   1.045
 2522SOL    HW119597   3.147   0.862   0.979
 2522SOL    HW219598   3.259   0.770   1.054
 2523SOL     OW19599   3.071   0.525   0.275
 2523SOL    HW119600   3.084   0.441   0.329
 2523SOL    HW219601   3.042   0.599   0.335
 2524SOL     OW19602   2.169   0.213   1.231
 2524SOL    HW119603   2.146   0.250   1.321
 2524SOL    HW219604   2.139   0.118   1.225
 2525SOL     OW19605   1.899   1.310   1.282
 2525SOL    HW119606   1.952   1.261   1.350
 2525SOL    HW219607   1.921   1.408   1.287
 2526SOL     OW19608   2.594   0.634   1.064
 2526SOL    HW119609   2.653   0.608   0.988
 2526SOL    HW219610   2.566   0.730   1.053
 2527SOL     OW19611   2.169   0.063   0.618
 2527SOL    HW119612   2.158   0.157   0.651
 2527SOL    HW219613   2.164   0.000   0.695
 2528SOL     OW19614   3.484   0.367   0.374
 2528SOL    HW119615   3.486   0.291   0.438
 2528SOL    HW219616   3.436   0.444   0.414
 2529SOL     OW19617   2.885   0.766   0.966
 2529SOL    HW119618   2.900   0.787   1.062
 2529SOL    HW219619   2.855   0.671   0.957
 2530SOL     OW19620   2.842   1.573   1.700
 2530SOL    HW119621   2.822   1.617   1.612
 2530SOL    HW219622   2.881   1.482   1.684
 2531SOL     OW19623   3.721   1.518   1.605
 2531SOL    HW119624   3.735   1.545   1.510
 2531SOL    HW219625   3.804   1.540   1.658
 2532SOL     OW19626   3.402   0.274   0.125
 2532SOL    HW119627   3.341   0.199   0.148
 2532SOL    HW219628   3.424   0.326   0.208
 2533SOL     OW19629   3.165   0.838   0.042
 2533SOL    HW119630   3.199   0.745   0.057
 2533SOL    HW219631   3.183   0.865  -0.053
 2534SOL     OW19632   2.930   1.333   0.849
 2534SOL    HW119633   2.937   1.249   0.794
 2534SOL    HW219634   2.992   1.402   0.813
 2535SOL     OW19635   2.181   0.810   0.949
 2535SOL    HW119636   2.274   0.846   0.954
 2535SOL    HW219637   2.175   0.725   1.001
 2536SOL     OW19638   2.201   0.509   1.006
 2536SOL    HW119639   2.149   0.426   0.989
 2536SOL    HW219640   2.278   0.514   0.942
 2537SOL     OW19641   3.000   0.380   1.678
 2537SOL    HW119642   2.955   0.443   1.742
 2537SOL    HW219643   3.093   0.411   1.661
 2538SOL     OW19644   3.022   0.207   1.477
 2538SOL    HW119645   3.022   0.271   1.554
 2538SOL    HW219646   3.050   0.255   1.394
 2539SOL     OW19647   1.870   1.326   0.200
 2539SOL    HW119648   1.777   1.347   0.169
 2539SOL    HW219649   1.880   1.227   0.213
 2540SOL     OW19650   1.950   1.801   0.927
 2540SOL    HW119651   1.908   1.715   0.900
 2540SOL    HW219652   2.044   1.804   0.893
 2541SOL     OW19653   2.366   1.568   0.910
 2541SOL    HW119654   2.432   1.642   0.919
 2541SOL    HW219655   2.410   1.489   0.868
 2542SOL     OW19656   2.864   0.796   1.238
 2542SOL    HW119657   2.905   0.764   1.324
 2542SOL    HW219658   2.768   0.769   1.235
 2543SOL     OW19659   1.902   0.544   1.114
 2543SOL    HW119660   1.987   0.511   1.073
 2543SOL    HW219661   1.915   0.559   1.212
 2544SOL     OW19662   2.051   0.520   1.722
 2544SOL    HW119663   2.110   0.480   1.652
 2544SOL    HW219664   1.993   0.591   1.681
 2545SOL     OW19665   2.677   0.572   0.325
 2545SOL    HW119666   2.684   0.483   0.279
 2545SOL    HW219667   2.583   0.606   0.317
 2546SOL     OW19668   3.519   0.604   1.206
 2546SOL    HW119669   3.481   0.535   1.268
 2546SOL    HW219670   3.601   0.568   1.162
 2547SOL     OW19671   2.114   1.564   1.744
 2547SOL    HW119672   2.084   1.621   1.820
 2547SOL    HW219673   2.107   1.467   1.770
 2548SOL     OW19674   2.533   0.464   1.269
 2548SOL    HW119675   2.499   0.375   1.239
 2548SOL    HW219676   2.559   0.518   1.189
 2549SOL     OW19677   2.792   1.678   1.465
 2549SOL    HW119678   2.768   1.660   1.370
 2549SOL    HW219679   2.822   1.772   1.475
 2550SOL     OW19680   2.335   0.500   0.191
 2550SOL    HW119681   2.396   0.580   0.195
 2550SOL    HW219682   2.240   0.531   0.198
 2551SOL     OW19683   3.209   1.059   1.234
 2551SOL    HW119684   3.233   0.996   1.160
 2551SOL    HW219685   3.119   1.099   1.216
 2552SOL     OW19686   3.164   0.855   0.309
 2552SOL    HW119687   3.078   0.824   0.351
 2552SOL    HW219688   3.160   0.841   0.210
 2553SOL     OW19689   3.621   1.747   1.154
 2553SOL    HW119690   3.682   1.777   1.081
 2553SOL    HW219691   3.583   1.658   1.132
 2554SOL     OW19692   3.114   1.731   1.128
 2554SOL    HW119693   3.198   1.736   1.074
 2554SOL    HW219694   3.091   1.635   1.146
 2555SOL     OW19695   1.945   1.258   1.022
 2555SOL    HW119696   1.940   1.257   1.122
 2555SOL    HW219697   1.862   1.217   0.984
 2556SOL     OW19698   2.550   1.662   1.716
 2556SOL    HW119699   2.494   1.743   1.725
 2556SOL    HW219700   2.602   1.666   1.630
 2557SOL     OW19701   2.765   0.086   0.133
 2557SOL    HW119702   2.816   0.087   0.047
 2557SOL    HW219703   2.821   0.044   0.204
 2558SOL     OW19704   3.588   0.135   0.523
 2558SOL    HW119705   3.661   0.118   0.456
 2558SOL    HW219706   3.557   0.048   0.561
 2559SOL     OW19707   3.250   1.573   0.477
 2559SOL    HW119708   3.317   1.585   0.403
 2559SOL    HW219709   3.210   1.662   0.500
 2560SOL     OW19710   3.142   0.927   0.672
 2560SOL    HW119711   3.202   0.846   0.674
 2560SOL    HW219712   3.182   0.996   0.612
 2561SOL     OW19713   2.692   1.273   1.422
 2561SOL    HW119714   2.687   1.306   1.517
 2561SOL    HW219715   2.606   1.292   1.376
 2562SOL     OW19716   2.534   1.616   0.154
 2562SOL    HW119717   2.543   1.626   0.055
 2562SOL    HW219718   2.494   1.527   0.175
 2563SOL     OW19719   3.512   1.720   1.394
 2563SOL    HW119720   3.565   1.730   1.310
 2563SOL    HW219721   3.485   1.810   1.428
 2564SOL     OW19722   3.703   0.175   0.963
 2564SOL    HW119723   3.742   0.090   0.927
 2564SOL    HW219724   3.605   0.177   0.944
 2565SOL     OW19725   2.125   0.326   0.720
 2565SOL    HW119726   2.046   0.377   0.686
 2565SOL    HW219727   2.116   0.311   0.818
 2566SOL     OW19728   3.056   1.612   0.031
 2566SOL    HW119729   3.062   1.519   0.068
 2566SOL    HW219730   2.997   1.612  -0.049
 2567SOL     OW19731   2.684   1.002   1.372
 2567SOL    HW119732   2.724   1.001   1.280
 2567SOL    HW219733   2.694   1.094   1.412
 2568SOL     OW19734   2.778   0.910   0.291
 2568SOL    HW119735   2.841   0.948   0.223
 2568SOL    HW219736   2.818   0.827   0.330
 2569SOL     OW19737   3.366   1.607   0.044
 2569SOL    HW119738   3.274   1.644   0.051
 2569SOL    HW219739   3.404   1.627  -0.046
 2570SOL     OW19740   2.234   1.288   1.490
 2570SOL    HW119741   2.221   1.381   1.456
 2570SOL    HW219742   2.150   1.236   1.477
 2571SOL     OW19743   3.476   1.292   1.289
 2571SOL    HW119744   3.536   1.295   1.369
 2571SOL    HW219745   3.401   1.356   1.302
 2572SOL     OW19746   2.901   1.098   0.696
 2572SOL    HW119747   2.831   1.051   0.750
 2572SOL    HW219748   2.960   1.030   0.653
 2573SOL     OW19749   2.876   0.236   0.971
 2573SOL    HW119750   2.868   0.200   0.878
 2573SOL    HW219751   2.874   0.160   1.036
 2574SOL     OW19752   2.452   1.487   0.491
 2574SOL    HW119753   2.494   1.429   0.421
 2574SOL    HW219754   2.408   1.566   0.447
 2575SOL     OW19755   3.571   0.385   1.381
 2575SOL    HW119756   3.644   0.454   1.385
 2575SOL    HW219757   3.599   0.310   1.322
 2576SOL     OW19758   2.117   1.348   0.290
 2576SOL    HW119759   2.021   1.349   0.263
 2576SOL    HW219760   2.129   1.401   0.374
 2577SOL     OW19761   2.534   0.203   1.489
 2577SOL    HW119762   2.624   0.187   1.449
 2577SOL    HW219763   2.542   0.208   1.588
 2578SOL     OW19764   1.937   0.345   0.033
 2578SOL    HW119765   1.845   0.317   0.004
 2578SOL    HW219766   1.968   0.422  -0.023
 2579SOL     OW19767   3.302   0.856   1.398
 2579SOL    HW119768   3.245   0.908   1.335
 2579SOL    HW219769   3.398   0.868   1.374
 2580SOL     OW19770   1.934   0.166   0.318
 2580SOL    HW119771   1.917   0.249   0.264
 2580SOL    HW219772   2.024   0.129   0.296
 2581SOL     OW19773   3.045   1.335   0.119
 2581SOL    HW119774   2.946   1.324   0.121
 2581SOL    HW219775   3.079   1.350   0.212
 2582SOL     OW19776   3.355   1.767   0.959
 2582SOL    HW119777   3.388   1.831   0.890
 2582SOL    HW219778   3.421   1.761   1.034
 2583SOL     OW19779   2.578   0.565   1.708
 2583SOL    HW119780   2.597   0.630   1.782
 2583SOL    HW219781   2.638   0.485   1.717
 2584SOL     OW19782   3.312   1.220   1.633
 2584SOL    HW119783   3.303   1.210   1.732
 2584SOL    HW219784   3.408   1.213   1.607
 2585SOL     OW19785   3.536   0.883   1.254
 2585SOL    HW119786   3.509   0.794   1.217
 2585SOL    HW219787   3.537   0.951   1.181
 2586SOL     OW19788   3.087   0.325   0.449
 2586SOL    HW119789   3.152   0.251   0.438
 2586SOL    HW219790   3.107   0.375   0.533
 2587SOL     OW19791   2.456   0.745   0.652
 2587SOL    HW119792   2.506   0.830   0.633
 2587SOL    HW219793   2.368   0.747   0.604
 2588SOL     OW19794   2.721   1.374   0.016
 2588SOL    HW119795   2.675   1.389   0.104
 2588SOL    HW219796   2.765   1.459  -0.014
 2589SOL     OW19797   2.523   1.790   0.953
 2589SOL    HW119798   2.477   1.878   0.940
 2589SOL    HW219799   2.622   1.802   0.946
 2590SOL     OW19800   2.721   0.956   0.861
 2590SOL    HW119801   2.775   0.887   0.909
 2590SOL    HW219802   2.689   1.025   0.927
 2591SOL     OW19803   2.945   0.984   0.087
 2591SOL    HW119804   2.922   1.037   0.005
 2591SOL    HW219805   3.026   0.928   0.068
 2592SOL     OW19806   3.723   1.569   0.851
 2592SOL    HW119807   3.652   1.557   0.781
 2592SOL    HW219808   3.724   1.490   0.911
 2593SOL     OW19809   2.083   1.314   1.844
 2593SOL    HW119810   2.018   1.241   1.823
 2593SOL    HW219811   2.087   1.328   1.942
 2594SOL     OW19812   1.941   1.240   0.653
 2594SOL    HW119813   1.940   1.193   0.741
 2594SOL    HW219814   2.023   1.212   0.602
 2595SOL     OW19815   2.534   1.391   1.624
 2595SOL    HW119816   2.456   1.341   1.662
 2595SOL    HW219817   2.531   1.486   1.655
 2596SOL     OW19818   3.686   0.192   1.227
 2596SOL    HW119819   3.682   0.102   1.271
 2596SOL    HW219820   3.689   0.181   1.128
 2597SOL     OW19821   2.290   0.424   0.520
 2597SOL    HW119822   2.320   0.352   0.458
 2597SOL    HW219823   2.251   0.384   0.603
 2598SOL     OW19824   3.567   1.487   1.104
 2598SOL    HW119825   3.474   1.462   1.077
 2598SOL    HW219826   3.593   1.437   1.186
 2599SOL     OW19827   2.179   0.547   1.280
 2599SOL    HW119828   2.217   0.488   1.352
 2599SOL    HW219829   2.219   0.521   1.192
 2600SOL     OW19830   2.674   1.586   0.687
 2600SOL    HW119831   2.706   1.596   0.593
 2600SOL    HW219832   2.595   1.524   0.689
 2601SOL     OW19833   3.286   0.214   1.112
 2601SOL    HW119834   3.338   0.149   1.167
 2601SOL    HW219835   3.237   0.277   1.173
 2602SOL     OW19836   2.863   0.034   1.154
 2602SOL    HW119837   2.800  -0.038   1.123
 2602SOL    HW219838   2.956  -0.002   1.154
 2603SOL     OW19839   2.632   1.330   0.301
 2603SOL    HW119840   2.586   1.243   0.318
 2603SOL    HW219841   2.723   1.327   0.342
 2604SOL     OW19842   2.480   1.567   1.284
 2604SOL    HW119843   2.475   1.649   1.341
 2604SOL    HW219844   2.569   1.564   1.239
 2605SOL     OW19845   3.214   0.052   0.168
 2605SOL    HW119846   3.249   0.011   0.084
 2605SOL    HW219847   3.124   0.014   0.188
 2606SOL     OW19848   3.162   0.453   0.691
 2606SOL    HW119849   3.103   0.533   0.695
 2606SOL    HW219850   3.177   0.418   0.784
 2607SOL     OW19851   3.455   0.221   0.882
 2607SOL    HW119852   3.371   0.220   0.936
 2607SOL    HW219853   3.457   0.304   0.826
 2608SOL     OW19854   1.901   1.077   0.300
 2608SOL    HW119855   2.000   1.066   0.291
 2608SOL    HW219856   1.861   0.991   0.332
 2609SOL     OW19857   2.737   1.646   0.337
 2609SOL    HW119858   2.660   1.611   0.283
 2609SOL    HW219859   2.705   1.717   0.399
 2610SOL     OW19860   2.087   0.275   2.858
 2610SOL    HW119861   2.122   0.258   2.950
 2610SOL    HW219862   1.999   0.230   2.846
 2611SOL     OW19863   3.417   1.511   2.565
 2611SOL    HW119864   3.360   1.495   2.646
 2611SOL    HW219865   3.358   1.521   2.485
 2612SOL     OW19866   2.630   1.144   2.885
 2612SOL    HW119867   2.552   1.161   2.945
 2612SOL    HW219868   2.664   1.231   2.849
 2613SOL     OW19869   2.547   1.012   2.527
 2613SOL    HW119870   2.616   0.996   2.597
 2613SOL    HW219871   2.474   1.069   2.565
 2614SOL     OW19872   2.548   1.161   3.665
 2614SOL    HW119873   2.608   1.240   3.679
 2614SOL    HW219874   2.462   1.192   3.624
 2615SOL     OW19875   2.197   1.435   2.923
 2615SOL    HW119876   2.119   1.404   2.870
 2615SOL    HW219877   2.255   1.493   2.866
 2616SOL     OW19878   2.989   1.341   3.552
 2616SOL    HW119879   3.036   1.341   3.640
 2616SOL    HW219880   2.941   1.254   3.541
 2617SOL     OW19881   2.092   1.434   2.400
 2617SOL    HW119882   2.066   1.530   2.400
 2617SOL    HW219883   2.021   1.380   2.445
 2618SOL     OW19884   2.482   1.786   3.301
 2618SOL    HW119885   2.390   1.769   3.336
 2618SOL    HW219886   2.510   1.878   3.327
 2619SOL     OW19887   3.551   0.922   2.474
 2619SOL    HW119888   3.646   0.893   2.482
 2619SOL    HW219889   3.543   0.987   2.399
 2620SOL     OW19890   3.503   1.108   2.294
 2620SOL    HW119891   3.589   1.110   2.242
 2620SOL    HW219892   3.517   1.155   2.382
 2621SOL     OW19893   3.387   0.999   2.052
 2621SOL    HW119894   3.324   0.923   2.065
 2621SOL    HW219895   3.435   1.017   2.138
 2622SOL     OW19896   3.049   1.792   3.478
 2622SOL    HW119897   3.073   1.852   3.402
 2622SOL    HW219898   3.056   1.697   3.448
 2623SOL     OW19899   2.669   0.605   3.327
 2623SOL    HW119900   2.622   0.602   3.416
 2623SOL    HW219901   2.618   0.550   3.261
 2624SOL     OW19902   2.853   0.410   3.104
 2624SOL    HW119903   2.776   0.444   3.158
 2624SOL    HW219904   2.819   0.359   3.025
 2625SOL     OW19905   1.992   1.821   3.433
 2625SOL    HW119906   1.982   1.806   3.532
 2625SOL    HW219907   1.906   1.857   3.397
 2626SOL     OW19908   3.581   0.585   3.693
 2626SOL    HW119909   3.555   0.674   3.657
 2626SOL    HW219910   3.579   0.517   3.620
 2627SOL     OW19911   3.224   1.144   2.407
 2627SOL    HW119912   3.307   1.115   2.359
 2627SOL    HW219913   3.175   1.211   2.351
 2628SOL     OW19914   3.089   1.550   3.368
 2628SOL    HW119915   3.095   1.473   3.432
 2628SOL    HW219916   3.037   1.524   3.288
 2629SOL     OW19917   3.320   0.735   2.590
 2629SOL    HW119918   3.315   0.670   2.665
 2629SOL    HW219919   3.400   0.794   2.603
 2630SOL     OW19920   2.973   1.776   2.099
 2630SOL    HW119921   2.913   1.714   2.149
 2630SOL    HW219922   3.004   1.732   2.014
 2631SOL     OW19923   3.494   1.377   1.943
 2631SOL    HW119924   3.462   1.471   1.933
 2631SOL    HW219925   3.418   1.314   1.931
 2632SOL     OW19926   2.111   1.785   3.103
 2632SOL    HW119927   2.168   1.720   3.153
 2632SOL    HW219928   2.095   1.752   3.010
 2633SOL     OW19929   3.409   0.222   3.591
 2633SOL    HW119930   3.404   0.259   3.683
 2633SOL    HW219931   3.337   0.153   3.579
 2634SOL     OW19932   2.665   1.402   2.786
 2634SOL    HW119933   2.755   1.416   2.744
 2634SOL    HW219934   2.594   1.404   2.715
 2635SOL     OW19935   2.784   0.503   2.761
 2635SOL    HW119936   2.759   0.494   2.665
 2635SOL    HW219937   2.832   0.421   2.792
 2636SOL     OW19938   3.296   1.188   1.903
 2636SOL    HW119939   3.328   1.112   1.960
 2636SOL    HW219940   3.204   1.215   1.933
 2637SOL     OW19941   2.938   0.683   3.326
 2637SOL    HW119942   2.858   0.622   3.329
 2637SOL    HW219943   3.019   0.630   3.302
 2638SOL     OW19944   3.133   1.797   2.453
 2638SOL    HW119945   3.177   1.861   2.389
 2638SOL    HW219946   3.083   1.849   2.523
 2639SOL     OW19947   2.894   0.549   1.878
 2639SOL    HW119948   2.853   0.631   1.839
 2639SOL    HW219949   2.958   0.575   1.951
 2640SOL     OW19950   2.423   0.222   3.009
 2640SOL    HW119951   2.461   0.138   3.046
 2640SOL    HW219952   2.335   0.241   3.053
 2641SOL     OW19953   2.389   0.256   2.190
 2641SOL    HW119954   2.416   0.197   2.115
 2641SOL    HW219955   2.389   0.351   2.159
 2642SOL     OW19956   3.500   1.099   2.941
 2642SOL    HW119957   3.505   1.180   3.000
 2642SOL    HW219958   3.414   1.101   2.890
 2643SOL     OW19959   2.842   1.116   3.581
 2643SOL    HW119960   2.743   1.122   3.591
 2643SOL    HW219961   2.865   1.036   3.525
 2644SOL     OW19962   2.567   1.050   2.230
 2644SOL    HW119963   2.553   1.057   2.329
 2644SOL    HW219964   2.651   0.999   2.212
 2645SOL     OW19965   2.272   0.813   3.113
 2645SOL    HW119966   2.358   0.825   3.163
 2645SOL    HW219967   2.230   0.726   3.140
 2646SOL     OW19968   2.229   1.100   2.363
 2646SOL    HW119969   2.222   1.183   2.307
 2646SOL    HW219970   2.233   1.020   2.303
 2647SOL     OW19971   3.114   1.348   2.250
 2647SOL    HW119972   3.164   1.425   2.290
 2647SOL    HW219973   3.019   1.350   2.282
 2648SOL     OW19974   2.875   0.105   3.632
 2648SOL    HW119975   2.881   0.190   3.580
 2648SOL    HW219976   2.907   0.029   3.575
 2649SOL     OW19977   3.071   0.525   2.137
 2649SOL    HW119978   3.084   0.441   2.191
 2649SOL    HW219979   3.042   0.599   2.197
 2650SOL     OW19980   3.721   1.518   3.467
 2650SOL    HW119981   3.735   1.545   3.372
 2650SOL    HW219982   3.804   1.540   3.520
 2651SOL     OW19983   3.165   0.838   1.904
 2651SOL    HW119984   3.199   0.745   1.919
 2651SOL    HW219985   3.183   0.865   1.809
 2652SOL     OW19986   2.930   1.333   2.711
 2652SOL    HW119987   2.937   1.249   2.656
 2652SOL    HW219988   2.992   1.402   2.675
 2653SOL     OW19989   3.519   0.604   3.068
 2653SOL    HW119990   3.481   0.535   3.130
 2653SOL    HW219991   3.601   0.568   3.024
 2654SOL     OW19992   2.533   0.464   3.131
 2654SOL    HW119993   2.499   0.375   3.101
 2654SOL    HW219994   2.559   0.518   3.051
 2655SOL     OW19995   3.209   1.059   3.096
 2655SOL    HW119996   3.233   0.996   3.022
 2655SOL    HW219997   3.119   1.099   3.078
 2656SOL     OW19998   3.164   0.855   2.171
 2656SOL    HW119999   3.078   0.824   2.213
 2656SOL    HW220000   3.160   0.841   2.072
 2657SOL     OW20001   3.114   1.731   2.990
 2657SOL    HW120002   3.198   1.736   2.936
 2657SOL    HW220003   3.091   1.635   3.008
 2658SOL     OW20004   2.550   1.662   3.578
 2658SOL    HW120005   2.494   1.743   3.587
 2658SOL    HW220006   2.602   1.666   3.492
 2659SOL     OW20007   3.142   0.927   2.534
 2659SOL    HW120008   3.202   0.846   2.536
 2659SOL    HW220009   3.182   0.996   2.474
 2660SOL     OW20010   2.125   0.326   2.582
 2660SOL    HW120011   2.046   0.377   2.548
 2660SOL    HW220012   2.116   0.311   2.680
 2661SOL     OW20013   3.056   1.612   1.893
 2661SOL    HW120014   3.062   1.519   1.930
 2661SOL    HW220015   2.997   1.612   1.813
 2662SOL     OW20016   2.778   0.910   2.153
 2662SOL    HW120017   2.841   0.948   2.085
 2662SOL    HW220018   2.818   0.827   2.192
 2663SOL     OW20019   3.366   1.607   1.906
 2663SOL    HW120020   3.274   1.644   1.913
 2663SOL    HW220021   3.404   1.627   1.816
 2664SOL     OW20022   2.901   1.098   2.558
 2664SOL    HW120023   2.831   1.051   2.612
 2664SOL    HW220024   2.960   1.030   2.515
 2665SOL     OW20025   2.117   1.348   2.152
 2665SOL    HW120026   2.021   1.349   2.125
 2665SOL    HW220027   2.129   1.401   2.236
 2666SOL     OW20028   1.967   1.013   3.588
 2666SOL    HW120029   1.890   0.980   3.642
 2666SOL    HW220030   2.052   0.983   3.630
 2667SOL     OW20031   1.937   0.345   1.895
 2667SOL    HW120032   1.845   0.317   1.866
 2667SOL    HW220033   1.968   0.422   1.839
 2668SOL     OW20034   3.045   1.335   1.981
 2668SOL    HW120035   2.946   1.324   1.983
 2668SOL    HW220036   3.079   1.350   2.074
 2669SOL     OW20037   2.475   0.842   3.293
 2669SOL    HW120038   2.531   0.923   3.276
 2669SOL    HW220039   2.534   0.762   3.296
 2670SOL     OW20040   2.578   0.565   3.570
 2670SOL    HW120041   2.597   0.630   3.644
 2670SOL    HW220042   2.638   0.485   3.579
 2671SOL     OW20043   3.536   0.883   3.116
 2671SOL    HW120044   3.509   0.794   3.079
 2671SOL    HW220045   3.537   0.951   3.043
 2672SOL     OW20046   2.456   0.745   2.514
 2672SOL    HW120047   2.506   0.830   2.495
 2672SOL    HW220048   2.368   0.747   2.466
 2673SOL     OW20049   2.721   1.374   1.878
 2673SOL    HW120050   2.675   1.389   1.966
 2673SOL    HW220051   2.765   1.459   1.848
 2674SOL     OW20052   2.523   1.790   2.815
 2674SOL    HW120053   2.477   1.878   2.802
 2674SOL    HW220054   2.622   1.802   2.808
 2675SOL     OW20055   2.945   0.984   1.949
 2675SOL    HW120056   2.922   1.037   1.867
 2675SOL    HW220057   3.026   0.928   1.930
 2676SOL     OW20058   2.534   1.391   3.486
 2676SOL    HW120059   2.456   1.341   3.524
 2676SOL    HW220060   2.531   1.486   3.517
 2677SOL     OW20061   2.290   0.424   2.382
 2677SOL    HW120062   2.320   0.352   2.320
 2677SOL    HW220063   2.251   0.384   2.465
 2678SOL     OW20064   3.567   1.487   2.966
 2678SOL    HW120065   3.474   1.462   2.939
 2678SOL    HW220066   3.593   1.437   3.048
 2679SOL     OW20067   2.674   1.586   2.549
 2679SOL    HW120068   2.706   1.596   2.455
 2679SOL    HW220069   2.595   1.524   2.551
 2680SOL     OW20070   2.632   1.330   2.163
 2680SOL    HW120071   2.586   1.243   2.180
 2680SOL    HW220072   2.723   1.327   2.204
 2681SOL     OW20073   3.214   0.052   2.030
 2681SOL    HW120074   3.249   0.011   1.946
 2681SOL    HW220075   3.124   0.014   2.050
 2682SOL     OW20076   2.087   0.275   4.720
 2682SOL    HW120077   2.122   0.258   4.812
 2682SOL    HW220078   1.999   0.230   4.708
 2683SOL     OW20079   3.417   1.511   4.427
 2683SOL    HW120080   3.360   1.495   4.508
 2683SOL    HW220081   3.358   1.521   4.347
 2684SOL     OW20082   3.617   0.607   3.955
 2684SOL    HW120083   3.605   0.594   3.856
 2684SOL    HW220084   3.587   0.526   4.004
 2685SOL     OW20085   2.197   1.435   4.785
 2685SOL    HW120086   2.119   1.404   4.732
 2685SOL    HW220087   2.255   1.493   4.728
 2686SOL     OW20088   2.300   0.392   5.223
 2686SOL    HW120089   2.382   0.336   5.232
 2686SOL    HW220090   2.219   0.334   5.227
 2687SOL     OW20091   2.989   1.341   5.414
 2687SOL    HW120092   3.036   1.341   5.502
 2687SOL    HW220093   2.941   1.254   5.403
 2688SOL     OW20094   2.092   1.434   4.262
 2688SOL    HW120095   2.066   1.530   4.262
 2688SOL    HW220096   2.021   1.380   4.307
 2689SOL     OW20097   2.102   1.091   4.610
 2689SOL    HW120098   2.116   1.007   4.662
 2689SOL    HW220099   2.047   1.155   4.665
 2690SOL     OW20100   3.503   1.108   4.156
 2690SOL    HW120101   3.589   1.110   4.104
 2690SOL    HW220102   3.517   1.155   4.244
 2691SOL     OW20103   1.975   0.737   5.321
 2691SOL    HW120104   2.063   0.724   5.366
 2691SOL    HW220105   1.962   0.834   5.299
 2692SOL     OW20106   2.179   0.251   5.525
 2692SOL    HW120107   2.250   0.322   5.531
 2692SOL    HW220108   2.091   0.290   5.553
 2693SOL     OW20109   3.143   0.345   4.668
 2693SOL    HW120110   3.057   0.295   4.655
 2693SOL    HW220111   3.205   0.291   4.724
 2694SOL     OW20112   3.256   0.469   5.398
 2694SOL    HW120113   3.236   0.512   5.486
 2694SOL    HW220114   3.334   0.407   5.407
 2695SOL     OW20115   2.853   0.410   4.966
 2695SOL    HW120116   2.776   0.444   5.020
 2695SOL    HW220117   2.819   0.359   4.887
 2696SOL     OW20118   2.903   0.701   4.153
 2696SOL    HW120119   2.929   0.697   4.249
 2696SOL    HW220120   2.818   0.650   4.139
 2697SOL     OW20121   2.727   0.348   3.919
 2697SOL    HW120122   2.786   0.411   3.870
 2697SOL    HW220123   2.746   0.254   3.890
 2698SOL     OW20124   2.213   1.801   4.577
 2698SOL    HW120125   2.263   1.715   4.583
 2698SOL    HW220126   2.278   1.878   4.574
 2699SOL     OW20127   3.657   1.066   4.597
 2699SOL    HW120128   3.595   1.051   4.521
 2699SOL    HW220129   3.605   1.077   4.682
 2700SOL     OW20130   2.183   0.943   3.966
 2700SOL    HW120131   2.265   0.982   3.924
 2700SOL    HW220132   2.156   0.861   3.917
 2701SOL     OW20133   2.323   1.266   5.451
 2701SOL    HW120134   2.273   1.267   5.365
 2701SOL    HW220135   2.260   1.248   5.527
 2702SOL     OW20136   2.326   1.743   4.047
 2702SOL    HW120137   2.359   1.782   4.133
 2702SOL    HW220138   2.402   1.736   3.982
 2703SOL     OW20139   3.409   0.222   5.453
 2703SOL    HW120140   3.404   0.259   5.545
 2703SOL    HW220141   3.337   0.153   5.441
 2704SOL     OW20142   2.643   0.264   5.473
 2704SOL    HW120143   2.710   0.203   5.516
 2704SOL    HW220144   2.570   0.283   5.538
 2705SOL     OW20145   3.213   0.590   5.157
 2705SOL    HW120146   3.241   0.547   5.242
 2705SOL    HW220147   3.238   0.686   5.158
 2706SOL     OW20148   2.665   1.402   4.648
 2706SOL    HW120149   2.755   1.416   4.606
 2706SOL    HW220150   2.594   1.404   4.577
 2707SOL     OW20151   2.423   0.222   4.871
 2707SOL    HW120152   2.461   0.138   4.908
 2707SOL    HW220153   2.335   0.241   4.915
 2708SOL     OW20154   2.879   0.039   4.477
 2708SOL    HW120155   2.807   0.044   4.408
 2708SOL    HW220156   2.855  -0.030   4.546
 2709SOL     OW20157   3.719   0.833   4.101
 2709SOL    HW120158   3.761   0.769   4.165
 2709SOL    HW220159   3.681   0.782   4.023
 2710SOL     OW20160   3.526   1.280   4.381
 2710SOL    HW120161   3.625   1.288   4.395
 2710SOL    HW220162   3.481   1.364   4.412
 2711SOL     OW20163   3.252   0.575   3.802
 2711SOL    HW120164   3.198   0.554   3.883
 2711SOL    HW220165   3.343   0.534   3.811
 2712SOL     OW20166   3.616   1.223   5.312
 2712SOL    HW120167   3.707   1.184   5.299
 2712SOL    HW220168   3.624   1.319   5.336
 2713SOL     OW20169   3.454   1.629   5.349
 2713SOL    HW120170   3.481   1.663   5.259
 2713SOL    HW220171   3.533   1.591   5.395
 2714SOL     OW20172   2.272   0.813   4.975
 2714SOL    HW120173   2.358   0.825   5.025
 2714SOL    HW220174   2.230   0.726   5.002
 2715SOL     OW20175   3.136   0.386   4.986
 2715SOL    HW120176   3.157   0.460   5.050
 2715SOL    HW220177   3.047   0.403   4.943
 2716SOL     OW20178   1.926   1.564   5.055
 2716SOL    HW120179   1.880   1.646   5.021
 2716SOL    HW220180   2.024   1.583   5.064
 2717SOL     OW20181   2.428   0.537   4.589
 2717SOL    HW120182   2.440   0.603   4.515
 2717SOL    HW220183   2.474   0.571   4.672
 2718SOL     OW20184   3.114   1.348   4.112
 2718SOL    HW120185   3.164   1.425   4.152
 2718SOL    HW220186   3.019   1.350   4.144
 2719SOL     OW20187   3.449   0.779   5.394
 2719SOL    HW120188   3.357   0.817   5.389
 2719SOL    HW220189   3.509   0.826   5.329
 2720SOL     OW20190   2.875   0.105   5.494
 2720SOL    HW120191   2.881   0.190   5.442
 2720SOL    HW220192   2.907   0.029   5.437
 2721SOL     OW20193   2.366   0.050   5.464
 2721SOL    HW120194   2.324  -0.007   5.394
 2721SOL    HW220195   2.300   0.119   5.496
 2722SOL     OW20196   2.435   0.870   4.753
 2722SOL    HW120197   2.479   0.959   4.744
 2722SOL    HW220198   2.372   0.870   4.830
 2723SOL     OW20199   2.169   0.213   4.955
 2723SOL    HW120200   2.146   0.250   5.045
 2723SOL    HW220201   2.139   0.118   4.949
 2724SOL     OW20202   1.899   1.310   5.006
 2724SOL    HW120203   1.952   1.261   5.074
 2724SOL    HW220204   1.921   1.408   5.011
 2725SOL     OW20205   3.590   0.935   5.578
 2725SOL    HW120206   3.544   0.928   5.489
 2725SOL    HW220207   3.528   0.979   5.644
 2726SOL     OW20208   2.169   0.063   4.342
 2726SOL    HW120209   2.158   0.157   4.375
 2726SOL    HW220210   2.164   0.000   4.419
 2727SOL     OW20211   2.930   1.333   4.573
 2727SOL    HW120212   2.937   1.249   4.518
 2727SOL    HW220213   2.992   1.402   4.537
 2728SOL     OW20214   3.000   0.380   5.402
 2728SOL    HW120215   2.955   0.443   5.466
 2728SOL    HW220216   3.093   0.411   5.385
 2729SOL     OW20217   2.366   1.568   4.634
 2729SOL    HW120218   2.432   1.642   4.643
 2729SOL    HW220219   2.410   1.489   4.592
 2730SOL     OW20220   2.051   0.520   5.446
 2730SOL    HW120221   2.110   0.480   5.376
 2730SOL    HW220222   1.993   0.591   5.405
 2731SOL     OW20223   2.114   1.564   5.468
 2731SOL    HW120224   2.084   1.621   5.544
 2731SOL    HW220225   2.107   1.467   5.494
 2732SOL     OW20226   2.533   0.464   4.993
 2732SOL    HW120227   2.499   0.375   4.963
 2732SOL    HW220228   2.559   0.518   4.913
 2733SOL     OW20229   2.021   1.137   5.190
 2733SOL    HW120230   2.043   1.076   5.266
 2733SOL    HW220231   2.031   1.088   5.104
 2734SOL     OW20232   3.621   1.747   4.878
 2734SOL    HW120233   3.682   1.777   4.805
 2734SOL    HW220234   3.583   1.658   4.856
 2735SOL     OW20235   2.550   1.662   5.440
 2735SOL    HW120236   2.494   1.743   5.449
 2735SOL    HW220237   2.602   1.666   5.354
 2736SOL     OW20238   3.142   0.927   4.396
 2736SOL    HW120239   3.202   0.846   4.398
 2736SOL    HW220240   3.182   0.996   4.336
 2737SOL     OW20241   2.534   1.616   3.878
 2737SOL    HW120242   2.543   1.626   3.779
 2737SOL    HW220243   2.494   1.527   3.899
 2738SOL     OW20244   3.476   1.292   5.013
 2738SOL    HW120245   3.536   1.295   5.093
 2738SOL    HW220246   3.401   1.356   5.026
 2739SOL     OW20247   2.901   1.098   4.420
 2739SOL    HW120248   2.831   1.051   4.474
 2739SOL    HW220249   2.960   1.030   4.377
 2740SOL     OW20250   3.045   1.335   3.843
 2740SOL    HW120251   2.946   1.324   3.845
 2740SOL    HW220252   3.079   1.350   3.936
 2741SOL     OW20253   2.578   0.565   5.432
 2741SOL    HW120254   2.597   0.630   5.506
 2741SOL    HW220255   2.638   0.485   5.441
 2742SOL     OW20256   3.087   0.325   4.173
 2742SOL    HW120257   3.152   0.251   4.162
 2742SOL    HW220258   3.107   0.375   4.257
 2743SOL     OW20259   3.592   0.934   5.241
 2743SOL    HW120260   3.630   1.025   5.256
 2743SOL    HW220261   3.584   0.917   5.142
 2744SOL     OW20262   2.721   0.956   4.585
 2744SOL    HW120263   2.775   0.887   4.633
 2744SOL    HW220264   2.689   1.025   4.651
 2745SOL     OW20265   2.945   0.984   3.811
 2745SOL    HW120266   2.922   1.037   3.729
 2745SOL    HW220267   3.026   0.928   3.792
 2746SOL     OW20268   3.723   1.569   4.575
 2746SOL    HW120269   3.652   1.557   4.505
 2746SOL    HW220270   3.724   1.490   4.635
 2747SOL     OW20271   2.534   1.391   5.348
 2747SOL    HW120272   2.456   1.341   5.386
 2747SOL    HW220273   2.531   1.486   5.379
 2748SOL     OW20274   2.863   0.034   4.878
 2748SOL    HW120275   2.800  -0.038   4.847
 2748SOL    HW220276   2.956  -0.002   4.878
 2749SOL     OW20277   3.214   0.052   3.892
 2749SOL    HW120278   3.249   0.011   3.808
 2749SOL    HW220279   3.124   0.014   3.912
 2750SOL     OW20280   2.092   0.628   5.699
 2750SOL    HW120281   1.999   0.626   5.736
 2750SOL    HW220282   2.093   0.589   5.607
 2751SOL     OW20283   2.087   0.275   6.582
 2751SOL    HW120284   2.122   0.258   6.674
 2751SOL    HW220285   1.999   0.230   6.570
 2752SOL     OW20286   1.881   0.368   6.233
 2752SOL    HW120287   1.799   0.411   6.272
 2752SOL    HW220288   1.853   0.295   6.170
 2753SOL     OW20289   2.431   1.275   6.751
 2753SOL    HW120290   2.338   1.268   6.714
 2753SOL    HW220291   2.442   1.364   6.795
 2754SOL     OW20292   3.417   1.511   6.289
 2754SOL    HW120293   3.360   1.495   6.370
 2754SOL    HW220294   3.358   1.521   6.209
 2755SOL     OW20295   2.997   0.703   6.303
 2755SOL    HW120296   3.054   0.781   6.278
 2755SOL    HW220297   2.937   0.729   6.379
 2756SOL     OW20298   3.617   0.607   5.817
 2756SOL    HW120299   3.605   0.594   5.718
 2756SOL    HW220300   3.587   0.526   5.866
 2757SOL     OW20301   2.630   1.144   6.609
 2757SOL    HW120302   2.552   1.161   6.669
 2757SOL    HW220303   2.664   1.231   6.573
 2758SOL     OW20304   2.547   1.012   6.251
 2758SOL    HW120305   2.616   0.996   6.321
 2758SOL    HW220306   2.474   1.069   6.289
 2759SOL     OW20307   2.197   1.435   6.647
 2759SOL    HW120308   2.119   1.404   6.594
 2759SOL    HW220309   2.255   1.493   6.590
 2760SOL     OW20310   2.300   0.392   7.085
 2760SOL    HW120311   2.382   0.336   7.094
 2760SOL    HW220312   2.219   0.334   7.089
 2761SOL     OW20313   3.465   0.447   6.323
 2761SOL    HW120314   3.391   0.493   6.273
 2761SOL    HW220315   3.516   0.515   6.376
 2762SOL     OW20316   2.093   1.713   6.069
 2762SOL    HW120317   2.127   1.790   6.123
 2762SOL    HW220318   2.137   1.713   5.979
 2763SOL     OW20319   2.092   1.434   6.124
 2763SOL    HW120320   2.066   1.530   6.124
 2763SOL    HW220321   2.021   1.380   6.169
 2764SOL     OW20322   2.102   1.091   6.472
 2764SOL    HW120323   2.116   1.007   6.524
 2764SOL    HW220324   2.047   1.155   6.527
 2765SOL     OW20325   2.482   1.786   7.025
 2765SOL    HW120326   2.390   1.769   7.060
 2765SOL    HW220327   2.510   1.878   7.051
 2766SOL     OW20328   1.984   0.643   6.149
 2766SOL    HW120329   1.939   0.555   6.166
 2766SOL    HW220330   1.983   0.697   6.233
 2767SOL     OW20331   3.704   1.767   5.945
 2767SOL    HW120332   3.758   1.738   6.025
 2767SOL    HW220333   3.734   1.857   5.916
 2768SOL     OW20334   1.889   1.596   5.703
 2768SOL    HW120335   1.870   1.500   5.724
 2768SOL    HW220336   1.856   1.654   5.778
 2769SOL     OW20337   3.551   0.922   6.198
 2769SOL    HW120338   3.646   0.893   6.206
 2769SOL    HW220339   3.543   0.987   6.123
 2770SOL     OW20340   3.503   1.108   6.018
 2770SOL    HW120341   3.589   1.110   5.966
 2770SOL    HW220342   3.517   1.155   6.106
 2771SOL     OW20343   2.475   1.365   6.312
 2771SOL    HW120344   2.426   1.278   6.321
 2771SOL    HW220345   2.452   1.408   6.225
 2772SOL     OW20346   2.671   0.004   6.088
 2772SOL    HW120347   2.711   0.095   6.079
 2772SOL    HW220348   2.571   0.012   6.094
 2773SOL     OW20349   2.059   0.976   6.850
 2773SOL    HW120350   2.148   0.931   6.836
 2773SOL    HW220351   1.986   0.911   6.831
 2774SOL     OW20352   3.328   1.417   6.539
 2774SOL    HW120353   3.269   1.423   6.619
 2774SOL    HW220354   3.313   1.329   6.493
 2775SOL     OW20355   3.529   1.714   6.158
 2775SOL    HW120356   3.488   1.691   6.070
 2775SOL    HW220357   3.511   1.640   6.223
 2776SOL     OW20358   2.460   0.729   5.856
 2776SOL    HW120359   2.484   0.798   5.788
 2776SOL    HW220360   2.382   0.762   5.910
 2777SOL     OW20361   3.143   0.345   6.530
 2777SOL    HW120362   3.057   0.295   6.517
 2777SOL    HW220363   3.205   0.291   6.586
 2778SOL     OW20364   3.438   1.662   5.893
 2778SOL    HW120365   3.527   1.708   5.896
 2778SOL    HW220366   3.417   1.638   5.798
 2779SOL     OW20367   2.669   0.605   7.051
 2779SOL    HW120368   2.622   0.602   7.140
 2779SOL    HW220369   2.618   0.550   6.985
 2780SOL     OW20370   2.853   0.410   6.828
 2780SOL    HW120371   2.776   0.444   6.882
 2780SOL    HW220372   2.819   0.359   6.749
 2781SOL     OW20373   2.903   0.701   6.015
 2781SOL    HW120374   2.929   0.697   6.111
 2781SOL    HW220375   2.818   0.650   6.001
 2782SOL     OW20376   1.938   0.811   6.375
 2782SOL    HW120377   2.037   0.799   6.384
 2782SOL    HW220378   1.914   0.906   6.396
 2783SOL     OW20379   1.992   1.821   7.157
 2783SOL    HW120380   1.982   1.806   7.256
 2783SOL    HW220381   1.906   1.857   7.121
 2784SOL     OW20382   2.727   0.348   5.781
 2784SOL    HW120383   2.786   0.411   5.732
 2784SOL    HW220384   2.746   0.254   5.752
 2785SOL     OW20385   3.224   1.144   6.131
 2785SOL    HW120386   3.307   1.115   6.083
 2785SOL    HW220387   3.175   1.211   6.075
 2786SOL     OW20388   2.412   0.196   6.471
 2786SOL    HW120389   2.407   0.191   6.571
 2786SOL    HW220390   2.414   0.292   6.442
 2787SOL     OW20391   2.870   1.456   6.063
 2787SOL    HW120392   2.824   1.528   6.011
 2787SOL    HW220393   2.866   1.476   6.161
 2788SOL     OW20394   2.213   1.801   6.439
 2788SOL    HW120395   2.263   1.715   6.445
 2788SOL    HW220396   2.278   1.878   6.436
 2789SOL     OW20397   3.657   1.066   6.459
 2789SOL    HW120398   3.595   1.051   6.383
 2789SOL    HW220399   3.605   1.077   6.544
 2790SOL     OW20400   2.183   0.943   5.828
 2790SOL    HW120401   2.265   0.982   5.786
 2790SOL    HW220402   2.156   0.861   5.779
 2791SOL     OW20403   3.320   0.735   6.314
 2791SOL    HW120404   3.315   0.670   6.389
 2791SOL    HW220405   3.400   0.794   6.327
 2792SOL     OW20406   2.326   1.743   5.909
 2792SOL    HW120407   2.359   1.782   5.995
 2792SOL    HW220408   2.402   1.736   5.844
 2793SOL     OW20409   3.262   0.107   6.012
 2793SOL    HW120410   3.238   0.070   5.922
 2793SOL    HW220411   3.361   0.123   6.016
 2794SOL     OW20412   2.111   1.785   6.827
 2794SOL    HW120413   2.168   1.720   6.877
 2794SOL    HW220414   2.095   1.752   6.734
 2795SOL     OW20415   2.802   1.698   6.490
 2795SOL    HW120416   2.882   1.641   6.511
 2795SOL    HW220417   2.753   1.658   6.413
 2796SOL     OW20418   2.244   0.700   6.066
 2796SOL    HW120419   2.289   0.610   6.063
 2796SOL    HW220420   2.150   0.689   6.099
 2797SOL     OW20421   2.476   0.122   5.703
 2797SOL    HW120422   2.574   0.100   5.710
 2797SOL    HW220423   2.445   0.105   5.610
 2798SOL     OW20424   2.750   1.514   6.781
 2798SOL    HW120425   2.727   1.489   6.687
 2798SOL    HW220426   2.811   1.445   6.820
 2799SOL     OW20427   2.665   1.402   6.510
 2799SOL    HW120428   2.755   1.416   6.468
 2799SOL    HW220429   2.594   1.404   6.439
 2800SOL     OW20430   2.784   0.503   6.485
 2800SOL    HW120431   2.759   0.494   6.389
 2800SOL    HW220432   2.832   0.421   6.516
 2801SOL     OW20433   2.401   0.064   6.098
 2801SOL    HW120434   2.320   0.065   6.156
 2801SOL    HW220435   2.404   0.147   6.043
 2802SOL     OW20436   2.159   0.035   5.757
 2802SOL    HW120437   2.208   0.119   5.736
 2802SOL    HW220438   2.221  -0.030   5.802
 2803SOL     OW20439   2.797   0.236   6.066
 2803SOL    HW120440   2.749   0.277   5.988
 2803SOL    HW220441   2.896   0.234   6.047
 2804SOL     OW20442   3.089   1.570   6.379
 2804SOL    HW120443   3.110   1.644   6.314
 2804SOL    HW220444   3.157   1.570   6.452
 2805SOL     OW20445   2.321   1.152   6.327
 2805SOL    HW120446   2.250   1.125   6.392
 2805SOL    HW220447   2.295   1.124   6.234
 2806SOL     OW20448   2.423   0.222   6.733
 2806SOL    HW120449   2.461   0.138   6.770
 2806SOL    HW220450   2.335   0.241   6.777
 2807SOL     OW20451   2.728   0.454   6.228
 2807SOL    HW120452   2.696   0.526   6.166
 2807SOL    HW220453   2.752   0.373   6.175
 2808SOL     OW20454   2.879   0.039   6.339
 2808SOL    HW120455   2.807   0.044   6.270
 2808SOL    HW220456   2.855  -0.030   6.408
 2809SOL     OW20457   3.291   1.173   6.453
 2809SOL    HW120458   3.236   1.089   6.446
 2809SOL    HW220459   3.317   1.202   6.361
 2810SOL     OW20460   3.328   0.590   6.578
 2810SOL    HW120461   3.298   0.495   6.585
 2810SOL    HW220462   3.401   0.606   6.644
 2811SOL     OW20463   3.719   0.833   5.963
 2811SOL    HW120464   3.761   0.769   6.027
 2811SOL    HW220465   3.681   0.782   5.885
 2812SOL     OW20466   2.350   1.385   5.760
 2812SOL    HW120467   2.263   1.370   5.807
 2812SOL    HW220468   2.333   1.411   5.665
 2813SOL     OW20469   3.526   1.280   6.243
 2813SOL    HW120470   3.625   1.288   6.257
 2813SOL    HW220471   3.481   1.364   6.274
 2814SOL     OW20472   3.252   0.575   5.664
 2814SOL    HW120473   3.198   0.554   5.745
 2814SOL    HW220474   3.343   0.534   5.673
 2815SOL     OW20475   2.389   0.256   5.914
 2815SOL    HW120476   2.416   0.197   5.839
 2815SOL    HW220477   2.389   0.351   5.883
 2816SOL     OW20478   2.926   1.347   6.926
 2816SOL    HW120479   2.846   1.324   6.981
 2816SOL    HW220480   3.009   1.321   6.975
 2817SOL     OW20481   2.973   1.195   6.686
 2817SOL    HW120482   2.933   1.239   6.767
 2817SOL    HW220483   2.932   1.232   6.603
 2818SOL     OW20484   3.500   1.099   6.665
 2818SOL    HW120485   3.505   1.180   6.724
 2818SOL    HW220486   3.414   1.101   6.614
 2819SOL     OW20487   2.567   1.050   5.954
 2819SOL    HW120488   2.553   1.057   6.053
 2819SOL    HW220489   2.651   0.999   5.936
 2820SOL     OW20490   2.272   0.813   6.837
 2820SOL    HW120491   2.358   0.825   6.887
 2820SOL    HW220492   2.230   0.726   6.864
 2821SOL     OW20493   3.136   0.386   6.848
 2821SOL    HW120494   3.157   0.460   6.912
 2821SOL    HW220495   3.047   0.403   6.805
 2822SOL     OW20496   1.926   1.564   6.917
 2822SOL    HW120497   1.880   1.646   6.883
 2822SOL    HW220498   2.024   1.583   6.926
 2823SOL     OW20499   2.229   1.100   6.087
 2823SOL    HW120500   2.222   1.183   6.031
 2823SOL    HW220501   2.233   1.020   6.027
 2824SOL     OW20502   2.428   0.537   6.451
 2824SOL    HW120503   2.440   0.603   6.377
 2824SOL    HW220504   2.474   0.571   6.534
 2825SOL     OW20505   3.114   1.348   5.974
 2825SOL    HW120506   3.164   1.425   6.014
 2825SOL    HW220507   3.019   1.350   6.006
 2826SOL     OW20508   3.134   1.445   6.728
 2826SOL    HW120509   3.181   1.458   6.815
 2826SOL    HW220510   3.068   1.371   6.737
 2827SOL     OW20511   3.444   0.639   6.058
 2827SOL    HW120512   3.413   0.700   6.131
 2827SOL    HW220513   3.494   0.691   5.989
 2828SOL     OW20514   2.216   1.510   6.915
 2828SOL    HW120515   2.195   1.466   6.828
 2828SOL    HW220516   2.313   1.536   6.918
 2829SOL     OW20517   2.435   0.870   6.615
 2829SOL    HW120518   2.479   0.959   6.606
 2829SOL    HW220519   2.372   0.870   6.692
 2830SOL     OW20520   3.222   0.862   6.631
 2830SOL    HW120521   3.147   0.862   6.565
 2830SOL    HW220522   3.259   0.770   6.640
 2831SOL     OW20523   3.071   0.525   5.861
 2831SOL    HW120524   3.084   0.441   5.915
 2831SOL    HW220525   3.042   0.599   5.921
 2832SOL     OW20526   2.169   0.213   6.817
 2832SOL    HW120527   2.146   0.250   6.907
 2832SOL    HW220528   2.139   0.118   6.811
 2833SOL     OW20529   1.899   1.310   6.868
 2833SOL    HW120530   1.952   1.261   6.936
 2833SOL    HW220531   1.921   1.408   6.873
 2834SOL     OW20532   2.594   0.634   6.650
 2834SOL    HW120533   2.653   0.608   6.574
 2834SOL    HW220534   2.566   0.730   6.639
 2835SOL     OW20535   2.169   0.063   6.204
 2835SOL    HW120536   2.158   0.157   6.237
 2835SOL    HW220537   2.164   0.000   6.281
 2836SOL     OW20538   3.484   0.367   5.960
 2836SOL    HW120539   3.486   0.291   6.024
 2836SOL    HW220540   3.436   0.444   6.000
 2837SOL     OW20541   2.885   0.766   6.552
 2837SOL    HW120542   2.900   0.787   6.648
 2837SOL    HW220543   2.855   0.671   6.543
 2838SOL     OW20544   3.402   0.274   5.711
 2838SOL    HW120545   3.341   0.199   5.734
 2838SOL    HW220546   3.424   0.326   5.794
 2839SOL     OW20547   2.930   1.333   6.435
 2839SOL    HW120548   2.937   1.249   6.380
 2839SOL    HW220549   2.992   1.402   6.399
 2840SOL     OW20550   2.181   0.810   6.535
 2840SOL    HW120551   2.274   0.846   6.540
 2840SOL    HW220552   2.175   0.725   6.587
 2841SOL     OW20553   2.201   0.509   6.592
 2841SOL    HW120554   2.149   0.426   6.575
 2841SOL    HW220555   2.278   0.514   6.528
 2842SOL     OW20556   3.022   0.207   7.063
 2842SOL    HW120557   3.022   0.271   7.140
 2842SOL    HW220558   3.050   0.255   6.980
 2843SOL     OW20559   1.870   1.326   5.786
 2843SOL    HW120560   1.777   1.347   5.755
 2843SOL    HW220561   1.880   1.227   5.799
 2844SOL     OW20562   1.950   1.801   6.513
 2844SOL    HW120563   1.908   1.715   6.486
 2844SOL    HW220564   2.044   1.804   6.479
 2845SOL     OW20565   2.366   1.568   6.496
 2845SOL    HW120566   2.432   1.642   6.505
 2845SOL    HW220567   2.410   1.489   6.454
 2846SOL     OW20568   2.864   0.796   6.824
 2846SOL    HW120569   2.905   0.764   6.910
 2846SOL    HW220570   2.768   0.769   6.821
 2847SOL     OW20571   1.902   0.544   6.700
 2847SOL    HW120572   1.987   0.511   6.659
 2847SOL    HW220573   1.915   0.559   6.798
 2848SOL     OW20574   2.677   0.572   5.911
 2848SOL    HW120575   2.684   0.483   5.865
 2848SOL    HW220576   2.583   0.606   5.903
 2849SOL     OW20577   3.519   0.604   6.792
 2849SOL    HW120578   3.481   0.535   6.854
 2849SOL    HW220579   3.601   0.568   6.748
 2850SOL     OW20580   2.533   0.464   6.855
 2850SOL    HW120581   2.499   0.375   6.825
 2850SOL    HW220582   2.559   0.518   6.775
 2851SOL     OW20583   2.792   1.678   7.051
 2851SOL    HW120584   2.768   1.660   6.956
 2851SOL    HW220585   2.822   1.772   7.061
 2852SOL     OW20586   2.335   0.500   5.777
 2852SOL    HW120587   2.396   0.580   5.781
 2852SOL    HW220588   2.240   0.531   5.784
 2853SOL     OW20589   2.021   1.137   7.052
 2853SOL    HW120590   2.043   1.076   7.128
 2853SOL    HW220591   2.031   1.088   6.966
 2854SOL     OW20592   3.209   1.059   6.820
 2854SOL    HW120593   3.233   0.996   6.746
 2854SOL    HW220594   3.119   1.099   6.802
 2855SOL     OW20595   3.164   0.855   5.895
 2855SOL    HW120596   3.078   0.824   5.937
 2855SOL    HW220597   3.160   0.841   5.796
 2856SOL     OW20598   3.621   1.747   6.740
 2856SOL    HW120599   3.682   1.777   6.667
 2856SOL    HW220600   3.583   1.658   6.718
 2857SOL     OW20601   3.114   1.731   6.714
 2857SOL    HW120602   3.198   1.736   6.660
 2857SOL    HW220603   3.091   1.635   6.732
 2858SOL     OW20604   1.945   1.258   6.608
 2858SOL    HW120605   1.940   1.257   6.708
 2858SOL    HW220606   1.862   1.217   6.570
 2859SOL     OW20607   3.588   0.135   6.109
 2859SOL    HW120608   3.661   0.118   6.042
 2859SOL    HW220609   3.557   0.048   6.147
 2860SOL     OW20610   3.250   1.573   6.063
 2860SOL    HW120611   3.317   1.585   5.989
 2860SOL    HW220612   3.210   1.662   6.086
 2861SOL     OW20613   3.142   0.927   6.258
 2861SOL    HW120614   3.202   0.846   6.260
 2861SOL    HW220615   3.182   0.996   6.198
 2862SOL     OW20616   2.534   1.616   5.740
 2862SOL    HW120617   2.543   1.626   5.641
 2862SOL    HW220618   2.494   1.527   5.761
 2863SOL     OW20619   3.703   0.175   6.549
 2863SOL    HW120620   3.742   0.090   6.513
 2863SOL    HW220621   3.605   0.177   6.530
 2864SOL     OW20622   2.125   0.326   6.306
 2864SOL    HW120623   2.046   0.377   6.272
 2864SOL    HW220624   2.116   0.311   6.404
 2865SOL     OW20625   2.684   1.002   6.958
 2865SOL    HW120626   2.724   1.001   6.866
 2865SOL    HW220627   2.694   1.094   6.998
 2866SOL     OW20628   2.778   0.910   5.877
 2866SOL    HW120629   2.841   0.948   5.809
 2866SOL    HW220630   2.818   0.827   5.916
 2867SOL     OW20631   2.234   1.288   7.076
 2867SOL    HW120632   2.221   1.381   7.042
 2867SOL    HW220633   2.150   1.236   7.063
 2868SOL     OW20634   3.476   1.292   6.875
 2868SOL    HW120635   3.536   1.295   6.955
 2868SOL    HW220636   3.401   1.356   6.888
 2869SOL     OW20637   2.901   1.098   6.282
 2869SOL    HW120638   2.831   1.051   6.336
 2869SOL    HW220639   2.960   1.030   6.239
 2870SOL     OW20640   2.876   0.236   6.557
 2870SOL    HW120641   2.868   0.200   6.464
 2870SOL    HW220642   2.874   0.160   6.622
 2871SOL     OW20643   2.452   1.487   6.077
 2871SOL    HW120644   2.494   1.429   6.007
 2871SOL    HW220645   2.408   1.566   6.033
 2872SOL     OW20646   3.571   0.385   6.967
 2872SOL    HW120647   3.644   0.454   6.971
 2872SOL    HW220648   3.599   0.310   6.908
 2873SOL     OW20649   2.117   1.348   5.876
 2873SOL    HW120650   2.021   1.349   5.849
 2873SOL    HW220651   2.129   1.401   5.960
 2874SOL     OW20652   1.937   0.345   5.619
 2874SOL    HW120653   1.845   0.317   5.590
 2874SOL    HW220654   1.968   0.422   5.563
 2875SOL     OW20655   1.934   0.166   5.904
 2875SOL    HW120656   1.917   0.249   5.850
 2875SOL    HW220657   2.024   0.129   5.882
 2876SOL     OW20658   2.475   0.842   7.017
 2876SOL    HW120659   2.531   0.923   7.000
 2876SOL    HW220660   2.534   0.762   7.020
 2877SOL     OW20661   3.355   1.767   6.545
 2877SOL    HW120662   3.388   1.831   6.476
 2877SOL    HW220663   3.421   1.761   6.620
 2878SOL     OW20664   2.252   1.741   7.146
 2878SOL    HW120665   2.161   1.782   7.144
 2878SOL    HW220666   2.245   1.647   7.178
 2879SOL     OW20667   3.536   0.883   6.840
 2879SOL    HW120668   3.509   0.794   6.803
 2879SOL    HW220669   3.537   0.951   6.767
 2880SOL     OW20670   3.087   0.325   6.035
 2880SOL    HW120671   3.152   0.251   6.024
 2880SOL    HW220672   3.107   0.375   6.119
 2881SOL     OW20673   2.456   0.745   6.238
 2881SOL    HW120674   2.506   0.830   6.219
 2881SOL    HW220675   2.368   0.747   6.190
 2882SOL     OW20676   3.592   0.934   7.103
 2882SOL    HW120677   3.630   1.025   7.118
 2882SOL    HW220678   3.584   0.917   7.004
 2883SOL     OW20679   2.523   1.790   6.539
 2883SOL    HW120680   2.477   1.878   6.526
 2883SOL    HW220681   2.622   1.802   6.532
 2884SOL     OW20682   2.721   0.956   6.447
 2884SOL    HW120683   2.775   0.887   6.495
 2884SOL    HW220684   2.689   1.025   6.513
 2885SOL     OW20685   3.723   1.569   6.437
 2885SOL    HW120686   3.652   1.557   6.367
 2885SOL    HW220687   3.724   1.490   6.497
 2886SOL     OW20688   1.941   1.240   6.239
 2886SOL    HW120689   1.940   1.193   6.327
 2886SOL    HW220690   2.023   1.212   6.188
 2887SOL     OW20691   3.686   0.192   6.813
 2887SOL    HW120692   3.682   0.102   6.857
 2887SOL    HW220693   3.689   0.181   6.714
 2888SOL     OW20694   2.290   0.424   6.106
 2888SOL    HW120695   2.320   0.352   6.044
 2888SOL    HW220696   2.251   0.384   6.189
 2889SOL     OW20697   3.567   1.487   6.690
 2889SOL    HW120698   3.474   1.462   6.663
 2889SOL    HW220699   3.593   1.437   6.772
 2890SOL     OW20700   2.179   0.547   6.866
 2890SOL    HW120701   2.217   0.488   6.938
 2890SOL    HW220702   2.219   0.521   6.778
 2891SOL     OW20703   2.674   1.586   6.273
 2891SOL    HW120704   2.706   1.596   6.179
 2891SOL    HW220705   2.595   1.524   6.275
 2892SOL     OW20706   3.286   0.214   6.698
 2892SOL    HW120707   3.338   0.149   6.753
 2892SOL    HW220708   3.237   0.277   6.759
 2893SOL     OW20709   2.863   0.034   6.740
 2893SOL    HW120710   2.800  -0.038   6.709
 2893SOL    HW220711   2.956  -0.002   6.740
 2894SOL     OW20712   2.632   1.330   5.887
 2894SOL    HW120713   2.586   1.243   5.904
 2894SOL    HW220714   2.723   1.327   5.928
 2895SOL     OW20715   2.480   1.567   6.870
 2895SOL    HW120716   2.475   1.649   6.927
 2895SOL    HW220717   2.569   1.564   6.825
 2896SOL     OW20718   3.214   0.052   5.754
 2896SOL    HW120719   3.249   0.011   5.670
 2896SOL    HW220720   3.124   0.014   5.774
 2897SOL     OW20721   3.162   0.453   6.277
 2897SOL    HW120722   3.103   0.533   6.281
 2897SOL    HW220723   3.177   0.418   6.370
 2898SOL     OW20724   3.455   0.221   6.468
 2898SOL    HW120725   3.371   0.220   6.522
 2898SOL    HW220726   3.457   0.304   6.412
 2899SOL     OW20727   1.901   1.077   5.886
 2899SOL    HW120728   2.000   1.066   5.877
 2899SOL    HW220729   1.861   0.991   5.918
 2900SOL     OW20730   2.737   1.646   5.923
 2900SOL    HW120731   2.660   1.611   5.869
 2900SOL    HW220732   2.705   1.717   5.985
 2901SOL     OW20733   2.092   2.490   0.113
 2901SOL    HW120734   1.999   2.488   0.150
 2901SOL    HW220735   2.093   2.451   0.021
 2902SOL     OW20736   2.087   2.137   0.996
 2902SOL    HW120737   2.122   2.120   1.088
 2902SOL    HW220738   1.999   2.092   0.984
 2903SOL     OW20739   1.881   2.230   0.647
 2903SOL    HW120740   1.799   2.273   0.686
 2903SOL    HW220741   1.853   2.157   0.584
 2904SOL     OW20742   3.417   3.373   0.703
 2904SOL    HW120743   3.360   3.357   0.784
 2904SOL    HW220744   3.358   3.383   0.623
 2905SOL     OW20745   2.997   2.565   0.717
 2905SOL    HW120746   3.054   2.643   0.692
 2905SOL    HW220747   2.937   2.591   0.793
 2906SOL     OW20748   3.617   2.469   0.231
 2906SOL    HW120749   3.605   2.456   0.132
 2906SOL    HW220750   3.587   2.388   0.280
 2907SOL     OW20751   2.630   3.006   1.023
 2907SOL    HW120752   2.552   3.023   1.083
 2907SOL    HW220753   2.664   3.093   0.987
 2908SOL     OW20754   2.547   2.874   0.665
 2908SOL    HW120755   2.616   2.858   0.735
 2908SOL    HW220756   2.474   2.931   0.703
 2909SOL     OW20757   2.548   3.023   1.803
 2909SOL    HW120758   2.608   3.102   1.817
 2909SOL    HW220759   2.462   3.054   1.762
 2910SOL     OW20760   2.197   3.297   1.061
 2910SOL    HW120761   2.119   3.266   1.008
 2910SOL    HW220762   2.255   3.355   1.004
 2911SOL     OW20763   3.322   3.367   1.339
 2911SOL    HW120764   3.346   3.461   1.365
 2911SOL    HW220765   3.306   3.313   1.421
 2912SOL     OW20766   3.465   2.309   0.737
 2912SOL    HW120767   3.391   2.355   0.687
 2912SOL    HW220768   3.516   2.377   0.790
 2913SOL     OW20769   2.093   3.575   0.483
 2913SOL    HW120770   2.127   3.652   0.537
 2913SOL    HW220771   2.137   3.575   0.393
 2914SOL     OW20772   2.092   3.296   0.538
 2914SOL    HW120773   2.066   3.392   0.538
 2914SOL    HW220774   2.021   3.242   0.583
 2915SOL     OW20775   2.102   2.953   0.886
 2915SOL    HW120776   2.116   2.869   0.938
 2915SOL    HW220777   2.047   3.017   0.941
 2916SOL     OW20778   2.468   2.826   0.123
 2916SOL    HW120779   2.475   2.910   0.069
 2916SOL    HW220780   2.514   2.839   0.211
 2917SOL     OW20781   3.456   1.976   1.480
 2917SOL    HW120782   3.438   2.043   1.408
 2917SOL    HW220783   3.453   2.022   1.569
 2918SOL     OW20784   1.984   2.505   0.563
 2918SOL    HW120785   1.939   2.417   0.580
 2918SOL    HW220786   1.983   2.559   0.647
 2919SOL     OW20787   3.704   3.629   0.359
 2919SOL    HW120788   3.758   3.600   0.439
 2919SOL    HW220789   3.734   3.719   0.330
 2920SOL     OW20790   1.889   3.458   0.117
 2920SOL    HW120791   1.870   3.362   0.138
 2920SOL    HW220792   1.856   3.516   0.192
 2921SOL     OW20793   3.551   2.784   0.612
 2921SOL    HW120794   3.646   2.755   0.620
 2921SOL    HW220795   3.543   2.849   0.537
 2922SOL     OW20796   3.503   2.970   0.432
 2922SOL    HW120797   3.589   2.972   0.380
 2922SOL    HW220798   3.517   3.017   0.520
 2923SOL     OW20799   1.975   2.599   1.597
 2923SOL    HW120800   2.063   2.586   1.642
 2923SOL    HW220801   1.962   2.696   1.575
 2924SOL     OW20802   2.475   3.227   0.726
 2924SOL    HW120803   2.426   3.140   0.735
 2924SOL    HW220804   2.452   3.270   0.639
 2925SOL     OW20805   3.155   3.090   1.423
 2925SOL    HW120806   3.192   3.017   1.365
 2925SOL    HW220807   3.207   3.095   1.508
 2926SOL     OW20808   2.671   1.866   0.502
 2926SOL    HW120809   2.711   1.957   0.493
 2926SOL    HW220810   2.571   1.874   0.508
 2927SOL     OW20811   3.387   2.861   0.190
 2927SOL    HW120812   3.324   2.785   0.203
 2927SOL    HW220813   3.435   2.879   0.276
 2928SOL     OW20814   3.328   3.279   0.953
 2928SOL    HW120815   3.269   3.285   1.033
 2928SOL    HW220816   3.313   3.191   0.907
 2929SOL     OW20817   3.529   3.576   0.572
 2929SOL    HW120818   3.488   3.553   0.484
 2929SOL    HW220819   3.511   3.502   0.637
 2930SOL     OW20820   2.460   2.591   0.270
 2930SOL    HW120821   2.484   2.660   0.202
 2930SOL    HW220822   2.382   2.624   0.324
 2931SOL     OW20823   3.143   2.207   0.944
 2931SOL    HW120824   3.057   2.157   0.931
 2931SOL    HW220825   3.205   2.153   1.000
 2932SOL     OW20826   3.438   3.524   0.307
 2932SOL    HW120827   3.527   3.570   0.310
 2932SOL    HW220828   3.417   3.500   0.212
 2933SOL     OW20829   2.669   2.467   1.465
 2933SOL    HW120830   2.622   2.464   1.554
 2933SOL    HW220831   2.618   2.412   1.399
 2934SOL     OW20832   3.256   2.331   1.674
 2934SOL    HW120833   3.236   2.374   1.762
 2934SOL    HW220834   3.334   2.269   1.683
 2935SOL     OW20835   2.835   2.752   1.572
 2935SOL    HW120836   2.881   2.668   1.543
 2935SOL    HW220837   2.779   2.786   1.497
 2936SOL     OW20838   2.853   2.272   1.242
 2936SOL    HW120839   2.776   2.306   1.296
 2936SOL    HW220840   2.819   2.221   1.163
 2937SOL     OW20841   2.903   2.563   0.429
 2937SOL    HW120842   2.929   2.559   0.525
 2937SOL    HW220843   2.818   2.512   0.415
 2938SOL     OW20844   1.938   2.673   0.789
 2938SOL    HW120845   2.037   2.661   0.798
 2938SOL    HW220846   1.914   2.768   0.810
 2939SOL     OW20847   2.727   2.210   0.195
 2939SOL    HW120848   2.786   2.273   0.146
 2939SOL    HW220849   2.746   2.116   0.166
 2940SOL     OW20850   3.581   2.447   1.831
 2940SOL    HW120851   3.555   2.536   1.795
 2940SOL    HW220852   3.579   2.379   1.758
 2941SOL     OW20853   3.224   3.006   0.545
 2941SOL    HW120854   3.307   2.977   0.497
 2941SOL    HW220855   3.175   3.073   0.489
 2942SOL     OW20856   2.412   2.058   0.885
 2942SOL    HW120857   2.407   2.053   0.985
 2942SOL    HW220858   2.414   2.154   0.856
 2943SOL     OW20859   2.870   3.318   0.477
 2943SOL    HW120860   2.824   3.390   0.425
 2943SOL    HW220861   2.866   3.338   0.575
 2944SOL     OW20862   2.213   3.663   0.853
 2944SOL    HW120863   2.263   3.577   0.859
 2944SOL    HW220864   2.278   3.740   0.850
 2945SOL     OW20865   3.657   2.928   0.873
 2945SOL    HW120866   3.595   2.913   0.797
 2945SOL    HW220867   3.605   2.939   0.958
 2946SOL     OW20868   2.183   2.805   0.242
 2946SOL    HW120869   2.265   2.844   0.200
 2946SOL    HW220870   2.156   2.723   0.193
 2947SOL     OW20871   3.320   2.597   0.728
 2947SOL    HW120872   3.315   2.532   0.803
 2947SOL    HW220873   3.400   2.656   0.741
 2948SOL     OW20874   2.323   3.128   1.727
 2948SOL    HW120875   2.273   3.129   1.641
 2948SOL    HW220876   2.260   3.110   1.803
 2949SOL     OW20877   2.973   3.638   0.237
 2949SOL    HW120878   2.913   3.576   0.287
 2949SOL    HW220879   3.004   3.594   0.152
 2950SOL     OW20880   3.494   3.239   0.081
 2950SOL    HW120881   3.462   3.333   0.071
 2950SOL    HW220882   3.418   3.176   0.069
 2951SOL     OW20883   2.326   3.605   0.323
 2951SOL    HW120884   2.359   3.644   0.409
 2951SOL    HW220885   2.402   3.598   0.258
 2952SOL     OW20886   3.262   1.969   0.426
 2952SOL    HW120887   3.238   1.932   0.336
 2952SOL    HW220888   3.361   1.985   0.430
 2953SOL     OW20889   2.111   3.647   1.241
 2953SOL    HW120890   2.168   3.582   1.291
 2953SOL    HW220891   2.095   3.614   1.148
 2954SOL     OW20892   2.802   3.560   0.904
 2954SOL    HW120893   2.882   3.503   0.925
 2954SOL    HW220894   2.753   3.520   0.827
 2955SOL     OW20895   2.244   2.562   0.480
 2955SOL    HW120896   2.289   2.472   0.477
 2955SOL    HW220897   2.150   2.551   0.513
 2956SOL     OW20898   3.409   2.084   1.729
 2956SOL    HW120899   3.404   2.121   1.821
 2956SOL    HW220900   3.337   2.015   1.717
 2957SOL     OW20901   2.643   2.126   1.749
 2957SOL    HW120902   2.710   2.065   1.792
 2957SOL    HW220903   2.570   2.145   1.814
 2958SOL     OW20904   2.750   3.376   1.195
 2958SOL    HW120905   2.727   3.351   1.101
 2958SOL    HW220906   2.811   3.307   1.234
 2959SOL     OW20907   3.213   2.452   1.433
 2959SOL    HW120908   3.241   2.409   1.518
 2959SOL    HW220909   3.238   2.548   1.434
 2960SOL     OW20910   2.665   3.264   0.924
 2960SOL    HW120911   2.755   3.278   0.882
 2960SOL    HW220912   2.594   3.266   0.853
 2961SOL     OW20913   2.784   2.365   0.899
 2961SOL    HW120914   2.759   2.356   0.803
 2961SOL    HW220915   2.832   2.283   0.930
 2962SOL     OW20916   2.401   1.926   0.512
 2962SOL    HW120917   2.320   1.927   0.570
 2962SOL    HW220918   2.404   2.009   0.457
 2963SOL     OW20919   3.296   3.050   0.041
 2963SOL    HW120920   3.328   2.974   0.098
 2963SOL    HW220921   3.204   3.077   0.071
 2964SOL     OW20922   2.797   2.098   0.480
 2964SOL    HW120923   2.749   2.139   0.402
 2964SOL    HW220924   2.896   2.096   0.461
 2965SOL     OW20925   2.938   2.545   1.464
 2965SOL    HW120926   2.858   2.484   1.467
 2965SOL    HW220927   3.019   2.492   1.440
 2966SOL     OW20928   3.089   3.432   0.793
 2966SOL    HW120929   3.110   3.506   0.728
 2966SOL    HW220930   3.157   3.432   0.866
 2967SOL     OW20931   2.321   3.014   0.741
 2967SOL    HW120932   2.250   2.987   0.806
 2967SOL    HW220933   2.295   2.986   0.648
 2968SOL     OW20934   3.133   3.659   0.591
 2968SOL    HW120935   3.177   3.723   0.527
 2968SOL    HW220936   3.083   3.711   0.661
 2969SOL     OW20937   2.894   2.411   0.016
 2969SOL    HW120938   2.853   2.493  -0.023
 2969SOL    HW220939   2.958   2.437   0.089
 2970SOL     OW20940   1.940   2.418   1.386
 2970SOL    HW120941   2.032   2.417   1.345
 2970SOL    HW220942   1.934   2.492   1.453
 2971SOL     OW20943   2.423   2.084   1.147
 2971SOL    HW120944   2.461   2.000   1.184
 2971SOL    HW220945   2.335   2.103   1.191
 2972SOL     OW20946   2.728   2.316   0.642
 2972SOL    HW120947   2.696   2.388   0.580
 2972SOL    HW220948   2.752   2.235   0.589
 2973SOL     OW20949   2.879   1.901   0.753
 2973SOL    HW120950   2.807   1.906   0.684
 2973SOL    HW220951   2.855   1.832   0.822
 2974SOL     OW20952   3.291   3.035   0.867
 2974SOL    HW120953   3.236   2.951   0.860
 2974SOL    HW220954   3.317   3.064   0.775
 2975SOL     OW20955   3.328   2.452   0.992
 2975SOL    HW120956   3.298   2.357   0.999
 2975SOL    HW220957   3.401   2.468   1.058
 2976SOL     OW20958   3.719   2.695   0.377
 2976SOL    HW120959   3.761   2.631   0.441
 2976SOL    HW220960   3.681   2.644   0.299
 2977SOL     OW20961   2.350   3.247   0.174
 2977SOL    HW120962   2.263   3.232   0.221
 2977SOL    HW220963   2.333   3.273   0.079
 2978SOL     OW20964   3.526   3.142   0.657
 2978SOL    HW120965   3.625   3.150   0.671
 2978SOL    HW220966   3.481   3.226   0.688
 2979SOL     OW20967   3.252   2.437   0.078
 2979SOL    HW120968   3.198   2.416   0.159
 2979SOL    HW220969   3.343   2.396   0.087
 2980SOL     OW20970   2.389   2.118   0.328
 2980SOL    HW120971   2.416   2.059   0.253
 2980SOL    HW220972   2.389   2.213   0.297
 2981SOL     OW20973   3.616   3.085   1.588
 2981SOL    HW120974   3.707   3.046   1.575
 2981SOL    HW220975   3.624   3.181   1.612
 2982SOL     OW20976   2.926   3.209   1.340
 2982SOL    HW120977   2.846   3.186   1.395
 2982SOL    HW220978   3.009   3.183   1.389
 2983SOL     OW20979   3.454   3.491   1.625
 2983SOL    HW120980   3.481   3.525   1.535
 2983SOL    HW220981   3.533   3.453   1.671
 2984SOL     OW20982   2.973   3.057   1.100
 2984SOL    HW120983   2.933   3.101   1.181
 2984SOL    HW220984   2.932   3.094   1.017
 2985SOL     OW20985   3.500   2.961   1.079
 2985SOL    HW120986   3.505   3.042   1.138
 2985SOL    HW220987   3.414   2.963   1.028
 2986SOL     OW20988   2.777   1.951   1.402
 2986SOL    HW120989   2.802   1.931   1.307
 2986SOL    HW220990   2.849   2.007   1.444
 2987SOL     OW20991   2.567   2.912   0.368
 2987SOL    HW120992   2.553   2.919   0.467
 2987SOL    HW220993   2.651   2.861   0.350
 2988SOL     OW20994   2.272   2.675   1.251
 2988SOL    HW120995   2.358   2.687   1.301
 2988SOL    HW220996   2.230   2.588   1.278
 2989SOL     OW20997   3.136   2.248   1.262
 2989SOL    HW120998   3.157   2.322   1.326
 2989SOL    HW220999   3.047   2.265   1.219
 2990SOL     OW21000   2.229   2.962   0.501
 2990SOL    HW121001   2.222   3.045   0.445
 2990SOL    HW221002   2.233   2.882   0.441
 2991SOL     OW21003   2.428   2.399   0.865
 2991SOL    HW121004   2.440   2.465   0.791
 2991SOL    HW221005   2.474   2.433   0.948
 2992SOL     OW21006   3.114   3.210   0.388
 2992SOL    HW121007   3.164   3.287   0.428
 2992SOL    HW221008   3.019   3.212   0.420
 2993SOL     OW21009   3.134   3.307   1.142
 2993SOL    HW121010   3.181   3.320   1.229
 2993SOL    HW221011   3.068   3.233   1.151
 2994SOL     OW21012   3.444   2.501   0.472
 2994SOL    HW121013   3.413   2.562   0.545
 2994SOL    HW221014   3.494   2.553   0.403
 2995SOL     OW21015   3.449   2.641   1.670
 2995SOL    HW121016   3.357   2.679   1.665
 2995SOL    HW221017   3.509   2.688   1.605
 2996SOL     OW21018   2.875   1.967   1.770
 2996SOL    HW121019   2.881   2.052   1.718
 2996SOL    HW221020   2.907   1.891   1.713
 2997SOL     OW21021   2.435   2.732   1.029
 2997SOL    HW121022   2.479   2.821   1.020
 2997SOL    HW221023   2.372   2.732   1.106
 2998SOL     OW21024   3.222   2.724   1.045
 2998SOL    HW121025   3.147   2.724   0.979
 2998SOL    HW221026   3.259   2.632   1.054
 2999SOL     OW21027   3.071   2.387   0.275
 2999SOL    HW121028   3.084   2.303   0.329
 2999SOL    HW221029   3.042   2.461   0.335
 3000SOL     OW21030   2.169   2.075   1.231
 3000SOL    HW121031   2.146   2.112   1.321
 3000SOL    HW221032   2.139   1.980   1.225
 3001SOL     OW21033   2.594   2.496   1.064
 3001SOL    HW121034   2.653   2.470   0.988
 3001SOL    HW221035   2.566   2.592   1.053
 3002SOL     OW21036   2.169   1.925   0.618
 3002SOL    HW121037   2.158   2.019   0.651
 3002SOL    HW221038   2.164   1.862   0.695
 3003SOL     OW21039   3.484   2.229   0.374
 3003SOL    HW121040   3.486   2.153   0.438
 3003SOL    HW221041   3.436   2.306   0.414
 3004SOL     OW21042   2.885   2.628   0.966
 3004SOL    HW121043   2.900   2.649   1.062
 3004SOL    HW221044   2.855   2.533   0.957
 3005SOL     OW21045   3.721   3.380   1.605
 3005SOL    HW121046   3.735   3.407   1.510
 3005SOL    HW221047   3.804   3.402   1.658
 3006SOL     OW21048   3.402   2.136   0.125
 3006SOL    HW121049   3.341   2.061   0.148
 3006SOL    HW221050   3.424   2.188   0.208
 3007SOL     OW21051   3.165   2.700   0.042
 3007SOL    HW121052   3.199   2.607   0.057
 3007SOL    HW221053   3.183   2.727  -0.053
 3008SOL     OW21054   2.930   3.195   0.849
 3008SOL    HW121055   2.937   3.111   0.794
 3008SOL    HW221056   2.992   3.264   0.813
 3009SOL     OW21057   2.181   2.672   0.949
 3009SOL    HW121058   2.274   2.708   0.954
 3009SOL    HW221059   2.175   2.587   1.001
 3010SOL     OW21060   2.201   2.371   1.006
 3010SOL    HW121061   2.149   2.288   0.989
 3010SOL    HW221062   2.278   2.376   0.942
 3011SOL     OW21063   3.000   2.242   1.678
 3011SOL    HW121064   2.955   2.305   1.742
 3011SOL    HW221065   3.093   2.273   1.661
 3012SOL     OW21066   3.022   2.069   1.477
 3012SOL    HW121067   3.022   2.133   1.554
 3012SOL    HW221068   3.050   2.117   1.394
 3013SOL     OW21069   1.870   3.188   0.200
 3013SOL    HW121070   1.777   3.209   0.169
 3013SOL    HW221071   1.880   3.089   0.213
 3014SOL     OW21072   1.950   3.663   0.927
 3014SOL    HW121073   1.908   3.577   0.900
 3014SOL    HW221074   2.044   3.666   0.893
 3015SOL     OW21075   2.366   3.430   0.910
 3015SOL    HW121076   2.432   3.504   0.919
 3015SOL    HW221077   2.410   3.351   0.868
 3016SOL     OW21078   2.864   2.658   1.238
 3016SOL    HW121079   2.905   2.626   1.324
 3016SOL    HW221080   2.768   2.631   1.235
 3017SOL     OW21081   1.902   2.406   1.114
 3017SOL    HW121082   1.987   2.373   1.073
 3017SOL    HW221083   1.915   2.421   1.212
 3018SOL     OW21084   3.231   2.812   1.660
 3018SOL    HW121085   3.270   2.901   1.680
 3018SOL    HW221086   3.241   2.792   1.563
 3019SOL     OW21087   2.677   2.434   0.325
 3019SOL    HW121088   2.684   2.345   0.279
 3019SOL    HW221089   2.583   2.468   0.317
 3020SOL     OW21090   3.519   2.466   1.206
 3020SOL    HW121091   3.481   2.397   1.268
 3020SOL    HW221092   3.601   2.430   1.162
 3021SOL     OW21093   2.533   2.326   1.269
 3021SOL    HW121094   2.499   2.237   1.239
 3021SOL    HW221095   2.559   2.380   1.189
 3022SOL     OW21096   2.792   3.540   1.465
 3022SOL    HW121097   2.768   3.522   1.370
 3022SOL    HW221098   2.822   3.634   1.475
 3023SOL     OW21099   2.335   2.362   0.191
 3023SOL    HW121100   2.396   2.442   0.195
 3023SOL    HW221101   2.240   2.393   0.198
 3024SOL     OW21102   3.209   2.921   1.234
 3024SOL    HW121103   3.233   2.858   1.160
 3024SOL    HW221104   3.119   2.961   1.216
 3025SOL     OW21105   3.164   2.717   0.309
 3025SOL    HW121106   3.078   2.686   0.351
 3025SOL    HW221107   3.160   2.703   0.210
 3026SOL     OW21108   3.621   3.609   1.154
 3026SOL    HW121109   3.682   3.639   1.081
 3026SOL    HW221110   3.583   3.520   1.132
 3027SOL     OW21111   3.114   3.593   1.128
 3027SOL    HW121112   3.198   3.598   1.074
 3027SOL    HW221113   3.091   3.497   1.146
 3028SOL     OW21114   1.945   3.120   1.022
 3028SOL    HW121115   1.940   3.119   1.122
 3028SOL    HW221116   1.862   3.079   0.984
 3029SOL     OW21117   2.765   1.948   0.133
 3029SOL    HW121118   2.816   1.949   0.047
 3029SOL    HW221119   2.821   1.906   0.204
 3030SOL     OW21120   3.588   1.997   0.523
 3030SOL    HW121121   3.661   1.980   0.456
 3030SOL    HW221122   3.557   1.910   0.561
 3031SOL     OW21123   3.250   3.435   0.477
 3031SOL    HW121124   3.317   3.447   0.403
 3031SOL    HW221125   3.210   3.524   0.500
 3032SOL     OW21126   1.992   3.656   1.851
 3032SOL    HW121127   1.951   3.582   1.904
 3032SOL    HW221128   2.056   3.707   1.909
 3033SOL     OW21129   3.142   2.789   0.672
 3033SOL    HW121130   3.202   2.708   0.674
 3033SOL    HW221131   3.182   2.858   0.612
 3034SOL     OW21132   2.692   3.135   1.422
 3034SOL    HW121133   2.687   3.168   1.517
 3034SOL    HW221134   2.606   3.154   1.376
 3035SOL     OW21135   2.534   3.478   0.154
 3035SOL    HW121136   2.543   3.488   0.055
 3035SOL    HW221137   2.494   3.389   0.175
 3036SOL     OW21138   3.512   3.582   1.394
 3036SOL    HW121139   3.565   3.592   1.310
 3036SOL    HW221140   3.485   3.672   1.428
 3037SOL     OW21141   3.703   2.037   0.963
 3037SOL    HW121142   3.742   1.952   0.927
 3037SOL    HW221143   3.605   2.039   0.944
 3038SOL     OW21144   2.125   2.188   0.720
 3038SOL    HW121145   2.046   2.239   0.686
 3038SOL    HW221146   2.116   2.173   0.818
 3039SOL     OW21147   3.056   3.474   0.031
 3039SOL    HW121148   3.062   3.381   0.068
 3039SOL    HW221149   2.997   3.474  -0.049
 3040SOL     OW21150   2.684   2.864   1.372
 3040SOL    HW121151   2.724   2.863   1.280
 3040SOL    HW221152   2.694   2.956   1.412
 3041SOL     OW21153   2.778   2.772   0.291
 3041SOL    HW121154   2.841   2.810   0.223
 3041SOL    HW221155   2.818   2.689   0.330
 3042SOL     OW21156   3.366   3.469   0.044
 3042SOL    HW121157   3.274   3.506   0.051
 3042SOL    HW221158   3.404   3.489  -0.046
 3043SOL     OW21159   3.476   3.154   1.289
 3043SOL    HW121160   3.536   3.157   1.369
 3043SOL    HW221161   3.401   3.218   1.302
 3044SOL     OW21162   2.901   2.960   0.696
 3044SOL    HW121163   2.831   2.913   0.750
 3044SOL    HW221164   2.960   2.892   0.653
 3045SOL     OW21165   2.876   2.098   0.971
 3045SOL    HW121166   2.868   2.062   0.878
 3045SOL    HW221167   2.874   2.022   1.036
 3046SOL     OW21168   2.452   3.349   0.491
 3046SOL    HW121169   2.494   3.291   0.421
 3046SOL    HW221170   2.408   3.428   0.447
 3047SOL     OW21171   3.571   2.247   1.381
 3047SOL    HW121172   3.644   2.316   1.385
 3047SOL    HW221173   3.599   2.172   1.322
 3048SOL     OW21174   2.117   3.210   0.290
 3048SOL    HW121175   2.021   3.211   0.263
 3048SOL    HW221176   2.129   3.263   0.374
 3049SOL     OW21177   1.937   2.207   0.033
 3049SOL    HW121178   1.845   2.179   0.004
 3049SOL    HW221179   1.968   2.284  -0.023
 3050SOL     OW21180   3.302   2.718   1.398
 3050SOL    HW121181   3.245   2.770   1.335
 3050SOL    HW221182   3.398   2.730   1.374
 3051SOL     OW21183   1.934   2.028   0.318
 3051SOL    HW121184   1.917   2.111   0.264
 3051SOL    HW221185   2.024   1.991   0.296
 3052SOL     OW21186   3.045   3.197   0.119
 3052SOL    HW121187   2.946   3.186   0.121
 3052SOL    HW221188   3.079   3.212   0.212
 3053SOL     OW21189   2.475   2.704   1.431
 3053SOL    HW121190   2.531   2.785   1.414
 3053SOL    HW221191   2.534   2.624   1.434
 3054SOL     OW21192   3.355   3.629   0.959
 3054SOL    HW121193   3.388   3.693   0.890
 3054SOL    HW221194   3.421   3.623   1.034
 3055SOL     OW21195   2.578   2.427   1.708
 3055SOL    HW121196   2.597   2.492   1.782
 3055SOL    HW221197   2.638   2.347   1.717
 3056SOL     OW21198   3.312   3.082   1.633
 3056SOL    HW121199   3.303   3.072   1.732
 3056SOL    HW221200   3.408   3.075   1.607
 3057SOL     OW21201   3.536   2.745   1.254
 3057SOL    HW121202   3.509   2.656   1.217
 3057SOL    HW221203   3.537   2.813   1.181
 3058SOL     OW21204   3.087   2.187   0.449
 3058SOL    HW121205   3.152   2.113   0.438
 3058SOL    HW221206   3.107   2.237   0.533
 3059SOL     OW21207   2.456   2.607   0.652
 3059SOL    HW121208   2.506   2.692   0.633
 3059SOL    HW221209   2.368   2.609   0.604
 3060SOL     OW21210   3.639   2.204   1.642
 3060SOL    HW121211   3.622   2.235   1.548
 3060SOL    HW221212   3.555   2.167   1.680
 3061SOL     OW21213   3.592   2.796   1.517
 3061SOL    HW121214   3.630   2.887   1.532
 3061SOL    HW221215   3.584   2.779   1.418
 3062SOL     OW21216   2.721   3.236   0.016
 3062SOL    HW121217   2.675   3.251   0.104
 3062SOL    HW221218   2.765   3.321  -0.014
 3063SOL     OW21219   2.523   3.652   0.953
 3063SOL    HW121220   2.477   3.740   0.940
 3063SOL    HW221221   2.622   3.664   0.946
 3064SOL     OW21222   2.721   2.818   0.861
 3064SOL    HW121223   2.775   2.749   0.909
 3064SOL    HW221224   2.689   2.887   0.927
 3065SOL     OW21225   2.945   2.846   0.087
 3065SOL    HW121226   2.922   2.899   0.005
 3065SOL    HW221227   3.026   2.790   0.068
 3066SOL     OW21228   3.723   3.431   0.851
 3066SOL    HW121229   3.652   3.419   0.781
 3066SOL    HW221230   3.724   3.352   0.911
 3067SOL     OW21231   1.941   3.102   0.653
 3067SOL    HW121232   1.940   3.055   0.741
 3067SOL    HW221233   2.023   3.074   0.602
 3068SOL     OW21234   2.534   3.253   1.624
 3068SOL    HW121235   2.456   3.203   1.662
 3068SOL    HW221236   2.531   3.348   1.655
 3069SOL     OW21237   3.686   2.054   1.227
 3069SOL    HW121238   3.682   1.964   1.271
 3069SOL    HW221239   3.689   2.043   1.128
 3070SOL     OW21240   2.290   2.286   0.520
 3070SOL    HW121241   2.320   2.214   0.458
 3070SOL    HW221242   2.251   2.246   0.603
 3071SOL     OW21243   3.567   3.349   1.104
 3071SOL    HW121244   3.474   3.324   1.077
 3071SOL    HW221245   3.593   3.299   1.186
 3072SOL     OW21246   2.674   3.448   0.687
 3072SOL    HW121247   2.706   3.458   0.593
 3072SOL    HW221248   2.595   3.386   0.689
 3073SOL     OW21249   3.286   2.076   1.112
 3073SOL    HW121250   3.338   2.011   1.167
 3073SOL    HW221251   3.237   2.139   1.173
 3074SOL     OW21252   2.863   1.896   1.154
 3074SOL    HW121253   2.800   1.824   1.123
 3074SOL    HW221254   2.956   1.860   1.154
 3075SOL     OW21255   2.632   3.192   0.301
 3075SOL    HW121256   2.586   3.105   0.318
 3075SOL    HW221257   2.723   3.189   0.342
 3076SOL     OW21258   3.214   1.914   0.168
 3076SOL    HW121259   3.249   1.873   0.084
 3076SOL    HW221260   3.124   1.876   0.188
 3077SOL     OW21261   3.162   2.315   0.691
 3077SOL    HW121262   3.103   2.395   0.695
 3077SOL    HW221263   3.177   2.280   0.784
 3078SOL     OW21264   3.455   2.083   0.882
 3078SOL    HW121265   3.371   2.082   0.936
 3078SOL    HW221266   3.457   2.166   0.826
 3079SOL     OW21267   1.901   2.939   0.300
 3079SOL    HW121268   2.000   2.928   0.291
 3079SOL    HW221269   1.861   2.853   0.332
 3080SOL     OW21270   2.737   3.508   0.337
 3080SOL    HW121271   2.660   3.473   0.283
 3080SOL    HW221272   2.705   3.579   0.399
 3081SOL     OW21273   2.092   2.490   1.975
 3081SOL    HW121274   1.999   2.488   2.012
 3081SOL    HW221275   2.093   2.451   1.883
 3082SOL     OW21276   2.087   2.137   2.858
 3082SOL    HW121277   2.122   2.120   2.950
 3082SOL    HW221278   1.999   2.092   2.846
 3083SOL     OW21279   3.617   2.469   2.093
 3083SOL    HW121280   3.605   2.456   1.994
 3083SOL    HW221281   3.587   2.388   2.142
 3084SOL     OW21282   2.548   3.023   3.665
 3084SOL    HW121283   2.608   3.102   3.679
 3084SOL    HW221284   2.462   3.054   3.624
 3085SOL     OW21285   2.092   3.296   2.400
 3085SOL    HW121286   2.066   3.392   2.400
 3085SOL    HW221287   2.021   3.242   2.445
 3086SOL     OW21288   3.456   1.976   3.342
 3086SOL    HW121289   3.438   2.043   3.270
 3086SOL    HW221290   3.453   2.022   3.431
 3087SOL     OW21291   3.503   2.970   2.294
 3087SOL    HW121292   3.589   2.972   2.242
 3087SOL    HW221293   3.517   3.017   2.382
 3088SOL     OW21294   1.975   2.599   3.459
 3088SOL    HW121295   2.063   2.586   3.504
 3088SOL    HW221296   1.962   2.696   3.437
 3089SOL     OW21297   2.460   2.591   2.132
 3089SOL    HW121298   2.484   2.660   2.064
 3089SOL    HW221299   2.382   2.624   2.186
 3090SOL     OW21300   3.143   2.207   2.806
 3090SOL    HW121301   3.057   2.157   2.793
 3090SOL    HW221302   3.205   2.153   2.862
 3091SOL     OW21303   2.669   2.467   3.327
 3091SOL    HW121304   2.622   2.464   3.416
 3091SOL    HW221305   2.618   2.412   3.261
 3092SOL     OW21306   3.256   2.331   3.536
 3092SOL    HW121307   3.236   2.374   3.624
 3092SOL    HW221308   3.334   2.269   3.545
 3093SOL     OW21309   2.853   2.272   3.104
 3093SOL    HW121310   2.776   2.306   3.158
 3093SOL    HW221311   2.819   2.221   3.025
 3094SOL     OW21312   1.992   3.683   3.433
 3094SOL    HW121313   1.982   3.668   3.532
 3094SOL    HW221314   1.906   3.719   3.397
 3095SOL     OW21315   2.111   3.647   3.103
 3095SOL    HW121316   2.168   3.582   3.153
 3095SOL    HW221317   2.095   3.614   3.010
 3096SOL     OW21318   2.802   3.560   2.766
 3096SOL    HW121319   2.882   3.503   2.787
 3096SOL    HW221320   2.753   3.520   2.689
 3097SOL     OW21321   3.409   2.084   3.591
 3097SOL    HW121322   3.404   2.121   3.683
 3097SOL    HW221323   3.337   2.015   3.579
 3098SOL     OW21324   2.476   1.984   1.979
 3098SOL    HW121325   2.574   1.962   1.986
 3098SOL    HW221326   2.445   1.967   1.886
 3099SOL     OW21327   3.213   2.452   3.295
 3099SOL    HW121328   3.241   2.409   3.380
 3099SOL    HW221329   3.238   2.548   3.296
 3100SOL     OW21330   2.784   2.365   2.761
 3100SOL    HW121331   2.759   2.356   2.665
 3100SOL    HW221332   2.832   2.283   2.792
 3101SOL     OW21333   2.879   1.901   2.615
 3101SOL    HW121334   2.807   1.906   2.546
 3101SOL    HW221335   2.855   1.832   2.684
 3102SOL     OW21336   3.328   2.452   2.854
 3102SOL    HW121337   3.298   2.357   2.861
 3102SOL    HW221338   3.401   2.468   2.920
 3103SOL     OW21339   3.719   2.695   2.239
 3103SOL    HW121340   3.761   2.631   2.303
 3103SOL    HW221341   3.681   2.644   2.161
 3104SOL     OW21342   3.252   2.437   1.940
 3104SOL    HW121343   3.198   2.416   2.021
 3104SOL    HW221344   3.343   2.396   1.949
 3105SOL     OW21345   3.616   3.085   3.450
 3105SOL    HW121346   3.707   3.046   3.437
 3105SOL    HW221347   3.624   3.181   3.474
 3106SOL     OW21348   3.454   3.491   3.487
 3106SOL    HW121349   3.481   3.525   3.397
 3106SOL    HW221350   3.533   3.453   3.533
 3107SOL     OW21351   3.500   2.961   2.941
 3107SOL    HW121352   3.505   3.042   3.000
 3107SOL    HW221353   3.414   2.963   2.890
 3108SOL     OW21354   3.136   2.248   3.124
 3108SOL    HW121355   3.157   2.322   3.188
 3108SOL    HW221356   3.047   2.265   3.081
 3109SOL     OW21357   2.428   2.399   2.727
 3109SOL    HW121358   2.440   2.465   2.653
 3109SOL    HW221359   2.474   2.433   2.810
 3110SOL     OW21360   2.216   3.372   3.191
 3110SOL    HW121361   2.195   3.328   3.104
 3110SOL    HW221362   2.313   3.398   3.194
 3111SOL     OW21363   2.875   1.967   3.632
 3111SOL    HW121364   2.881   2.052   3.580
 3111SOL    HW221365   2.907   1.891   3.575
 3112SOL     OW21366   3.222   2.724   2.907
 3112SOL    HW121367   3.147   2.724   2.841
 3112SOL    HW221368   3.259   2.632   2.916
 3113SOL     OW21369   2.842   3.435   3.562
 3113SOL    HW121370   2.822   3.479   3.474
 3113SOL    HW221371   2.881   3.344   3.546
 3114SOL     OW21372   2.930   3.195   2.711
 3114SOL    HW121373   2.937   3.111   2.656
 3114SOL    HW221374   2.992   3.264   2.675
 3115SOL     OW21375   1.870   3.188   2.062
 3115SOL    HW121376   1.777   3.209   2.031
 3115SOL    HW221377   1.880   3.089   2.075
 3116SOL     OW21378   2.864   2.658   3.100
 3116SOL    HW121379   2.905   2.626   3.186
 3116SOL    HW221380   2.768   2.631   3.097
 3117SOL     OW21381   1.902   2.406   2.976
 3117SOL    HW121382   1.987   2.373   2.935
 3117SOL    HW221383   1.915   2.421   3.074
 3118SOL     OW21384   3.519   2.466   3.068
 3118SOL    HW121385   3.481   2.397   3.130
 3118SOL    HW221386   3.601   2.430   3.024
 3119SOL     OW21387   2.792   3.540   3.327
 3119SOL    HW121388   2.768   3.522   3.232
 3119SOL    HW221389   2.822   3.634   3.337
 3120SOL     OW21390   2.335   2.362   2.053
 3120SOL    HW121391   2.396   2.442   2.057
 3120SOL    HW221392   2.240   2.393   2.060
 3121SOL     OW21393   2.550   3.524   3.578
 3121SOL    HW121394   2.494   3.605   3.587
 3121SOL    HW221395   2.602   3.528   3.492
 3122SOL     OW21396   3.588   1.997   2.385
 3122SOL    HW121397   3.661   1.980   2.318
 3122SOL    HW221398   3.557   1.910   2.423
 3123SOL     OW21399   1.992   3.656   3.713
 3123SOL    HW121400   1.951   3.582   3.766
 3123SOL    HW221401   2.056   3.707   3.771
 3124SOL     OW21402   3.142   2.789   2.534
 3124SOL    HW121403   3.202   2.708   2.536
 3124SOL    HW221404   3.182   2.858   2.474
 3125SOL     OW21405   2.684   2.864   3.234
 3125SOL    HW121406   2.724   2.863   3.142
 3125SOL    HW221407   2.694   2.956   3.274
 3126SOL     OW21408   3.366   3.469   1.906
 3126SOL    HW121409   3.274   3.506   1.913
 3126SOL    HW221410   3.404   3.489   1.816
 3127SOL     OW21411   3.476   3.154   3.151
 3127SOL    HW121412   3.536   3.157   3.231
 3127SOL    HW221413   3.401   3.218   3.164
 3128SOL     OW21414   2.901   2.960   2.558
 3128SOL    HW121415   2.831   2.913   2.612
 3128SOL    HW221416   2.960   2.892   2.515
 3129SOL     OW21417   2.117   3.210   2.152
 3129SOL    HW121418   2.021   3.211   2.125
 3129SOL    HW221419   2.129   3.263   2.236
 3130SOL     OW21420   1.937   2.207   1.895
 3130SOL    HW121421   1.845   2.179   1.866
 3130SOL    HW221422   1.968   2.284   1.839
 3131SOL     OW21423   3.302   2.718   3.260
 3131SOL    HW121424   3.245   2.770   3.197
 3131SOL    HW221425   3.398   2.730   3.236
 3132SOL     OW21426   3.045   3.197   1.981
 3132SOL    HW121427   2.946   3.186   1.983
 3132SOL    HW221428   3.079   3.212   2.074
 3133SOL     OW21429   3.355   3.629   2.821
 3133SOL    HW121430   3.388   3.693   2.752
 3133SOL    HW221431   3.421   3.623   2.896
 3134SOL     OW21432   2.578   2.427   3.570
 3134SOL    HW121433   2.597   2.492   3.644
 3134SOL    HW221434   2.638   2.347   3.579
 3135SOL     OW21435   3.312   3.082   3.495
 3135SOL    HW121436   3.303   3.072   3.594
 3135SOL    HW221437   3.408   3.075   3.469
 3136SOL     OW21438   2.252   3.603   3.422
 3136SOL    HW121439   2.161   3.644   3.420
 3136SOL    HW221440   2.245   3.509   3.454
 3137SOL     OW21441   2.456   2.607   2.514
 3137SOL    HW121442   2.506   2.692   2.495
 3137SOL    HW221443   2.368   2.609   2.466
 3138SOL     OW21444   2.721   3.236   1.878
 3138SOL    HW121445   2.675   3.251   1.966
 3138SOL    HW221446   2.765   3.321   1.848
 3139SOL     OW21447   2.083   3.176   3.706
 3139SOL    HW121448   2.018   3.103   3.685
 3139SOL    HW221449   2.087   3.190   3.804
 3140SOL     OW21450   2.534   3.253   3.486
 3140SOL    HW121451   2.456   3.203   3.524
 3140SOL    HW221452   2.531   3.348   3.517
 3141SOL     OW21453   2.290   2.286   2.382
 3141SOL    HW121454   2.320   2.214   2.320
 3141SOL    HW221455   2.251   2.246   2.465
 3142SOL     OW21456   2.179   2.409   3.142
 3142SOL    HW121457   2.217   2.350   3.214
 3142SOL    HW221458   2.219   2.383   3.054
 3143SOL     OW21459   3.286   2.076   2.974
 3143SOL    HW121460   3.338   2.011   3.029
 3143SOL    HW221461   3.237   2.139   3.035
 3144SOL     OW21462   2.632   3.192   2.163
 3144SOL    HW121463   2.586   3.105   2.180
 3144SOL    HW221464   2.723   3.189   2.204
 3145SOL     OW21465   2.480   3.429   3.146
 3145SOL    HW121466   2.475   3.511   3.203
 3145SOL    HW221467   2.569   3.426   3.101
 3146SOL     OW21468   3.214   1.914   2.030
 3146SOL    HW121469   3.249   1.873   1.946
 3146SOL    HW221470   3.124   1.876   2.050
 3147SOL     OW21471   3.162   2.315   2.553
 3147SOL    HW121472   3.103   2.395   2.557
 3147SOL    HW221473   3.177   2.280   2.646
 3148SOL     OW21474   2.737   3.508   2.199
 3148SOL    HW121475   2.660   3.473   2.145
 3148SOL    HW221476   2.705   3.579   2.261
 3149SOL     OW21477   2.092   2.490   3.837
 3149SOL    HW121478   1.999   2.488   3.874
 3149SOL    HW221479   2.093   2.451   3.745
 3150SOL     OW21480   1.881   2.230   4.371
 3150SOL    HW121481   1.799   2.273   4.410
 3150SOL    HW221482   1.853   2.157   4.308
 3151SOL     OW21483   2.712   2.660   5.547
 3151SOL    HW121484   2.708   2.736   5.612
 3151SOL    HW221485   2.734   2.696   5.456
 3152SOL     OW21486   2.547   2.874   4.389
 3152SOL    HW121487   2.616   2.858   4.459
 3152SOL    HW221488   2.474   2.931   4.427
 3153SOL     OW21489   2.197   3.297   4.785
 3153SOL    HW121490   2.119   3.266   4.732
 3153SOL    HW221491   2.255   3.355   4.728
 3154SOL     OW21492   2.093   3.575   4.207
 3154SOL    HW121493   2.127   3.652   4.261
 3154SOL    HW221494   2.137   3.575   4.117
 3155SOL     OW21495   1.889   3.458   3.841
 3155SOL    HW121496   1.870   3.362   3.862
 3155SOL    HW221497   1.856   3.516   3.916
 3156SOL     OW21498   1.975   2.599   5.321
 3156SOL    HW121499   2.063   2.586   5.366
 3156SOL    HW221500   1.962   2.696   5.299
 3157SOL     OW21501   2.059   2.838   4.988
 3157SOL    HW121502   2.148   2.793   4.974
 3157SOL    HW221503   1.986   2.773   4.969
 3158SOL     OW21504   3.049   3.654   5.340
 3158SOL    HW121505   3.073   3.714   5.264
 3158SOL    HW221506   3.056   3.559   5.310
 3159SOL     OW21507   2.460   2.591   3.994
 3159SOL    HW121508   2.484   2.660   3.926
 3159SOL    HW221509   2.382   2.624   4.048
 3160SOL     OW21510   3.438   3.524   4.031
 3160SOL    HW121511   3.527   3.570   4.034
 3160SOL    HW221512   3.417   3.500   3.936
 3161SOL     OW21513   2.727   2.210   3.919
 3161SOL    HW121514   2.786   2.273   3.870
 3161SOL    HW221515   2.746   2.116   3.890
 3162SOL     OW21516   3.581   2.447   5.555
 3162SOL    HW121517   3.555   2.536   5.519
 3162SOL    HW221518   3.579   2.379   5.482
 3163SOL     OW21519   2.412   2.058   4.609
 3163SOL    HW121520   2.407   2.053   4.709
 3163SOL    HW221521   2.414   2.154   4.580
 3164SOL     OW21522   2.323   3.128   5.451
 3164SOL    HW121523   2.273   3.129   5.365
 3164SOL    HW221524   2.260   3.110   5.527
 3165SOL     OW21525   2.973   3.638   3.961
 3165SOL    HW121526   2.913   3.576   4.011
 3165SOL    HW221527   3.004   3.594   3.876
 3166SOL     OW21528   3.262   1.969   4.150
 3166SOL    HW121529   3.238   1.932   4.060
 3166SOL    HW221530   3.361   1.985   4.154
 3167SOL     OW21531   2.750   3.376   4.919
 3167SOL    HW121532   2.727   3.351   4.825
 3167SOL    HW221533   2.811   3.307   4.958
 3168SOL     OW21534   2.401   1.926   4.236
 3168SOL    HW121535   2.320   1.927   4.294
 3168SOL    HW221536   2.404   2.009   4.181
 3169SOL     OW21537   2.321   3.014   4.465
 3169SOL    HW121538   2.250   2.987   4.530
 3169SOL    HW221539   2.295   2.986   4.372
 3170SOL     OW21540   2.728   2.316   4.366
 3170SOL    HW121541   2.696   2.388   4.304
 3170SOL    HW221542   2.752   2.235   4.313
 3171SOL     OW21543   2.879   1.901   4.477
 3171SOL    HW121544   2.807   1.906   4.408
 3171SOL    HW221545   2.855   1.832   4.546
 3172SOL     OW21546   3.328   2.452   4.716
 3172SOL    HW121547   3.298   2.357   4.723
 3172SOL    HW221548   3.401   2.468   4.782
 3173SOL     OW21549   3.252   2.437   3.802
 3173SOL    HW121550   3.198   2.416   3.883
 3173SOL    HW221551   3.343   2.396   3.811
 3174SOL     OW21552   3.454   3.491   5.349
 3174SOL    HW121553   3.481   3.525   5.259
 3174SOL    HW221554   3.533   3.453   5.395
 3175SOL     OW21555   2.973   3.057   4.824
 3175SOL    HW121556   2.933   3.101   4.905
 3175SOL    HW221557   2.932   3.094   4.741
 3176SOL     OW21558   3.500   2.961   4.803
 3176SOL    HW121559   3.505   3.042   4.862
 3176SOL    HW221560   3.414   2.963   4.752
 3177SOL     OW21561   3.134   3.307   4.866
 3177SOL    HW121562   3.181   3.320   4.953
 3177SOL    HW221563   3.068   3.233   4.875
 3178SOL     OW21564   3.444   2.501   4.196
 3178SOL    HW121565   3.413   2.562   4.269
 3178SOL    HW221566   3.494   2.553   4.127
 3179SOL     OW21567   3.222   2.724   4.769
 3179SOL    HW121568   3.147   2.724   4.703
 3179SOL    HW221569   3.259   2.632   4.778
 3180SOL     OW21570   2.930   3.195   4.573
 3180SOL    HW121571   2.937   3.111   4.518
 3180SOL    HW221572   2.992   3.264   4.537
 3181SOL     OW21573   1.870   3.188   3.924
 3181SOL    HW121574   1.777   3.209   3.893
 3181SOL    HW221575   1.880   3.089   3.937
 3182SOL     OW21576   2.051   2.382   5.446
 3182SOL    HW121577   2.110   2.342   5.376
 3182SOL    HW221578   1.993   2.453   5.405
 3183SOL     OW21579   2.114   3.426   5.468
 3183SOL    HW121580   2.084   3.483   5.544
 3183SOL    HW221581   2.107   3.329   5.494
 3184SOL     OW21582   2.335   2.362   3.915
 3184SOL    HW121583   2.396   2.442   3.919
 3184SOL    HW221584   2.240   2.393   3.922
 3185SOL     OW21585   3.250   3.435   4.201
 3185SOL    HW121586   3.317   3.447   4.127
 3185SOL    HW221587   3.210   3.524   4.224
 3186SOL     OW21588   1.992   3.656   5.575
 3186SOL    HW121589   1.951   3.582   5.628
 3186SOL    HW221590   2.056   3.707   5.633
 3187SOL     OW21591   3.512   3.582   5.118
 3187SOL    HW121592   3.565   3.592   5.034
 3187SOL    HW221593   3.485   3.672   5.152
 3188SOL     OW21594   3.703   2.037   4.687
 3188SOL    HW121595   3.742   1.952   4.651
 3188SOL    HW221596   3.605   2.039   4.668
 3189SOL     OW21597   3.366   3.469   3.768
 3189SOL    HW121598   3.274   3.506   3.775
 3189SOL    HW221599   3.404   3.489   3.678
 3190SOL     OW21600   1.937   2.207   3.757
 3190SOL    HW121601   1.845   2.179   3.728
 3190SOL    HW221602   1.968   2.284   3.701
 3191SOL     OW21603   1.934   2.028   4.042
 3191SOL    HW121604   1.917   2.111   3.988
 3191SOL    HW221605   2.024   1.991   4.020
 3192SOL     OW21606   2.475   2.704   5.155
 3192SOL    HW121607   2.531   2.785   5.138
 3192SOL    HW221608   2.534   2.624   5.158
 3193SOL     OW21609   2.578   2.427   5.432
 3193SOL    HW121610   2.597   2.492   5.506
 3193SOL    HW221611   2.638   2.347   5.441
 3194SOL     OW21612   2.721   3.236   3.740
 3194SOL    HW121613   2.675   3.251   3.828
 3194SOL    HW221614   2.765   3.321   3.710
 3195SOL     OW21615   2.721   2.818   4.585
 3195SOL    HW121616   2.775   2.749   4.633
 3195SOL    HW221617   2.689   2.887   4.651
 3196SOL     OW21618   3.723   3.431   4.575
 3196SOL    HW121619   3.652   3.419   4.505
 3196SOL    HW221620   3.724   3.352   4.635
 3197SOL     OW21621   2.083   3.176   5.568
 3197SOL    HW121622   2.018   3.103   5.547
 3197SOL    HW221623   2.087   3.190   5.666
 3198SOL     OW21624   3.686   2.054   4.951
 3198SOL    HW121625   3.682   1.964   4.995
 3198SOL    HW221626   3.689   2.043   4.852
 3199SOL     OW21627   2.290   2.286   4.244
 3199SOL    HW121628   2.320   2.214   4.182
 3199SOL    HW221629   2.251   2.246   4.327
 3200SOL     OW21630   3.567   3.349   4.828
 3200SOL    HW121631   3.474   3.324   4.801
 3200SOL    HW221632   3.593   3.299   4.910
 3201SOL     OW21633   3.286   2.076   4.836
 3201SOL    HW121634   3.338   2.011   4.891
 3201SOL    HW221635   3.237   2.139   4.897
 3202SOL     OW21636   2.480   3.429   5.008
 3202SOL    HW121637   2.475   3.511   5.065
 3202SOL    HW221638   2.569   3.426   4.963
 3203SOL     OW21639   3.214   1.914   3.892
 3203SOL    HW121640   3.249   1.873   3.808
 3203SOL    HW221641   3.124   1.876   3.912
 3204SOL     OW21642   3.162   2.315   4.415
 3204SOL    HW121643   3.103   2.395   4.419
 3204SOL    HW221644   3.177   2.280   4.508
 3205SOL     OW21645   1.901   2.939   4.024
 3205SOL    HW121646   2.000   2.928   4.015
 3205SOL    HW221647   1.861   2.853   4.056
 3206SOL     OW21648   2.092   2.490   5.699
 3206SOL    HW121649   1.999   2.488   5.736
 3206SOL    HW221650   2.093   2.451   5.607
 3207SOL     OW21651   2.087   2.137   6.582
 3207SOL    HW121652   2.122   2.120   6.674
 3207SOL    HW221653   1.999   2.092   6.570
 3208SOL     OW21654   1.881   2.230   6.233
 3208SOL    HW121655   1.799   2.273   6.272
 3208SOL    HW221656   1.853   2.157   6.170
 3209SOL     OW21657   2.431   3.137   6.751
 3209SOL    HW121658   2.338   3.130   6.714
 3209SOL    HW221659   2.442   3.226   6.795
 3210SOL     OW21660   3.417   3.373   6.289
 3210SOL    HW121661   3.360   3.357   6.370
 3210SOL    HW221662   3.358   3.383   6.209
 3211SOL     OW21663   2.997   2.565   6.303
 3211SOL    HW121664   3.054   2.643   6.278
 3211SOL    HW221665   2.937   2.591   6.379
 3212SOL     OW21666   2.630   3.006   6.609
 3212SOL    HW121667   2.552   3.023   6.669
 3212SOL    HW221668   2.664   3.093   6.573
 3213SOL     OW21669   2.547   2.874   6.251
 3213SOL    HW121670   2.616   2.858   6.321
 3213SOL    HW221671   2.474   2.931   6.289
 3214SOL     OW21672   2.197   3.297   6.647
 3214SOL    HW121673   2.119   3.266   6.594
 3214SOL    HW221674   2.255   3.355   6.590
 3215SOL     OW21675   2.300   2.254   7.085
 3215SOL    HW121676   2.382   2.198   7.094
 3215SOL    HW221677   2.219   2.196   7.089
 3216SOL     OW21678   2.093   3.575   6.069
 3216SOL    HW121679   2.127   3.652   6.123
 3216SOL    HW221680   2.137   3.575   5.979
 3217SOL     OW21681   2.092   3.296   6.124
 3217SOL    HW121682   2.066   3.392   6.124
 3217SOL    HW221683   2.021   3.242   6.169
 3218SOL     OW21684   2.102   2.953   6.472
 3218SOL    HW121685   2.116   2.869   6.524
 3218SOL    HW221686   2.047   3.017   6.527
 3219SOL     OW21687   2.482   3.648   7.025
 3219SOL    HW121688   2.390   3.631   7.060
 3219SOL    HW221689   2.510   3.740   7.051
 3220SOL     OW21690   2.468   2.826   5.709
 3220SOL    HW121691   2.475   2.910   5.655
 3220SOL    HW221692   2.514   2.839   5.797
 3221SOL     OW21693   1.984   2.505   6.149
 3221SOL    HW121694   1.939   2.417   6.166
 3221SOL    HW221695   1.983   2.559   6.233
 3222SOL     OW21696   3.704   3.629   5.945
 3222SOL    HW121697   3.758   3.600   6.025
 3222SOL    HW221698   3.734   3.719   5.916
 3223SOL     OW21699   1.889   3.458   5.703
 3223SOL    HW121700   1.870   3.362   5.724
 3223SOL    HW221701   1.856   3.516   5.778
 3224SOL     OW21702   3.551   2.784   6.198
 3224SOL    HW121703   3.646   2.755   6.206
 3224SOL    HW221704   3.543   2.849   6.123
 3225SOL     OW21705   3.503   2.970   6.018
 3225SOL    HW121706   3.589   2.972   5.966
 3225SOL    HW221707   3.517   3.017   6.106
 3226SOL     OW21708   2.475   3.227   6.312
 3226SOL    HW121709   2.426   3.140   6.321
 3226SOL    HW221710   2.452   3.270   6.225
 3227SOL     OW21711   2.671   1.866   6.088
 3227SOL    HW121712   2.711   1.957   6.079
 3227SOL    HW221713   2.571   1.874   6.094
 3228SOL     OW21714   2.059   2.838   6.850
 3228SOL    HW121715   2.148   2.793   6.836
 3228SOL    HW221716   1.986   2.773   6.831
 3229SOL     OW21717   3.387   2.861   5.776
 3229SOL    HW121718   3.324   2.785   5.789
 3229SOL    HW221719   3.435   2.879   5.862
 3230SOL     OW21720   3.328   3.279   6.539
 3230SOL    HW121721   3.269   3.285   6.619
 3230SOL    HW221722   3.313   3.191   6.493
 3231SOL     OW21723   2.460   2.591   5.856
 3231SOL    HW121724   2.484   2.660   5.788
 3231SOL    HW221725   2.382   2.624   5.910
 3232SOL     OW21726   3.143   2.207   6.530
 3232SOL    HW121727   3.057   2.157   6.517
 3232SOL    HW221728   3.205   2.153   6.586
 3233SOL     OW21729   2.669   2.467   7.051
 3233SOL    HW121730   2.622   2.464   7.140
 3233SOL    HW221731   2.618   2.412   6.985
 3234SOL     OW21732   2.853   2.272   6.828
 3234SOL    HW121733   2.776   2.306   6.882
 3234SOL    HW221734   2.819   2.221   6.749
 3235SOL     OW21735   2.903   2.563   6.015
 3235SOL    HW121736   2.929   2.559   6.111
 3235SOL    HW221737   2.818   2.512   6.001
 3236SOL     OW21738   1.938   2.673   6.375
 3236SOL    HW121739   2.037   2.661   6.384
 3236SOL    HW221740   1.914   2.768   6.396
 3237SOL     OW21741   1.992   3.683   7.157
 3237SOL    HW121742   1.982   3.668   7.256
 3237SOL    HW221743   1.906   3.719   7.121
 3238SOL     OW21744   2.412   2.058   6.471
 3238SOL    HW121745   2.407   2.053   6.571
 3238SOL    HW221746   2.414   2.154   6.442
 3239SOL     OW21747   2.870   3.318   6.063
 3239SOL    HW121748   2.824   3.390   6.011
 3239SOL    HW221749   2.866   3.338   6.161
 3240SOL     OW21750   2.213   3.663   6.439
 3240SOL    HW121751   2.263   3.577   6.445
 3240SOL    HW221752   2.278   3.740   6.436
 3241SOL     OW21753   3.657   2.928   6.459
 3241SOL    HW121754   3.595   2.913   6.383
 3241SOL    HW221755   3.605   2.939   6.544
 3242SOL     OW21756   3.320   2.597   6.314
 3242SOL    HW121757   3.315   2.532   6.389
 3242SOL    HW221758   3.400   2.656   6.327
 3243SOL     OW21759   2.973   3.638   5.823
 3243SOL    HW121760   2.913   3.576   5.873
 3243SOL    HW221761   3.004   3.594   5.738
 3244SOL     OW21762   2.326   3.605   5.909
 3244SOL    HW121763   2.359   3.644   5.995
 3244SOL    HW221764   2.402   3.598   5.844
 3245SOL     OW21765   2.111   3.647   6.827
 3245SOL    HW121766   2.168   3.582   6.877
 3245SOL    HW221767   2.095   3.614   6.734
 3246SOL     OW21768   2.802   3.560   6.490
 3246SOL    HW121769   2.882   3.503   6.511
 3246SOL    HW221770   2.753   3.520   6.413
 3247SOL     OW21771   2.244   2.562   6.066
 3247SOL    HW121772   2.289   2.472   6.063
 3247SOL    HW221773   2.150   2.551   6.099
 3248SOL     OW21774   2.476   1.984   5.703
 3248SOL    HW121775   2.574   1.962   5.710
 3248SOL    HW221776   2.445   1.967   5.610
 3249SOL     OW21777   2.750   3.376   6.781
 3249SOL    HW121778   2.727   3.351   6.687
 3249SOL    HW221779   2.811   3.307   6.820
 3250SOL     OW21780   2.665   3.264   6.510
 3250SOL    HW121781   2.755   3.278   6.468
 3250SOL    HW221782   2.594   3.266   6.439
 3251SOL     OW21783   2.784   2.365   6.485
 3251SOL    HW121784   2.759   2.356   6.389
 3251SOL    HW221785   2.832   2.283   6.516
 3252SOL     OW21786   2.401   1.926   6.098
 3252SOL    HW121787   2.320   1.927   6.156
 3252SOL    HW221788   2.404   2.009   6.043
 3253SOL     OW21789   3.296   3.050   5.627
 3253SOL    HW121790   3.328   2.974   5.684
 3253SOL    HW221791   3.204   3.077   5.657
 3254SOL     OW21792   3.089   3.432   6.379
 3254SOL    HW121793   3.110   3.506   6.314
 3254SOL    HW221794   3.157   3.432   6.452
 3255SOL     OW21795   2.321   3.014   6.327
 3255SOL    HW121796   2.250   2.987   6.392
 3255SOL    HW221797   2.295   2.986   6.234
 3256SOL     OW21798   3.133   3.659   6.177
 3256SOL    HW121799   3.177   3.723   6.113
 3256SOL    HW221800   3.083   3.711   6.247
 3257SOL     OW21801   2.894   2.411   5.602
 3257SOL    HW121802   2.853   2.493   5.563
 3257SOL    HW221803   2.958   2.437   5.675
 3258SOL     OW21804   2.423   2.084   6.733
 3258SOL    HW121805   2.461   2.000   6.770
 3258SOL    HW221806   2.335   2.103   6.777
 3259SOL     OW21807   2.728   2.316   6.228
 3259SOL    HW121808   2.696   2.388   6.166
 3259SOL    HW221809   2.752   2.235   6.175
 3260SOL     OW21810   2.879   1.901   6.339
 3260SOL    HW121811   2.807   1.906   6.270
 3260SOL    HW221812   2.855   1.832   6.408
 3261SOL     OW21813   3.291   3.035   6.453
 3261SOL    HW121814   3.236   2.951   6.446
 3261SOL    HW221815   3.317   3.064   6.361
 3262SOL     OW21816   3.328   2.452   6.578
 3262SOL    HW121817   3.298   2.357   6.585
 3262SOL    HW221818   3.401   2.468   6.644
 3263SOL     OW21819   2.350   3.247   5.760
 3263SOL    HW121820   2.263   3.232   5.807
 3263SOL    HW221821   2.333   3.273   5.665
 3264SOL     OW21822   3.526   3.142   6.243
 3264SOL    HW121823   3.625   3.150   6.257
 3264SOL    HW221824   3.481   3.226   6.274
 3265SOL     OW21825   3.252   2.437   5.664
 3265SOL    HW121826   3.198   2.416   5.745
 3265SOL    HW221827   3.343   2.396   5.673
 3266SOL     OW21828   2.389   2.118   5.914
 3266SOL    HW121829   2.416   2.059   5.839
 3266SOL    HW221830   2.389   2.213   5.883
 3267SOL     OW21831   2.926   3.209   6.926
 3267SOL    HW121832   2.846   3.186   6.981
 3267SOL    HW221833   3.009   3.183   6.975
 3268SOL     OW21834   2.973   3.057   6.686
 3268SOL    HW121835   2.933   3.101   6.767
 3268SOL    HW221836   2.932   3.094   6.603
 3269SOL     OW21837   3.500   2.961   6.665
 3269SOL    HW121838   3.505   3.042   6.724
 3269SOL    HW221839   3.414   2.963   6.614
 3270SOL     OW21840   2.567   2.912   5.954
 3270SOL    HW121841   2.553   2.919   6.053
 3270SOL    HW221842   2.651   2.861   5.936
 3271SOL     OW21843   2.272   2.675   6.837
 3271SOL    HW121844   2.358   2.687   6.887
 3271SOL    HW221845   2.230   2.588   6.864
 3272SOL     OW21846   3.136   2.248   6.848
 3272SOL    HW121847   3.157   2.322   6.912
 3272SOL    HW221848   3.047   2.265   6.805
 3273SOL     OW21849   1.926   3.426   6.917
 3273SOL    HW121850   1.880   3.508   6.883
 3273SOL    HW221851   2.024   3.445   6.926
 3274SOL     OW21852   2.229   2.962   6.087
 3274SOL    HW121853   2.222   3.045   6.031
 3274SOL    HW221854   2.233   2.882   6.027
 3275SOL     OW21855   2.428   2.399   6.451
 3275SOL    HW121856   2.440   2.465   6.377
 3275SOL    HW221857   2.474   2.433   6.534
 3276SOL     OW21858   3.114   3.210   5.974
 3276SOL    HW121859   3.164   3.287   6.014
 3276SOL    HW221860   3.019   3.212   6.006
 3277SOL     OW21861   3.134   3.307   6.728
 3277SOL    HW121862   3.181   3.320   6.815
 3277SOL    HW221863   3.068   3.233   6.737
 3278SOL     OW21864   3.444   2.501   6.058
 3278SOL    HW121865   3.413   2.562   6.131
 3278SOL    HW221866   3.494   2.553   5.989
 3279SOL     OW21867   2.216   3.372   6.915
 3279SOL    HW121868   2.195   3.328   6.828
 3279SOL    HW221869   2.313   3.398   6.918
 3280SOL     OW21870   2.366   1.912   7.326
 3280SOL    HW121871   2.324   1.855   7.256
 3280SOL    HW221872   2.300   1.981   7.358
 3281SOL     OW21873   2.435   2.732   6.615
 3281SOL    HW121874   2.479   2.821   6.606
 3281SOL    HW221875   2.372   2.732   6.692
 3282SOL     OW21876   3.222   2.724   6.631
 3282SOL    HW121877   3.147   2.724   6.565
 3282SOL    HW221878   3.259   2.632   6.640
 3283SOL     OW21879   3.071   2.387   5.861
 3283SOL    HW121880   3.084   2.303   5.915
 3283SOL    HW221881   3.042   2.461   5.921
 3284SOL     OW21882   2.169   2.075   6.817
 3284SOL    HW121883   2.146   2.112   6.907
 3284SOL    HW221884   2.139   1.980   6.811
 3285SOL     OW21885   1.899   3.172   6.868
 3285SOL    HW121886   1.952   3.123   6.936
 3285SOL    HW221887   1.921   3.270   6.873
 3286SOL     OW21888   2.594   2.496   6.650
 3286SOL    HW121889   2.653   2.470   6.574
 3286SOL    HW221890   2.566   2.592   6.639
 3287SOL     OW21891   2.169   1.925   6.204
 3287SOL    HW121892   2.158   2.019   6.237
 3287SOL    HW221893   2.164   1.862   6.281
 3288SOL     OW21894   2.885   2.628   6.552
 3288SOL    HW121895   2.900   2.649   6.648
 3288SOL    HW221896   2.855   2.533   6.543
 3289SOL     OW21897   3.402   2.136   5.711
 3289SOL    HW121898   3.341   2.061   5.734
 3289SOL    HW221899   3.424   2.188   5.794
 3290SOL     OW21900   2.930   3.195   6.435
 3290SOL    HW121901   2.937   3.111   6.380
 3290SOL    HW221902   2.992   3.264   6.399
 3291SOL     OW21903   2.181   2.672   6.535
 3291SOL    HW121904   2.274   2.708   6.540
 3291SOL    HW221905   2.175   2.587   6.587
 3292SOL     OW21906   2.201   2.371   6.592
 3292SOL    HW121907   2.149   2.288   6.575
 3292SOL    HW221908   2.278   2.376   6.528
 3293SOL     OW21909   3.022   2.069   7.063
 3293SOL    HW121910   3.022   2.133   7.140
 3293SOL    HW221911   3.050   2.117   6.980
 3294SOL     OW21912   1.870   3.188   5.786
 3294SOL    HW121913   1.777   3.209   5.755
 3294SOL    HW221914   1.880   3.089   5.799
 3295SOL     OW21915   1.950   3.663   6.513
 3295SOL    HW121916   1.908   3.577   6.486
 3295SOL    HW221917   2.044   3.666   6.479
 3296SOL     OW21918   2.366   3.430   6.496
 3296SOL    HW121919   2.432   3.504   6.505
 3296SOL    HW221920   2.410   3.351   6.454
 3297SOL     OW21921   2.864   2.658   6.824
 3297SOL    HW121922   2.905   2.626   6.910
 3297SOL    HW221923   2.768   2.631   6.821
 3298SOL     OW21924   1.902   2.406   6.700
 3298SOL    HW121925   1.987   2.373   6.659
 3298SOL    HW221926   1.915   2.421   6.798
 3299SOL     OW21927   3.519   2.466   6.792
 3299SOL    HW121928   3.481   2.397   6.854
 3299SOL    HW221929   3.601   2.430   6.748
 3300SOL     OW21930   2.533   2.326   6.855
 3300SOL    HW121931   2.499   2.237   6.825
 3300SOL    HW221932   2.559   2.380   6.775
 3301SOL     OW21933   2.792   3.540   7.051
 3301SOL    HW121934   2.768   3.522   6.956
 3301SOL    HW221935   2.822   3.634   7.061
 3302SOL     OW21936   2.335   2.362   5.777
 3302SOL    HW121937   2.396   2.442   5.781
 3302SOL    HW221938   2.240   2.393   5.784
 3303SOL     OW21939   2.021   2.999   7.052
 3303SOL    HW121940   2.043   2.938   7.128
 3303SOL    HW221941   2.031   2.950   6.966
 3304SOL     OW21942   3.209   2.921   6.820
 3304SOL    HW121943   3.233   2.858   6.746
 3304SOL    HW221944   3.119   2.961   6.802
 3305SOL     OW21945   3.164   2.717   5.895
 3305SOL    HW121946   3.078   2.686   5.937
 3305SOL    HW221947   3.160   2.703   5.796
 3306SOL     OW21948   3.621   3.609   6.740
 3306SOL    HW121949   3.682   3.639   6.667
 3306SOL    HW221950   3.583   3.520   6.718
 3307SOL     OW21951   3.114   3.593   6.714
 3307SOL    HW121952   3.198   3.598   6.660
 3307SOL    HW221953   3.091   3.497   6.732
 3308SOL     OW21954   1.945   3.120   6.608
 3308SOL    HW121955   1.940   3.119   6.708
 3308SOL    HW221956   1.862   3.079   6.570
 3309SOL     OW21957   3.588   1.997   6.109
 3309SOL    HW121958   3.661   1.980   6.042
 3309SOL    HW221959   3.557   1.910   6.147
 3310SOL     OW21960   3.703   2.037   6.549
 3310SOL    HW121961   3.742   1.952   6.513
 3310SOL    HW221962   3.605   2.039   6.530
 3311SOL     OW21963   2.125   2.188   6.306
 3311SOL    HW121964   2.046   2.239   6.272
 3311SOL    HW221965   2.116   2.173   6.404
 3312SOL     OW21966   3.056   3.474   5.617
 3312SOL    HW121967   3.062   3.381   5.654
 3312SOL    HW221968   2.997   3.474   5.537
 3313SOL     OW21969   2.684   2.864   6.958
 3313SOL    HW121970   2.724   2.863   6.866
 3313SOL    HW221971   2.694   2.956   6.998
 3314SOL     OW21972   2.778   2.772   5.877
 3314SOL    HW121973   2.841   2.810   5.809
 3314SOL    HW221974   2.818   2.689   5.916
 3315SOL     OW21975   3.366   3.469   5.630
 3315SOL    HW121976   3.274   3.506   5.637
 3315SOL    HW221977   3.404   3.489   5.540
 3316SOL     OW21978   2.234   3.150   7.076
 3316SOL    HW121979   2.221   3.243   7.042
 3316SOL    HW221980   2.150   3.098   7.063
 3317SOL     OW21981   3.476   3.154   6.875
 3317SOL    HW121982   3.536   3.157   6.955
 3317SOL    HW221983   3.401   3.218   6.888
 3318SOL     OW21984   2.876   2.098   6.557
 3318SOL    HW121985   2.868   2.062   6.464
 3318SOL    HW221986   2.874   2.022   6.622
 3319SOL     OW21987   2.452   3.349   6.077
 3319SOL    HW121988   2.494   3.291   6.007
 3319SOL    HW221989   2.408   3.428   6.033
 3320SOL     OW21990   3.571   2.247   6.967
 3320SOL    HW121991   3.644   2.316   6.971
 3320SOL    HW221992   3.599   2.172   6.908
 3321SOL     OW21993   2.117   3.210   5.876
 3321SOL    HW121994   2.021   3.211   5.849
 3321SOL    HW221995   2.129   3.263   5.960
 3322SOL     OW21996   2.534   2.065   7.075
 3322SOL    HW121997   2.624   2.049   7.035
 3322SOL    HW221998   2.542   2.070   7.174
 3323SOL     OW21999   2.475   2.704   7.017
 3323SOL    HW122000   2.531   2.785   7.000
 3323SOL    HW222001   2.534   2.624   7.020
 3324SOL     OW22002   3.355   3.629   6.545
 3324SOL    HW122003   3.388   3.693   6.476
 3324SOL    HW222004   3.421   3.623   6.620
 3325SOL     OW22005   2.252   3.603   7.146
 3325SOL    HW122006   2.161   3.644   7.144
 3325SOL    HW222007   2.245   3.509   7.178
 3326SOL     OW22008   3.536   2.745   6.840
 3326SOL    HW122009   3.509   2.656   6.803
 3326SOL    HW222010   3.537   2.813   6.767
 3327SOL     OW22011   2.456   2.607   6.238
 3327SOL    HW122012   2.506   2.692   6.219
 3327SOL    HW222013   2.368   2.609   6.190
 3328SOL     OW22014   3.592   2.796   7.103
 3328SOL    HW122015   3.630   2.887   7.118
 3328SOL    HW222016   3.584   2.779   7.004
 3329SOL     OW22017   2.721   3.236   5.602
 3329SOL    HW122018   2.675   3.251   5.690
 3329SOL    HW222019   2.765   3.321   5.572
 3330SOL     OW22020   2.523   3.652   6.539
 3330SOL    HW122021   2.477   3.740   6.526
 3330SOL    HW222022   2.622   3.664   6.532
 3331SOL     OW22023   2.721   2.818   6.447
 3331SOL    HW122024   2.775   2.749   6.495
 3331SOL    HW222025   2.689   2.887   6.513
 3332SOL     OW22026   3.723   3.431   6.437
 3332SOL    HW122027   3.652   3.419   6.367
 3332SOL    HW222028   3.724   3.352   6.497
 3333SOL     OW22029   1.941   3.102   6.239
 3333SOL    HW122030   1.940   3.055   6.327
 3333SOL    HW222031   2.023   3.074   6.188
 3334SOL     OW22032   3.686   2.054   6.813
 3334SOL    HW122033   3.682   1.964   6.857
 3334SOL    HW222034   3.689   2.043   6.714
 3335SOL     OW22035   2.290   2.286   6.106
 3335SOL    HW122036   2.320   2.214   6.044
 3335SOL    HW222037   2.251   2.246   6.189
 3336SOL     OW22038   3.567   3.349   6.690
 3336SOL    HW122039   3.474   3.324   6.663
 3336SOL    HW222040   3.593   3.299   6.772
 3337SOL     OW22041   2.179   2.409   6.866
 3337SOL    HW122042   2.217   2.350   6.938
 3337SOL    HW222043   2.219   2.383   6.778
 3338SOL     OW22044   2.674   3.448   6.273
 3338SOL    HW122045   2.706   3.458   6.179
 3338SOL    HW222046   2.595   3.386   6.275
 3339SOL     OW22047   3.286   2.076   6.698
 3339SOL    HW122048   3.338   2.011   6.753
 3339SOL    HW222049   3.237   2.139   6.759
 3340SOL     OW22050   2.863   1.896   6.740
 3340SOL    HW122051   2.800   1.824   6.709
 3340SOL    HW222052   2.956   1.860   6.740
 3341SOL     OW22053   2.632   3.192   5.887
 3341SOL    HW122054   2.586   3.105   5.904
 3341SOL    HW222055   2.723   3.189   5.928
 3342SOL     OW22056   2.480   3.429   6.870
 3342SOL    HW122057   2.475   3.511   6.927
 3342SOL    HW222058   2.569   3.426   6.825
 3343SOL     OW22059   1.901   2.939   5.886
 3343SOL    HW122060   2.000   2.928   5.877
 3343SOL    HW222061   1.861   2.853   5.918
 3344SOL     OW22062   2.737   3.508   5.923
 3344SOL    HW122063   2.660   3.473   5.869
 3344SOL    HW222064   2.705   3.579   5.985
 3345SOL     OW22065   2.092   4.352   0.113
 3345SOL    HW122066   1.999   4.350   0.150
 3345SOL    HW222067   2.093   4.313   0.021
 3346SOL     OW22068   2.087   3.999   0.996
 3346SOL    HW122069   2.122   3.982   1.088
 3346SOL    HW222070   1.999   3.954   0.984
 3347SOL     OW22071   1.881   4.092   0.647
 3347SOL    HW122072   1.799   4.135   0.686
 3347SOL    HW222073   1.853   4.019   0.584
 3348SOL     OW22074   2.431   4.999   1.165
 3348SOL    HW122075   2.338   4.992   1.128
 3348SOL    HW222076   2.442   5.088   1.209
 3349SOL     OW22077   3.417   5.235   0.703
 3349SOL    HW122078   3.360   5.219   0.784
 3349SOL    HW222079   3.358   5.245   0.623
 3350SOL     OW22080   2.997   4.427   0.717
 3350SOL    HW122081   3.054   4.505   0.692
 3350SOL    HW222082   2.937   4.453   0.793
 3351SOL     OW22083   3.617   4.331   0.231
 3351SOL    HW122084   3.605   4.318   0.132
 3351SOL    HW222085   3.587   4.250   0.280
 3352SOL     OW22086   2.630   4.868   1.023
 3352SOL    HW122087   2.552   4.885   1.083
 3352SOL    HW222088   2.664   4.955   0.987
 3353SOL     OW22089   2.547   4.736   0.665
 3353SOL    HW122090   2.616   4.720   0.735
 3353SOL    HW222091   2.474   4.793   0.703
 3354SOL     OW22092   2.197   5.159   1.061
 3354SOL    HW122093   2.119   5.128   1.008
 3354SOL    HW222094   2.255   5.217   1.004
 3355SOL     OW22095   3.322   5.229   1.339
 3355SOL    HW122096   3.346   5.323   1.365
 3355SOL    HW222097   3.306   5.175   1.421
 3356SOL     OW22098   2.300   4.116   1.499
 3356SOL    HW122099   2.382   4.060   1.508
 3356SOL    HW222100   2.219   4.058   1.503
 3357SOL     OW22101   3.465   4.171   0.737
 3357SOL    HW122102   3.391   4.217   0.687
 3357SOL    HW222103   3.516   4.239   0.790
 3358SOL     OW22104   2.093   5.437   0.483
 3358SOL    HW122105   2.127   5.514   0.537
 3358SOL    HW222106   2.137   5.437   0.393
 3359SOL     OW22107   2.092   5.158   0.538
 3359SOL    HW122108   2.066   5.254   0.538
 3359SOL    HW222109   2.021   5.104   0.583
 3360SOL     OW22110   2.102   4.815   0.886
 3360SOL    HW122111   2.116   4.731   0.938
 3360SOL    HW222112   2.047   4.879   0.941
 3361SOL     OW22113   2.482   5.510   1.439
 3361SOL    HW122114   2.390   5.493   1.474
 3361SOL    HW222115   2.510   5.602   1.465
 3362SOL     OW22116   2.468   4.688   0.123
 3362SOL    HW122117   2.475   4.772   0.069
 3362SOL    HW222118   2.514   4.701   0.211
 3363SOL     OW22119   3.456   3.838   1.480
 3363SOL    HW122120   3.438   3.905   1.408
 3363SOL    HW222121   3.453   3.884   1.569
 3364SOL     OW22122   1.984   4.367   0.563
 3364SOL    HW122123   1.939   4.279   0.580
 3364SOL    HW222124   1.983   4.421   0.647
 3365SOL     OW22125   3.704   5.491   0.359
 3365SOL    HW122126   3.758   5.462   0.439
 3365SOL    HW222127   3.734   5.581   0.330
 3366SOL     OW22128   1.889   5.320   0.117
 3366SOL    HW122129   1.870   5.224   0.138
 3366SOL    HW222130   1.856   5.378   0.192
 3367SOL     OW22131   3.551   4.646   0.612
 3367SOL    HW122132   3.646   4.617   0.620
 3367SOL    HW222133   3.543   4.711   0.537
 3368SOL     OW22134   3.503   4.832   0.432
 3368SOL    HW122135   3.589   4.834   0.380
 3368SOL    HW222136   3.517   4.879   0.520
 3369SOL     OW22137   2.475   5.089   0.726
 3369SOL    HW122138   2.426   5.002   0.735
 3369SOL    HW222139   2.452   5.132   0.639
 3370SOL     OW22140   3.155   4.952   1.423
 3370SOL    HW122141   3.192   4.879   1.365
 3370SOL    HW222142   3.207   4.957   1.508
 3371SOL     OW22143   2.671   3.728   0.502
 3371SOL    HW122144   2.711   3.819   0.493
 3371SOL    HW222145   2.571   3.736   0.508
 3372SOL     OW22146   2.059   4.700   1.264
 3372SOL    HW122147   2.148   4.655   1.250
 3372SOL    HW222148   1.986   4.635   1.245
 3373SOL     OW22149   3.387   4.723   0.190
 3373SOL    HW122150   3.324   4.647   0.203
 3373SOL    HW222151   3.435   4.741   0.276
 3374SOL     OW22152   2.179   3.975   1.801
 3374SOL    HW122153   2.250   4.046   1.807
 3374SOL    HW222154   2.091   4.014   1.829
 3375SOL     OW22155   3.328   5.141   0.953
 3375SOL    HW122156   3.269   5.147   1.033
 3375SOL    HW222157   3.313   5.053   0.907
 3376SOL     OW22158   3.529   5.438   0.572
 3376SOL    HW122159   3.488   5.415   0.484
 3376SOL    HW222160   3.511   5.364   0.637
 3377SOL     OW22161   2.460   4.453   0.270
 3377SOL    HW122162   2.484   4.522   0.202
 3377SOL    HW222163   2.382   4.486   0.324
 3378SOL     OW22164   3.143   4.069   0.944
 3378SOL    HW122165   3.057   4.019   0.931
 3378SOL    HW222166   3.205   4.015   1.000
 3379SOL     OW22167   3.438   5.386   0.307
 3379SOL    HW122168   3.527   5.432   0.310
 3379SOL    HW222169   3.417   5.362   0.212
 3380SOL     OW22170   2.669   4.329   1.465
 3380SOL    HW122171   2.622   4.326   1.554
 3380SOL    HW222172   2.618   4.274   1.399
 3381SOL     OW22173   2.835   4.614   1.572
 3381SOL    HW122174   2.881   4.530   1.543
 3381SOL    HW222175   2.779   4.648   1.497
 3382SOL     OW22176   2.853   4.134   1.242
 3382SOL    HW122177   2.776   4.168   1.296
 3382SOL    HW222178   2.819   4.083   1.163
 3383SOL     OW22179   2.903   4.425   0.429
 3383SOL    HW122180   2.929   4.421   0.525
 3383SOL    HW222181   2.818   4.374   0.415
 3384SOL     OW22182   1.938   4.535   0.789
 3384SOL    HW122183   2.037   4.523   0.798
 3384SOL    HW222184   1.914   4.630   0.810
 3385SOL     OW22185   2.727   4.072   0.195
 3385SOL    HW122186   2.786   4.135   0.146
 3385SOL    HW222187   2.746   3.978   0.166
 3386SOL     OW22188   3.581   4.309   1.831
 3386SOL    HW122189   3.555   4.398   1.795
 3386SOL    HW222190   3.579   4.241   1.758
 3387SOL     OW22191   3.224   4.868   0.545
 3387SOL    HW122192   3.307   4.839   0.497
 3387SOL    HW222193   3.175   4.935   0.489
 3388SOL     OW22194   2.412   3.920   0.885
 3388SOL    HW122195   2.407   3.915   0.985
 3388SOL    HW222196   2.414   4.016   0.856
 3389SOL     OW22197   2.870   5.180   0.477
 3389SOL    HW122198   2.824   5.252   0.425
 3389SOL    HW222199   2.866   5.200   0.575
 3390SOL     OW22200   2.213   5.525   0.853
 3390SOL    HW122201   2.263   5.439   0.859
 3390SOL    HW222202   2.278   5.602   0.850
 3391SOL     OW22203   3.657   4.790   0.873
 3391SOL    HW122204   3.595   4.775   0.797
 3391SOL    HW222205   3.605   4.801   0.958
 3392SOL     OW22206   3.089   5.274   1.506
 3392SOL    HW122207   3.095   5.197   1.570
 3392SOL    HW222208   3.037   5.248   1.426
 3393SOL     OW22209   2.183   4.667   0.242
 3393SOL    HW122210   2.265   4.706   0.200
 3393SOL    HW222211   2.156   4.585   0.193
 3394SOL     OW22212   3.320   4.459   0.728
 3394SOL    HW122213   3.315   4.394   0.803
 3394SOL    HW222214   3.400   4.518   0.741
 3395SOL     OW22215   2.323   4.990   1.727
 3395SOL    HW122216   2.273   4.991   1.641
 3395SOL    HW222217   2.260   4.972   1.803
 3396SOL     OW22218   2.973   5.500   0.237
 3396SOL    HW122219   2.913   5.438   0.287
 3396SOL    HW222220   3.004   5.456   0.152
 3397SOL     OW22221   3.494   5.101   0.081
 3397SOL    HW122222   3.462   5.195   0.071
 3397SOL    HW222223   3.418   5.038   0.069
 3398SOL     OW22224   2.326   5.467   0.323
 3398SOL    HW122225   2.359   5.506   0.409
 3398SOL    HW222226   2.402   5.460   0.258
 3399SOL     OW22227   3.262   3.831   0.426
 3399SOL    HW122228   3.238   3.794   0.336
 3399SOL    HW222229   3.361   3.847   0.430
 3400SOL     OW22230   2.111   5.509   1.241
 3400SOL    HW122231   2.168   5.444   1.291
 3400SOL    HW222232   2.095   5.476   1.148
 3401SOL     OW22233   2.802   5.422   0.904
 3401SOL    HW122234   2.882   5.365   0.925
 3401SOL    HW222235   2.753   5.382   0.827
 3402SOL     OW22236   2.244   4.424   0.480
 3402SOL    HW122237   2.289   4.334   0.477
 3402SOL    HW222238   2.150   4.413   0.513
 3403SOL     OW22239   3.409   3.946   1.729
 3403SOL    HW122240   3.404   3.983   1.821
 3403SOL    HW222241   3.337   3.877   1.717
 3404SOL     OW22242   2.750   5.238   1.195
 3404SOL    HW122243   2.727   5.213   1.101
 3404SOL    HW222244   2.811   5.169   1.234
 3405SOL     OW22245   2.665   5.126   0.924
 3405SOL    HW122246   2.755   5.140   0.882
 3405SOL    HW222247   2.594   5.128   0.853
 3406SOL     OW22248   2.784   4.227   0.899
 3406SOL    HW122249   2.759   4.218   0.803
 3406SOL    HW222250   2.832   4.145   0.930
 3407SOL     OW22251   2.401   3.788   0.512
 3407SOL    HW122252   2.320   3.789   0.570
 3407SOL    HW222253   2.404   3.871   0.457
 3408SOL     OW22254   3.296   4.912   0.041
 3408SOL    HW122255   3.328   4.836   0.098
 3408SOL    HW222256   3.204   4.939   0.071
 3409SOL     OW22257   2.797   3.960   0.480
 3409SOL    HW122258   2.749   4.001   0.402
 3409SOL    HW222259   2.896   3.958   0.461
 3410SOL     OW22260   2.938   4.407   1.464
 3410SOL    HW122261   2.858   4.346   1.467
 3410SOL    HW222262   3.019   4.354   1.440
 3411SOL     OW22263   3.089   5.294   0.793
 3411SOL    HW122264   3.110   5.368   0.728
 3411SOL    HW222265   3.157   5.294   0.866
 3412SOL     OW22266   2.321   4.876   0.741
 3412SOL    HW122267   2.250   4.849   0.806
 3412SOL    HW222268   2.295   4.848   0.648
 3413SOL     OW22269   3.133   5.521   0.591
 3413SOL    HW122270   3.177   5.585   0.527
 3413SOL    HW222271   3.083   5.573   0.661
 3414SOL     OW22272   2.894   4.273   0.016
 3414SOL    HW122273   2.853   4.355  -0.023
 3414SOL    HW222274   2.958   4.299   0.089
 3415SOL     OW22275   1.940   4.280   1.386
 3415SOL    HW122276   2.032   4.279   1.345
 3415SOL    HW222277   1.934   4.354   1.453
 3416SOL     OW22278   2.423   3.946   1.147
 3416SOL    HW122279   2.461   3.862   1.184
 3416SOL    HW222280   2.335   3.965   1.191
 3417SOL     OW22281   2.728   4.178   0.642
 3417SOL    HW122282   2.696   4.250   0.580
 3417SOL    HW222283   2.752   4.097   0.589
 3418SOL     OW22284   2.879   3.763   0.753
 3418SOL    HW122285   2.807   3.768   0.684
 3418SOL    HW222286   2.855   3.694   0.822
 3419SOL     OW22287   3.291   4.897   0.867
 3419SOL    HW122288   3.236   4.813   0.860
 3419SOL    HW222289   3.317   4.926   0.775
 3420SOL     OW22290   3.328   4.314   0.992
 3420SOL    HW122291   3.298   4.219   0.999
 3420SOL    HW222292   3.401   4.330   1.058
 3421SOL     OW22293   3.719   4.557   0.377
 3421SOL    HW122294   3.761   4.493   0.441
 3421SOL    HW222295   3.681   4.506   0.299
 3422SOL     OW22296   2.350   5.109   0.174
 3422SOL    HW122297   2.263   5.094   0.221
 3422SOL    HW222298   2.333   5.135   0.079
 3423SOL     OW22299   3.526   5.004   0.657
 3423SOL    HW122300   3.625   5.012   0.671
 3423SOL    HW222301   3.481   5.088   0.688
 3424SOL     OW22302   3.252   4.299   0.078
 3424SOL    HW122303   3.198   4.278   0.159
 3424SOL    HW222304   3.343   4.258   0.087
 3425SOL     OW22305   2.389   3.980   0.328
 3425SOL    HW122306   2.416   3.921   0.253
 3425SOL    HW222307   2.389   4.075   0.297
 3426SOL     OW22308   3.616   4.947   1.588
 3426SOL    HW122309   3.707   4.908   1.575
 3426SOL    HW222310   3.624   5.043   1.612
 3427SOL     OW22311   2.926   5.071   1.340
 3427SOL    HW122312   2.846   5.048   1.395
 3427SOL    HW222313   3.009   5.045   1.389
 3428SOL     OW22314   3.454   5.353   1.625
 3428SOL    HW122315   3.481   5.387   1.535
 3428SOL    HW222316   3.533   5.315   1.671
 3429SOL     OW22317   2.973   4.919   1.100
 3429SOL    HW122318   2.933   4.963   1.181
 3429SOL    HW222319   2.932   4.956   1.017
 3430SOL     OW22320   3.500   4.823   1.079
 3430SOL    HW122321   3.505   4.904   1.138
 3430SOL    HW222322   3.414   4.825   1.028
 3431SOL     OW22323   2.777   3.813   1.402
 3431SOL    HW122324   2.802   3.793   1.307
 3431SOL    HW222325   2.849   3.869   1.444
 3432SOL     OW22326   2.567   4.774   0.368
 3432SOL    HW122327   2.553   4.781   0.467
 3432SOL    HW222328   2.651   4.723   0.350
 3433SOL     OW22329   2.272   4.537   1.251
 3433SOL    HW122330   2.358   4.549   1.301
 3433SOL    HW222331   2.230   4.450   1.278
 3434SOL     OW22332   3.136   4.110   1.262
 3434SOL    HW122333   3.157   4.184   1.326
 3434SOL    HW222334   3.047   4.127   1.219
 3435SOL     OW22335   1.926   5.288   1.331
 3435SOL    HW122336   1.880   5.370   1.297
 3435SOL    HW222337   2.024   5.307   1.340
 3436SOL     OW22338   2.229   4.824   0.501
 3436SOL    HW122339   2.222   4.907   0.445
 3436SOL    HW222340   2.233   4.744   0.441
 3437SOL     OW22341   2.428   4.261   0.865
 3437SOL    HW122342   2.440   4.327   0.791
 3437SOL    HW222343   2.474   4.295   0.948
 3438SOL     OW22344   3.114   5.072   0.388
 3438SOL    HW122345   3.164   5.149   0.428
 3438SOL    HW222346   3.019   5.074   0.420
 3439SOL     OW22347   3.134   5.169   1.142
 3439SOL    HW122348   3.181   5.182   1.229
 3439SOL    HW222349   3.068   5.095   1.151
 3440SOL     OW22350   3.444   4.363   0.472
 3440SOL    HW122351   3.413   4.424   0.545
 3440SOL    HW222352   3.494   4.415   0.403
 3441SOL     OW22353   2.216   5.234   1.329
 3441SOL    HW122354   2.195   5.190   1.242
 3441SOL    HW222355   2.313   5.260   1.332
 3442SOL     OW22356   2.264   4.475   1.598
 3442SOL    HW122357   2.332   4.530   1.551
 3442SOL    HW222358   2.304   4.387   1.625
 3443SOL     OW22359   2.435   4.594   1.029
 3443SOL    HW122360   2.479   4.683   1.020
 3443SOL    HW222361   2.372   4.594   1.106
 3444SOL     OW22362   3.222   4.586   1.045
 3444SOL    HW122363   3.147   4.586   0.979
 3444SOL    HW222364   3.259   4.494   1.054
 3445SOL     OW22365   3.071   4.249   0.275
 3445SOL    HW122366   3.084   4.165   0.329
 3445SOL    HW222367   3.042   4.323   0.335
 3446SOL     OW22368   1.899   5.034   1.282
 3446SOL    HW122369   1.952   4.985   1.350
 3446SOL    HW222370   1.921   5.132   1.287
 3447SOL     OW22371   2.594   4.358   1.064
 3447SOL    HW122372   2.653   4.332   0.988
 3447SOL    HW222373   2.566   4.454   1.053
 3448SOL     OW22374   3.590   4.659   1.854
 3448SOL    HW122375   3.544   4.652   1.765
 3448SOL    HW222376   3.528   4.703   1.920
 3449SOL     OW22377   2.169   3.787   0.618
 3449SOL    HW122378   2.158   3.881   0.651
 3449SOL    HW222379   2.164   3.724   0.695
 3450SOL     OW22380   3.484   4.091   0.374
 3450SOL    HW122381   3.486   4.015   0.438
 3450SOL    HW222382   3.436   4.168   0.414
 3451SOL     OW22383   2.885   4.490   0.966
 3451SOL    HW122384   2.900   4.511   1.062
 3451SOL    HW222385   2.855   4.395   0.957
 3452SOL     OW22386   2.842   5.297   1.700
 3452SOL    HW122387   2.822   5.341   1.612
 3452SOL    HW222388   2.881   5.206   1.684
 3453SOL     OW22389   3.721   5.242   1.605
 3453SOL    HW122390   3.735   5.269   1.510
 3453SOL    HW222391   3.804   5.264   1.658
 3454SOL     OW22392   3.402   3.998   0.125
 3454SOL    HW122393   3.341   3.923   0.148
 3454SOL    HW222394   3.424   4.050   0.208
 3455SOL     OW22395   3.165   4.562   0.042
 3455SOL    HW122396   3.199   4.469   0.057
 3455SOL    HW222397   3.183   4.589  -0.053
 3456SOL     OW22398   2.930   5.057   0.849
 3456SOL    HW122399   2.937   4.973   0.794
 3456SOL    HW222400   2.992   5.126   0.813
 3457SOL     OW22401   2.181   4.534   0.949
 3457SOL    HW122402   2.274   4.570   0.954
 3457SOL    HW222403   2.175   4.449   1.001
 3458SOL     OW22404   2.201   4.233   1.006
 3458SOL    HW122405   2.149   4.150   0.989
 3458SOL    HW222406   2.278   4.238   0.942
 3459SOL     OW22407   3.022   3.931   1.477
 3459SOL    HW122408   3.022   3.995   1.554
 3459SOL    HW222409   3.050   3.979   1.394
 3460SOL     OW22410   1.870   5.050   0.200
 3460SOL    HW122411   1.777   5.071   0.169
 3460SOL    HW222412   1.880   4.951   0.213
 3461SOL     OW22413   1.950   5.525   0.927
 3461SOL    HW122414   1.908   5.439   0.900
 3461SOL    HW222415   2.044   5.528   0.893
 3462SOL     OW22416   2.366   5.292   0.910
 3462SOL    HW122417   2.432   5.366   0.919
 3462SOL    HW222418   2.410   5.213   0.868
 3463SOL     OW22419   2.864   4.520   1.238
 3463SOL    HW122420   2.905   4.488   1.324
 3463SOL    HW222421   2.768   4.493   1.235
 3464SOL     OW22422   1.902   4.268   1.114
 3464SOL    HW122423   1.987   4.235   1.073
 3464SOL    HW222424   1.915   4.283   1.212
 3465SOL     OW22425   3.231   4.674   1.660
 3465SOL    HW122426   3.270   4.763   1.680
 3465SOL    HW222427   3.241   4.654   1.563
 3466SOL     OW22428   2.677   4.296   0.325
 3466SOL    HW122429   2.684   4.207   0.279
 3466SOL    HW222430   2.583   4.330   0.317
 3467SOL     OW22431   3.519   4.328   1.206
 3467SOL    HW122432   3.481   4.259   1.268
 3467SOL    HW222433   3.601   4.292   1.162
 3468SOL     OW22434   2.533   4.188   1.269
 3468SOL    HW122435   2.499   4.099   1.239
 3468SOL    HW222436   2.559   4.242   1.189
 3469SOL     OW22437   2.792   5.402   1.465
 3469SOL    HW122438   2.768   5.384   1.370
 3469SOL    HW222439   2.822   5.496   1.475
 3470SOL     OW22440   2.335   4.224   0.191
 3470SOL    HW122441   2.396   4.304   0.195
 3470SOL    HW222442   2.240   4.255   0.198
 3471SOL     OW22443   2.021   4.861   1.466
 3471SOL    HW122444   2.043   4.800   1.542
 3471SOL    HW222445   2.031   4.812   1.380
 3472SOL     OW22446   3.209   4.783   1.234
 3472SOL    HW122447   3.233   4.720   1.160
 3472SOL    HW222448   3.119   4.823   1.216
 3473SOL     OW22449   3.164   4.579   0.309
 3473SOL    HW122450   3.078   4.548   0.351
 3473SOL    HW222451   3.160   4.565   0.210
 3474SOL     OW22452   3.621   5.471   1.154
 3474SOL    HW122453   3.682   5.501   1.081
 3474SOL    HW222454   3.583   5.382   1.132
 3475SOL     OW22455   3.114   5.455   1.128
 3475SOL    HW122456   3.198   5.460   1.074
 3475SOL    HW222457   3.091   5.359   1.146
 3476SOL     OW22458   1.945   4.982   1.022
 3476SOL    HW122459   1.940   4.981   1.122
 3476SOL    HW222460   1.862   4.941   0.984
 3477SOL     OW22461   2.765   3.810   0.133
 3477SOL    HW122462   2.816   3.811   0.047
 3477SOL    HW222463   2.821   3.768   0.204
 3478SOL     OW22464   3.588   3.859   0.523
 3478SOL    HW122465   3.661   3.842   0.456
 3478SOL    HW222466   3.557   3.772   0.561
 3479SOL     OW22467   3.250   5.297   0.477
 3479SOL    HW122468   3.317   5.309   0.403
 3479SOL    HW222469   3.210   5.386   0.500
 3480SOL     OW22470   3.142   4.651   0.672
 3480SOL    HW122471   3.202   4.570   0.674
 3480SOL    HW222472   3.182   4.720   0.612
 3481SOL     OW22473   2.692   4.997   1.422
 3481SOL    HW122474   2.687   5.030   1.517
 3481SOL    HW222475   2.606   5.016   1.376
 3482SOL     OW22476   2.534   5.340   0.154
 3482SOL    HW122477   2.543   5.350   0.055
 3482SOL    HW222478   2.494   5.251   0.175
 3483SOL     OW22479   3.512   5.444   1.394
 3483SOL    HW122480   3.565   5.454   1.310
 3483SOL    HW222481   3.485   5.534   1.428
 3484SOL     OW22482   3.703   3.899   0.963
 3484SOL    HW122483   3.742   3.814   0.927
 3484SOL    HW222484   3.605   3.901   0.944
 3485SOL     OW22485   2.125   4.050   0.720
 3485SOL    HW122486   2.046   4.101   0.686
 3485SOL    HW222487   2.116   4.035   0.818
 3486SOL     OW22488   3.056   5.336   0.031
 3486SOL    HW122489   3.062   5.243   0.068
 3486SOL    HW222490   2.997   5.336  -0.049
 3487SOL     OW22491   2.684   4.726   1.372
 3487SOL    HW122492   2.724   4.725   1.280
 3487SOL    HW222493   2.694   4.818   1.412
 3488SOL     OW22494   2.778   4.634   0.291
 3488SOL    HW122495   2.841   4.672   0.223
 3488SOL    HW222496   2.818   4.551   0.330
 3489SOL     OW22497   3.366   5.331   0.044
 3489SOL    HW122498   3.274   5.368   0.051
 3489SOL    HW222499   3.404   5.351  -0.046
 3490SOL     OW22500   2.234   5.012   1.490
 3490SOL    HW122501   2.221   5.105   1.456
 3490SOL    HW222502   2.150   4.960   1.477
 3491SOL     OW22503   3.476   5.016   1.289
 3491SOL    HW122504   3.536   5.019   1.369
 3491SOL    HW222505   3.401   5.080   1.302
 3492SOL     OW22506   2.901   4.822   0.696
 3492SOL    HW122507   2.831   4.775   0.750
 3492SOL    HW222508   2.960   4.754   0.653
 3493SOL     OW22509   2.876   3.960   0.971
 3493SOL    HW122510   2.868   3.924   0.878
 3493SOL    HW222511   2.874   3.884   1.036
 3494SOL     OW22512   2.452   5.211   0.491
 3494SOL    HW122513   2.494   5.153   0.421
 3494SOL    HW222514   2.408   5.290   0.447
 3495SOL     OW22515   3.571   4.109   1.381
 3495SOL    HW122516   3.644   4.178   1.385
 3495SOL    HW222517   3.599   4.034   1.322
 3496SOL     OW22518   2.117   5.072   0.290
 3496SOL    HW122519   2.021   5.073   0.263
 3496SOL    HW222520   2.129   5.125   0.374
 3497SOL     OW22521   1.967   4.737   1.726
 3497SOL    HW122522   1.890   4.704   1.780
 3497SOL    HW222523   2.052   4.707   1.768
 3498SOL     OW22524   2.534   3.927   1.489
 3498SOL    HW122525   2.624   3.911   1.449
 3498SOL    HW222526   2.542   3.932   1.588
 3499SOL     OW22527   1.937   4.069   0.033
 3499SOL    HW122528   1.845   4.041   0.004
 3499SOL    HW222529   1.968   4.146  -0.023
 3500SOL     OW22530   1.934   3.890   0.318
 3500SOL    HW122531   1.917   3.973   0.264
 3500SOL    HW222532   2.024   3.853   0.296
 3501SOL     OW22533   3.045   5.059   0.119
 3501SOL    HW122534   2.946   5.048   0.121
 3501SOL    HW222535   3.079   5.074   0.212
 3502SOL     OW22536   2.475   4.566   1.431
 3502SOL    HW122537   2.531   4.647   1.414
 3502SOL    HW222538   2.534   4.486   1.434
 3503SOL     OW22539   3.355   5.491   0.959
 3503SOL    HW122540   3.388   5.555   0.890
 3503SOL    HW222541   3.421   5.485   1.034
 3504SOL     OW22542   3.312   4.944   1.633
 3504SOL    HW122543   3.303   4.934   1.732
 3504SOL    HW222544   3.408   4.937   1.607
 3505SOL     OW22545   3.536   4.607   1.254
 3505SOL    HW122546   3.509   4.518   1.217
 3505SOL    HW222547   3.537   4.675   1.181
 3506SOL     OW22548   3.087   4.049   0.449
 3506SOL    HW122549   3.152   3.975   0.438
 3506SOL    HW222550   3.107   4.099   0.533
 3507SOL     OW22551   2.456   4.469   0.652
 3507SOL    HW122552   2.506   4.554   0.633
 3507SOL    HW222553   2.368   4.471   0.604
 3508SOL     OW22554   3.639   4.066   1.642
 3508SOL    HW122555   3.622   4.097   1.548
 3508SOL    HW222556   3.555   4.029   1.680
 3509SOL     OW22557   3.592   4.658   1.517
 3509SOL    HW122558   3.630   4.749   1.532
 3509SOL    HW222559   3.584   4.641   1.418
 3510SOL     OW22560   2.721   5.098   0.016
 3510SOL    HW122561   2.675   5.113   0.104
 3510SOL    HW222562   2.765   5.183  -0.014
 3511SOL     OW22563   2.523   5.514   0.953
 3511SOL    HW122564   2.477   5.602   0.940
 3511SOL    HW222565   2.622   5.526   0.946
 3512SOL     OW22566   2.721   4.680   0.861
 3512SOL    HW122567   2.775   4.611   0.909
 3512SOL    HW222568   2.689   4.749   0.927
 3513SOL     OW22569   2.945   4.708   0.087
 3513SOL    HW122570   2.922   4.761   0.005
 3513SOL    HW222571   3.026   4.652   0.068
 3514SOL     OW22572   3.723   5.293   0.851
 3514SOL    HW122573   3.652   5.281   0.781
 3514SOL    HW222574   3.724   5.214   0.911
 3515SOL     OW22575   1.941   4.964   0.653
 3515SOL    HW122576   1.940   4.917   0.741
 3515SOL    HW222577   2.023   4.936   0.602
 3516SOL     OW22578   2.534   5.115   1.624
 3516SOL    HW122579   2.456   5.065   1.662
 3516SOL    HW222580   2.531   5.210   1.655
 3517SOL     OW22581   3.686   3.916   1.227
 3517SOL    HW122582   3.682   3.826   1.271
 3517SOL    HW222583   3.689   3.905   1.128
 3518SOL     OW22584   2.290   4.148   0.520
 3518SOL    HW122585   2.320   4.076   0.458
 3518SOL    HW222586   2.251   4.108   0.603
 3519SOL     OW22587   3.567   5.211   1.104
 3519SOL    HW122588   3.474   5.186   1.077
 3519SOL    HW222589   3.593   5.161   1.186
 3520SOL     OW22590   2.179   4.271   1.280
 3520SOL    HW122591   2.217   4.212   1.352
 3520SOL    HW222592   2.219   4.245   1.192
 3521SOL     OW22593   2.674   5.310   0.687
 3521SOL    HW122594   2.706   5.320   0.593
 3521SOL    HW222595   2.595   5.248   0.689
 3522SOL     OW22596   3.286   3.938   1.112
 3522SOL    HW122597   3.338   3.873   1.167
 3522SOL    HW222598   3.237   4.001   1.173
 3523SOL     OW22599   2.863   3.758   1.154
 3523SOL    HW122600   2.800   3.686   1.123
 3523SOL    HW222601   2.956   3.722   1.154
 3524SOL     OW22602   2.632   5.054   0.301
 3524SOL    HW122603   2.586   4.967   0.318
 3524SOL    HW222604   2.723   5.051   0.342
 3525SOL     OW22605   2.480   5.291   1.284
 3525SOL    HW122606   2.475   5.373   1.341
 3525SOL    HW222607   2.569   5.288   1.239
 3526SOL     OW22608   3.214   3.776   0.168
 3526SOL    HW122609   3.249   3.735   0.084
 3526SOL    HW222610   3.124   3.738   0.188
 3527SOL     OW22611   3.162   4.177   0.691
 3527SOL    HW122612   3.103   4.257   0.695
 3527SOL    HW222613   3.177   4.142   0.784
 3528SOL     OW22614   3.455   3.945   0.882
 3528SOL    HW122615   3.371   3.944   0.936
 3528SOL    HW222616   3.457   4.028   0.826
 3529SOL     OW22617   1.901   4.801   0.300
 3529SOL    HW122618   2.000   4.790   0.291
 3529SOL    HW222619   1.861   4.715   0.332
 3530SOL     OW22620   2.737   5.370   0.337
 3530SOL    HW122621   2.660   5.335   0.283
 3530SOL    HW222622   2.705   5.441   0.399
 3531SOL     OW22623   2.997   4.427   2.579
 3531SOL    HW122624   3.054   4.505   2.554
 3531SOL    HW222625   2.937   4.453   2.655
 3532SOL     OW22626   3.617   4.331   2.093
 3532SOL    HW122627   3.605   4.318   1.994
 3532SOL    HW222628   3.587   4.250   2.142
 3533SOL     OW22629   2.300   4.116   3.361
 3533SOL    HW122630   2.382   4.060   3.370
 3533SOL    HW222631   2.219   4.058   3.365
 3534SOL     OW22632   2.093   5.437   2.345
 3534SOL    HW122633   2.127   5.514   2.399
 3534SOL    HW222634   2.137   5.437   2.255
 3535SOL     OW22635   3.049   5.516   3.478
 3535SOL    HW122636   3.073   5.576   3.402
 3535SOL    HW222637   3.056   5.421   3.448
 3536SOL     OW22638   2.669   4.329   3.327
 3536SOL    HW122639   2.622   4.326   3.416
 3536SOL    HW222640   2.618   4.274   3.261
 3537SOL     OW22641   3.256   4.193   3.536
 3537SOL    HW122642   3.236   4.236   3.624
 3537SOL    HW222643   3.334   4.131   3.545
 3538SOL     OW22644   2.853   4.134   3.104
 3538SOL    HW122645   2.776   4.168   3.158
 3538SOL    HW222646   2.819   4.083   3.025
 3539SOL     OW22647   2.903   4.425   2.291
 3539SOL    HW122648   2.929   4.421   2.387
 3539SOL    HW222649   2.818   4.374   2.277
 3540SOL     OW22650   2.870   5.180   2.339
 3540SOL    HW122651   2.824   5.252   2.287
 3540SOL    HW222652   2.866   5.200   2.437
 3541SOL     OW22653   3.657   4.790   2.735
 3541SOL    HW122654   3.595   4.775   2.659
 3541SOL    HW222655   3.605   4.801   2.820
 3542SOL     OW22656   3.494   5.101   1.943
 3542SOL    HW122657   3.462   5.195   1.933
 3542SOL    HW222658   3.418   5.038   1.931
 3543SOL     OW22659   3.213   4.314   3.295
 3543SOL    HW122660   3.241   4.271   3.380
 3543SOL    HW222661   3.238   4.410   3.296
 3544SOL     OW22662   2.401   3.788   2.374
 3544SOL    HW122663   2.320   3.789   2.432
 3544SOL    HW222664   2.404   3.871   2.319
 3545SOL     OW22665   3.296   4.912   1.903
 3545SOL    HW122666   3.328   4.836   1.960
 3545SOL    HW222667   3.204   4.939   1.933
 3546SOL     OW22668   2.159   3.759   2.033
 3546SOL    HW122669   2.208   3.843   2.012
 3546SOL    HW222670   2.221   3.694   2.078
 3547SOL     OW22671   2.423   3.946   3.009
 3547SOL    HW122672   2.461   3.862   3.046
 3547SOL    HW222673   2.335   3.965   3.053
 3548SOL     OW22674   2.879   3.763   2.615
 3548SOL    HW122675   2.807   3.768   2.546
 3548SOL    HW222676   2.855   3.694   2.684
 3549SOL     OW22677   3.291   4.897   2.729
 3549SOL    HW122678   3.236   4.813   2.722
 3549SOL    HW222679   3.317   4.926   2.637
 3550SOL     OW22680   2.350   5.109   2.036
 3550SOL    HW122681   2.263   5.094   2.083
 3550SOL    HW222682   2.333   5.135   1.941
 3551SOL     OW22683   3.616   4.947   3.450
 3551SOL    HW122684   3.707   4.908   3.437
 3551SOL    HW222685   3.624   5.043   3.474
 3552SOL     OW22686   3.454   5.353   3.487
 3552SOL    HW122687   3.481   5.387   3.397
 3552SOL    HW222688   3.533   5.315   3.533
 3553SOL     OW22689   3.500   4.823   2.941
 3553SOL    HW122690   3.505   4.904   3.000
 3553SOL    HW222691   3.414   4.825   2.890
 3554SOL     OW22692   2.842   4.840   3.581
 3554SOL    HW122693   2.743   4.846   3.591
 3554SOL    HW222694   2.865   4.760   3.525
 3555SOL     OW22695   2.272   4.537   3.113
 3555SOL    HW122696   2.358   4.549   3.163
 3555SOL    HW222697   2.230   4.450   3.140
 3556SOL     OW22698   3.136   4.110   3.124
 3556SOL    HW122699   3.157   4.184   3.188
 3556SOL    HW222700   3.047   4.127   3.081
 3557SOL     OW22701   2.229   4.824   2.363
 3557SOL    HW122702   2.222   4.907   2.307
 3557SOL    HW222703   2.233   4.744   2.303
 3558SOL     OW22704   2.428   4.261   2.727
 3558SOL    HW122705   2.440   4.327   2.653
 3558SOL    HW222706   2.474   4.295   2.810
 3559SOL     OW22707   3.114   5.072   2.250
 3559SOL    HW122708   3.164   5.149   2.290
 3559SOL    HW222709   3.019   5.074   2.282
 3560SOL     OW22710   3.134   5.169   3.004
 3560SOL    HW122711   3.181   5.182   3.091
 3560SOL    HW222712   3.068   5.095   3.013
 3561SOL     OW22713   2.264   4.475   3.460
 3561SOL    HW122714   2.332   4.530   3.413
 3561SOL    HW222715   2.304   4.387   3.487
 3562SOL     OW22716   2.366   3.774   3.602
 3562SOL    HW122717   2.324   3.717   3.532
 3562SOL    HW222718   2.300   3.843   3.634
 3563SOL     OW22719   3.222   4.586   2.907
 3563SOL    HW122720   3.147   4.586   2.841
 3563SOL    HW222721   3.259   4.494   2.916
 3564SOL     OW22722   2.169   3.937   3.093
 3564SOL    HW122723   2.146   3.974   3.183
 3564SOL    HW222724   2.139   3.842   3.087
 3565SOL     OW22725   3.721   5.242   3.467
 3565SOL    HW122726   3.735   5.269   3.372
 3565SOL    HW222727   3.804   5.264   3.520
 3566SOL     OW22728   2.212   4.622   3.666
 3566SOL    HW122729   2.288   4.666   3.714
 3566SOL    HW222730   2.247   4.575   3.584
 3567SOL     OW22731   2.930   5.057   2.711
 3567SOL    HW122732   2.937   4.973   2.656
 3567SOL    HW222733   2.992   5.126   2.675
 3568SOL     OW22734   2.864   4.520   3.100
 3568SOL    HW122735   2.905   4.488   3.186
 3568SOL    HW222736   2.768   4.493   3.097
 3569SOL     OW22737   2.051   4.244   3.584
 3569SOL    HW122738   2.110   4.204   3.514
 3569SOL    HW222739   1.993   4.315   3.543
 3570SOL     OW22740   3.231   4.674   3.522
 3570SOL    HW122741   3.270   4.763   3.542
 3570SOL    HW222742   3.241   4.654   3.425
 3571SOL     OW22743   2.677   4.296   2.187
 3571SOL    HW122744   2.684   4.207   2.141
 3571SOL    HW222745   2.583   4.330   2.179
 3572SOL     OW22746   2.021   4.861   3.328
 3572SOL    HW122747   2.043   4.800   3.404
 3572SOL    HW222748   2.031   4.812   3.242
 3573SOL     OW22749   3.114   5.455   2.990
 3573SOL    HW122750   3.198   5.460   2.936
 3573SOL    HW222751   3.091   5.359   3.008
 3574SOL     OW22752   2.550   5.386   3.578
 3574SOL    HW122753   2.494   5.467   3.587
 3574SOL    HW222754   2.602   5.390   3.492
 3575SOL     OW22755   3.250   5.297   2.339
 3575SOL    HW122756   3.317   5.309   2.265
 3575SOL    HW222757   3.210   5.386   2.362
 3576SOL     OW22758   1.992   5.518   3.713
 3576SOL    HW122759   1.951   5.444   3.766
 3576SOL    HW222760   2.056   5.569   3.771
 3577SOL     OW22761   2.692   4.997   3.284
 3577SOL    HW122762   2.687   5.030   3.379
 3577SOL    HW222763   2.606   5.016   3.238
 3578SOL     OW22764   2.684   4.726   3.234
 3578SOL    HW122765   2.724   4.725   3.142
 3578SOL    HW222766   2.694   4.818   3.274
 3579SOL     OW22767   3.476   5.016   3.151
 3579SOL    HW122768   3.536   5.019   3.231
 3579SOL    HW222769   3.401   5.080   3.164
 3580SOL     OW22770   2.901   4.822   2.558
 3580SOL    HW122771   2.831   4.775   2.612
 3580SOL    HW222772   2.960   4.754   2.515
 3581SOL     OW22773   2.117   5.072   2.152
 3581SOL    HW122774   2.021   5.073   2.125
 3581SOL    HW222775   2.129   5.125   2.236
 3582SOL     OW22776   1.967   4.737   3.588
 3582SOL    HW122777   1.890   4.704   3.642
 3582SOL    HW222778   2.052   4.707   3.630
 3583SOL     OW22779   2.534   3.927   3.351
 3583SOL    HW122780   2.624   3.911   3.311
 3583SOL    HW222781   2.542   3.932   3.450
 3584SOL     OW22782   1.934   3.890   2.180
 3584SOL    HW122783   1.917   3.973   2.126
 3584SOL    HW222784   2.024   3.853   2.158
 3585SOL     OW22785   2.721   4.680   2.723
 3585SOL    HW122786   2.775   4.611   2.771
 3585SOL    HW222787   2.689   4.749   2.789
 3586SOL     OW22788   2.674   5.310   2.549
 3586SOL    HW122789   2.706   5.320   2.455
 3586SOL    HW222790   2.595   5.248   2.551
 3587SOL     OW22791   2.087   3.999   4.720
 3587SOL    HW122792   2.122   3.982   4.812
 3587SOL    HW222793   1.999   3.954   4.708
 3588SOL     OW22794   2.431   4.999   4.889
 3588SOL    HW122795   2.338   4.992   4.852
 3588SOL    HW222796   2.442   5.088   4.933
 3589SOL     OW22797   2.630   4.868   4.747
 3589SOL    HW122798   2.552   4.885   4.807
 3589SOL    HW222799   2.664   4.955   4.711
 3590SOL     OW22800   2.712   4.522   5.547
 3590SOL    HW122801   2.708   4.598   5.612
 3590SOL    HW222802   2.734   4.558   5.456
 3591SOL     OW22803   2.547   4.736   4.389
 3591SOL    HW122804   2.616   4.720   4.459
 3591SOL    HW222805   2.474   4.793   4.427
 3592SOL     OW22806   2.197   5.159   4.785
 3592SOL    HW122807   2.119   5.128   4.732
 3592SOL    HW222808   2.255   5.217   4.728
 3593SOL     OW22809   2.482   5.510   5.163
 3593SOL    HW122810   2.390   5.493   5.198
 3593SOL    HW222811   2.510   5.602   5.189
 3594SOL     OW22812   3.456   3.838   5.204
 3594SOL    HW122813   3.438   3.905   5.132
 3594SOL    HW222814   3.453   3.884   5.293
 3595SOL     OW22815   1.984   4.367   4.287
 3595SOL    HW122816   1.939   4.279   4.304
 3595SOL    HW222817   1.983   4.421   4.371
 3596SOL     OW22818   3.704   5.491   4.083
 3596SOL    HW122819   3.758   5.462   4.163
 3596SOL    HW222820   3.734   5.581   4.054
 3597SOL     OW22821   1.889   5.320   3.841
 3597SOL    HW122822   1.870   5.224   3.862
 3597SOL    HW222823   1.856   5.378   3.916
 3598SOL     OW22824   1.975   4.461   5.321
 3598SOL    HW122825   2.063   4.448   5.366
 3598SOL    HW222826   1.962   4.558   5.299
 3599SOL     OW22827   2.671   3.728   4.226
 3599SOL    HW122828   2.711   3.819   4.217
 3599SOL    HW222829   2.571   3.736   4.232
 3600SOL     OW22830   2.059   4.700   4.988
 3600SOL    HW122831   2.148   4.655   4.974
 3600SOL    HW222832   1.986   4.635   4.969
 3601SOL     OW22833   3.387   4.723   3.914
 3601SOL    HW122834   3.324   4.647   3.927
 3601SOL    HW222835   3.435   4.741   4.000
 3602SOL     OW22836   2.460   4.453   3.994
 3602SOL    HW122837   2.484   4.522   3.926
 3602SOL    HW222838   2.382   4.486   4.048
 3603SOL     OW22839   2.903   4.425   4.153
 3603SOL    HW122840   2.929   4.421   4.249
 3603SOL    HW222841   2.818   4.374   4.139
 3604SOL     OW22842   1.938   4.535   4.513
 3604SOL    HW122843   2.037   4.523   4.522
 3604SOL    HW222844   1.914   4.630   4.534
 3605SOL     OW22845   1.992   5.545   5.295
 3605SOL    HW122846   1.982   5.530   5.394
 3605SOL    HW222847   1.906   5.581   5.259
 3606SOL     OW22848   3.657   4.790   4.597
 3606SOL    HW122849   3.595   4.775   4.521
 3606SOL    HW222850   3.605   4.801   4.682
 3607SOL     OW22851   3.494   5.101   3.805
 3607SOL    HW122852   3.462   5.195   3.795
 3607SOL    HW222853   3.418   5.038   3.793
 3608SOL     OW22854   2.244   4.424   4.204
 3608SOL    HW122855   2.289   4.334   4.201
 3608SOL    HW222856   2.150   4.413   4.237
 3609SOL     OW22857   3.409   3.946   5.453
 3609SOL    HW122858   3.404   3.983   5.545
 3609SOL    HW222859   3.337   3.877   5.441
 3610SOL     OW22860   2.476   3.846   3.841
 3610SOL    HW122861   2.574   3.824   3.848
 3610SOL    HW222862   2.445   3.829   3.748
 3611SOL     OW22863   2.784   4.227   4.623
 3611SOL    HW122864   2.759   4.218   4.527
 3611SOL    HW222865   2.832   4.145   4.654
 3612SOL     OW22866   2.938   4.407   5.188
 3612SOL    HW122867   2.858   4.346   5.191
 3612SOL    HW222868   3.019   4.354   5.164
 3613SOL     OW22869   3.089   5.294   4.517
 3613SOL    HW122870   3.110   5.368   4.452
 3613SOL    HW222871   3.157   5.294   4.590
 3614SOL     OW22872   3.133   5.521   4.315
 3614SOL    HW122873   3.177   5.585   4.251
 3614SOL    HW222874   3.083   5.573   4.385
 3615SOL     OW22875   2.423   3.946   4.871
 3615SOL    HW122876   2.461   3.862   4.908
 3615SOL    HW222877   2.335   3.965   4.915
 3616SOL     OW22878   3.328   4.314   4.716
 3616SOL    HW122879   3.298   4.219   4.723
 3616SOL    HW222880   3.401   4.330   4.782
 3617SOL     OW22881   2.350   5.109   3.898
 3617SOL    HW122882   2.263   5.094   3.945
 3617SOL    HW222883   2.333   5.135   3.803
 3618SOL     OW22884   3.526   5.004   4.381
 3618SOL    HW122885   3.625   5.012   4.395
 3618SOL    HW222886   3.481   5.088   4.412
 3619SOL     OW22887   2.389   3.980   4.052
 3619SOL    HW122888   2.416   3.921   3.977
 3619SOL    HW222889   2.389   4.075   4.021
 3620SOL     OW22890   2.926   5.071   5.064
 3620SOL    HW122891   2.846   5.048   5.119
 3620SOL    HW222892   3.009   5.045   5.113
 3621SOL     OW22893   3.500   4.823   4.803
 3621SOL    HW122894   3.505   4.904   4.862
 3621SOL    HW222895   3.414   4.825   4.752
 3622SOL     OW22896   3.114   5.072   4.112
 3622SOL    HW122897   3.164   5.149   4.152
 3622SOL    HW222898   3.019   5.074   4.144
 3623SOL     OW22899   3.444   4.363   4.196
 3623SOL    HW122900   3.413   4.424   4.269
 3623SOL    HW222901   3.494   4.415   4.127
 3624SOL     OW22902   2.875   3.829   5.494
 3624SOL    HW122903   2.881   3.914   5.442
 3624SOL    HW222904   2.907   3.753   5.437
 3625SOL     OW22905   2.169   3.937   4.955
 3625SOL    HW122906   2.146   3.974   5.045
 3625SOL    HW222907   2.139   3.842   4.949
 3626SOL     OW22908   2.594   4.358   4.788
 3626SOL    HW122909   2.653   4.332   4.712
 3626SOL    HW222910   2.566   4.454   4.777
 3627SOL     OW22911   3.484   4.091   4.098
 3627SOL    HW122912   3.486   4.015   4.162
 3627SOL    HW222913   3.436   4.168   4.138
 3628SOL     OW22914   2.930   5.057   4.573
 3628SOL    HW122915   2.937   4.973   4.518
 3628SOL    HW222916   2.992   5.126   4.537
 3629SOL     OW22917   2.051   4.244   5.446
 3629SOL    HW122918   2.110   4.204   5.376
 3629SOL    HW222919   1.993   4.315   5.405
 3630SOL     OW22920   3.519   4.328   4.930
 3630SOL    HW122921   3.481   4.259   4.992
 3630SOL    HW222922   3.601   4.292   4.886
 3631SOL     OW22923   2.114   5.288   5.468
 3631SOL    HW122924   2.084   5.345   5.544
 3631SOL    HW222925   2.107   5.191   5.494
 3632SOL     OW22926   2.021   4.861   5.190
 3632SOL    HW122927   2.043   4.800   5.266
 3632SOL    HW222928   2.031   4.812   5.104
 3633SOL     OW22929   3.209   4.783   4.958
 3633SOL    HW122930   3.233   4.720   4.884
 3633SOL    HW222931   3.119   4.823   4.940
 3634SOL     OW22932   3.114   5.455   4.852
 3634SOL    HW122933   3.198   5.460   4.798
 3634SOL    HW222934   3.091   5.359   4.870
 3635SOL     OW22935   1.945   4.982   4.746
 3635SOL    HW122936   1.940   4.981   4.846
 3635SOL    HW222937   1.862   4.941   4.708
 3636SOL     OW22938   3.250   5.297   4.201
 3636SOL    HW122939   3.317   5.309   4.127
 3636SOL    HW222940   3.210   5.386   4.224
 3637SOL     OW22941   1.992   5.518   5.575
 3637SOL    HW122942   1.951   5.444   5.628
 3637SOL    HW222943   2.056   5.569   5.633
 3638SOL     OW22944   3.142   4.651   4.396
 3638SOL    HW122945   3.202   4.570   4.398
 3638SOL    HW222946   3.182   4.720   4.336
 3639SOL     OW22947   2.534   5.340   3.878
 3639SOL    HW122948   2.543   5.350   3.779
 3639SOL    HW222949   2.494   5.251   3.899
 3640SOL     OW22950   2.125   4.050   4.444
 3640SOL    HW122951   2.046   4.101   4.410
 3640SOL    HW222952   2.116   4.035   4.542
 3641SOL     OW22953   3.056   5.336   3.755
 3641SOL    HW122954   3.062   5.243   3.792
 3641SOL    HW222955   2.997   5.336   3.675
 3642SOL     OW22956   2.778   4.634   4.015
 3642SOL    HW122957   2.841   4.672   3.947
 3642SOL    HW222958   2.818   4.551   4.054
 3643SOL     OW22959   2.234   5.012   5.214
 3643SOL    HW122960   2.221   5.105   5.180
 3643SOL    HW222961   2.150   4.960   5.201
 3644SOL     OW22962   1.967   4.737   5.450
 3644SOL    HW122963   1.890   4.704   5.504
 3644SOL    HW222964   2.052   4.707   5.492
 3645SOL     OW22965   1.934   3.890   4.042
 3645SOL    HW122966   1.917   3.973   3.988
 3645SOL    HW222967   2.024   3.853   4.020
 3646SOL     OW22968   3.355   5.491   4.683
 3646SOL    HW122969   3.388   5.555   4.614
 3646SOL    HW222970   3.421   5.485   4.758
 3647SOL     OW22971   2.578   4.289   5.432
 3647SOL    HW122972   2.597   4.354   5.506
 3647SOL    HW222973   2.638   4.209   5.441
 3648SOL     OW22974   2.252   5.465   5.284
 3648SOL    HW122975   2.161   5.506   5.282
 3648SOL    HW222976   2.245   5.371   5.316
 3649SOL     OW22977   3.536   4.607   4.978
 3649SOL    HW122978   3.509   4.518   4.941
 3649SOL    HW222979   3.537   4.675   4.905
 3650SOL     OW22980   2.721   5.098   3.740
 3650SOL    HW122981   2.675   5.113   3.828
 3650SOL    HW222982   2.765   5.183   3.710
 3651SOL     OW22983   2.721   4.680   4.585
 3651SOL    HW122984   2.775   4.611   4.633
 3651SOL    HW222985   2.689   4.749   4.651
 3652SOL     OW22986   3.723   5.293   4.575
 3652SOL    HW122987   3.652   5.281   4.505
 3652SOL    HW222988   3.724   5.214   4.635
 3653SOL     OW22989   2.083   5.038   5.568
 3653SOL    HW122990   2.018   4.965   5.547
 3653SOL    HW222991   2.087   5.052   5.666
 3654SOL     OW22992   2.290   4.148   4.244
 3654SOL    HW122993   2.320   4.076   4.182
 3654SOL    HW222994   2.251   4.108   4.327
 3655SOL     OW22995   3.567   5.211   4.828
 3655SOL    HW122996   3.474   5.186   4.801
 3655SOL    HW222997   3.593   5.161   4.910
 3656SOL     OW22998   3.455   3.945   4.606
 3656SOL    HW122999   3.371   3.944   4.660
 3656SOL    HW223000   3.457   4.028   4.550
 3657SOL     OW23001   1.901   4.801   4.024
 3657SOL    HW123002   2.000   4.790   4.015
 3657SOL    HW223003   1.861   4.715   4.056
 3658SOL     OW23004   2.087   3.999   6.582
 3658SOL    HW123005   2.122   3.982   6.674
 3658SOL    HW223006   1.999   3.954   6.570
 3659SOL     OW23007   1.881   4.092   6.233
 3659SOL    HW123008   1.799   4.135   6.272
 3659SOL    HW223009   1.853   4.019   6.170
 3660SOL     OW23010   2.431   4.999   6.751
 3660SOL    HW123011   2.338   4.992   6.714
 3660SOL    HW223012   2.442   5.088   6.795
 3661SOL     OW23013   3.417   5.235   6.289
 3661SOL    HW123014   3.360   5.219   6.370
 3661SOL    HW223015   3.358   5.245   6.209
 3662SOL     OW23016   2.997   4.427   6.303
 3662SOL    HW123017   3.054   4.505   6.278
 3662SOL    HW223018   2.937   4.453   6.379
 3663SOL     OW23019   3.617   4.331   5.817
 3663SOL    HW123020   3.605   4.318   5.718
 3663SOL    HW223021   3.587   4.250   5.866
 3664SOL     OW23022   2.630   4.868   6.609
 3664SOL    HW123023   2.552   4.885   6.669
 3664SOL    HW223024   2.664   4.955   6.573
 3665SOL     OW23025   2.547   4.736   6.251
 3665SOL    HW123026   2.616   4.720   6.321
 3665SOL    HW223027   2.474   4.793   6.289
 3666SOL     OW23028   2.197   5.159   6.647
 3666SOL    HW123029   2.119   5.128   6.594
 3666SOL    HW223030   2.255   5.217   6.590
 3667SOL     OW23031   2.300   4.116   7.085
 3667SOL    HW123032   2.382   4.060   7.094
 3667SOL    HW223033   2.219   4.058   7.089
 3668SOL     OW23034   2.093   5.437   6.069
 3668SOL    HW123035   2.127   5.514   6.123
 3668SOL    HW223036   2.137   5.437   5.979
 3669SOL     OW23037   2.092   5.158   6.124
 3669SOL    HW123038   2.066   5.254   6.124
 3669SOL    HW223039   2.021   5.104   6.169
 3670SOL     OW23040   2.102   4.815   6.472
 3670SOL    HW123041   2.116   4.731   6.524
 3670SOL    HW223042   2.047   4.879   6.527
 3671SOL     OW23043   2.482   5.510   7.025
 3671SOL    HW123044   2.390   5.493   7.060
 3671SOL    HW223045   2.510   5.602   7.051
 3672SOL     OW23046   2.468   4.688   5.709
 3672SOL    HW123047   2.475   4.772   5.655
 3672SOL    HW223048   2.514   4.701   5.797
 3673SOL     OW23049   1.984   4.367   6.149
 3673SOL    HW123050   1.939   4.279   6.166
 3673SOL    HW223051   1.983   4.421   6.233
 3674SOL     OW23052   3.704   5.491   5.945
 3674SOL    HW123053   3.758   5.462   6.025
 3674SOL    HW223054   3.734   5.581   5.916
 3675SOL     OW23055   1.889   5.320   5.703
 3675SOL    HW123056   1.870   5.224   5.724
 3675SOL    HW223057   1.856   5.378   5.778
 3676SOL     OW23058   3.551   4.646   6.198
 3676SOL    HW123059   3.646   4.617   6.206
 3676SOL    HW223060   3.543   4.711   6.123
 3677SOL     OW23061   3.503   4.832   6.018
 3677SOL    HW123062   3.589   4.834   5.966
 3677SOL    HW223063   3.517   4.879   6.106
 3678SOL     OW23064   2.475   5.089   6.312
 3678SOL    HW123065   2.426   5.002   6.321
 3678SOL    HW223066   2.452   5.132   6.225
 3679SOL     OW23067   2.671   3.728   6.088
 3679SOL    HW123068   2.711   3.819   6.079
 3679SOL    HW223069   2.571   3.736   6.094
 3680SOL     OW23070   2.059   4.700   6.850
 3680SOL    HW123071   2.148   4.655   6.836
 3680SOL    HW223072   1.986   4.635   6.831
 3681SOL     OW23073   3.328   5.141   6.539
 3681SOL    HW123074   3.269   5.147   6.619
 3681SOL    HW223075   3.313   5.053   6.493
 3682SOL     OW23076   3.529   5.438   6.158
 3682SOL    HW123077   3.488   5.415   6.070
 3682SOL    HW223078   3.511   5.364   6.223
 3683SOL     OW23079   2.460   4.453   5.856
 3683SOL    HW123080   2.484   4.522   5.788
 3683SOL    HW223081   2.382   4.486   5.910
 3684SOL     OW23082   3.143   4.069   6.530
 3684SOL    HW123083   3.057   4.019   6.517
 3684SOL    HW223084   3.205   4.015   6.586
 3685SOL     OW23085   3.438   5.386   5.893
 3685SOL    HW123086   3.527   5.432   5.896
 3685SOL    HW223087   3.417   5.362   5.798
 3686SOL     OW23088   2.669   4.329   7.051
 3686SOL    HW123089   2.622   4.326   7.140
 3686SOL    HW223090   2.618   4.274   6.985
 3687SOL     OW23091   2.853   4.134   6.828
 3687SOL    HW123092   2.776   4.168   6.882
 3687SOL    HW223093   2.819   4.083   6.749
 3688SOL     OW23094   2.903   4.425   6.015
 3688SOL    HW123095   2.929   4.421   6.111
 3688SOL    HW223096   2.818   4.374   6.001
 3689SOL     OW23097   1.938   4.535   6.375
 3689SOL    HW123098   2.037   4.523   6.384
 3689SOL    HW223099   1.914   4.630   6.396
 3690SOL     OW23100   1.992   5.545   7.157
 3690SOL    HW123101   1.982   5.530   7.256
 3690SOL    HW223102   1.906   5.581   7.121
 3691SOL     OW23103   2.727   4.072   5.781
 3691SOL    HW123104   2.786   4.135   5.732
 3691SOL    HW223105   2.746   3.978   5.752
 3692SOL     OW23106   3.224   4.868   6.131
 3692SOL    HW123107   3.307   4.839   6.083
 3692SOL    HW223108   3.175   4.935   6.075
 3693SOL     OW23109   2.412   3.920   6.471
 3693SOL    HW123110   2.407   3.915   6.571
 3693SOL    HW223111   2.414   4.016   6.442
 3694SOL     OW23112   2.870   5.180   6.063
 3694SOL    HW123113   2.824   5.252   6.011
 3694SOL    HW223114   2.866   5.200   6.161
 3695SOL     OW23115   2.213   5.525   6.439
 3695SOL    HW123116   2.263   5.439   6.445
 3695SOL    HW223117   2.278   5.602   6.436
 3696SOL     OW23118   3.657   4.790   6.459
 3696SOL    HW123119   3.595   4.775   6.383
 3696SOL    HW223120   3.605   4.801   6.544
 3697SOL     OW23121   2.183   4.667   5.828
 3697SOL    HW123122   2.265   4.706   5.786
 3697SOL    HW223123   2.156   4.585   5.779
 3698SOL     OW23124   3.320   4.459   6.314
 3698SOL    HW123125   3.315   4.394   6.389
 3698SOL    HW223126   3.400   4.518   6.327
 3699SOL     OW23127   2.973   5.500   5.823
 3699SOL    HW123128   2.913   5.438   5.873
 3699SOL    HW223129   3.004   5.456   5.738
 3700SOL     OW23130   3.494   5.101   5.667
 3700SOL    HW123131   3.462   5.195   5.657
 3700SOL    HW223132   3.418   5.038   5.655
 3701SOL     OW23133   2.326   5.467   5.909
 3701SOL    HW123134   2.359   5.506   5.995
 3701SOL    HW223135   2.402   5.460   5.844
 3702SOL     OW23136   2.111   5.509   6.827
 3702SOL    HW123137   2.168   5.444   6.877
 3702SOL    HW223138   2.095   5.476   6.734
 3703SOL     OW23139   2.802   5.422   6.490
 3703SOL    HW123140   2.882   5.365   6.511
 3703SOL    HW223141   2.753   5.382   6.413
 3704SOL     OW23142   2.244   4.424   6.066
 3704SOL    HW123143   2.289   4.334   6.063
 3704SOL    HW223144   2.150   4.413   6.099
 3705SOL     OW23145   2.476   3.846   5.703
 3705SOL    HW123146   2.574   3.824   5.710
 3705SOL    HW223147   2.445   3.829   5.610
 3706SOL     OW23148   2.750   5.238   6.781
 3706SOL    HW123149   2.727   5.213   6.687
 3706SOL    HW223150   2.811   5.169   6.820
 3707SOL     OW23151   2.665   5.126   6.510
 3707SOL    HW123152   2.755   5.140   6.468
 3707SOL    HW223153   2.594   5.128   6.439
 3708SOL     OW23154   2.784   4.227   6.485
 3708SOL    HW123155   2.759   4.218   6.389
 3708SOL    HW223156   2.832   4.145   6.516
 3709SOL     OW23157   2.401   3.788   6.098
 3709SOL    HW123158   2.320   3.789   6.156
 3709SOL    HW223159   2.404   3.871   6.043
 3710SOL     OW23160   2.159   3.759   5.757
 3710SOL    HW123161   2.208   3.843   5.736
 3710SOL    HW223162   2.221   3.694   5.802
 3711SOL     OW23163   2.797   3.960   6.066
 3711SOL    HW123164   2.749   4.001   5.988
 3711SOL    HW223165   2.896   3.958   6.047
 3712SOL     OW23166   3.089   5.294   6.379
 3712SOL    HW123167   3.110   5.368   6.314
 3712SOL    HW223168   3.157   5.294   6.452
 3713SOL     OW23169   2.321   4.876   6.327
 3713SOL    HW123170   2.250   4.849   6.392
 3713SOL    HW223171   2.295   4.848   6.234
 3714SOL     OW23172   3.133   5.521   6.177
 3714SOL    HW123173   3.177   5.585   6.113
 3714SOL    HW223174   3.083   5.573   6.247
 3715SOL     OW23175   2.423   3.946   6.733
 3715SOL    HW123176   2.461   3.862   6.770
 3715SOL    HW223177   2.335   3.965   6.777
 3716SOL     OW23178   2.728   4.178   6.228
 3716SOL    HW123179   2.696   4.250   6.166
 3716SOL    HW223180   2.752   4.097   6.175
 3717SOL     OW23181   2.879   3.763   6.339
 3717SOL    HW123182   2.807   3.768   6.270
 3717SOL    HW223183   2.855   3.694   6.408
 3718SOL     OW23184   3.291   4.897   6.453
 3718SOL    HW123185   3.236   4.813   6.446
 3718SOL    HW223186   3.317   4.926   6.361
 3719SOL     OW23187   3.328   4.314   6.578
 3719SOL    HW123188   3.298   4.219   6.585
 3719SOL    HW223189   3.401   4.330   6.644
 3720SOL     OW23190   3.719   4.557   5.963
 3720SOL    HW123191   3.761   4.493   6.027
 3720SOL    HW223192   3.681   4.506   5.885
 3721SOL     OW23193   3.526   5.004   6.243
 3721SOL    HW123194   3.625   5.012   6.257
 3721SOL    HW223195   3.481   5.088   6.274
 3722SOL     OW23196   3.252   4.299   5.664
 3722SOL    HW123197   3.198   4.278   5.745
 3722SOL    HW223198   3.343   4.258   5.673
 3723SOL     OW23199   2.389   3.980   5.914
 3723SOL    HW123200   2.416   3.921   5.839
 3723SOL    HW223201   2.389   4.075   5.883
 3724SOL     OW23202   2.926   5.071   6.926
 3724SOL    HW123203   2.846   5.048   6.981
 3724SOL    HW223204   3.009   5.045   6.975
 3725SOL     OW23205   2.973   4.919   6.686
 3725SOL    HW123206   2.933   4.963   6.767
 3725SOL    HW223207   2.932   4.956   6.603
 3726SOL     OW23208   3.500   4.823   6.665
 3726SOL    HW123209   3.505   4.904   6.724
 3726SOL    HW223210   3.414   4.825   6.614
 3727SOL     OW23211   2.567   4.774   5.954
 3727SOL    HW123212   2.553   4.781   6.053
 3727SOL    HW223213   2.651   4.723   5.936
 3728SOL     OW23214   2.272   4.537   6.837
 3728SOL    HW123215   2.358   4.549   6.887
 3728SOL    HW223216   2.230   4.450   6.864
 3729SOL     OW23217   3.136   4.110   6.848
 3729SOL    HW123218   3.157   4.184   6.912
 3729SOL    HW223219   3.047   4.127   6.805
 3730SOL     OW23220   1.926   5.288   6.917
 3730SOL    HW123221   1.880   5.370   6.883
 3730SOL    HW223222   2.024   5.307   6.926
 3731SOL     OW23223   2.229   4.824   6.087
 3731SOL    HW123224   2.222   4.907   6.031
 3731SOL    HW223225   2.233   4.744   6.027
 3732SOL     OW23226   2.428   4.261   6.451
 3732SOL    HW123227   2.440   4.327   6.377
 3732SOL    HW223228   2.474   4.295   6.534
 3733SOL     OW23229   3.114   5.072   5.974
 3733SOL    HW123230   3.164   5.149   6.014
 3733SOL    HW223231   3.019   5.074   6.006
 3734SOL     OW23232   3.134   5.169   6.728
 3734SOL    HW123233   3.181   5.182   6.815
 3734SOL    HW223234   3.068   5.095   6.737
 3735SOL     OW23235   3.444   4.363   6.058
 3735SOL    HW123236   3.413   4.424   6.131
 3735SOL    HW223237   3.494   4.415   5.989
 3736SOL     OW23238   2.216   5.234   6.915
 3736SOL    HW123239   2.195   5.190   6.828
 3736SOL    HW223240   2.313   5.260   6.918
 3737SOL     OW23241   2.366   3.774   7.326
 3737SOL    HW123242   2.324   3.717   7.256
 3737SOL    HW223243   2.300   3.843   7.358
 3738SOL     OW23244   2.435   4.594   6.615
 3738SOL    HW123245   2.479   4.683   6.606
 3738SOL    HW223246   2.372   4.594   6.692
 3739SOL     OW23247   3.222   4.586   6.631
 3739SOL    HW123248   3.147   4.586   6.565
 3739SOL    HW223249   3.259   4.494   6.640
 3740SOL     OW23250   2.169   3.937   6.817
 3740SOL    HW123251   2.146   3.974   6.907
 3740SOL    HW223252   2.139   3.842   6.811
 3741SOL     OW23253   1.899   5.034   6.868
 3741SOL    HW123254   1.952   4.985   6.936
 3741SOL    HW223255   1.921   5.132   6.873
 3742SOL     OW23256   2.594   4.358   6.650
 3742SOL    HW123257   2.653   4.332   6.574
 3742SOL    HW223258   2.566   4.454   6.639
 3743SOL     OW23259   2.169   3.787   6.204
 3743SOL    HW123260   2.158   3.881   6.237
 3743SOL    HW223261   2.164   3.724   6.281
 3744SOL     OW23262   2.885   4.490   6.552
 3744SOL    HW123263   2.900   4.511   6.648
 3744SOL    HW223264   2.855   4.395   6.543
 3745SOL     OW23265   2.930   5.057   6.435
 3745SOL    HW123266   2.937   4.973   6.380
 3745SOL    HW223267   2.992   5.126   6.399
 3746SOL     OW23268   2.181   4.534   6.535
 3746SOL    HW123269   2.274   4.570   6.540
 3746SOL    HW223270   2.175   4.449   6.587
 3747SOL     OW23271   2.201   4.233   6.592
 3747SOL    HW123272   2.149   4.150   6.575
 3747SOL    HW223273   2.278   4.238   6.528
 3748SOL     OW23274   3.022   3.931   7.063
 3748SOL    HW123275   3.022   3.995   7.140
 3748SOL    HW223276   3.050   3.979   6.980
 3749SOL     OW23277   1.870   5.050   5.786
 3749SOL    HW123278   1.777   5.071   5.755
 3749SOL    HW223279   1.880   4.951   5.799
 3750SOL     OW23280   1.950   5.525   6.513
 3750SOL    HW123281   1.908   5.439   6.486
 3750SOL    HW223282   2.044   5.528   6.479
 3751SOL     OW23283   2.366   5.292   6.496
 3751SOL    HW123284   2.432   5.366   6.505
 3751SOL    HW223285   2.410   5.213   6.454
 3752SOL     OW23286   2.864   4.520   6.824
 3752SOL    HW123287   2.905   4.488   6.910
 3752SOL    HW223288   2.768   4.493   6.821
 3753SOL     OW23289   1.902   4.268   6.700
 3753SOL    HW123290   1.987   4.235   6.659
 3753SOL    HW223291   1.915   4.283   6.798
 3754SOL     OW23292   2.677   4.296   5.911
 3754SOL    HW123293   2.684   4.207   5.865
 3754SOL    HW223294   2.583   4.330   5.903
 3755SOL     OW23295   3.519   4.328   6.792
 3755SOL    HW123296   3.481   4.259   6.854
 3755SOL    HW223297   3.601   4.292   6.748
 3756SOL     OW23298   2.533   4.188   6.855
 3756SOL    HW123299   2.499   4.099   6.825
 3756SOL    HW223300   2.559   4.242   6.775
 3757SOL     OW23301   2.792   5.402   7.051
 3757SOL    HW123302   2.768   5.384   6.956
 3757SOL    HW223303   2.822   5.496   7.061
 3758SOL     OW23304   2.021   4.861   7.052
 3758SOL    HW123305   2.043   4.800   7.128
 3758SOL    HW223306   2.031   4.812   6.966
 3759SOL     OW23307   3.209   4.783   6.820
 3759SOL    HW123308   3.233   4.720   6.746
 3759SOL    HW223309   3.119   4.823   6.802
 3760SOL     OW23310   3.164   4.579   5.895
 3760SOL    HW123311   3.078   4.548   5.937
 3760SOL    HW223312   3.160   4.565   5.796
 3761SOL     OW23313   3.621   5.471   6.740
 3761SOL    HW123314   3.682   5.501   6.667
 3761SOL    HW223315   3.583   5.382   6.718
 3762SOL     OW23316   3.114   5.455   6.714
 3762SOL    HW123317   3.198   5.460   6.660
 3762SOL    HW223318   3.091   5.359   6.732
 3763SOL     OW23319   1.945   4.982   6.608
 3763SOL    HW123320   1.940   4.981   6.708
 3763SOL    HW223321   1.862   4.941   6.570
 3764SOL     OW23322   3.588   3.859   6.109
 3764SOL    HW123323   3.661   3.842   6.042
 3764SOL    HW223324   3.557   3.772   6.147
 3765SOL     OW23325   3.250   5.297   6.063
 3765SOL    HW123326   3.317   5.309   5.989
 3765SOL    HW223327   3.210   5.386   6.086
 3766SOL     OW23328   3.142   4.651   6.258
 3766SOL    HW123329   3.202   4.570   6.260
 3766SOL    HW223330   3.182   4.720   6.198
 3767SOL     OW23331   2.534   5.340   5.740
 3767SOL    HW123332   2.543   5.350   5.641
 3767SOL    HW223333   2.494   5.251   5.761
 3768SOL     OW23334   2.125   4.050   6.306
 3768SOL    HW123335   2.046   4.101   6.272
 3768SOL    HW223336   2.116   4.035   6.404
 3769SOL     OW23337   3.056   5.336   5.617
 3769SOL    HW123338   3.062   5.243   5.654
 3769SOL    HW223339   2.997   5.336   5.537
 3770SOL     OW23340   2.684   4.726   6.958
 3770SOL    HW123341   2.724   4.725   6.866
 3770SOL    HW223342   2.694   4.818   6.998
 3771SOL     OW23343   2.778   4.634   5.877
 3771SOL    HW123344   2.841   4.672   5.809
 3771SOL    HW223345   2.818   4.551   5.916
 3772SOL     OW23346   3.366   5.331   5.630
 3772SOL    HW123347   3.274   5.368   5.637
 3772SOL    HW223348   3.404   5.351   5.540
 3773SOL     OW23349   2.234   5.012   7.076
 3773SOL    HW123350   2.221   5.105   7.042
 3773SOL    HW223351   2.150   4.960   7.063
 3774SOL     OW23352   3.476   5.016   6.875
 3774SOL    HW123353   3.536   5.019   6.955
 3774SOL    HW223354   3.401   5.080   6.888
 3775SOL     OW23355   2.901   4.822   6.282
 3775SOL    HW123356   2.831   4.775   6.336
 3775SOL    HW223357   2.960   4.754   6.239
 3776SOL     OW23358   2.876   3.960   6.557
 3776SOL    HW123359   2.868   3.924   6.464
 3776SOL    HW223360   2.874   3.884   6.622
 3777SOL     OW23361   2.452   5.211   6.077
 3777SOL    HW123362   2.494   5.153   6.007
 3777SOL    HW223363   2.408   5.290   6.033
 3778SOL     OW23364   3.571   4.109   6.967
 3778SOL    HW123365   3.644   4.178   6.971
 3778SOL    HW223366   3.599   4.034   6.908
 3779SOL     OW23367   2.117   5.072   5.876
 3779SOL    HW123368   2.021   5.073   5.849
 3779SOL    HW223369   2.129   5.125   5.960
 3780SOL     OW23370   2.534   3.927   7.075
 3780SOL    HW123371   2.624   3.911   7.035
 3780SOL    HW223372   2.542   3.932   7.174
 3781SOL     OW23373   1.937   4.069   5.619
 3781SOL    HW123374   1.845   4.041   5.590
 3781SOL    HW223375   1.968   4.146   5.563
 3782SOL     OW23376   1.934   3.890   5.904
 3782SOL    HW123377   1.917   3.973   5.850
 3782SOL    HW223378   2.024   3.853   5.882
 3783SOL     OW23379   2.475   4.566   7.017
 3783SOL    HW123380   2.531   4.647   7.000
 3783SOL    HW223381   2.534   4.486   7.020
 3784SOL     OW23382   3.355   5.491   6.545
 3784SOL    HW123383   3.388   5.555   6.476
 3784SOL    HW223384   3.421   5.485   6.620
 3785SOL     OW23385   2.252   5.465   7.146
 3785SOL    HW123386   2.161   5.506   7.144
 3785SOL    HW223387   2.245   5.371   7.178
 3786SOL     OW23388   3.536   4.607   6.840
 3786SOL    HW123389   3.509   4.518   6.803
 3786SOL    HW223390   3.537   4.675   6.767
 3787SOL     OW23391   2.456   4.469   6.238
 3787SOL    HW123392   2.506   4.554   6.219
 3787SOL    HW223393   2.368   4.471   6.190
 3788SOL     OW23394   3.592   4.658   7.103
 3788SOL    HW123395   3.630   4.749   7.118
 3788SOL    HW223396   3.584   4.641   7.004
 3789SOL     OW23397   2.721   5.098   5.602
 3789SOL    HW123398   2.675   5.113   5.690
 3789SOL    HW223399   2.765   5.183   5.572
 3790SOL     OW23400   2.523   5.514   6.539
 3790SOL    HW123401   2.477   5.602   6.526
 3790SOL    HW223402   2.622   5.526   6.532
 3791SOL     OW23403   2.721   4.680   6.447
 3791SOL    HW123404   2.775   4.611   6.495
 3791SOL    HW223405   2.689   4.749   6.513
 3792SOL     OW23406   3.723   5.293   6.437
 3792SOL    HW123407   3.652   5.281   6.367
 3792SOL    HW223408   3.724   5.214   6.497
 3793SOL     OW23409   1.941   4.964   6.239
 3793SOL    HW123410   1.940   4.917   6.327
 3793SOL    HW223411   2.023   4.936   6.188
 3794SOL     OW23412   3.686   3.916   6.813
 3794SOL    HW123413   3.682   3.826   6.857
 3794SOL    HW223414   3.689   3.905   6.714
 3795SOL     OW23415   2.290   4.148   6.106
 3795SOL    HW123416   2.320   4.076   6.044
 3795SOL    HW223417   2.251   4.108   6.189
 3796SOL     OW23418   3.567   5.211   6.690
 3796SOL    HW123419   3.474   5.186   6.663
 3796SOL    HW223420   3.593   5.161   6.772
 3797SOL     OW23421   2.179   4.271   6.866
 3797SOL    HW123422   2.217   4.212   6.938
 3797SOL    HW223423   2.219   4.245   6.778
 3798SOL     OW23424   2.674   5.310   6.273
 3798SOL    HW123425   2.706   5.320   6.179
 3798SOL    HW223426   2.595   5.248   6.275
 3799SOL     OW23427   3.286   3.938   6.698
 3799SOL    HW123428   3.338   3.873   6.753
 3799SOL    HW223429   3.237   4.001   6.759
 3800SOL     OW23430   2.863   3.758   6.740
 3800SOL    HW123431   2.800   3.686   6.709
 3800SOL    HW223432   2.956   3.722   6.740
 3801SOL     OW23433   2.632   5.054   5.887
 3801SOL    HW123434   2.586   4.967   5.904
 3801SOL    HW223435   2.723   5.051   5.928
 3802SOL     OW23436   2.480   5.291   6.870
 3802SOL    HW123437   2.475   5.373   6.927
 3802SOL    HW223438   2.569   5.288   6.825
 3803SOL     OW23439   3.162   4.177   6.277
 3803SOL    HW123440   3.103   4.257   6.281
 3803SOL    HW223441   3.177   4.142   6.370
 3804SOL     OW23442   1.901   4.801   5.886
 3804SOL    HW123443   2.000   4.790   5.877
 3804SOL    HW223444   1.861   4.715   5.918
 3805SOL     OW23445   2.737   5.370   5.923
 3805SOL    HW123446   2.660   5.335   5.869
 3805SOL    HW223447   2.705   5.441   5.985
 3806SOL     OW23448   2.092   6.214   0.113
 3806SOL    HW123449   1.999   6.212   0.150
 3806SOL    HW223450   2.093   6.175   0.021
 3807SOL     OW23451   2.087   5.861   0.996
 3807SOL    HW123452   2.122   5.844   1.088
 3807SOL    HW223453   1.999   5.816   0.984
 3808SOL     OW23454   1.881   5.954   0.647
 3808SOL    HW123455   1.799   5.997   0.686
 3808SOL    HW223456   1.853   5.881   0.584
 3809SOL     OW23457   2.431   6.861   1.165
 3809SOL    HW123458   2.338   6.854   1.128
 3809SOL    HW223459   2.442   6.950   1.209
 3810SOL     OW23460   3.417   7.097   0.703
 3810SOL    HW123461   3.360   7.081   0.784
 3810SOL    HW223462   3.358   7.107   0.623
 3811SOL     OW23463   2.997   6.289   0.717
 3811SOL    HW123464   3.054   6.367   0.692
 3811SOL    HW223465   2.937   6.315   0.793
 3812SOL     OW23466   3.617   6.193   0.231
 3812SOL    HW123467   3.605   6.180   0.132
 3812SOL    HW223468   3.587   6.112   0.280
 3813SOL     OW23469   2.630   6.730   1.023
 3813SOL    HW123470   2.552   6.747   1.083
 3813SOL    HW223471   2.664   6.817   0.987
 3814SOL     OW23472   2.547   6.598   0.665
 3814SOL    HW123473   2.616   6.582   0.735
 3814SOL    HW223474   2.474   6.655   0.703
 3815SOL     OW23475   2.197   7.021   1.061
 3815SOL    HW123476   2.119   6.990   1.008
 3815SOL    HW223477   2.255   7.079   1.004
 3816SOL     OW23478   3.322   7.091   1.339
 3816SOL    HW123479   3.346   7.185   1.365
 3816SOL    HW223480   3.306   7.037   1.421
 3817SOL     OW23481   2.300   5.978   1.499
 3817SOL    HW123482   2.382   5.922   1.508
 3817SOL    HW223483   2.219   5.920   1.503
 3818SOL     OW23484   3.465   6.033   0.737
 3818SOL    HW123485   3.391   6.079   0.687
 3818SOL    HW223486   3.516   6.101   0.790
 3819SOL     OW23487   2.093   7.299   0.483
 3819SOL    HW123488   2.127   7.376   0.537
 3819SOL    HW223489   2.137   7.299   0.393
 3820SOL     OW23490   2.092   7.020   0.538
 3820SOL    HW123491   2.066   7.116   0.538
 3820SOL    HW223492   2.021   6.966   0.583
 3821SOL     OW23493   2.102   6.677   0.886
 3821SOL    HW123494   2.116   6.593   0.938
 3821SOL    HW223495   2.047   6.741   0.941
 3822SOL     OW23496   2.468   6.550   0.123
 3822SOL    HW123497   2.475   6.634   0.069
 3822SOL    HW223498   2.514   6.563   0.211
 3823SOL     OW23499   3.456   5.700   1.480
 3823SOL    HW123500   3.438   5.767   1.408
 3823SOL    HW223501   3.453   5.746   1.569
 3824SOL     OW23502   1.984   6.229   0.563
 3824SOL    HW123503   1.939   6.141   0.580
 3824SOL    HW223504   1.983   6.283   0.647
 3825SOL     OW23505   3.704   7.353   0.359
 3825SOL    HW123506   3.758   7.324   0.439
 3825SOL    HW223507   3.734   7.443   0.330
 3826SOL     OW23508   1.889   7.182   0.117
 3826SOL    HW123509   1.870   7.086   0.138
 3826SOL    HW223510   1.856   7.240   0.192
 3827SOL     OW23511   3.551   6.508   0.612
 3827SOL    HW123512   3.646   6.479   0.620
 3827SOL    HW223513   3.543   6.573   0.537
 3828SOL     OW23514   3.503   6.694   0.432
 3828SOL    HW123515   3.589   6.696   0.380
 3828SOL    HW223516   3.517   6.741   0.520
 3829SOL     OW23517   1.975   6.323   1.597
 3829SOL    HW123518   2.063   6.310   1.642
 3829SOL    HW223519   1.962   6.420   1.575
 3830SOL     OW23520   2.475   6.951   0.726
 3830SOL    HW123521   2.426   6.864   0.735
 3830SOL    HW223522   2.452   6.994   0.639
 3831SOL     OW23523   3.155   6.814   1.423
 3831SOL    HW123524   3.192   6.741   1.365
 3831SOL    HW223525   3.207   6.819   1.508
 3832SOL     OW23526   2.671   5.590   0.502
 3832SOL    HW123527   2.711   5.681   0.493
 3832SOL    HW223528   2.571   5.598   0.508
 3833SOL     OW23529   3.387   6.585   0.190
 3833SOL    HW123530   3.324   6.509   0.203
 3833SOL    HW223531   3.435   6.603   0.276
 3834SOL     OW23532   3.049   7.378   1.616
 3834SOL    HW123533   3.073   7.438   1.540
 3834SOL    HW223534   3.056   7.283   1.586
 3835SOL     OW23535   3.328   7.003   0.953
 3835SOL    HW123536   3.269   7.009   1.033
 3835SOL    HW223537   3.313   6.915   0.907
 3836SOL     OW23538   3.529   7.300   0.572
 3836SOL    HW123539   3.488   7.277   0.484
 3836SOL    HW223540   3.511   7.226   0.637
 3837SOL     OW23541   2.460   6.315   0.270
 3837SOL    HW123542   2.484   6.384   0.202
 3837SOL    HW223543   2.382   6.348   0.324
 3838SOL     OW23544   3.143   5.931   0.944
 3838SOL    HW123545   3.057   5.881   0.931
 3838SOL    HW223546   3.205   5.877   1.000
 3839SOL     OW23547   3.438   7.248   0.307
 3839SOL    HW123548   3.527   7.294   0.310
 3839SOL    HW223549   3.417   7.224   0.212
 3840SOL     OW23550   2.853   5.996   1.242
 3840SOL    HW123551   2.776   6.030   1.296
 3840SOL    HW223552   2.819   5.945   1.163
 3841SOL     OW23553   2.903   6.287   0.429
 3841SOL    HW123554   2.929   6.283   0.525
 3841SOL    HW223555   2.818   6.236   0.415
 3842SOL     OW23556   1.938   6.397   0.789
 3842SOL    HW123557   2.037   6.385   0.798
 3842SOL    HW223558   1.914   6.492   0.810
 3843SOL     OW23559   2.727   5.934   0.195
 3843SOL    HW123560   2.786   5.997   0.146
 3843SOL    HW223561   2.746   5.840   0.166
 3844SOL     OW23562   3.581   6.171   1.831
 3844SOL    HW123563   3.555   6.260   1.795
 3844SOL    HW223564   3.579   6.103   1.758
 3845SOL     OW23565   3.224   6.730   0.545
 3845SOL    HW123566   3.307   6.701   0.497
 3845SOL    HW223567   3.175   6.797   0.489
 3846SOL     OW23568   2.412   5.782   0.885
 3846SOL    HW123569   2.407   5.777   0.985
 3846SOL    HW223570   2.414   5.878   0.856
 3847SOL     OW23571   2.870   7.042   0.477
 3847SOL    HW123572   2.824   7.114   0.425
 3847SOL    HW223573   2.866   7.062   0.575
 3848SOL     OW23574   2.213   7.387   0.853
 3848SOL    HW123575   2.263   7.301   0.859
 3848SOL    HW223576   2.278   7.464   0.850
 3849SOL     OW23577   3.657   6.652   0.873
 3849SOL    HW123578   3.595   6.637   0.797
 3849SOL    HW223579   3.605   6.663   0.958
 3850SOL     OW23580   3.089   7.136   1.506
 3850SOL    HW123581   3.095   7.059   1.570
 3850SOL    HW223582   3.037   7.110   1.426
 3851SOL     OW23583   2.183   6.529   0.242
 3851SOL    HW123584   2.265   6.568   0.200
 3851SOL    HW223585   2.156   6.447   0.193
 3852SOL     OW23586   3.320   6.321   0.728
 3852SOL    HW123587   3.315   6.256   0.803
 3852SOL    HW223588   3.400   6.380   0.741
 3853SOL     OW23589   2.973   7.362   0.237
 3853SOL    HW123590   2.913   7.300   0.287
 3853SOL    HW223591   3.004   7.318   0.152
 3854SOL     OW23592   3.494   6.963   0.081
 3854SOL    HW123593   3.462   7.057   0.071
 3854SOL    HW223594   3.418   6.900   0.069
 3855SOL     OW23595   2.326   7.329   0.323
 3855SOL    HW123596   2.359   7.368   0.409
 3855SOL    HW223597   2.402   7.322   0.258
 3856SOL     OW23598   3.262   5.693   0.426
 3856SOL    HW123599   3.238   5.656   0.336
 3856SOL    HW223600   3.361   5.709   0.430
 3857SOL     OW23601   2.111   7.371   1.241
 3857SOL    HW123602   2.168   7.306   1.291
 3857SOL    HW223603   2.095   7.338   1.148
 3858SOL     OW23604   2.802   7.284   0.904
 3858SOL    HW123605   2.882   7.227   0.925
 3858SOL    HW223606   2.753   7.244   0.827
 3859SOL     OW23607   2.244   6.286   0.480
 3859SOL    HW123608   2.289   6.196   0.477
 3859SOL    HW223609   2.150   6.275   0.513
 3860SOL     OW23610   3.409   5.808   1.729
 3860SOL    HW123611   3.404   5.845   1.821
 3860SOL    HW223612   3.337   5.739   1.717
 3861SOL     OW23613   2.750   7.100   1.195
 3861SOL    HW123614   2.727   7.075   1.101
 3861SOL    HW223615   2.811   7.031   1.234
 3862SOL     OW23616   3.213   6.176   1.433
 3862SOL    HW123617   3.241   6.133   1.518
 3862SOL    HW223618   3.238   6.272   1.434
 3863SOL     OW23619   2.665   6.988   0.924
 3863SOL    HW123620   2.755   7.002   0.882
 3863SOL    HW223621   2.594   6.990   0.853
 3864SOL     OW23622   2.784   6.089   0.899
 3864SOL    HW123623   2.759   6.080   0.803
 3864SOL    HW223624   2.832   6.007   0.930
 3865SOL     OW23625   2.401   5.650   0.512
 3865SOL    HW123626   2.320   5.651   0.570
 3865SOL    HW223627   2.404   5.733   0.457
 3866SOL     OW23628   3.296   6.774   0.041
 3866SOL    HW123629   3.328   6.698   0.098
 3866SOL    HW223630   3.204   6.801   0.071
 3867SOL     OW23631   2.797   5.822   0.480
 3867SOL    HW123632   2.749   5.863   0.402
 3867SOL    HW223633   2.896   5.820   0.461
 3868SOL     OW23634   3.089   7.156   0.793
 3868SOL    HW123635   3.110   7.230   0.728
 3868SOL    HW223636   3.157   7.156   0.866
 3869SOL     OW23637   2.321   6.738   0.741
 3869SOL    HW123638   2.250   6.711   0.806
 3869SOL    HW223639   2.295   6.710   0.648
 3870SOL     OW23640   3.133   7.383   0.591
 3870SOL    HW123641   3.177   7.447   0.527
 3870SOL    HW223642   3.083   7.435   0.661
 3871SOL     OW23643   2.894   6.135   0.016
 3871SOL    HW123644   2.853   6.217  -0.023
 3871SOL    HW223645   2.958   6.161   0.089
 3872SOL     OW23646   1.940   6.142   1.386
 3872SOL    HW123647   2.032   6.141   1.345
 3872SOL    HW223648   1.934   6.216   1.453
 3873SOL     OW23649   2.423   5.808   1.147
 3873SOL    HW123650   2.461   5.724   1.184
 3873SOL    HW223651   2.335   5.827   1.191
 3874SOL     OW23652   2.728   6.040   0.642
 3874SOL    HW123653   2.696   6.112   0.580
 3874SOL    HW223654   2.752   5.959   0.589
 3875SOL     OW23655   2.879   5.625   0.753
 3875SOL    HW123656   2.807   5.630   0.684
 3875SOL    HW223657   2.855   5.556   0.822
 3876SOL     OW23658   3.291   6.759   0.867
 3876SOL    HW123659   3.236   6.675   0.860
 3876SOL    HW223660   3.317   6.788   0.775
 3877SOL     OW23661   3.328   6.176   0.992
 3877SOL    HW123662   3.298   6.081   0.999
 3877SOL    HW223663   3.401   6.192   1.058
 3878SOL     OW23664   3.719   6.419   0.377
 3878SOL    HW123665   3.761   6.355   0.441
 3878SOL    HW223666   3.681   6.368   0.299
 3879SOL     OW23667   2.350   6.971   0.174
 3879SOL    HW123668   2.263   6.956   0.221
 3879SOL    HW223669   2.333   6.997   0.079
 3880SOL     OW23670   3.526   6.866   0.657
 3880SOL    HW123671   3.625   6.874   0.671
 3880SOL    HW223672   3.481   6.950   0.688
 3881SOL     OW23673   3.252   6.161   0.078
 3881SOL    HW123674   3.198   6.140   0.159
 3881SOL    HW223675   3.343   6.120   0.087
 3882SOL     OW23676   2.389   5.842   0.328
 3882SOL    HW123677   2.416   5.783   0.253
 3882SOL    HW223678   2.389   5.937   0.297
 3883SOL     OW23679   3.616   6.809   1.588
 3883SOL    HW123680   3.707   6.770   1.575
 3883SOL    HW223681   3.624   6.905   1.612
 3884SOL     OW23682   2.926   6.933   1.340
 3884SOL    HW123683   2.846   6.910   1.395
 3884SOL    HW223684   3.009   6.907   1.389
 3885SOL     OW23685   3.454   7.215   1.625
 3885SOL    HW123686   3.481   7.249   1.535
 3885SOL    HW223687   3.533   7.177   1.671
 3886SOL     OW23688   2.973   6.781   1.100
 3886SOL    HW123689   2.933   6.825   1.181
 3886SOL    HW223690   2.932   6.818   1.017
 3887SOL     OW23691   3.500   6.685   1.079
 3887SOL    HW123692   3.505   6.766   1.138
 3887SOL    HW223693   3.414   6.687   1.028
 3888SOL     OW23694   2.567   6.636   0.368
 3888SOL    HW123695   2.553   6.643   0.467
 3888SOL    HW223696   2.651   6.585   0.350
 3889SOL     OW23697   3.136   5.972   1.262
 3889SOL    HW123698   3.157   6.046   1.326
 3889SOL    HW223699   3.047   5.989   1.219
 3890SOL     OW23700   1.926   7.150   1.331
 3890SOL    HW123701   1.880   7.232   1.297
 3890SOL    HW223702   2.024   7.169   1.340
 3891SOL     OW23703   2.229   6.686   0.501
 3891SOL    HW123704   2.222   6.769   0.445
 3891SOL    HW223705   2.233   6.606   0.441
 3892SOL     OW23706   2.428   6.123   0.865
 3892SOL    HW123707   2.440   6.189   0.791
 3892SOL    HW223708   2.474   6.157   0.948
 3893SOL     OW23709   3.114   6.934   0.388
 3893SOL    HW123710   3.164   7.011   0.428
 3893SOL    HW223711   3.019   6.936   0.420
 3894SOL     OW23712   3.134   7.031   1.142
 3894SOL    HW123713   3.181   7.044   1.229
 3894SOL    HW223714   3.068   6.957   1.151
 3895SOL     OW23715   3.444   6.225   0.472
 3895SOL    HW123716   3.413   6.286   0.545
 3895SOL    HW223717   3.494   6.277   0.403
 3896SOL     OW23718   3.449   6.365   1.670
 3896SOL    HW123719   3.357   6.403   1.665
 3896SOL    HW223720   3.509   6.412   1.605
 3897SOL     OW23721   3.222   6.448   1.045
 3897SOL    HW123722   3.147   6.448   0.979
 3897SOL    HW223723   3.259   6.356   1.054
 3898SOL     OW23724   3.071   6.111   0.275
 3898SOL    HW123725   3.084   6.027   0.329
 3898SOL    HW223726   3.042   6.185   0.335
 3899SOL     OW23727   2.169   5.799   1.231
 3899SOL    HW123728   2.146   5.836   1.321
 3899SOL    HW223729   2.139   5.704   1.225
 3900SOL     OW23730   1.899   6.896   1.282
 3900SOL    HW123731   1.952   6.847   1.350
 3900SOL    HW223732   1.921   6.994   1.287
 3901SOL     OW23733   2.594   6.220   1.064
 3901SOL    HW123734   2.653   6.194   0.988
 3901SOL    HW223735   2.566   6.316   1.053
 3902SOL     OW23736   3.590   6.521   1.854
 3902SOL    HW123737   3.544   6.514   1.765
 3902SOL    HW223738   3.528   6.565   1.920
 3903SOL     OW23739   2.169   5.649   0.618
 3903SOL    HW123740   2.158   5.743   0.651
 3903SOL    HW223741   2.164   5.586   0.695
 3904SOL     OW23742   3.484   5.953   0.374
 3904SOL    HW123743   3.486   5.877   0.438
 3904SOL    HW223744   3.436   6.030   0.414
 3905SOL     OW23745   2.885   6.352   0.966
 3905SOL    HW123746   2.900   6.373   1.062
 3905SOL    HW223747   2.855   6.257   0.957
 3906SOL     OW23748   2.842   7.159   1.700
 3906SOL    HW123749   2.822   7.203   1.612
 3906SOL    HW223750   2.881   7.068   1.684
 3907SOL     OW23751   3.721   7.104   1.605
 3907SOL    HW123752   3.735   7.131   1.510
 3907SOL    HW223753   3.804   7.126   1.658
 3908SOL     OW23754   2.212   6.484   1.804
 3908SOL    HW123755   2.288   6.528   1.852
 3908SOL    HW223756   2.247   6.437   1.722
 3909SOL     OW23757   3.402   5.860   0.125
 3909SOL    HW123758   3.341   5.785   0.148
 3909SOL    HW223759   3.424   5.912   0.208
 3910SOL     OW23760   3.165   6.424   0.042
 3910SOL    HW123761   3.199   6.331   0.057
 3910SOL    HW223762   3.183   6.451  -0.053
 3911SOL     OW23763   2.930   6.919   0.849
 3911SOL    HW123764   2.937   6.835   0.794
 3911SOL    HW223765   2.992   6.988   0.813
 3912SOL     OW23766   2.181   6.396   0.949
 3912SOL    HW123767   2.274   6.432   0.954
 3912SOL    HW223768   2.175   6.311   1.001
 3913SOL     OW23769   2.201   6.095   1.006
 3913SOL    HW123770   2.149   6.012   0.989
 3913SOL    HW223771   2.278   6.100   0.942
 3914SOL     OW23772   1.870   6.912   0.200
 3914SOL    HW123773   1.777   6.933   0.169
 3914SOL    HW223774   1.880   6.813   0.213
 3915SOL     OW23775   1.950   7.387   0.927
 3915SOL    HW123776   1.908   7.301   0.900
 3915SOL    HW223777   2.044   7.390   0.893
 3916SOL     OW23778   2.366   7.154   0.910
 3916SOL    HW123779   2.432   7.228   0.919
 3916SOL    HW223780   2.410   7.075   0.868
 3917SOL     OW23781   2.864   6.382   1.238
 3917SOL    HW123782   2.905   6.350   1.324
 3917SOL    HW223783   2.768   6.355   1.235
 3918SOL     OW23784   1.902   6.130   1.114
 3918SOL    HW123785   1.987   6.097   1.073
 3918SOL    HW223786   1.915   6.145   1.212
 3919SOL     OW23787   2.051   6.106   1.722
 3919SOL    HW123788   2.110   6.066   1.652
 3919SOL    HW223789   1.993   6.177   1.681
 3920SOL     OW23790   3.231   6.536   1.660
 3920SOL    HW123791   3.270   6.625   1.680
 3920SOL    HW223792   3.241   6.516   1.563
 3921SOL     OW23793   2.677   6.158   0.325
 3921SOL    HW123794   2.684   6.069   0.279
 3921SOL    HW223795   2.583   6.192   0.317
 3922SOL     OW23796   3.519   6.190   1.206
 3922SOL    HW123797   3.481   6.121   1.268
 3922SOL    HW223798   3.601   6.154   1.162
 3923SOL     OW23799   2.533   6.050   1.269
 3923SOL    HW123800   2.499   5.961   1.239
 3923SOL    HW223801   2.559   6.104   1.189
 3924SOL     OW23802   2.335   6.086   0.191
 3924SOL    HW123803   2.396   6.166   0.195
 3924SOL    HW223804   2.240   6.117   0.198
 3925SOL     OW23805   2.021   6.723   1.466
 3925SOL    HW123806   2.043   6.662   1.542
 3925SOL    HW223807   2.031   6.674   1.380
 3926SOL     OW23808   3.209   6.645   1.234
 3926SOL    HW123809   3.233   6.582   1.160
 3926SOL    HW223810   3.119   6.685   1.216
 3927SOL     OW23811   3.164   6.441   0.309
 3927SOL    HW123812   3.078   6.410   0.351
 3927SOL    HW223813   3.160   6.427   0.210
 3928SOL     OW23814   3.621   7.333   1.154
 3928SOL    HW123815   3.682   7.363   1.081
 3928SOL    HW223816   3.583   7.244   1.132
 3929SOL     OW23817   3.114   7.317   1.128
 3929SOL    HW123818   3.198   7.322   1.074
 3929SOL    HW223819   3.091   7.221   1.146
 3930SOL     OW23820   1.945   6.844   1.022
 3930SOL    HW123821   1.940   6.843   1.122
 3930SOL    HW223822   1.862   6.803   0.984
 3931SOL     OW23823   2.765   5.672   0.133
 3931SOL    HW123824   2.816   5.673   0.047
 3931SOL    HW223825   2.821   5.630   0.204
 3932SOL     OW23826   3.588   5.721   0.523
 3932SOL    HW123827   3.661   5.704   0.456
 3932SOL    HW223828   3.557   5.634   0.561
 3933SOL     OW23829   3.250   7.159   0.477
 3933SOL    HW123830   3.317   7.171   0.403
 3933SOL    HW223831   3.210   7.248   0.500
 3934SOL     OW23832   3.142   6.513   0.672
 3934SOL    HW123833   3.202   6.432   0.674
 3934SOL    HW223834   3.182   6.582   0.612
 3935SOL     OW23835   2.692   6.859   1.422
 3935SOL    HW123836   2.687   6.892   1.517
 3935SOL    HW223837   2.606   6.878   1.376
 3936SOL     OW23838   2.534   7.202   0.154
 3936SOL    HW123839   2.543   7.212   0.055
 3936SOL    HW223840   2.494   7.113   0.175
 3937SOL     OW23841   3.512   7.306   1.394
 3937SOL    HW123842   3.565   7.316   1.310
 3937SOL    HW223843   3.485   7.396   1.428
 3938SOL     OW23844   3.703   5.761   0.963
 3938SOL    HW123845   3.742   5.676   0.927
 3938SOL    HW223846   3.605   5.763   0.944
 3939SOL     OW23847   2.125   5.912   0.720
 3939SOL    HW123848   2.046   5.963   0.686
 3939SOL    HW223849   2.116   5.897   0.818
 3940SOL     OW23850   3.056   7.198   0.031
 3940SOL    HW123851   3.062   7.105   0.068
 3940SOL    HW223852   2.997   7.198  -0.049
 3941SOL     OW23853   2.684   6.588   1.372
 3941SOL    HW123854   2.724   6.587   1.280
 3941SOL    HW223855   2.694   6.680   1.412
 3942SOL     OW23856   2.778   6.496   0.291
 3942SOL    HW123857   2.841   6.534   0.223
 3942SOL    HW223858   2.818   6.413   0.330
 3943SOL     OW23859   3.366   7.193   0.044
 3943SOL    HW123860   3.274   7.230   0.051
 3943SOL    HW223861   3.404   7.213  -0.046
 3944SOL     OW23862   3.476   6.878   1.289
 3944SOL    HW123863   3.536   6.881   1.369
 3944SOL    HW223864   3.401   6.942   1.302
 3945SOL     OW23865   2.901   6.684   0.696
 3945SOL    HW123866   2.831   6.637   0.750
 3945SOL    HW223867   2.960   6.616   0.653
 3946SOL     OW23868   2.876   5.822   0.971
 3946SOL    HW123869   2.868   5.786   0.878
 3946SOL    HW223870   2.874   5.746   1.036
 3947SOL     OW23871   2.452   7.073   0.491
 3947SOL    HW123872   2.494   7.015   0.421
 3947SOL    HW223873   2.408   7.152   0.447
 3948SOL     OW23874   3.571   5.971   1.381
 3948SOL    HW123875   3.644   6.040   1.385
 3948SOL    HW223876   3.599   5.896   1.322
 3949SOL     OW23877   2.117   6.934   0.290
 3949SOL    HW123878   2.021   6.935   0.263
 3949SOL    HW223879   2.129   6.987   0.374
 3950SOL     OW23880   1.967   6.599   1.726
 3950SOL    HW123881   1.890   6.566   1.780
 3950SOL    HW223882   2.052   6.569   1.768
 3951SOL     OW23883   1.937   5.931   0.033
 3951SOL    HW123884   1.845   5.903   0.004
 3951SOL    HW223885   1.968   6.008  -0.023
 3952SOL     OW23886   3.302   6.442   1.398
 3952SOL    HW123887   3.245   6.494   1.335
 3952SOL    HW223888   3.398   6.454   1.374
 3953SOL     OW23889   1.934   5.752   0.318
 3953SOL    HW123890   1.917   5.835   0.264
 3953SOL    HW223891   2.024   5.715   0.296
 3954SOL     OW23892   3.045   6.921   0.119
 3954SOL    HW123893   2.946   6.910   0.121
 3954SOL    HW223894   3.079   6.936   0.212
 3955SOL     OW23895   3.355   7.353   0.959
 3955SOL    HW123896   3.388   7.417   0.890
 3955SOL    HW223897   3.421   7.347   1.034
 3956SOL     OW23898   3.312   6.806   1.633
 3956SOL    HW123899   3.303   6.796   1.732
 3956SOL    HW223900   3.408   6.799   1.607
 3957SOL     OW23901   2.252   7.327   1.560
 3957SOL    HW123902   2.161   7.368   1.558
 3957SOL    HW223903   2.245   7.233   1.592
 3958SOL     OW23904   3.536   6.469   1.254
 3958SOL    HW123905   3.509   6.380   1.217
 3958SOL    HW223906   3.537   6.537   1.181
 3959SOL     OW23907   3.087   5.911   0.449
 3959SOL    HW123908   3.152   5.837   0.438
 3959SOL    HW223909   3.107   5.961   0.533
 3960SOL     OW23910   2.456   6.331   0.652
 3960SOL    HW123911   2.506   6.416   0.633
 3960SOL    HW223912   2.368   6.333   0.604
 3961SOL     OW23913   3.639   5.928   1.642
 3961SOL    HW123914   3.622   5.959   1.548
 3961SOL    HW223915   3.555   5.891   1.680
 3962SOL     OW23916   3.592   6.520   1.517
 3962SOL    HW123917   3.630   6.611   1.532
 3962SOL    HW223918   3.584   6.503   1.418
 3963SOL     OW23919   2.721   6.960   0.016
 3963SOL    HW123920   2.675   6.975   0.104
 3963SOL    HW223921   2.765   7.045  -0.014
 3964SOL     OW23922   2.523   7.376   0.953
 3964SOL    HW123923   2.477   7.464   0.940
 3964SOL    HW223924   2.622   7.388   0.946
 3965SOL     OW23925   2.721   6.542   0.861
 3965SOL    HW123926   2.775   6.473   0.909
 3965SOL    HW223927   2.689   6.611   0.927
 3966SOL     OW23928   2.945   6.570   0.087
 3966SOL    HW123929   2.922   6.623   0.005
 3966SOL    HW223930   3.026   6.514   0.068
 3967SOL     OW23931   3.723   7.155   0.851
 3967SOL    HW123932   3.652   7.143   0.781
 3967SOL    HW223933   3.724   7.076   0.911
 3968SOL     OW23934   1.941   6.826   0.653
 3968SOL    HW123935   1.940   6.779   0.741
 3968SOL    HW223936   2.023   6.798   0.602
 3969SOL     OW23937   2.534   6.977   1.624
 3969SOL    HW123938   2.456   6.927   1.662
 3969SOL    HW223939   2.531   7.072   1.655
 3970SOL     OW23940   3.686   5.778   1.227
 3970SOL    HW123941   3.682   5.688   1.271
 3970SOL    HW223942   3.689   5.767   1.128
 3971SOL     OW23943   2.290   6.010   0.520
 3971SOL    HW123944   2.320   5.938   0.458
 3971SOL    HW223945   2.251   5.970   0.603
 3972SOL     OW23946   3.567   7.073   1.104
 3972SOL    HW123947   3.474   7.048   1.077
 3972SOL    HW223948   3.593   7.023   1.186
 3973SOL     OW23949   2.674   7.172   0.687
 3973SOL    HW123950   2.706   7.182   0.593
 3973SOL    HW223951   2.595   7.110   0.689
 3974SOL     OW23952   3.286   5.800   1.112
 3974SOL    HW123953   3.338   5.735   1.167
 3974SOL    HW223954   3.237   5.863   1.173
 3975SOL     OW23955   2.863   5.620   1.154
 3975SOL    HW123956   2.800   5.548   1.123
 3975SOL    HW223957   2.956   5.584   1.154
 3976SOL     OW23958   2.632   6.916   0.301
 3976SOL    HW123959   2.586   6.829   0.318
 3976SOL    HW223960   2.723   6.913   0.342
 3977SOL     OW23961   3.214   5.638   0.168
 3977SOL    HW123962   3.249   5.597   0.084
 3977SOL    HW223963   3.124   5.600   0.188
 3978SOL     OW23964   3.162   6.039   0.691
 3978SOL    HW123965   3.103   6.119   0.695
 3978SOL    HW223966   3.177   6.004   0.784
 3979SOL     OW23967   3.455   5.807   0.882
 3979SOL    HW123968   3.371   5.806   0.936
 3979SOL    HW223969   3.457   5.890   0.826
 3980SOL     OW23970   1.901   6.663   0.300
 3980SOL    HW123971   2.000   6.652   0.291
 3980SOL    HW223972   1.861   6.577   0.332
 3981SOL     OW23973   2.737   7.232   0.337
 3981SOL    HW123974   2.660   7.197   0.283
 3981SOL    HW223975   2.705   7.303   0.399
 3982SOL     OW23976   2.431   6.861   3.027
 3982SOL    HW123977   2.338   6.854   2.990
 3982SOL    HW223978   2.442   6.950   3.071
 3983SOL     OW23979   2.712   6.384   3.685
 3983SOL    HW123980   2.708   6.460   3.750
 3983SOL    HW223981   2.734   6.420   3.594
 3984SOL     OW23982   3.322   7.091   3.201
 3984SOL    HW123983   3.346   7.185   3.227
 3984SOL    HW223984   3.306   7.037   3.283
 3985SOL     OW23985   2.989   6.927   3.552
 3985SOL    HW123986   3.036   6.927   3.640
 3985SOL    HW223987   2.941   6.840   3.541
 3986SOL     OW23988   2.092   7.020   2.400
 3986SOL    HW123989   2.066   7.116   2.400
 3986SOL    HW223990   2.021   6.966   2.445
 3987SOL     OW23991   2.482   7.372   3.301
 3987SOL    HW123992   2.390   7.355   3.336
 3987SOL    HW223993   2.510   7.464   3.327
 3988SOL     OW23994   2.468   6.550   1.985
 3988SOL    HW123995   2.475   6.634   1.931
 3988SOL    HW223996   2.514   6.563   2.073
 3989SOL     OW23997   1.889   7.182   1.979
 3989SOL    HW123998   1.870   7.086   2.000
 3989SOL    HW223999   1.856   7.240   2.054
 3990SOL     OW24000   3.551   6.508   2.474
 3990SOL    HW124001   3.646   6.479   2.482
 3990SOL    HW224002   3.543   6.573   2.399
 3991SOL     OW24003   3.328   7.003   2.815
 3991SOL    HW124004   3.269   7.009   2.895
 3991SOL    HW224005   3.313   6.915   2.769
 3992SOL     OW24006   2.460   6.315   2.132
 3992SOL    HW124007   2.484   6.384   2.064
 3992SOL    HW224008   2.382   6.348   2.186
 3993SOL     OW24009   3.143   5.931   2.806
 3993SOL    HW124010   3.057   5.881   2.793
 3993SOL    HW224011   3.205   5.877   2.862
 3994SOL     OW24012   3.438   7.248   2.169
 3994SOL    HW124013   3.527   7.294   2.172
 3994SOL    HW224014   3.417   7.224   2.074
 3995SOL     OW24015   2.853   5.996   3.104
 3995SOL    HW124016   2.776   6.030   3.158
 3995SOL    HW224017   2.819   5.945   3.025
 3996SOL     OW24018   1.938   6.397   2.651
 3996SOL    HW124019   2.037   6.385   2.660
 3996SOL    HW224020   1.914   6.492   2.672
 3997SOL     OW24021   1.992   7.407   3.433
 3997SOL    HW124022   1.982   7.392   3.532
 3997SOL    HW224023   1.906   7.443   3.397
 3998SOL     OW24024   3.581   6.171   3.693
 3998SOL    HW124025   3.555   6.260   3.657
 3998SOL    HW224026   3.579   6.103   3.620
 3999SOL     OW24027   3.224   6.730   2.407
 3999SOL    HW124028   3.307   6.701   2.359
 3999SOL    HW224029   3.175   6.797   2.351
 4000SOL     OW24030   3.089   7.136   3.368
 4000SOL    HW124031   3.095   7.059   3.432
 4000SOL    HW224032   3.037   7.110   3.288
 4001SOL     OW24033   2.973   7.362   2.099
 4001SOL    HW124034   2.913   7.300   2.149
 4001SOL    HW224035   3.004   7.318   2.014
 4002SOL     OW24036   3.494   6.963   1.943
 4002SOL    HW124037   3.462   7.057   1.933
 4002SOL    HW224038   3.418   6.900   1.931
 4003SOL     OW24039   2.111   7.371   3.103
 4003SOL    HW124040   2.168   7.306   3.153
 4003SOL    HW224041   2.095   7.338   3.010
 4004SOL     OW24042   2.802   7.284   2.766
 4004SOL    HW124043   2.882   7.227   2.787
 4004SOL    HW224044   2.753   7.244   2.689
 4005SOL     OW24045   2.159   5.621   2.033
 4005SOL    HW124046   2.208   5.705   2.012
 4005SOL    HW224047   2.221   5.556   2.078
 4006SOL     OW24048   2.797   5.822   2.342
 4006SOL    HW124049   2.749   5.863   2.264
 4006SOL    HW224050   2.896   5.820   2.323
 4007SOL     OW24051   3.089   7.156   2.655
 4007SOL    HW124052   3.110   7.230   2.590
 4007SOL    HW224053   3.157   7.156   2.728
 4008SOL     OW24054   2.321   6.738   2.603
 4008SOL    HW124055   2.250   6.711   2.668
 4008SOL    HW224056   2.295   6.710   2.510
 4009SOL     OW24057   3.133   7.383   2.453
 4009SOL    HW124058   3.177   7.447   2.389
 4009SOL    HW224059   3.083   7.435   2.523
 4010SOL     OW24060   3.291   6.759   2.729
 4010SOL    HW124061   3.236   6.675   2.722
 4010SOL    HW224062   3.317   6.788   2.637
 4011SOL     OW24063   3.719   6.419   2.239
 4011SOL    HW124064   3.761   6.355   2.303
 4011SOL    HW224065   3.681   6.368   2.161
 4012SOL     OW24066   2.350   6.971   2.036
 4012SOL    HW124067   2.263   6.956   2.083
 4012SOL    HW224068   2.333   6.997   1.941
 4013SOL     OW24069   3.526   6.866   2.519
 4013SOL    HW124070   3.625   6.874   2.533
 4013SOL    HW224071   3.481   6.950   2.550
 4014SOL     OW24072   3.252   6.161   1.940
 4014SOL    HW124073   3.198   6.140   2.021
 4014SOL    HW224074   3.343   6.120   1.949
 4015SOL     OW24075   2.973   6.781   2.962
 4015SOL    HW124076   2.933   6.825   3.043
 4015SOL    HW224077   2.932   6.818   2.879
 4016SOL     OW24078   2.777   5.675   3.264
 4016SOL    HW124079   2.802   5.655   3.169
 4016SOL    HW224080   2.849   5.731   3.306
 4017SOL     OW24081   2.229   6.686   2.363
 4017SOL    HW124082   2.222   6.769   2.307
 4017SOL    HW224083   2.233   6.606   2.303
 4018SOL     OW24084   3.134   7.031   3.004
 4018SOL    HW124085   3.181   7.044   3.091
 4018SOL    HW224086   3.068   6.957   3.013
 4019SOL     OW24087   3.444   6.225   2.334
 4019SOL    HW124088   3.413   6.286   2.407
 4019SOL    HW224089   3.494   6.277   2.265
 4020SOL     OW24090   1.899   6.896   3.144
 4020SOL    HW124091   1.952   6.847   3.212
 4020SOL    HW224092   1.921   6.994   3.149
 4021SOL     OW24093   2.594   6.220   2.926
 4021SOL    HW124094   2.653   6.194   2.850
 4021SOL    HW224095   2.566   6.316   2.915
 4022SOL     OW24096   2.885   6.352   2.828
 4022SOL    HW124097   2.900   6.373   2.924
 4022SOL    HW224098   2.855   6.257   2.819
 4023SOL     OW24099   3.721   7.104   3.467
 4023SOL    HW124100   3.735   7.131   3.372
 4023SOL    HW224101   3.804   7.126   3.520
 4024SOL     OW24102   3.165   6.424   1.904
 4024SOL    HW124103   3.199   6.331   1.919
 4024SOL    HW224104   3.183   6.451   1.809
 4025SOL     OW24105   1.950   7.387   2.789
 4025SOL    HW124106   1.908   7.301   2.762
 4025SOL    HW224107   2.044   7.390   2.755
 4026SOL     OW24108   1.902   6.130   2.976
 4026SOL    HW124109   1.987   6.097   2.935
 4026SOL    HW224110   1.915   6.145   3.074
 4027SOL     OW24111   2.051   6.106   3.584
 4027SOL    HW124112   2.110   6.066   3.514
 4027SOL    HW224113   1.993   6.177   3.543
 4028SOL     OW24114   3.231   6.536   3.522
 4028SOL    HW124115   3.270   6.625   3.542
 4028SOL    HW224116   3.241   6.516   3.425
 4029SOL     OW24117   2.114   7.150   3.606
 4029SOL    HW124118   2.084   7.207   3.682
 4029SOL    HW224119   2.107   7.053   3.632
 4030SOL     OW24120   2.335   6.086   2.053
 4030SOL    HW124121   2.396   6.166   2.057
 4030SOL    HW224122   2.240   6.117   2.060
 4031SOL     OW24123   2.021   6.723   3.328
 4031SOL    HW124124   2.043   6.662   3.404
 4031SOL    HW224125   2.031   6.674   3.242
 4032SOL     OW24126   3.164   6.441   2.171
 4032SOL    HW124127   3.078   6.410   2.213
 4032SOL    HW224128   3.160   6.427   2.072
 4033SOL     OW24129   3.114   7.317   2.990
 4033SOL    HW124130   3.198   7.322   2.936
 4033SOL    HW224131   3.091   7.221   3.008
 4034SOL     OW24132   3.588   5.721   2.385
 4034SOL    HW124133   3.661   5.704   2.318
 4034SOL    HW224134   3.557   5.634   2.423
 4035SOL     OW24135   3.250   7.159   2.339
 4035SOL    HW124136   3.317   7.171   2.265
 4035SOL    HW224137   3.210   7.248   2.362
 4036SOL     OW24138   2.692   6.859   3.284
 4036SOL    HW124139   2.687   6.892   3.379
 4036SOL    HW224140   2.606   6.878   3.238
 4037SOL     OW24141   3.512   7.306   3.256
 4037SOL    HW124142   3.565   7.316   3.172
 4037SOL    HW224143   3.485   7.396   3.290
 4038SOL     OW24144   2.901   6.684   2.558
 4038SOL    HW124145   2.831   6.637   2.612
 4038SOL    HW224146   2.960   6.616   2.515
 4039SOL     OW24147   2.876   5.822   2.833
 4039SOL    HW124148   2.868   5.786   2.740
 4039SOL    HW224149   2.874   5.746   2.898
 4040SOL     OW24150   3.302   6.442   3.260
 4040SOL    HW124151   3.245   6.494   3.197
 4040SOL    HW224152   3.398   6.454   3.236
 4041SOL     OW24153   2.578   6.151   3.570
 4041SOL    HW124154   2.597   6.216   3.644
 4041SOL    HW224155   2.638   6.071   3.579
 4042SOL     OW24156   3.312   6.806   3.495
 4042SOL    HW124157   3.303   6.796   3.594
 4042SOL    HW224158   3.408   6.799   3.469
 4043SOL     OW24159   2.252   7.327   3.422
 4043SOL    HW124160   2.161   7.368   3.420
 4043SOL    HW224161   2.245   7.233   3.454
 4044SOL     OW24162   3.639   5.928   3.504
 4044SOL    HW124163   3.622   5.959   3.410
 4044SOL    HW224164   3.555   5.891   3.542
 4045SOL     OW24165   2.721   6.960   1.878
 4045SOL    HW124166   2.675   6.975   1.966
 4045SOL    HW224167   2.765   7.045   1.848
 4046SOL     OW24168   2.523   7.376   2.815
 4046SOL    HW124169   2.477   7.464   2.802
 4046SOL    HW224170   2.622   7.388   2.808
 4047SOL     OW24171   2.290   6.010   2.382
 4047SOL    HW124172   2.320   5.938   2.320
 4047SOL    HW224173   2.251   5.970   2.465
 4048SOL     OW24174   2.179   6.133   3.142
 4048SOL    HW124175   2.217   6.074   3.214
 4048SOL    HW224176   2.219   6.107   3.054
 4049SOL     OW24177   3.286   5.800   2.974
 4049SOL    HW124178   3.338   5.735   3.029
 4049SOL    HW224179   3.237   5.863   3.035
 4050SOL     OW24180   2.632   6.916   2.163
 4050SOL    HW124181   2.586   6.829   2.180
 4050SOL    HW224182   2.723   6.913   2.204
 4051SOL     OW24183   2.480   7.153   3.146
 4051SOL    HW124184   2.475   7.235   3.203
 4051SOL    HW224185   2.569   7.150   3.101
 4052SOL     OW24186   1.901   6.663   2.162
 4052SOL    HW124187   2.000   6.652   2.153
 4052SOL    HW224188   1.861   6.577   2.194
 4053SOL     OW24189   2.997   6.289   4.441
 4053SOL    HW124190   3.054   6.367   4.416
 4053SOL    HW224191   2.937   6.315   4.517
 4054SOL     OW24192   2.630   6.730   4.747
 4054SOL    HW124193   2.552   6.747   4.807
 4054SOL    HW224194   2.664   6.817   4.711
 4055SOL     OW24195   2.712   6.384   5.547
 4055SOL    HW124196   2.708   6.460   5.612
 4055SOL    HW224197   2.734   6.420   5.456
 4056SOL     OW24198   2.548   6.747   5.527
 4056SOL    HW124199   2.608   6.826   5.541
 4056SOL    HW224200   2.462   6.778   5.486
 4057SOL     OW24201   3.322   7.091   5.063
 4057SOL    HW124202   3.346   7.185   5.089
 4057SOL    HW224203   3.306   7.037   5.145
 4058SOL     OW24204   2.468   6.550   3.847
 4058SOL    HW124205   2.475   6.634   3.793
 4058SOL    HW224206   2.514   6.563   3.935
 4059SOL     OW24207   3.704   7.353   4.083
 4059SOL    HW124208   3.758   7.324   4.163
 4059SOL    HW224209   3.734   7.443   4.054
 4060SOL     OW24210   1.975   6.323   5.321
 4060SOL    HW124211   2.063   6.310   5.366
 4060SOL    HW224212   1.962   6.420   5.299
 4061SOL     OW24213   3.155   6.814   5.147
 4061SOL    HW124214   3.192   6.741   5.089
 4061SOL    HW224215   3.207   6.819   5.232
 4062SOL     OW24216   2.671   5.590   4.226
 4062SOL    HW124217   2.711   5.681   4.217
 4062SOL    HW224218   2.571   5.598   4.232
 4063SOL     OW24219   3.387   6.585   3.914
 4063SOL    HW124220   3.324   6.509   3.927
 4063SOL    HW224221   3.435   6.603   4.000
 4064SOL     OW24222   3.049   7.378   5.340
 4064SOL    HW124223   3.073   7.438   5.264
 4064SOL    HW224224   3.056   7.283   5.310
 4065SOL     OW24225   2.179   5.837   5.525
 4065SOL    HW124226   2.250   5.908   5.531
 4065SOL    HW224227   2.091   5.876   5.553
 4066SOL     OW24228   2.460   6.315   3.994
 4066SOL    HW124229   2.484   6.384   3.926
 4066SOL    HW224230   2.382   6.348   4.048
 4067SOL     OW24231   1.992   7.407   5.295
 4067SOL    HW124232   1.982   7.392   5.394
 4067SOL    HW224233   1.906   7.443   5.259
 4068SOL     OW24234   2.183   6.529   3.966
 4068SOL    HW124235   2.265   6.568   3.924
 4068SOL    HW224236   2.156   6.447   3.917
 4069SOL     OW24237   2.323   6.852   5.451
 4069SOL    HW124238   2.273   6.853   5.365
 4069SOL    HW224239   2.260   6.834   5.527
 4070SOL     OW24240   2.064   5.871   5.222
 4070SOL    HW124241   1.984   5.931   5.209
 4070SOL    HW224242   2.054   5.822   5.308
 4071SOL     OW24243   3.262   5.693   4.150
 4071SOL    HW124244   3.238   5.656   4.060
 4071SOL    HW224245   3.361   5.709   4.154
 4072SOL     OW24246   2.784   6.089   4.623
 4072SOL    HW124247   2.759   6.080   4.527
 4072SOL    HW224248   2.832   6.007   4.654
 4073SOL     OW24249   2.159   5.621   3.895
 4073SOL    HW124250   2.208   5.705   3.874
 4073SOL    HW224251   2.221   5.556   3.940
 4074SOL     OW24252   3.133   7.383   4.315
 4074SOL    HW124253   3.177   7.447   4.251
 4074SOL    HW224254   3.083   7.435   4.385
 4075SOL     OW24255   3.252   6.161   3.802
 4075SOL    HW124256   3.198   6.140   3.883
 4075SOL    HW224257   3.343   6.120   3.811
 4076SOL     OW24258   3.616   6.809   5.312
 4076SOL    HW124259   3.707   6.770   5.299
 4076SOL    HW224260   3.624   6.905   5.336
 4077SOL     OW24261   2.229   6.686   4.225
 4077SOL    HW124262   2.222   6.769   4.169
 4077SOL    HW224263   2.233   6.606   4.165
 4078SOL     OW24264   3.444   6.225   4.196
 4078SOL    HW124265   3.413   6.286   4.269
 4078SOL    HW224266   3.494   6.277   4.127
 4079SOL     OW24267   2.264   6.337   5.322
 4079SOL    HW124268   2.332   6.392   5.275
 4079SOL    HW224269   2.304   6.249   5.349
 4080SOL     OW24270   2.875   5.691   5.494
 4080SOL    HW124271   2.881   5.776   5.442
 4080SOL    HW224272   2.907   5.615   5.437
 4081SOL     OW24273   2.169   5.799   4.955
 4081SOL    HW124274   2.146   5.836   5.045
 4081SOL    HW224275   2.139   5.704   4.949
 4082SOL     OW24276   3.484   5.953   4.098
 4082SOL    HW124277   3.486   5.877   4.162
 4082SOL    HW224278   3.436   6.030   4.138
 4083SOL     OW24279   3.721   7.104   5.329
 4083SOL    HW124280   3.735   7.131   5.234
 4083SOL    HW224281   3.804   7.126   5.382
 4084SOL     OW24282   2.212   6.484   5.528
 4084SOL    HW124283   2.288   6.528   5.576
 4084SOL    HW224284   2.247   6.437   5.446
 4085SOL     OW24285   3.165   6.424   3.766
 4085SOL    HW124286   3.199   6.331   3.781
 4085SOL    HW224287   3.183   6.451   3.671
 4086SOL     OW24288   2.181   6.396   4.673
 4086SOL    HW124289   2.274   6.432   4.678
 4086SOL    HW224290   2.175   6.311   4.725
 4087SOL     OW24291   3.000   5.966   5.402
 4087SOL    HW124292   2.955   6.029   5.466
 4087SOL    HW224293   3.093   5.997   5.385
 4088SOL     OW24294   3.022   5.793   5.201
 4088SOL    HW124295   3.022   5.857   5.278
 4088SOL    HW224296   3.050   5.841   5.118
 4089SOL     OW24297   1.870   6.912   3.924
 4089SOL    HW124298   1.777   6.933   3.893
 4089SOL    HW224299   1.880   6.813   3.937
 4090SOL     OW24300   2.366   7.154   4.634
 4090SOL    HW124301   2.432   7.228   4.643
 4090SOL    HW224302   2.410   7.075   4.592
 4091SOL     OW24303   2.864   6.382   4.962
 4091SOL    HW124304   2.905   6.350   5.048
 4091SOL    HW224305   2.768   6.355   4.959
 4092SOL     OW24306   3.231   6.536   5.384
 4092SOL    HW124307   3.270   6.625   5.404
 4092SOL    HW224308   3.241   6.516   5.287
 4093SOL     OW24309   2.677   6.158   4.049
 4093SOL    HW124310   2.684   6.069   4.003
 4093SOL    HW224311   2.583   6.192   4.041
 4094SOL     OW24312   3.519   6.190   4.930
 4094SOL    HW124313   3.481   6.121   4.992
 4094SOL    HW224314   3.601   6.154   4.886
 4095SOL     OW24315   2.114   7.150   5.468
 4095SOL    HW124316   2.084   7.207   5.544
 4095SOL    HW224317   2.107   7.053   5.494
 4096SOL     OW24318   3.209   6.645   4.958
 4096SOL    HW124319   3.233   6.582   4.884
 4096SOL    HW224320   3.119   6.685   4.940
 4097SOL     OW24321   2.550   7.248   5.440
 4097SOL    HW124322   2.494   7.329   5.449
 4097SOL    HW224323   2.602   7.252   5.354
 4098SOL     OW24324   2.125   5.912   4.444
 4098SOL    HW124325   2.046   5.963   4.410
 4098SOL    HW224326   2.116   5.897   4.542
 4099SOL     OW24327   3.366   7.193   3.768
 4099SOL    HW124328   3.274   7.230   3.775
 4099SOL    HW224329   3.404   7.213   3.678
 4100SOL     OW24330   3.476   6.878   5.013
 4100SOL    HW124331   3.536   6.881   5.093
 4100SOL    HW224332   3.401   6.942   5.026
 4101SOL     OW24333   2.117   6.934   4.014
 4101SOL    HW124334   2.021   6.935   3.987
 4101SOL    HW224335   2.129   6.987   4.098
 4102SOL     OW24336   1.967   6.599   5.450
 4102SOL    HW124337   1.890   6.566   5.504
 4102SOL    HW224338   2.052   6.569   5.492
 4103SOL     OW24339   1.937   5.931   3.757
 4103SOL    HW124340   1.845   5.903   3.728
 4103SOL    HW224341   1.968   6.008   3.701
 4104SOL     OW24342   3.302   6.442   5.122
 4104SOL    HW124343   3.245   6.494   5.059
 4104SOL    HW224344   3.398   6.454   5.098
 4105SOL     OW24345   3.045   6.921   3.843
 4105SOL    HW124346   2.946   6.910   3.845
 4105SOL    HW224347   3.079   6.936   3.936
 4106SOL     OW24348   3.312   6.806   5.357
 4106SOL    HW124349   3.303   6.796   5.456
 4106SOL    HW224350   3.408   6.799   5.331
 4107SOL     OW24351   2.456   6.331   4.376
 4107SOL    HW124352   2.506   6.416   4.357
 4107SOL    HW224353   2.368   6.333   4.328
 4108SOL     OW24354   2.721   6.960   3.740
 4108SOL    HW124355   2.675   6.975   3.828
 4108SOL    HW224356   2.765   7.045   3.710
 4109SOL     OW24357   2.534   6.977   5.348
 4109SOL    HW124358   2.456   6.927   5.386
 4109SOL    HW224359   2.531   7.072   5.379
 4110SOL     OW24360   3.686   5.778   4.951
 4110SOL    HW124361   3.682   5.688   4.995
 4110SOL    HW224362   3.689   5.767   4.852
 4111SOL     OW24363   3.567   7.073   4.828
 4111SOL    HW124364   3.474   7.048   4.801
 4111SOL    HW224365   3.593   7.023   4.910
 4112SOL     OW24366   3.214   5.638   3.892
 4112SOL    HW124367   3.249   5.597   3.808
 4112SOL    HW224368   3.124   5.600   3.912
 4113SOL     OW24369   3.162   6.039   4.415
 4113SOL    HW124370   3.103   6.119   4.419
 4113SOL    HW224371   3.177   6.004   4.508
 4114SOL     OW24372   3.455   5.807   4.606
 4114SOL    HW124373   3.371   5.806   4.660
 4114SOL    HW224374   3.457   5.890   4.550
 4115SOL     OW24375   2.087   5.861   6.582
 4115SOL    HW124376   2.122   5.844   6.674
 4115SOL    HW224377   1.999   5.816   6.570
 4116SOL     OW24378   1.881   5.954   6.233
 4116SOL    HW124379   1.799   5.997   6.272
 4116SOL    HW224380   1.853   5.881   6.170
 4117SOL     OW24381   2.431   6.861   6.751
 4117SOL    HW124382   2.338   6.854   6.714
 4117SOL    HW224383   2.442   6.950   6.795
 4118SOL     OW24384   3.417   7.097   6.289
 4118SOL    HW124385   3.360   7.081   6.370
 4118SOL    HW224386   3.358   7.107   6.209
 4119SOL     OW24387   2.997   6.289   6.303
 4119SOL    HW124388   3.054   6.367   6.278
 4119SOL    HW224389   2.937   6.315   6.379
 4120SOL     OW24390   3.617   6.193   5.817
 4120SOL    HW124391   3.605   6.180   5.718
 4120SOL    HW224392   3.587   6.112   5.866
 4121SOL     OW24393   2.630   6.730   6.609
 4121SOL    HW124394   2.552   6.747   6.669
 4121SOL    HW224395   2.664   6.817   6.573
 4122SOL     OW24396   2.547   6.598   6.251
 4122SOL    HW124397   2.616   6.582   6.321
 4122SOL    HW224398   2.474   6.655   6.289
 4123SOL     OW24399   2.197   7.021   6.647
 4123SOL    HW124400   2.119   6.990   6.594
 4123SOL    HW224401   2.255   7.079   6.590
 4124SOL     OW24402   2.300   5.978   7.085
 4124SOL    HW124403   2.382   5.922   7.094
 4124SOL    HW224404   2.219   5.920   7.089
 4125SOL     OW24405   3.465   6.033   6.323
 4125SOL    HW124406   3.391   6.079   6.273
 4125SOL    HW224407   3.516   6.101   6.376
 4126SOL     OW24408   2.093   7.299   6.069
 4126SOL    HW124409   2.127   7.376   6.123
 4126SOL    HW224410   2.137   7.299   5.979
 4127SOL     OW24411   2.092   7.020   6.124
 4127SOL    HW124412   2.066   7.116   6.124
 4127SOL    HW224413   2.021   6.966   6.169
 4128SOL     OW24414   2.102   6.677   6.472
 4128SOL    HW124415   2.116   6.593   6.524
 4128SOL    HW224416   2.047   6.741   6.527
 4129SOL     OW24417   2.482   7.372   7.025
 4129SOL    HW124418   2.390   7.355   7.060
 4129SOL    HW224419   2.510   7.464   7.051
 4130SOL     OW24420   2.468   6.550   5.709
 4130SOL    HW124421   2.475   6.634   5.655
 4130SOL    HW224422   2.514   6.563   5.797
 4131SOL     OW24423   1.984   6.229   6.149
 4131SOL    HW124424   1.939   6.141   6.166
 4131SOL    HW224425   1.983   6.283   6.233
 4132SOL     OW24426   3.704   7.353   5.945
 4132SOL    HW124427   3.758   7.324   6.025
 4132SOL    HW224428   3.734   7.443   5.916
 4133SOL     OW24429   3.551   6.508   6.198
 4133SOL    HW124430   3.646   6.479   6.206
 4133SOL    HW224431   3.543   6.573   6.123
 4134SOL     OW24432   3.503   6.694   6.018
 4134SOL    HW124433   3.589   6.696   5.966
 4134SOL    HW224434   3.517   6.741   6.106
 4135SOL     OW24435   2.475   6.951   6.312
 4135SOL    HW124436   2.426   6.864   6.321
 4135SOL    HW224437   2.452   6.994   6.225
 4136SOL     OW24438   2.671   5.590   6.088
 4136SOL    HW124439   2.711   5.681   6.079
 4136SOL    HW224440   2.571   5.598   6.094
 4137SOL     OW24441   2.059   6.562   6.850
 4137SOL    HW124442   2.148   6.517   6.836
 4137SOL    HW224443   1.986   6.497   6.831
 4138SOL     OW24444   3.387   6.585   5.776
 4138SOL    HW124445   3.324   6.509   5.789
 4138SOL    HW224446   3.435   6.603   5.862
 4139SOL     OW24447   3.328   7.003   6.539
 4139SOL    HW124448   3.269   7.009   6.619
 4139SOL    HW224449   3.313   6.915   6.493
 4140SOL     OW24450   3.529   7.300   6.158
 4140SOL    HW124451   3.488   7.277   6.070
 4140SOL    HW224452   3.511   7.226   6.223
 4141SOL     OW24453   2.460   6.315   5.856
 4141SOL    HW124454   2.484   6.384   5.788
 4141SOL    HW224455   2.382   6.348   5.910
 4142SOL     OW24456   3.143   5.931   6.530
 4142SOL    HW124457   3.057   5.881   6.517
 4142SOL    HW224458   3.205   5.877   6.586
 4143SOL     OW24459   2.669   6.191   7.051
 4143SOL    HW124460   2.622   6.188   7.140
 4143SOL    HW224461   2.618   6.136   6.985
 4144SOL     OW24462   2.853   5.996   6.828
 4144SOL    HW124463   2.776   6.030   6.882
 4144SOL    HW224464   2.819   5.945   6.749
 4145SOL     OW24465   2.903   6.287   6.015
 4145SOL    HW124466   2.929   6.283   6.111
 4145SOL    HW224467   2.818   6.236   6.001
 4146SOL     OW24468   1.938   6.397   6.375
 4146SOL    HW124469   2.037   6.385   6.384
 4146SOL    HW224470   1.914   6.492   6.396
 4147SOL     OW24471   1.992   7.407   7.157
 4147SOL    HW124472   1.982   7.392   7.256
 4147SOL    HW224473   1.906   7.443   7.121
 4148SOL     OW24474   2.727   5.934   5.781
 4148SOL    HW124475   2.786   5.997   5.732
 4148SOL    HW224476   2.746   5.840   5.752
 4149SOL     OW24477   3.224   6.730   6.131
 4149SOL    HW124478   3.307   6.701   6.083
 4149SOL    HW224479   3.175   6.797   6.075
 4150SOL     OW24480   2.412   5.782   6.471
 4150SOL    HW124481   2.407   5.777   6.571
 4150SOL    HW224482   2.414   5.878   6.442
 4151SOL     OW24483   2.870   7.042   6.063
 4151SOL    HW124484   2.824   7.114   6.011
 4151SOL    HW224485   2.866   7.062   6.161
 4152SOL     OW24486   2.213   7.387   6.439
 4152SOL    HW124487   2.263   7.301   6.445
 4152SOL    HW224488   2.278   7.464   6.436
 4153SOL     OW24489   3.657   6.652   6.459
 4153SOL    HW124490   3.595   6.637   6.383
 4153SOL    HW224491   3.605   6.663   6.544
 4154SOL     OW24492   2.183   6.529   5.828
 4154SOL    HW124493   2.265   6.568   5.786
 4154SOL    HW224494   2.156   6.447   5.779
 4155SOL     OW24495   3.320   6.321   6.314
 4155SOL    HW124496   3.315   6.256   6.389
 4155SOL    HW224497   3.400   6.380   6.327
 4156SOL     OW24498   2.973   7.362   5.823
 4156SOL    HW124499   2.913   7.300   5.873
 4156SOL    HW224500   3.004   7.318   5.738
 4157SOL     OW24501   3.494   6.963   5.667
 4157SOL    HW124502   3.462   7.057   5.657
 4157SOL    HW224503   3.418   6.900   5.655
 4158SOL     OW24504   2.326   7.329   5.909
 4158SOL    HW124505   2.359   7.368   5.995
 4158SOL    HW224506   2.402   7.322   5.844
 4159SOL     OW24507   3.262   5.693   6.012
 4159SOL    HW124508   3.238   5.656   5.922
 4159SOL    HW224509   3.361   5.709   6.016
 4160SOL     OW24510   2.111   7.371   6.827
 4160SOL    HW124511   2.168   7.306   6.877
 4160SOL    HW224512   2.095   7.338   6.734
 4161SOL     OW24513   2.802   7.284   6.490
 4161SOL    HW124514   2.882   7.227   6.511
 4161SOL    HW224515   2.753   7.244   6.413
 4162SOL     OW24516   2.244   6.286   6.066
 4162SOL    HW124517   2.289   6.196   6.063
 4162SOL    HW224518   2.150   6.275   6.099
 4163SOL     OW24519   2.750   7.100   6.781
 4163SOL    HW124520   2.727   7.075   6.687
 4163SOL    HW224521   2.811   7.031   6.820
 4164SOL     OW24522   2.665   6.988   6.510
 4164SOL    HW124523   2.755   7.002   6.468
 4164SOL    HW224524   2.594   6.990   6.439
 4165SOL     OW24525   2.784   6.089   6.485
 4165SOL    HW124526   2.759   6.080   6.389
 4165SOL    HW224527   2.832   6.007   6.516
 4166SOL     OW24528   2.401   5.650   6.098
 4166SOL    HW124529   2.320   5.651   6.156
 4166SOL    HW224530   2.404   5.733   6.043
 4167SOL     OW24531   2.159   5.621   5.757
 4167SOL    HW124532   2.208   5.705   5.736
 4167SOL    HW224533   2.221   5.556   5.802
 4168SOL     OW24534   2.797   5.822   6.066
 4168SOL    HW124535   2.749   5.863   5.988
 4168SOL    HW224536   2.896   5.820   6.047
 4169SOL     OW24537   3.089   7.156   6.379
 4169SOL    HW124538   3.110   7.230   6.314
 4169SOL    HW224539   3.157   7.156   6.452
 4170SOL     OW24540   2.321   6.738   6.327
 4170SOL    HW124541   2.250   6.711   6.392
 4170SOL    HW224542   2.295   6.710   6.234
 4171SOL     OW24543   3.133   7.383   6.177
 4171SOL    HW124544   3.177   7.447   6.113
 4171SOL    HW224545   3.083   7.435   6.247
 4172SOL     OW24546   2.894   6.135   5.602
 4172SOL    HW124547   2.853   6.217   5.563
 4172SOL    HW224548   2.958   6.161   5.675
 4173SOL     OW24549   2.423   5.808   6.733
 4173SOL    HW124550   2.461   5.724   6.770
 4173SOL    HW224551   2.335   5.827   6.777
 4174SOL     OW24552   2.728   6.040   6.228
 4174SOL    HW124553   2.696   6.112   6.166
 4174SOL    HW224554   2.752   5.959   6.175
 4175SOL     OW24555   2.879   5.625   6.339
 4175SOL    HW124556   2.807   5.630   6.270
 4175SOL    HW224557   2.855   5.556   6.408
 4176SOL     OW24558   3.291   6.759   6.453
 4176SOL    HW124559   3.236   6.675   6.446
 4176SOL    HW224560   3.317   6.788   6.361
 4177SOL     OW24561   3.328   6.176   6.578
 4177SOL    HW124562   3.298   6.081   6.585
 4177SOL    HW224563   3.401   6.192   6.644
 4178SOL     OW24564   3.719   6.419   5.963
 4178SOL    HW124565   3.761   6.355   6.027
 4178SOL    HW224566   3.681   6.368   5.885
 4179SOL     OW24567   2.350   6.971   5.760
 4179SOL    HW124568   2.263   6.956   5.807
 4179SOL    HW224569   2.333   6.997   5.665
 4180SOL     OW24570   3.526   6.866   6.243
 4180SOL    HW124571   3.625   6.874   6.257
 4180SOL    HW224572   3.481   6.950   6.274
 4181SOL     OW24573   3.252   6.161   5.664
 4181SOL    HW124574   3.198   6.140   5.745
 4181SOL    HW224575   3.343   6.120   5.673
 4182SOL     OW24576   2.389   5.842   5.914
 4182SOL    HW124577   2.416   5.783   5.839
 4182SOL    HW224578   2.389   5.937   5.883
 4183SOL     OW24579   2.926   6.933   6.926
 4183SOL    HW124580   2.846   6.910   6.981
 4183SOL    HW224581   3.009   6.907   6.975
 4184SOL     OW24582   2.973   6.781   6.686
 4184SOL    HW124583   2.933   6.825   6.767
 4184SOL    HW224584   2.932   6.818   6.603
 4185SOL     OW24585   3.500   6.685   6.665
 4185SOL    HW124586   3.505   6.766   6.724
 4185SOL    HW224587   3.414   6.687   6.614
 4186SOL     OW24588   2.567   6.636   5.954
 4186SOL    HW124589   2.553   6.643   6.053
 4186SOL    HW224590   2.651   6.585   5.936
 4187SOL     OW24591   2.272   6.399   6.837
 4187SOL    HW124592   2.358   6.411   6.887
 4187SOL    HW224593   2.230   6.312   6.864
 4188SOL     OW24594   3.136   5.972   6.848
 4188SOL    HW124595   3.157   6.046   6.912
 4188SOL    HW224596   3.047   5.989   6.805
 4189SOL     OW24597   1.926   7.150   6.917
 4189SOL    HW124598   1.880   7.232   6.883
 4189SOL    HW224599   2.024   7.169   6.926
 4190SOL     OW24600   2.229   6.686   6.087
 4190SOL    HW124601   2.222   6.769   6.031
 4190SOL    HW224602   2.233   6.606   6.027
 4191SOL     OW24603   2.428   6.123   6.451
 4191SOL    HW124604   2.440   6.189   6.377
 4191SOL    HW224605   2.474   6.157   6.534
 4192SOL     OW24606   3.114   6.934   5.974
 4192SOL    HW124607   3.164   7.011   6.014
 4192SOL    HW224608   3.019   6.936   6.006
 4193SOL     OW24609   3.134   7.031   6.728
 4193SOL    HW124610   3.181   7.044   6.815
 4193SOL    HW224611   3.068   6.957   6.737
 4194SOL     OW24612   3.444   6.225   6.058
 4194SOL    HW124613   3.413   6.286   6.131
 4194SOL    HW224614   3.494   6.277   5.989
 4195SOL     OW24615   2.216   7.096   6.915
 4195SOL    HW124616   2.195   7.052   6.828
 4195SOL    HW224617   2.313   7.122   6.918
 4196SOL     OW24618   2.366   5.636   7.326
 4196SOL    HW124619   2.324   5.579   7.256
 4196SOL    HW224620   2.300   5.705   7.358
 4197SOL     OW24621   2.435   6.456   6.615
 4197SOL    HW124622   2.479   6.545   6.606
 4197SOL    HW224623   2.372   6.456   6.692
 4198SOL     OW24624   3.222   6.448   6.631
 4198SOL    HW124625   3.147   6.448   6.565
 4198SOL    HW224626   3.259   6.356   6.640
 4199SOL     OW24627   3.071   6.111   5.861
 4199SOL    HW124628   3.084   6.027   5.915
 4199SOL    HW224629   3.042   6.185   5.921
 4200SOL     OW24630   2.169   5.799   6.817
 4200SOL    HW124631   2.146   5.836   6.907
 4200SOL    HW224632   2.139   5.704   6.811
 4201SOL     OW24633   1.899   6.896   6.868
 4201SOL    HW124634   1.952   6.847   6.936
 4201SOL    HW224635   1.921   6.994   6.873
 4202SOL     OW24636   2.594   6.220   6.650
 4202SOL    HW124637   2.653   6.194   6.574
 4202SOL    HW224638   2.566   6.316   6.639
 4203SOL     OW24639   2.169   5.649   6.204
 4203SOL    HW124640   2.158   5.743   6.237
 4203SOL    HW224641   2.164   5.586   6.281
 4204SOL     OW24642   3.484   5.953   5.960
 4204SOL    HW124643   3.486   5.877   6.024
 4204SOL    HW224644   3.436   6.030   6.000
 4205SOL     OW24645   2.885   6.352   6.552
 4205SOL    HW124646   2.900   6.373   6.648
 4205SOL    HW224647   2.855   6.257   6.543
 4206SOL     OW24648   3.402   5.860   5.711
 4206SOL    HW124649   3.341   5.785   5.734
 4206SOL    HW224650   3.424   5.912   5.794
 4207SOL     OW24651   3.165   6.424   5.628
 4207SOL    HW124652   3.199   6.331   5.643
 4207SOL    HW224653   3.183   6.451   5.533
 4208SOL     OW24654   2.930   6.919   6.435
 4208SOL    HW124655   2.937   6.835   6.380
 4208SOL    HW224656   2.992   6.988   6.399
 4209SOL     OW24657   2.181   6.396   6.535
 4209SOL    HW124658   2.274   6.432   6.540
 4209SOL    HW224659   2.175   6.311   6.587
 4210SOL     OW24660   2.201   6.095   6.592
 4210SOL    HW124661   2.149   6.012   6.575
 4210SOL    HW224662   2.278   6.100   6.528
 4211SOL     OW24663   3.022   5.793   7.063
 4211SOL    HW124664   3.022   5.857   7.140
 4211SOL    HW224665   3.050   5.841   6.980
 4212SOL     OW24666   1.870   6.912   5.786
 4212SOL    HW124667   1.777   6.933   5.755
 4212SOL    HW224668   1.880   6.813   5.799
 4213SOL     OW24669   1.950   7.387   6.513
 4213SOL    HW124670   1.908   7.301   6.486
 4213SOL    HW224671   2.044   7.390   6.479
 4214SOL     OW24672   2.366   7.154   6.496
 4214SOL    HW124673   2.432   7.228   6.505
 4214SOL    HW224674   2.410   7.075   6.454
 4215SOL     OW24675   2.864   6.382   6.824
 4215SOL    HW124676   2.905   6.350   6.910
 4215SOL    HW224677   2.768   6.355   6.821
 4216SOL     OW24678   1.902   6.130   6.700
 4216SOL    HW124679   1.987   6.097   6.659
 4216SOL    HW224680   1.915   6.145   6.798
 4217SOL     OW24681   2.677   6.158   5.911
 4217SOL    HW124682   2.684   6.069   5.865
 4217SOL    HW224683   2.583   6.192   5.903
 4218SOL     OW24684   3.519   6.190   6.792
 4218SOL    HW124685   3.481   6.121   6.854
 4218SOL    HW224686   3.601   6.154   6.748
 4219SOL     OW24687   2.533   6.050   6.855
 4219SOL    HW124688   2.499   5.961   6.825
 4219SOL    HW224689   2.559   6.104   6.775
 4220SOL     OW24690   2.792   7.264   7.051
 4220SOL    HW124691   2.768   7.246   6.956
 4220SOL    HW224692   2.822   7.358   7.061
 4221SOL     OW24693   2.335   6.086   5.777
 4221SOL    HW124694   2.396   6.166   5.781
 4221SOL    HW224695   2.240   6.117   5.784
 4222SOL     OW24696   2.021   6.723   7.052
 4222SOL    HW124697   2.043   6.662   7.128
 4222SOL    HW224698   2.031   6.674   6.966
 4223SOL     OW24699   3.209   6.645   6.820
 4223SOL    HW124700   3.233   6.582   6.746
 4223SOL    HW224701   3.119   6.685   6.802
 4224SOL     OW24702   3.164   6.441   5.895
 4224SOL    HW124703   3.078   6.410   5.937
 4224SOL    HW224704   3.160   6.427   5.796
 4225SOL     OW24705   3.621   7.333   6.740
 4225SOL    HW124706   3.682   7.363   6.667
 4225SOL    HW224707   3.583   7.244   6.718
 4226SOL     OW24708   3.114   7.317   6.714
 4226SOL    HW124709   3.198   7.322   6.660
 4226SOL    HW224710   3.091   7.221   6.732
 4227SOL     OW24711   1.945   6.844   6.608
 4227SOL    HW124712   1.940   6.843   6.708
 4227SOL    HW224713   1.862   6.803   6.570
 4228SOL     OW24714   3.588   5.721   6.109
 4228SOL    HW124715   3.661   5.704   6.042
 4228SOL    HW224716   3.557   5.634   6.147
 4229SOL     OW24717   3.250   7.159   6.063
 4229SOL    HW124718   3.317   7.171   5.989
 4229SOL    HW224719   3.210   7.248   6.086
 4230SOL     OW24720   3.142   6.513   6.258
 4230SOL    HW124721   3.202   6.432   6.260
 4230SOL    HW224722   3.182   6.582   6.198
 4231SOL     OW24723   2.534   7.202   5.740
 4231SOL    HW124724   2.543   7.212   5.641
 4231SOL    HW224725   2.494   7.113   5.761
 4232SOL     OW24726   3.703   5.761   6.549
 4232SOL    HW124727   3.742   5.676   6.513
 4232SOL    HW224728   3.605   5.763   6.530
 4233SOL     OW24729   2.125   5.912   6.306
 4233SOL    HW124730   2.046   5.963   6.272
 4233SOL    HW224731   2.116   5.897   6.404
 4234SOL     OW24732   2.684   6.588   6.958
 4234SOL    HW124733   2.724   6.587   6.866
 4234SOL    HW224734   2.694   6.680   6.998
 4235SOL     OW24735   2.778   6.496   5.877
 4235SOL    HW124736   2.841   6.534   5.809
 4235SOL    HW224737   2.818   6.413   5.916
 4236SOL     OW24738   2.234   6.874   7.076
 4236SOL    HW124739   2.221   6.967   7.042
 4236SOL    HW224740   2.150   6.822   7.063
 4237SOL     OW24741   3.476   6.878   6.875
 4237SOL    HW124742   3.536   6.881   6.955
 4237SOL    HW224743   3.401   6.942   6.888
 4238SOL     OW24744   2.901   6.684   6.282
 4238SOL    HW124745   2.831   6.637   6.336
 4238SOL    HW224746   2.960   6.616   6.239
 4239SOL     OW24747   2.876   5.822   6.557
 4239SOL    HW124748   2.868   5.786   6.464
 4239SOL    HW224749   2.874   5.746   6.622
 4240SOL     OW24750   2.452   7.073   6.077
 4240SOL    HW124751   2.494   7.015   6.007
 4240SOL    HW224752   2.408   7.152   6.033
 4241SOL     OW24753   3.571   5.971   6.967
 4241SOL    HW124754   3.644   6.040   6.971
 4241SOL    HW224755   3.599   5.896   6.908
 4242SOL     OW24756   2.117   6.934   5.876
 4242SOL    HW124757   2.021   6.935   5.849
 4242SOL    HW224758   2.129   6.987   5.960
 4243SOL     OW24759   2.534   5.789   7.075
 4243SOL    HW124760   2.624   5.773   7.035
 4243SOL    HW224761   2.542   5.794   7.174
 4244SOL     OW24762   1.934   5.752   5.904
 4244SOL    HW124763   1.917   5.835   5.850
 4244SOL    HW224764   2.024   5.715   5.882
 4245SOL     OW24765   3.045   6.921   5.705
 4245SOL    HW124766   2.946   6.910   5.707
 4245SOL    HW224767   3.079   6.936   5.798
 4246SOL     OW24768   2.475   6.428   7.017
 4246SOL    HW124769   2.531   6.509   7.000
 4246SOL    HW224770   2.534   6.348   7.020
 4247SOL     OW24771   3.355   7.353   6.545
 4247SOL    HW124772   3.388   7.417   6.476
 4247SOL    HW224773   3.421   7.347   6.620
 4248SOL     OW24774   2.252   7.327   7.146
 4248SOL    HW124775   2.161   7.368   7.144
 4248SOL    HW224776   2.245   7.233   7.178
 4249SOL     OW24777   3.536   6.469   6.840
 4249SOL    HW124778   3.509   6.380   6.803
 4249SOL    HW224779   3.537   6.537   6.767
 4250SOL     OW24780   3.087   5.911   6.035
 4250SOL    HW124781   3.152   5.837   6.024
 4250SOL    HW224782   3.107   5.961   6.119
 4251SOL     OW24783   2.456   6.331   6.238
 4251SOL    HW124784   2.506   6.416   6.219
 4251SOL    HW224785   2.368   6.333   6.190
 4252SOL     OW24786   3.592   6.520   7.103
 4252SOL    HW124787   3.630   6.611   7.118
 4252SOL    HW224788   3.584   6.503   7.004
 4253SOL     OW24789   2.721   6.960   5.602
 4253SOL    HW124790   2.675   6.975   5.690
 4253SOL    HW224791   2.765   7.045   5.572
 4254SOL     OW24792   2.523   7.376   6.539
 4254SOL    HW124793   2.477   7.464   6.526
 4254SOL    HW224794   2.622   7.388   6.532
 4255SOL     OW24795   2.721   6.542   6.447
 4255SOL    HW124796   2.775   6.473   6.495
 4255SOL    HW224797   2.689   6.611   6.513
 4256SOL     OW24798   3.723   7.155   6.437
 4256SOL    HW124799   3.652   7.143   6.367
 4256SOL    HW224800   3.724   7.076   6.497
 4257SOL     OW24801   1.941   6.826   6.239
 4257SOL    HW124802   1.940   6.779   6.327
 4257SOL    HW224803   2.023   6.798   6.188
 4258SOL     OW24804   3.686   5.778   6.813
 4258SOL    HW124805   3.682   5.688   6.857
 4258SOL    HW224806   3.689   5.767   6.714
 4259SOL     OW24807   2.290   6.010   6.106
 4259SOL    HW124808   2.320   5.938   6.044
 4259SOL    HW224809   2.251   5.970   6.189
 4260SOL     OW24810   3.567   7.073   6.690
 4260SOL    HW124811   3.474   7.048   6.663
 4260SOL    HW224812   3.593   7.023   6.772
 4261SOL     OW24813   2.179   6.133   6.866
 4261SOL    HW124814   2.217   6.074   6.938
 4261SOL    HW224815   2.219   6.107   6.778
 4262SOL     OW24816   2.674   7.172   6.273
 4262SOL    HW124817   2.706   7.182   6.179
 4262SOL    HW224818   2.595   7.110   6.275
 4263SOL     OW24819   3.286   5.800   6.698
 4263SOL    HW124820   3.338   5.735   6.753
 4263SOL    HW224821   3.237   5.863   6.759
 4264SOL     OW24822   2.863   5.620   6.740
 4264SOL    HW124823   2.800   5.548   6.709
 4264SOL    HW224824   2.956   5.584   6.740
 4265SOL     OW24825   2.632   6.916   5.887
 4265SOL    HW124826   2.586   6.829   5.904
 4265SOL    HW224827   2.723   6.913   5.928
 4266SOL     OW24828   2.480   7.153   6.870
 4266SOL    HW124829   2.475   7.235   6.927
 4266SOL    HW224830   2.569   7.150   6.825
 4267SOL     OW24831   3.214   5.638   5.754
 4267SOL    HW124832   3.249   5.597   5.670
 4267SOL    HW224833   3.124   5.600   5.774
 4268SOL     OW24834   3.162   6.039   6.277
 4268SOL    HW124835   3.103   6.119   6.281
 4268SOL    HW224836   3.177   6.004   6.370
 4269SOL     OW24837   3.455   5.807   6.468
 4269SOL    HW124838   3.371   5.806   6.522
 4269SOL    HW224839   3.457   5.890   6.412
 4270SOL     OW24840   1.901   6.663   5.886
 4270SOL    HW124841   2.000   6.652   5.877
 4270SOL    HW224842   1.861   6.577   5.918
 4271SOL     OW24843   2.737   7.232   5.923
 4271SOL    HW124844   2.660   7.197   5.869
 4271SOL    HW224845   2.705   7.303   5.985
 4272SOL     OW24846   2.092   8.076   0.113
 4272SOL    HW124847   1.999   8.074   0.150
 4272SOL    HW224848   2.093   8.037   0.021
 4273SOL     OW24849   2.087   7.723   0.996
 4273SOL    HW124850   2.122   7.706   1.088
 4273SOL    HW224851   1.999   7.678   0.984
 4274SOL     OW24852   1.881   7.816   0.647
 4274SOL    HW124853   1.799   7.859   0.686
 4274SOL    HW224854   1.853   7.743   0.584
 4275SOL     OW24855   2.997   8.151   0.717
 4275SOL    HW124856   3.054   8.229   0.692
 4275SOL    HW224857   2.937   8.177   0.793
 4276SOL     OW24858   3.617   8.055   0.231
 4276SOL    HW124859   3.605   8.042   0.132
 4276SOL    HW224860   3.587   7.974   0.280
 4277SOL     OW24861   2.630   8.592   1.023
 4277SOL    HW124862   2.552   8.609   1.083
 4277SOL    HW224863   2.664   8.679   0.987
 4278SOL     OW24864   2.547   8.460   0.665
 4278SOL    HW124865   2.616   8.444   0.735
 4278SOL    HW224866   2.474   8.517   0.703
 4279SOL     OW24867   2.300   7.840   1.499
 4279SOL    HW124868   2.382   7.784   1.508
 4279SOL    HW224869   2.219   7.782   1.503
 4280SOL     OW24870   3.465   7.895   0.737
 4280SOL    HW124871   3.391   7.941   0.687
 4280SOL    HW224872   3.516   7.963   0.790
 4281SOL     OW24873   2.102   8.539   0.886
 4281SOL    HW124874   2.116   8.455   0.938
 4281SOL    HW224875   2.047   8.603   0.941
 4282SOL     OW24876   1.984   8.091   0.563
 4282SOL    HW124877   1.939   8.003   0.580
 4282SOL    HW224878   1.983   8.145   0.647
 4283SOL     OW24879   2.671   7.452   0.502
 4283SOL    HW124880   2.711   7.543   0.493
 4283SOL    HW224881   2.571   7.460   0.508
 4284SOL     OW24882   2.059   8.424   1.264
 4284SOL    HW124883   2.148   8.379   1.250
 4284SOL    HW224884   1.986   8.359   1.245
 4285SOL     OW24885   3.387   8.447   0.190
 4285SOL    HW124886   3.324   8.371   0.203
 4285SOL    HW224887   3.435   8.465   0.276
 4286SOL     OW24888   2.460   8.177   0.270
 4286SOL    HW124889   2.484   8.246   0.202
 4286SOL    HW224890   2.382   8.210   0.324
 4287SOL     OW24891   3.143   7.793   0.944
 4287SOL    HW124892   3.057   7.743   0.931
 4287SOL    HW224893   3.205   7.739   1.000
 4288SOL     OW24894   3.256   7.917   1.674
 4288SOL    HW124895   3.236   7.960   1.762
 4288SOL    HW224896   3.334   7.855   1.683
 4289SOL     OW24897   2.853   7.858   1.242
 4289SOL    HW124898   2.776   7.892   1.296
 4289SOL    HW224899   2.819   7.807   1.163
 4290SOL     OW24900   2.903   8.149   0.429
 4290SOL    HW124901   2.929   8.145   0.525
 4290SOL    HW224902   2.818   8.098   0.415
 4291SOL     OW24903   1.938   8.259   0.789
 4291SOL    HW124904   2.037   8.247   0.798
 4291SOL    HW224905   1.914   8.354   0.810
 4292SOL     OW24906   2.727   7.796   0.195
 4292SOL    HW124907   2.786   7.859   0.146
 4292SOL    HW224908   2.746   7.702   0.166
 4293SOL     OW24909   2.412   7.644   0.885
 4293SOL    HW124910   2.407   7.639   0.985
 4293SOL    HW224911   2.414   7.740   0.856
 4294SOL     OW24912   3.320   8.183   0.728
 4294SOL    HW124913   3.315   8.118   0.803
 4294SOL    HW224914   3.400   8.242   0.741
 4295SOL     OW24915   3.262   7.555   0.426
 4295SOL    HW124916   3.238   7.518   0.336
 4295SOL    HW224917   3.361   7.571   0.430
 4296SOL     OW24918   2.244   8.148   0.480
 4296SOL    HW124919   2.289   8.058   0.477
 4296SOL    HW224920   2.150   8.137   0.513
 4297SOL     OW24921   3.213   8.038   1.433
 4297SOL    HW124922   3.241   7.995   1.518
 4297SOL    HW224923   3.238   8.134   1.434
 4298SOL     OW24924   2.784   7.951   0.899
 4298SOL    HW124925   2.759   7.942   0.803
 4298SOL    HW224926   2.832   7.869   0.930
 4299SOL     OW24927   2.401   7.512   0.512
 4299SOL    HW124928   2.320   7.513   0.570
 4299SOL    HW224929   2.404   7.595   0.457
 4300SOL     OW24930   2.797   7.684   0.480
 4300SOL    HW124931   2.749   7.725   0.402
 4300SOL    HW224932   2.896   7.682   0.461
 4301SOL     OW24933   2.894   7.997   0.016
 4301SOL    HW124934   2.853   8.079  -0.023
 4301SOL    HW224935   2.958   8.023   0.089
 4302SOL     OW24936   2.423   7.670   1.147
 4302SOL    HW124937   2.461   7.586   1.184
 4302SOL    HW224938   2.335   7.689   1.191
 4303SOL     OW24939   2.728   7.902   0.642
 4303SOL    HW124940   2.696   7.974   0.580
 4303SOL    HW224941   2.752   7.821   0.589
 4304SOL     OW24942   2.879   7.487   0.753
 4304SOL    HW124943   2.807   7.492   0.684
 4304SOL    HW224944   2.855   7.418   0.822
 4305SOL     OW24945   3.328   8.038   0.992
 4305SOL    HW124946   3.298   7.943   0.999
 4305SOL    HW224947   3.401   8.054   1.058
 4306SOL     OW24948   3.719   8.281   0.377
 4306SOL    HW124949   3.761   8.217   0.441
 4306SOL    HW224950   3.681   8.230   0.299
 4307SOL     OW24951   3.252   8.023   0.078
 4307SOL    HW124952   3.198   8.002   0.159
 4307SOL    HW224953   3.343   7.982   0.087
 4308SOL     OW24954   2.389   7.704   0.328
 4308SOL    HW124955   2.416   7.645   0.253
 4308SOL    HW224956   2.389   7.799   0.297
 4309SOL     OW24957   3.500   8.547   1.079
 4309SOL    HW124958   3.505   8.628   1.138
 4309SOL    HW224959   3.414   8.549   1.028
 4310SOL     OW24960   3.136   7.834   1.262
 4310SOL    HW124961   3.157   7.908   1.326
 4310SOL    HW224962   3.047   7.851   1.219
 4311SOL     OW24963   2.428   7.985   0.865
 4311SOL    HW124964   2.440   8.051   0.791
 4311SOL    HW224965   2.474   8.019   0.948
 4312SOL     OW24966   3.444   8.087   0.472
 4312SOL    HW124967   3.413   8.148   0.545
 4312SOL    HW224968   3.494   8.139   0.403
 4313SOL     OW24969   3.449   8.227   1.670
 4313SOL    HW124970   3.357   8.265   1.665
 4313SOL    HW224971   3.509   8.274   1.605
 4314SOL     OW24972   2.366   7.498   1.740
 4314SOL    HW124973   2.324   7.441   1.670
 4314SOL    HW224974   2.300   7.567   1.772
 4315SOL     OW24975   2.435   8.318   1.029
 4315SOL    HW124976   2.479   8.407   1.020
 4315SOL    HW224977   2.372   8.318   1.106
 4316SOL     OW24978   3.222   8.310   1.045
 4316SOL    HW124979   3.147   8.310   0.979
 4316SOL    HW224980   3.259   8.218   1.054
 4317SOL     OW24981   3.071   7.973   0.275
 4317SOL    HW124982   3.084   7.889   0.329
 4317SOL    HW224983   3.042   8.047   0.335
 4318SOL     OW24984   2.169   7.661   1.231
 4318SOL    HW124985   2.146   7.698   1.321
 4318SOL    HW224986   2.139   7.566   1.225
 4319SOL     OW24987   2.594   8.082   1.064
 4319SOL    HW124988   2.653   8.056   0.988
 4319SOL    HW224989   2.566   8.178   1.053
 4320SOL     OW24990   3.590   8.383   1.854
 4320SOL    HW124991   3.544   8.376   1.765
 4320SOL    HW224992   3.528   8.427   1.920
 4321SOL     OW24993   2.169   7.511   0.618
 4321SOL    HW124994   2.158   7.605   0.651
 4321SOL    HW224995   2.164   7.448   0.695
 4322SOL     OW24996   3.484   7.815   0.374
 4322SOL    HW124997   3.486   7.739   0.438
 4322SOL    HW224998   3.436   7.892   0.414
 4323SOL     OW24999   2.885   8.214   0.966
 4323SOL    HW125000   2.900   8.235   1.062
 4323SOL    HW225001   2.855   8.119   0.957
 4324SOL     OW25002   3.402   7.722   0.125
 4324SOL    HW125003   3.341   7.647   0.148
 4324SOL    HW225004   3.424   7.774   0.208
 4325SOL     OW25005   3.165   8.286   0.042
 4325SOL    HW125006   3.199   8.193   0.057
 4325SOL    HW225007   3.183   8.313  -0.053
 4326SOL     OW25008   2.181   8.258   0.949
 4326SOL    HW125009   2.274   8.294   0.954
 4326SOL    HW225010   2.175   8.173   1.001
 4327SOL     OW25011   2.201   7.957   1.006
 4327SOL    HW125012   2.149   7.874   0.989
 4327SOL    HW225013   2.278   7.962   0.942
 4328SOL     OW25014   3.000   7.828   1.678
 4328SOL    HW125015   2.955   7.891   1.742
 4328SOL    HW225016   3.093   7.859   1.661
 4329SOL     OW25017   3.022   7.655   1.477
 4329SOL    HW125018   3.022   7.719   1.554
 4329SOL    HW225019   3.050   7.703   1.394
 4330SOL     OW25020   2.864   8.244   1.238
 4330SOL    HW125021   2.905   8.212   1.324
 4330SOL    HW225022   2.768   8.217   1.235
 4331SOL     OW25023   1.902   7.992   1.114
 4331SOL    HW125024   1.987   7.959   1.073
 4331SOL    HW225025   1.915   8.007   1.212
 4332SOL     OW25026   2.677   8.020   0.325
 4332SOL    HW125027   2.684   7.931   0.279
 4332SOL    HW225028   2.583   8.054   0.317
 4333SOL     OW25029   3.519   8.052   1.206
 4333SOL    HW125030   3.481   7.983   1.268
 4333SOL    HW225031   3.601   8.016   1.162
 4334SOL     OW25032   2.335   7.948   0.191
 4334SOL    HW125033   2.396   8.028   0.195
 4334SOL    HW225034   2.240   7.979   0.198
 4335SOL     OW25035   3.209   8.507   1.234
 4335SOL    HW125036   3.233   8.444   1.160
 4335SOL    HW225037   3.119   8.547   1.216
 4336SOL     OW25038   3.164   8.303   0.309
 4336SOL    HW125039   3.078   8.272   0.351
 4336SOL    HW225040   3.160   8.289   0.210
 4337SOL     OW25041   2.765   7.534   0.133
 4337SOL    HW125042   2.816   7.535   0.047
 4337SOL    HW225043   2.821   7.492   0.204
 4338SOL     OW25044   3.588   7.583   0.523
 4338SOL    HW125045   3.661   7.566   0.456
 4338SOL    HW225046   3.557   7.496   0.561
 4339SOL     OW25047   3.142   8.375   0.672
 4339SOL    HW125048   3.202   8.294   0.674
 4339SOL    HW225049   3.182   8.444   0.612
 4340SOL     OW25050   3.703   7.623   0.963
 4340SOL    HW125051   3.742   7.538   0.927
 4340SOL    HW225052   3.605   7.625   0.944
 4341SOL     OW25053   2.125   7.774   0.720
 4341SOL    HW125054   2.046   7.825   0.686
 4341SOL    HW225055   2.116   7.759   0.818
 4342SOL     OW25056   2.778   8.358   0.291
 4342SOL    HW125057   2.841   8.396   0.223
 4342SOL    HW225058   2.818   8.275   0.330
 4343SOL     OW25059   2.876   7.684   0.971
 4343SOL    HW125060   2.868   7.648   0.878
 4343SOL    HW225061   2.874   7.608   1.036
 4344SOL     OW25062   3.571   7.833   1.381
 4344SOL    HW125063   3.644   7.902   1.385
 4344SOL    HW225064   3.599   7.758   1.322
 4345SOL     OW25065   1.967   8.461   1.726
 4345SOL    HW125066   1.890   8.428   1.780
 4345SOL    HW225067   2.052   8.431   1.768
 4346SOL     OW25068   2.534   7.651   1.489
 4346SOL    HW125069   2.624   7.635   1.449
 4346SOL    HW225070   2.542   7.656   1.588
 4347SOL     OW25071   1.937   7.793   0.033
 4347SOL    HW125072   1.845   7.765   0.004
 4347SOL    HW225073   1.968   7.870  -0.023
 4348SOL     OW25074   3.302   8.304   1.398
 4348SOL    HW125075   3.245   8.356   1.335
 4348SOL    HW225076   3.398   8.316   1.374
 4349SOL     OW25077   1.934   7.614   0.318
 4349SOL    HW125078   1.917   7.697   0.264
 4349SOL    HW225079   2.024   7.577   0.296
 4350SOL     OW25080   3.536   8.331   1.254
 4350SOL    HW125081   3.509   8.242   1.217
 4350SOL    HW225082   3.537   8.399   1.181
 4351SOL     OW25083   3.087   7.773   0.449
 4351SOL    HW125084   3.152   7.699   0.438
 4351SOL    HW225085   3.107   7.823   0.533
 4352SOL     OW25086   2.456   8.193   0.652
 4352SOL    HW125087   2.506   8.278   0.633
 4352SOL    HW225088   2.368   8.195   0.604
 4353SOL     OW25089   3.592   8.382   1.517
 4353SOL    HW125090   3.630   8.473   1.532
 4353SOL    HW225091   3.584   8.365   1.418
 4354SOL     OW25092   2.945   8.432   0.087
 4354SOL    HW125093   2.922   8.485   0.005
 4354SOL    HW225094   3.026   8.376   0.068
 4355SOL     OW25095   3.686   7.640   1.227
 4355SOL    HW125096   3.682   7.550   1.271
 4355SOL    HW225097   3.689   7.629   1.128
 4356SOL     OW25098   2.290   7.872   0.520
 4356SOL    HW125099   2.320   7.800   0.458
 4356SOL    HW225100   2.251   7.832   0.603
 4357SOL     OW25101   2.179   7.995   1.280
 4357SOL    HW125102   2.217   7.936   1.352
 4357SOL    HW225103   2.219   7.969   1.192
 4358SOL     OW25104   3.286   7.662   1.112
 4358SOL    HW125105   3.338   7.597   1.167
 4358SOL    HW225106   3.237   7.725   1.173
 4359SOL     OW25107   2.863   7.482   1.154
 4359SOL    HW125108   2.800   7.410   1.123
 4359SOL    HW225109   2.956   7.446   1.154
 4360SOL     OW25110   3.214   7.500   0.168
 4360SOL    HW125111   3.249   7.459   0.084
 4360SOL    HW225112   3.124   7.462   0.188
 4361SOL     OW25113   3.162   7.901   0.691
 4361SOL    HW125114   3.103   7.981   0.695
 4361SOL    HW225115   3.177   7.866   0.784
 4362SOL     OW25116   3.455   7.669   0.882
 4362SOL    HW125117   3.371   7.668   0.936
 4362SOL    HW225118   3.457   7.752   0.826
 4363SOL     OW25119   1.881   7.816   2.509
 4363SOL    HW125120   1.799   7.859   2.548
 4363SOL    HW225121   1.853   7.743   2.446
 4364SOL     OW25122   3.456   7.562   3.342
 4364SOL    HW125123   3.438   7.629   3.270
 4364SOL    HW225124   3.453   7.608   3.431
 4365SOL     OW25125   1.975   8.185   3.459
 4365SOL    HW125126   2.063   8.172   3.504
 4365SOL    HW225127   1.962   8.282   3.437
 4366SOL     OW25128   2.179   7.699   3.663
 4366SOL    HW125129   2.250   7.770   3.669
 4366SOL    HW225130   2.091   7.738   3.691
 4367SOL     OW25131   3.143   7.793   2.806
 4367SOL    HW125132   3.057   7.743   2.793
 4367SOL    HW225133   3.205   7.739   2.862
 4368SOL     OW25134   2.669   8.053   3.327
 4368SOL    HW125135   2.622   8.050   3.416
 4368SOL    HW225136   2.618   7.998   3.261
 4369SOL     OW25137   2.853   7.858   3.104
 4369SOL    HW125138   2.776   7.892   3.158
 4369SOL    HW225139   2.819   7.807   3.025
 4370SOL     OW25140   3.262   7.555   2.288
 4370SOL    HW125141   3.238   7.518   2.198
 4370SOL    HW225142   3.361   7.571   2.292
 4371SOL     OW25143   3.409   7.670   3.591
 4371SOL    HW125144   3.404   7.707   3.683
 4371SOL    HW225145   3.337   7.601   3.579
 4372SOL     OW25146   3.213   8.038   3.295
 4372SOL    HW125147   3.241   7.995   3.380
 4372SOL    HW225148   3.238   8.134   3.296
 4373SOL     OW25149   2.159   7.483   2.033
 4373SOL    HW125150   2.208   7.567   2.012
 4373SOL    HW225151   2.221   7.418   2.078
 4374SOL     OW25152   2.894   7.997   1.878
 4374SOL    HW125153   2.853   8.079   1.839
 4374SOL    HW225154   2.958   8.023   1.951
 4375SOL     OW25155   2.728   7.902   2.504
 4375SOL    HW125156   2.696   7.974   2.442
 4375SOL    HW225157   2.752   7.821   2.451
 4376SOL     OW25158   2.389   7.704   2.190
 4376SOL    HW125159   2.416   7.645   2.115
 4376SOL    HW225160   2.389   7.799   2.159
 4377SOL     OW25161   3.500   8.547   2.941
 4377SOL    HW125162   3.505   8.628   3.000
 4377SOL    HW225163   3.414   8.549   2.890
 4378SOL     OW25164   2.777   7.537   3.264
 4378SOL    HW125165   2.802   7.517   3.169
 4378SOL    HW225166   2.849   7.593   3.306
 4379SOL     OW25167   2.264   8.199   3.460
 4379SOL    HW125168   2.332   8.254   3.413
 4379SOL    HW225169   2.304   8.111   3.487
 4380SOL     OW25170   3.590   8.383   3.716
 4380SOL    HW125171   3.544   8.376   3.627
 4380SOL    HW225172   3.528   8.427   3.782
 4381SOL     OW25173   2.885   8.214   2.828
 4381SOL    HW125174   2.900   8.235   2.924
 4381SOL    HW225175   2.855   8.119   2.819
 4382SOL     OW25176   3.165   8.286   1.904
 4382SOL    HW125177   3.199   8.193   1.919
 4382SOL    HW225178   3.183   8.313   1.809
 4383SOL     OW25179   3.000   7.828   3.540
 4383SOL    HW125180   2.955   7.891   3.604
 4383SOL    HW225181   3.093   7.859   3.523
 4384SOL     OW25182   2.051   7.968   3.584
 4384SOL    HW125183   2.110   7.928   3.514
 4384SOL    HW225184   1.993   8.039   3.543
 4385SOL     OW25185   3.209   8.507   3.096
 4385SOL    HW125186   3.233   8.444   3.022
 4385SOL    HW225187   3.119   8.547   3.078
 4386SOL     OW25188   3.164   8.303   2.171
 4386SOL    HW125189   3.078   8.272   2.213
 4386SOL    HW225190   3.160   8.289   2.072
 4387SOL     OW25191   3.588   7.583   2.385
 4387SOL    HW125192   3.661   7.566   2.318
 4387SOL    HW225193   3.557   7.496   2.423
 4388SOL     OW25194   3.142   8.375   2.534
 4388SOL    HW125195   3.202   8.294   2.536
 4388SOL    HW225196   3.182   8.444   2.474
 4389SOL     OW25197   3.703   7.623   2.825
 4389SOL    HW125198   3.742   7.538   2.789
 4389SOL    HW225199   3.605   7.625   2.806
 4390SOL     OW25200   3.571   7.833   3.243
 4390SOL    HW125201   3.644   7.902   3.247
 4390SOL    HW225202   3.599   7.758   3.184
 4391SOL     OW25203   2.534   7.651   3.351
 4391SOL    HW125204   2.624   7.635   3.311
 4391SOL    HW225205   2.542   7.656   3.450
 4392SOL     OW25206   3.302   8.304   3.260
 4392SOL    HW125207   3.245   8.356   3.197
 4392SOL    HW225208   3.398   8.316   3.236
 4393SOL     OW25209   2.475   8.290   3.293
 4393SOL    HW125210   2.531   8.371   3.276
 4393SOL    HW225211   2.534   8.210   3.296
 4394SOL     OW25212   3.639   7.790   3.504
 4394SOL    HW125213   3.622   7.821   3.410
 4394SOL    HW225214   3.555   7.753   3.542
 4395SOL     OW25215   2.945   8.432   1.949
 4395SOL    HW125216   2.922   8.485   1.867
 4395SOL    HW225217   3.026   8.376   1.930
 4396SOL     OW25218   2.179   7.995   3.142
 4396SOL    HW125219   2.217   7.936   3.214
 4396SOL    HW225220   2.219   7.969   3.054
 4397SOL     OW25221   3.214   7.500   2.030
 4397SOL    HW125222   3.249   7.459   1.946
 4397SOL    HW225223   3.124   7.462   2.050
 4398SOL     OW25224   3.455   7.669   2.744
 4398SOL    HW125225   3.371   7.668   2.798
 4398SOL    HW225226   3.457   7.752   2.688
 4399SOL     OW25227   1.881   7.816   4.371
 4399SOL    HW125228   1.799   7.859   4.410
 4399SOL    HW225229   1.853   7.743   4.308
 4400SOL     OW25230   2.712   8.246   5.547
 4400SOL    HW125231   2.708   8.322   5.612
 4400SOL    HW225232   2.734   8.282   5.456
 4401SOL     OW25233   2.547   8.460   4.389
 4401SOL    HW125234   2.616   8.444   4.459
 4401SOL    HW225235   2.474   8.517   4.427
 4402SOL     OW25236   2.300   7.840   5.223
 4402SOL    HW125237   2.382   7.784   5.232
 4402SOL    HW225238   2.219   7.782   5.227
 4403SOL     OW25239   3.465   7.895   4.461
 4403SOL    HW125240   3.391   7.941   4.411
 4403SOL    HW225241   3.516   7.963   4.514
 4404SOL     OW25242   1.984   8.091   4.287
 4404SOL    HW125243   1.939   8.003   4.304
 4404SOL    HW225244   1.983   8.145   4.371
 4405SOL     OW25245   2.179   7.699   5.525
 4405SOL    HW125246   2.250   7.770   5.531
 4405SOL    HW225247   2.091   7.738   5.553
 4406SOL     OW25248   3.143   7.793   4.668
 4406SOL    HW125249   3.057   7.743   4.655
 4406SOL    HW225250   3.205   7.739   4.724
 4407SOL     OW25251   3.256   7.917   5.398
 4407SOL    HW125252   3.236   7.960   5.486
 4407SOL    HW225253   3.334   7.855   5.407
 4408SOL     OW25254   3.581   8.033   5.555
 4408SOL    HW125255   3.555   8.122   5.519
 4408SOL    HW225256   3.579   7.965   5.482
 4409SOL     OW25257   2.064   7.733   5.222
 4409SOL    HW125258   1.984   7.793   5.209
 4409SOL    HW225259   2.054   7.684   5.308
 4410SOL     OW25260   3.409   7.670   5.453
 4410SOL    HW125261   3.404   7.707   5.545
 4410SOL    HW225262   3.337   7.601   5.441
 4411SOL     OW25263   2.476   7.570   3.841
 4411SOL    HW125264   2.574   7.548   3.848
 4411SOL    HW225265   2.445   7.553   3.748
 4412SOL     OW25266   2.643   7.712   5.473
 4412SOL    HW125267   2.710   7.651   5.516
 4412SOL    HW225268   2.570   7.731   5.538
 4413SOL     OW25269   3.213   8.038   5.157
 4413SOL    HW125270   3.241   7.995   5.242
 4413SOL    HW225271   3.238   8.134   5.158
 4414SOL     OW25272   2.784   7.951   4.623
 4414SOL    HW125273   2.759   7.942   4.527
 4414SOL    HW225274   2.832   7.869   4.654
 4415SOL     OW25275   2.159   7.483   3.895
 4415SOL    HW125276   2.208   7.567   3.874
 4415SOL    HW225277   2.221   7.418   3.940
 4416SOL     OW25278   2.797   7.684   4.204
 4416SOL    HW125279   2.749   7.725   4.126
 4416SOL    HW225280   2.896   7.682   4.185
 4417SOL     OW25281   2.423   7.670   4.871
 4417SOL    HW125282   2.461   7.586   4.908
 4417SOL    HW225283   2.335   7.689   4.915
 4418SOL     OW25284   2.728   7.902   4.366
 4418SOL    HW125285   2.696   7.974   4.304
 4418SOL    HW225286   2.752   7.821   4.313
 4419SOL     OW25287   3.136   7.834   4.986
 4419SOL    HW125288   3.157   7.908   5.050
 4419SOL    HW225289   3.047   7.851   4.943
 4420SOL     OW25290   2.428   7.985   4.589
 4420SOL    HW125291   2.440   8.051   4.515
 4420SOL    HW225292   2.474   8.019   4.672
 4421SOL     OW25293   3.449   8.227   5.394
 4421SOL    HW125294   3.357   8.265   5.389
 4421SOL    HW225295   3.509   8.274   5.329
 4422SOL     OW25296   2.875   7.553   5.494
 4422SOL    HW125297   2.881   7.638   5.442
 4422SOL    HW225298   2.907   7.477   5.437
 4423SOL     OW25299   3.590   8.383   5.578
 4423SOL    HW125300   3.544   8.376   5.489
 4423SOL    HW225301   3.528   8.427   5.644
 4424SOL     OW25302   2.212   8.346   5.528
 4424SOL    HW125303   2.288   8.390   5.576
 4424SOL    HW225304   2.247   8.299   5.446
 4425SOL     OW25305   3.000   7.828   5.402
 4425SOL    HW125306   2.955   7.891   5.466
 4425SOL    HW225307   3.093   7.859   5.385
 4426SOL     OW25308   3.022   7.655   5.201
 4426SOL    HW125309   3.022   7.719   5.278
 4426SOL    HW225310   3.050   7.703   5.118
 4427SOL     OW25311   3.231   8.398   5.384
 4427SOL    HW125312   3.270   8.487   5.404
 4427SOL    HW225313   3.241   8.378   5.287
 4428SOL     OW25314   2.677   8.020   4.049
 4428SOL    HW125315   2.684   7.931   4.003
 4428SOL    HW225316   2.583   8.054   4.041
 4429SOL     OW25317   3.588   7.583   4.247
 4429SOL    HW125318   3.661   7.566   4.180
 4429SOL    HW225319   3.557   7.496   4.285
 4430SOL     OW25320   2.125   7.774   4.444
 4430SOL    HW125321   2.046   7.825   4.410
 4430SOL    HW225322   2.116   7.759   4.542
 4431SOL     OW25323   3.571   7.833   5.105
 4431SOL    HW125324   3.644   7.902   5.109
 4431SOL    HW225325   3.599   7.758   5.046
 4432SOL     OW25326   1.967   8.461   5.450
 4432SOL    HW125327   1.890   8.428   5.504
 4432SOL    HW225328   2.052   8.431   5.492
 4433SOL     OW25329   2.578   8.013   5.432
 4433SOL    HW125330   2.597   8.078   5.506
 4433SOL    HW225331   2.638   7.933   5.441
 4434SOL     OW25332   3.639   7.790   5.366
 4434SOL    HW125333   3.622   7.821   5.272
 4434SOL    HW225334   3.555   7.753   5.404
 4435SOL     OW25335   2.945   8.432   3.811
 4435SOL    HW125336   2.922   8.485   3.729
 4435SOL    HW225337   3.026   8.376   3.792
 4436SOL     OW25338   3.686   7.640   4.951
 4436SOL    HW125339   3.682   7.550   4.995
 4436SOL    HW225340   3.689   7.629   4.852
 4437SOL     OW25341   2.290   7.872   4.244
 4437SOL    HW125342   2.320   7.800   4.182
 4437SOL    HW225343   2.251   7.832   4.327
 4438SOL     OW25344   3.214   7.500   3.892
 4438SOL    HW125345   3.249   7.459   3.808
 4438SOL    HW225346   3.124   7.462   3.912
 4439SOL     OW25347   3.162   7.901   4.415
 4439SOL    HW125348   3.103   7.981   4.419
 4439SOL    HW225349   3.177   7.866   4.508
 4440SOL     OW25350   2.087   7.723   6.582
 4440SOL    HW125351   2.122   7.706   6.674
 4440SOL    HW225352   1.999   7.678   6.570
 4441SOL     OW25353   1.881   7.816   6.233
 4441SOL    HW125354   1.799   7.859   6.272
 4441SOL    HW225355   1.853   7.743   6.170
 4442SOL     OW25356   2.997   8.151   6.303
 4442SOL    HW125357   3.054   8.229   6.278
 4442SOL    HW225358   2.937   8.177   6.379
 4443SOL     OW25359   3.617   8.055   5.817
 4443SOL    HW125360   3.605   8.042   5.718
 4443SOL    HW225361   3.587   7.974   5.866
 4444SOL     OW25362   2.630   8.592   6.609
 4444SOL    HW125363   2.552   8.609   6.669
 4444SOL    HW225364   2.664   8.679   6.573
 4445SOL     OW25365   2.547   8.460   6.251
 4445SOL    HW125366   2.616   8.444   6.321
 4445SOL    HW225367   2.474   8.517   6.289
 4446SOL     OW25368   2.300   7.840   7.085
 4446SOL    HW125369   2.382   7.784   7.094
 4446SOL    HW225370   2.219   7.782   7.089
 4447SOL     OW25371   3.465   7.895   6.323
 4447SOL    HW125372   3.391   7.941   6.273
 4447SOL    HW225373   3.516   7.963   6.376
 4448SOL     OW25374   2.102   8.539   6.472
 4448SOL    HW125375   2.116   8.455   6.524
 4448SOL    HW225376   2.047   8.603   6.527
 4449SOL     OW25377   1.984   8.091   6.149
 4449SOL    HW125378   1.939   8.003   6.166
 4449SOL    HW225379   1.983   8.145   6.233
 4450SOL     OW25380   2.671   7.452   6.088
 4450SOL    HW125381   2.711   7.543   6.079
 4450SOL    HW225382   2.571   7.460   6.094
 4451SOL     OW25383   2.059   8.424   6.850
 4451SOL    HW125384   2.148   8.379   6.836
 4451SOL    HW225385   1.986   8.359   6.831
 4452SOL     OW25386   3.387   8.447   5.776
 4452SOL    HW125387   3.324   8.371   5.789
 4452SOL    HW225388   3.435   8.465   5.862
 4453SOL     OW25389   2.460   8.177   5.856
 4453SOL    HW125390   2.484   8.246   5.788
 4453SOL    HW225391   2.382   8.210   5.910
 4454SOL     OW25392   3.143   7.793   6.530
 4454SOL    HW125393   3.057   7.743   6.517
 4454SOL    HW225394   3.205   7.739   6.586
 4455SOL     OW25395   2.669   8.053   7.051
 4455SOL    HW125396   2.622   8.050   7.140
 4455SOL    HW225397   2.618   7.998   6.985
 4456SOL     OW25398   2.853   7.858   6.828
 4456SOL    HW125399   2.776   7.892   6.882
 4456SOL    HW225400   2.819   7.807   6.749
 4457SOL     OW25401   2.903   8.149   6.015
 4457SOL    HW125402   2.929   8.145   6.111
 4457SOL    HW225403   2.818   8.098   6.001
 4458SOL     OW25404   1.938   8.259   6.375
 4458SOL    HW125405   2.037   8.247   6.384
 4458SOL    HW225406   1.914   8.354   6.396
 4459SOL     OW25407   2.727   7.796   5.781
 4459SOL    HW125408   2.786   7.859   5.732
 4459SOL    HW225409   2.746   7.702   5.752
 4460SOL     OW25410   2.412   7.644   6.471
 4460SOL    HW125411   2.407   7.639   6.571
 4460SOL    HW225412   2.414   7.740   6.442
 4461SOL     OW25413   3.320   8.183   6.314
 4461SOL    HW125414   3.315   8.118   6.389
 4461SOL    HW225415   3.400   8.242   6.327
 4462SOL     OW25416   3.262   7.555   6.012
 4462SOL    HW125417   3.238   7.518   5.922
 4462SOL    HW225418   3.361   7.571   6.016
 4463SOL     OW25419   2.244   8.148   6.066
 4463SOL    HW125420   2.289   8.058   6.063
 4463SOL    HW225421   2.150   8.137   6.099
 4464SOL     OW25422   2.476   7.570   5.703
 4464SOL    HW125423   2.574   7.548   5.710
 4464SOL    HW225424   2.445   7.553   5.610
 4465SOL     OW25425   2.784   7.951   6.485
 4465SOL    HW125426   2.759   7.942   6.389
 4465SOL    HW225427   2.832   7.869   6.516
 4466SOL     OW25428   2.401   7.512   6.098
 4466SOL    HW125429   2.320   7.513   6.156
 4466SOL    HW225430   2.404   7.595   6.043
 4467SOL     OW25431   2.159   7.483   5.757
 4467SOL    HW125432   2.208   7.567   5.736
 4467SOL    HW225433   2.221   7.418   5.802
 4468SOL     OW25434   2.797   7.684   6.066
 4468SOL    HW125435   2.749   7.725   5.988
 4468SOL    HW225436   2.896   7.682   6.047
 4469SOL     OW25437   2.894   7.997   5.602
 4469SOL    HW125438   2.853   8.079   5.563
 4469SOL    HW225439   2.958   8.023   5.675
 4470SOL     OW25440   2.423   7.670   6.733
 4470SOL    HW125441   2.461   7.586   6.770
 4470SOL    HW225442   2.335   7.689   6.777
 4471SOL     OW25443   2.728   7.902   6.228
 4471SOL    HW125444   2.696   7.974   6.166
 4471SOL    HW225445   2.752   7.821   6.175
 4472SOL     OW25446   2.879   7.487   6.339
 4472SOL    HW125447   2.807   7.492   6.270
 4472SOL    HW225448   2.855   7.418   6.408
 4473SOL     OW25449   3.328   8.038   6.578
 4473SOL    HW125450   3.298   7.943   6.585
 4473SOL    HW225451   3.401   8.054   6.644
 4474SOL     OW25452   3.719   8.281   5.963
 4474SOL    HW125453   3.761   8.217   6.027
 4474SOL    HW225454   3.681   8.230   5.885
 4475SOL     OW25455   3.252   8.023   5.664
 4475SOL    HW125456   3.198   8.002   5.745
 4475SOL    HW225457   3.343   7.982   5.673
 4476SOL     OW25458   2.389   7.704   5.914
 4476SOL    HW125459   2.416   7.645   5.839
 4476SOL    HW225460   2.389   7.799   5.883
 4477SOL     OW25461   3.616   8.671   7.174
 4477SOL    HW125462   3.707   8.632   7.161
 4477SOL    HW225463   3.624   8.767   7.198
 4478SOL     OW25464   3.500   8.547   6.665
 4478SOL    HW125465   3.505   8.628   6.724
 4478SOL    HW225466   3.414   8.549   6.614
 4479SOL     OW25467   2.272   8.261   6.837
 4479SOL    HW125468   2.358   8.273   6.887
 4479SOL    HW225469   2.230   8.174   6.864
 4480SOL     OW25470   3.136   7.834   6.848
 4480SOL    HW125471   3.157   7.908   6.912
 4480SOL    HW225472   3.047   7.851   6.805
 4481SOL     OW25473   2.428   7.985   6.451
 4481SOL    HW125474   2.440   8.051   6.377
 4481SOL    HW225475   2.474   8.019   6.534
 4482SOL     OW25476   3.444   8.087   6.058
 4482SOL    HW125477   3.413   8.148   6.131
 4482SOL    HW225478   3.494   8.139   5.989
 4483SOL     OW25479   2.366   7.498   7.326
 4483SOL    HW125480   2.324   7.441   7.256
 4483SOL    HW225481   2.300   7.567   7.358
 4484SOL     OW25482   2.435   8.318   6.615
 4484SOL    HW125483   2.479   8.407   6.606
 4484SOL    HW225484   2.372   8.318   6.692
 4485SOL     OW25485   3.222   8.310   6.631
 4485SOL    HW125486   3.147   8.310   6.565
 4485SOL    HW225487   3.259   8.218   6.640
 4486SOL     OW25488   3.071   7.973   5.861
 4486SOL    HW125489   3.084   7.889   5.915
 4486SOL    HW225490   3.042   8.047   5.921
 4487SOL     OW25491   2.169   7.661   6.817
 4487SOL    HW125492   2.146   7.698   6.907
 4487SOL    HW225493   2.139   7.566   6.811
 4488SOL     OW25494   2.594   8.082   6.650
 4488SOL    HW125495   2.653   8.056   6.574
 4488SOL    HW225496   2.566   8.178   6.639
 4489SOL     OW25497   2.169   7.511   6.204
 4489SOL    HW125498   2.158   7.605   6.237
 4489SOL    HW225499   2.164   7.448   6.281
 4490SOL     OW25500   3.484   7.815   5.960
 4490SOL    HW125501   3.486   7.739   6.024
 4490SOL    HW225502   3.436   7.892   6.000
 4491SOL     OW25503   2.885   8.214   6.552
 4491SOL    HW125504   2.900   8.235   6.648
 4491SOL    HW225505   2.855   8.119   6.543
 4492SOL     OW25506   2.212   8.346   7.390
 4492SOL    HW125507   2.288   8.390   7.438
 4492SOL    HW225508   2.247   8.299   7.308
 4493SOL     OW25509   3.402   7.722   5.711
 4493SOL    HW125510   3.341   7.647   5.734
 4493SOL    HW225511   3.424   7.774   5.794
 4494SOL     OW25512   3.165   8.286   5.628
 4494SOL    HW125513   3.199   8.193   5.643
 4494SOL    HW225514   3.183   8.313   5.533
 4495SOL     OW25515   2.181   8.258   6.535
 4495SOL    HW125516   2.274   8.294   6.540
 4495SOL    HW225517   2.175   8.173   6.587
 4496SOL     OW25518   2.201   7.957   6.592
 4496SOL    HW125519   2.149   7.874   6.575
 4496SOL    HW225520   2.278   7.962   6.528
 4497SOL     OW25521   3.022   7.655   7.063
 4497SOL    HW125522   3.022   7.719   7.140
 4497SOL    HW225523   3.050   7.703   6.980
 4498SOL     OW25524   2.864   8.244   6.824
 4498SOL    HW125525   2.905   8.212   6.910
 4498SOL    HW225526   2.768   8.217   6.821
 4499SOL     OW25527   1.902   7.992   6.700
 4499SOL    HW125528   1.987   7.959   6.659
 4499SOL    HW225529   1.915   8.007   6.798
 4500SOL     OW25530   2.677   8.020   5.911
 4500SOL    HW125531   2.684   7.931   5.865
 4500SOL    HW225532   2.583   8.054   5.903
 4501SOL     OW25533   3.519   8.052   6.792
 4501SOL    HW125534   3.481   7.983   6.854
 4501SOL    HW225535   3.601   8.016   6.748
 4502SOL     OW25536   2.533   7.912   6.855
 4502SOL    HW125537   2.499   7.823   6.825
 4502SOL    HW225538   2.559   7.966   6.775
 4503SOL     OW25539   2.335   7.948   5.777
 4503SOL    HW125540   2.396   8.028   5.781
 4503SOL    HW225541   2.240   7.979   5.784
 4504SOL     OW25542   2.021   8.585   7.052
 4504SOL    HW125543   2.043   8.524   7.128
 4504SOL    HW225544   2.031   8.536   6.966
 4505SOL     OW25545   3.209   8.507   6.820
 4505SOL    HW125546   3.233   8.444   6.746
 4505SOL    HW225547   3.119   8.547   6.802
 4506SOL     OW25548   3.164   8.303   5.895
 4506SOL    HW125549   3.078   8.272   5.937
 4506SOL    HW225550   3.160   8.289   5.796
 4507SOL     OW25551   3.588   7.583   6.109
 4507SOL    HW125552   3.661   7.566   6.042
 4507SOL    HW225553   3.557   7.496   6.147
 4508SOL     OW25554   3.142   8.375   6.258
 4508SOL    HW125555   3.202   8.294   6.260
 4508SOL    HW225556   3.182   8.444   6.198
 4509SOL     OW25557   2.692   8.721   7.008
 4509SOL    HW125558   2.687   8.754   7.103
 4509SOL    HW225559   2.606   8.740   6.962
 4510SOL     OW25560   3.703   7.623   6.549
 4510SOL    HW125561   3.742   7.538   6.513
 4510SOL    HW225562   3.605   7.625   6.530
 4511SOL     OW25563   2.125   7.774   6.306
 4511SOL    HW125564   2.046   7.825   6.272
 4511SOL    HW225565   2.116   7.759   6.404
 4512SOL     OW25566   2.684   8.450   6.958
 4512SOL    HW125567   2.724   8.449   6.866
 4512SOL    HW225568   2.694   8.542   6.998
 4513SOL     OW25569   2.778   8.358   5.877
 4513SOL    HW125570   2.841   8.396   5.809
 4513SOL    HW225571   2.818   8.275   5.916
 4514SOL     OW25572   2.876   7.684   6.557
 4514SOL    HW125573   2.868   7.648   6.464
 4514SOL    HW225574   2.874   7.608   6.622
 4515SOL     OW25575   3.571   7.833   6.967
 4515SOL    HW125576   3.644   7.902   6.971
 4515SOL    HW225577   3.599   7.758   6.908
 4516SOL     OW25578   1.967   8.461   7.312
 4516SOL    HW125579   1.890   8.428   7.366
 4516SOL    HW225580   2.052   8.431   7.354
 4517SOL     OW25581   2.534   7.651   7.075
 4517SOL    HW125582   2.624   7.635   7.035
 4517SOL    HW225583   2.542   7.656   7.174
 4518SOL     OW25584   1.937   7.793   5.619
 4518SOL    HW125585   1.845   7.765   5.590
 4518SOL    HW225586   1.968   7.870   5.563
 4519SOL     OW25587   1.934   7.614   5.904
 4519SOL    HW125588   1.917   7.697   5.850
 4519SOL    HW225589   2.024   7.577   5.882
 4520SOL     OW25590   2.475   8.290   7.017
 4520SOL    HW125591   2.531   8.371   7.000
 4520SOL    HW225592   2.534   8.210   7.020
 4521SOL     OW25593   3.536   8.331   6.840
 4521SOL    HW125594   3.509   8.242   6.803
 4521SOL    HW225595   3.537   8.399   6.767
 4522SOL     OW25596   3.087   7.773   6.035
 4522SOL    HW125597   3.152   7.699   6.024
 4522SOL    HW225598   3.107   7.823   6.119
 4523SOL     OW25599   2.456   8.193   6.238
 4523SOL    HW125600   2.506   8.278   6.219
 4523SOL    HW225601   2.368   8.195   6.190
 4524SOL     OW25602   3.592   8.382   7.103
 4524SOL    HW125603   3.630   8.473   7.118
 4524SOL    HW225604   3.584   8.365   7.004
 4525SOL     OW25605   2.945   8.432   5.673
 4525SOL    HW125606   2.922   8.485   5.591
 4525SOL    HW225607   3.026   8.376   5.654
 4526SOL     OW25608   3.686   7.640   6.813
 4526SOL    HW125609   3.682   7.550   6.857
 4526SOL    HW225610   3.689   7.629   6.714
 4527SOL     OW25611   2.290   7.872   6.106
 4527SOL    HW125612   2.320   7.800   6.044
 4527SOL    HW225613   2.251   7.832   6.189
 4528SOL     OW25614   2.179   7.995   6.866
 4528SOL    HW125615   2.217   7.936   6.938
 4528SOL    HW225616   2.219   7.969   6.778
 4529SOL     OW25617   3.286   7.662   6.698
 4529SOL    HW125618   3.338   7.597   6.753
 4529SOL    HW225619   3.237   7.725   6.759
 4530SOL     OW25620   2.863   7.482   6.740
 4530SOL    HW125621   2.800   7.410   6.709
 4530SOL    HW225622   2.956   7.446   6.740
 4531SOL     OW25623   3.214   7.500   5.754
 4531SOL    HW125624   3.249   7.459   5.670
 4531SOL    HW225625   3.124   7.462   5.774
 4532SOL     OW25626   3.162   7.901   6.277
 4532SOL    HW125627   3.103   7.981   6.281
 4532SOL    HW225628   3.177   7.866   6.370
 4533SOL     OW25629   3.455   7.669   6.468
 4533SOL    HW125630   3.371   7.668   6.522
 4533SOL    HW225631   3.457   7.752   6.412
 4534SOL     OW25632   3.954   0.628   0.113
 4534SOL    HW125633   3.861   0.626   0.150
 4534SOL    HW225634   3.955   0.589   0.021
 4535SOL     OW25635   3.949   0.275   0.996
 4535SOL    HW125636   3.984   0.258   1.088
 4535SOL    HW225637   3.861   0.230   0.984
 4536SOL     OW25638   3.743   0.368   0.647
 4536SOL    HW125639   3.661   0.411   0.686
 4536SOL    HW225640   3.715   0.295   0.584
 4537SOL     OW25641   4.293   1.275   1.165
 4537SOL    HW125642   4.200   1.268   1.128
 4537SOL    HW225643   4.304   1.364   1.209
 4538SOL     OW25644   5.279   1.511   0.703
 4538SOL    HW125645   5.222   1.495   0.784
 4538SOL    HW225646   5.220   1.521   0.623
 4539SOL     OW25647   4.859   0.703   0.717
 4539SOL    HW125648   4.916   0.781   0.692
 4539SOL    HW225649   4.799   0.729   0.793
 4540SOL     OW25650   5.479   0.607   0.231
 4540SOL    HW125651   5.467   0.594   0.132
 4540SOL    HW225652   5.449   0.526   0.280
 4541SOL     OW25653   4.492   1.144   1.023
 4541SOL    HW125654   4.414   1.161   1.083
 4541SOL    HW225655   4.526   1.231   0.987
 4542SOL     OW25656   4.574   0.798   1.823
 4542SOL    HW125657   4.570   0.874   1.888
 4542SOL    HW225658   4.596   0.834   1.732
 4543SOL     OW25659   4.409   1.012   0.665
 4543SOL    HW125660   4.478   0.996   0.735
 4543SOL    HW225661   4.336   1.069   0.703
 4544SOL     OW25662   4.410   1.161   1.803
 4544SOL    HW125663   4.470   1.240   1.817
 4544SOL    HW225664   4.324   1.192   1.762
 4545SOL     OW25665   4.059   1.435   1.061
 4545SOL    HW125666   3.981   1.404   1.008
 4545SOL    HW225667   4.117   1.493   1.004
 4546SOL     OW25668   5.184   1.505   1.339
 4546SOL    HW125669   5.208   1.599   1.365
 4546SOL    HW225670   5.168   1.451   1.421
 4547SOL     OW25671   4.162   0.392   1.499
 4547SOL    HW125672   4.244   0.336   1.508
 4547SOL    HW225673   4.081   0.334   1.503
 4548SOL     OW25674   5.327   0.447   0.737
 4548SOL    HW125675   5.253   0.493   0.687
 4548SOL    HW225676   5.378   0.515   0.790
 4549SOL     OW25677   3.955   1.713   0.483
 4549SOL    HW125678   3.989   1.790   0.537
 4549SOL    HW225679   3.999   1.713   0.393
 4550SOL     OW25680   4.851   1.341   1.690
 4550SOL    HW125681   4.898   1.341   1.778
 4550SOL    HW225682   4.803   1.254   1.679
 4551SOL     OW25683   3.954   1.434   0.538
 4551SOL    HW125684   3.928   1.530   0.538
 4551SOL    HW225685   3.883   1.380   0.583
 4552SOL     OW25686   3.964   1.091   0.886
 4552SOL    HW125687   3.978   1.007   0.938
 4552SOL    HW225688   3.909   1.155   0.941
 4553SOL     OW25689   4.344   1.786   1.439
 4553SOL    HW125690   4.252   1.769   1.474
 4553SOL    HW225691   4.372   1.878   1.465
 4554SOL     OW25692   4.330   0.964   0.123
 4554SOL    HW125693   4.337   1.048   0.069
 4554SOL    HW225694   4.376   0.977   0.211
 4555SOL     OW25695   5.318   0.114   1.480
 4555SOL    HW125696   5.300   0.181   1.408
 4555SOL    HW225697   5.315   0.160   1.569
 4556SOL     OW25698   3.846   0.643   0.563
 4556SOL    HW125699   3.801   0.555   0.580
 4556SOL    HW225700   3.845   0.697   0.647
 4557SOL     OW25701   5.566   1.767   0.359
 4557SOL    HW125702   5.620   1.738   0.439
 4557SOL    HW225703   5.596   1.857   0.330
 4558SOL     OW25704   3.751   1.596   0.117
 4558SOL    HW125705   3.732   1.500   0.138
 4558SOL    HW225706   3.718   1.654   0.192
 4559SOL     OW25707   5.413   0.922   0.612
 4559SOL    HW125708   5.508   0.893   0.620
 4559SOL    HW225709   5.405   0.987   0.537
 4560SOL     OW25710   5.365   1.108   0.432
 4560SOL    HW125711   5.451   1.110   0.380
 4560SOL    HW225712   5.379   1.155   0.520
 4561SOL     OW25713   3.837   0.737   1.597
 4561SOL    HW125714   3.925   0.724   1.642
 4561SOL    HW225715   3.824   0.834   1.575
 4562SOL     OW25716   4.337   1.365   0.726
 4562SOL    HW125717   4.288   1.278   0.735
 4562SOL    HW225718   4.314   1.408   0.639
 4563SOL     OW25719   5.017   1.228   1.423
 4563SOL    HW125720   5.054   1.155   1.365
 4563SOL    HW225721   5.069   1.233   1.508
 4564SOL     OW25722   4.533   0.004   0.502
 4564SOL    HW125723   4.573   0.095   0.493
 4564SOL    HW225724   4.433   0.012   0.508
 4565SOL     OW25725   3.921   0.976   1.264
 4565SOL    HW125726   4.010   0.931   1.250
 4565SOL    HW225727   3.848   0.911   1.245
 4566SOL     OW25728   5.249   0.999   0.190
 4566SOL    HW125729   5.186   0.923   0.203
 4566SOL    HW225730   5.297   1.017   0.276
 4567SOL     OW25731   4.041   0.251   1.801
 4567SOL    HW125732   4.112   0.322   1.807
 4567SOL    HW225733   3.953   0.290   1.829
 4568SOL     OW25734   5.190   1.417   0.953
 4568SOL    HW125735   5.131   1.423   1.033
 4568SOL    HW225736   5.175   1.329   0.907
 4569SOL     OW25737   5.391   1.714   0.572
 4569SOL    HW125738   5.350   1.691   0.484
 4569SOL    HW225739   5.373   1.640   0.637
 4570SOL     OW25740   4.322   0.729   0.270
 4570SOL    HW125741   4.346   0.798   0.202
 4570SOL    HW225742   4.244   0.762   0.324
 4571SOL     OW25743   5.005   0.345   0.944
 4571SOL    HW125744   4.919   0.295   0.931
 4571SOL    HW225745   5.067   0.291   1.000
 4572SOL     OW25746   5.300   1.662   0.307
 4572SOL    HW125747   5.389   1.708   0.310
 4572SOL    HW225748   5.279   1.638   0.212
 4573SOL     OW25749   4.531   0.605   1.465
 4573SOL    HW125750   4.484   0.602   1.554
 4573SOL    HW225751   4.480   0.550   1.399
 4574SOL     OW25752   5.118   0.469   1.674
 4574SOL    HW125753   5.098   0.512   1.762
 4574SOL    HW225754   5.196   0.407   1.683
 4575SOL     OW25755   4.697   0.890   1.572
 4575SOL    HW125756   4.743   0.806   1.543
 4575SOL    HW225757   4.641   0.924   1.497
 4576SOL     OW25758   4.715   0.410   1.242
 4576SOL    HW125759   4.638   0.444   1.296
 4576SOL    HW225760   4.681   0.359   1.163
 4577SOL     OW25761   4.765   0.701   0.429
 4577SOL    HW125762   4.791   0.697   0.525
 4577SOL    HW225763   4.680   0.650   0.415
 4578SOL     OW25764   3.800   0.811   0.789
 4578SOL    HW125765   3.899   0.799   0.798
 4578SOL    HW225766   3.776   0.906   0.810
 4579SOL     OW25767   3.854   1.821   1.571
 4579SOL    HW125768   3.844   1.806   1.670
 4579SOL    HW225769   3.768   1.857   1.535
 4580SOL     OW25770   4.589   0.348   0.195
 4580SOL    HW125771   4.648   0.411   0.146
 4580SOL    HW225772   4.608   0.254   0.166
 4581SOL     OW25773   5.086   1.144   0.545
 4581SOL    HW125774   5.169   1.115   0.497
 4581SOL    HW225775   5.037   1.211   0.489
 4582SOL     OW25776   4.274   0.196   0.885
 4582SOL    HW125777   4.269   0.191   0.985
 4582SOL    HW225778   4.276   0.292   0.856
 4583SOL     OW25779   4.732   1.456   0.477
 4583SOL    HW125780   4.686   1.528   0.425
 4583SOL    HW225781   4.728   1.476   0.575
 4584SOL     OW25782   4.075   1.801   0.853
 4584SOL    HW125783   4.125   1.715   0.859
 4584SOL    HW225784   4.140   1.878   0.850
 4585SOL     OW25785   5.519   1.066   0.873
 4585SOL    HW125786   5.457   1.051   0.797
 4585SOL    HW225787   5.467   1.077   0.958
 4586SOL     OW25788   4.951   1.550   1.506
 4586SOL    HW125789   4.957   1.473   1.570
 4586SOL    HW225790   4.899   1.524   1.426
 4587SOL     OW25791   4.045   0.943   0.242
 4587SOL    HW125792   4.127   0.982   0.200
 4587SOL    HW225793   4.018   0.861   0.193
 4588SOL     OW25794   5.182   0.735   0.728
 4588SOL    HW125795   5.177   0.670   0.803
 4588SOL    HW225796   5.262   0.794   0.741
 4589SOL     OW25797   4.185   1.266   1.727
 4589SOL    HW125798   4.135   1.267   1.641
 4589SOL    HW225799   4.122   1.248   1.803
 4590SOL     OW25800   4.835   1.776   0.237
 4590SOL    HW125801   4.775   1.714   0.287
 4590SOL    HW225802   4.866   1.732   0.152
 4591SOL     OW25803   3.926   0.285   1.498
 4591SOL    HW125804   3.846   0.345   1.485
 4591SOL    HW225805   3.916   0.236   1.584
 4592SOL     OW25806   5.356   1.377   0.081
 4592SOL    HW125807   5.324   1.471   0.071
 4592SOL    HW225808   5.280   1.314   0.069
 4593SOL     OW25809   4.188   1.743   0.323
 4593SOL    HW125810   4.221   1.782   0.409
 4593SOL    HW225811   4.264   1.736   0.258
 4594SOL     OW25812   5.124   0.107   0.426
 4594SOL    HW125813   5.100   0.070   0.336
 4594SOL    HW225814   5.223   0.123   0.430
 4595SOL     OW25815   3.973   1.785   1.241
 4595SOL    HW125816   4.030   1.720   1.291
 4595SOL    HW225817   3.957   1.752   1.148
 4596SOL     OW25818   4.664   1.698   0.904
 4596SOL    HW125819   4.744   1.641   0.925
 4596SOL    HW225820   4.615   1.658   0.827
 4597SOL     OW25821   4.106   0.700   0.480
 4597SOL    HW125822   4.151   0.610   0.477
 4597SOL    HW225823   4.012   0.689   0.513
 4598SOL     OW25824   4.338   0.122   0.117
 4598SOL    HW125825   4.436   0.100   0.124
 4598SOL    HW225826   4.307   0.105   0.024
 4599SOL     OW25827   4.505   0.264   1.749
 4599SOL    HW125828   4.572   0.203   1.792
 4599SOL    HW225829   4.432   0.283   1.814
 4600SOL     OW25830   4.612   1.514   1.195
 4600SOL    HW125831   4.589   1.489   1.101
 4600SOL    HW225832   4.673   1.445   1.234
 4601SOL     OW25833   5.075   0.590   1.433
 4601SOL    HW125834   5.103   0.547   1.518
 4601SOL    HW225835   5.100   0.686   1.434
 4602SOL     OW25836   4.527   1.402   0.924
 4602SOL    HW125837   4.617   1.416   0.882
 4602SOL    HW225838   4.456   1.404   0.853
 4603SOL     OW25839   4.646   0.503   0.899
 4603SOL    HW125840   4.621   0.494   0.803
 4603SOL    HW225841   4.694   0.421   0.930
 4604SOL     OW25842   4.263   0.064   0.512
 4604SOL    HW125843   4.182   0.065   0.570
 4604SOL    HW225844   4.266   0.147   0.457
 4605SOL     OW25845   5.158   1.188   0.041
 4605SOL    HW125846   5.190   1.112   0.098
 4605SOL    HW225847   5.066   1.215   0.071
 4606SOL     OW25848   4.021   0.035   0.171
 4606SOL    HW125849   4.070   0.119   0.150
 4606SOL    HW225850   4.083  -0.030   0.216
 4607SOL     OW25851   4.659   0.236   0.480
 4607SOL    HW125852   4.611   0.277   0.402
 4607SOL    HW225853   4.758   0.234   0.461
 4608SOL     OW25854   4.800   0.683   1.464
 4608SOL    HW125855   4.720   0.622   1.467
 4608SOL    HW225856   4.881   0.630   1.440
 4609SOL     OW25857   4.951   1.570   0.793
 4609SOL    HW125858   4.972   1.644   0.728
 4609SOL    HW225859   5.019   1.570   0.866
 4610SOL     OW25860   4.183   1.152   0.741
 4610SOL    HW125861   4.112   1.125   0.806
 4610SOL    HW225862   4.157   1.124   0.648
 4611SOL     OW25863   4.995   1.797   0.591
 4611SOL    HW125864   5.039   1.861   0.527
 4611SOL    HW225865   4.945   1.849   0.661
 4612SOL     OW25866   4.756   0.549   0.016
 4612SOL    HW125867   4.715   0.631  -0.023
 4612SOL    HW225868   4.820   0.575   0.089
 4613SOL     OW25869   3.802   0.556   1.386
 4613SOL    HW125870   3.894   0.555   1.345
 4613SOL    HW225871   3.796   0.630   1.453
 4614SOL     OW25872   4.285   0.222   1.147
 4614SOL    HW125873   4.323   0.138   1.184
 4614SOL    HW225874   4.197   0.241   1.191
 4615SOL     OW25875   4.590   0.454   0.642
 4615SOL    HW125876   4.558   0.526   0.580
 4615SOL    HW225877   4.614   0.373   0.589
 4616SOL     OW25878   4.741   0.039   0.753
 4616SOL    HW125879   4.669   0.044   0.684
 4616SOL    HW225880   4.717  -0.030   0.822
 4617SOL     OW25881   5.153   1.173   0.867
 4617SOL    HW125882   5.098   1.089   0.860
 4617SOL    HW225883   5.179   1.202   0.775
 4618SOL     OW25884   5.190   0.590   0.992
 4618SOL    HW125885   5.160   0.495   0.999
 4618SOL    HW225886   5.263   0.606   1.058
 4619SOL     OW25887   5.581   0.833   0.377
 4619SOL    HW125888   5.623   0.769   0.441
 4619SOL    HW225889   5.543   0.782   0.299
 4620SOL     OW25890   4.212   1.385   0.174
 4620SOL    HW125891   4.125   1.370   0.221
 4620SOL    HW225892   4.195   1.411   0.079
 4621SOL     OW25893   5.388   1.280   0.657
 4621SOL    HW125894   5.487   1.288   0.671
 4621SOL    HW225895   5.343   1.364   0.688
 4622SOL     OW25896   5.114   0.575   0.078
 4622SOL    HW125897   5.060   0.554   0.159
 4622SOL    HW225898   5.205   0.534   0.087
 4623SOL     OW25899   4.251   0.256   0.328
 4623SOL    HW125900   4.278   0.197   0.253
 4623SOL    HW225901   4.251   0.351   0.297
 4624SOL     OW25902   5.478   1.223   1.588
 4624SOL    HW125903   5.569   1.184   1.575
 4624SOL    HW225904   5.486   1.319   1.612
 4625SOL     OW25905   4.788   1.347   1.340
 4625SOL    HW125906   4.708   1.324   1.395
 4625SOL    HW225907   4.871   1.321   1.389
 4626SOL     OW25908   4.835   1.195   1.100
 4626SOL    HW125909   4.795   1.239   1.181
 4626SOL    HW225910   4.794   1.232   1.017
 4627SOL     OW25911   5.362   1.099   1.079
 4627SOL    HW125912   5.367   1.180   1.138
 4627SOL    HW225913   5.276   1.101   1.028
 4628SOL     OW25914   4.429   1.050   0.368
 4628SOL    HW125915   4.415   1.057   0.467
 4628SOL    HW225916   4.513   0.999   0.350
 4629SOL     OW25917   4.134   0.813   1.251
 4629SOL    HW125918   4.220   0.825   1.301
 4629SOL    HW225919   4.092   0.726   1.278
 4630SOL     OW25920   4.998   0.386   1.262
 4630SOL    HW125921   5.019   0.460   1.326
 4630SOL    HW225922   4.909   0.403   1.219
 4631SOL     OW25923   3.788   1.564   1.331
 4631SOL    HW125924   3.742   1.646   1.297
 4631SOL    HW225925   3.886   1.583   1.340
 4632SOL     OW25926   4.091   1.100   0.501
 4632SOL    HW125927   4.084   1.183   0.445
 4632SOL    HW225928   4.095   1.020   0.441
 4633SOL     OW25929   4.290   0.537   0.865
 4633SOL    HW125930   4.302   0.603   0.791
 4633SOL    HW225931   4.336   0.571   0.948
 4634SOL     OW25932   4.976   1.348   0.388
 4634SOL    HW125933   5.026   1.425   0.428
 4634SOL    HW225934   4.881   1.350   0.420
 4635SOL     OW25935   4.996   1.445   1.142
 4635SOL    HW125936   5.043   1.458   1.229
 4635SOL    HW225937   4.930   1.371   1.151
 4636SOL     OW25938   5.306   0.639   0.472
 4636SOL    HW125939   5.275   0.700   0.545
 4636SOL    HW225940   5.356   0.691   0.403
 4637SOL     OW25941   4.078   1.510   1.329
 4637SOL    HW125942   4.057   1.466   1.242
 4637SOL    HW225943   4.175   1.536   1.332
 4638SOL     OW25944   4.126   0.751   1.598
 4638SOL    HW125945   4.194   0.806   1.551
 4638SOL    HW225946   4.166   0.663   1.625
 4639SOL     OW25947   5.311   0.779   1.670
 4639SOL    HW125948   5.219   0.817   1.665
 4639SOL    HW225949   5.371   0.826   1.605
 4640SOL     OW25950   4.228   0.050   1.740
 4640SOL    HW125951   4.186  -0.007   1.670
 4640SOL    HW225952   4.162   0.119   1.772
 4641SOL     OW25953   4.297   0.870   1.029
 4641SOL    HW125954   4.341   0.959   1.020
 4641SOL    HW225955   4.234   0.870   1.106
 4642SOL     OW25956   5.084   0.862   1.045
 4642SOL    HW125957   5.009   0.862   0.979
 4642SOL    HW225958   5.121   0.770   1.054
 4643SOL     OW25959   4.933   0.525   0.275
 4643SOL    HW125960   4.946   0.441   0.329
 4643SOL    HW225961   4.904   0.599   0.335
 4644SOL     OW25962   4.031   0.213   1.231
 4644SOL    HW125963   4.008   0.250   1.321
 4644SOL    HW225964   4.001   0.118   1.225
 4645SOL     OW25965   3.761   1.310   1.282
 4645SOL    HW125966   3.814   1.261   1.350
 4645SOL    HW225967   3.783   1.408   1.287
 4646SOL     OW25968   4.456   0.634   1.064
 4646SOL    HW125969   4.515   0.608   0.988
 4646SOL    HW225970   4.428   0.730   1.053
 4647SOL     OW25971   4.031   0.063   0.618
 4647SOL    HW125972   4.020   0.157   0.651
 4647SOL    HW225973   4.026   0.000   0.695
 4648SOL     OW25974   5.346   0.367   0.374
 4648SOL    HW125975   5.348   0.291   0.438
 4648SOL    HW225976   5.298   0.444   0.414
 4649SOL     OW25977   4.747   0.766   0.966
 4649SOL    HW125978   4.762   0.787   1.062
 4649SOL    HW225979   4.717   0.671   0.957
 4650SOL     OW25980   4.704   1.573   1.700
 4650SOL    HW125981   4.684   1.617   1.612
 4650SOL    HW225982   4.743   1.482   1.684
 4651SOL     OW25983   4.074   0.898   1.804
 4651SOL    HW125984   4.150   0.942   1.852
 4651SOL    HW225985   4.109   0.851   1.722
 4652SOL     OW25986   5.264   0.274   0.125
 4652SOL    HW125987   5.203   0.199   0.148
 4652SOL    HW225988   5.286   0.326   0.208
 4653SOL     OW25989   5.027   0.838   0.042
 4653SOL    HW125990   5.061   0.745   0.057
 4653SOL    HW225991   5.045   0.865  -0.053
 4654SOL     OW25992   4.792   1.333   0.849
 4654SOL    HW125993   4.799   1.249   0.794
 4654SOL    HW225994   4.854   1.402   0.813
 4655SOL     OW25995   4.043   0.810   0.949
 4655SOL    HW125996   4.136   0.846   0.954
 4655SOL    HW225997   4.037   0.725   1.001
 4656SOL     OW25998   4.063   0.509   1.006
 4656SOL    HW125999   4.011   0.426   0.989
 4656SOL    HW226000   4.140   0.514   0.942
 4657SOL     OW26001   3.732   1.326   0.200
 4657SOL    HW126002   3.639   1.347   0.169
 4657SOL    HW226003   3.742   1.227   0.213
 4658SOL     OW26004   3.812   1.801   0.927
 4658SOL    HW126005   3.770   1.715   0.900
 4658SOL    HW226006   3.906   1.804   0.893
 4659SOL     OW26007   4.228   1.568   0.910
 4659SOL    HW126008   4.294   1.642   0.919
 4659SOL    HW226009   4.272   1.489   0.868
 4660SOL     OW26010   4.726   0.796   1.238
 4660SOL    HW126011   4.767   0.764   1.324
 4660SOL    HW226012   4.630   0.769   1.235
 4661SOL     OW26013   3.764   0.544   1.114
 4661SOL    HW126014   3.849   0.511   1.073
 4661SOL    HW226015   3.777   0.559   1.212
 4662SOL     OW26016   3.913   0.520   1.722
 4662SOL    HW126017   3.972   0.480   1.652
 4662SOL    HW226018   3.855   0.591   1.681
 4663SOL     OW26019   4.539   0.572   0.325
 4663SOL    HW126020   4.546   0.483   0.279
 4663SOL    HW226021   4.445   0.606   0.317
 4664SOL     OW26022   5.381   0.604   1.206
 4664SOL    HW126023   5.343   0.535   1.268
 4664SOL    HW226024   5.463   0.568   1.162
 4665SOL     OW26025   3.976   1.564   1.744
 4665SOL    HW126026   3.946   1.621   1.820
 4665SOL    HW226027   3.969   1.467   1.770
 4666SOL     OW26028   4.395   0.464   1.269
 4666SOL    HW126029   4.361   0.375   1.239
 4666SOL    HW226030   4.421   0.518   1.189
 4667SOL     OW26031   4.197   0.500   0.191
 4667SOL    HW126032   4.258   0.580   0.195
 4667SOL    HW226033   4.102   0.531   0.198
 4668SOL     OW26034   3.883   1.137   1.466
 4668SOL    HW126035   3.905   1.076   1.542
 4668SOL    HW226036   3.893   1.088   1.380
 4669SOL     OW26037   5.071   1.059   1.234
 4669SOL    HW126038   5.095   0.996   1.160
 4669SOL    HW226039   4.981   1.099   1.216
 4670SOL     OW26040   5.026   0.855   0.309
 4670SOL    HW126041   4.940   0.824   0.351
 4670SOL    HW226042   5.022   0.841   0.210
 4671SOL     OW26043   4.976   1.731   1.128
 4671SOL    HW126044   5.060   1.736   1.074
 4671SOL    HW226045   4.953   1.635   1.146
 4672SOL     OW26046   3.807   1.258   1.022
 4672SOL    HW126047   3.802   1.257   1.122
 4672SOL    HW226048   3.724   1.217   0.984
 4673SOL     OW26049   4.412   1.662   1.716
 4673SOL    HW126050   4.356   1.743   1.725
 4673SOL    HW226051   4.464   1.666   1.630
 4674SOL     OW26052   4.627   0.086   0.133
 4674SOL    HW126053   4.678   0.087   0.047
 4674SOL    HW226054   4.683   0.044   0.204
 4675SOL     OW26055   5.450   0.135   0.523
 4675SOL    HW126056   5.523   0.118   0.456
 4675SOL    HW226057   5.419   0.048   0.561
 4676SOL     OW26058   5.112   1.573   0.477
 4676SOL    HW126059   5.179   1.585   0.403
 4676SOL    HW226060   5.072   1.662   0.500
 4677SOL     OW26061   5.004   0.927   0.672
 4677SOL    HW126062   5.064   0.846   0.674
 4677SOL    HW226063   5.044   0.996   0.612
 4678SOL     OW26064   4.554   1.273   1.422
 4678SOL    HW126065   4.549   1.306   1.517
 4678SOL    HW226066   4.468   1.292   1.376
 4679SOL     OW26067   4.396   1.616   0.154
 4679SOL    HW126068   4.405   1.626   0.055
 4679SOL    HW226069   4.356   1.527   0.175
 4680SOL     OW26070   5.374   1.720   1.394
 4680SOL    HW126071   5.427   1.730   1.310
 4680SOL    HW226072   5.347   1.810   1.428
 4681SOL     OW26073   5.565   0.175   0.963
 4681SOL    HW126074   5.604   0.090   0.927
 4681SOL    HW226075   5.467   0.177   0.944
 4682SOL     OW26076   3.987   0.326   0.720
 4682SOL    HW126077   3.908   0.377   0.686
 4682SOL    HW226078   3.978   0.311   0.818
 4683SOL     OW26079   4.918   1.612   0.031
 4683SOL    HW126080   4.924   1.519   0.068
 4683SOL    HW226081   4.859   1.612  -0.049
 4684SOL     OW26082   4.546   1.002   1.372
 4684SOL    HW126083   4.586   1.001   1.280
 4684SOL    HW226084   4.556   1.094   1.412
 4685SOL     OW26085   4.640   0.910   0.291
 4685SOL    HW126086   4.703   0.948   0.223
 4685SOL    HW226087   4.680   0.827   0.330
 4686SOL     OW26088   5.228   1.607   0.044
 4686SOL    HW126089   5.136   1.644   0.051
 4686SOL    HW226090   5.266   1.627  -0.046
 4687SOL     OW26091   4.096   1.288   1.490
 4687SOL    HW126092   4.083   1.381   1.456
 4687SOL    HW226093   4.012   1.236   1.477
 4688SOL     OW26094   5.338   1.292   1.289
 4688SOL    HW126095   5.398   1.295   1.369
 4688SOL    HW226096   5.263   1.356   1.302
 4689SOL     OW26097   4.763   1.098   0.696
 4689SOL    HW126098   4.693   1.051   0.750
 4689SOL    HW226099   4.822   1.030   0.653
 4690SOL     OW26100   4.738   0.236   0.971
 4690SOL    HW126101   4.730   0.200   0.878
 4690SOL    HW226102   4.736   0.160   1.036
 4691SOL     OW26103   4.314   1.487   0.491
 4691SOL    HW126104   4.356   1.429   0.421
 4691SOL    HW226105   4.270   1.566   0.447
 4692SOL     OW26106   5.433   0.385   1.381
 4692SOL    HW126107   5.506   0.454   1.385
 4692SOL    HW226108   5.461   0.310   1.322
 4693SOL     OW26109   3.979   1.348   0.290
 4693SOL    HW126110   3.883   1.349   0.263
 4693SOL    HW226111   3.991   1.401   0.374
 4694SOL     OW26112   3.829   1.013   1.726
 4694SOL    HW126113   3.752   0.980   1.780
 4694SOL    HW226114   3.914   0.983   1.768
 4695SOL     OW26115   4.396   0.203   1.489
 4695SOL    HW126116   4.486   0.187   1.449
 4695SOL    HW226117   4.404   0.208   1.588
 4696SOL     OW26118   3.799   0.345   0.033
 4696SOL    HW126119   3.707   0.317   0.004
 4696SOL    HW226120   3.830   0.422  -0.023
 4697SOL     OW26121   5.164   0.856   1.398
 4697SOL    HW126122   5.107   0.908   1.335
 4697SOL    HW226123   5.260   0.868   1.374
 4698SOL     OW26124   3.796   0.166   0.318
 4698SOL    HW126125   3.779   0.249   0.264
 4698SOL    HW226126   3.886   0.129   0.296
 4699SOL     OW26127   4.907   1.335   0.119
 4699SOL    HW126128   4.808   1.324   0.121
 4699SOL    HW226129   4.941   1.350   0.212
 4700SOL     OW26130   4.337   0.842   1.431
 4700SOL    HW126131   4.393   0.923   1.414
 4700SOL    HW226132   4.396   0.762   1.434
 4701SOL     OW26133   5.217   1.767   0.959
 4701SOL    HW126134   5.250   1.831   0.890
 4701SOL    HW226135   5.283   1.761   1.034
 4702SOL     OW26136   4.440   0.565   1.708
 4702SOL    HW126137   4.459   0.630   1.782
 4702SOL    HW226138   4.500   0.485   1.717
 4703SOL     OW26139   5.174   1.220   1.633
 4703SOL    HW126140   5.165   1.210   1.732
 4703SOL    HW226141   5.270   1.213   1.607
 4704SOL     OW26142   4.114   1.741   1.560
 4704SOL    HW126143   4.023   1.782   1.558
 4704SOL    HW226144   4.107   1.647   1.592
 4705SOL     OW26145   5.398   0.883   1.254
 4705SOL    HW126146   5.371   0.794   1.217
 4705SOL    HW226147   5.399   0.951   1.181
 4706SOL     OW26148   4.949   0.325   0.449
 4706SOL    HW126149   5.014   0.251   0.438
 4706SOL    HW226150   4.969   0.375   0.533
 4707SOL     OW26151   4.318   0.745   0.652
 4707SOL    HW126152   4.368   0.830   0.633
 4707SOL    HW226153   4.230   0.747   0.604
 4708SOL     OW26154   5.501   0.342   1.642
 4708SOL    HW126155   5.484   0.373   1.548
 4708SOL    HW226156   5.417   0.305   1.680
 4709SOL     OW26157   5.454   0.934   1.517
 4709SOL    HW126158   5.492   1.025   1.532
 4709SOL    HW226159   5.446   0.917   1.418
 4710SOL     OW26160   4.583   1.374   0.016
 4710SOL    HW126161   4.537   1.389   0.104
 4710SOL    HW226162   4.627   1.459  -0.014
 4711SOL     OW26163   4.385   1.790   0.953
 4711SOL    HW126164   4.339   1.878   0.940
 4711SOL    HW226165   4.484   1.802   0.946
 4712SOL     OW26166   4.583   0.956   0.861
 4712SOL    HW126167   4.637   0.887   0.909
 4712SOL    HW226168   4.551   1.025   0.927
 4713SOL     OW26169   4.807   0.984   0.087
 4713SOL    HW126170   4.784   1.037   0.005
 4713SOL    HW226171   4.888   0.928   0.068
 4714SOL     OW26172   5.585   1.569   0.851
 4714SOL    HW126173   5.514   1.557   0.781
 4714SOL    HW226174   5.586   1.490   0.911
 4715SOL     OW26175   3.803   1.240   0.653
 4715SOL    HW126176   3.802   1.193   0.741
 4715SOL    HW226177   3.885   1.212   0.602
 4716SOL     OW26178   4.396   1.391   1.624
 4716SOL    HW126179   4.318   1.341   1.662
 4716SOL    HW226180   4.393   1.486   1.655
 4717SOL     OW26181   5.548   0.192   1.227
 4717SOL    HW126182   5.544   0.102   1.271
 4717SOL    HW226183   5.551   0.181   1.128
 4718SOL     OW26184   4.152   0.424   0.520
 4718SOL    HW126185   4.182   0.352   0.458
 4718SOL    HW226186   4.113   0.384   0.603
 4719SOL     OW26187   5.429   1.487   1.104
 4719SOL    HW126188   5.336   1.462   1.077
 4719SOL    HW226189   5.455   1.437   1.186
 4720SOL     OW26190   4.041   0.547   1.280
 4720SOL    HW126191   4.079   0.488   1.352
 4720SOL    HW226192   4.081   0.521   1.192
 4721SOL     OW26193   4.536   1.586   0.687
 4721SOL    HW126194   4.568   1.596   0.593
 4721SOL    HW226195   4.457   1.524   0.689
 4722SOL     OW26196   5.148   0.214   1.112
 4722SOL    HW126197   5.200   0.149   1.167
 4722SOL    HW226198   5.099   0.277   1.173
 4723SOL     OW26199   4.725   0.034   1.154
 4723SOL    HW126200   4.662  -0.038   1.123
 4723SOL    HW226201   4.818  -0.002   1.154
 4724SOL     OW26202   4.494   1.330   0.301
 4724SOL    HW126203   4.448   1.243   0.318
 4724SOL    HW226204   4.585   1.327   0.342
 4725SOL     OW26205   4.342   1.567   1.284
 4725SOL    HW126206   4.337   1.649   1.341
 4725SOL    HW226207   4.431   1.564   1.239
 4726SOL     OW26208   5.076   0.052   0.168
 4726SOL    HW126209   5.111   0.011   0.084
 4726SOL    HW226210   4.986   0.014   0.188
 4727SOL     OW26211   5.024   0.453   0.691
 4727SOL    HW126212   4.965   0.533   0.695
 4727SOL    HW226213   5.039   0.418   0.784
 4728SOL     OW26214   5.317   0.221   0.882
 4728SOL    HW126215   5.233   0.220   0.936
 4728SOL    HW226216   5.319   0.304   0.826
 4729SOL     OW26217   3.763   1.077   0.300
 4729SOL    HW126218   3.862   1.066   0.291
 4729SOL    HW226219   3.723   0.991   0.332
 4730SOL     OW26220   4.599   1.646   0.337
 4730SOL    HW126221   4.522   1.611   0.283
 4730SOL    HW226222   4.567   1.717   0.399
 4731SOL     OW26223   5.479   0.607   2.093
 4731SOL    HW126224   5.467   0.594   1.994
 4731SOL    HW226225   5.449   0.526   2.142
 4732SOL     OW26226   4.574   0.798   3.685
 4732SOL    HW126227   4.570   0.874   3.750
 4732SOL    HW226228   4.596   0.834   3.594
 4733SOL     OW26229   4.409   1.012   2.527
 4733SOL    HW126230   4.478   0.996   2.597
 4733SOL    HW226231   4.336   1.069   2.565
 4734SOL     OW26232   4.410   1.161   3.665
 4734SOL    HW126233   4.470   1.240   3.679
 4734SOL    HW226234   4.324   1.192   3.624
 4735SOL     OW26235   3.955   1.713   2.345
 4735SOL    HW126236   3.989   1.790   2.399
 4735SOL    HW226237   3.999   1.713   2.255
 4736SOL     OW26238   4.330   0.964   1.985
 4736SOL    HW126239   4.337   1.048   1.931
 4736SOL    HW226240   4.376   0.977   2.073
 4737SOL     OW26241   3.837   0.737   3.459
 4737SOL    HW126242   3.925   0.724   3.504
 4737SOL    HW226243   3.824   0.834   3.437
 4738SOL     OW26244   5.017   1.228   3.285
 4738SOL    HW126245   5.054   1.155   3.227
 4738SOL    HW226246   5.069   1.233   3.370
 4739SOL     OW26247   3.921   0.976   3.126
 4739SOL    HW126248   4.010   0.931   3.112
 4739SOL    HW226249   3.848   0.911   3.107
 4740SOL     OW26250   4.322   0.729   2.132
 4740SOL    HW126251   4.346   0.798   2.064
 4740SOL    HW226252   4.244   0.762   2.186
 4741SOL     OW26253   5.005   0.345   2.806
 4741SOL    HW126254   4.919   0.295   2.793
 4741SOL    HW226255   5.067   0.291   2.862
 4742SOL     OW26256   5.118   0.469   3.536
 4742SOL    HW126257   5.098   0.512   3.624
 4742SOL    HW226258   5.196   0.407   3.545
 4743SOL     OW26259   4.589   0.348   2.057
 4743SOL    HW126260   4.648   0.411   2.008
 4743SOL    HW226261   4.608   0.254   2.028
 4744SOL     OW26262   4.075   1.801   2.715
 4744SOL    HW126263   4.125   1.715   2.721
 4744SOL    HW226264   4.140   1.878   2.712
 4745SOL     OW26265   4.045   0.943   2.104
 4745SOL    HW126266   4.127   0.982   2.062
 4745SOL    HW226267   4.018   0.861   2.055
 4746SOL     OW26268   4.664   1.698   2.766
 4746SOL    HW126269   4.744   1.641   2.787
 4746SOL    HW226270   4.615   1.658   2.689
 4747SOL     OW26271   4.338   0.122   1.979
 4747SOL    HW126272   4.436   0.100   1.986
 4747SOL    HW226273   4.307   0.105   1.886
 4748SOL     OW26274   4.505   0.264   3.611
 4748SOL    HW126275   4.572   0.203   3.654
 4748SOL    HW226276   4.432   0.283   3.676
 4749SOL     OW26277   5.075   0.590   3.295
 4749SOL    HW126278   5.103   0.547   3.380
 4749SOL    HW226279   5.100   0.686   3.296
 4750SOL     OW26280   4.646   0.503   2.761
 4750SOL    HW126281   4.621   0.494   2.665
 4750SOL    HW226282   4.694   0.421   2.792
 4751SOL     OW26283   4.800   0.683   3.326
 4751SOL    HW126284   4.720   0.622   3.329
 4751SOL    HW226285   4.881   0.630   3.302
 4752SOL     OW26286   4.951   1.570   2.655
 4752SOL    HW126287   4.972   1.644   2.590
 4752SOL    HW226288   5.019   1.570   2.728
 4753SOL     OW26289   4.756   0.549   1.878
 4753SOL    HW126290   4.715   0.631   1.839
 4753SOL    HW226291   4.820   0.575   1.951
 4754SOL     OW26292   4.285   0.222   3.009
 4754SOL    HW126293   4.323   0.138   3.046
 4754SOL    HW226294   4.197   0.241   3.053
 4755SOL     OW26295   4.590   0.454   2.504
 4755SOL    HW126296   4.558   0.526   2.442
 4755SOL    HW226297   4.614   0.373   2.451
 4756SOL     OW26298   5.581   0.833   2.239
 4756SOL    HW126299   5.623   0.769   2.303
 4756SOL    HW226300   5.543   0.782   2.161
 4757SOL     OW26301   4.212   1.385   2.036
 4757SOL    HW126302   4.125   1.370   2.083
 4757SOL    HW226303   4.195   1.411   1.941
 4758SOL     OW26304   4.251   0.256   2.190
 4758SOL    HW126305   4.278   0.197   2.115
 4758SOL    HW226306   4.251   0.351   2.159
 4759SOL     OW26307   5.478   1.223   3.450
 4759SOL    HW126308   5.569   1.184   3.437
 4759SOL    HW226309   5.486   1.319   3.474
 4760SOL     OW26310   4.704   1.116   3.581
 4760SOL    HW126311   4.605   1.122   3.591
 4760SOL    HW226312   4.727   1.036   3.525
 4761SOL     OW26313   4.429   1.050   2.230
 4761SOL    HW126314   4.415   1.057   2.329
 4761SOL    HW226315   4.513   0.999   2.212
 4762SOL     OW26316   4.091   1.100   2.363
 4762SOL    HW126317   4.084   1.183   2.307
 4762SOL    HW226318   4.095   1.020   2.303
 4763SOL     OW26319   4.996   1.445   3.004
 4763SOL    HW126320   5.043   1.458   3.091
 4763SOL    HW226321   4.930   1.371   3.013
 4764SOL     OW26322   5.084   0.862   2.907
 4764SOL    HW126323   5.009   0.862   2.841
 4764SOL    HW226324   5.121   0.770   2.916
 4765SOL     OW26325   5.583   1.518   3.467
 4765SOL    HW126326   5.597   1.545   3.372
 4765SOL    HW226327   5.666   1.540   3.520
 4766SOL     OW26328   4.726   0.796   3.100
 4766SOL    HW126329   4.767   0.764   3.186
 4766SOL    HW226330   4.630   0.769   3.097
 4767SOL     OW26331   3.913   0.520   3.584
 4767SOL    HW126332   3.972   0.480   3.514
 4767SOL    HW226333   3.855   0.591   3.543
 4768SOL     OW26334   4.539   0.572   2.187
 4768SOL    HW126335   4.546   0.483   2.141
 4768SOL    HW226336   4.445   0.606   2.179
 4769SOL     OW26337   4.654   1.678   3.327
 4769SOL    HW126338   4.630   1.660   3.232
 4769SOL    HW226339   4.684   1.772   3.337
 4770SOL     OW26340   4.197   0.500   2.053
 4770SOL    HW126341   4.258   0.580   2.057
 4770SOL    HW226342   4.102   0.531   2.060
 4771SOL     OW26343   5.483   1.747   3.016
 4771SOL    HW126344   5.544   1.777   2.943
 4771SOL    HW226345   5.445   1.658   2.994
 4772SOL     OW26346   4.396   1.616   2.016
 4772SOL    HW126347   4.405   1.626   1.917
 4772SOL    HW226348   4.356   1.527   2.037
 4773SOL     OW26349   5.374   1.720   3.256
 4773SOL    HW126350   5.427   1.730   3.172
 4773SOL    HW226351   5.347   1.810   3.290
 4774SOL     OW26352   4.918   1.612   1.893
 4774SOL    HW126353   4.924   1.519   1.930
 4774SOL    HW226354   4.859   1.612   1.813
 4775SOL     OW26355   4.640   0.910   2.153
 4775SOL    HW126356   4.703   0.948   2.085
 4775SOL    HW226357   4.680   0.827   2.192
 4776SOL     OW26358   3.799   0.345   1.895
 4776SOL    HW126359   3.707   0.317   1.866
 4776SOL    HW226360   3.830   0.422   1.839
 4777SOL     OW26361   4.583   1.374   1.878
 4777SOL    HW126362   4.537   1.389   1.966
 4777SOL    HW226363   4.627   1.459   1.848
 4778SOL     OW26364   4.583   0.956   2.723
 4778SOL    HW126365   4.637   0.887   2.771
 4778SOL    HW226366   4.551   1.025   2.789
 4779SOL     OW26367   3.945   1.314   3.706
 4779SOL    HW126368   3.880   1.241   3.685
 4779SOL    HW226369   3.949   1.328   3.804
 4780SOL     OW26370   4.396   1.391   3.486
 4780SOL    HW126371   4.318   1.341   3.524
 4780SOL    HW226372   4.393   1.486   3.517
 4781SOL     OW26373   5.548   0.192   3.089
 4781SOL    HW126374   5.544   0.102   3.133
 4781SOL    HW226375   5.551   0.181   2.990
 4782SOL     OW26376   4.152   0.424   2.382
 4782SOL    HW126377   4.182   0.352   2.320
 4782SOL    HW226378   4.113   0.384   2.465
 4783SOL     OW26379   4.725   0.034   3.016
 4783SOL    HW126380   4.662  -0.038   2.985
 4783SOL    HW226381   4.818  -0.002   3.016
 4784SOL     OW26382   4.494   1.330   2.163
 4784SOL    HW126383   4.448   1.243   2.180
 4784SOL    HW226384   4.585   1.327   2.204
 4785SOL     OW26385   5.317   0.221   2.744
 4785SOL    HW126386   5.233   0.220   2.798
 4785SOL    HW226387   5.319   0.304   2.688
 4786SOL     OW26388   3.763   1.077   2.162
 4786SOL    HW126389   3.862   1.066   2.153
 4786SOL    HW226390   3.723   0.991   2.194
 4787SOL     OW26391   4.293   1.275   4.889
 4787SOL    HW126392   4.200   1.268   4.852
 4787SOL    HW226393   4.304   1.364   4.933
 4788SOL     OW26394   5.279   1.511   4.427
 4788SOL    HW126395   5.222   1.495   4.508
 4788SOL    HW226396   5.220   1.521   4.347
 4789SOL     OW26397   4.410   1.161   5.527
 4789SOL    HW126398   4.470   1.240   5.541
 4789SOL    HW226399   4.324   1.192   5.486
 4790SOL     OW26400   4.059   1.435   4.785
 4790SOL    HW126401   3.981   1.404   4.732
 4790SOL    HW226402   4.117   1.493   4.728
 4791SOL     OW26403   5.184   1.505   5.063
 4791SOL    HW126404   5.208   1.599   5.089
 4791SOL    HW226405   5.168   1.451   5.145
 4792SOL     OW26406   4.162   0.392   5.223
 4792SOL    HW126407   4.244   0.336   5.232
 4792SOL    HW226408   4.081   0.334   5.227
 4793SOL     OW26409   3.955   1.713   4.207
 4793SOL    HW126410   3.989   1.790   4.261
 4793SOL    HW226411   3.999   1.713   4.117
 4794SOL     OW26412   4.851   1.341   5.414
 4794SOL    HW126413   4.898   1.341   5.502
 4794SOL    HW226414   4.803   1.254   5.403
 4795SOL     OW26415   5.566   1.767   4.083
 4795SOL    HW126416   5.620   1.738   4.163
 4795SOL    HW226417   5.596   1.857   4.054
 4796SOL     OW26418   5.413   0.922   4.336
 4796SOL    HW126419   5.508   0.893   4.344
 4796SOL    HW226420   5.405   0.987   4.261
 4797SOL     OW26421   5.365   1.108   4.156
 4797SOL    HW126422   5.451   1.110   4.104
 4797SOL    HW226423   5.379   1.155   4.244
 4798SOL     OW26424   3.837   0.737   5.321
 4798SOL    HW126425   3.925   0.724   5.366
 4798SOL    HW226426   3.824   0.834   5.299
 4799SOL     OW26427   3.921   0.976   4.988
 4799SOL    HW126428   4.010   0.931   4.974
 4799SOL    HW226429   3.848   0.911   4.969
 4800SOL     OW26430   5.249   0.999   3.914
 4800SOL    HW126431   5.186   0.923   3.927
 4800SOL    HW226432   5.297   1.017   4.000
 4801SOL     OW26433   4.911   1.792   5.340
 4801SOL    HW126434   4.935   1.852   5.264
 4801SOL    HW226435   4.918   1.697   5.310
 4802SOL     OW26436   4.041   0.251   5.525
 4802SOL    HW126437   4.112   0.322   5.531
 4802SOL    HW226438   3.953   0.290   5.553
 4803SOL     OW26439   5.118   0.469   5.398
 4803SOL    HW126440   5.098   0.512   5.486
 4803SOL    HW226441   5.196   0.407   5.407
 4804SOL     OW26442   3.800   0.811   4.513
 4804SOL    HW126443   3.899   0.799   4.522
 4804SOL    HW226444   3.776   0.906   4.534
 4805SOL     OW26445   4.274   0.196   4.609
 4805SOL    HW126446   4.269   0.191   4.709
 4805SOL    HW226447   4.276   0.292   4.580
 4806SOL     OW26448   4.732   1.456   4.201
 4806SOL    HW126449   4.686   1.528   4.149
 4806SOL    HW226450   4.728   1.476   4.299
 4807SOL     OW26451   4.075   1.801   4.577
 4807SOL    HW126452   4.125   1.715   4.583
 4807SOL    HW226453   4.140   1.878   4.574
 4808SOL     OW26454   4.951   1.550   5.230
 4808SOL    HW126455   4.957   1.473   5.294
 4808SOL    HW226456   4.899   1.524   5.150
 4809SOL     OW26457   4.045   0.943   3.966
 4809SOL    HW126458   4.127   0.982   3.924
 4809SOL    HW226459   4.018   0.861   3.917
 4810SOL     OW26460   4.185   1.266   5.451
 4810SOL    HW126461   4.135   1.267   5.365
 4810SOL    HW226462   4.122   1.248   5.527
 4811SOL     OW26463   4.664   1.698   4.628
 4811SOL    HW126464   4.744   1.641   4.649
 4811SOL    HW226465   4.615   1.658   4.551
 4812SOL     OW26466   4.106   0.700   4.204
 4812SOL    HW126467   4.151   0.610   4.201
 4812SOL    HW226468   4.012   0.689   4.237
 4813SOL     OW26469   5.271   0.222   5.453
 4813SOL    HW126470   5.266   0.259   5.545
 4813SOL    HW226471   5.199   0.153   5.441
 4814SOL     OW26472   4.505   0.264   5.473
 4814SOL    HW126473   4.572   0.203   5.516
 4814SOL    HW226474   4.432   0.283   5.538
 4815SOL     OW26475   4.646   0.503   4.623
 4815SOL    HW126476   4.621   0.494   4.527
 4815SOL    HW226477   4.694   0.421   4.654
 4816SOL     OW26478   4.263   0.064   4.236
 4816SOL    HW126479   4.182   0.065   4.294
 4816SOL    HW226480   4.266   0.147   4.181
 4817SOL     OW26481   3.802   0.556   5.110
 4817SOL    HW126482   3.894   0.555   5.069
 4817SOL    HW226483   3.796   0.630   5.177
 4818SOL     OW26484   4.285   0.222   4.871
 4818SOL    HW126485   4.323   0.138   4.908
 4818SOL    HW226486   4.197   0.241   4.915
 4819SOL     OW26487   4.590   0.454   4.366
 4819SOL    HW126488   4.558   0.526   4.304
 4819SOL    HW226489   4.614   0.373   4.313
 4820SOL     OW26490   4.741   0.039   4.477
 4820SOL    HW126491   4.669   0.044   4.408
 4820SOL    HW226492   4.717  -0.030   4.546
 4821SOL     OW26493   5.388   1.280   4.381
 4821SOL    HW126494   5.487   1.288   4.395
 4821SOL    HW226495   5.343   1.364   4.412
 4822SOL     OW26496   4.251   0.256   4.052
 4822SOL    HW126497   4.278   0.197   3.977
 4822SOL    HW226498   4.251   0.351   4.021
 4823SOL     OW26499   4.788   1.347   5.064
 4823SOL    HW126500   4.708   1.324   5.119
 4823SOL    HW226501   4.871   1.321   5.113
 4824SOL     OW26502   4.704   1.116   5.443
 4824SOL    HW126503   4.605   1.122   5.453
 4824SOL    HW226504   4.727   1.036   5.387
 4825SOL     OW26505   4.429   1.050   4.092
 4825SOL    HW126506   4.415   1.057   4.191
 4825SOL    HW226507   4.513   0.999   4.074
 4826SOL     OW26508   4.998   0.386   4.986
 4826SOL    HW126509   5.019   0.460   5.050
 4826SOL    HW226510   4.909   0.403   4.943
 4827SOL     OW26511   3.788   1.564   5.055
 4827SOL    HW126512   3.742   1.646   5.021
 4827SOL    HW226513   3.886   1.583   5.064
 4828SOL     OW26514   4.996   1.445   4.866
 4828SOL    HW126515   5.043   1.458   4.953
 4828SOL    HW226516   4.930   1.371   4.875
 4829SOL     OW26517   4.126   0.751   5.322
 4829SOL    HW126518   4.194   0.806   5.275
 4829SOL    HW226519   4.166   0.663   5.349
 4830SOL     OW26520   4.228   0.050   5.464
 4830SOL    HW126521   4.186  -0.007   5.394
 4830SOL    HW226522   4.162   0.119   5.496
 4831SOL     OW26523   4.031   0.213   4.955
 4831SOL    HW126524   4.008   0.250   5.045
 4831SOL    HW226525   4.001   0.118   4.949
 4832SOL     OW26526   4.456   0.634   4.788
 4832SOL    HW126527   4.515   0.608   4.712
 4832SOL    HW226528   4.428   0.730   4.777
 4833SOL     OW26529   5.452   0.935   5.578
 4833SOL    HW126530   5.406   0.928   5.489
 4833SOL    HW226531   5.390   0.979   5.644
 4834SOL     OW26532   4.031   0.063   4.342
 4834SOL    HW126533   4.020   0.157   4.375
 4834SOL    HW226534   4.026   0.000   4.419
 4835SOL     OW26535   5.346   0.367   4.098
 4835SOL    HW126536   5.348   0.291   4.162
 4835SOL    HW226537   5.298   0.444   4.138
 4836SOL     OW26538   4.747   0.766   4.690
 4836SOL    HW126539   4.762   0.787   4.786
 4836SOL    HW226540   4.717   0.671   4.681
 4837SOL     OW26541   4.704   1.573   5.424
 4837SOL    HW126542   4.684   1.617   5.336
 4837SOL    HW226543   4.743   1.482   5.408
 4838SOL     OW26544   4.074   0.898   5.528
 4838SOL    HW126545   4.150   0.942   5.576
 4838SOL    HW226546   4.109   0.851   5.446
 4839SOL     OW26547   5.027   0.838   3.766
 4839SOL    HW126548   5.061   0.745   3.781
 4839SOL    HW226549   5.045   0.865   3.671
 4840SOL     OW26550   4.792   1.333   4.573
 4840SOL    HW126551   4.799   1.249   4.518
 4840SOL    HW226552   4.854   1.402   4.537
 4841SOL     OW26553   4.862   0.380   5.402
 4841SOL    HW126554   4.817   0.443   5.466
 4841SOL    HW226555   4.955   0.411   5.385
 4842SOL     OW26556   4.884   0.207   5.201
 4842SOL    HW126557   4.884   0.271   5.278
 4842SOL    HW226558   4.912   0.255   5.118
 4843SOL     OW26559   4.726   0.796   4.962
 4843SOL    HW126560   4.767   0.764   5.048
 4843SOL    HW226561   4.630   0.769   4.959
 4844SOL     OW26562   3.913   0.520   5.446
 4844SOL    HW126563   3.972   0.480   5.376
 4844SOL    HW226564   3.855   0.591   5.405
 4845SOL     OW26565   3.976   1.564   5.468
 4845SOL    HW126566   3.946   1.621   5.544
 4845SOL    HW226567   3.969   1.467   5.494
 4846SOL     OW26568   4.654   1.678   5.189
 4846SOL    HW126569   4.630   1.660   5.094
 4846SOL    HW226570   4.684   1.772   5.199
 4847SOL     OW26571   3.883   1.137   5.190
 4847SOL    HW126572   3.905   1.076   5.266
 4847SOL    HW226573   3.893   1.088   5.104
 4848SOL     OW26574   5.026   0.855   4.033
 4848SOL    HW126575   4.940   0.824   4.075
 4848SOL    HW226576   5.022   0.841   3.934
 4849SOL     OW26577   3.854   1.794   5.575
 4849SOL    HW126578   3.813   1.720   5.628
 4849SOL    HW226579   3.918   1.845   5.633
 4850SOL     OW26580   4.396   1.616   3.878
 4850SOL    HW126581   4.405   1.626   3.779
 4850SOL    HW226582   4.356   1.527   3.899
 4851SOL     OW26583   4.918   1.612   3.755
 4851SOL    HW126584   4.924   1.519   3.792
 4851SOL    HW226585   4.859   1.612   3.675
 4852SOL     OW26586   5.338   1.292   5.013
 4852SOL    HW126587   5.398   1.295   5.093
 4852SOL    HW226588   5.263   1.356   5.026
 4853SOL     OW26589   4.763   1.098   4.420
 4853SOL    HW126590   4.693   1.051   4.474
 4853SOL    HW226591   4.822   1.030   4.377
 4854SOL     OW26592   3.829   1.013   5.450
 4854SOL    HW126593   3.752   0.980   5.504
 4854SOL    HW226594   3.914   0.983   5.492
 4855SOL     OW26595   4.907   1.335   3.843
 4855SOL    HW126596   4.808   1.324   3.845
 4855SOL    HW226597   4.941   1.350   3.936
 4856SOL     OW26598   5.217   1.767   4.683
 4856SOL    HW126599   5.250   1.831   4.614
 4856SOL    HW226600   5.283   1.761   4.758
 4857SOL     OW26601   4.440   0.565   5.432
 4857SOL    HW126602   4.459   0.630   5.506
 4857SOL    HW226603   4.500   0.485   5.441
 4858SOL     OW26604   5.501   0.342   5.366
 4858SOL    HW126605   5.484   0.373   5.272
 4858SOL    HW226606   5.417   0.305   5.404
 4859SOL     OW26607   4.385   1.790   4.677
 4859SOL    HW126608   4.339   1.878   4.664
 4859SOL    HW226609   4.484   1.802   4.670
 4860SOL     OW26610   4.583   0.956   4.585
 4860SOL    HW126611   4.637   0.887   4.633
 4860SOL    HW226612   4.551   1.025   4.651
 4861SOL     OW26613   4.807   0.984   3.811
 4861SOL    HW126614   4.784   1.037   3.729
 4861SOL    HW226615   4.888   0.928   3.792
 4862SOL     OW26616   3.945   1.314   5.568
 4862SOL    HW126617   3.880   1.241   5.547
 4862SOL    HW226618   3.949   1.328   5.666
 4863SOL     OW26619   3.803   1.240   4.377
 4863SOL    HW126620   3.802   1.193   4.465
 4863SOL    HW226621   3.885   1.212   4.326
 4864SOL     OW26622   5.429   1.487   4.828
 4864SOL    HW126623   5.336   1.462   4.801
 4864SOL    HW226624   5.455   1.437   4.910
 4865SOL     OW26625   4.041   0.547   5.004
 4865SOL    HW126626   4.079   0.488   5.076
 4865SOL    HW226627   4.081   0.521   4.916
 4866SOL     OW26628   4.536   1.586   4.411
 4866SOL    HW126629   4.568   1.596   4.317
 4866SOL    HW226630   4.457   1.524   4.413
 4867SOL     OW26631   5.076   0.052   3.892
 4867SOL    HW126632   5.111   0.011   3.808
 4867SOL    HW226633   4.986   0.014   3.912
 4868SOL     OW26634   5.024   0.453   4.415
 4868SOL    HW126635   4.965   0.533   4.419
 4868SOL    HW226636   5.039   0.418   4.508
 4869SOL     OW26637   3.763   1.077   4.024
 4869SOL    HW126638   3.862   1.066   4.015
 4869SOL    HW226639   3.723   0.991   4.056
 4870SOL     OW26640   3.954   0.628   5.699
 4870SOL    HW126641   3.861   0.626   5.736
 4870SOL    HW226642   3.955   0.589   5.607
 4871SOL     OW26643   3.949   0.275   6.582
 4871SOL    HW126644   3.984   0.258   6.674
 4871SOL    HW226645   3.861   0.230   6.570
 4872SOL     OW26646   3.743   0.368   6.233
 4872SOL    HW126647   3.661   0.411   6.272
 4872SOL    HW226648   3.715   0.295   6.170
 4873SOL     OW26649   4.293   1.275   6.751
 4873SOL    HW126650   4.200   1.268   6.714
 4873SOL    HW226651   4.304   1.364   6.795
 4874SOL     OW26652   5.279   1.511   6.289
 4874SOL    HW126653   5.222   1.495   6.370
 4874SOL    HW226654   5.220   1.521   6.209
 4875SOL     OW26655   4.859   0.703   6.303
 4875SOL    HW126656   4.916   0.781   6.278
 4875SOL    HW226657   4.799   0.729   6.379
 4876SOL     OW26658   5.479   0.607   5.817
 4876SOL    HW126659   5.467   0.594   5.718
 4876SOL    HW226660   5.449   0.526   5.866
 4877SOL     OW26661   4.492   1.144   6.609
 4877SOL    HW126662   4.414   1.161   6.669
 4877SOL    HW226663   4.526   1.231   6.573
 4878SOL     OW26664   4.409   1.012   6.251
 4878SOL    HW126665   4.478   0.996   6.321
 4878SOL    HW226666   4.336   1.069   6.289
 4879SOL     OW26667   4.059   1.435   6.647
 4879SOL    HW126668   3.981   1.404   6.594
 4879SOL    HW226669   4.117   1.493   6.590
 4880SOL     OW26670   4.162   0.392   7.085
 4880SOL    HW126671   4.244   0.336   7.094
 4880SOL    HW226672   4.081   0.334   7.089
 4881SOL     OW26673   5.327   0.447   6.323
 4881SOL    HW126674   5.253   0.493   6.273
 4881SOL    HW226675   5.378   0.515   6.376
 4882SOL     OW26676   3.955   1.713   6.069
 4882SOL    HW126677   3.989   1.790   6.123
 4882SOL    HW226678   3.999   1.713   5.979
 4883SOL     OW26679   3.954   1.434   6.124
 4883SOL    HW126680   3.928   1.530   6.124
 4883SOL    HW226681   3.883   1.380   6.169
 4884SOL     OW26682   3.964   1.091   6.472
 4884SOL    HW126683   3.978   1.007   6.524
 4884SOL    HW226684   3.909   1.155   6.527
 4885SOL     OW26685   4.344   1.786   7.025
 4885SOL    HW126686   4.252   1.769   7.060
 4885SOL    HW226687   4.372   1.878   7.051
 4886SOL     OW26688   4.330   0.964   5.709
 4886SOL    HW126689   4.337   1.048   5.655
 4886SOL    HW226690   4.376   0.977   5.797
 4887SOL     OW26691   3.846   0.643   6.149
 4887SOL    HW126692   3.801   0.555   6.166
 4887SOL    HW226693   3.845   0.697   6.233
 4888SOL     OW26694   5.413   0.922   6.198
 4888SOL    HW126695   5.508   0.893   6.206
 4888SOL    HW226696   5.405   0.987   6.123
 4889SOL     OW26697   5.365   1.108   6.018
 4889SOL    HW126698   5.451   1.110   5.966
 4889SOL    HW226699   5.379   1.155   6.106
 4890SOL     OW26700   4.337   1.365   6.312
 4890SOL    HW126701   4.288   1.278   6.321
 4890SOL    HW226702   4.314   1.408   6.225
 4891SOL     OW26703   4.533   0.004   6.088
 4891SOL    HW126704   4.573   0.095   6.079
 4891SOL    HW226705   4.433   0.012   6.094
 4892SOL     OW26706   3.921   0.976   6.850
 4892SOL    HW126707   4.010   0.931   6.836
 4892SOL    HW226708   3.848   0.911   6.831
 4893SOL     OW26709   5.249   0.999   5.776
 4893SOL    HW126710   5.186   0.923   5.789
 4893SOL    HW226711   5.297   1.017   5.862
 4894SOL     OW26712   5.190   1.417   6.539
 4894SOL    HW126713   5.131   1.423   6.619
 4894SOL    HW226714   5.175   1.329   6.493
 4895SOL     OW26715   5.391   1.714   6.158
 4895SOL    HW126716   5.350   1.691   6.070
 4895SOL    HW226717   5.373   1.640   6.223
 4896SOL     OW26718   4.322   0.729   5.856
 4896SOL    HW126719   4.346   0.798   5.788
 4896SOL    HW226720   4.244   0.762   5.910
 4897SOL     OW26721   5.005   0.345   6.530
 4897SOL    HW126722   4.919   0.295   6.517
 4897SOL    HW226723   5.067   0.291   6.586
 4898SOL     OW26724   5.300   1.662   5.893
 4898SOL    HW126725   5.389   1.708   5.896
 4898SOL    HW226726   5.279   1.638   5.798
 4899SOL     OW26727   4.531   0.605   7.051
 4899SOL    HW126728   4.484   0.602   7.140
 4899SOL    HW226729   4.480   0.550   6.985
 4900SOL     OW26730   4.715   0.410   6.828
 4900SOL    HW126731   4.638   0.444   6.882
 4900SOL    HW226732   4.681   0.359   6.749
 4901SOL     OW26733   4.765   0.701   6.015
 4901SOL    HW126734   4.791   0.697   6.111
 4901SOL    HW226735   4.680   0.650   6.001
 4902SOL     OW26736   3.800   0.811   6.375
 4902SOL    HW126737   3.899   0.799   6.384
 4902SOL    HW226738   3.776   0.906   6.396
 4903SOL     OW26739   3.854   1.821   7.157
 4903SOL    HW126740   3.844   1.806   7.256
 4903SOL    HW226741   3.768   1.857   7.121
 4904SOL     OW26742   4.589   0.348   5.781
 4904SOL    HW126743   4.648   0.411   5.732
 4904SOL    HW226744   4.608   0.254   5.752
 4905SOL     OW26745   5.086   1.144   6.131
 4905SOL    HW126746   5.169   1.115   6.083
 4905SOL    HW226747   5.037   1.211   6.075
 4906SOL     OW26748   4.274   0.196   6.471
 4906SOL    HW126749   4.269   0.191   6.571
 4906SOL    HW226750   4.276   0.292   6.442
 4907SOL     OW26751   4.732   1.456   6.063
 4907SOL    HW126752   4.686   1.528   6.011
 4907SOL    HW226753   4.728   1.476   6.161
 4908SOL     OW26754   4.075   1.801   6.439
 4908SOL    HW126755   4.125   1.715   6.445
 4908SOL    HW226756   4.140   1.878   6.436
 4909SOL     OW26757   5.519   1.066   6.459
 4909SOL    HW126758   5.457   1.051   6.383
 4909SOL    HW226759   5.467   1.077   6.544
 4910SOL     OW26760   4.045   0.943   5.828
 4910SOL    HW126761   4.127   0.982   5.786
 4910SOL    HW226762   4.018   0.861   5.779
 4911SOL     OW26763   5.182   0.735   6.314
 4911SOL    HW126764   5.177   0.670   6.389
 4911SOL    HW226765   5.262   0.794   6.327
 4912SOL     OW26766   5.356   1.377   5.667
 4912SOL    HW126767   5.324   1.471   5.657
 4912SOL    HW226768   5.280   1.314   5.655
 4913SOL     OW26769   4.188   1.743   5.909
 4913SOL    HW126770   4.221   1.782   5.995
 4913SOL    HW226771   4.264   1.736   5.844
 4914SOL     OW26772   5.124   0.107   6.012
 4914SOL    HW126773   5.100   0.070   5.922
 4914SOL    HW226774   5.223   0.123   6.016
 4915SOL     OW26775   3.973   1.785   6.827
 4915SOL    HW126776   4.030   1.720   6.877
 4915SOL    HW226777   3.957   1.752   6.734
 4916SOL     OW26778   4.664   1.698   6.490
 4916SOL    HW126779   4.744   1.641   6.511
 4916SOL    HW226780   4.615   1.658   6.413
 4917SOL     OW26781   4.106   0.700   6.066
 4917SOL    HW126782   4.151   0.610   6.063
 4917SOL    HW226783   4.012   0.689   6.099
 4918SOL     OW26784   4.338   0.122   5.703
 4918SOL    HW126785   4.436   0.100   5.710
 4918SOL    HW226786   4.307   0.105   5.610
 4919SOL     OW26787   4.612   1.514   6.781
 4919SOL    HW126788   4.589   1.489   6.687
 4919SOL    HW226789   4.673   1.445   6.820
 4920SOL     OW26790   4.527   1.402   6.510
 4920SOL    HW126791   4.617   1.416   6.468
 4920SOL    HW226792   4.456   1.404   6.439
 4921SOL     OW26793   4.646   0.503   6.485
 4921SOL    HW126794   4.621   0.494   6.389
 4921SOL    HW226795   4.694   0.421   6.516
 4922SOL     OW26796   4.263   0.064   6.098
 4922SOL    HW126797   4.182   0.065   6.156
 4922SOL    HW226798   4.266   0.147   6.043
 4923SOL     OW26799   4.021   0.035   5.757
 4923SOL    HW126800   4.070   0.119   5.736
 4923SOL    HW226801   4.083  -0.030   5.802
 4924SOL     OW26802   4.659   0.236   6.066
 4924SOL    HW126803   4.611   0.277   5.988
 4924SOL    HW226804   4.758   0.234   6.047
 4925SOL     OW26805   4.951   1.570   6.379
 4925SOL    HW126806   4.972   1.644   6.314
 4925SOL    HW226807   5.019   1.570   6.452
 4926SOL     OW26808   4.183   1.152   6.327
 4926SOL    HW126809   4.112   1.125   6.392
 4926SOL    HW226810   4.157   1.124   6.234
 4927SOL     OW26811   4.995   1.797   6.177
 4927SOL    HW126812   5.039   1.861   6.113
 4927SOL    HW226813   4.945   1.849   6.247
 4928SOL     OW26814   4.756   0.549   5.602
 4928SOL    HW126815   4.715   0.631   5.563
 4928SOL    HW226816   4.820   0.575   5.675
 4929SOL     OW26817   4.285   0.222   6.733
 4929SOL    HW126818   4.323   0.138   6.770
 4929SOL    HW226819   4.197   0.241   6.777
 4930SOL     OW26820   4.590   0.454   6.228
 4930SOL    HW126821   4.558   0.526   6.166
 4930SOL    HW226822   4.614   0.373   6.175
 4931SOL     OW26823   4.741   0.039   6.339
 4931SOL    HW126824   4.669   0.044   6.270
 4931SOL    HW226825   4.717  -0.030   6.408
 4932SOL     OW26826   5.153   1.173   6.453
 4932SOL    HW126827   5.098   1.089   6.446
 4932SOL    HW226828   5.179   1.202   6.361
 4933SOL     OW26829   5.190   0.590   6.578
 4933SOL    HW126830   5.160   0.495   6.585
 4933SOL    HW226831   5.263   0.606   6.644
 4934SOL     OW26832   5.581   0.833   5.963
 4934SOL    HW126833   5.623   0.769   6.027
 4934SOL    HW226834   5.543   0.782   5.885
 4935SOL     OW26835   4.212   1.385   5.760
 4935SOL    HW126836   4.125   1.370   5.807
 4935SOL    HW226837   4.195   1.411   5.665
 4936SOL     OW26838   5.388   1.280   6.243
 4936SOL    HW126839   5.487   1.288   6.257
 4936SOL    HW226840   5.343   1.364   6.274
 4937SOL     OW26841   5.114   0.575   5.664
 4937SOL    HW126842   5.060   0.554   5.745
 4937SOL    HW226843   5.205   0.534   5.673
 4938SOL     OW26844   4.251   0.256   5.914
 4938SOL    HW126845   4.278   0.197   5.839
 4938SOL    HW226846   4.251   0.351   5.883
 4939SOL     OW26847   4.788   1.347   6.926
 4939SOL    HW126848   4.708   1.324   6.981
 4939SOL    HW226849   4.871   1.321   6.975
 4940SOL     OW26850   4.835   1.195   6.686
 4940SOL    HW126851   4.795   1.239   6.767
 4940SOL    HW226852   4.794   1.232   6.603
 4941SOL     OW26853   5.362   1.099   6.665
 4941SOL    HW126854   5.367   1.180   6.724
 4941SOL    HW226855   5.276   1.101   6.614
 4942SOL     OW26856   4.429   1.050   5.954
 4942SOL    HW126857   4.415   1.057   6.053
 4942SOL    HW226858   4.513   0.999   5.936
 4943SOL     OW26859   4.134   0.813   6.837
 4943SOL    HW126860   4.220   0.825   6.887
 4943SOL    HW226861   4.092   0.726   6.864
 4944SOL     OW26862   4.998   0.386   6.848
 4944SOL    HW126863   5.019   0.460   6.912
 4944SOL    HW226864   4.909   0.403   6.805
 4945SOL     OW26865   3.788   1.564   6.917
 4945SOL    HW126866   3.742   1.646   6.883
 4945SOL    HW226867   3.886   1.583   6.926
 4946SOL     OW26868   4.091   1.100   6.087
 4946SOL    HW126869   4.084   1.183   6.031
 4946SOL    HW226870   4.095   1.020   6.027
 4947SOL     OW26871   4.290   0.537   6.451
 4947SOL    HW126872   4.302   0.603   6.377
 4947SOL    HW226873   4.336   0.571   6.534
 4948SOL     OW26874   4.976   1.348   5.974
 4948SOL    HW126875   5.026   1.425   6.014
 4948SOL    HW226876   4.881   1.350   6.006
 4949SOL     OW26877   4.996   1.445   6.728
 4949SOL    HW126878   5.043   1.458   6.815
 4949SOL    HW226879   4.930   1.371   6.737
 4950SOL     OW26880   5.306   0.639   6.058
 4950SOL    HW126881   5.275   0.700   6.131
 4950SOL    HW226882   5.356   0.691   5.989
 4951SOL     OW26883   4.078   1.510   6.915
 4951SOL    HW126884   4.057   1.466   6.828
 4951SOL    HW226885   4.175   1.536   6.918
 4952SOL     OW26886   4.297   0.870   6.615
 4952SOL    HW126887   4.341   0.959   6.606
 4952SOL    HW226888   4.234   0.870   6.692
 4953SOL     OW26889   5.084   0.862   6.631
 4953SOL    HW126890   5.009   0.862   6.565
 4953SOL    HW226891   5.121   0.770   6.640
 4954SOL     OW26892   4.933   0.525   5.861
 4954SOL    HW126893   4.946   0.441   5.915
 4954SOL    HW226894   4.904   0.599   5.921
 4955SOL     OW26895   4.031   0.213   6.817
 4955SOL    HW126896   4.008   0.250   6.907
 4955SOL    HW226897   4.001   0.118   6.811
 4956SOL     OW26898   3.761   1.310   6.868
 4956SOL    HW126899   3.814   1.261   6.936
 4956SOL    HW226900   3.783   1.408   6.873
 4957SOL     OW26901   4.456   0.634   6.650
 4957SOL    HW126902   4.515   0.608   6.574
 4957SOL    HW226903   4.428   0.730   6.639
 4958SOL     OW26904   4.031   0.063   6.204
 4958SOL    HW126905   4.020   0.157   6.237
 4958SOL    HW226906   4.026   0.000   6.281
 4959SOL     OW26907   5.346   0.367   5.960
 4959SOL    HW126908   5.348   0.291   6.024
 4959SOL    HW226909   5.298   0.444   6.000
 4960SOL     OW26910   4.747   0.766   6.552
 4960SOL    HW126911   4.762   0.787   6.648
 4960SOL    HW226912   4.717   0.671   6.543
 4961SOL     OW26913   5.264   0.274   5.711
 4961SOL    HW126914   5.203   0.199   5.734
 4961SOL    HW226915   5.286   0.326   5.794
 4962SOL     OW26916   4.792   1.333   6.435
 4962SOL    HW126917   4.799   1.249   6.380
 4962SOL    HW226918   4.854   1.402   6.399
 4963SOL     OW26919   4.043   0.810   6.535
 4963SOL    HW126920   4.136   0.846   6.540
 4963SOL    HW226921   4.037   0.725   6.587
 4964SOL     OW26922   4.063   0.509   6.592
 4964SOL    HW126923   4.011   0.426   6.575
 4964SOL    HW226924   4.140   0.514   6.528
 4965SOL     OW26925   4.884   0.207   7.063
 4965SOL    HW126926   4.884   0.271   7.140
 4965SOL    HW226927   4.912   0.255   6.980
 4966SOL     OW26928   3.812   1.801   6.513
 4966SOL    HW126929   3.770   1.715   6.486
 4966SOL    HW226930   3.906   1.804   6.479
 4967SOL     OW26931   4.228   1.568   6.496
 4967SOL    HW126932   4.294   1.642   6.505
 4967SOL    HW226933   4.272   1.489   6.454
 4968SOL     OW26934   4.726   0.796   6.824
 4968SOL    HW126935   4.767   0.764   6.910
 4968SOL    HW226936   4.630   0.769   6.821
 4969SOL     OW26937   3.764   0.544   6.700
 4969SOL    HW126938   3.849   0.511   6.659
 4969SOL    HW226939   3.777   0.559   6.798
 4970SOL     OW26940   4.539   0.572   5.911
 4970SOL    HW126941   4.546   0.483   5.865
 4970SOL    HW226942   4.445   0.606   5.903
 4971SOL     OW26943   5.381   0.604   6.792
 4971SOL    HW126944   5.343   0.535   6.854
 4971SOL    HW226945   5.463   0.568   6.748
 4972SOL     OW26946   4.395   0.464   6.855
 4972SOL    HW126947   4.361   0.375   6.825
 4972SOL    HW226948   4.421   0.518   6.775
 4973SOL     OW26949   4.654   1.678   7.051
 4973SOL    HW126950   4.630   1.660   6.956
 4973SOL    HW226951   4.684   1.772   7.061
 4974SOL     OW26952   4.197   0.500   5.777
 4974SOL    HW126953   4.258   0.580   5.781
 4974SOL    HW226954   4.102   0.531   5.784
 4975SOL     OW26955   3.883   1.137   7.052
 4975SOL    HW126956   3.905   1.076   7.128
 4975SOL    HW226957   3.893   1.088   6.966
 4976SOL     OW26958   5.071   1.059   6.820
 4976SOL    HW126959   5.095   0.996   6.746
 4976SOL    HW226960   4.981   1.099   6.802
 4977SOL     OW26961   5.026   0.855   5.895
 4977SOL    HW126962   4.940   0.824   5.937
 4977SOL    HW226963   5.022   0.841   5.796
 4978SOL     OW26964   5.483   1.747   6.740
 4978SOL    HW126965   5.544   1.777   6.667
 4978SOL    HW226966   5.445   1.658   6.718
 4979SOL     OW26967   4.976   1.731   6.714
 4979SOL    HW126968   5.060   1.736   6.660
 4979SOL    HW226969   4.953   1.635   6.732
 4980SOL     OW26970   3.807   1.258   6.608
 4980SOL    HW126971   3.802   1.257   6.708
 4980SOL    HW226972   3.724   1.217   6.570
 4981SOL     OW26973   5.450   0.135   6.109
 4981SOL    HW126974   5.523   0.118   6.042
 4981SOL    HW226975   5.419   0.048   6.147
 4982SOL     OW26976   5.112   1.573   6.063
 4982SOL    HW126977   5.179   1.585   5.989
 4982SOL    HW226978   5.072   1.662   6.086
 4983SOL     OW26979   5.004   0.927   6.258
 4983SOL    HW126980   5.064   0.846   6.260
 4983SOL    HW226981   5.044   0.996   6.198
 4984SOL     OW26982   5.565   0.175   6.549
 4984SOL    HW126983   5.604   0.090   6.513
 4984SOL    HW226984   5.467   0.177   6.530
 4985SOL     OW26985   3.987   0.326   6.306
 4985SOL    HW126986   3.908   0.377   6.272
 4985SOL    HW226987   3.978   0.311   6.404
 4986SOL     OW26988   4.918   1.612   5.617
 4986SOL    HW126989   4.924   1.519   5.654
 4986SOL    HW226990   4.859   1.612   5.537
 4987SOL     OW26991   4.546   1.002   6.958
 4987SOL    HW126992   4.586   1.001   6.866
 4987SOL    HW226993   4.556   1.094   6.998
 4988SOL     OW26994   4.096   1.288   7.076
 4988SOL    HW126995   4.083   1.381   7.042
 4988SOL    HW226996   4.012   1.236   7.063
 4989SOL     OW26997   5.338   1.292   6.875
 4989SOL    HW126998   5.398   1.295   6.955
 4989SOL    HW226999   5.263   1.356   6.888
 4990SOL     OW27000   4.763   1.098   6.282
 4990SOL    HW127001   4.693   1.051   6.336
 4990SOL    HW227002   4.822   1.030   6.239
 4991SOL     OW27003   4.738   0.236   6.557
 4991SOL    HW127004   4.730   0.200   6.464
 4991SOL    HW227005   4.736   0.160   6.622
 4992SOL     OW27006   4.314   1.487   6.077
 4992SOL    HW127007   4.356   1.429   6.007
 4992SOL    HW227008   4.270   1.566   6.033
 4993SOL     OW27009   5.433   0.385   6.967
 4993SOL    HW127010   5.506   0.454   6.971
 4993SOL    HW227011   5.461   0.310   6.908
 4994SOL     OW27012   3.979   1.348   5.876
 4994SOL    HW127013   3.883   1.349   5.849
 4994SOL    HW227014   3.991   1.401   5.960
 4995SOL     OW27015   3.799   0.345   5.619
 4995SOL    HW127016   3.707   0.317   5.590
 4995SOL    HW227017   3.830   0.422   5.563
 4996SOL     OW27018   3.796   0.166   5.904
 4996SOL    HW127019   3.779   0.249   5.850
 4996SOL    HW227020   3.886   0.129   5.882
 4997SOL     OW27021   4.907   1.335   5.705
 4997SOL    HW127022   4.808   1.324   5.707
 4997SOL    HW227023   4.941   1.350   5.798
 4998SOL     OW27024   4.337   0.842   7.017
 4998SOL    HW127025   4.393   0.923   7.000
 4998SOL    HW227026   4.396   0.762   7.020
 4999SOL     OW27027   5.217   1.767   6.545
 4999SOL    HW127028   5.250   1.831   6.476
 4999SOL    HW227029   5.283   1.761   6.620
 5000SOL     OW27030   4.114   1.741   7.146
 5000SOL    HW127031   4.023   1.782   7.144
 5000SOL    HW227032   4.107   1.647   7.178
 5001SOL     OW27033   5.398   0.883   6.840
 5001SOL    HW127034   5.371   0.794   6.803
 5001SOL    HW227035   5.399   0.951   6.767
 5002SOL     OW27036   4.949   0.325   6.035
 5002SOL    HW127037   5.014   0.251   6.024
 5002SOL    HW227038   4.969   0.375   6.119
 5003SOL     OW27039   4.318   0.745   6.238
 5003SOL    HW127040   4.368   0.830   6.219
 5003SOL    HW227041   4.230   0.747   6.190
 5004SOL     OW27042   5.454   0.934   7.103
 5004SOL    HW127043   5.492   1.025   7.118
 5004SOL    HW227044   5.446   0.917   7.004
 5005SOL     OW27045   4.385   1.790   6.539
 5005SOL    HW127046   4.339   1.878   6.526
 5005SOL    HW227047   4.484   1.802   6.532
 5006SOL     OW27048   4.583   0.956   6.447
 5006SOL    HW127049   4.637   0.887   6.495
 5006SOL    HW227050   4.551   1.025   6.513
 5007SOL     OW27051   5.585   1.569   6.437
 5007SOL    HW127052   5.514   1.557   6.367
 5007SOL    HW227053   5.586   1.490   6.497
 5008SOL     OW27054   3.803   1.240   6.239
 5008SOL    HW127055   3.802   1.193   6.327
 5008SOL    HW227056   3.885   1.212   6.188
 5009SOL     OW27057   5.548   0.192   6.813
 5009SOL    HW127058   5.544   0.102   6.857
 5009SOL    HW227059   5.551   0.181   6.714
 5010SOL     OW27060   4.152   0.424   6.106
 5010SOL    HW127061   4.182   0.352   6.044
 5010SOL    HW227062   4.113   0.384   6.189
 5011SOL     OW27063   5.429   1.487   6.690
 5011SOL    HW127064   5.336   1.462   6.663
 5011SOL    HW227065   5.455   1.437   6.772
 5012SOL     OW27066   4.041   0.547   6.866
 5012SOL    HW127067   4.079   0.488   6.938
 5012SOL    HW227068   4.081   0.521   6.778
 5013SOL     OW27069   4.536   1.586   6.273
 5013SOL    HW127070   4.568   1.596   6.179
 5013SOL    HW227071   4.457   1.524   6.275
 5014SOL     OW27072   5.148   0.214   6.698
 5014SOL    HW127073   5.200   0.149   6.753
 5014SOL    HW227074   5.099   0.277   6.759
 5015SOL     OW27075   4.725   0.034   6.740
 5015SOL    HW127076   4.662  -0.038   6.709
 5015SOL    HW227077   4.818  -0.002   6.740
 5016SOL     OW27078   4.494   1.330   5.887
 5016SOL    HW127079   4.448   1.243   5.904
 5016SOL    HW227080   4.585   1.327   5.928
 5017SOL     OW27081   4.342   1.567   6.870
 5017SOL    HW127082   4.337   1.649   6.927
 5017SOL    HW227083   4.431   1.564   6.825
 5018SOL     OW27084   5.076   0.052   5.754
 5018SOL    HW127085   5.111   0.011   5.670
 5018SOL    HW227086   4.986   0.014   5.774
 5019SOL     OW27087   5.024   0.453   6.277
 5019SOL    HW127088   4.965   0.533   6.281
 5019SOL    HW227089   5.039   0.418   6.370
 5020SOL     OW27090   5.317   0.221   6.468
 5020SOL    HW127091   5.233   0.220   6.522
 5020SOL    HW227092   5.319   0.304   6.412
 5021SOL     OW27093   3.763   1.077   5.886
 5021SOL    HW127094   3.862   1.066   5.877
 5021SOL    HW227095   3.723   0.991   5.918
 5022SOL     OW27096   3.954   2.490   0.113
 5022SOL    HW127097   3.861   2.488   0.150
 5022SOL    HW227098   3.955   2.451   0.021
 5023SOL     OW27099   3.949   2.137   0.996
 5023SOL    HW127100   3.984   2.120   1.088
 5023SOL    HW227101   3.861   2.092   0.984
 5024SOL     OW27102   3.743   2.230   0.647
 5024SOL    HW127103   3.661   2.273   0.686
 5024SOL    HW227104   3.715   2.157   0.584
 5025SOL     OW27105   4.293   3.137   1.165
 5025SOL    HW127106   4.200   3.130   1.128
 5025SOL    HW227107   4.304   3.226   1.209
 5026SOL     OW27108   5.279   3.373   0.703
 5026SOL    HW127109   5.222   3.357   0.784
 5026SOL    HW227110   5.220   3.383   0.623
 5027SOL     OW27111   4.859   2.565   0.717
 5027SOL    HW127112   4.916   2.643   0.692
 5027SOL    HW227113   4.799   2.591   0.793
 5028SOL     OW27114   5.479   2.469   0.231
 5028SOL    HW127115   5.467   2.456   0.132
 5028SOL    HW227116   5.449   2.388   0.280
 5029SOL     OW27117   4.492   3.006   1.023
 5029SOL    HW127118   4.414   3.023   1.083
 5029SOL    HW227119   4.526   3.093   0.987
 5030SOL     OW27120   4.409   2.874   0.665
 5030SOL    HW127121   4.478   2.858   0.735
 5030SOL    HW227122   4.336   2.931   0.703
 5031SOL     OW27123   4.410   3.023   1.803
 5031SOL    HW127124   4.470   3.102   1.817
 5031SOL    HW227125   4.324   3.054   1.762
 5032SOL     OW27126   4.059   3.297   1.061
 5032SOL    HW127127   3.981   3.266   1.008
 5032SOL    HW227128   4.117   3.355   1.004
 5033SOL     OW27129   5.184   3.367   1.339
 5033SOL    HW127130   5.208   3.461   1.365
 5033SOL    HW227131   5.168   3.313   1.421
 5034SOL     OW27132   4.162   2.254   1.499
 5034SOL    HW127133   4.244   2.198   1.508
 5034SOL    HW227134   4.081   2.196   1.503
 5035SOL     OW27135   5.327   2.309   0.737
 5035SOL    HW127136   5.253   2.355   0.687
 5035SOL    HW227137   5.378   2.377   0.790
 5036SOL     OW27138   3.955   3.575   0.483
 5036SOL    HW127139   3.989   3.652   0.537
 5036SOL    HW227140   3.999   3.575   0.393
 5037SOL     OW27141   3.954   3.296   0.538
 5037SOL    HW127142   3.928   3.392   0.538
 5037SOL    HW227143   3.883   3.242   0.583
 5038SOL     OW27144   3.964   2.953   0.886
 5038SOL    HW127145   3.978   2.869   0.938
 5038SOL    HW227146   3.909   3.017   0.941
 5039SOL     OW27147   4.344   3.648   1.439
 5039SOL    HW127148   4.252   3.631   1.474
 5039SOL    HW227149   4.372   3.740   1.465
 5040SOL     OW27150   4.330   2.826   0.123
 5040SOL    HW127151   4.337   2.910   0.069
 5040SOL    HW227152   4.376   2.839   0.211
 5041SOL     OW27153   5.318   1.976   1.480
 5041SOL    HW127154   5.300   2.043   1.408
 5041SOL    HW227155   5.315   2.022   1.569
 5042SOL     OW27156   3.846   2.505   0.563
 5042SOL    HW127157   3.801   2.417   0.580
 5042SOL    HW227158   3.845   2.559   0.647
 5043SOL     OW27159   5.566   3.629   0.359
 5043SOL    HW127160   5.620   3.600   0.439
 5043SOL    HW227161   5.596   3.719   0.330
 5044SOL     OW27162   3.751   3.458   0.117
 5044SOL    HW127163   3.732   3.362   0.138
 5044SOL    HW227164   3.718   3.516   0.192
 5045SOL     OW27165   5.413   2.784   0.612
 5045SOL    HW127166   5.508   2.755   0.620
 5045SOL    HW227167   5.405   2.849   0.537
 5046SOL     OW27168   5.365   2.970   0.432
 5046SOL    HW127169   5.451   2.972   0.380
 5046SOL    HW227170   5.379   3.017   0.520
 5047SOL     OW27171   3.837   2.599   1.597
 5047SOL    HW127172   3.925   2.586   1.642
 5047SOL    HW227173   3.824   2.696   1.575
 5048SOL     OW27174   4.337   3.227   0.726
 5048SOL    HW127175   4.288   3.140   0.735
 5048SOL    HW227176   4.314   3.270   0.639
 5049SOL     OW27177   5.017   3.090   1.423
 5049SOL    HW127178   5.054   3.017   1.365
 5049SOL    HW227179   5.069   3.095   1.508
 5050SOL     OW27180   4.533   1.866   0.502
 5050SOL    HW127181   4.573   1.957   0.493
 5050SOL    HW227182   4.433   1.874   0.508
 5051SOL     OW27183   3.921   2.838   1.264
 5051SOL    HW127184   4.010   2.793   1.250
 5051SOL    HW227185   3.848   2.773   1.245
 5052SOL     OW27186   5.249   2.861   0.190
 5052SOL    HW127187   5.186   2.785   0.203
 5052SOL    HW227188   5.297   2.879   0.276
 5053SOL     OW27189   4.911   3.654   1.616
 5053SOL    HW127190   4.935   3.714   1.540
 5053SOL    HW227191   4.918   3.559   1.586
 5054SOL     OW27192   4.041   2.113   1.801
 5054SOL    HW127193   4.112   2.184   1.807
 5054SOL    HW227194   3.953   2.152   1.829
 5055SOL     OW27195   5.190   3.279   0.953
 5055SOL    HW127196   5.131   3.285   1.033
 5055SOL    HW227197   5.175   3.191   0.907
 5056SOL     OW27198   5.391   3.576   0.572
 5056SOL    HW127199   5.350   3.553   0.484
 5056SOL    HW227200   5.373   3.502   0.637
 5057SOL     OW27201   4.322   2.591   0.270
 5057SOL    HW127202   4.346   2.660   0.202
 5057SOL    HW227203   4.244   2.624   0.324
 5058SOL     OW27204   5.005   2.207   0.944
 5058SOL    HW127205   4.919   2.157   0.931
 5058SOL    HW227206   5.067   2.153   1.000
 5059SOL     OW27207   5.300   3.524   0.307
 5059SOL    HW127208   5.389   3.570   0.310
 5059SOL    HW227209   5.279   3.500   0.212
 5060SOL     OW27210   4.531   2.467   1.465
 5060SOL    HW127211   4.484   2.464   1.554
 5060SOL    HW227212   4.480   2.412   1.399
 5061SOL     OW27213   4.697   2.752   1.572
 5061SOL    HW127214   4.743   2.668   1.543
 5061SOL    HW227215   4.641   2.786   1.497
 5062SOL     OW27216   4.715   2.272   1.242
 5062SOL    HW127217   4.638   2.306   1.296
 5062SOL    HW227218   4.681   2.221   1.163
 5063SOL     OW27219   4.765   2.563   0.429
 5063SOL    HW127220   4.791   2.559   0.525
 5063SOL    HW227221   4.680   2.512   0.415
 5064SOL     OW27222   3.800   2.673   0.789
 5064SOL    HW127223   3.899   2.661   0.798
 5064SOL    HW227224   3.776   2.768   0.810
 5065SOL     OW27225   4.589   2.210   0.195
 5065SOL    HW127226   4.648   2.273   0.146
 5065SOL    HW227227   4.608   2.116   0.166
 5066SOL     OW27228   5.086   3.006   0.545
 5066SOL    HW127229   5.169   2.977   0.497
 5066SOL    HW227230   5.037   3.073   0.489
 5067SOL     OW27231   4.274   2.058   0.885
 5067SOL    HW127232   4.269   2.053   0.985
 5067SOL    HW227233   4.276   2.154   0.856
 5068SOL     OW27234   4.732   3.318   0.477
 5068SOL    HW127235   4.686   3.390   0.425
 5068SOL    HW227236   4.728   3.338   0.575
 5069SOL     OW27237   4.075   3.663   0.853
 5069SOL    HW127238   4.125   3.577   0.859
 5069SOL    HW227239   4.140   3.740   0.850
 5070SOL     OW27240   5.519   2.928   0.873
 5070SOL    HW127241   5.457   2.913   0.797
 5070SOL    HW227242   5.467   2.939   0.958
 5071SOL     OW27243   4.951   3.412   1.506
 5071SOL    HW127244   4.957   3.335   1.570
 5071SOL    HW227245   4.899   3.386   1.426
 5072SOL     OW27246   4.045   2.805   0.242
 5072SOL    HW127247   4.127   2.844   0.200
 5072SOL    HW227248   4.018   2.723   0.193
 5073SOL     OW27249   5.182   2.597   0.728
 5073SOL    HW127250   5.177   2.532   0.803
 5073SOL    HW227251   5.262   2.656   0.741
 5074SOL     OW27252   4.185   3.128   1.727
 5074SOL    HW127253   4.135   3.129   1.641
 5074SOL    HW227254   4.122   3.110   1.803
 5075SOL     OW27255   4.835   3.638   0.237
 5075SOL    HW127256   4.775   3.576   0.287
 5075SOL    HW227257   4.866   3.594   0.152
 5076SOL     OW27258   3.926   2.147   1.498
 5076SOL    HW127259   3.846   2.207   1.485
 5076SOL    HW227260   3.916   2.098   1.584
 5077SOL     OW27261   5.356   3.239   0.081
 5077SOL    HW127262   5.324   3.333   0.071
 5077SOL    HW227263   5.280   3.176   0.069
 5078SOL     OW27264   4.188   3.605   0.323
 5078SOL    HW127265   4.221   3.644   0.409
 5078SOL    HW227266   4.264   3.598   0.258
 5079SOL     OW27267   5.124   1.969   0.426
 5079SOL    HW127268   5.100   1.932   0.336
 5079SOL    HW227269   5.223   1.985   0.430
 5080SOL     OW27270   3.973   3.647   1.241
 5080SOL    HW127271   4.030   3.582   1.291
 5080SOL    HW227272   3.957   3.614   1.148
 5081SOL     OW27273   4.664   3.560   0.904
 5081SOL    HW127274   4.744   3.503   0.925
 5081SOL    HW227275   4.615   3.520   0.827
 5082SOL     OW27276   4.106   2.562   0.480
 5082SOL    HW127277   4.151   2.472   0.477
 5082SOL    HW227278   4.012   2.551   0.513
 5083SOL     OW27279   4.505   2.126   1.749
 5083SOL    HW127280   4.572   2.065   1.792
 5083SOL    HW227281   4.432   2.145   1.814
 5084SOL     OW27282   5.075   2.452   1.433
 5084SOL    HW127283   5.103   2.409   1.518
 5084SOL    HW227284   5.100   2.548   1.434
 5085SOL     OW27285   4.527   3.264   0.924
 5085SOL    HW127286   4.617   3.278   0.882
 5085SOL    HW227287   4.456   3.266   0.853
 5086SOL     OW27288   4.646   2.365   0.899
 5086SOL    HW127289   4.621   2.356   0.803
 5086SOL    HW227290   4.694   2.283   0.930
 5087SOL     OW27291   4.263   1.926   0.512
 5087SOL    HW127292   4.182   1.927   0.570
 5087SOL    HW227293   4.266   2.009   0.457
 5088SOL     OW27294   5.158   3.050   0.041
 5088SOL    HW127295   5.190   2.974   0.098
 5088SOL    HW227296   5.066   3.077   0.071
 5089SOL     OW27297   4.659   2.098   0.480
 5089SOL    HW127298   4.611   2.139   0.402
 5089SOL    HW227299   4.758   2.096   0.461
 5090SOL     OW27300   4.800   2.545   1.464
 5090SOL    HW127301   4.720   2.484   1.467
 5090SOL    HW227302   4.881   2.492   1.440
 5091SOL     OW27303   4.951   3.432   0.793
 5091SOL    HW127304   4.972   3.506   0.728
 5091SOL    HW227305   5.019   3.432   0.866
 5092SOL     OW27306   4.183   3.014   0.741
 5092SOL    HW127307   4.112   2.987   0.806
 5092SOL    HW227308   4.157   2.986   0.648
 5093SOL     OW27309   4.995   3.659   0.591
 5093SOL    HW127310   5.039   3.723   0.527
 5093SOL    HW227311   4.945   3.711   0.661
 5094SOL     OW27312   4.756   2.411   0.016
 5094SOL    HW127313   4.715   2.493  -0.023
 5094SOL    HW227314   4.820   2.437   0.089
 5095SOL     OW27315   3.802   2.418   1.386
 5095SOL    HW127316   3.894   2.417   1.345
 5095SOL    HW227317   3.796   2.492   1.453
 5096SOL     OW27318   4.285   2.084   1.147
 5096SOL    HW127319   4.323   2.000   1.184
 5096SOL    HW227320   4.197   2.103   1.191
 5097SOL     OW27321   4.590   2.316   0.642
 5097SOL    HW127322   4.558   2.388   0.580
 5097SOL    HW227323   4.614   2.235   0.589
 5098SOL     OW27324   4.741   1.901   0.753
 5098SOL    HW127325   4.669   1.906   0.684
 5098SOL    HW227326   4.717   1.832   0.822
 5099SOL     OW27327   5.153   3.035   0.867
 5099SOL    HW127328   5.098   2.951   0.860
 5099SOL    HW227329   5.179   3.064   0.775
 5100SOL     OW27330   5.190   2.452   0.992
 5100SOL    HW127331   5.160   2.357   0.999
 5100SOL    HW227332   5.263   2.468   1.058
 5101SOL     OW27333   5.581   2.695   0.377
 5101SOL    HW127334   5.623   2.631   0.441
 5101SOL    HW227335   5.543   2.644   0.299
 5102SOL     OW27336   4.212   3.247   0.174
 5102SOL    HW127337   4.125   3.232   0.221
 5102SOL    HW227338   4.195   3.273   0.079
 5103SOL     OW27339   5.388   3.142   0.657
 5103SOL    HW127340   5.487   3.150   0.671
 5103SOL    HW227341   5.343   3.226   0.688
 5104SOL     OW27342   5.114   2.437   0.078
 5104SOL    HW127343   5.060   2.416   0.159
 5104SOL    HW227344   5.205   2.396   0.087
 5105SOL     OW27345   4.251   2.118   0.328
 5105SOL    HW127346   4.278   2.059   0.253
 5105SOL    HW227347   4.251   2.213   0.297
 5106SOL     OW27348   4.835   3.057   1.100
 5106SOL    HW127349   4.795   3.101   1.181
 5106SOL    HW227350   4.794   3.094   1.017
 5107SOL     OW27351   5.362   2.961   1.079
 5107SOL    HW127352   5.367   3.042   1.138
 5107SOL    HW227353   5.276   2.963   1.028
 5108SOL     OW27354   4.429   2.912   0.368
 5108SOL    HW127355   4.415   2.919   0.467
 5108SOL    HW227356   4.513   2.861   0.350
 5109SOL     OW27357   4.134   2.675   1.251
 5109SOL    HW127358   4.220   2.687   1.301
 5109SOL    HW227359   4.092   2.588   1.278
 5110SOL     OW27360   4.998   2.248   1.262
 5110SOL    HW127361   5.019   2.322   1.326
 5110SOL    HW227362   4.909   2.265   1.219
 5111SOL     OW27363   3.788   3.426   1.331
 5111SOL    HW127364   3.742   3.508   1.297
 5111SOL    HW227365   3.886   3.445   1.340
 5112SOL     OW27366   4.091   2.962   0.501
 5112SOL    HW127367   4.084   3.045   0.445
 5112SOL    HW227368   4.095   2.882   0.441
 5113SOL     OW27369   4.290   2.399   0.865
 5113SOL    HW127370   4.302   2.465   0.791
 5113SOL    HW227371   4.336   2.433   0.948
 5114SOL     OW27372   4.976   3.210   0.388
 5114SOL    HW127373   5.026   3.287   0.428
 5114SOL    HW227374   4.881   3.212   0.420
 5115SOL     OW27375   4.996   3.307   1.142
 5115SOL    HW127376   5.043   3.320   1.229
 5115SOL    HW227377   4.930   3.233   1.151
 5116SOL     OW27378   5.306   2.501   0.472
 5116SOL    HW127379   5.275   2.562   0.545
 5116SOL    HW227380   5.356   2.553   0.403
 5117SOL     OW27381   4.078   3.372   1.329
 5117SOL    HW127382   4.057   3.328   1.242
 5117SOL    HW227383   4.175   3.398   1.332
 5118SOL     OW27384   4.126   2.613   1.598
 5118SOL    HW127385   4.194   2.668   1.551
 5118SOL    HW227386   4.166   2.525   1.625
 5119SOL     OW27387   5.311   2.641   1.670
 5119SOL    HW127388   5.219   2.679   1.665
 5119SOL    HW227389   5.371   2.688   1.605
 5120SOL     OW27390   4.228   1.912   1.740
 5120SOL    HW127391   4.186   1.855   1.670
 5120SOL    HW227392   4.162   1.981   1.772
 5121SOL     OW27393   4.297   2.732   1.029
 5121SOL    HW127394   4.341   2.821   1.020
 5121SOL    HW227395   4.234   2.732   1.106
 5122SOL     OW27396   5.084   2.724   1.045
 5122SOL    HW127397   5.009   2.724   0.979
 5122SOL    HW227398   5.121   2.632   1.054
 5123SOL     OW27399   4.933   2.387   0.275
 5123SOL    HW127400   4.946   2.303   0.329
 5123SOL    HW227401   4.904   2.461   0.335
 5124SOL     OW27402   4.031   2.075   1.231
 5124SOL    HW127403   4.008   2.112   1.321
 5124SOL    HW227404   4.001   1.980   1.225
 5125SOL     OW27405   3.761   3.172   1.282
 5125SOL    HW127406   3.814   3.123   1.350
 5125SOL    HW227407   3.783   3.270   1.287
 5126SOL     OW27408   4.456   2.496   1.064
 5126SOL    HW127409   4.515   2.470   0.988
 5126SOL    HW227410   4.428   2.592   1.053
 5127SOL     OW27411   4.031   1.925   0.618
 5127SOL    HW127412   4.020   2.019   0.651
 5127SOL    HW227413   4.026   1.862   0.695
 5128SOL     OW27414   5.346   2.229   0.374
 5128SOL    HW127415   5.348   2.153   0.438
 5128SOL    HW227416   5.298   2.306   0.414
 5129SOL     OW27417   4.747   2.628   0.966
 5129SOL    HW127418   4.762   2.649   1.062
 5129SOL    HW227419   4.717   2.533   0.957
 5130SOL     OW27420   4.704   3.435   1.700
 5130SOL    HW127421   4.684   3.479   1.612
 5130SOL    HW227422   4.743   3.344   1.684
 5131SOL     OW27423   5.583   3.380   1.605
 5131SOL    HW127424   5.597   3.407   1.510
 5131SOL    HW227425   5.666   3.402   1.658
 5132SOL     OW27426   4.074   2.760   1.804
 5132SOL    HW127427   4.150   2.804   1.852
 5132SOL    HW227428   4.109   2.713   1.722
 5133SOL     OW27429   5.264   2.136   0.125
 5133SOL    HW127430   5.203   2.061   0.148
 5133SOL    HW227431   5.286   2.188   0.208
 5134SOL     OW27432   5.027   2.700   0.042
 5134SOL    HW127433   5.061   2.607   0.057
 5134SOL    HW227434   5.045   2.727  -0.053
 5135SOL     OW27435   4.792   3.195   0.849
 5135SOL    HW127436   4.799   3.111   0.794
 5135SOL    HW227437   4.854   3.264   0.813
 5136SOL     OW27438   4.043   2.672   0.949
 5136SOL    HW127439   4.136   2.708   0.954
 5136SOL    HW227440   4.037   2.587   1.001
 5137SOL     OW27441   4.063   2.371   1.006
 5137SOL    HW127442   4.011   2.288   0.989
 5137SOL    HW227443   4.140   2.376   0.942
 5138SOL     OW27444   3.732   3.188   0.200
 5138SOL    HW127445   3.639   3.209   0.169
 5138SOL    HW227446   3.742   3.089   0.213
 5139SOL     OW27447   3.812   3.663   0.927
 5139SOL    HW127448   3.770   3.577   0.900
 5139SOL    HW227449   3.906   3.666   0.893
 5140SOL     OW27450   4.228   3.430   0.910
 5140SOL    HW127451   4.294   3.504   0.919
 5140SOL    HW227452   4.272   3.351   0.868
 5141SOL     OW27453   4.726   2.658   1.238
 5141SOL    HW127454   4.767   2.626   1.324
 5141SOL    HW227455   4.630   2.631   1.235
 5142SOL     OW27456   3.764   2.406   1.114
 5142SOL    HW127457   3.849   2.373   1.073
 5142SOL    HW227458   3.777   2.421   1.212
 5143SOL     OW27459   3.913   2.382   1.722
 5143SOL    HW127460   3.972   2.342   1.652
 5143SOL    HW227461   3.855   2.453   1.681
 5144SOL     OW27462   5.093   2.812   1.660
 5144SOL    HW127463   5.132   2.901   1.680
 5144SOL    HW227464   5.103   2.792   1.563
 5145SOL     OW27465   4.539   2.434   0.325
 5145SOL    HW127466   4.546   2.345   0.279
 5145SOL    HW227467   4.445   2.468   0.317
 5146SOL     OW27468   5.381   2.466   1.206
 5146SOL    HW127469   5.343   2.397   1.268
 5146SOL    HW227470   5.463   2.430   1.162
 5147SOL     OW27471   3.976   3.426   1.744
 5147SOL    HW127472   3.946   3.483   1.820
 5147SOL    HW227473   3.969   3.329   1.770
 5148SOL     OW27474   4.395   2.326   1.269
 5148SOL    HW127475   4.361   2.237   1.239
 5148SOL    HW227476   4.421   2.380   1.189
 5149SOL     OW27477   4.654   3.540   1.465
 5149SOL    HW127478   4.630   3.522   1.370
 5149SOL    HW227479   4.684   3.634   1.475
 5150SOL     OW27480   4.197   2.362   0.191
 5150SOL    HW127481   4.258   2.442   0.195
 5150SOL    HW227482   4.102   2.393   0.198
 5151SOL     OW27483   3.883   2.999   1.466
 5151SOL    HW127484   3.905   2.938   1.542
 5151SOL    HW227485   3.893   2.950   1.380
 5152SOL     OW27486   5.071   2.921   1.234
 5152SOL    HW127487   5.095   2.858   1.160
 5152SOL    HW227488   4.981   2.961   1.216
 5153SOL     OW27489   5.026   2.717   0.309
 5153SOL    HW127490   4.940   2.686   0.351
 5153SOL    HW227491   5.022   2.703   0.210
 5154SOL     OW27492   5.483   3.609   1.154
 5154SOL    HW127493   5.544   3.639   1.081
 5154SOL    HW227494   5.445   3.520   1.132
 5155SOL     OW27495   4.976   3.593   1.128
 5155SOL    HW127496   5.060   3.598   1.074
 5155SOL    HW227497   4.953   3.497   1.146
 5156SOL     OW27498   3.807   3.120   1.022
 5156SOL    HW127499   3.802   3.119   1.122
 5156SOL    HW227500   3.724   3.079   0.984
 5157SOL     OW27501   4.627   1.948   0.133
 5157SOL    HW127502   4.678   1.949   0.047
 5157SOL    HW227503   4.683   1.906   0.204
 5158SOL     OW27504   5.450   1.997   0.523
 5158SOL    HW127505   5.523   1.980   0.456
 5158SOL    HW227506   5.419   1.910   0.561
 5159SOL     OW27507   5.112   3.435   0.477
 5159SOL    HW127508   5.179   3.447   0.403
 5159SOL    HW227509   5.072   3.524   0.500
 5160SOL     OW27510   5.004   2.789   0.672
 5160SOL    HW127511   5.064   2.708   0.674
 5160SOL    HW227512   5.044   2.858   0.612
 5161SOL     OW27513   4.396   3.478   0.154
 5161SOL    HW127514   4.405   3.488   0.055
 5161SOL    HW227515   4.356   3.389   0.175
 5162SOL     OW27516   5.565   2.037   0.963
 5162SOL    HW127517   5.604   1.952   0.927
 5162SOL    HW227518   5.467   2.039   0.944
 5163SOL     OW27519   3.987   2.188   0.720
 5163SOL    HW127520   3.908   2.239   0.686
 5163SOL    HW227521   3.978   2.173   0.818
 5164SOL     OW27522   4.918   3.474   0.031
 5164SOL    HW127523   4.924   3.381   0.068
 5164SOL    HW227524   4.859   3.474  -0.049
 5165SOL     OW27525   4.546   2.864   1.372
 5165SOL    HW127526   4.586   2.863   1.280
 5165SOL    HW227527   4.556   2.956   1.412
 5166SOL     OW27528   4.640   2.772   0.291
 5166SOL    HW127529   4.703   2.810   0.223
 5166SOL    HW227530   4.680   2.689   0.330
 5167SOL     OW27531   5.228   3.469   0.044
 5167SOL    HW127532   5.136   3.506   0.051
 5167SOL    HW227533   5.266   3.489  -0.046
 5168SOL     OW27534   4.096   3.150   1.490
 5168SOL    HW127535   4.083   3.243   1.456
 5168SOL    HW227536   4.012   3.098   1.477
 5169SOL     OW27537   5.338   3.154   1.289
 5169SOL    HW127538   5.398   3.157   1.369
 5169SOL    HW227539   5.263   3.218   1.302
 5170SOL     OW27540   4.763   2.960   0.696
 5170SOL    HW127541   4.693   2.913   0.750
 5170SOL    HW227542   4.822   2.892   0.653
 5171SOL     OW27543   4.738   2.098   0.971
 5171SOL    HW127544   4.730   2.062   0.878
 5171SOL    HW227545   4.736   2.022   1.036
 5172SOL     OW27546   4.314   3.349   0.491
 5172SOL    HW127547   4.356   3.291   0.421
 5172SOL    HW227548   4.270   3.428   0.447
 5173SOL     OW27549   5.433   2.247   1.381
 5173SOL    HW127550   5.506   2.316   1.385
 5173SOL    HW227551   5.461   2.172   1.322
 5174SOL     OW27552   3.979   3.210   0.290
 5174SOL    HW127553   3.883   3.211   0.263
 5174SOL    HW227554   3.991   3.263   0.374
 5175SOL     OW27555   3.829   2.875   1.726
 5175SOL    HW127556   3.752   2.842   1.780
 5175SOL    HW227557   3.914   2.845   1.768
 5176SOL     OW27558   4.396   2.065   1.489
 5176SOL    HW127559   4.486   2.049   1.449
 5176SOL    HW227560   4.404   2.070   1.588
 5177SOL     OW27561   3.799   2.207   0.033
 5177SOL    HW127562   3.707   2.179   0.004
 5177SOL    HW227563   3.830   2.284  -0.023
 5178SOL     OW27564   5.164   2.718   1.398
 5178SOL    HW127565   5.107   2.770   1.335
 5178SOL    HW227566   5.260   2.730   1.374
 5179SOL     OW27567   3.796   2.028   0.318
 5179SOL    HW127568   3.779   2.111   0.264
 5179SOL    HW227569   3.886   1.991   0.296
 5180SOL     OW27570   4.907   3.197   0.119
 5180SOL    HW127571   4.808   3.186   0.121
 5180SOL    HW227572   4.941   3.212   0.212
 5181SOL     OW27573   4.337   2.704   1.431
 5181SOL    HW127574   4.393   2.785   1.414
 5181SOL    HW227575   4.396   2.624   1.434
 5182SOL     OW27576   5.217   3.629   0.959
 5182SOL    HW127577   5.250   3.693   0.890
 5182SOL    HW227578   5.283   3.623   1.034
 5183SOL     OW27579   5.174   3.082   1.633
 5183SOL    HW127580   5.165   3.072   1.732
 5183SOL    HW227581   5.270   3.075   1.607
 5184SOL     OW27582   5.398   2.745   1.254
 5184SOL    HW127583   5.371   2.656   1.217
 5184SOL    HW227584   5.399   2.813   1.181
 5185SOL     OW27585   4.949   2.187   0.449
 5185SOL    HW127586   5.014   2.113   0.438
 5185SOL    HW227587   4.969   2.237   0.533
 5186SOL     OW27588   4.318   2.607   0.652
 5186SOL    HW127589   4.368   2.692   0.633
 5186SOL    HW227590   4.230   2.609   0.604
 5187SOL     OW27591   5.501   2.204   1.642
 5187SOL    HW127592   5.484   2.235   1.548
 5187SOL    HW227593   5.417   2.167   1.680
 5188SOL     OW27594   5.454   2.796   1.517
 5188SOL    HW127595   5.492   2.887   1.532
 5188SOL    HW227596   5.446   2.779   1.418
 5189SOL     OW27597   4.583   3.236   0.016
 5189SOL    HW127598   4.537   3.251   0.104
 5189SOL    HW227599   4.627   3.321  -0.014
 5190SOL     OW27600   4.385   3.652   0.953
 5190SOL    HW127601   4.339   3.740   0.940
 5190SOL    HW227602   4.484   3.664   0.946
 5191SOL     OW27603   4.583   2.818   0.861
 5191SOL    HW127604   4.637   2.749   0.909
 5191SOL    HW227605   4.551   2.887   0.927
 5192SOL     OW27606   4.807   2.846   0.087
 5192SOL    HW127607   4.784   2.899   0.005
 5192SOL    HW227608   4.888   2.790   0.068
 5193SOL     OW27609   5.585   3.431   0.851
 5193SOL    HW127610   5.514   3.419   0.781
 5193SOL    HW227611   5.586   3.352   0.911
 5194SOL     OW27612   3.803   3.102   0.653
 5194SOL    HW127613   3.802   3.055   0.741
 5194SOL    HW227614   3.885   3.074   0.602
 5195SOL     OW27615   4.396   3.253   1.624
 5195SOL    HW127616   4.318   3.203   1.662
 5195SOL    HW227617   4.393   3.348   1.655
 5196SOL     OW27618   5.548   2.054   1.227
 5196SOL    HW127619   5.544   1.964   1.271
 5196SOL    HW227620   5.551   2.043   1.128
 5197SOL     OW27621   4.152   2.286   0.520
 5197SOL    HW127622   4.182   2.214   0.458
 5197SOL    HW227623   4.113   2.246   0.603
 5198SOL     OW27624   5.429   3.349   1.104
 5198SOL    HW127625   5.336   3.324   1.077
 5198SOL    HW227626   5.455   3.299   1.186
 5199SOL     OW27627   4.041   2.409   1.280
 5199SOL    HW127628   4.079   2.350   1.352
 5199SOL    HW227629   4.081   2.383   1.192
 5200SOL     OW27630   4.536   3.448   0.687
 5200SOL    HW127631   4.568   3.458   0.593
 5200SOL    HW227632   4.457   3.386   0.689
 5201SOL     OW27633   5.148   2.076   1.112
 5201SOL    HW127634   5.200   2.011   1.167
 5201SOL    HW227635   5.099   2.139   1.173
 5202SOL     OW27636   4.725   1.896   1.154
 5202SOL    HW127637   4.662   1.824   1.123
 5202SOL    HW227638   4.818   1.860   1.154
 5203SOL     OW27639   4.494   3.192   0.301
 5203SOL    HW127640   4.448   3.105   0.318
 5203SOL    HW227641   4.585   3.189   0.342
 5204SOL     OW27642   4.342   3.429   1.284
 5204SOL    HW127643   4.337   3.511   1.341
 5204SOL    HW227644   4.431   3.426   1.239
 5205SOL     OW27645   5.076   1.914   0.168
 5205SOL    HW127646   5.111   1.873   0.084
 5205SOL    HW227647   4.986   1.876   0.188
 5206SOL     OW27648   5.024   2.315   0.691
 5206SOL    HW127649   4.965   2.395   0.695
 5206SOL    HW227650   5.039   2.280   0.784
 5207SOL     OW27651   5.317   2.083   0.882
 5207SOL    HW127652   5.233   2.082   0.936
 5207SOL    HW227653   5.319   2.166   0.826
 5208SOL     OW27654   3.763   2.939   0.300
 5208SOL    HW127655   3.862   2.928   0.291
 5208SOL    HW227656   3.723   2.853   0.332
 5209SOL     OW27657   4.599   3.508   0.337
 5209SOL    HW127658   4.522   3.473   0.283
 5209SOL    HW227659   4.567   3.579   0.399
 5210SOL     OW27660   5.279   3.373   2.565
 5210SOL    HW127661   5.222   3.357   2.646
 5210SOL    HW227662   5.220   3.383   2.485
 5211SOL     OW27663   4.492   3.006   2.885
 5211SOL    HW127664   4.414   3.023   2.945
 5211SOL    HW227665   4.526   3.093   2.849
 5212SOL     OW27666   4.574   2.660   3.685
 5212SOL    HW127667   4.570   2.736   3.750
 5212SOL    HW227668   4.596   2.696   3.594
 5213SOL     OW27669   4.410   3.023   3.665
 5213SOL    HW127670   4.470   3.102   3.679
 5213SOL    HW227671   4.324   3.054   3.624
 5214SOL     OW27672   3.954   3.296   2.400
 5214SOL    HW127673   3.928   3.392   2.400
 5214SOL    HW227674   3.883   3.242   2.445
 5215SOL     OW27675   3.964   2.953   2.748
 5215SOL    HW127676   3.978   2.869   2.800
 5215SOL    HW227677   3.909   3.017   2.803
 5216SOL     OW27678   4.344   3.648   3.301
 5216SOL    HW127679   4.252   3.631   3.336
 5216SOL    HW227680   4.372   3.740   3.327
 5217SOL     OW27681   5.318   1.976   3.342
 5217SOL    HW127682   5.300   2.043   3.270
 5217SOL    HW227683   5.315   2.022   3.431
 5218SOL     OW27684   3.846   2.505   2.425
 5218SOL    HW127685   3.801   2.417   2.442
 5218SOL    HW227686   3.845   2.559   2.509
 5219SOL     OW27687   5.413   2.784   2.474
 5219SOL    HW127688   5.508   2.755   2.482
 5219SOL    HW227689   5.405   2.849   2.399
 5220SOL     OW27690   5.365   2.970   2.294
 5220SOL    HW127691   5.451   2.972   2.242
 5220SOL    HW227692   5.379   3.017   2.382
 5221SOL     OW27693   3.921   2.838   3.126
 5221SOL    HW127694   4.010   2.793   3.112
 5221SOL    HW227695   3.848   2.773   3.107
 5222SOL     OW27696   5.005   2.207   2.806
 5222SOL    HW127697   4.919   2.157   2.793
 5222SOL    HW227698   5.067   2.153   2.862
 5223SOL     OW27699   5.300   3.524   2.169
 5223SOL    HW127700   5.389   3.570   2.172
 5223SOL    HW227701   5.279   3.500   2.074
 5224SOL     OW27702   5.118   2.331   3.536
 5224SOL    HW127703   5.098   2.374   3.624
 5224SOL    HW227704   5.196   2.269   3.545
 5225SOL     OW27705   5.443   2.447   3.693
 5225SOL    HW127706   5.417   2.536   3.657
 5225SOL    HW227707   5.441   2.379   3.620
 5226SOL     OW27708   4.045   2.805   2.104
 5226SOL    HW127709   4.127   2.844   2.062
 5226SOL    HW227710   4.018   2.723   2.055
 5227SOL     OW27711   4.835   3.638   2.099
 5227SOL    HW127712   4.775   3.576   2.149
 5227SOL    HW227713   4.866   3.594   2.014
 5228SOL     OW27714   5.124   1.969   2.288
 5228SOL    HW127715   5.100   1.932   2.198
 5228SOL    HW227716   5.223   1.985   2.292
 5229SOL     OW27717   4.505   2.126   3.611
 5229SOL    HW127718   4.572   2.065   3.654
 5229SOL    HW227719   4.432   2.145   3.676
 5230SOL     OW27720   4.646   2.365   2.761
 5230SOL    HW127721   4.621   2.356   2.665
 5230SOL    HW227722   4.694   2.283   2.792
 5231SOL     OW27723   4.183   3.014   2.603
 5231SOL    HW127724   4.112   2.987   2.668
 5231SOL    HW227725   4.157   2.986   2.510
 5232SOL     OW27726   4.251   2.118   2.190
 5232SOL    HW127727   4.278   2.059   2.115
 5232SOL    HW227728   4.251   2.213   2.159
 5233SOL     OW27729   4.639   1.951   3.264
 5233SOL    HW127730   4.664   1.931   3.169
 5233SOL    HW227731   4.711   2.007   3.306
 5234SOL     OW27732   4.704   2.978   3.581
 5234SOL    HW127733   4.605   2.984   3.591
 5234SOL    HW227734   4.727   2.898   3.525
 5235SOL     OW27735   5.306   2.501   2.334
 5235SOL    HW127736   5.275   2.562   2.407
 5235SOL    HW227737   5.356   2.553   2.265
 5236SOL     OW27738   4.078   3.372   3.191
 5236SOL    HW127739   4.057   3.328   3.104
 5236SOL    HW227740   4.175   3.398   3.194
 5237SOL     OW27741   4.737   1.967   3.632
 5237SOL    HW127742   4.743   2.052   3.580
 5237SOL    HW227743   4.769   1.891   3.575
 5238SOL     OW27744   4.031   1.925   2.480
 5238SOL    HW127745   4.020   2.019   2.513
 5238SOL    HW227746   4.026   1.862   2.557
 5239SOL     OW27747   4.704   3.435   3.562
 5239SOL    HW127748   4.684   3.479   3.474
 5239SOL    HW227749   4.743   3.344   3.546
 5240SOL     OW27750   3.976   3.426   3.606
 5240SOL    HW127751   3.946   3.483   3.682
 5240SOL    HW227752   3.969   3.329   3.632
 5241SOL     OW27753   4.654   3.540   3.327
 5241SOL    HW127754   4.630   3.522   3.232
 5241SOL    HW227755   4.684   3.634   3.337
 5242SOL     OW27756   3.883   2.999   3.328
 5242SOL    HW127757   3.905   2.938   3.404
 5242SOL    HW227758   3.893   2.950   3.242
 5243SOL     OW27759   3.807   3.120   2.884
 5243SOL    HW127760   3.802   3.119   2.984
 5243SOL    HW227761   3.724   3.079   2.846
 5244SOL     OW27762   4.412   3.524   3.578
 5244SOL    HW127763   4.356   3.605   3.587
 5244SOL    HW227764   4.464   3.528   3.492
 5245SOL     OW27765   4.396   3.478   2.016
 5245SOL    HW127766   4.405   3.488   1.917
 5245SOL    HW227767   4.356   3.389   2.037
 5246SOL     OW27768   5.374   3.582   3.256
 5246SOL    HW127769   5.427   3.592   3.172
 5246SOL    HW227770   5.347   3.672   3.290
 5247SOL     OW27771   4.640   2.772   2.153
 5247SOL    HW127772   4.703   2.810   2.085
 5247SOL    HW227773   4.680   2.689   2.192
 5248SOL     OW27774   5.338   3.154   3.151
 5248SOL    HW127775   5.398   3.157   3.231
 5248SOL    HW227776   5.263   3.218   3.164
 5249SOL     OW27777   4.763   2.960   2.558
 5249SOL    HW127778   4.693   2.913   2.612
 5249SOL    HW227779   4.822   2.892   2.515
 5250SOL     OW27780   4.396   2.065   3.351
 5250SOL    HW127781   4.486   2.049   3.311
 5250SOL    HW227782   4.404   2.070   3.450
 5251SOL     OW27783   3.799   2.207   1.895
 5251SOL    HW127784   3.707   2.179   1.866
 5251SOL    HW227785   3.830   2.284   1.839
 5252SOL     OW27786   5.164   2.718   3.260
 5252SOL    HW127787   5.107   2.770   3.197
 5252SOL    HW227788   5.260   2.730   3.236
 5253SOL     OW27789   4.337   2.704   3.293
 5253SOL    HW127790   4.393   2.785   3.276
 5253SOL    HW227791   4.396   2.624   3.296
 5254SOL     OW27792   5.217   3.629   2.821
 5254SOL    HW127793   5.250   3.693   2.752
 5254SOL    HW227794   5.283   3.623   2.896
 5255SOL     OW27795   4.114   3.603   3.422
 5255SOL    HW127796   4.023   3.644   3.420
 5255SOL    HW227797   4.107   3.509   3.454
 5256SOL     OW27798   4.318   2.607   2.514
 5256SOL    HW127799   4.368   2.692   2.495
 5256SOL    HW227800   4.230   2.609   2.466
 5257SOL     OW27801   5.501   2.204   3.504
 5257SOL    HW127802   5.484   2.235   3.410
 5257SOL    HW227803   5.417   2.167   3.542
 5258SOL     OW27804   4.807   2.846   1.949
 5258SOL    HW127805   4.784   2.899   1.867
 5258SOL    HW227806   4.888   2.790   1.930
 5259SOL     OW27807   3.945   3.176   3.706
 5259SOL    HW127808   3.880   3.103   3.685
 5259SOL    HW227809   3.949   3.190   3.804
 5260SOL     OW27810   4.152   2.286   2.382
 5260SOL    HW127811   4.182   2.214   2.320
 5260SOL    HW227812   4.113   2.246   2.465
 5261SOL     OW27813   5.148   2.076   2.974
 5261SOL    HW127814   5.200   2.011   3.029
 5261SOL    HW227815   5.099   2.139   3.035
 5262SOL     OW27816   4.342   3.429   3.146
 5262SOL    HW127817   4.337   3.511   3.203
 5262SOL    HW227818   4.431   3.426   3.101
 5263SOL     OW27819   5.076   1.914   2.030
 5263SOL    HW127820   5.111   1.873   1.946
 5263SOL    HW227821   4.986   1.876   2.050
 5264SOL     OW27822   3.763   2.939   2.162
 5264SOL    HW127823   3.862   2.928   2.153
 5264SOL    HW227824   3.723   2.853   2.194
 5265SOL     OW27825   4.599   3.508   2.199
 5265SOL    HW127826   4.522   3.473   2.145
 5265SOL    HW227827   4.567   3.579   2.261
 5266SOL     OW27828   3.954   2.490   3.837
 5266SOL    HW127829   3.861   2.488   3.874
 5266SOL    HW227830   3.955   2.451   3.745
 5267SOL     OW27831   3.743   2.230   4.371
 5267SOL    HW127832   3.661   2.273   4.410
 5267SOL    HW227833   3.715   2.157   4.308
 5268SOL     OW27834   5.479   2.469   3.955
 5268SOL    HW127835   5.467   2.456   3.856
 5268SOL    HW227836   5.449   2.388   4.004
 5269SOL     OW27837   4.409   2.874   4.389
 5269SOL    HW127838   4.478   2.858   4.459
 5269SOL    HW227839   4.336   2.931   4.427
 5270SOL     OW27840   4.162   2.254   5.223
 5270SOL    HW127841   4.244   2.198   5.232
 5270SOL    HW227842   4.081   2.196   5.227
 5271SOL     OW27843   3.955   3.575   4.207
 5271SOL    HW127844   3.989   3.652   4.261
 5271SOL    HW227845   3.999   3.575   4.117
 5272SOL     OW27846   5.566   3.629   4.083
 5272SOL    HW127847   5.620   3.600   4.163
 5272SOL    HW227848   5.596   3.719   4.054
 5273SOL     OW27849   3.751   3.458   3.841
 5273SOL    HW127850   3.732   3.362   3.862
 5273SOL    HW227851   3.718   3.516   3.916
 5274SOL     OW27852   3.837   2.599   5.321
 5274SOL    HW127853   3.925   2.586   5.366
 5274SOL    HW227854   3.824   2.696   5.299
 5275SOL     OW27855   4.337   3.227   4.450
 5275SOL    HW127856   4.288   3.140   4.459
 5275SOL    HW227857   4.314   3.270   4.363
 5276SOL     OW27858   5.017   3.090   5.147
 5276SOL    HW127859   5.054   3.017   5.089
 5276SOL    HW227860   5.069   3.095   5.232
 5277SOL     OW27861   4.533   1.866   4.226
 5277SOL    HW127862   4.573   1.957   4.217
 5277SOL    HW227863   4.433   1.874   4.232
 5278SOL     OW27864   4.041   2.113   5.525
 5278SOL    HW127865   4.112   2.184   5.531
 5278SOL    HW227866   3.953   2.152   5.553
 5279SOL     OW27867   4.715   2.272   4.966
 5279SOL    HW127868   4.638   2.306   5.020
 5279SOL    HW227869   4.681   2.221   4.887
 5280SOL     OW27870   3.854   3.683   5.295
 5280SOL    HW127871   3.844   3.668   5.394
 5280SOL    HW227872   3.768   3.719   5.259
 5281SOL     OW27873   4.589   2.210   3.919
 5281SOL    HW127874   4.648   2.273   3.870
 5281SOL    HW227875   4.608   2.116   3.890
 5282SOL     OW27876   4.274   2.058   4.609
 5282SOL    HW127877   4.269   2.053   4.709
 5282SOL    HW227878   4.276   2.154   4.580
 5283SOL     OW27879   5.519   2.928   4.597
 5283SOL    HW127880   5.457   2.913   4.521
 5283SOL    HW227881   5.467   2.939   4.682
 5284SOL     OW27882   4.045   2.805   3.966
 5284SOL    HW127883   4.127   2.844   3.924
 5284SOL    HW227884   4.018   2.723   3.917
 5285SOL     OW27885   5.356   3.239   3.805
 5285SOL    HW127886   5.324   3.333   3.795
 5285SOL    HW227887   5.280   3.176   3.793
 5286SOL     OW27888   5.124   1.969   4.150
 5286SOL    HW127889   5.100   1.932   4.060
 5286SOL    HW227890   5.223   1.985   4.154
 5287SOL     OW27891   4.338   1.984   3.841
 5287SOL    HW127892   4.436   1.962   3.848
 5287SOL    HW227893   4.307   1.967   3.748
 5288SOL     OW27894   4.505   2.126   5.473
 5288SOL    HW127895   4.572   2.065   5.516
 5288SOL    HW227896   4.432   2.145   5.538
 5289SOL     OW27897   4.612   3.376   4.919
 5289SOL    HW127898   4.589   3.351   4.825
 5289SOL    HW227899   4.673   3.307   4.958
 5290SOL     OW27900   5.075   2.452   5.157
 5290SOL    HW127901   5.103   2.409   5.242
 5290SOL    HW227902   5.100   2.548   5.158
 5291SOL     OW27903   4.527   3.264   4.648
 5291SOL    HW127904   4.617   3.278   4.606
 5291SOL    HW227905   4.456   3.266   4.577
 5292SOL     OW27906   4.800   2.545   5.188
 5292SOL    HW127907   4.720   2.484   5.191
 5292SOL    HW227908   4.881   2.492   5.164
 5293SOL     OW27909   4.756   2.411   3.740
 5293SOL    HW127910   4.715   2.493   3.701
 5293SOL    HW227911   4.820   2.437   3.813
 5294SOL     OW27912   3.802   2.418   5.110
 5294SOL    HW127913   3.894   2.417   5.069
 5294SOL    HW227914   3.796   2.492   5.177
 5295SOL     OW27915   4.741   1.901   4.477
 5295SOL    HW127916   4.669   1.906   4.408
 5295SOL    HW227917   4.717   1.832   4.546
 5296SOL     OW27918   5.153   3.035   4.591
 5296SOL    HW127919   5.098   2.951   4.584
 5296SOL    HW227920   5.179   3.064   4.499
 5297SOL     OW27921   5.581   2.695   4.101
 5297SOL    HW127922   5.623   2.631   4.165
 5297SOL    HW227923   5.543   2.644   4.023
 5298SOL     OW27924   4.212   3.247   3.898
 5298SOL    HW127925   4.125   3.232   3.945
 5298SOL    HW227926   4.195   3.273   3.803
 5299SOL     OW27927   5.114   2.437   3.802
 5299SOL    HW127928   5.060   2.416   3.883
 5299SOL    HW227929   5.205   2.396   3.811
 5300SOL     OW27930   5.362   2.961   4.803
 5300SOL    HW127931   5.367   3.042   4.862
 5300SOL    HW227932   5.276   2.963   4.752
 5301SOL     OW27933   4.704   2.978   5.443
 5301SOL    HW127934   4.605   2.984   5.453
 5301SOL    HW227935   4.727   2.898   5.387
 5302SOL     OW27936   4.998   2.248   4.986
 5302SOL    HW127937   5.019   2.322   5.050
 5302SOL    HW227938   4.909   2.265   4.943
 5303SOL     OW27939   4.737   1.967   5.494
 5303SOL    HW127940   4.743   2.052   5.442
 5303SOL    HW227941   4.769   1.891   5.437
 5304SOL     OW27942   4.228   1.912   5.464
 5304SOL    HW127943   4.186   1.855   5.394
 5304SOL    HW227944   4.162   1.981   5.496
 5305SOL     OW27945   4.297   2.732   4.753
 5305SOL    HW127946   4.341   2.821   4.744
 5305SOL    HW227947   4.234   2.732   4.830
 5306SOL     OW27948   4.933   2.387   3.999
 5306SOL    HW127949   4.946   2.303   4.053
 5306SOL    HW227950   4.904   2.461   4.059
 5307SOL     OW27951   4.031   2.075   4.955
 5307SOL    HW127952   4.008   2.112   5.045
 5307SOL    HW227953   4.001   1.980   4.949
 5308SOL     OW27954   4.456   2.496   4.788
 5308SOL    HW127955   4.515   2.470   4.712
 5308SOL    HW227956   4.428   2.592   4.777
 5309SOL     OW27957   5.452   2.797   5.578
 5309SOL    HW127958   5.406   2.790   5.489
 5309SOL    HW227959   5.390   2.841   5.644
 5310SOL     OW27960   4.031   1.925   4.342
 5310SOL    HW127961   4.020   2.019   4.375
 5310SOL    HW227962   4.026   1.862   4.419
 5311SOL     OW27963   4.747   2.628   4.690
 5311SOL    HW127964   4.762   2.649   4.786
 5311SOL    HW227965   4.717   2.533   4.681
 5312SOL     OW27966   4.704   3.435   5.424
 5312SOL    HW127967   4.684   3.479   5.336
 5312SOL    HW227968   4.743   3.344   5.408
 5313SOL     OW27969   5.583   3.380   5.329
 5313SOL    HW127970   5.597   3.407   5.234
 5313SOL    HW227971   5.666   3.402   5.382
 5314SOL     OW27972   5.264   2.136   3.849
 5314SOL    HW127973   5.203   2.061   3.872
 5314SOL    HW227974   5.286   2.188   3.932
 5315SOL     OW27975   5.027   2.700   3.766
 5315SOL    HW127976   5.061   2.607   3.781
 5315SOL    HW227977   5.045   2.727   3.671
 5316SOL     OW27978   3.913   2.382   5.446
 5316SOL    HW127979   3.972   2.342   5.376
 5316SOL    HW227980   3.855   2.453   5.405
 5317SOL     OW27981   4.539   2.434   4.049
 5317SOL    HW127982   4.546   2.345   4.003
 5317SOL    HW227983   4.445   2.468   4.041
 5318SOL     OW27984   5.381   2.466   4.930
 5318SOL    HW127985   5.343   2.397   4.992
 5318SOL    HW227986   5.463   2.430   4.886
 5319SOL     OW27987   3.976   3.426   5.468
 5319SOL    HW127988   3.946   3.483   5.544
 5319SOL    HW227989   3.969   3.329   5.494
 5320SOL     OW27990   4.395   2.326   4.993
 5320SOL    HW127991   4.361   2.237   4.963
 5320SOL    HW227992   4.421   2.380   4.913
 5321SOL     OW27993   5.450   1.997   4.247
 5321SOL    HW127994   5.523   1.980   4.180
 5321SOL    HW227995   5.419   1.910   4.285
 5322SOL     OW27996   5.112   3.435   4.201
 5322SOL    HW127997   5.179   3.447   4.127
 5322SOL    HW227998   5.072   3.524   4.224
 5323SOL     OW27999   5.374   3.582   5.118
 5323SOL    HW128000   5.427   3.592   5.034
 5323SOL    HW228001   5.347   3.672   5.152
 5324SOL     OW28002   5.565   2.037   4.687
 5324SOL    HW128003   5.604   1.952   4.651
 5324SOL    HW228004   5.467   2.039   4.668
 5325SOL     OW28005   3.987   2.188   4.444
 5325SOL    HW128006   3.908   2.239   4.410
 5325SOL    HW228007   3.978   2.173   4.542
 5326SOL     OW28008   4.096   3.150   5.214
 5326SOL    HW128009   4.083   3.243   5.180
 5326SOL    HW228010   4.012   3.098   5.201
 5327SOL     OW28011   3.829   2.875   5.450
 5327SOL    HW128012   3.752   2.842   5.504
 5327SOL    HW228013   3.914   2.845   5.492
 5328SOL     OW28014   3.799   2.207   3.757
 5328SOL    HW128015   3.707   2.179   3.728
 5328SOL    HW228016   3.830   2.284   3.701
 5329SOL     OW28017   3.796   2.028   4.042
 5329SOL    HW128018   3.779   2.111   3.988
 5329SOL    HW228019   3.886   1.991   4.020
 5330SOL     OW28020   4.907   3.197   3.843
 5330SOL    HW128021   4.808   3.186   3.845
 5330SOL    HW228022   4.941   3.212   3.936
 5331SOL     OW28023   4.807   2.846   3.811
 5331SOL    HW128024   4.784   2.899   3.729
 5331SOL    HW228025   4.888   2.790   3.792
 5332SOL     OW28026   4.041   2.409   5.004
 5332SOL    HW128027   4.079   2.350   5.076
 5332SOL    HW228028   4.081   2.383   4.916
 5333SOL     OW28029   5.148   2.076   4.836
 5333SOL    HW128030   5.200   2.011   4.891
 5333SOL    HW228031   5.099   2.139   4.897
 5334SOL     OW28032   5.076   1.914   3.892
 5334SOL    HW128033   5.111   1.873   3.808
 5334SOL    HW228034   4.986   1.876   3.912
 5335SOL     OW28035   5.024   2.315   4.415
 5335SOL    HW128036   4.965   2.395   4.419
 5335SOL    HW228037   5.039   2.280   4.508
 5336SOL     OW28038   3.954   2.490   5.699
 5336SOL    HW128039   3.861   2.488   5.736
 5336SOL    HW228040   3.955   2.451   5.607
 5337SOL     OW28041   3.949   2.137   6.582
 5337SOL    HW128042   3.984   2.120   6.674
 5337SOL    HW228043   3.861   2.092   6.570
 5338SOL     OW28044   3.743   2.230   6.233
 5338SOL    HW128045   3.661   2.273   6.272
 5338SOL    HW228046   3.715   2.157   6.170
 5339SOL     OW28047   4.293   3.137   6.751
 5339SOL    HW128048   4.200   3.130   6.714
 5339SOL    HW228049   4.304   3.226   6.795
 5340SOL     OW28050   5.279   3.373   6.289
 5340SOL    HW128051   5.222   3.357   6.370
 5340SOL    HW228052   5.220   3.383   6.209
 5341SOL     OW28053   4.859   2.565   6.303
 5341SOL    HW128054   4.916   2.643   6.278
 5341SOL    HW228055   4.799   2.591   6.379
 5342SOL     OW28056   4.492   3.006   6.609
 5342SOL    HW128057   4.414   3.023   6.669
 5342SOL    HW228058   4.526   3.093   6.573
 5343SOL     OW28059   4.409   2.874   6.251
 5343SOL    HW128060   4.478   2.858   6.321
 5343SOL    HW228061   4.336   2.931   6.289
 5344SOL     OW28062   4.059   3.297   6.647
 5344SOL    HW128063   3.981   3.266   6.594
 5344SOL    HW228064   4.117   3.355   6.590
 5345SOL     OW28065   4.162   2.254   7.085
 5345SOL    HW128066   4.244   2.198   7.094
 5345SOL    HW228067   4.081   2.196   7.089
 5346SOL     OW28068   5.327   2.309   6.323
 5346SOL    HW128069   5.253   2.355   6.273
 5346SOL    HW228070   5.378   2.377   6.376
 5347SOL     OW28071   3.955   3.575   6.069
 5347SOL    HW128072   3.989   3.652   6.123
 5347SOL    HW228073   3.999   3.575   5.979
 5348SOL     OW28074   3.954   3.296   6.124
 5348SOL    HW128075   3.928   3.392   6.124
 5348SOL    HW228076   3.883   3.242   6.169
 5349SOL     OW28077   3.964   2.953   6.472
 5349SOL    HW128078   3.978   2.869   6.524
 5349SOL    HW228079   3.909   3.017   6.527
 5350SOL     OW28080   4.344   3.648   7.025
 5350SOL    HW128081   4.252   3.631   7.060
 5350SOL    HW228082   4.372   3.740   7.051
 5351SOL     OW28083   3.846   2.505   6.149
 5351SOL    HW128084   3.801   2.417   6.166
 5351SOL    HW228085   3.845   2.559   6.233
 5352SOL     OW28086   4.337   3.227   6.312
 5352SOL    HW128087   4.288   3.140   6.321
 5352SOL    HW228088   4.314   3.270   6.225
 5353SOL     OW28089   4.533   1.866   6.088
 5353SOL    HW128090   4.573   1.957   6.079
 5353SOL    HW228091   4.433   1.874   6.094
 5354SOL     OW28092   3.921   2.838   6.850
 5354SOL    HW128093   4.010   2.793   6.836
 5354SOL    HW228094   3.848   2.773   6.831
 5355SOL     OW28095   5.190   3.279   6.539
 5355SOL    HW128096   5.131   3.285   6.619
 5355SOL    HW228097   5.175   3.191   6.493
 5356SOL     OW28098   4.322   2.591   5.856
 5356SOL    HW128099   4.346   2.660   5.788
 5356SOL    HW228100   4.244   2.624   5.910
 5357SOL     OW28101   5.005   2.207   6.530
 5357SOL    HW128102   4.919   2.157   6.517
 5357SOL    HW228103   5.067   2.153   6.586
 5358SOL     OW28104   5.300   3.524   5.893
 5358SOL    HW128105   5.389   3.570   5.896
 5358SOL    HW228106   5.279   3.500   5.798
 5359SOL     OW28107   4.531   2.467   7.051
 5359SOL    HW128108   4.484   2.464   7.140
 5359SOL    HW228109   4.480   2.412   6.985
 5360SOL     OW28110   4.715   2.272   6.828
 5360SOL    HW128111   4.638   2.306   6.882
 5360SOL    HW228112   4.681   2.221   6.749
 5361SOL     OW28113   4.765   2.563   6.015
 5361SOL    HW128114   4.791   2.559   6.111
 5361SOL    HW228115   4.680   2.512   6.001
 5362SOL     OW28116   3.800   2.673   6.375
 5362SOL    HW128117   3.899   2.661   6.384
 5362SOL    HW228118   3.776   2.768   6.396
 5363SOL     OW28119   3.854   3.683   7.157
 5363SOL    HW128120   3.844   3.668   7.256
 5363SOL    HW228121   3.768   3.719   7.121
 5364SOL     OW28122   4.589   2.210   5.781
 5364SOL    HW128123   4.648   2.273   5.732
 5364SOL    HW228124   4.608   2.116   5.752
 5365SOL     OW28125   4.274   2.058   6.471
 5365SOL    HW128126   4.269   2.053   6.571
 5365SOL    HW228127   4.276   2.154   6.442
 5366SOL     OW28128   4.732   3.318   6.063
 5366SOL    HW128129   4.686   3.390   6.011
 5366SOL    HW228130   4.728   3.338   6.161
 5367SOL     OW28131   4.075   3.663   6.439
 5367SOL    HW128132   4.125   3.577   6.445
 5367SOL    HW228133   4.140   3.740   6.436
 5368SOL     OW28134   5.519   2.928   6.459
 5368SOL    HW128135   5.457   2.913   6.383
 5368SOL    HW228136   5.467   2.939   6.544
 5369SOL     OW28137   3.973   3.647   6.827
 5369SOL    HW128138   4.030   3.582   6.877
 5369SOL    HW228139   3.957   3.614   6.734
 5370SOL     OW28140   4.664   3.560   6.490
 5370SOL    HW128141   4.744   3.503   6.511
 5370SOL    HW228142   4.615   3.520   6.413
 5371SOL     OW28143   4.106   2.562   6.066
 5371SOL    HW128144   4.151   2.472   6.063
 5371SOL    HW228145   4.012   2.551   6.099
 5372SOL     OW28146   4.338   1.984   5.703
 5372SOL    HW128147   4.436   1.962   5.710
 5372SOL    HW228148   4.307   1.967   5.610
 5373SOL     OW28149   4.612   3.376   6.781
 5373SOL    HW128150   4.589   3.351   6.687
 5373SOL    HW228151   4.673   3.307   6.820
 5374SOL     OW28152   4.527   3.264   6.510
 5374SOL    HW128153   4.617   3.278   6.468
 5374SOL    HW228154   4.456   3.266   6.439
 5375SOL     OW28155   4.646   2.365   6.485
 5375SOL    HW128156   4.621   2.356   6.389
 5375SOL    HW228157   4.694   2.283   6.516
 5376SOL     OW28158   4.263   1.926   6.098
 5376SOL    HW128159   4.182   1.927   6.156
 5376SOL    HW228160   4.266   2.009   6.043
 5377SOL     OW28161   4.021   1.897   5.757
 5377SOL    HW128162   4.070   1.981   5.736
 5377SOL    HW228163   4.083   1.832   5.802
 5378SOL     OW28164   4.659   2.098   6.066
 5378SOL    HW128165   4.611   2.139   5.988
 5378SOL    HW228166   4.758   2.096   6.047
 5379SOL     OW28167   4.951   3.432   6.379
 5379SOL    HW128168   4.972   3.506   6.314
 5379SOL    HW228169   5.019   3.432   6.452
 5380SOL     OW28170   4.183   3.014   6.327
 5380SOL    HW128171   4.112   2.987   6.392
 5380SOL    HW228172   4.157   2.986   6.234
 5381SOL     OW28173   4.995   3.659   6.177
 5381SOL    HW128174   5.039   3.723   6.113
 5381SOL    HW228175   4.945   3.711   6.247
 5382SOL     OW28176   4.285   2.084   6.733
 5382SOL    HW128177   4.323   2.000   6.770
 5382SOL    HW228178   4.197   2.103   6.777
 5383SOL     OW28179   4.590   2.316   6.228
 5383SOL    HW128180   4.558   2.388   6.166
 5383SOL    HW228181   4.614   2.235   6.175
 5384SOL     OW28182   4.741   1.901   6.339
 5384SOL    HW128183   4.669   1.906   6.270
 5384SOL    HW228184   4.717   1.832   6.408
 5385SOL     OW28185   5.153   3.035   6.453
 5385SOL    HW128186   5.098   2.951   6.446
 5385SOL    HW228187   5.179   3.064   6.361
 5386SOL     OW28188   5.190   2.452   6.578
 5386SOL    HW128189   5.160   2.357   6.585
 5386SOL    HW228190   5.263   2.468   6.644
 5387SOL     OW28191   4.212   3.247   5.760
 5387SOL    HW128192   4.125   3.232   5.807
 5387SOL    HW228193   4.195   3.273   5.665
 5388SOL     OW28194   4.251   2.118   5.914
 5388SOL    HW128195   4.278   2.059   5.839
 5388SOL    HW228196   4.251   2.213   5.883
 5389SOL     OW28197   4.788   3.209   6.926
 5389SOL    HW128198   4.708   3.186   6.981
 5389SOL    HW228199   4.871   3.183   6.975
 5390SOL     OW28200   4.835   3.057   6.686
 5390SOL    HW128201   4.795   3.101   6.767
 5390SOL    HW228202   4.794   3.094   6.603
 5391SOL     OW28203   5.362   2.961   6.665
 5391SOL    HW128204   5.367   3.042   6.724
 5391SOL    HW228205   5.276   2.963   6.614
 5392SOL     OW28206   4.429   2.912   5.954
 5392SOL    HW128207   4.415   2.919   6.053
 5392SOL    HW228208   4.513   2.861   5.936
 5393SOL     OW28209   4.134   2.675   6.837
 5393SOL    HW128210   4.220   2.687   6.887
 5393SOL    HW228211   4.092   2.588   6.864
 5394SOL     OW28212   4.998   2.248   6.848
 5394SOL    HW128213   5.019   2.322   6.912
 5394SOL    HW228214   4.909   2.265   6.805
 5395SOL     OW28215   3.788   3.426   6.917
 5395SOL    HW128216   3.742   3.508   6.883
 5395SOL    HW228217   3.886   3.445   6.926
 5396SOL     OW28218   4.091   2.962   6.087
 5396SOL    HW128219   4.084   3.045   6.031
 5396SOL    HW228220   4.095   2.882   6.027
 5397SOL     OW28221   4.290   2.399   6.451
 5397SOL    HW128222   4.302   2.465   6.377
 5397SOL    HW228223   4.336   2.433   6.534
 5398SOL     OW28224   4.976   3.210   5.974
 5398SOL    HW128225   5.026   3.287   6.014
 5398SOL    HW228226   4.881   3.212   6.006
 5399SOL     OW28227   4.996   3.307   6.728
 5399SOL    HW128228   5.043   3.320   6.815
 5399SOL    HW228229   4.930   3.233   6.737
 5400SOL     OW28230   4.078   3.372   6.915
 5400SOL    HW128231   4.057   3.328   6.828
 5400SOL    HW228232   4.175   3.398   6.918
 5401SOL     OW28233   4.228   1.912   7.326
 5401SOL    HW128234   4.186   1.855   7.256
 5401SOL    HW228235   4.162   1.981   7.358
 5402SOL     OW28236   4.297   2.732   6.615
 5402SOL    HW128237   4.341   2.821   6.606
 5402SOL    HW228238   4.234   2.732   6.692
 5403SOL     OW28239   5.084   2.724   6.631
 5403SOL    HW128240   5.009   2.724   6.565
 5403SOL    HW228241   5.121   2.632   6.640
 5404SOL     OW28242   4.031   2.075   6.817
 5404SOL    HW128243   4.008   2.112   6.907
 5404SOL    HW228244   4.001   1.980   6.811
 5405SOL     OW28245   3.761   3.172   6.868
 5405SOL    HW128246   3.814   3.123   6.936
 5405SOL    HW228247   3.783   3.270   6.873
 5406SOL     OW28248   4.456   2.496   6.650
 5406SOL    HW128249   4.515   2.470   6.574
 5406SOL    HW228250   4.428   2.592   6.639
 5407SOL     OW28251   4.031   1.925   6.204
 5407SOL    HW128252   4.020   2.019   6.237
 5407SOL    HW228253   4.026   1.862   6.281
 5408SOL     OW28254   5.346   2.229   5.960
 5408SOL    HW128255   5.348   2.153   6.024
 5408SOL    HW228256   5.298   2.306   6.000
 5409SOL     OW28257   4.747   2.628   6.552
 5409SOL    HW128258   4.762   2.649   6.648
 5409SOL    HW228259   4.717   2.533   6.543
 5410SOL     OW28260   5.264   2.136   5.711
 5410SOL    HW128261   5.203   2.061   5.734
 5410SOL    HW228262   5.286   2.188   5.794
 5411SOL     OW28263   4.792   3.195   6.435
 5411SOL    HW128264   4.799   3.111   6.380
 5411SOL    HW228265   4.854   3.264   6.399
 5412SOL     OW28266   4.043   2.672   6.535
 5412SOL    HW128267   4.136   2.708   6.540
 5412SOL    HW228268   4.037   2.587   6.587
 5413SOL     OW28269   4.063   2.371   6.592
 5413SOL    HW128270   4.011   2.288   6.575
 5413SOL    HW228271   4.140   2.376   6.528
 5414SOL     OW28272   4.884   2.069   7.063
 5414SOL    HW128273   4.884   2.133   7.140
 5414SOL    HW228274   4.912   2.117   6.980
 5415SOL     OW28275   3.812   3.663   6.513
 5415SOL    HW128276   3.770   3.577   6.486
 5415SOL    HW228277   3.906   3.666   6.479
 5416SOL     OW28278   4.228   3.430   6.496
 5416SOL    HW128279   4.294   3.504   6.505
 5416SOL    HW228280   4.272   3.351   6.454
 5417SOL     OW28281   4.726   2.658   6.824
 5417SOL    HW128282   4.767   2.626   6.910
 5417SOL    HW228283   4.630   2.631   6.821
 5418SOL     OW28284   3.764   2.406   6.700
 5418SOL    HW128285   3.849   2.373   6.659
 5418SOL    HW228286   3.777   2.421   6.798
 5419SOL     OW28287   4.539   2.434   5.911
 5419SOL    HW128288   4.546   2.345   5.865
 5419SOL    HW228289   4.445   2.468   5.903
 5420SOL     OW28290   5.381   2.466   6.792
 5420SOL    HW128291   5.343   2.397   6.854
 5420SOL    HW228292   5.463   2.430   6.748
 5421SOL     OW28293   4.395   2.326   6.855
 5421SOL    HW128294   4.361   2.237   6.825
 5421SOL    HW228295   4.421   2.380   6.775
 5422SOL     OW28296   4.654   3.540   7.051
 5422SOL    HW128297   4.630   3.522   6.956
 5422SOL    HW228298   4.684   3.634   7.061
 5423SOL     OW28299   4.197   2.362   5.777
 5423SOL    HW128300   4.258   2.442   5.781
 5423SOL    HW228301   4.102   2.393   5.784
 5424SOL     OW28302   3.883   2.999   7.052
 5424SOL    HW128303   3.905   2.938   7.128
 5424SOL    HW228304   3.893   2.950   6.966
 5425SOL     OW28305   5.071   2.921   6.820
 5425SOL    HW128306   5.095   2.858   6.746
 5425SOL    HW228307   4.981   2.961   6.802
 5426SOL     OW28308   5.483   3.609   6.740
 5426SOL    HW128309   5.544   3.639   6.667
 5426SOL    HW228310   5.445   3.520   6.718
 5427SOL     OW28311   4.976   3.593   6.714
 5427SOL    HW128312   5.060   3.598   6.660
 5427SOL    HW228313   4.953   3.497   6.732
 5428SOL     OW28314   3.807   3.120   6.608
 5428SOL    HW128315   3.802   3.119   6.708
 5428SOL    HW228316   3.724   3.079   6.570
 5429SOL     OW28317   5.112   3.435   6.063
 5429SOL    HW128318   5.179   3.447   5.989
 5429SOL    HW228319   5.072   3.524   6.086
 5430SOL     OW28320   5.565   2.037   6.549
 5430SOL    HW128321   5.604   1.952   6.513
 5430SOL    HW228322   5.467   2.039   6.530
 5431SOL     OW28323   3.987   2.188   6.306
 5431SOL    HW128324   3.908   2.239   6.272
 5431SOL    HW228325   3.978   2.173   6.404
 5432SOL     OW28326   4.546   2.864   6.958
 5432SOL    HW128327   4.586   2.863   6.866
 5432SOL    HW228328   4.556   2.956   6.998
 5433SOL     OW28329   4.096   3.150   7.076
 5433SOL    HW128330   4.083   3.243   7.042
 5433SOL    HW228331   4.012   3.098   7.063
 5434SOL     OW28332   5.338   3.154   6.875
 5434SOL    HW128333   5.398   3.157   6.955
 5434SOL    HW228334   5.263   3.218   6.888
 5435SOL     OW28335   4.763   2.960   6.282
 5435SOL    HW128336   4.693   2.913   6.336
 5435SOL    HW228337   4.822   2.892   6.239
 5436SOL     OW28338   4.738   2.098   6.557
 5436SOL    HW128339   4.730   2.062   6.464
 5436SOL    HW228340   4.736   2.022   6.622
 5437SOL     OW28341   4.314   3.349   6.077
 5437SOL    HW128342   4.356   3.291   6.007
 5437SOL    HW228343   4.270   3.428   6.033
 5438SOL     OW28344   5.433   2.247   6.967
 5438SOL    HW128345   5.506   2.316   6.971
 5438SOL    HW228346   5.461   2.172   6.908
 5439SOL     OW28347   3.979   3.210   5.876
 5439SOL    HW128348   3.883   3.211   5.849
 5439SOL    HW228349   3.991   3.263   5.960
 5440SOL     OW28350   4.396   2.065   7.075
 5440SOL    HW128351   4.486   2.049   7.035
 5440SOL    HW228352   4.404   2.070   7.174
 5441SOL     OW28353   3.799   2.207   5.619
 5441SOL    HW128354   3.707   2.179   5.590
 5441SOL    HW228355   3.830   2.284   5.563
 5442SOL     OW28356   3.796   2.028   5.904
 5442SOL    HW128357   3.779   2.111   5.850
 5442SOL    HW228358   3.886   1.991   5.882
 5443SOL     OW28359   4.337   2.704   7.017
 5443SOL    HW128360   4.393   2.785   7.000
 5443SOL    HW228361   4.396   2.624   7.020
 5444SOL     OW28362   5.217   3.629   6.545
 5444SOL    HW128363   5.250   3.693   6.476
 5444SOL    HW228364   5.283   3.623   6.620
 5445SOL     OW28365   4.114   3.603   7.146
 5445SOL    HW128366   4.023   3.644   7.144
 5445SOL    HW228367   4.107   3.509   7.178
 5446SOL     OW28368   5.398   2.745   6.840
 5446SOL    HW128369   5.371   2.656   6.803
 5446SOL    HW228370   5.399   2.813   6.767
 5447SOL     OW28371   4.949   2.187   6.035
 5447SOL    HW128372   5.014   2.113   6.024
 5447SOL    HW228373   4.969   2.237   6.119
 5448SOL     OW28374   4.318   2.607   6.238
 5448SOL    HW128375   4.368   2.692   6.219
 5448SOL    HW228376   4.230   2.609   6.190
 5449SOL     OW28377   5.454   2.796   7.103
 5449SOL    HW128378   5.492   2.887   7.118
 5449SOL    HW228379   5.446   2.779   7.004
 5450SOL     OW28380   4.385   3.652   6.539
 5450SOL    HW128381   4.339   3.740   6.526
 5450SOL    HW228382   4.484   3.664   6.532
 5451SOL     OW28383   4.583   2.818   6.447
 5451SOL    HW128384   4.637   2.749   6.495
 5451SOL    HW228385   4.551   2.887   6.513
 5452SOL     OW28386   5.585   3.431   6.437
 5452SOL    HW128387   5.514   3.419   6.367
 5452SOL    HW228388   5.586   3.352   6.497
 5453SOL     OW28389   3.803   3.102   6.239
 5453SOL    HW128390   3.802   3.055   6.327
 5453SOL    HW228391   3.885   3.074   6.188
 5454SOL     OW28392   5.548   2.054   6.813
 5454SOL    HW128393   5.544   1.964   6.857
 5454SOL    HW228394   5.551   2.043   6.714
 5455SOL     OW28395   4.152   2.286   6.106
 5455SOL    HW128396   4.182   2.214   6.044
 5455SOL    HW228397   4.113   2.246   6.189
 5456SOL     OW28398   5.429   3.349   6.690
 5456SOL    HW128399   5.336   3.324   6.663
 5456SOL    HW228400   5.455   3.299   6.772
 5457SOL     OW28401   4.041   2.409   6.866
 5457SOL    HW128402   4.079   2.350   6.938
 5457SOL    HW228403   4.081   2.383   6.778
 5458SOL     OW28404   4.536   3.448   6.273
 5458SOL    HW128405   4.568   3.458   6.179
 5458SOL    HW228406   4.457   3.386   6.275
 5459SOL     OW28407   5.148   2.076   6.698
 5459SOL    HW128408   5.200   2.011   6.753
 5459SOL    HW228409   5.099   2.139   6.759
 5460SOL     OW28410   4.725   1.896   6.740
 5460SOL    HW128411   4.662   1.824   6.709
 5460SOL    HW228412   4.818   1.860   6.740
 5461SOL     OW28413   4.494   3.192   5.887
 5461SOL    HW128414   4.448   3.105   5.904
 5461SOL    HW228415   4.585   3.189   5.928
 5462SOL     OW28416   4.342   3.429   6.870
 5462SOL    HW128417   4.337   3.511   6.927
 5462SOL    HW228418   4.431   3.426   6.825
 5463SOL     OW28419   5.024   2.315   6.277
 5463SOL    HW128420   4.965   2.395   6.281
 5463SOL    HW228421   5.039   2.280   6.370
 5464SOL     OW28422   5.317   2.083   6.468
 5464SOL    HW128423   5.233   2.082   6.522
 5464SOL    HW228424   5.319   2.166   6.412
 5465SOL     OW28425   3.954   4.352   0.113
 5465SOL    HW128426   3.861   4.350   0.150
 5465SOL    HW228427   3.955   4.313   0.021
 5466SOL     OW28428   3.949   3.999   0.996
 5466SOL    HW128429   3.984   3.982   1.088
 5466SOL    HW228430   3.861   3.954   0.984
 5467SOL     OW28431   3.743   4.092   0.647
 5467SOL    HW128432   3.661   4.135   0.686
 5467SOL    HW228433   3.715   4.019   0.584
 5468SOL     OW28434   4.293   4.999   1.165
 5468SOL    HW128435   4.200   4.992   1.128
 5468SOL    HW228436   4.304   5.088   1.209
 5469SOL     OW28437   5.279   5.235   0.703
 5469SOL    HW128438   5.222   5.219   0.784
 5469SOL    HW228439   5.220   5.245   0.623
 5470SOL     OW28440   4.859   4.427   0.717
 5470SOL    HW128441   4.916   4.505   0.692
 5470SOL    HW228442   4.799   4.453   0.793
 5471SOL     OW28443   5.479   4.331   0.231
 5471SOL    HW128444   5.467   4.318   0.132
 5471SOL    HW228445   5.449   4.250   0.280
 5472SOL     OW28446   4.492   4.868   1.023
 5472SOL    HW128447   4.414   4.885   1.083
 5472SOL    HW228448   4.526   4.955   0.987
 5473SOL     OW28449   4.409   4.736   0.665
 5473SOL    HW128450   4.478   4.720   0.735
 5473SOL    HW228451   4.336   4.793   0.703
 5474SOL     OW28452   4.410   4.885   1.803
 5474SOL    HW128453   4.470   4.964   1.817
 5474SOL    HW228454   4.324   4.916   1.762
 5475SOL     OW28455   4.059   5.159   1.061
 5475SOL    HW128456   3.981   5.128   1.008
 5475SOL    HW228457   4.117   5.217   1.004
 5476SOL     OW28458   5.184   5.229   1.339
 5476SOL    HW128459   5.208   5.323   1.365
 5476SOL    HW228460   5.168   5.175   1.421
 5477SOL     OW28461   4.162   4.116   1.499
 5477SOL    HW128462   4.244   4.060   1.508
 5477SOL    HW228463   4.081   4.058   1.503
 5478SOL     OW28464   5.327   4.171   0.737
 5478SOL    HW128465   5.253   4.217   0.687
 5478SOL    HW228466   5.378   4.239   0.790
 5479SOL     OW28467   3.955   5.437   0.483
 5479SOL    HW128468   3.989   5.514   0.537
 5479SOL    HW228469   3.999   5.437   0.393
 5480SOL     OW28470   3.954   5.158   0.538
 5480SOL    HW128471   3.928   5.254   0.538
 5480SOL    HW228472   3.883   5.104   0.583
 5481SOL     OW28473   3.964   4.815   0.886
 5481SOL    HW128474   3.978   4.731   0.938
 5481SOL    HW228475   3.909   4.879   0.941
 5482SOL     OW28476   4.344   5.510   1.439
 5482SOL    HW128477   4.252   5.493   1.474
 5482SOL    HW228478   4.372   5.602   1.465
 5483SOL     OW28479   4.330   4.688   0.123
 5483SOL    HW128480   4.337   4.772   0.069
 5483SOL    HW228481   4.376   4.701   0.211
 5484SOL     OW28482   3.846   4.367   0.563
 5484SOL    HW128483   3.801   4.279   0.580
 5484SOL    HW228484   3.845   4.421   0.647
 5485SOL     OW28485   5.566   5.491   0.359
 5485SOL    HW128486   5.620   5.462   0.439
 5485SOL    HW228487   5.596   5.581   0.330
 5486SOL     OW28488   3.751   5.320   0.117
 5486SOL    HW128489   3.732   5.224   0.138
 5486SOL    HW228490   3.718   5.378   0.192
 5487SOL     OW28491   5.413   4.646   0.612
 5487SOL    HW128492   5.508   4.617   0.620
 5487SOL    HW228493   5.405   4.711   0.537
 5488SOL     OW28494   5.365   4.832   0.432
 5488SOL    HW128495   5.451   4.834   0.380
 5488SOL    HW228496   5.379   4.879   0.520
 5489SOL     OW28497   3.837   4.461   1.597
 5489SOL    HW128498   3.925   4.448   1.642
 5489SOL    HW228499   3.824   4.558   1.575
 5490SOL     OW28500   4.337   5.089   0.726
 5490SOL    HW128501   4.288   5.002   0.735
 5490SOL    HW228502   4.314   5.132   0.639
 5491SOL     OW28503   5.017   4.952   1.423
 5491SOL    HW128504   5.054   4.879   1.365
 5491SOL    HW228505   5.069   4.957   1.508
 5492SOL     OW28506   4.533   3.728   0.502
 5492SOL    HW128507   4.573   3.819   0.493
 5492SOL    HW228508   4.433   3.736   0.508
 5493SOL     OW28509   3.921   4.700   1.264
 5493SOL    HW128510   4.010   4.655   1.250
 5493SOL    HW228511   3.848   4.635   1.245
 5494SOL     OW28512   5.249   4.723   0.190
 5494SOL    HW128513   5.186   4.647   0.203
 5494SOL    HW228514   5.297   4.741   0.276
 5495SOL     OW28515   4.911   5.516   1.616
 5495SOL    HW128516   4.935   5.576   1.540
 5495SOL    HW228517   4.918   5.421   1.586
 5496SOL     OW28518   5.190   5.141   0.953
 5496SOL    HW128519   5.131   5.147   1.033
 5496SOL    HW228520   5.175   5.053   0.907
 5497SOL     OW28521   5.391   5.438   0.572
 5497SOL    HW128522   5.350   5.415   0.484
 5497SOL    HW228523   5.373   5.364   0.637
 5498SOL     OW28524   4.322   4.453   0.270
 5498SOL    HW128525   4.346   4.522   0.202
 5498SOL    HW228526   4.244   4.486   0.324
 5499SOL     OW28527   5.005   4.069   0.944
 5499SOL    HW128528   4.919   4.019   0.931
 5499SOL    HW228529   5.067   4.015   1.000
 5500SOL     OW28530   5.300   5.386   0.307
 5500SOL    HW128531   5.389   5.432   0.310
 5500SOL    HW228532   5.279   5.362   0.212
 5501SOL     OW28533   4.697   4.614   1.572
 5501SOL    HW128534   4.743   4.530   1.543
 5501SOL    HW228535   4.641   4.648   1.497
 5502SOL     OW28536   4.715   4.134   1.242
 5502SOL    HW128537   4.638   4.168   1.296
 5502SOL    HW228538   4.681   4.083   1.163
 5503SOL     OW28539   4.765   4.425   0.429
 5503SOL    HW128540   4.791   4.421   0.525
 5503SOL    HW228541   4.680   4.374   0.415
 5504SOL     OW28542   3.800   4.535   0.789
 5504SOL    HW128543   3.899   4.523   0.798
 5504SOL    HW228544   3.776   4.630   0.810
 5505SOL     OW28545   3.854   5.545   1.571
 5505SOL    HW128546   3.844   5.530   1.670
 5505SOL    HW228547   3.768   5.581   1.535
 5506SOL     OW28548   4.589   4.072   0.195
 5506SOL    HW128549   4.648   4.135   0.146
 5506SOL    HW228550   4.608   3.978   0.166
 5507SOL     OW28551   5.086   4.868   0.545
 5507SOL    HW128552   5.169   4.839   0.497
 5507SOL    HW228553   5.037   4.935   0.489
 5508SOL     OW28554   4.274   3.920   0.885
 5508SOL    HW128555   4.269   3.915   0.985
 5508SOL    HW228556   4.276   4.016   0.856
 5509SOL     OW28557   4.732   5.180   0.477
 5509SOL    HW128558   4.686   5.252   0.425
 5509SOL    HW228559   4.728   5.200   0.575
 5510SOL     OW28560   4.075   5.525   0.853
 5510SOL    HW128561   4.125   5.439   0.859
 5510SOL    HW228562   4.140   5.602   0.850
 5511SOL     OW28563   5.519   4.790   0.873
 5511SOL    HW128564   5.457   4.775   0.797
 5511SOL    HW228565   5.467   4.801   0.958
 5512SOL     OW28566   4.951   5.274   1.506
 5512SOL    HW128567   4.957   5.197   1.570
 5512SOL    HW228568   4.899   5.248   1.426
 5513SOL     OW28569   4.045   4.667   0.242
 5513SOL    HW128570   4.127   4.706   0.200
 5513SOL    HW228571   4.018   4.585   0.193
 5514SOL     OW28572   5.182   4.459   0.728
 5514SOL    HW128573   5.177   4.394   0.803
 5514SOL    HW228574   5.262   4.518   0.741
 5515SOL     OW28575   4.185   4.990   1.727
 5515SOL    HW128576   4.135   4.991   1.641
 5515SOL    HW228577   4.122   4.972   1.803
 5516SOL     OW28578   4.835   5.500   0.237
 5516SOL    HW128579   4.775   5.438   0.287
 5516SOL    HW228580   4.866   5.456   0.152
 5517SOL     OW28581   5.356   5.101   0.081
 5517SOL    HW128582   5.324   5.195   0.071
 5517SOL    HW228583   5.280   5.038   0.069
 5518SOL     OW28584   4.188   5.467   0.323
 5518SOL    HW128585   4.221   5.506   0.409
 5518SOL    HW228586   4.264   5.460   0.258
 5519SOL     OW28587   5.124   3.831   0.426
 5519SOL    HW128588   5.100   3.794   0.336
 5519SOL    HW228589   5.223   3.847   0.430
 5520SOL     OW28590   3.973   5.509   1.241
 5520SOL    HW128591   4.030   5.444   1.291
 5520SOL    HW228592   3.957   5.476   1.148
 5521SOL     OW28593   4.664   5.422   0.904
 5521SOL    HW128594   4.744   5.365   0.925
 5521SOL    HW228595   4.615   5.382   0.827
 5522SOL     OW28596   4.106   4.424   0.480
 5522SOL    HW128597   4.151   4.334   0.477
 5522SOL    HW228598   4.012   4.413   0.513
 5523SOL     OW28599   4.505   3.988   1.749
 5523SOL    HW128600   4.572   3.927   1.792
 5523SOL    HW228601   4.432   4.007   1.814
 5524SOL     OW28602   4.612   5.238   1.195
 5524SOL    HW128603   4.589   5.213   1.101
 5524SOL    HW228604   4.673   5.169   1.234
 5525SOL     OW28605   5.075   4.314   1.433
 5525SOL    HW128606   5.103   4.271   1.518
 5525SOL    HW228607   5.100   4.410   1.434
 5526SOL     OW28608   4.527   5.126   0.924
 5526SOL    HW128609   4.617   5.140   0.882
 5526SOL    HW228610   4.456   5.128   0.853
 5527SOL     OW28611   4.646   4.227   0.899
 5527SOL    HW128612   4.621   4.218   0.803
 5527SOL    HW228613   4.694   4.145   0.930
 5528SOL     OW28614   4.263   3.788   0.512
 5528SOL    HW128615   4.182   3.789   0.570
 5528SOL    HW228616   4.266   3.871   0.457
 5529SOL     OW28617   5.158   4.912   0.041
 5529SOL    HW128618   5.190   4.836   0.098
 5529SOL    HW228619   5.066   4.939   0.071
 5530SOL     OW28620   4.659   3.960   0.480
 5530SOL    HW128621   4.611   4.001   0.402
 5530SOL    HW228622   4.758   3.958   0.461
 5531SOL     OW28623   4.951   5.294   0.793
 5531SOL    HW128624   4.972   5.368   0.728
 5531SOL    HW228625   5.019   5.294   0.866
 5532SOL     OW28626   4.183   4.876   0.741
 5532SOL    HW128627   4.112   4.849   0.806
 5532SOL    HW228628   4.157   4.848   0.648
 5533SOL     OW28629   4.995   5.521   0.591
 5533SOL    HW128630   5.039   5.585   0.527
 5533SOL    HW228631   4.945   5.573   0.661
 5534SOL     OW28632   4.756   4.273   0.016
 5534SOL    HW128633   4.715   4.355  -0.023
 5534SOL    HW228634   4.820   4.299   0.089
 5535SOL     OW28635   3.802   4.280   1.386
 5535SOL    HW128636   3.894   4.279   1.345
 5535SOL    HW228637   3.796   4.354   1.453
 5536SOL     OW28638   4.285   3.946   1.147
 5536SOL    HW128639   4.323   3.862   1.184
 5536SOL    HW228640   4.197   3.965   1.191
 5537SOL     OW28641   4.590   4.178   0.642
 5537SOL    HW128642   4.558   4.250   0.580
 5537SOL    HW228643   4.614   4.097   0.589
 5538SOL     OW28644   4.741   3.763   0.753
 5538SOL    HW128645   4.669   3.768   0.684
 5538SOL    HW228646   4.717   3.694   0.822
 5539SOL     OW28647   5.153   4.897   0.867
 5539SOL    HW128648   5.098   4.813   0.860
 5539SOL    HW228649   5.179   4.926   0.775
 5540SOL     OW28650   5.190   4.314   0.992
 5540SOL    HW128651   5.160   4.219   0.999
 5540SOL    HW228652   5.263   4.330   1.058
 5541SOL     OW28653   5.581   4.557   0.377
 5541SOL    HW128654   5.623   4.493   0.441
 5541SOL    HW228655   5.543   4.506   0.299
 5542SOL     OW28656   4.212   5.109   0.174
 5542SOL    HW128657   4.125   5.094   0.221
 5542SOL    HW228658   4.195   5.135   0.079
 5543SOL     OW28659   5.388   5.004   0.657
 5543SOL    HW128660   5.487   5.012   0.671
 5543SOL    HW228661   5.343   5.088   0.688
 5544SOL     OW28662   5.114   4.299   0.078
 5544SOL    HW128663   5.060   4.278   0.159
 5544SOL    HW228664   5.205   4.258   0.087
 5545SOL     OW28665   4.251   3.980   0.328
 5545SOL    HW128666   4.278   3.921   0.253
 5545SOL    HW228667   4.251   4.075   0.297
 5546SOL     OW28668   5.478   4.947   1.588
 5546SOL    HW128669   5.569   4.908   1.575
 5546SOL    HW228670   5.486   5.043   1.612
 5547SOL     OW28671   4.788   5.071   1.340
 5547SOL    HW128672   4.708   5.048   1.395
 5547SOL    HW228673   4.871   5.045   1.389
 5548SOL     OW28674   4.835   4.919   1.100
 5548SOL    HW128675   4.795   4.963   1.181
 5548SOL    HW228676   4.794   4.956   1.017
 5549SOL     OW28677   5.362   4.823   1.079
 5549SOL    HW128678   5.367   4.904   1.138
 5549SOL    HW228679   5.276   4.825   1.028
 5550SOL     OW28680   4.639   3.813   1.402
 5550SOL    HW128681   4.664   3.793   1.307
 5550SOL    HW228682   4.711   3.869   1.444
 5551SOL     OW28683   4.429   4.774   0.368
 5551SOL    HW128684   4.415   4.781   0.467
 5551SOL    HW228685   4.513   4.723   0.350
 5552SOL     OW28686   4.134   4.537   1.251
 5552SOL    HW128687   4.220   4.549   1.301
 5552SOL    HW228688   4.092   4.450   1.278
 5553SOL     OW28689   4.998   4.110   1.262
 5553SOL    HW128690   5.019   4.184   1.326
 5553SOL    HW228691   4.909   4.127   1.219
 5554SOL     OW28692   3.788   5.288   1.331
 5554SOL    HW128693   3.742   5.370   1.297
 5554SOL    HW228694   3.886   5.307   1.340
 5555SOL     OW28695   4.091   4.824   0.501
 5555SOL    HW128696   4.084   4.907   0.445
 5555SOL    HW228697   4.095   4.744   0.441
 5556SOL     OW28698   4.290   4.261   0.865
 5556SOL    HW128699   4.302   4.327   0.791
 5556SOL    HW228700   4.336   4.295   0.948
 5557SOL     OW28701   4.976   5.072   0.388
 5557SOL    HW128702   5.026   5.149   0.428
 5557SOL    HW228703   4.881   5.074   0.420
 5558SOL     OW28704   4.996   5.169   1.142
 5558SOL    HW128705   5.043   5.182   1.229
 5558SOL    HW228706   4.930   5.095   1.151
 5559SOL     OW28707   5.306   4.363   0.472
 5559SOL    HW128708   5.275   4.424   0.545
 5559SOL    HW228709   5.356   4.415   0.403
 5560SOL     OW28710   4.078   5.234   1.329
 5560SOL    HW128711   4.057   5.190   1.242
 5560SOL    HW228712   4.175   5.260   1.332
 5561SOL     OW28713   4.126   4.475   1.598
 5561SOL    HW128714   4.194   4.530   1.551
 5561SOL    HW228715   4.166   4.387   1.625
 5562SOL     OW28716   5.311   4.503   1.670
 5562SOL    HW128717   5.219   4.541   1.665
 5562SOL    HW228718   5.371   4.550   1.605
 5563SOL     OW28719   4.737   3.829   1.770
 5563SOL    HW128720   4.743   3.914   1.718
 5563SOL    HW228721   4.769   3.753   1.713
 5564SOL     OW28722   4.297   4.594   1.029
 5564SOL    HW128723   4.341   4.683   1.020
 5564SOL    HW228724   4.234   4.594   1.106
 5565SOL     OW28725   5.084   4.586   1.045
 5565SOL    HW128726   5.009   4.586   0.979
 5565SOL    HW228727   5.121   4.494   1.054
 5566SOL     OW28728   4.933   4.249   0.275
 5566SOL    HW128729   4.946   4.165   0.329
 5566SOL    HW228730   4.904   4.323   0.335
 5567SOL     OW28731   4.031   3.937   1.231
 5567SOL    HW128732   4.008   3.974   1.321
 5567SOL    HW228733   4.001   3.842   1.225
 5568SOL     OW28734   3.761   5.034   1.282
 5568SOL    HW128735   3.814   4.985   1.350
 5568SOL    HW228736   3.783   5.132   1.287
 5569SOL     OW28737   4.456   4.358   1.064
 5569SOL    HW128738   4.515   4.332   0.988
 5569SOL    HW228739   4.428   4.454   1.053
 5570SOL     OW28740   5.452   4.659   1.854
 5570SOL    HW128741   5.406   4.652   1.765
 5570SOL    HW228742   5.390   4.703   1.920
 5571SOL     OW28743   4.031   3.787   0.618
 5571SOL    HW128744   4.020   3.881   0.651
 5571SOL    HW228745   4.026   3.724   0.695
 5572SOL     OW28746   5.346   4.091   0.374
 5572SOL    HW128747   5.348   4.015   0.438
 5572SOL    HW228748   5.298   4.168   0.414
 5573SOL     OW28749   4.747   4.490   0.966
 5573SOL    HW128750   4.762   4.511   1.062
 5573SOL    HW228751   4.717   4.395   0.957
 5574SOL     OW28752   4.074   4.622   1.804
 5574SOL    HW128753   4.150   4.666   1.852
 5574SOL    HW228754   4.109   4.575   1.722
 5575SOL     OW28755   5.264   3.998   0.125
 5575SOL    HW128756   5.203   3.923   0.148
 5575SOL    HW228757   5.286   4.050   0.208
 5576SOL     OW28758   5.027   4.562   0.042
 5576SOL    HW128759   5.061   4.469   0.057
 5576SOL    HW228760   5.045   4.589  -0.053
 5577SOL     OW28761   4.792   5.057   0.849
 5577SOL    HW128762   4.799   4.973   0.794
 5577SOL    HW228763   4.854   5.126   0.813
 5578SOL     OW28764   4.043   4.534   0.949
 5578SOL    HW128765   4.136   4.570   0.954
 5578SOL    HW228766   4.037   4.449   1.001
 5579SOL     OW28767   4.063   4.233   1.006
 5579SOL    HW128768   4.011   4.150   0.989
 5579SOL    HW228769   4.140   4.238   0.942
 5580SOL     OW28770   4.862   4.104   1.678
 5580SOL    HW128771   4.817   4.167   1.742
 5580SOL    HW228772   4.955   4.135   1.661
 5581SOL     OW28773   4.884   3.931   1.477
 5581SOL    HW128774   4.884   3.995   1.554
 5581SOL    HW228775   4.912   3.979   1.394
 5582SOL     OW28776   3.732   5.050   0.200
 5582SOL    HW128777   3.639   5.071   0.169
 5582SOL    HW228778   3.742   4.951   0.213
 5583SOL     OW28779   3.812   5.525   0.927
 5583SOL    HW128780   3.770   5.439   0.900
 5583SOL    HW228781   3.906   5.528   0.893
 5584SOL     OW28782   4.228   5.292   0.910
 5584SOL    HW128783   4.294   5.366   0.919
 5584SOL    HW228784   4.272   5.213   0.868
 5585SOL     OW28785   4.726   4.520   1.238
 5585SOL    HW128786   4.767   4.488   1.324
 5585SOL    HW228787   4.630   4.493   1.235
 5586SOL     OW28788   3.764   4.268   1.114
 5586SOL    HW128789   3.849   4.235   1.073
 5586SOL    HW228790   3.777   4.283   1.212
 5587SOL     OW28791   3.913   4.244   1.722
 5587SOL    HW128792   3.972   4.204   1.652
 5587SOL    HW228793   3.855   4.315   1.681
 5588SOL     OW28794   5.093   4.674   1.660
 5588SOL    HW128795   5.132   4.763   1.680
 5588SOL    HW228796   5.103   4.654   1.563
 5589SOL     OW28797   4.539   4.296   0.325
 5589SOL    HW128798   4.546   4.207   0.279
 5589SOL    HW228799   4.445   4.330   0.317
 5590SOL     OW28800   5.381   4.328   1.206
 5590SOL    HW128801   5.343   4.259   1.268
 5590SOL    HW228802   5.463   4.292   1.162
 5591SOL     OW28803   3.976   5.288   1.744
 5591SOL    HW128804   3.946   5.345   1.820
 5591SOL    HW228805   3.969   5.191   1.770
 5592SOL     OW28806   4.395   4.188   1.269
 5592SOL    HW128807   4.361   4.099   1.239
 5592SOL    HW228808   4.421   4.242   1.189
 5593SOL     OW28809   4.654   5.402   1.465
 5593SOL    HW128810   4.630   5.384   1.370
 5593SOL    HW228811   4.684   5.496   1.475
 5594SOL     OW28812   4.197   4.224   0.191
 5594SOL    HW128813   4.258   4.304   0.195
 5594SOL    HW228814   4.102   4.255   0.198
 5595SOL     OW28815   3.883   4.861   1.466
 5595SOL    HW128816   3.905   4.800   1.542
 5595SOL    HW228817   3.893   4.812   1.380
 5596SOL     OW28818   5.071   4.783   1.234
 5596SOL    HW128819   5.095   4.720   1.160
 5596SOL    HW228820   4.981   4.823   1.216
 5597SOL     OW28821   5.026   4.579   0.309
 5597SOL    HW128822   4.940   4.548   0.351
 5597SOL    HW228823   5.022   4.565   0.210
 5598SOL     OW28824   5.483   5.471   1.154
 5598SOL    HW128825   5.544   5.501   1.081
 5598SOL    HW228826   5.445   5.382   1.132
 5599SOL     OW28827   4.976   5.455   1.128
 5599SOL    HW128828   5.060   5.460   1.074
 5599SOL    HW228829   4.953   5.359   1.146
 5600SOL     OW28830   3.807   4.982   1.022
 5600SOL    HW128831   3.802   4.981   1.122
 5600SOL    HW228832   3.724   4.941   0.984
 5601SOL     OW28833   4.412   5.386   1.716
 5601SOL    HW128834   4.356   5.467   1.725
 5601SOL    HW228835   4.464   5.390   1.630
 5602SOL     OW28836   4.627   3.810   0.133
 5602SOL    HW128837   4.678   3.811   0.047
 5602SOL    HW228838   4.683   3.768   0.204
 5603SOL     OW28839   5.450   3.859   0.523
 5603SOL    HW128840   5.523   3.842   0.456
 5603SOL    HW228841   5.419   3.772   0.561
 5604SOL     OW28842   5.112   5.297   0.477
 5604SOL    HW128843   5.179   5.309   0.403
 5604SOL    HW228844   5.072   5.386   0.500
 5605SOL     OW28845   3.854   5.518   1.851
 5605SOL    HW128846   3.813   5.444   1.904
 5605SOL    HW228847   3.918   5.569   1.909
 5606SOL     OW28848   5.004   4.651   0.672
 5606SOL    HW128849   5.064   4.570   0.674
 5606SOL    HW228850   5.044   4.720   0.612
 5607SOL     OW28851   4.396   5.340   0.154
 5607SOL    HW128852   4.405   5.350   0.055
 5607SOL    HW228853   4.356   5.251   0.175
 5608SOL     OW28854   5.374   5.444   1.394
 5608SOL    HW128855   5.427   5.454   1.310
 5608SOL    HW228856   5.347   5.534   1.428
 5609SOL     OW28857   5.565   3.899   0.963
 5609SOL    HW128858   5.604   3.814   0.927
 5609SOL    HW228859   5.467   3.901   0.944
 5610SOL     OW28860   3.987   4.050   0.720
 5610SOL    HW128861   3.908   4.101   0.686
 5610SOL    HW228862   3.978   4.035   0.818
 5611SOL     OW28863   4.918   5.336   0.031
 5611SOL    HW128864   4.924   5.243   0.068
 5611SOL    HW228865   4.859   5.336  -0.049
 5612SOL     OW28866   4.546   4.726   1.372
 5612SOL    HW128867   4.586   4.725   1.280
 5612SOL    HW228868   4.556   4.818   1.412
 5613SOL     OW28869   4.640   4.634   0.291
 5613SOL    HW128870   4.703   4.672   0.223
 5613SOL    HW228871   4.680   4.551   0.330
 5614SOL     OW28872   5.228   5.331   0.044
 5614SOL    HW128873   5.136   5.368   0.051
 5614SOL    HW228874   5.266   5.351  -0.046
 5615SOL     OW28875   4.096   5.012   1.490
 5615SOL    HW128876   4.083   5.105   1.456
 5615SOL    HW228877   4.012   4.960   1.477
 5616SOL     OW28878   5.338   5.016   1.289
 5616SOL    HW128879   5.398   5.019   1.369
 5616SOL    HW228880   5.263   5.080   1.302
 5617SOL     OW28881   4.763   4.822   0.696
 5617SOL    HW128882   4.693   4.775   0.750
 5617SOL    HW228883   4.822   4.754   0.653
 5618SOL     OW28884   4.738   3.960   0.971
 5618SOL    HW128885   4.730   3.924   0.878
 5618SOL    HW228886   4.736   3.884   1.036
 5619SOL     OW28887   4.314   5.211   0.491
 5619SOL    HW128888   4.356   5.153   0.421
 5619SOL    HW228889   4.270   5.290   0.447
 5620SOL     OW28890   5.433   4.109   1.381
 5620SOL    HW128891   5.506   4.178   1.385
 5620SOL    HW228892   5.461   4.034   1.322
 5621SOL     OW28893   3.979   5.072   0.290
 5621SOL    HW128894   3.883   5.073   0.263
 5621SOL    HW228895   3.991   5.125   0.374
 5622SOL     OW28896   3.829   4.737   1.726
 5622SOL    HW128897   3.752   4.704   1.780
 5622SOL    HW228898   3.914   4.707   1.768
 5623SOL     OW28899   4.396   3.927   1.489
 5623SOL    HW128900   4.486   3.911   1.449
 5623SOL    HW228901   4.404   3.932   1.588
 5624SOL     OW28902   3.799   4.069   0.033
 5624SOL    HW128903   3.707   4.041   0.004
 5624SOL    HW228904   3.830   4.146  -0.023
 5625SOL     OW28905   5.164   4.580   1.398
 5625SOL    HW128906   5.107   4.632   1.335
 5625SOL    HW228907   5.260   4.592   1.374
 5626SOL     OW28908   3.796   3.890   0.318
 5626SOL    HW128909   3.779   3.973   0.264
 5626SOL    HW228910   3.886   3.853   0.296
 5627SOL     OW28911   4.907   5.059   0.119
 5627SOL    HW128912   4.808   5.048   0.121
 5627SOL    HW228913   4.941   5.074   0.212
 5628SOL     OW28914   4.337   4.566   1.431
 5628SOL    HW128915   4.393   4.647   1.414
 5628SOL    HW228916   4.396   4.486   1.434
 5629SOL     OW28917   5.217   5.491   0.959
 5629SOL    HW128918   5.250   5.555   0.890
 5629SOL    HW228919   5.283   5.485   1.034
 5630SOL     OW28920   4.440   4.289   1.708
 5630SOL    HW128921   4.459   4.354   1.782
 5630SOL    HW228922   4.500   4.209   1.717
 5631SOL     OW28923   5.174   4.944   1.633
 5631SOL    HW128924   5.165   4.934   1.732
 5631SOL    HW228925   5.270   4.937   1.607
 5632SOL     OW28926   4.114   5.465   1.560
 5632SOL    HW128927   4.023   5.506   1.558
 5632SOL    HW228928   4.107   5.371   1.592
 5633SOL     OW28929   5.398   4.607   1.254
 5633SOL    HW128930   5.371   4.518   1.217
 5633SOL    HW228931   5.399   4.675   1.181
 5634SOL     OW28932   4.949   4.049   0.449
 5634SOL    HW128933   5.014   3.975   0.438
 5634SOL    HW228934   4.969   4.099   0.533
 5635SOL     OW28935   4.318   4.469   0.652
 5635SOL    HW128936   4.368   4.554   0.633
 5635SOL    HW228937   4.230   4.471   0.604
 5636SOL     OW28938   5.454   4.658   1.517
 5636SOL    HW128939   5.492   4.749   1.532
 5636SOL    HW228940   5.446   4.641   1.418
 5637SOL     OW28941   4.583   5.098   0.016
 5637SOL    HW128942   4.537   5.113   0.104
 5637SOL    HW228943   4.627   5.183  -0.014
 5638SOL     OW28944   4.385   5.514   0.953
 5638SOL    HW128945   4.339   5.602   0.940
 5638SOL    HW228946   4.484   5.526   0.946
 5639SOL     OW28947   4.583   4.680   0.861
 5639SOL    HW128948   4.637   4.611   0.909
 5639SOL    HW228949   4.551   4.749   0.927
 5640SOL     OW28950   4.807   4.708   0.087
 5640SOL    HW128951   4.784   4.761   0.005
 5640SOL    HW228952   4.888   4.652   0.068
 5641SOL     OW28953   5.585   5.293   0.851
 5641SOL    HW128954   5.514   5.281   0.781
 5641SOL    HW228955   5.586   5.214   0.911
 5642SOL     OW28956   3.803   4.964   0.653
 5642SOL    HW128957   3.802   4.917   0.741
 5642SOL    HW228958   3.885   4.936   0.602
 5643SOL     OW28959   5.548   3.916   1.227
 5643SOL    HW128960   5.544   3.826   1.271
 5643SOL    HW228961   5.551   3.905   1.128
 5644SOL     OW28962   4.152   4.148   0.520
 5644SOL    HW128963   4.182   4.076   0.458
 5644SOL    HW228964   4.113   4.108   0.603
 5645SOL     OW28965   5.429   5.211   1.104
 5645SOL    HW128966   5.336   5.186   1.077
 5645SOL    HW228967   5.455   5.161   1.186
 5646SOL     OW28968   4.041   4.271   1.280
 5646SOL    HW128969   4.079   4.212   1.352
 5646SOL    HW228970   4.081   4.245   1.192
 5647SOL     OW28971   4.536   5.310   0.687
 5647SOL    HW128972   4.568   5.320   0.593
 5647SOL    HW228973   4.457   5.248   0.689
 5648SOL     OW28974   5.148   3.938   1.112
 5648SOL    HW128975   5.200   3.873   1.167
 5648SOL    HW228976   5.099   4.001   1.173
 5649SOL     OW28977   4.725   3.758   1.154
 5649SOL    HW128978   4.662   3.686   1.123
 5649SOL    HW228979   4.818   3.722   1.154
 5650SOL     OW28980   4.494   5.054   0.301
 5650SOL    HW128981   4.448   4.967   0.318
 5650SOL    HW228982   4.585   5.051   0.342
 5651SOL     OW28983   4.342   5.291   1.284
 5651SOL    HW128984   4.337   5.373   1.341
 5651SOL    HW228985   4.431   5.288   1.239
 5652SOL     OW28986   5.076   3.776   0.168
 5652SOL    HW128987   5.111   3.735   0.084
 5652SOL    HW228988   4.986   3.738   0.188
 5653SOL     OW28989   5.024   4.177   0.691
 5653SOL    HW128990   4.965   4.257   0.695
 5653SOL    HW228991   5.039   4.142   0.784
 5654SOL     OW28992   5.317   3.945   0.882
 5654SOL    HW128993   5.233   3.944   0.936
 5654SOL    HW228994   5.319   4.028   0.826
 5655SOL     OW28995   3.763   4.801   0.300
 5655SOL    HW128996   3.862   4.790   0.291
 5655SOL    HW228997   3.723   4.715   0.332
 5656SOL     OW28998   4.599   5.370   0.337
 5656SOL    HW128999   4.522   5.335   0.283
 5656SOL    HW229000   4.567   5.441   0.399
 5657SOL     OW29001   3.954   4.352   1.975
 5657SOL    HW129002   3.861   4.350   2.012
 5657SOL    HW229003   3.955   4.313   1.883
 5658SOL     OW29004   5.279   5.235   2.565
 5658SOL    HW129005   5.222   5.219   2.646
 5658SOL    HW229006   5.220   5.245   2.485
 5659SOL     OW29007   4.410   4.885   3.665
 5659SOL    HW129008   4.470   4.964   3.679
 5659SOL    HW229009   4.324   4.916   3.624
 5660SOL     OW29010   3.955   5.437   2.345
 5660SOL    HW129011   3.989   5.514   2.399
 5660SOL    HW229012   3.999   5.437   2.255
 5661SOL     OW29013   3.954   5.158   2.400
 5661SOL    HW129014   3.928   5.254   2.400
 5661SOL    HW229015   3.883   5.104   2.445
 5662SOL     OW29016   3.751   5.320   1.979
 5662SOL    HW129017   3.732   5.224   2.000
 5662SOL    HW229018   3.718   5.378   2.054
 5663SOL     OW29019   5.017   4.952   3.285
 5663SOL    HW129020   5.054   4.879   3.227
 5663SOL    HW229021   5.069   4.957   3.370
 5664SOL     OW29022   4.697   4.614   3.434
 5664SOL    HW129023   4.743   4.530   3.405
 5664SOL    HW229024   4.641   4.648   3.359
 5665SOL     OW29025   4.715   4.134   3.104
 5665SOL    HW129026   4.638   4.168   3.158
 5665SOL    HW229027   4.681   4.083   3.025
 5666SOL     OW29028   4.274   3.920   2.747
 5666SOL    HW129029   4.269   3.915   2.847
 5666SOL    HW229030   4.276   4.016   2.718
 5667SOL     OW29031   4.732   5.180   2.339
 5667SOL    HW129032   4.686   5.252   2.287
 5667SOL    HW229033   4.728   5.200   2.437
 5668SOL     OW29034   4.951   5.274   3.368
 5668SOL    HW129035   4.957   5.197   3.432
 5668SOL    HW229036   4.899   5.248   3.288
 5669SOL     OW29037   4.185   4.990   3.589
 5669SOL    HW129038   4.135   4.991   3.503
 5669SOL    HW229039   4.122   4.972   3.665
 5670SOL     OW29040   4.835   5.500   2.099
 5670SOL    HW129041   4.775   5.438   2.149
 5670SOL    HW229042   4.866   5.456   2.014
 5671SOL     OW29043   3.926   4.009   3.360
 5671SOL    HW129044   3.846   4.069   3.347
 5671SOL    HW229045   3.916   3.960   3.446
 5672SOL     OW29046   4.188   5.467   2.185
 5672SOL    HW129047   4.221   5.506   2.271
 5672SOL    HW229048   4.264   5.460   2.120
 5673SOL     OW29049   4.612   5.238   3.057
 5673SOL    HW129050   4.589   5.213   2.963
 5673SOL    HW229051   4.673   5.169   3.096
 5674SOL     OW29052   4.756   4.273   1.878
 5674SOL    HW129053   4.715   4.355   1.839
 5674SOL    HW229054   4.820   4.299   1.951
 5675SOL     OW29055   3.802   4.280   3.248
 5675SOL    HW129056   3.894   4.279   3.207
 5675SOL    HW229057   3.796   4.354   3.315
 5676SOL     OW29058   4.285   3.946   3.009
 5676SOL    HW129059   4.323   3.862   3.046
 5676SOL    HW229060   4.197   3.965   3.053
 5677SOL     OW29061   4.590   4.178   2.504
 5677SOL    HW129062   4.558   4.250   2.442
 5677SOL    HW229063   4.614   4.097   2.451
 5678SOL     OW29064   4.741   3.763   2.615
 5678SOL    HW129065   4.669   3.768   2.546
 5678SOL    HW229066   4.717   3.694   2.684
 5679SOL     OW29067   5.190   4.314   2.854
 5679SOL    HW129068   5.160   4.219   2.861
 5679SOL    HW229069   5.263   4.330   2.920
 5680SOL     OW29070   4.212   5.109   2.036
 5680SOL    HW129071   4.125   5.094   2.083
 5680SOL    HW229072   4.195   5.135   1.941
 5681SOL     OW29073   4.251   3.980   2.190
 5681SOL    HW129074   4.278   3.921   2.115
 5681SOL    HW229075   4.251   4.075   2.159
 5682SOL     OW29076   5.316   5.353   3.487
 5682SOL    HW129077   5.343   5.387   3.397
 5682SOL    HW229078   5.395   5.315   3.533
 5683SOL     OW29079   5.362   4.823   2.941
 5683SOL    HW129080   5.367   4.904   3.000
 5683SOL    HW229081   5.276   4.825   2.890
 5684SOL     OW29082   4.429   4.774   2.230
 5684SOL    HW129083   4.415   4.781   2.329
 5684SOL    HW229084   4.513   4.723   2.212
 5685SOL     OW29085   4.134   4.537   3.113
 5685SOL    HW129086   4.220   4.549   3.163
 5685SOL    HW229087   4.092   4.450   3.140
 5686SOL     OW29088   4.976   5.072   2.250
 5686SOL    HW129089   5.026   5.149   2.290
 5686SOL    HW229090   4.881   5.074   2.282
 5687SOL     OW29091   4.996   5.169   3.004
 5687SOL    HW129092   5.043   5.182   3.091
 5687SOL    HW229093   4.930   5.095   3.013
 5688SOL     OW29094   4.297   4.594   2.891
 5688SOL    HW129095   4.341   4.683   2.882
 5688SOL    HW229096   4.234   4.594   2.968
 5689SOL     OW29097   5.452   4.659   3.716
 5689SOL    HW129098   5.406   4.652   3.627
 5689SOL    HW229099   5.390   4.703   3.782
 5690SOL     OW29100   5.346   4.091   2.236
 5690SOL    HW129101   5.348   4.015   2.300
 5690SOL    HW229102   5.298   4.168   2.276
 5691SOL     OW29103   5.027   4.562   1.904
 5691SOL    HW129104   5.061   4.469   1.919
 5691SOL    HW229105   5.045   4.589   1.809
 5692SOL     OW29106   4.228   5.292   2.772
 5692SOL    HW129107   4.294   5.366   2.781
 5692SOL    HW229108   4.272   5.213   2.730
 5693SOL     OW29109   4.726   4.520   3.100
 5693SOL    HW129110   4.767   4.488   3.186
 5693SOL    HW229111   4.630   4.493   3.097
 5694SOL     OW29112   3.764   4.268   2.976
 5694SOL    HW129113   3.849   4.235   2.935
 5694SOL    HW229114   3.777   4.283   3.074
 5695SOL     OW29115   3.913   4.244   3.584
 5695SOL    HW129116   3.972   4.204   3.514
 5695SOL    HW229117   3.855   4.315   3.543
 5696SOL     OW29118   4.539   4.296   2.187
 5696SOL    HW129119   4.546   4.207   2.141
 5696SOL    HW229120   4.445   4.330   2.179
 5697SOL     OW29121   4.395   4.188   3.131
 5697SOL    HW129122   4.361   4.099   3.101
 5697SOL    HW229123   4.421   4.242   3.051
 5698SOL     OW29124   4.197   4.224   2.053
 5698SOL    HW129125   4.258   4.304   2.057
 5698SOL    HW229126   4.102   4.255   2.060
 5699SOL     OW29127   4.412   5.386   3.578
 5699SOL    HW129128   4.356   5.467   3.587
 5699SOL    HW229129   4.464   5.390   3.492
 5700SOL     OW29130   5.450   3.859   2.385
 5700SOL    HW129131   5.523   3.842   2.318
 5700SOL    HW229132   5.419   3.772   2.423
 5701SOL     OW29133   5.112   5.297   2.339
 5701SOL    HW129134   5.179   5.309   2.265
 5701SOL    HW229135   5.072   5.386   2.362
 5702SOL     OW29136   3.854   5.518   3.713
 5702SOL    HW129137   3.813   5.444   3.766
 5702SOL    HW229138   3.918   5.569   3.771
 5703SOL     OW29139   4.396   5.340   2.016
 5703SOL    HW129140   4.405   5.350   1.917
 5703SOL    HW229141   4.356   5.251   2.037
 5704SOL     OW29142   5.565   3.899   2.825
 5704SOL    HW129143   5.604   3.814   2.789
 5704SOL    HW229144   5.467   3.901   2.806
 5705SOL     OW29145   4.096   5.012   3.352
 5705SOL    HW129146   4.083   5.105   3.318
 5705SOL    HW229147   4.012   4.960   3.339
 5706SOL     OW29148   4.738   3.960   2.833
 5706SOL    HW129149   4.730   3.924   2.740
 5706SOL    HW229150   4.736   3.884   2.898
 5707SOL     OW29151   3.799   4.069   1.895
 5707SOL    HW129152   3.707   4.041   1.866
 5707SOL    HW229153   3.830   4.146   1.839
 5708SOL     OW29154   4.114   5.465   3.422
 5708SOL    HW129155   4.023   5.506   3.420
 5708SOL    HW229156   4.107   5.371   3.454
 5709SOL     OW29157   4.318   4.469   2.514
 5709SOL    HW129158   4.368   4.554   2.495
 5709SOL    HW229159   4.230   4.471   2.466
 5710SOL     OW29160   5.454   4.658   3.379
 5710SOL    HW129161   5.492   4.749   3.394
 5710SOL    HW229162   5.446   4.641   3.280
 5711SOL     OW29163   4.385   5.514   2.815
 5711SOL    HW129164   4.339   5.602   2.802
 5711SOL    HW229165   4.484   5.526   2.808
 5712SOL     OW29166   4.583   4.680   2.723
 5712SOL    HW129167   4.637   4.611   2.771
 5712SOL    HW229168   4.551   4.749   2.789
 5713SOL     OW29169   3.803   4.964   2.515
 5713SOL    HW129170   3.802   4.917   2.603
 5713SOL    HW229171   3.885   4.936   2.464
 5714SOL     OW29172   5.548   3.916   3.089
 5714SOL    HW129173   5.544   3.826   3.133
 5714SOL    HW229174   5.551   3.905   2.990
 5715SOL     OW29175   4.342   5.291   3.146
 5715SOL    HW129176   4.337   5.373   3.203
 5715SOL    HW229177   4.431   5.288   3.101
 5716SOL     OW29178   4.599   5.370   2.199
 5716SOL    HW129179   4.522   5.335   2.145
 5716SOL    HW229180   4.567   5.441   2.261
 5717SOL     OW29181   3.949   3.999   4.720
 5717SOL    HW129182   3.984   3.982   4.812
 5717SOL    HW229183   3.861   3.954   4.708
 5718SOL     OW29184   4.859   4.427   4.441
 5718SOL    HW129185   4.916   4.505   4.416
 5718SOL    HW229186   4.799   4.453   4.517
 5719SOL     OW29187   5.479   4.331   3.955
 5719SOL    HW129188   5.467   4.318   3.856
 5719SOL    HW229189   5.449   4.250   4.004
 5720SOL     OW29190   4.574   4.522   5.547
 5720SOL    HW129191   4.570   4.598   5.612
 5720SOL    HW229192   4.596   4.558   5.456
 5721SOL     OW29193   4.851   5.065   5.414
 5721SOL    HW129194   4.898   5.065   5.502
 5721SOL    HW229195   4.803   4.978   5.403
 5722SOL     OW29196   3.964   4.815   4.610
 5722SOL    HW129197   3.978   4.731   4.662
 5722SOL    HW229198   3.909   4.879   4.665
 5723SOL     OW29199   4.330   4.688   3.847
 5723SOL    HW129200   4.337   4.772   3.793
 5723SOL    HW229201   4.376   4.701   3.935
 5724SOL     OW29202   5.318   3.838   5.204
 5724SOL    HW129203   5.300   3.905   5.132
 5724SOL    HW229204   5.315   3.884   5.293
 5725SOL     OW29205   5.365   4.832   4.156
 5725SOL    HW129206   5.451   4.834   4.104
 5725SOL    HW229207   5.379   4.879   4.244
 5726SOL     OW29208   4.337   5.089   4.450
 5726SOL    HW129209   4.288   5.002   4.459
 5726SOL    HW229210   4.314   5.132   4.363
 5727SOL     OW29211   4.533   3.728   4.226
 5727SOL    HW129212   4.573   3.819   4.217
 5727SOL    HW229213   4.433   3.736   4.232
 5728SOL     OW29214   4.911   5.516   5.340
 5728SOL    HW129215   4.935   5.576   5.264
 5728SOL    HW229216   4.918   5.421   5.310
 5729SOL     OW29217   4.732   5.180   4.201
 5729SOL    HW129218   4.686   5.252   4.149
 5729SOL    HW229219   4.728   5.200   4.299
 5730SOL     OW29220   4.045   4.667   3.966
 5730SOL    HW129221   4.127   4.706   3.924
 5730SOL    HW229222   4.018   4.585   3.917
 5731SOL     OW29223   4.835   5.500   3.961
 5731SOL    HW129224   4.775   5.438   4.011
 5731SOL    HW229225   4.866   5.456   3.876
 5732SOL     OW29226   3.926   4.009   5.222
 5732SOL    HW129227   3.846   4.069   5.209
 5732SOL    HW229228   3.916   3.960   5.308
 5733SOL     OW29229   4.338   3.846   3.841
 5733SOL    HW129230   4.436   3.824   3.848
 5733SOL    HW229231   4.307   3.829   3.748
 5734SOL     OW29232   4.505   3.988   5.473
 5734SOL    HW129233   4.572   3.927   5.516
 5734SOL    HW229234   4.432   4.007   5.538
 5735SOL     OW29235   4.612   5.238   4.919
 5735SOL    HW129236   4.589   5.213   4.825
 5735SOL    HW229237   4.673   5.169   4.958
 5736SOL     OW29238   4.263   3.788   4.236
 5736SOL    HW129239   4.182   3.789   4.294
 5736SOL    HW229240   4.266   3.871   4.181
 5737SOL     OW29241   5.158   4.912   3.765
 5737SOL    HW129242   5.190   4.836   3.822
 5737SOL    HW229243   5.066   4.939   3.795
 5738SOL     OW29244   4.741   3.763   4.477
 5738SOL    HW129245   4.669   3.768   4.408
 5738SOL    HW229246   4.717   3.694   4.546
 5739SOL     OW29247   5.581   4.557   4.101
 5739SOL    HW129248   5.623   4.493   4.165
 5739SOL    HW229249   5.543   4.506   4.023
 5740SOL     OW29250   5.388   5.004   4.381
 5740SOL    HW129251   5.487   5.012   4.395
 5740SOL    HW229252   5.343   5.088   4.412
 5741SOL     OW29253   5.114   4.299   3.802
 5741SOL    HW129254   5.060   4.278   3.883
 5741SOL    HW229255   5.205   4.258   3.811
 5742SOL     OW29256   4.788   5.071   5.064
 5742SOL    HW129257   4.708   5.048   5.119
 5742SOL    HW229258   4.871   5.045   5.113
 5743SOL     OW29259   4.639   3.813   5.126
 5743SOL    HW129260   4.664   3.793   5.031
 5743SOL    HW229261   4.711   3.869   5.168
 5744SOL     OW29262   4.704   4.840   5.443
 5744SOL    HW129263   4.605   4.846   5.453
 5744SOL    HW229264   4.727   4.760   5.387
 5745SOL     OW29265   4.134   4.537   4.975
 5745SOL    HW129266   4.220   4.549   5.025
 5745SOL    HW229267   4.092   4.450   5.002
 5746SOL     OW29268   3.788   5.288   5.055
 5746SOL    HW129269   3.742   5.370   5.021
 5746SOL    HW229270   3.886   5.307   5.064
 5747SOL     OW29271   5.306   4.363   4.196
 5747SOL    HW129272   5.275   4.424   4.269
 5747SOL    HW229273   5.356   4.415   4.127
 5748SOL     OW29274   4.737   3.829   5.494
 5748SOL    HW129275   4.743   3.914   5.442
 5748SOL    HW229276   4.769   3.753   5.437
 5749SOL     OW29277   4.297   4.594   4.753
 5749SOL    HW129278   4.341   4.683   4.744
 5749SOL    HW229279   4.234   4.594   4.830
 5750SOL     OW29280   3.761   5.034   5.006
 5750SOL    HW129281   3.814   4.985   5.074
 5750SOL    HW229282   3.783   5.132   5.011
 5751SOL     OW29283   4.747   4.490   4.690
 5751SOL    HW129284   4.762   4.511   4.786
 5751SOL    HW229285   4.717   4.395   4.681
 5752SOL     OW29286   4.704   5.297   5.424
 5752SOL    HW129287   4.684   5.341   5.336
 5752SOL    HW229288   4.743   5.206   5.408
 5753SOL     OW29289   5.583   5.242   5.329
 5753SOL    HW129290   5.597   5.269   5.234
 5753SOL    HW229291   5.666   5.264   5.382
 5754SOL     OW29292   5.264   3.998   3.849
 5754SOL    HW129293   5.203   3.923   3.872
 5754SOL    HW229294   5.286   4.050   3.932
 5755SOL     OW29295   5.027   4.562   3.766
 5755SOL    HW129296   5.061   4.469   3.781
 5755SOL    HW229297   5.045   4.589   3.671
 5756SOL     OW29298   4.792   5.057   4.573
 5756SOL    HW129299   4.799   4.973   4.518
 5756SOL    HW229300   4.854   5.126   4.537
 5757SOL     OW29301   4.043   4.534   4.673
 5757SOL    HW129302   4.136   4.570   4.678
 5757SOL    HW229303   4.037   4.449   4.725
 5758SOL     OW29304   4.862   4.104   5.402
 5758SOL    HW129305   4.817   4.167   5.466
 5758SOL    HW229306   4.955   4.135   5.385
 5759SOL     OW29307   3.764   4.268   4.838
 5759SOL    HW129308   3.849   4.235   4.797
 5759SOL    HW229309   3.777   4.283   4.936
 5760SOL     OW29310   5.071   4.783   4.958
 5760SOL    HW129311   5.095   4.720   4.884
 5760SOL    HW229312   4.981   4.823   4.940
 5761SOL     OW29313   5.026   4.579   4.033
 5761SOL    HW129314   4.940   4.548   4.075
 5761SOL    HW229315   5.022   4.565   3.934
 5762SOL     OW29316   3.807   4.982   4.746
 5762SOL    HW129317   3.802   4.981   4.846
 5762SOL    HW229318   3.724   4.941   4.708
 5763SOL     OW29319   4.412   5.386   5.440
 5763SOL    HW129320   4.356   5.467   5.449
 5763SOL    HW229321   4.464   5.390   5.354
 5764SOL     OW29322   3.854   5.518   5.575
 5764SOL    HW129323   3.813   5.444   5.628
 5764SOL    HW229324   3.918   5.569   5.633
 5765SOL     OW29325   4.396   5.340   3.878
 5765SOL    HW129326   4.405   5.350   3.779
 5765SOL    HW229327   4.356   5.251   3.899
 5766SOL     OW29328   4.918   5.336   3.755
 5766SOL    HW129329   4.924   5.243   3.792
 5766SOL    HW229330   4.859   5.336   3.675
 5767SOL     OW29331   4.640   4.634   4.015
 5767SOL    HW129332   4.703   4.672   3.947
 5767SOL    HW229333   4.680   4.551   4.054
 5768SOL     OW29334   4.763   4.822   4.420
 5768SOL    HW129335   4.693   4.775   4.474
 5768SOL    HW229336   4.822   4.754   4.377
 5769SOL     OW29337   3.979   5.072   4.014
 5769SOL    HW129338   3.883   5.073   3.987
 5769SOL    HW229339   3.991   5.125   4.098
 5770SOL     OW29340   4.396   3.927   5.213
 5770SOL    HW129341   4.486   3.911   5.173
 5770SOL    HW229342   4.404   3.932   5.312
 5771SOL     OW29343   3.799   4.069   3.757
 5771SOL    HW129344   3.707   4.041   3.728
 5771SOL    HW229345   3.830   4.146   3.701
 5772SOL     OW29346   5.164   4.580   5.122
 5772SOL    HW129347   5.107   4.632   5.059
 5772SOL    HW229348   5.260   4.592   5.098
 5773SOL     OW29349   5.174   4.944   5.357
 5773SOL    HW129350   5.165   4.934   5.456
 5773SOL    HW229351   5.270   4.937   5.331
 5774SOL     OW29352   5.501   4.066   5.366
 5774SOL    HW129353   5.484   4.097   5.272
 5774SOL    HW229354   5.417   4.029   5.404
 5775SOL     OW29355   4.385   5.514   4.677
 5775SOL    HW129356   4.339   5.602   4.664
 5775SOL    HW229357   4.484   5.526   4.670
 5776SOL     OW29358   4.041   4.271   5.004
 5776SOL    HW129359   4.079   4.212   5.076
 5776SOL    HW229360   4.081   4.245   4.916
 5777SOL     OW29361   4.725   3.758   4.878
 5777SOL    HW129362   4.662   3.686   4.847
 5777SOL    HW229363   4.818   3.722   4.878
 5778SOL     OW29364   5.076   3.776   3.892
 5778SOL    HW129365   5.111   3.735   3.808
 5778SOL    HW229366   4.986   3.738   3.912
 5779SOL     OW29367   5.024   4.177   4.415
 5779SOL    HW129368   4.965   4.257   4.419
 5779SOL    HW229369   5.039   4.142   4.508
 5780SOL     OW29370   4.599   5.370   4.061
 5780SOL    HW129371   4.522   5.335   4.007
 5780SOL    HW229372   4.567   5.441   4.123
 5781SOL     OW29373   3.954   4.352   5.699
 5781SOL    HW129374   3.861   4.350   5.736
 5781SOL    HW229375   3.955   4.313   5.607
 5782SOL     OW29376   3.949   3.999   6.582
 5782SOL    HW129377   3.984   3.982   6.674
 5782SOL    HW229378   3.861   3.954   6.570
 5783SOL     OW29379   4.293   4.999   6.751
 5783SOL    HW129380   4.200   4.992   6.714
 5783SOL    HW229381   4.304   5.088   6.795
 5784SOL     OW29382   5.279   5.235   6.289
 5784SOL    HW129383   5.222   5.219   6.370
 5784SOL    HW229384   5.220   5.245   6.209
 5785SOL     OW29385   4.859   4.427   6.303
 5785SOL    HW129386   4.916   4.505   6.278
 5785SOL    HW229387   4.799   4.453   6.379
 5786SOL     OW29388   4.492   4.868   6.609
 5786SOL    HW129389   4.414   4.885   6.669
 5786SOL    HW229390   4.526   4.955   6.573
 5787SOL     OW29391   4.409   4.736   6.251
 5787SOL    HW129392   4.478   4.720   6.321
 5787SOL    HW229393   4.336   4.793   6.289
 5788SOL     OW29394   4.059   5.159   6.647
 5788SOL    HW129395   3.981   5.128   6.594
 5788SOL    HW229396   4.117   5.217   6.590
 5789SOL     OW29397   4.162   4.116   7.085
 5789SOL    HW129398   4.244   4.060   7.094
 5789SOL    HW229399   4.081   4.058   7.089
 5790SOL     OW29400   5.327   4.171   6.323
 5790SOL    HW129401   5.253   4.217   6.273
 5790SOL    HW229402   5.378   4.239   6.376
 5791SOL     OW29403   3.955   5.437   6.069
 5791SOL    HW129404   3.989   5.514   6.123
 5791SOL    HW229405   3.999   5.437   5.979
 5792SOL     OW29406   3.954   5.158   6.124
 5792SOL    HW129407   3.928   5.254   6.124
 5792SOL    HW229408   3.883   5.104   6.169
 5793SOL     OW29409   3.964   4.815   6.472
 5793SOL    HW129410   3.978   4.731   6.524
 5793SOL    HW229411   3.909   4.879   6.527
 5794SOL     OW29412   4.344   5.510   7.025
 5794SOL    HW129413   4.252   5.493   7.060
 5794SOL    HW229414   4.372   5.602   7.051
 5795SOL     OW29415   4.330   4.688   5.709
 5795SOL    HW129416   4.337   4.772   5.655
 5795SOL    HW229417   4.376   4.701   5.797
 5796SOL     OW29418   3.846   4.367   6.149
 5796SOL    HW129419   3.801   4.279   6.166
 5796SOL    HW229420   3.845   4.421   6.233
 5797SOL     OW29421   3.751   5.320   5.703
 5797SOL    HW129422   3.732   5.224   5.724
 5797SOL    HW229423   3.718   5.378   5.778
 5798SOL     OW29424   5.413   4.646   6.198
 5798SOL    HW129425   5.508   4.617   6.206
 5798SOL    HW229426   5.405   4.711   6.123
 5799SOL     OW29427   5.365   4.832   6.018
 5799SOL    HW129428   5.451   4.834   5.966
 5799SOL    HW229429   5.379   4.879   6.106
 5800SOL     OW29430   4.337   5.089   6.312
 5800SOL    HW129431   4.288   5.002   6.321
 5800SOL    HW229432   4.314   5.132   6.225
 5801SOL     OW29433   3.921   4.700   6.850
 5801SOL    HW129434   4.010   4.655   6.836
 5801SOL    HW229435   3.848   4.635   6.831
 5802SOL     OW29436   5.190   5.141   6.539
 5802SOL    HW129437   5.131   5.147   6.619
 5802SOL    HW229438   5.175   5.053   6.493
 5803SOL     OW29439   4.322   4.453   5.856
 5803SOL    HW129440   4.346   4.522   5.788
 5803SOL    HW229441   4.244   4.486   5.910
 5804SOL     OW29442   5.005   4.069   6.530
 5804SOL    HW129443   4.919   4.019   6.517
 5804SOL    HW229444   5.067   4.015   6.586
 5805SOL     OW29445   4.531   4.329   7.051
 5805SOL    HW129446   4.484   4.326   7.140
 5805SOL    HW229447   4.480   4.274   6.985
 5806SOL     OW29448   4.715   4.134   6.828
 5806SOL    HW129449   4.638   4.168   6.882
 5806SOL    HW229450   4.681   4.083   6.749
 5807SOL     OW29451   4.765   4.425   6.015
 5807SOL    HW129452   4.791   4.421   6.111
 5807SOL    HW229453   4.680   4.374   6.001
 5808SOL     OW29454   3.800   4.535   6.375
 5808SOL    HW129455   3.899   4.523   6.384
 5808SOL    HW229456   3.776   4.630   6.396
 5809SOL     OW29457   3.854   5.545   7.157
 5809SOL    HW129458   3.844   5.530   7.256
 5809SOL    HW229459   3.768   5.581   7.121
 5810SOL     OW29460   5.086   4.868   6.131
 5810SOL    HW129461   5.169   4.839   6.083
 5810SOL    HW229462   5.037   4.935   6.075
 5811SOL     OW29463   4.274   3.920   6.471
 5811SOL    HW129464   4.269   3.915   6.571
 5811SOL    HW229465   4.276   4.016   6.442
 5812SOL     OW29466   4.732   5.180   6.063
 5812SOL    HW129467   4.686   5.252   6.011
 5812SOL    HW229468   4.728   5.200   6.161
 5813SOL     OW29469   4.075   5.525   6.439
 5813SOL    HW129470   4.125   5.439   6.445
 5813SOL    HW229471   4.140   5.602   6.436
 5814SOL     OW29472   5.519   4.790   6.459
 5814SOL    HW129473   5.457   4.775   6.383
 5814SOL    HW229474   5.467   4.801   6.544
 5815SOL     OW29475   4.045   4.667   5.828
 5815SOL    HW129476   4.127   4.706   5.786
 5815SOL    HW229477   4.018   4.585   5.779
 5816SOL     OW29478   5.182   4.459   6.314
 5816SOL    HW129479   5.177   4.394   6.389
 5816SOL    HW229480   5.262   4.518   6.327
 5817SOL     OW29481   4.835   5.500   5.823
 5817SOL    HW129482   4.775   5.438   5.873
 5817SOL    HW229483   4.866   5.456   5.738
 5818SOL     OW29484   4.188   5.467   5.909
 5818SOL    HW129485   4.221   5.506   5.995
 5818SOL    HW229486   4.264   5.460   5.844
 5819SOL     OW29487   5.124   3.831   6.012
 5819SOL    HW129488   5.100   3.794   5.922
 5819SOL    HW229489   5.223   3.847   6.016
 5820SOL     OW29490   3.973   5.509   6.827
 5820SOL    HW129491   4.030   5.444   6.877
 5820SOL    HW229492   3.957   5.476   6.734
 5821SOL     OW29493   4.664   5.422   6.490
 5821SOL    HW129494   4.744   5.365   6.511
 5821SOL    HW229495   4.615   5.382   6.413
 5822SOL     OW29496   4.106   4.424   6.066
 5822SOL    HW129497   4.151   4.334   6.063
 5822SOL    HW229498   4.012   4.413   6.099
 5823SOL     OW29499   4.612   5.238   6.781
 5823SOL    HW129500   4.589   5.213   6.687
 5823SOL    HW229501   4.673   5.169   6.820
 5824SOL     OW29502   4.527   5.126   6.510
 5824SOL    HW129503   4.617   5.140   6.468
 5824SOL    HW229504   4.456   5.128   6.439
 5825SOL     OW29505   4.646   4.227   6.485
 5825SOL    HW129506   4.621   4.218   6.389
 5825SOL    HW229507   4.694   4.145   6.516
 5826SOL     OW29508   4.263   3.788   6.098
 5826SOL    HW129509   4.182   3.789   6.156
 5826SOL    HW229510   4.266   3.871   6.043
 5827SOL     OW29511   5.158   4.912   5.627
 5827SOL    HW129512   5.190   4.836   5.684
 5827SOL    HW229513   5.066   4.939   5.657
 5828SOL     OW29514   4.951   5.294   6.379
 5828SOL    HW129515   4.972   5.368   6.314
 5828SOL    HW229516   5.019   5.294   6.452
 5829SOL     OW29517   4.183   4.876   6.327
 5829SOL    HW129518   4.112   4.849   6.392
 5829SOL    HW229519   4.157   4.848   6.234
 5830SOL     OW29520   4.995   5.521   6.177
 5830SOL    HW129521   5.039   5.585   6.113
 5830SOL    HW229522   4.945   5.573   6.247
 5831SOL     OW29523   4.756   4.273   5.602
 5831SOL    HW129524   4.715   4.355   5.563
 5831SOL    HW229525   4.820   4.299   5.675
 5832SOL     OW29526   4.285   3.946   6.733
 5832SOL    HW129527   4.323   3.862   6.770
 5832SOL    HW229528   4.197   3.965   6.777
 5833SOL     OW29529   4.590   4.178   6.228
 5833SOL    HW129530   4.558   4.250   6.166
 5833SOL    HW229531   4.614   4.097   6.175
 5834SOL     OW29532   4.741   3.763   6.339
 5834SOL    HW129533   4.669   3.768   6.270
 5834SOL    HW229534   4.717   3.694   6.408
 5835SOL     OW29535   5.153   4.897   6.453
 5835SOL    HW129536   5.098   4.813   6.446
 5835SOL    HW229537   5.179   4.926   6.361
 5836SOL     OW29538   5.190   4.314   6.578
 5836SOL    HW129539   5.160   4.219   6.585
 5836SOL    HW229540   5.263   4.330   6.644
 5837SOL     OW29541   5.388   5.004   6.243
 5837SOL    HW129542   5.487   5.012   6.257
 5837SOL    HW229543   5.343   5.088   6.274
 5838SOL     OW29544   4.788   5.071   6.926
 5838SOL    HW129545   4.708   5.048   6.981
 5838SOL    HW229546   4.871   5.045   6.975
 5839SOL     OW29547   4.835   4.919   6.686
 5839SOL    HW129548   4.795   4.963   6.767
 5839SOL    HW229549   4.794   4.956   6.603
 5840SOL     OW29550   5.362   4.823   6.665
 5840SOL    HW129551   5.367   4.904   6.724
 5840SOL    HW229552   5.276   4.825   6.614
 5841SOL     OW29553   4.429   4.774   5.954
 5841SOL    HW129554   4.415   4.781   6.053
 5841SOL    HW229555   4.513   4.723   5.936
 5842SOL     OW29556   4.134   4.537   6.837
 5842SOL    HW129557   4.220   4.549   6.887
 5842SOL    HW229558   4.092   4.450   6.864
 5843SOL     OW29559   4.998   4.110   6.848
 5843SOL    HW129560   5.019   4.184   6.912
 5843SOL    HW229561   4.909   4.127   6.805
 5844SOL     OW29562   3.788   5.288   6.917
 5844SOL    HW129563   3.742   5.370   6.883
 5844SOL    HW229564   3.886   5.307   6.926
 5845SOL     OW29565   4.091   4.824   6.087
 5845SOL    HW129566   4.084   4.907   6.031
 5845SOL    HW229567   4.095   4.744   6.027
 5846SOL     OW29568   4.290   4.261   6.451
 5846SOL    HW129569   4.302   4.327   6.377
 5846SOL    HW229570   4.336   4.295   6.534
 5847SOL     OW29571   4.976   5.072   5.974
 5847SOL    HW129572   5.026   5.149   6.014
 5847SOL    HW229573   4.881   5.074   6.006
 5848SOL     OW29574   4.996   5.169   6.728
 5848SOL    HW129575   5.043   5.182   6.815
 5848SOL    HW229576   4.930   5.095   6.737
 5849SOL     OW29577   5.306   4.363   6.058
 5849SOL    HW129578   5.275   4.424   6.131
 5849SOL    HW229579   5.356   4.415   5.989
 5850SOL     OW29580   4.078   5.234   6.915
 5850SOL    HW129581   4.057   5.190   6.828
 5850SOL    HW229582   4.175   5.260   6.918
 5851SOL     OW29583   4.228   3.774   7.326
 5851SOL    HW129584   4.186   3.717   7.256
 5851SOL    HW229585   4.162   3.843   7.358
 5852SOL     OW29586   4.297   4.594   6.615
 5852SOL    HW129587   4.341   4.683   6.606
 5852SOL    HW229588   4.234   4.594   6.692
 5853SOL     OW29589   5.084   4.586   6.631
 5853SOL    HW129590   5.009   4.586   6.565
 5853SOL    HW229591   5.121   4.494   6.640
 5854SOL     OW29592   4.031   3.937   6.817
 5854SOL    HW129593   4.008   3.974   6.907
 5854SOL    HW229594   4.001   3.842   6.811
 5855SOL     OW29595   3.761   5.034   6.868
 5855SOL    HW129596   3.814   4.985   6.936
 5855SOL    HW229597   3.783   5.132   6.873
 5856SOL     OW29598   4.456   4.358   6.650
 5856SOL    HW129599   4.515   4.332   6.574
 5856SOL    HW229600   4.428   4.454   6.639
 5857SOL     OW29601   4.031   3.787   6.204
 5857SOL    HW129602   4.020   3.881   6.237
 5857SOL    HW229603   4.026   3.724   6.281
 5858SOL     OW29604   4.747   4.490   6.552
 5858SOL    HW129605   4.762   4.511   6.648
 5858SOL    HW229606   4.717   4.395   6.543
 5859SOL     OW29607   4.792   5.057   6.435
 5859SOL    HW129608   4.799   4.973   6.380
 5859SOL    HW229609   4.854   5.126   6.399
 5860SOL     OW29610   4.043   4.534   6.535
 5860SOL    HW129611   4.136   4.570   6.540
 5860SOL    HW229612   4.037   4.449   6.587
 5861SOL     OW29613   4.063   4.233   6.592
 5861SOL    HW129614   4.011   4.150   6.575
 5861SOL    HW229615   4.140   4.238   6.528
 5862SOL     OW29616   4.884   3.931   7.063
 5862SOL    HW129617   4.884   3.995   7.140
 5862SOL    HW229618   4.912   3.979   6.980
 5863SOL     OW29619   3.732   5.050   5.786
 5863SOL    HW129620   3.639   5.071   5.755
 5863SOL    HW229621   3.742   4.951   5.799
 5864SOL     OW29622   3.812   5.525   6.513
 5864SOL    HW129623   3.770   5.439   6.486
 5864SOL    HW229624   3.906   5.528   6.479
 5865SOL     OW29625   4.228   5.292   6.496
 5865SOL    HW129626   4.294   5.366   6.505
 5865SOL    HW229627   4.272   5.213   6.454
 5866SOL     OW29628   4.726   4.520   6.824
 5866SOL    HW129629   4.767   4.488   6.910
 5866SOL    HW229630   4.630   4.493   6.821
 5867SOL     OW29631   3.764   4.268   6.700
 5867SOL    HW129632   3.849   4.235   6.659
 5867SOL    HW229633   3.777   4.283   6.798
 5868SOL     OW29634   5.381   4.328   6.792
 5868SOL    HW129635   5.343   4.259   6.854
 5868SOL    HW229636   5.463   4.292   6.748
 5869SOL     OW29637   4.395   4.188   6.855
 5869SOL    HW129638   4.361   4.099   6.825
 5869SOL    HW229639   4.421   4.242   6.775
 5870SOL     OW29640   4.654   5.402   7.051
 5870SOL    HW129641   4.630   5.384   6.956
 5870SOL    HW229642   4.684   5.496   7.061
 5871SOL     OW29643   3.883   4.861   7.052
 5871SOL    HW129644   3.905   4.800   7.128
 5871SOL    HW229645   3.893   4.812   6.966
 5872SOL     OW29646   5.071   4.783   6.820
 5872SOL    HW129647   5.095   4.720   6.746
 5872SOL    HW229648   4.981   4.823   6.802
 5873SOL     OW29649   5.483   5.471   6.740
 5873SOL    HW129650   5.544   5.501   6.667
 5873SOL    HW229651   5.445   5.382   6.718
 5874SOL     OW29652   4.976   5.455   6.714
 5874SOL    HW129653   5.060   5.460   6.660
 5874SOL    HW229654   4.953   5.359   6.732
 5875SOL     OW29655   3.807   4.982   6.608
 5875SOL    HW129656   3.802   4.981   6.708
 5875SOL    HW229657   3.724   4.941   6.570
 5876SOL     OW29658   5.450   3.859   6.109
 5876SOL    HW129659   5.523   3.842   6.042
 5876SOL    HW229660   5.419   3.772   6.147
 5877SOL     OW29661   5.112   5.297   6.063
 5877SOL    HW129662   5.179   5.309   5.989
 5877SOL    HW229663   5.072   5.386   6.086
 5878SOL     OW29664   5.004   4.651   6.258
 5878SOL    HW129665   5.064   4.570   6.260
 5878SOL    HW229666   5.044   4.720   6.198
 5879SOL     OW29667   4.396   5.340   5.740
 5879SOL    HW129668   4.405   5.350   5.641
 5879SOL    HW229669   4.356   5.251   5.761
 5880SOL     OW29670   5.565   3.899   6.549
 5880SOL    HW129671   5.604   3.814   6.513
 5880SOL    HW229672   5.467   3.901   6.530
 5881SOL     OW29673   3.987   4.050   6.306
 5881SOL    HW129674   3.908   4.101   6.272
 5881SOL    HW229675   3.978   4.035   6.404
 5882SOL     OW29676   4.918   5.336   5.617
 5882SOL    HW129677   4.924   5.243   5.654
 5882SOL    HW229678   4.859   5.336   5.537
 5883SOL     OW29679   4.546   4.726   6.958
 5883SOL    HW129680   4.586   4.725   6.866
 5883SOL    HW229681   4.556   4.818   6.998
 5884SOL     OW29682   4.640   4.634   5.877
 5884SOL    HW129683   4.703   4.672   5.809
 5884SOL    HW229684   4.680   4.551   5.916
 5885SOL     OW29685   4.096   5.012   7.076
 5885SOL    HW129686   4.083   5.105   7.042
 5885SOL    HW229687   4.012   4.960   7.063
 5886SOL     OW29688   5.338   5.016   6.875
 5886SOL    HW129689   5.398   5.019   6.955
 5886SOL    HW229690   5.263   5.080   6.888
 5887SOL     OW29691   4.763   4.822   6.282
 5887SOL    HW129692   4.693   4.775   6.336
 5887SOL    HW229693   4.822   4.754   6.239
 5888SOL     OW29694   4.738   3.960   6.557
 5888SOL    HW129695   4.730   3.924   6.464
 5888SOL    HW229696   4.736   3.884   6.622
 5889SOL     OW29697   4.314   5.211   6.077
 5889SOL    HW129698   4.356   5.153   6.007
 5889SOL    HW229699   4.270   5.290   6.033
 5890SOL     OW29700   5.433   4.109   6.967
 5890SOL    HW129701   5.506   4.178   6.971
 5890SOL    HW229702   5.461   4.034   6.908
 5891SOL     OW29703   3.979   5.072   5.876
 5891SOL    HW129704   3.883   5.073   5.849
 5891SOL    HW229705   3.991   5.125   5.960
 5892SOL     OW29706   4.396   3.927   7.075
 5892SOL    HW129707   4.486   3.911   7.035
 5892SOL    HW229708   4.404   3.932   7.174
 5893SOL     OW29709   3.796   3.890   5.904
 5893SOL    HW129710   3.779   3.973   5.850
 5893SOL    HW229711   3.886   3.853   5.882
 5894SOL     OW29712   4.907   5.059   5.705
 5894SOL    HW129713   4.808   5.048   5.707
 5894SOL    HW229714   4.941   5.074   5.798
 5895SOL     OW29715   4.337   4.566   7.017
 5895SOL    HW129716   4.393   4.647   7.000
 5895SOL    HW229717   4.396   4.486   7.020
 5896SOL     OW29718   5.217   5.491   6.545
 5896SOL    HW129719   5.250   5.555   6.476
 5896SOL    HW229720   5.283   5.485   6.620
 5897SOL     OW29721   4.114   5.465   7.146
 5897SOL    HW129722   4.023   5.506   7.144
 5897SOL    HW229723   4.107   5.371   7.178
 5898SOL     OW29724   5.398   4.607   6.840
 5898SOL    HW129725   5.371   4.518   6.803
 5898SOL    HW229726   5.399   4.675   6.767
 5899SOL     OW29727   4.318   4.469   6.238
 5899SOL    HW129728   4.368   4.554   6.219
 5899SOL    HW229729   4.230   4.471   6.190
 5900SOL     OW29730   5.454   4.658   7.103
 5900SOL    HW129731   5.492   4.749   7.118
 5900SOL    HW229732   5.446   4.641   7.004
 5901SOL     OW29733   4.583   5.098   5.602
 5901SOL    HW129734   4.537   5.113   5.690
 5901SOL    HW229735   4.627   5.183   5.572
 5902SOL     OW29736   4.385   5.514   6.539
 5902SOL    HW129737   4.339   5.602   6.526
 5902SOL    HW229738   4.484   5.526   6.532
 5903SOL     OW29739   4.583   4.680   6.447
 5903SOL    HW129740   4.637   4.611   6.495
 5903SOL    HW229741   4.551   4.749   6.513
 5904SOL     OW29742   4.807   4.708   5.673
 5904SOL    HW129743   4.784   4.761   5.591
 5904SOL    HW229744   4.888   4.652   5.654
 5905SOL     OW29745   5.585   5.293   6.437
 5905SOL    HW129746   5.514   5.281   6.367
 5905SOL    HW229747   5.586   5.214   6.497
 5906SOL     OW29748   3.803   4.964   6.239
 5906SOL    HW129749   3.802   4.917   6.327
 5906SOL    HW229750   3.885   4.936   6.188
 5907SOL     OW29751   5.548   3.916   6.813
 5907SOL    HW129752   5.544   3.826   6.857
 5907SOL    HW229753   5.551   3.905   6.714
 5908SOL     OW29754   4.152   4.148   6.106
 5908SOL    HW129755   4.182   4.076   6.044
 5908SOL    HW229756   4.113   4.108   6.189
 5909SOL     OW29757   5.429   5.211   6.690
 5909SOL    HW129758   5.336   5.186   6.663
 5909SOL    HW229759   5.455   5.161   6.772
 5910SOL     OW29760   4.041   4.271   6.866
 5910SOL    HW129761   4.079   4.212   6.938
 5910SOL    HW229762   4.081   4.245   6.778
 5911SOL     OW29763   4.536   5.310   6.273
 5911SOL    HW129764   4.568   5.320   6.179
 5911SOL    HW229765   4.457   5.248   6.275
 5912SOL     OW29766   5.148   3.938   6.698
 5912SOL    HW129767   5.200   3.873   6.753
 5912SOL    HW229768   5.099   4.001   6.759
 5913SOL     OW29769   4.725   3.758   6.740
 5913SOL    HW129770   4.662   3.686   6.709
 5913SOL    HW229771   4.818   3.722   6.740
 5914SOL     OW29772   4.494   5.054   5.887
 5914SOL    HW129773   4.448   4.967   5.904
 5914SOL    HW229774   4.585   5.051   5.928
 5915SOL     OW29775   4.342   5.291   6.870
 5915SOL    HW129776   4.337   5.373   6.927
 5915SOL    HW229777   4.431   5.288   6.825
 5916SOL     OW29778   5.024   4.177   6.277
 5916SOL    HW129779   4.965   4.257   6.281
 5916SOL    HW229780   5.039   4.142   6.370
 5917SOL     OW29781   5.317   3.945   6.468
 5917SOL    HW129782   5.233   3.944   6.522
 5917SOL    HW229783   5.319   4.028   6.412
 5918SOL     OW29784   3.763   4.801   5.886
 5918SOL    HW129785   3.862   4.790   5.877
 5918SOL    HW229786   3.723   4.715   5.918
 5919SOL     OW29787   4.599   5.370   5.923
 5919SOL    HW129788   4.522   5.335   5.869
 5919SOL    HW229789   4.567   5.441   5.985
 5920SOL     OW29790   3.954   6.214   0.113
 5920SOL    HW129791   3.861   6.212   0.150
 5920SOL    HW229792   3.955   6.175   0.021
 5921SOL     OW29793   3.949   5.861   0.996
 5921SOL    HW129794   3.984   5.844   1.088
 5921SOL    HW229795   3.861   5.816   0.984
 5922SOL     OW29796   3.743   5.954   0.647
 5922SOL    HW129797   3.661   5.997   0.686
 5922SOL    HW229798   3.715   5.881   0.584
 5923SOL     OW29799   4.293   6.861   1.165
 5923SOL    HW129800   4.200   6.854   1.128
 5923SOL    HW229801   4.304   6.950   1.209
 5924SOL     OW29802   5.279   7.097   0.703
 5924SOL    HW129803   5.222   7.081   0.784
 5924SOL    HW229804   5.220   7.107   0.623
 5925SOL     OW29805   4.859   6.289   0.717
 5925SOL    HW129806   4.916   6.367   0.692
 5925SOL    HW229807   4.799   6.315   0.793
 5926SOL     OW29808   5.479   6.193   0.231
 5926SOL    HW129809   5.467   6.180   0.132
 5926SOL    HW229810   5.449   6.112   0.280
 5927SOL     OW29811   4.492   6.730   1.023
 5927SOL    HW129812   4.414   6.747   1.083
 5927SOL    HW229813   4.526   6.817   0.987
 5928SOL     OW29814   4.574   6.384   1.823
 5928SOL    HW129815   4.570   6.460   1.888
 5928SOL    HW229816   4.596   6.420   1.732
 5929SOL     OW29817   4.409   6.598   0.665
 5929SOL    HW129818   4.478   6.582   0.735
 5929SOL    HW229819   4.336   6.655   0.703
 5930SOL     OW29820   4.410   6.747   1.803
 5930SOL    HW129821   4.470   6.826   1.817
 5930SOL    HW229822   4.324   6.778   1.762
 5931SOL     OW29823   4.059   7.021   1.061
 5931SOL    HW129824   3.981   6.990   1.008
 5931SOL    HW229825   4.117   7.079   1.004
 5932SOL     OW29826   5.184   7.091   1.339
 5932SOL    HW129827   5.208   7.185   1.365
 5932SOL    HW229828   5.168   7.037   1.421
 5933SOL     OW29829   4.162   5.978   1.499
 5933SOL    HW129830   4.244   5.922   1.508
 5933SOL    HW229831   4.081   5.920   1.503
 5934SOL     OW29832   5.327   6.033   0.737
 5934SOL    HW129833   5.253   6.079   0.687
 5934SOL    HW229834   5.378   6.101   0.790
 5935SOL     OW29835   3.955   7.299   0.483
 5935SOL    HW129836   3.989   7.376   0.537
 5935SOL    HW229837   3.999   7.299   0.393
 5936SOL     OW29838   4.851   6.927   1.690
 5936SOL    HW129839   4.898   6.927   1.778
 5936SOL    HW229840   4.803   6.840   1.679
 5937SOL     OW29841   3.954   7.020   0.538
 5937SOL    HW129842   3.928   7.116   0.538
 5937SOL    HW229843   3.883   6.966   0.583
 5938SOL     OW29844   3.964   6.677   0.886
 5938SOL    HW129845   3.978   6.593   0.938
 5938SOL    HW229846   3.909   6.741   0.941
 5939SOL     OW29847   4.344   7.372   1.439
 5939SOL    HW129848   4.252   7.355   1.474
 5939SOL    HW229849   4.372   7.464   1.465
 5940SOL     OW29850   4.330   6.550   0.123
 5940SOL    HW129851   4.337   6.634   0.069
 5940SOL    HW229852   4.376   6.563   0.211
 5941SOL     OW29853   5.318   5.700   1.480
 5941SOL    HW129854   5.300   5.767   1.408
 5941SOL    HW229855   5.315   5.746   1.569
 5942SOL     OW29856   3.846   6.229   0.563
 5942SOL    HW129857   3.801   6.141   0.580
 5942SOL    HW229858   3.845   6.283   0.647
 5943SOL     OW29859   5.566   7.353   0.359
 5943SOL    HW129860   5.620   7.324   0.439
 5943SOL    HW229861   5.596   7.443   0.330
 5944SOL     OW29862   3.751   7.182   0.117
 5944SOL    HW129863   3.732   7.086   0.138
 5944SOL    HW229864   3.718   7.240   0.192
 5945SOL     OW29865   5.413   6.508   0.612
 5945SOL    HW129866   5.508   6.479   0.620
 5945SOL    HW229867   5.405   6.573   0.537
 5946SOL     OW29868   5.365   6.694   0.432
 5946SOL    HW129869   5.451   6.696   0.380
 5946SOL    HW229870   5.379   6.741   0.520
 5947SOL     OW29871   3.837   6.323   1.597
 5947SOL    HW129872   3.925   6.310   1.642
 5947SOL    HW229873   3.824   6.420   1.575
 5948SOL     OW29874   4.337   6.951   0.726
 5948SOL    HW129875   4.288   6.864   0.735
 5948SOL    HW229876   4.314   6.994   0.639
 5949SOL     OW29877   5.017   6.814   1.423
 5949SOL    HW129878   5.054   6.741   1.365
 5949SOL    HW229879   5.069   6.819   1.508
 5950SOL     OW29880   4.533   5.590   0.502
 5950SOL    HW129881   4.573   5.681   0.493
 5950SOL    HW229882   4.433   5.598   0.508
 5951SOL     OW29883   3.921   6.562   1.264
 5951SOL    HW129884   4.010   6.517   1.250
 5951SOL    HW229885   3.848   6.497   1.245
 5952SOL     OW29886   5.249   6.585   0.190
 5952SOL    HW129887   5.186   6.509   0.203
 5952SOL    HW229888   5.297   6.603   0.276
 5953SOL     OW29889   5.190   7.003   0.953
 5953SOL    HW129890   5.131   7.009   1.033
 5953SOL    HW229891   5.175   6.915   0.907
 5954SOL     OW29892   5.391   7.300   0.572
 5954SOL    HW129893   5.350   7.277   0.484
 5954SOL    HW229894   5.373   7.226   0.637
 5955SOL     OW29895   4.322   6.315   0.270
 5955SOL    HW129896   4.346   6.384   0.202
 5955SOL    HW229897   4.244   6.348   0.324
 5956SOL     OW29898   5.005   5.931   0.944
 5956SOL    HW129899   4.919   5.881   0.931
 5956SOL    HW229900   5.067   5.877   1.000
 5957SOL     OW29901   5.300   7.248   0.307
 5957SOL    HW129902   5.389   7.294   0.310
 5957SOL    HW229903   5.279   7.224   0.212
 5958SOL     OW29904   4.531   6.191   1.465
 5958SOL    HW129905   4.484   6.188   1.554
 5958SOL    HW229906   4.480   6.136   1.399
 5959SOL     OW29907   4.697   6.476   1.572
 5959SOL    HW129908   4.743   6.392   1.543
 5959SOL    HW229909   4.641   6.510   1.497
 5960SOL     OW29910   4.715   5.996   1.242
 5960SOL    HW129911   4.638   6.030   1.296
 5960SOL    HW229912   4.681   5.945   1.163
 5961SOL     OW29913   4.765   6.287   0.429
 5961SOL    HW129914   4.791   6.283   0.525
 5961SOL    HW229915   4.680   6.236   0.415
 5962SOL     OW29916   3.800   6.397   0.789
 5962SOL    HW129917   3.899   6.385   0.798
 5962SOL    HW229918   3.776   6.492   0.810
 5963SOL     OW29919   3.854   7.407   1.571
 5963SOL    HW129920   3.844   7.392   1.670
 5963SOL    HW229921   3.768   7.443   1.535
 5964SOL     OW29922   4.589   5.934   0.195
 5964SOL    HW129923   4.648   5.997   0.146
 5964SOL    HW229924   4.608   5.840   0.166
 5965SOL     OW29925   5.443   6.171   1.831
 5965SOL    HW129926   5.417   6.260   1.795
 5965SOL    HW229927   5.441   6.103   1.758
 5966SOL     OW29928   5.086   6.730   0.545
 5966SOL    HW129929   5.169   6.701   0.497
 5966SOL    HW229930   5.037   6.797   0.489
 5967SOL     OW29931   4.274   5.782   0.885
 5967SOL    HW129932   4.269   5.777   0.985
 5967SOL    HW229933   4.276   5.878   0.856
 5968SOL     OW29934   4.732   7.042   0.477
 5968SOL    HW129935   4.686   7.114   0.425
 5968SOL    HW229936   4.728   7.062   0.575
 5969SOL     OW29937   4.075   7.387   0.853
 5969SOL    HW129938   4.125   7.301   0.859
 5969SOL    HW229939   4.140   7.464   0.850
 5970SOL     OW29940   5.519   6.652   0.873
 5970SOL    HW129941   5.457   6.637   0.797
 5970SOL    HW229942   5.467   6.663   0.958
 5971SOL     OW29943   4.951   7.136   1.506
 5971SOL    HW129944   4.957   7.059   1.570
 5971SOL    HW229945   4.899   7.110   1.426
 5972SOL     OW29946   4.045   6.529   0.242
 5972SOL    HW129947   4.127   6.568   0.200
 5972SOL    HW229948   4.018   6.447   0.193
 5973SOL     OW29949   5.182   6.321   0.728
 5973SOL    HW129950   5.177   6.256   0.803
 5973SOL    HW229951   5.262   6.380   0.741
 5974SOL     OW29952   4.185   6.852   1.727
 5974SOL    HW129953   4.135   6.853   1.641
 5974SOL    HW229954   4.122   6.834   1.803
 5975SOL     OW29955   4.835   7.362   0.237
 5975SOL    HW129956   4.775   7.300   0.287
 5975SOL    HW229957   4.866   7.318   0.152
 5976SOL     OW29958   3.926   5.871   1.498
 5976SOL    HW129959   3.846   5.931   1.485
 5976SOL    HW229960   3.916   5.822   1.584
 5977SOL     OW29961   5.356   6.963   0.081
 5977SOL    HW129962   5.324   7.057   0.071
 5977SOL    HW229963   5.280   6.900   0.069
 5978SOL     OW29964   4.188   7.329   0.323
 5978SOL    HW129965   4.221   7.368   0.409
 5978SOL    HW229966   4.264   7.322   0.258
 5979SOL     OW29967   5.124   5.693   0.426
 5979SOL    HW129968   5.100   5.656   0.336
 5979SOL    HW229969   5.223   5.709   0.430
 5980SOL     OW29970   3.973   7.371   1.241
 5980SOL    HW129971   4.030   7.306   1.291
 5980SOL    HW229972   3.957   7.338   1.148
 5981SOL     OW29973   4.664   7.284   0.904
 5981SOL    HW129974   4.744   7.227   0.925
 5981SOL    HW229975   4.615   7.244   0.827
 5982SOL     OW29976   4.106   6.286   0.480
 5982SOL    HW129977   4.151   6.196   0.477
 5982SOL    HW229978   4.012   6.275   0.513
 5983SOL     OW29979   4.505   5.850   1.749
 5983SOL    HW129980   4.572   5.789   1.792
 5983SOL    HW229981   4.432   5.869   1.814
 5984SOL     OW29982   4.612   7.100   1.195
 5984SOL    HW129983   4.589   7.075   1.101
 5984SOL    HW229984   4.673   7.031   1.234
 5985SOL     OW29985   5.075   6.176   1.433
 5985SOL    HW129986   5.103   6.133   1.518
 5985SOL    HW229987   5.100   6.272   1.434
 5986SOL     OW29988   4.527   6.988   0.924
 5986SOL    HW129989   4.617   7.002   0.882
 5986SOL    HW229990   4.456   6.990   0.853
 5987SOL     OW29991   4.646   6.089   0.899
 5987SOL    HW129992   4.621   6.080   0.803
 5987SOL    HW229993   4.694   6.007   0.930
 5988SOL     OW29994   4.263   5.650   0.512
 5988SOL    HW129995   4.182   5.651   0.570
 5988SOL    HW229996   4.266   5.733   0.457
 5989SOL     OW29997   5.158   6.774   0.041
 5989SOL    HW129998   5.190   6.698   0.098
 5989SOL    HW229999   5.066   6.801   0.071
 5990SOL     OW30000   4.659   5.822   0.480
 5990SOL    HW130001   4.611   5.863   0.402
 5990SOL    HW230002   4.758   5.820   0.461
 5991SOL     OW30003   4.800   6.269   1.464
 5991SOL    HW130004   4.720   6.208   1.467
 5991SOL    HW230005   4.881   6.216   1.440
 5992SOL     OW30006   4.951   7.156   0.793
 5992SOL    HW130007   4.972   7.230   0.728
 5992SOL    HW230008   5.019   7.156   0.866
 5993SOL     OW30009   4.183   6.738   0.741
 5993SOL    HW130010   4.112   6.711   0.806
 5993SOL    HW230011   4.157   6.710   0.648
 5994SOL     OW30012   4.995   7.383   0.591
 5994SOL    HW130013   5.039   7.447   0.527
 5994SOL    HW230014   4.945   7.435   0.661
 5995SOL     OW30015   4.756   6.135   0.016
 5995SOL    HW130016   4.715   6.217  -0.023
 5995SOL    HW230017   4.820   6.161   0.089
 5996SOL     OW30018   3.802   6.142   1.386
 5996SOL    HW130019   3.894   6.141   1.345
 5996SOL    HW230020   3.796   6.216   1.453
 5997SOL     OW30021   4.285   5.808   1.147
 5997SOL    HW130022   4.323   5.724   1.184
 5997SOL    HW230023   4.197   5.827   1.191
 5998SOL     OW30024   4.590   6.040   0.642
 5998SOL    HW130025   4.558   6.112   0.580
 5998SOL    HW230026   4.614   5.959   0.589
 5999SOL     OW30027   4.741   5.625   0.753
 5999SOL    HW130028   4.669   5.630   0.684
 5999SOL    HW230029   4.717   5.556   0.822
 6000SOL     OW30030   5.153   6.759   0.867
 6000SOL    HW130031   5.098   6.675   0.860
 6000SOL    HW230032   5.179   6.788   0.775
 6001SOL     OW30033   5.190   6.176   0.992
 6001SOL    HW130034   5.160   6.081   0.999
 6001SOL    HW230035   5.263   6.192   1.058
 6002SOL     OW30036   5.581   6.419   0.377
 6002SOL    HW130037   5.623   6.355   0.441
 6002SOL    HW230038   5.543   6.368   0.299
 6003SOL     OW30039   4.212   6.971   0.174
 6003SOL    HW130040   4.125   6.956   0.221
 6003SOL    HW230041   4.195   6.997   0.079
 6004SOL     OW30042   5.388   6.866   0.657
 6004SOL    HW130043   5.487   6.874   0.671
 6004SOL    HW230044   5.343   6.950   0.688
 6005SOL     OW30045   5.114   6.161   0.078
 6005SOL    HW130046   5.060   6.140   0.159
 6005SOL    HW230047   5.205   6.120   0.087
 6006SOL     OW30048   4.251   5.842   0.328
 6006SOL    HW130049   4.278   5.783   0.253
 6006SOL    HW230050   4.251   5.937   0.297
 6007SOL     OW30051   5.478   6.809   1.588
 6007SOL    HW130052   5.569   6.770   1.575
 6007SOL    HW230053   5.486   6.905   1.612
 6008SOL     OW30054   4.788   6.933   1.340
 6008SOL    HW130055   4.708   6.910   1.395
 6008SOL    HW230056   4.871   6.907   1.389
 6009SOL     OW30057   4.835   6.781   1.100
 6009SOL    HW130058   4.795   6.825   1.181
 6009SOL    HW230059   4.794   6.818   1.017
 6010SOL     OW30060   5.362   6.685   1.079
 6010SOL    HW130061   5.367   6.766   1.138
 6010SOL    HW230062   5.276   6.687   1.028
 6011SOL     OW30063   4.639   5.675   1.402
 6011SOL    HW130064   4.664   5.655   1.307
 6011SOL    HW230065   4.711   5.731   1.444
 6012SOL     OW30066   4.704   6.702   1.719
 6012SOL    HW130067   4.605   6.708   1.729
 6012SOL    HW230068   4.727   6.622   1.663
 6013SOL     OW30069   4.429   6.636   0.368
 6013SOL    HW130070   4.415   6.643   0.467
 6013SOL    HW230071   4.513   6.585   0.350
 6014SOL     OW30072   4.134   6.399   1.251
 6014SOL    HW130073   4.220   6.411   1.301
 6014SOL    HW230074   4.092   6.312   1.278
 6015SOL     OW30075   4.998   5.972   1.262
 6015SOL    HW130076   5.019   6.046   1.326
 6015SOL    HW230077   4.909   5.989   1.219
 6016SOL     OW30078   3.788   7.150   1.331
 6016SOL    HW130079   3.742   7.232   1.297
 6016SOL    HW230080   3.886   7.169   1.340
 6017SOL     OW30081   4.091   6.686   0.501
 6017SOL    HW130082   4.084   6.769   0.445
 6017SOL    HW230083   4.095   6.606   0.441
 6018SOL     OW30084   4.290   6.123   0.865
 6018SOL    HW130085   4.302   6.189   0.791
 6018SOL    HW230086   4.336   6.157   0.948
 6019SOL     OW30087   4.976   6.934   0.388
 6019SOL    HW130088   5.026   7.011   0.428
 6019SOL    HW230089   4.881   6.936   0.420
 6020SOL     OW30090   4.996   7.031   1.142
 6020SOL    HW130091   5.043   7.044   1.229
 6020SOL    HW230092   4.930   6.957   1.151
 6021SOL     OW30093   5.306   6.225   0.472
 6021SOL    HW130094   5.275   6.286   0.545
 6021SOL    HW230095   5.356   6.277   0.403
 6022SOL     OW30096   4.078   7.096   1.329
 6022SOL    HW130097   4.057   7.052   1.242
 6022SOL    HW230098   4.175   7.122   1.332
 6023SOL     OW30099   4.126   6.337   1.598
 6023SOL    HW130100   4.194   6.392   1.551
 6023SOL    HW230101   4.166   6.249   1.625
 6024SOL     OW30102   5.311   6.365   1.670
 6024SOL    HW130103   5.219   6.403   1.665
 6024SOL    HW230104   5.371   6.412   1.605
 6025SOL     OW30105   4.737   5.691   1.770
 6025SOL    HW130106   4.743   5.776   1.718
 6025SOL    HW230107   4.769   5.615   1.713
 6026SOL     OW30108   4.297   6.456   1.029
 6026SOL    HW130109   4.341   6.545   1.020
 6026SOL    HW230110   4.234   6.456   1.106
 6027SOL     OW30111   5.084   6.448   1.045
 6027SOL    HW130112   5.009   6.448   0.979
 6027SOL    HW230113   5.121   6.356   1.054
 6028SOL     OW30114   4.933   6.111   0.275
 6028SOL    HW130115   4.946   6.027   0.329
 6028SOL    HW230116   4.904   6.185   0.335
 6029SOL     OW30117   4.031   5.799   1.231
 6029SOL    HW130118   4.008   5.836   1.321
 6029SOL    HW230119   4.001   5.704   1.225
 6030SOL     OW30120   3.761   6.896   1.282
 6030SOL    HW130121   3.814   6.847   1.350
 6030SOL    HW230122   3.783   6.994   1.287
 6031SOL     OW30123   4.456   6.220   1.064
 6031SOL    HW130124   4.515   6.194   0.988
 6031SOL    HW230125   4.428   6.316   1.053
 6032SOL     OW30126   4.031   5.649   0.618
 6032SOL    HW130127   4.020   5.743   0.651
 6032SOL    HW230128   4.026   5.586   0.695
 6033SOL     OW30129   5.346   5.953   0.374
 6033SOL    HW130130   5.348   5.877   0.438
 6033SOL    HW230131   5.298   6.030   0.414
 6034SOL     OW30132   4.747   6.352   0.966
 6034SOL    HW130133   4.762   6.373   1.062
 6034SOL    HW230134   4.717   6.257   0.957
 6035SOL     OW30135   5.583   7.104   1.605
 6035SOL    HW130136   5.597   7.131   1.510
 6035SOL    HW230137   5.666   7.126   1.658
 6036SOL     OW30138   4.074   6.484   1.804
 6036SOL    HW130139   4.150   6.528   1.852
 6036SOL    HW230140   4.109   6.437   1.722
 6037SOL     OW30141   5.264   5.860   0.125
 6037SOL    HW130142   5.203   5.785   0.148
 6037SOL    HW230143   5.286   5.912   0.208
 6038SOL     OW30144   5.027   6.424   0.042
 6038SOL    HW130145   5.061   6.331   0.057
 6038SOL    HW230146   5.045   6.451  -0.053
 6039SOL     OW30147   4.792   6.919   0.849
 6039SOL    HW130148   4.799   6.835   0.794
 6039SOL    HW230149   4.854   6.988   0.813
 6040SOL     OW30150   4.043   6.396   0.949
 6040SOL    HW130151   4.136   6.432   0.954
 6040SOL    HW230152   4.037   6.311   1.001
 6041SOL     OW30153   4.063   6.095   1.006
 6041SOL    HW130154   4.011   6.012   0.989
 6041SOL    HW230155   4.140   6.100   0.942
 6042SOL     OW30156   4.884   5.793   1.477
 6042SOL    HW130157   4.884   5.857   1.554
 6042SOL    HW230158   4.912   5.841   1.394
 6043SOL     OW30159   3.732   6.912   0.200
 6043SOL    HW130160   3.639   6.933   0.169
 6043SOL    HW230161   3.742   6.813   0.213
 6044SOL     OW30162   3.812   7.387   0.927
 6044SOL    HW130163   3.770   7.301   0.900
 6044SOL    HW230164   3.906   7.390   0.893
 6045SOL     OW30165   4.228   7.154   0.910
 6045SOL    HW130166   4.294   7.228   0.919
 6045SOL    HW230167   4.272   7.075   0.868
 6046SOL     OW30168   4.726   6.382   1.238
 6046SOL    HW130169   4.767   6.350   1.324
 6046SOL    HW230170   4.630   6.355   1.235
 6047SOL     OW30171   3.764   6.130   1.114
 6047SOL    HW130172   3.849   6.097   1.073
 6047SOL    HW230173   3.777   6.145   1.212
 6048SOL     OW30174   3.913   6.106   1.722
 6048SOL    HW130175   3.972   6.066   1.652
 6048SOL    HW230176   3.855   6.177   1.681
 6049SOL     OW30177   5.093   6.536   1.660
 6049SOL    HW130178   5.132   6.625   1.680
 6049SOL    HW230179   5.103   6.516   1.563
 6050SOL     OW30180   4.539   6.158   0.325
 6050SOL    HW130181   4.546   6.069   0.279
 6050SOL    HW230182   4.445   6.192   0.317
 6051SOL     OW30183   5.381   6.190   1.206
 6051SOL    HW130184   5.343   6.121   1.268
 6051SOL    HW230185   5.463   6.154   1.162
 6052SOL     OW30186   3.976   7.150   1.744
 6052SOL    HW130187   3.946   7.207   1.820
 6052SOL    HW230188   3.969   7.053   1.770
 6053SOL     OW30189   4.395   6.050   1.269
 6053SOL    HW130190   4.361   5.961   1.239
 6053SOL    HW230191   4.421   6.104   1.189
 6054SOL     OW30192   4.654   7.264   1.465
 6054SOL    HW130193   4.630   7.246   1.370
 6054SOL    HW230194   4.684   7.358   1.475
 6055SOL     OW30195   4.197   6.086   0.191
 6055SOL    HW130196   4.258   6.166   0.195
 6055SOL    HW230197   4.102   6.117   0.198
 6056SOL     OW30198   3.883   6.723   1.466
 6056SOL    HW130199   3.905   6.662   1.542
 6056SOL    HW230200   3.893   6.674   1.380
 6057SOL     OW30201   5.071   6.645   1.234
 6057SOL    HW130202   5.095   6.582   1.160
 6057SOL    HW230203   4.981   6.685   1.216
 6058SOL     OW30204   5.026   6.441   0.309
 6058SOL    HW130205   4.940   6.410   0.351
 6058SOL    HW230206   5.022   6.427   0.210
 6059SOL     OW30207   5.483   7.333   1.154
 6059SOL    HW130208   5.544   7.363   1.081
 6059SOL    HW230209   5.445   7.244   1.132
 6060SOL     OW30210   4.976   7.317   1.128
 6060SOL    HW130211   5.060   7.322   1.074
 6060SOL    HW230212   4.953   7.221   1.146
 6061SOL     OW30213   3.807   6.844   1.022
 6061SOL    HW130214   3.802   6.843   1.122
 6061SOL    HW230215   3.724   6.803   0.984
 6062SOL     OW30216   4.412   7.248   1.716
 6062SOL    HW130217   4.356   7.329   1.725
 6062SOL    HW230218   4.464   7.252   1.630
 6063SOL     OW30219   4.627   5.672   0.133
 6063SOL    HW130220   4.678   5.673   0.047
 6063SOL    HW230221   4.683   5.630   0.204
 6064SOL     OW30222   5.450   5.721   0.523
 6064SOL    HW130223   5.523   5.704   0.456
 6064SOL    HW230224   5.419   5.634   0.561
 6065SOL     OW30225   5.112   7.159   0.477
 6065SOL    HW130226   5.179   7.171   0.403
 6065SOL    HW230227   5.072   7.248   0.500
 6066SOL     OW30228   5.004   6.513   0.672
 6066SOL    HW130229   5.064   6.432   0.674
 6066SOL    HW230230   5.044   6.582   0.612
 6067SOL     OW30231   4.554   6.859   1.422
 6067SOL    HW130232   4.549   6.892   1.517
 6067SOL    HW230233   4.468   6.878   1.376
 6068SOL     OW30234   4.396   7.202   0.154
 6068SOL    HW130235   4.405   7.212   0.055
 6068SOL    HW230236   4.356   7.113   0.175
 6069SOL     OW30237   5.374   7.306   1.394
 6069SOL    HW130238   5.427   7.316   1.310
 6069SOL    HW230239   5.347   7.396   1.428
 6070SOL     OW30240   5.565   5.761   0.963
 6070SOL    HW130241   5.604   5.676   0.927
 6070SOL    HW230242   5.467   5.763   0.944
 6071SOL     OW30243   3.987   5.912   0.720
 6071SOL    HW130244   3.908   5.963   0.686
 6071SOL    HW230245   3.978   5.897   0.818
 6072SOL     OW30246   4.918   7.198   0.031
 6072SOL    HW130247   4.924   7.105   0.068
 6072SOL    HW230248   4.859   7.198  -0.049
 6073SOL     OW30249   4.546   6.588   1.372
 6073SOL    HW130250   4.586   6.587   1.280
 6073SOL    HW230251   4.556   6.680   1.412
 6074SOL     OW30252   4.640   6.496   0.291
 6074SOL    HW130253   4.703   6.534   0.223
 6074SOL    HW230254   4.680   6.413   0.330
 6075SOL     OW30255   5.228   7.193   0.044
 6075SOL    HW130256   5.136   7.230   0.051
 6075SOL    HW230257   5.266   7.213  -0.046
 6076SOL     OW30258   4.096   6.874   1.490
 6076SOL    HW130259   4.083   6.967   1.456
 6076SOL    HW230260   4.012   6.822   1.477
 6077SOL     OW30261   5.338   6.878   1.289
 6077SOL    HW130262   5.398   6.881   1.369
 6077SOL    HW230263   5.263   6.942   1.302
 6078SOL     OW30264   4.763   6.684   0.696
 6078SOL    HW130265   4.693   6.637   0.750
 6078SOL    HW230266   4.822   6.616   0.653
 6079SOL     OW30267   4.738   5.822   0.971
 6079SOL    HW130268   4.730   5.786   0.878
 6079SOL    HW230269   4.736   5.746   1.036
 6080SOL     OW30270   4.314   7.073   0.491
 6080SOL    HW130271   4.356   7.015   0.421
 6080SOL    HW230272   4.270   7.152   0.447
 6081SOL     OW30273   5.433   5.971   1.381
 6081SOL    HW130274   5.506   6.040   1.385
 6081SOL    HW230275   5.461   5.896   1.322
 6082SOL     OW30276   3.979   6.934   0.290
 6082SOL    HW130277   3.883   6.935   0.263
 6082SOL    HW230278   3.991   6.987   0.374
 6083SOL     OW30279   3.829   6.599   1.726
 6083SOL    HW130280   3.752   6.566   1.780
 6083SOL    HW230281   3.914   6.569   1.768
 6084SOL     OW30282   4.396   5.789   1.489
 6084SOL    HW130283   4.486   5.773   1.449
 6084SOL    HW230284   4.404   5.794   1.588
 6085SOL     OW30285   3.799   5.931   0.033
 6085SOL    HW130286   3.707   5.903   0.004
 6085SOL    HW230287   3.830   6.008  -0.023
 6086SOL     OW30288   5.164   6.442   1.398
 6086SOL    HW130289   5.107   6.494   1.335
 6086SOL    HW230290   5.260   6.454   1.374
 6087SOL     OW30291   3.796   5.752   0.318
 6087SOL    HW130292   3.779   5.835   0.264
 6087SOL    HW230293   3.886   5.715   0.296
 6088SOL     OW30294   4.907   6.921   0.119
 6088SOL    HW130295   4.808   6.910   0.121
 6088SOL    HW230296   4.941   6.936   0.212
 6089SOL     OW30297   4.337   6.428   1.431
 6089SOL    HW130298   4.393   6.509   1.414
 6089SOL    HW230299   4.396   6.348   1.434
 6090SOL     OW30300   5.217   7.353   0.959
 6090SOL    HW130301   5.250   7.417   0.890
 6090SOL    HW230302   5.283   7.347   1.034
 6091SOL     OW30303   4.440   6.151   1.708
 6091SOL    HW130304   4.459   6.216   1.782
 6091SOL    HW230305   4.500   6.071   1.717
 6092SOL     OW30306   5.174   6.806   1.633
 6092SOL    HW130307   5.165   6.796   1.732
 6092SOL    HW230308   5.270   6.799   1.607
 6093SOL     OW30309   4.114   7.327   1.560
 6093SOL    HW130310   4.023   7.368   1.558
 6093SOL    HW230311   4.107   7.233   1.592
 6094SOL     OW30312   5.398   6.469   1.254
 6094SOL    HW130313   5.371   6.380   1.217
 6094SOL    HW230314   5.399   6.537   1.181
 6095SOL     OW30315   4.949   5.911   0.449
 6095SOL    HW130316   5.014   5.837   0.438
 6095SOL    HW230317   4.969   5.961   0.533
 6096SOL     OW30318   4.318   6.331   0.652
 6096SOL    HW130319   4.368   6.416   0.633
 6096SOL    HW230320   4.230   6.333   0.604
 6097SOL     OW30321   5.454   6.520   1.517
 6097SOL    HW130322   5.492   6.611   1.532
 6097SOL    HW230323   5.446   6.503   1.418
 6098SOL     OW30324   4.583   6.960   0.016
 6098SOL    HW130325   4.537   6.975   0.104
 6098SOL    HW230326   4.627   7.045  -0.014
 6099SOL     OW30327   4.385   7.376   0.953
 6099SOL    HW130328   4.339   7.464   0.940
 6099SOL    HW230329   4.484   7.388   0.946
 6100SOL     OW30330   4.583   6.542   0.861
 6100SOL    HW130331   4.637   6.473   0.909
 6100SOL    HW230332   4.551   6.611   0.927
 6101SOL     OW30333   4.807   6.570   0.087
 6101SOL    HW130334   4.784   6.623   0.005
 6101SOL    HW230335   4.888   6.514   0.068
 6102SOL     OW30336   5.585   7.155   0.851
 6102SOL    HW130337   5.514   7.143   0.781
 6102SOL    HW230338   5.586   7.076   0.911
 6103SOL     OW30339   3.945   6.900   1.844
 6103SOL    HW130340   3.880   6.827   1.823
 6103SOL    HW230341   3.949   6.914   1.942
 6104SOL     OW30342   3.803   6.826   0.653
 6104SOL    HW130343   3.802   6.779   0.741
 6104SOL    HW230344   3.885   6.798   0.602
 6105SOL     OW30345   4.396   6.977   1.624
 6105SOL    HW130346   4.318   6.927   1.662
 6105SOL    HW230347   4.393   7.072   1.655
 6106SOL     OW30348   5.548   5.778   1.227
 6106SOL    HW130349   5.544   5.688   1.271
 6106SOL    HW230350   5.551   5.767   1.128
 6107SOL     OW30351   4.152   6.010   0.520
 6107SOL    HW130352   4.182   5.938   0.458
 6107SOL    HW230353   4.113   5.970   0.603
 6108SOL     OW30354   5.429   7.073   1.104
 6108SOL    HW130355   5.336   7.048   1.077
 6108SOL    HW230356   5.455   7.023   1.186
 6109SOL     OW30357   4.041   6.133   1.280
 6109SOL    HW130358   4.079   6.074   1.352
 6109SOL    HW230359   4.081   6.107   1.192
 6110SOL     OW30360   4.536   7.172   0.687
 6110SOL    HW130361   4.568   7.182   0.593
 6110SOL    HW230362   4.457   7.110   0.689
 6111SOL     OW30363   5.148   5.800   1.112
 6111SOL    HW130364   5.200   5.735   1.167
 6111SOL    HW230365   5.099   5.863   1.173
 6112SOL     OW30366   4.725   5.620   1.154
 6112SOL    HW130367   4.662   5.548   1.123
 6112SOL    HW230368   4.818   5.584   1.154
 6113SOL     OW30369   4.494   6.916   0.301
 6113SOL    HW130370   4.448   6.829   0.318
 6113SOL    HW230371   4.585   6.913   0.342
 6114SOL     OW30372   4.342   7.153   1.284
 6114SOL    HW130373   4.337   7.235   1.341
 6114SOL    HW230374   4.431   7.150   1.239
 6115SOL     OW30375   5.076   5.638   0.168
 6115SOL    HW130376   5.111   5.597   0.084
 6115SOL    HW230377   4.986   5.600   0.188
 6116SOL     OW30378   5.024   6.039   0.691
 6116SOL    HW130379   4.965   6.119   0.695
 6116SOL    HW230380   5.039   6.004   0.784
 6117SOL     OW30381   5.317   5.807   0.882
 6117SOL    HW130382   5.233   5.806   0.936
 6117SOL    HW230383   5.319   5.890   0.826
 6118SOL     OW30384   3.763   6.663   0.300
 6118SOL    HW130385   3.862   6.652   0.291
 6118SOL    HW230386   3.723   6.577   0.332
 6119SOL     OW30387   4.599   7.232   0.337
 6119SOL    HW130388   4.522   7.197   0.283
 6119SOL    HW230389   4.567   7.303   0.399
 6120SOL     OW30390   3.954   6.214   1.975
 6120SOL    HW130391   3.861   6.212   2.012
 6120SOL    HW230392   3.955   6.175   1.883
 6121SOL     OW30393   3.949   5.861   2.858
 6121SOL    HW130394   3.984   5.844   2.950
 6121SOL    HW230395   3.861   5.816   2.846
 6122SOL     OW30396   4.574   6.384   3.685
 6122SOL    HW130397   4.570   6.460   3.750
 6122SOL    HW230398   4.596   6.420   3.594
 6123SOL     OW30399   4.410   6.747   3.665
 6123SOL    HW130400   4.470   6.826   3.679
 6123SOL    HW230401   4.324   6.778   3.624
 6124SOL     OW30402   4.851   6.927   3.552
 6124SOL    HW130403   4.898   6.927   3.640
 6124SOL    HW230404   4.803   6.840   3.541
 6125SOL     OW30405   3.954   7.020   2.400
 6125SOL    HW130406   3.928   7.116   2.400
 6125SOL    HW230407   3.883   6.966   2.445
 6126SOL     OW30408   4.344   7.372   3.301
 6126SOL    HW130409   4.252   7.355   3.336
 6126SOL    HW230410   4.372   7.464   3.327
 6127SOL     OW30411   4.330   6.550   1.985
 6127SOL    HW130412   4.337   6.634   1.931
 6127SOL    HW230413   4.376   6.563   2.073
 6128SOL     OW30414   5.413   6.508   2.474
 6128SOL    HW130415   5.508   6.479   2.482
 6128SOL    HW230416   5.405   6.573   2.399
 6129SOL     OW30417   5.365   6.694   2.294
 6129SOL    HW130418   5.451   6.696   2.242
 6129SOL    HW230419   5.379   6.741   2.382
 6130SOL     OW30420   3.837   6.323   3.459
 6130SOL    HW130421   3.925   6.310   3.504
 6130SOL    HW230422   3.824   6.420   3.437
 6131SOL     OW30423   5.017   6.814   3.285
 6131SOL    HW130424   5.054   6.741   3.227
 6131SOL    HW230425   5.069   6.819   3.370
 6132SOL     OW30426   3.921   6.562   3.126
 6132SOL    HW130427   4.010   6.517   3.112
 6132SOL    HW230428   3.848   6.497   3.107
 6133SOL     OW30429   5.190   7.003   2.815
 6133SOL    HW130430   5.131   7.009   2.895
 6133SOL    HW230431   5.175   6.915   2.769
 6134SOL     OW30432   4.322   6.315   2.132
 6134SOL    HW130433   4.346   6.384   2.064
 6134SOL    HW230434   4.244   6.348   2.186
 6135SOL     OW30435   5.005   5.931   2.806
 6135SOL    HW130436   4.919   5.881   2.793
 6135SOL    HW230437   5.067   5.877   2.862
 6136SOL     OW30438   4.531   6.191   3.327
 6136SOL    HW130439   4.484   6.188   3.416
 6136SOL    HW230440   4.480   6.136   3.261
 6137SOL     OW30441   4.589   5.934   2.057
 6137SOL    HW130442   4.648   5.997   2.008
 6137SOL    HW230443   4.608   5.840   2.028
 6138SOL     OW30444   4.075   7.387   2.715
 6138SOL    HW130445   4.125   7.301   2.721
 6138SOL    HW230446   4.140   7.464   2.712
 6139SOL     OW30447   4.951   7.136   3.368
 6139SOL    HW130448   4.957   7.059   3.432
 6139SOL    HW230449   4.899   7.110   3.288
 6140SOL     OW30450   3.926   5.871   3.360
 6140SOL    HW130451   3.846   5.931   3.347
 6140SOL    HW230452   3.916   5.822   3.446
 6141SOL     OW30453   5.356   6.963   1.943
 6141SOL    HW130454   5.324   7.057   1.933
 6141SOL    HW230455   5.280   6.900   1.931
 6142SOL     OW30456   5.124   5.693   2.288
 6142SOL    HW130457   5.100   5.656   2.198
 6142SOL    HW230458   5.223   5.709   2.292
 6143SOL     OW30459   4.106   6.286   2.342
 6143SOL    HW130460   4.151   6.196   2.339
 6143SOL    HW230461   4.012   6.275   2.375
 6144SOL     OW30462   5.271   5.808   3.591
 6144SOL    HW130463   5.266   5.845   3.683
 6144SOL    HW230464   5.199   5.739   3.579
 6145SOL     OW30465   4.612   7.100   3.057
 6145SOL    HW130466   4.589   7.075   2.963
 6145SOL    HW230467   4.673   7.031   3.096
 6146SOL     OW30468   5.075   6.176   3.295
 6146SOL    HW130469   5.103   6.133   3.380
 6146SOL    HW230470   5.100   6.272   3.296
 6147SOL     OW30471   4.646   6.089   2.761
 6147SOL    HW130472   4.621   6.080   2.665
 6147SOL    HW230473   4.694   6.007   2.792
 6148SOL     OW30474   5.158   6.774   1.903
 6148SOL    HW130475   5.190   6.698   1.960
 6148SOL    HW230476   5.066   6.801   1.933
 6149SOL     OW30477   4.659   5.822   2.342
 6149SOL    HW130478   4.611   5.863   2.264
 6149SOL    HW230479   4.758   5.820   2.323
 6150SOL     OW30480   4.800   6.269   3.326
 6150SOL    HW130481   4.720   6.208   3.329
 6150SOL    HW230482   4.881   6.216   3.302
 6151SOL     OW30483   4.756   6.135   1.878
 6151SOL    HW130484   4.715   6.217   1.839
 6151SOL    HW230485   4.820   6.161   1.951
 6152SOL     OW30486   3.802   6.142   3.248
 6152SOL    HW130487   3.894   6.141   3.207
 6152SOL    HW230488   3.796   6.216   3.315
 6153SOL     OW30489   4.590   6.040   2.504
 6153SOL    HW130490   4.558   6.112   2.442
 6153SOL    HW230491   4.614   5.959   2.451
 6154SOL     OW30492   5.153   6.759   2.729
 6154SOL    HW130493   5.098   6.675   2.722
 6154SOL    HW230494   5.179   6.788   2.637
 6155SOL     OW30495   5.190   6.176   2.854
 6155SOL    HW130496   5.160   6.081   2.861
 6155SOL    HW230497   5.263   6.192   2.920
 6156SOL     OW30498   4.251   5.842   2.190
 6156SOL    HW130499   4.278   5.783   2.115
 6156SOL    HW230500   4.251   5.937   2.159
 6157SOL     OW30501   5.362   6.685   2.941
 6157SOL    HW130502   5.367   6.766   3.000
 6157SOL    HW230503   5.276   6.687   2.890
 6158SOL     OW30504   4.639   5.675   3.264
 6158SOL    HW130505   4.664   5.655   3.169
 6158SOL    HW230506   4.711   5.731   3.306
 6159SOL     OW30507   4.429   6.636   2.230
 6159SOL    HW130508   4.415   6.643   2.329
 6159SOL    HW230509   4.513   6.585   2.212
 6160SOL     OW30510   4.134   6.399   3.113
 6160SOL    HW130511   4.220   6.411   3.163
 6160SOL    HW230512   4.092   6.312   3.140
 6161SOL     OW30513   3.788   7.150   3.193
 6161SOL    HW130514   3.742   7.232   3.159
 6161SOL    HW230515   3.886   7.169   3.202
 6162SOL     OW30516   4.933   6.111   2.137
 6162SOL    HW130517   4.946   6.027   2.191
 6162SOL    HW230518   4.904   6.185   2.197
 6163SOL     OW30519   4.031   5.799   3.093
 6163SOL    HW130520   4.008   5.836   3.183
 6163SOL    HW230521   4.001   5.704   3.087
 6164SOL     OW30522   4.747   6.352   2.828
 6164SOL    HW130523   4.762   6.373   2.924
 6164SOL    HW230524   4.717   6.257   2.819
 6165SOL     OW30525   5.583   7.104   3.467
 6165SOL    HW130526   5.597   7.131   3.372
 6165SOL    HW230527   5.666   7.126   3.520
 6166SOL     OW30528   4.884   5.793   3.339
 6166SOL    HW130529   4.884   5.857   3.416
 6166SOL    HW230530   4.912   5.841   3.256
 6167SOL     OW30531   3.812   7.387   2.789
 6167SOL    HW130532   3.770   7.301   2.762
 6167SOL    HW230533   3.906   7.390   2.755
 6168SOL     OW30534   4.228   7.154   2.772
 6168SOL    HW130535   4.294   7.228   2.781
 6168SOL    HW230536   4.272   7.075   2.730
 6169SOL     OW30537   4.539   6.158   2.187
 6169SOL    HW130538   4.546   6.069   2.141
 6169SOL    HW230539   4.445   6.192   2.179
 6170SOL     OW30540   5.381   6.190   3.068
 6170SOL    HW130541   5.343   6.121   3.130
 6170SOL    HW230542   5.463   6.154   3.024
 6171SOL     OW30543   3.976   7.150   3.606
 6171SOL    HW130544   3.946   7.207   3.682
 6171SOL    HW230545   3.969   7.053   3.632
 6172SOL     OW30546   4.395   6.050   3.131
 6172SOL    HW130547   4.361   5.961   3.101
 6172SOL    HW230548   4.421   6.104   3.051
 6173SOL     OW30549   4.197   6.086   2.053
 6173SOL    HW130550   4.258   6.166   2.057
 6173SOL    HW230551   4.102   6.117   2.060
 6174SOL     OW30552   3.883   6.723   3.328
 6174SOL    HW130553   3.905   6.662   3.404
 6174SOL    HW230554   3.893   6.674   3.242
 6175SOL     OW30555   4.412   7.248   3.578
 6175SOL    HW130556   4.356   7.329   3.587
 6175SOL    HW230557   4.464   7.252   3.492
 6176SOL     OW30558   4.396   7.202   2.016
 6176SOL    HW130559   4.405   7.212   1.917
 6176SOL    HW230560   4.356   7.113   2.037
 6177SOL     OW30561   5.565   5.761   2.825
 6177SOL    HW130562   5.604   5.676   2.789
 6177SOL    HW230563   5.467   5.763   2.806
 6178SOL     OW30564   3.987   5.912   2.582
 6178SOL    HW130565   3.908   5.963   2.548
 6178SOL    HW230566   3.978   5.897   2.680
 6179SOL     OW30567   4.546   6.588   3.234
 6179SOL    HW130568   4.586   6.587   3.142
 6179SOL    HW230569   4.556   6.680   3.274
 6180SOL     OW30570   5.228   7.193   1.906
 6180SOL    HW130571   5.136   7.230   1.913
 6180SOL    HW230572   5.266   7.213   1.816
 6181SOL     OW30573   4.096   6.874   3.352
 6181SOL    HW130574   4.083   6.967   3.318
 6181SOL    HW230575   4.012   6.822   3.339
 6182SOL     OW30576   4.738   5.822   2.833
 6182SOL    HW130577   4.730   5.786   2.740
 6182SOL    HW230578   4.736   5.746   2.898
 6183SOL     OW30579   5.433   5.971   3.243
 6183SOL    HW130580   5.506   6.040   3.247
 6183SOL    HW230581   5.461   5.896   3.184
 6184SOL     OW30582   4.907   6.921   1.981
 6184SOL    HW130583   4.808   6.910   1.983
 6184SOL    HW230584   4.941   6.936   2.074
 6185SOL     OW30585   5.454   6.520   3.379
 6185SOL    HW130586   5.492   6.611   3.394
 6185SOL    HW230587   5.446   6.503   3.280
 6186SOL     OW30588   4.583   6.960   1.878
 6186SOL    HW130589   4.537   6.975   1.966
 6186SOL    HW230590   4.627   7.045   1.848
 6187SOL     OW30591   5.585   7.155   2.713
 6187SOL    HW130592   5.514   7.143   2.643
 6187SOL    HW230593   5.586   7.076   2.773
 6188SOL     OW30594   5.548   5.778   3.089
 6188SOL    HW130595   5.544   5.688   3.133
 6188SOL    HW230596   5.551   5.767   2.990
 6189SOL     OW30597   4.152   6.010   2.382
 6189SOL    HW130598   4.182   5.938   2.320
 6189SOL    HW230599   4.113   5.970   2.465
 6190SOL     OW30600   5.429   7.073   2.966
 6190SOL    HW130601   5.336   7.048   2.939
 6190SOL    HW230602   5.455   7.023   3.048
 6191SOL     OW30603   4.494   6.916   2.163
 6191SOL    HW130604   4.448   6.829   2.180
 6191SOL    HW230605   4.585   6.913   2.204
 6192SOL     OW30606   4.293   6.861   4.889
 6192SOL    HW130607   4.200   6.854   4.852
 6192SOL    HW230608   4.304   6.950   4.933
 6193SOL     OW30609   4.859   6.289   4.441
 6193SOL    HW130610   4.916   6.367   4.416
 6193SOL    HW230611   4.799   6.315   4.517
 6194SOL     OW30612   5.479   6.193   3.955
 6194SOL    HW130613   5.467   6.180   3.856
 6194SOL    HW230614   5.449   6.112   4.004
 6195SOL     OW30615   4.492   6.730   4.747
 6195SOL    HW130616   4.414   6.747   4.807
 6195SOL    HW230617   4.526   6.817   4.711
 6196SOL     OW30618   4.574   6.384   5.547
 6196SOL    HW130619   4.570   6.460   5.612
 6196SOL    HW230620   4.596   6.420   5.456
 6197SOL     OW30621   4.409   6.598   4.389
 6197SOL    HW130622   4.478   6.582   4.459
 6197SOL    HW230623   4.336   6.655   4.427
 6198SOL     OW30624   4.410   6.747   5.527
 6198SOL    HW130625   4.470   6.826   5.541
 6198SOL    HW230626   4.324   6.778   5.486
 6199SOL     OW30627   4.851   6.927   5.414
 6199SOL    HW130628   4.898   6.927   5.502
 6199SOL    HW230629   4.803   6.840   5.403
 6200SOL     OW30630   5.318   5.700   5.204
 6200SOL    HW130631   5.300   5.767   5.132
 6200SOL    HW230632   5.315   5.746   5.293
 6201SOL     OW30633   3.751   7.182   3.841
 6201SOL    HW130634   3.732   7.086   3.862
 6201SOL    HW230635   3.718   7.240   3.916
 6202SOL     OW30636   5.413   6.508   4.336
 6202SOL    HW130637   5.508   6.479   4.344
 6202SOL    HW230638   5.405   6.573   4.261
 6203SOL     OW30639   5.017   6.814   5.147
 6203SOL    HW130640   5.054   6.741   5.089
 6203SOL    HW230641   5.069   6.819   5.232
 6204SOL     OW30642   4.533   5.590   4.226
 6204SOL    HW130643   4.573   5.681   4.217
 6204SOL    HW230644   4.433   5.598   4.232
 6205SOL     OW30645   4.911   7.378   5.340
 6205SOL    HW130646   4.935   7.438   5.264
 6205SOL    HW230647   4.918   7.283   5.310
 6206SOL     OW30648   5.118   6.055   5.398
 6206SOL    HW130649   5.098   6.098   5.486
 6206SOL    HW230650   5.196   5.993   5.407
 6207SOL     OW30651   3.854   7.407   5.295
 6207SOL    HW130652   3.844   7.392   5.394
 6207SOL    HW230653   3.768   7.443   5.259
 6208SOL     OW30654   5.519   6.652   4.597
 6208SOL    HW130655   5.457   6.637   4.521
 6208SOL    HW230656   5.467   6.663   4.682
 6209SOL     OW30657   4.951   7.136   5.230
 6209SOL    HW130658   4.957   7.059   5.294
 6209SOL    HW230659   4.899   7.110   5.150
 6210SOL     OW30660   5.182   6.321   4.452
 6210SOL    HW130661   5.177   6.256   4.527
 6210SOL    HW230662   5.262   6.380   4.465
 6211SOL     OW30663   4.185   6.852   5.451
 6211SOL    HW130664   4.135   6.853   5.365
 6211SOL    HW230665   4.122   6.834   5.527
 6212SOL     OW30666   4.188   7.329   4.047
 6212SOL    HW130667   4.221   7.368   4.133
 6212SOL    HW230668   4.264   7.322   3.982
 6213SOL     OW30669   4.664   7.284   4.628
 6213SOL    HW130670   4.744   7.227   4.649
 6213SOL    HW230671   4.615   7.244   4.551
 6214SOL     OW30672   5.271   5.808   5.453
 6214SOL    HW130673   5.266   5.845   5.545
 6214SOL    HW230674   5.199   5.739   5.441
 6215SOL     OW30675   4.527   6.988   4.648
 6215SOL    HW130676   4.617   7.002   4.606
 6215SOL    HW230677   4.456   6.990   4.577
 6216SOL     OW30678   5.190   6.176   4.716
 6216SOL    HW130679   5.160   6.081   4.723
 6216SOL    HW230680   5.263   6.192   4.782
 6217SOL     OW30681   5.114   6.161   3.802
 6217SOL    HW130682   5.060   6.140   3.883
 6217SOL    HW230683   5.205   6.120   3.811
 6218SOL     OW30684   4.788   6.933   5.064
 6218SOL    HW130685   4.708   6.910   5.119
 6218SOL    HW230686   4.871   6.907   5.113
 6219SOL     OW30687   4.835   6.781   4.824
 6219SOL    HW130688   4.795   6.825   4.905
 6219SOL    HW230689   4.794   6.818   4.741
 6220SOL     OW30690   4.704   6.702   5.443
 6220SOL    HW130691   4.605   6.708   5.453
 6220SOL    HW230692   4.727   6.622   5.387
 6221SOL     OW30693   4.290   6.123   4.589
 6221SOL    HW130694   4.302   6.189   4.515
 6221SOL    HW230695   4.336   6.157   4.672
 6222SOL     OW30696   4.078   7.096   5.053
 6222SOL    HW130697   4.057   7.052   4.966
 6222SOL    HW230698   4.175   7.122   5.056
 6223SOL     OW30699   5.311   6.365   5.394
 6223SOL    HW130700   5.219   6.403   5.389
 6223SOL    HW230701   5.371   6.412   5.329
 6224SOL     OW30702   4.737   5.691   5.494
 6224SOL    HW130703   4.743   5.776   5.442
 6224SOL    HW230704   4.769   5.615   5.437
 6225SOL     OW30705   4.228   5.636   5.464
 6225SOL    HW130706   4.186   5.579   5.394
 6225SOL    HW230707   4.162   5.705   5.496
 6226SOL     OW30708   5.452   6.521   5.578
 6226SOL    HW130709   5.406   6.514   5.489
 6226SOL    HW230710   5.390   6.565   5.644
 6227SOL     OW30711   4.704   7.159   5.424
 6227SOL    HW130712   4.684   7.203   5.336
 6227SOL    HW230713   4.743   7.068   5.408
 6228SOL     OW30714   4.074   6.484   5.528
 6228SOL    HW130715   4.150   6.528   5.576
 6228SOL    HW230716   4.109   6.437   5.446
 6229SOL     OW30717   5.027   6.424   3.766
 6229SOL    HW130718   5.061   6.331   3.781
 6229SOL    HW230719   5.045   6.451   3.671
 6230SOL     OW30720   4.063   6.095   4.730
 6230SOL    HW130721   4.011   6.012   4.713
 6230SOL    HW230722   4.140   6.100   4.666
 6231SOL     OW30723   4.862   5.966   5.402
 6231SOL    HW130724   4.817   6.029   5.466
 6231SOL    HW230725   4.955   5.997   5.385
 6232SOL     OW30726   4.884   5.793   5.201
 6232SOL    HW130727   4.884   5.857   5.278
 6232SOL    HW230728   4.912   5.841   5.118
 6233SOL     OW30729   3.732   6.912   3.924
 6233SOL    HW130730   3.639   6.933   3.893
 6233SOL    HW230731   3.742   6.813   3.937
 6234SOL     OW30732   3.764   6.130   4.838
 6234SOL    HW130733   3.849   6.097   4.797
 6234SOL    HW230734   3.777   6.145   4.936
 6235SOL     OW30735   5.093   6.536   5.384
 6235SOL    HW130736   5.132   6.625   5.404
 6235SOL    HW230737   5.103   6.516   5.287
 6236SOL     OW30738   3.976   7.150   5.468
 6236SOL    HW130739   3.946   7.207   5.544
 6236SOL    HW230740   3.969   7.053   5.494
 6237SOL     OW30741   4.654   7.264   5.189
 6237SOL    HW130742   4.630   7.246   5.094
 6237SOL    HW230743   4.684   7.358   5.199
 6238SOL     OW30744   3.883   6.723   5.190
 6238SOL    HW130745   3.905   6.662   5.266
 6238SOL    HW230746   3.893   6.674   5.104
 6239SOL     OW30747   3.807   6.844   4.746
 6239SOL    HW130748   3.802   6.843   4.846
 6239SOL    HW230749   3.724   6.803   4.708
 6240SOL     OW30750   5.112   7.159   4.201
 6240SOL    HW130751   5.179   7.171   4.127
 6240SOL    HW230752   5.072   7.248   4.224
 6241SOL     OW30753   3.854   7.380   5.575
 6241SOL    HW130754   3.813   7.306   5.628
 6241SOL    HW230755   3.918   7.431   5.633
 6242SOL     OW30756   3.987   5.912   4.444
 6242SOL    HW130757   3.908   5.963   4.410
 6242SOL    HW230758   3.978   5.897   4.542
 6243SOL     OW30759   4.096   6.874   5.214
 6243SOL    HW130760   4.083   6.967   5.180
 6243SOL    HW230761   4.012   6.822   5.201
 6244SOL     OW30762   3.829   6.599   5.450
 6244SOL    HW130763   3.752   6.566   5.504
 6244SOL    HW230764   3.914   6.569   5.492
 6245SOL     OW30765   4.114   7.327   5.284
 6245SOL    HW130766   4.023   7.368   5.282
 6245SOL    HW230767   4.107   7.233   5.316
 6246SOL     OW30768   4.318   6.331   4.376
 6246SOL    HW130769   4.368   6.416   4.357
 6246SOL    HW230770   4.230   6.333   4.328
 6247SOL     OW30771   5.454   6.520   5.241
 6247SOL    HW130772   5.492   6.611   5.256
 6247SOL    HW230773   5.446   6.503   5.142
 6248SOL     OW30774   4.583   6.542   4.585
 6248SOL    HW130775   4.637   6.473   4.633
 6248SOL    HW230776   4.551   6.611   4.651
 6249SOL     OW30777   4.807   6.570   3.811
 6249SOL    HW130778   4.784   6.623   3.729
 6249SOL    HW230779   4.888   6.514   3.792
 6250SOL     OW30780   5.585   7.155   4.575
 6250SOL    HW130781   5.514   7.143   4.505
 6250SOL    HW230782   5.586   7.076   4.635
 6251SOL     OW30783   3.945   6.900   5.568
 6251SOL    HW130784   3.880   6.827   5.547
 6251SOL    HW230785   3.949   6.914   5.666
 6252SOL     OW30786   3.803   6.826   4.377
 6252SOL    HW130787   3.802   6.779   4.465
 6252SOL    HW230788   3.885   6.798   4.326
 6253SOL     OW30789   4.396   6.977   5.348
 6253SOL    HW130790   4.318   6.927   5.386
 6253SOL    HW230791   4.393   7.072   5.379
 6254SOL     OW30792   4.536   7.172   4.411
 6254SOL    HW130793   4.568   7.182   4.317
 6254SOL    HW230794   4.457   7.110   4.413
 6255SOL     OW30795   4.494   6.916   4.025
 6255SOL    HW130796   4.448   6.829   4.042
 6255SOL    HW230797   4.585   6.913   4.066
 6256SOL     OW30798   3.949   5.861   6.582
 6256SOL    HW130799   3.984   5.844   6.674
 6256SOL    HW230800   3.861   5.816   6.570
 6257SOL     OW30801   3.743   5.954   6.233
 6257SOL    HW130802   3.661   5.997   6.272
 6257SOL    HW230803   3.715   5.881   6.170
 6258SOL     OW30804   4.293   6.861   6.751
 6258SOL    HW130805   4.200   6.854   6.714
 6258SOL    HW230806   4.304   6.950   6.795
 6259SOL     OW30807   5.279   7.097   6.289
 6259SOL    HW130808   5.222   7.081   6.370
 6259SOL    HW230809   5.220   7.107   6.209
 6260SOL     OW30810   4.859   6.289   6.303
 6260SOL    HW130811   4.916   6.367   6.278
 6260SOL    HW230812   4.799   6.315   6.379
 6261SOL     OW30813   5.479   6.193   5.817
 6261SOL    HW130814   5.467   6.180   5.718
 6261SOL    HW230815   5.449   6.112   5.866
 6262SOL     OW30816   4.492   6.730   6.609
 6262SOL    HW130817   4.414   6.747   6.669
 6262SOL    HW230818   4.526   6.817   6.573
 6263SOL     OW30819   4.409   6.598   6.251
 6263SOL    HW130820   4.478   6.582   6.321
 6263SOL    HW230821   4.336   6.655   6.289
 6264SOL     OW30822   4.059   7.021   6.647
 6264SOL    HW130823   3.981   6.990   6.594
 6264SOL    HW230824   4.117   7.079   6.590
 6265SOL     OW30825   4.162   5.978   7.085
 6265SOL    HW130826   4.244   5.922   7.094
 6265SOL    HW230827   4.081   5.920   7.089
 6266SOL     OW30828   5.327   6.033   6.323
 6266SOL    HW130829   5.253   6.079   6.273
 6266SOL    HW230830   5.378   6.101   6.376
 6267SOL     OW30831   3.955   7.299   6.069
 6267SOL    HW130832   3.989   7.376   6.123
 6267SOL    HW230833   3.999   7.299   5.979
 6268SOL     OW30834   3.954   7.020   6.124
 6268SOL    HW130835   3.928   7.116   6.124
 6268SOL    HW230836   3.883   6.966   6.169
 6269SOL     OW30837   3.964   6.677   6.472
 6269SOL    HW130838   3.978   6.593   6.524
 6269SOL    HW230839   3.909   6.741   6.527
 6270SOL     OW30840   4.344   7.372   7.025
 6270SOL    HW130841   4.252   7.355   7.060
 6270SOL    HW230842   4.372   7.464   7.051
 6271SOL     OW30843   4.330   6.550   5.709
 6271SOL    HW130844   4.337   6.634   5.655
 6271SOL    HW230845   4.376   6.563   5.797
 6272SOL     OW30846   3.846   6.229   6.149
 6272SOL    HW130847   3.801   6.141   6.166
 6272SOL    HW230848   3.845   6.283   6.233
 6273SOL     OW30849   5.566   7.353   5.945
 6273SOL    HW130850   5.620   7.324   6.025
 6273SOL    HW230851   5.596   7.443   5.916
 6274SOL     OW30852   3.751   7.182   5.703
 6274SOL    HW130853   3.732   7.086   5.724
 6274SOL    HW230854   3.718   7.240   5.778
 6275SOL     OW30855   5.413   6.508   6.198
 6275SOL    HW130856   5.508   6.479   6.206
 6275SOL    HW230857   5.405   6.573   6.123
 6276SOL     OW30858   5.365   6.694   6.018
 6276SOL    HW130859   5.451   6.696   5.966
 6276SOL    HW230860   5.379   6.741   6.106
 6277SOL     OW30861   4.337   6.951   6.312
 6277SOL    HW130862   4.288   6.864   6.321
 6277SOL    HW230863   4.314   6.994   6.225
 6278SOL     OW30864   4.533   5.590   6.088
 6278SOL    HW130865   4.573   5.681   6.079
 6278SOL    HW230866   4.433   5.598   6.094
 6279SOL     OW30867   3.921   6.562   6.850
 6279SOL    HW130868   4.010   6.517   6.836
 6279SOL    HW230869   3.848   6.497   6.831
 6280SOL     OW30870   5.249   6.585   5.776
 6280SOL    HW130871   5.186   6.509   5.789
 6280SOL    HW230872   5.297   6.603   5.862
 6281SOL     OW30873   5.190   7.003   6.539
 6281SOL    HW130874   5.131   7.009   6.619
 6281SOL    HW230875   5.175   6.915   6.493
 6282SOL     OW30876   5.391   7.300   6.158
 6282SOL    HW130877   5.350   7.277   6.070
 6282SOL    HW230878   5.373   7.226   6.223
 6283SOL     OW30879   4.322   6.315   5.856
 6283SOL    HW130880   4.346   6.384   5.788
 6283SOL    HW230881   4.244   6.348   5.910
 6284SOL     OW30882   5.005   5.931   6.530
 6284SOL    HW130883   4.919   5.881   6.517
 6284SOL    HW230884   5.067   5.877   6.586
 6285SOL     OW30885   5.300   7.248   5.893
 6285SOL    HW130886   5.389   7.294   5.896
 6285SOL    HW230887   5.279   7.224   5.798
 6286SOL     OW30888   4.531   6.191   7.051
 6286SOL    HW130889   4.484   6.188   7.140
 6286SOL    HW230890   4.480   6.136   6.985
 6287SOL     OW30891   4.715   5.996   6.828
 6287SOL    HW130892   4.638   6.030   6.882
 6287SOL    HW230893   4.681   5.945   6.749
 6288SOL     OW30894   4.765   6.287   6.015
 6288SOL    HW130895   4.791   6.283   6.111
 6288SOL    HW230896   4.680   6.236   6.001
 6289SOL     OW30897   3.800   6.397   6.375
 6289SOL    HW130898   3.899   6.385   6.384
 6289SOL    HW230899   3.776   6.492   6.396
 6290SOL     OW30900   3.854   7.407   7.157
 6290SOL    HW130901   3.844   7.392   7.256
 6290SOL    HW230902   3.768   7.443   7.121
 6291SOL     OW30903   5.086   6.730   6.131
 6291SOL    HW130904   5.169   6.701   6.083
 6291SOL    HW230905   5.037   6.797   6.075
 6292SOL     OW30906   4.274   5.782   6.471
 6292SOL    HW130907   4.269   5.777   6.571
 6292SOL    HW230908   4.276   5.878   6.442
 6293SOL     OW30909   4.732   7.042   6.063
 6293SOL    HW130910   4.686   7.114   6.011
 6293SOL    HW230911   4.728   7.062   6.161
 6294SOL     OW30912   4.075   7.387   6.439
 6294SOL    HW130913   4.125   7.301   6.445
 6294SOL    HW230914   4.140   7.464   6.436
 6295SOL     OW30915   5.519   6.652   6.459
 6295SOL    HW130916   5.457   6.637   6.383
 6295SOL    HW230917   5.467   6.663   6.544
 6296SOL     OW30918   4.045   6.529   5.828
 6296SOL    HW130919   4.127   6.568   5.786
 6296SOL    HW230920   4.018   6.447   5.779
 6297SOL     OW30921   5.182   6.321   6.314
 6297SOL    HW130922   5.177   6.256   6.389
 6297SOL    HW230923   5.262   6.380   6.327
 6298SOL     OW30924   4.835   7.362   5.823
 6298SOL    HW130925   4.775   7.300   5.873
 6298SOL    HW230926   4.866   7.318   5.738
 6299SOL     OW30927   5.356   6.963   5.667
 6299SOL    HW130928   5.324   7.057   5.657
 6299SOL    HW230929   5.280   6.900   5.655
 6300SOL     OW30930   4.188   7.329   5.909
 6300SOL    HW130931   4.221   7.368   5.995
 6300SOL    HW230932   4.264   7.322   5.844
 6301SOL     OW30933   3.973   7.371   6.827
 6301SOL    HW130934   4.030   7.306   6.877
 6301SOL    HW230935   3.957   7.338   6.734
 6302SOL     OW30936   4.664   7.284   6.490
 6302SOL    HW130937   4.744   7.227   6.511
 6302SOL    HW230938   4.615   7.244   6.413
 6303SOL     OW30939   4.106   6.286   6.066
 6303SOL    HW130940   4.151   6.196   6.063
 6303SOL    HW230941   4.012   6.275   6.099
 6304SOL     OW30942   4.612   7.100   6.781
 6304SOL    HW130943   4.589   7.075   6.687
 6304SOL    HW230944   4.673   7.031   6.820
 6305SOL     OW30945   4.527   6.988   6.510
 6305SOL    HW130946   4.617   7.002   6.468
 6305SOL    HW230947   4.456   6.990   6.439
 6306SOL     OW30948   4.646   6.089   6.485
 6306SOL    HW130949   4.621   6.080   6.389
 6306SOL    HW230950   4.694   6.007   6.516
 6307SOL     OW30951   4.263   5.650   6.098
 6307SOL    HW130952   4.182   5.651   6.156
 6307SOL    HW230953   4.266   5.733   6.043
 6308SOL     OW30954   5.158   6.774   5.627
 6308SOL    HW130955   5.190   6.698   5.684
 6308SOL    HW230956   5.066   6.801   5.657
 6309SOL     OW30957   4.021   5.621   5.757
 6309SOL    HW130958   4.070   5.705   5.736
 6309SOL    HW230959   4.083   5.556   5.802
 6310SOL     OW30960   4.659   5.822   6.066
 6310SOL    HW130961   4.611   5.863   5.988
 6310SOL    HW230962   4.758   5.820   6.047
 6311SOL     OW30963   4.951   7.156   6.379
 6311SOL    HW130964   4.972   7.230   6.314
 6311SOL    HW230965   5.019   7.156   6.452
 6312SOL     OW30966   4.183   6.738   6.327
 6312SOL    HW130967   4.112   6.711   6.392
 6312SOL    HW230968   4.157   6.710   6.234
 6313SOL     OW30969   4.995   7.383   6.177
 6313SOL    HW130970   5.039   7.447   6.113
 6313SOL    HW230971   4.945   7.435   6.247
 6314SOL     OW30972   4.285   5.808   6.733
 6314SOL    HW130973   4.323   5.724   6.770
 6314SOL    HW230974   4.197   5.827   6.777
 6315SOL     OW30975   4.590   6.040   6.228
 6315SOL    HW130976   4.558   6.112   6.166
 6315SOL    HW230977   4.614   5.959   6.175
 6316SOL     OW30978   4.741   5.625   6.339
 6316SOL    HW130979   4.669   5.630   6.270
 6316SOL    HW230980   4.717   5.556   6.408
 6317SOL     OW30981   5.153   6.759   6.453
 6317SOL    HW130982   5.098   6.675   6.446
 6317SOL    HW230983   5.179   6.788   6.361
 6318SOL     OW30984   5.190   6.176   6.578
 6318SOL    HW130985   5.160   6.081   6.585
 6318SOL    HW230986   5.263   6.192   6.644
 6319SOL     OW30987   5.581   6.419   5.963
 6319SOL    HW130988   5.623   6.355   6.027
 6319SOL    HW230989   5.543   6.368   5.885
 6320SOL     OW30990   4.212   6.971   5.760
 6320SOL    HW130991   4.125   6.956   5.807
 6320SOL    HW230992   4.195   6.997   5.665
 6321SOL     OW30993   5.388   6.866   6.243
 6321SOL    HW130994   5.487   6.874   6.257
 6321SOL    HW230995   5.343   6.950   6.274
 6322SOL     OW30996   5.114   6.161   5.664
 6322SOL    HW130997   5.060   6.140   5.745
 6322SOL    HW230998   5.205   6.120   5.673
 6323SOL     OW30999   4.251   5.842   5.914
 6323SOL    HW131000   4.278   5.783   5.839
 6323SOL    HW231001   4.251   5.937   5.883
 6324SOL     OW31002   4.788   6.933   6.926
 6324SOL    HW131003   4.708   6.910   6.981
 6324SOL    HW231004   4.871   6.907   6.975
 6325SOL     OW31005   4.835   6.781   6.686
 6325SOL    HW131006   4.795   6.825   6.767
 6325SOL    HW231007   4.794   6.818   6.603
 6326SOL     OW31008   5.362   6.685   6.665
 6326SOL    HW131009   5.367   6.766   6.724
 6326SOL    HW231010   5.276   6.687   6.614
 6327SOL     OW31011   4.429   6.636   5.954
 6327SOL    HW131012   4.415   6.643   6.053
 6327SOL    HW231013   4.513   6.585   5.936
 6328SOL     OW31014   4.134   6.399   6.837
 6328SOL    HW131015   4.220   6.411   6.887
 6328SOL    HW231016   4.092   6.312   6.864
 6329SOL     OW31017   4.998   5.972   6.848
 6329SOL    HW131018   5.019   6.046   6.912
 6329SOL    HW231019   4.909   5.989   6.805
 6330SOL     OW31020   3.788   7.150   6.917
 6330SOL    HW131021   3.742   7.232   6.883
 6330SOL    HW231022   3.886   7.169   6.926
 6331SOL     OW31023   4.091   6.686   6.087
 6331SOL    HW131024   4.084   6.769   6.031
 6331SOL    HW231025   4.095   6.606   6.027
 6332SOL     OW31026   4.290   6.123   6.451
 6332SOL    HW131027   4.302   6.189   6.377
 6332SOL    HW231028   4.336   6.157   6.534
 6333SOL     OW31029   4.976   6.934   5.974
 6333SOL    HW131030   5.026   7.011   6.014
 6333SOL    HW231031   4.881   6.936   6.006
 6334SOL     OW31032   4.996   7.031   6.728
 6334SOL    HW131033   5.043   7.044   6.815
 6334SOL    HW231034   4.930   6.957   6.737
 6335SOL     OW31035   5.306   6.225   6.058
 6335SOL    HW131036   5.275   6.286   6.131
 6335SOL    HW231037   5.356   6.277   5.989
 6336SOL     OW31038   4.078   7.096   6.915
 6336SOL    HW131039   4.057   7.052   6.828
 6336SOL    HW231040   4.175   7.122   6.918
 6337SOL     OW31041   4.228   5.636   7.326
 6337SOL    HW131042   4.186   5.579   7.256
 6337SOL    HW231043   4.162   5.705   7.358
 6338SOL     OW31044   4.297   6.456   6.615
 6338SOL    HW131045   4.341   6.545   6.606
 6338SOL    HW231046   4.234   6.456   6.692
 6339SOL     OW31047   5.084   6.448   6.631
 6339SOL    HW131048   5.009   6.448   6.565
 6339SOL    HW231049   5.121   6.356   6.640
 6340SOL     OW31050   4.933   6.111   5.861
 6340SOL    HW131051   4.946   6.027   5.915
 6340SOL    HW231052   4.904   6.185   5.921
 6341SOL     OW31053   4.031   5.799   6.817
 6341SOL    HW131054   4.008   5.836   6.907
 6341SOL    HW231055   4.001   5.704   6.811
 6342SOL     OW31056   3.761   6.896   6.868
 6342SOL    HW131057   3.814   6.847   6.936
 6342SOL    HW231058   3.783   6.994   6.873
 6343SOL     OW31059   4.456   6.220   6.650
 6343SOL    HW131060   4.515   6.194   6.574
 6343SOL    HW231061   4.428   6.316   6.639
 6344SOL     OW31062   4.031   5.649   6.204
 6344SOL    HW131063   4.020   5.743   6.237
 6344SOL    HW231064   4.026   5.586   6.281
 6345SOL     OW31065   5.346   5.953   5.960
 6345SOL    HW131066   5.348   5.877   6.024
 6345SOL    HW231067   5.298   6.030   6.000
 6346SOL     OW31068   4.747   6.352   6.552
 6346SOL    HW131069   4.762   6.373   6.648
 6346SOL    HW231070   4.717   6.257   6.543
 6347SOL     OW31071   5.264   5.860   5.711
 6347SOL    HW131072   5.203   5.785   5.734
 6347SOL    HW231073   5.286   5.912   5.794
 6348SOL     OW31074   5.027   6.424   5.628
 6348SOL    HW131075   5.061   6.331   5.643
 6348SOL    HW231076   5.045   6.451   5.533
 6349SOL     OW31077   4.792   6.919   6.435
 6349SOL    HW131078   4.799   6.835   6.380
 6349SOL    HW231079   4.854   6.988   6.399
 6350SOL     OW31080   4.043   6.396   6.535
 6350SOL    HW131081   4.136   6.432   6.540
 6350SOL    HW231082   4.037   6.311   6.587
 6351SOL     OW31083   4.063   6.095   6.592
 6351SOL    HW131084   4.011   6.012   6.575
 6351SOL    HW231085   4.140   6.100   6.528
 6352SOL     OW31086   4.884   5.793   7.063
 6352SOL    HW131087   4.884   5.857   7.140
 6352SOL    HW231088   4.912   5.841   6.980
 6353SOL     OW31089   3.732   6.912   5.786
 6353SOL    HW131090   3.639   6.933   5.755
 6353SOL    HW231091   3.742   6.813   5.799
 6354SOL     OW31092   3.812   7.387   6.513
 6354SOL    HW131093   3.770   7.301   6.486
 6354SOL    HW231094   3.906   7.390   6.479
 6355SOL     OW31095   4.228   7.154   6.496
 6355SOL    HW131096   4.294   7.228   6.505
 6355SOL    HW231097   4.272   7.075   6.454
 6356SOL     OW31098   4.726   6.382   6.824
 6356SOL    HW131099   4.767   6.350   6.910
 6356SOL    HW231100   4.630   6.355   6.821
 6357SOL     OW31101   3.764   6.130   6.700
 6357SOL    HW131102   3.849   6.097   6.659
 6357SOL    HW231103   3.777   6.145   6.798
 6358SOL     OW31104   4.539   6.158   5.911
 6358SOL    HW131105   4.546   6.069   5.865
 6358SOL    HW231106   4.445   6.192   5.903
 6359SOL     OW31107   5.381   6.190   6.792
 6359SOL    HW131108   5.343   6.121   6.854
 6359SOL    HW231109   5.463   6.154   6.748
 6360SOL     OW31110   4.395   6.050   6.855
 6360SOL    HW131111   4.361   5.961   6.825
 6360SOL    HW231112   4.421   6.104   6.775
 6361SOL     OW31113   4.654   7.264   7.051
 6361SOL    HW131114   4.630   7.246   6.956
 6361SOL    HW231115   4.684   7.358   7.061
 6362SOL     OW31116   4.197   6.086   5.777
 6362SOL    HW131117   4.258   6.166   5.781
 6362SOL    HW231118   4.102   6.117   5.784
 6363SOL     OW31119   3.883   6.723   7.052
 6363SOL    HW131120   3.905   6.662   7.128
 6363SOL    HW231121   3.893   6.674   6.966
 6364SOL     OW31122   5.071   6.645   6.820
 6364SOL    HW131123   5.095   6.582   6.746
 6364SOL    HW231124   4.981   6.685   6.802
 6365SOL     OW31125   5.026   6.441   5.895
 6365SOL    HW131126   4.940   6.410   5.937
 6365SOL    HW231127   5.022   6.427   5.796
 6366SOL     OW31128   5.483   7.333   6.740
 6366SOL    HW131129   5.544   7.363   6.667
 6366SOL    HW231130   5.445   7.244   6.718
 6367SOL     OW31131   4.976   7.317   6.714
 6367SOL    HW131132   5.060   7.322   6.660
 6367SOL    HW231133   4.953   7.221   6.732
 6368SOL     OW31134   3.807   6.844   6.608
 6368SOL    HW131135   3.802   6.843   6.708
 6368SOL    HW231136   3.724   6.803   6.570
 6369SOL     OW31137   5.112   7.159   6.063
 6369SOL    HW131138   5.179   7.171   5.989
 6369SOL    HW231139   5.072   7.248   6.086
 6370SOL     OW31140   5.004   6.513   6.258
 6370SOL    HW131141   5.064   6.432   6.260
 6370SOL    HW231142   5.044   6.582   6.198
 6371SOL     OW31143   5.565   5.761   6.549
 6371SOL    HW131144   5.604   5.676   6.513
 6371SOL    HW231145   5.467   5.763   6.530
 6372SOL     OW31146   3.987   5.912   6.306
 6372SOL    HW131147   3.908   5.963   6.272
 6372SOL    HW231148   3.978   5.897   6.404
 6373SOL     OW31149   4.918   7.198   5.617
 6373SOL    HW131150   4.924   7.105   5.654
 6373SOL    HW231151   4.859   7.198   5.537
 6374SOL     OW31152   4.546   6.588   6.958
 6374SOL    HW131153   4.586   6.587   6.866
 6374SOL    HW231154   4.556   6.680   6.998
 6375SOL     OW31155   4.640   6.496   5.877
 6375SOL    HW131156   4.703   6.534   5.809
 6375SOL    HW231157   4.680   6.413   5.916
 6376SOL     OW31158   4.096   6.874   7.076
 6376SOL    HW131159   4.083   6.967   7.042
 6376SOL    HW231160   4.012   6.822   7.063
 6377SOL     OW31161   5.338   6.878   6.875
 6377SOL    HW131162   5.398   6.881   6.955
 6377SOL    HW231163   5.263   6.942   6.888
 6378SOL     OW31164   4.763   6.684   6.282
 6378SOL    HW131165   4.693   6.637   6.336
 6378SOL    HW231166   4.822   6.616   6.239
 6379SOL     OW31167   4.738   5.822   6.557
 6379SOL    HW131168   4.730   5.786   6.464
 6379SOL    HW231169   4.736   5.746   6.622
 6380SOL     OW31170   4.314   7.073   6.077
 6380SOL    HW131171   4.356   7.015   6.007
 6380SOL    HW231172   4.270   7.152   6.033
 6381SOL     OW31173   5.433   5.971   6.967
 6381SOL    HW131174   5.506   6.040   6.971
 6381SOL    HW231175   5.461   5.896   6.908
 6382SOL     OW31176   3.979   6.934   5.876
 6382SOL    HW131177   3.883   6.935   5.849
 6382SOL    HW231178   3.991   6.987   5.960
 6383SOL     OW31179   4.396   5.789   7.075
 6383SOL    HW131180   4.486   5.773   7.035
 6383SOL    HW231181   4.404   5.794   7.174
 6384SOL     OW31182   3.799   5.931   5.619
 6384SOL    HW131183   3.707   5.903   5.590
 6384SOL    HW231184   3.830   6.008   5.563
 6385SOL     OW31185   3.796   5.752   5.904
 6385SOL    HW131186   3.779   5.835   5.850
 6385SOL    HW231187   3.886   5.715   5.882
 6386SOL     OW31188   4.907   6.921   5.705
 6386SOL    HW131189   4.808   6.910   5.707
 6386SOL    HW231190   4.941   6.936   5.798
 6387SOL     OW31191   4.337   6.428   7.017
 6387SOL    HW131192   4.393   6.509   7.000
 6387SOL    HW231193   4.396   6.348   7.020
 6388SOL     OW31194   5.217   7.353   6.545
 6388SOL    HW131195   5.250   7.417   6.476
 6388SOL    HW231196   5.283   7.347   6.620
 6389SOL     OW31197   4.114   7.327   7.146
 6389SOL    HW131198   4.023   7.368   7.144
 6389SOL    HW231199   4.107   7.233   7.178
 6390SOL     OW31200   5.398   6.469   6.840
 6390SOL    HW131201   5.371   6.380   6.803
 6390SOL    HW231202   5.399   6.537   6.767
 6391SOL     OW31203   4.949   5.911   6.035
 6391SOL    HW131204   5.014   5.837   6.024
 6391SOL    HW231205   4.969   5.961   6.119
 6392SOL     OW31206   4.318   6.331   6.238
 6392SOL    HW131207   4.368   6.416   6.219
 6392SOL    HW231208   4.230   6.333   6.190
 6393SOL     OW31209   5.454   6.520   7.103
 6393SOL    HW131210   5.492   6.611   7.118
 6393SOL    HW231211   5.446   6.503   7.004
 6394SOL     OW31212   4.385   7.376   6.539
 6394SOL    HW131213   4.339   7.464   6.526
 6394SOL    HW231214   4.484   7.388   6.532
 6395SOL     OW31215   4.583   6.542   6.447
 6395SOL    HW131216   4.637   6.473   6.495
 6395SOL    HW231217   4.551   6.611   6.513
 6396SOL     OW31218   4.807   6.570   5.673
 6396SOL    HW131219   4.784   6.623   5.591
 6396SOL    HW231220   4.888   6.514   5.654
 6397SOL     OW31221   5.585   7.155   6.437
 6397SOL    HW131222   5.514   7.143   6.367
 6397SOL    HW231223   5.586   7.076   6.497
 6398SOL     OW31224   3.803   6.826   6.239
 6398SOL    HW131225   3.802   6.779   6.327
 6398SOL    HW231226   3.885   6.798   6.188
 6399SOL     OW31227   5.548   5.778   6.813
 6399SOL    HW131228   5.544   5.688   6.857
 6399SOL    HW231229   5.551   5.767   6.714
 6400SOL     OW31230   4.152   6.010   6.106
 6400SOL    HW131231   4.182   5.938   6.044
 6400SOL    HW231232   4.113   5.970   6.189
 6401SOL     OW31233   5.429   7.073   6.690
 6401SOL    HW131234   5.336   7.048   6.663
 6401SOL    HW231235   5.455   7.023   6.772
 6402SOL     OW31236   4.041   6.133   6.866
 6402SOL    HW131237   4.079   6.074   6.938
 6402SOL    HW231238   4.081   6.107   6.778
 6403SOL     OW31239   4.536   7.172   6.273
 6403SOL    HW131240   4.568   7.182   6.179
 6403SOL    HW231241   4.457   7.110   6.275
 6404SOL     OW31242   5.148   5.800   6.698
 6404SOL    HW131243   5.200   5.735   6.753
 6404SOL    HW231244   5.099   5.863   6.759
 6405SOL     OW31245   4.725   5.620   6.740
 6405SOL    HW131246   4.662   5.548   6.709
 6405SOL    HW231247   4.818   5.584   6.740
 6406SOL     OW31248   4.494   6.916   5.887
 6406SOL    HW131249   4.448   6.829   5.904
 6406SOL    HW231250   4.585   6.913   5.928
 6407SOL     OW31251   4.342   7.153   6.870
 6407SOL    HW131252   4.337   7.235   6.927
 6407SOL    HW231253   4.431   7.150   6.825
 6408SOL     OW31254   5.076   5.638   5.754
 6408SOL    HW131255   5.111   5.597   5.670
 6408SOL    HW231256   4.986   5.600   5.774
 6409SOL     OW31257   5.024   6.039   6.277
 6409SOL    HW131258   4.965   6.119   6.281
 6409SOL    HW231259   5.039   6.004   6.370
 6410SOL     OW31260   5.317   5.807   6.468
 6410SOL    HW131261   5.233   5.806   6.522
 6410SOL    HW231262   5.319   5.890   6.412
 6411SOL     OW31263   3.763   6.663   5.886
 6411SOL    HW131264   3.862   6.652   5.877
 6411SOL    HW231265   3.723   6.577   5.918
 6412SOL     OW31266   4.599   7.232   5.923
 6412SOL    HW131267   4.522   7.197   5.869
 6412SOL    HW231268   4.567   7.303   5.985
 6413SOL     OW31269   3.954   8.076   0.113
 6413SOL    HW131270   3.861   8.074   0.150
 6413SOL    HW231271   3.955   8.037   0.021
 6414SOL     OW31272   3.949   7.723   0.996
 6414SOL    HW131273   3.984   7.706   1.088
 6414SOL    HW231274   3.861   7.678   0.984
 6415SOL     OW31275   3.743   7.816   0.647
 6415SOL    HW131276   3.661   7.859   0.686
 6415SOL    HW231277   3.715   7.743   0.584
 6416SOL     OW31278   4.859   8.151   0.717
 6416SOL    HW131279   4.916   8.229   0.692
 6416SOL    HW231280   4.799   8.177   0.793
 6417SOL     OW31281   5.479   8.055   0.231
 6417SOL    HW131282   5.467   8.042   0.132
 6417SOL    HW231283   5.449   7.974   0.280
 6418SOL     OW31284   4.492   8.592   1.023
 6418SOL    HW131285   4.414   8.609   1.083
 6418SOL    HW231286   4.526   8.679   0.987
 6419SOL     OW31287   4.409   8.460   0.665
 6419SOL    HW131288   4.478   8.444   0.735
 6419SOL    HW231289   4.336   8.517   0.703
 6420SOL     OW31290   4.162   7.840   1.499
 6420SOL    HW131291   4.244   7.784   1.508
 6420SOL    HW231292   4.081   7.782   1.503
 6421SOL     OW31293   5.327   7.895   0.737
 6421SOL    HW131294   5.253   7.941   0.687
 6421SOL    HW231295   5.378   7.963   0.790
 6422SOL     OW31296   3.964   8.539   0.886
 6422SOL    HW131297   3.978   8.455   0.938
 6422SOL    HW231298   3.909   8.603   0.941
 6423SOL     OW31299   5.318   7.562   1.480
 6423SOL    HW131300   5.300   7.629   1.408
 6423SOL    HW231301   5.315   7.608   1.569
 6424SOL     OW31302   3.846   8.091   0.563
 6424SOL    HW131303   3.801   8.003   0.580
 6424SOL    HW231304   3.845   8.145   0.647
 6425SOL     OW31305   4.533   7.452   0.502
 6425SOL    HW131306   4.573   7.543   0.493
 6425SOL    HW231307   4.433   7.460   0.508
 6426SOL     OW31308   3.921   8.424   1.264
 6426SOL    HW131309   4.010   8.379   1.250
 6426SOL    HW231310   3.848   8.359   1.245
 6427SOL     OW31311   5.249   8.447   0.190
 6427SOL    HW131312   5.186   8.371   0.203
 6427SOL    HW231313   5.297   8.465   0.276
 6428SOL     OW31314   4.041   7.699   1.801
 6428SOL    HW131315   4.112   7.770   1.807
 6428SOL    HW231316   3.953   7.738   1.829
 6429SOL     OW31317   4.322   8.177   0.270
 6429SOL    HW131318   4.346   8.246   0.202
 6429SOL    HW231319   4.244   8.210   0.324
 6430SOL     OW31320   5.005   7.793   0.944
 6430SOL    HW131321   4.919   7.743   0.931
 6430SOL    HW231322   5.067   7.739   1.000
 6431SOL     OW31323   4.531   8.053   1.465
 6431SOL    HW131324   4.484   8.050   1.554
 6431SOL    HW231325   4.480   7.998   1.399
 6432SOL     OW31326   5.118   7.917   1.674
 6432SOL    HW131327   5.098   7.960   1.762
 6432SOL    HW231328   5.196   7.855   1.683
 6433SOL     OW31329   4.697   8.338   1.572
 6433SOL    HW131330   4.743   8.254   1.543
 6433SOL    HW231331   4.641   8.372   1.497
 6434SOL     OW31332   4.715   7.858   1.242
 6434SOL    HW131333   4.638   7.892   1.296
 6434SOL    HW231334   4.681   7.807   1.163
 6435SOL     OW31335   4.765   8.149   0.429
 6435SOL    HW131336   4.791   8.145   0.525
 6435SOL    HW231337   4.680   8.098   0.415
 6436SOL     OW31338   3.800   8.259   0.789
 6436SOL    HW131339   3.899   8.247   0.798
 6436SOL    HW231340   3.776   8.354   0.810
 6437SOL     OW31341   4.589   7.796   0.195
 6437SOL    HW131342   4.648   7.859   0.146
 6437SOL    HW231343   4.608   7.702   0.166
 6438SOL     OW31344   5.443   8.033   1.831
 6438SOL    HW131345   5.417   8.122   1.795
 6438SOL    HW231346   5.441   7.965   1.758
 6439SOL     OW31347   4.274   7.644   0.885
 6439SOL    HW131348   4.269   7.639   0.985
 6439SOL    HW231349   4.276   7.740   0.856
 6440SOL     OW31350   5.182   8.183   0.728
 6440SOL    HW131351   5.177   8.118   0.803
 6440SOL    HW231352   5.262   8.242   0.741
 6441SOL     OW31353   3.926   7.733   1.498
 6441SOL    HW131354   3.846   7.793   1.485
 6441SOL    HW231355   3.916   7.684   1.584
 6442SOL     OW31356   5.124   7.555   0.426
 6442SOL    HW131357   5.100   7.518   0.336
 6442SOL    HW231358   5.223   7.571   0.430
 6443SOL     OW31359   4.106   8.148   0.480
 6443SOL    HW131360   4.151   8.058   0.477
 6443SOL    HW231361   4.012   8.137   0.513
 6444SOL     OW31362   5.075   8.038   1.433
 6444SOL    HW131363   5.103   7.995   1.518
 6444SOL    HW231364   5.100   8.134   1.434
 6445SOL     OW31365   4.646   7.951   0.899
 6445SOL    HW131366   4.621   7.942   0.803
 6445SOL    HW231367   4.694   7.869   0.930
 6446SOL     OW31368   4.263   7.512   0.512
 6446SOL    HW131369   4.182   7.513   0.570
 6446SOL    HW231370   4.266   7.595   0.457
 6447SOL     OW31371   4.659   7.684   0.480
 6447SOL    HW131372   4.611   7.725   0.402
 6447SOL    HW231373   4.758   7.682   0.461
 6448SOL     OW31374   4.800   8.131   1.464
 6448SOL    HW131375   4.720   8.070   1.467
 6448SOL    HW231376   4.881   8.078   1.440
 6449SOL     OW31377   4.756   7.997   0.016
 6449SOL    HW131378   4.715   8.079  -0.023
 6449SOL    HW231379   4.820   8.023   0.089
 6450SOL     OW31380   3.802   8.004   1.386
 6450SOL    HW131381   3.894   8.003   1.345
 6450SOL    HW231382   3.796   8.078   1.453
 6451SOL     OW31383   4.285   7.670   1.147
 6451SOL    HW131384   4.323   7.586   1.184
 6451SOL    HW231385   4.197   7.689   1.191
 6452SOL     OW31386   4.590   7.902   0.642
 6452SOL    HW131387   4.558   7.974   0.580
 6452SOL    HW231388   4.614   7.821   0.589
 6453SOL     OW31389   4.741   7.487   0.753
 6453SOL    HW131390   4.669   7.492   0.684
 6453SOL    HW231391   4.717   7.418   0.822
 6454SOL     OW31392   5.190   8.038   0.992
 6454SOL    HW131393   5.160   7.943   0.999
 6454SOL    HW231394   5.263   8.054   1.058
 6455SOL     OW31395   5.581   8.281   0.377
 6455SOL    HW131396   5.623   8.217   0.441
 6455SOL    HW231397   5.543   8.230   0.299
 6456SOL     OW31398   5.114   8.023   0.078
 6456SOL    HW131399   5.060   8.002   0.159
 6456SOL    HW231400   5.205   7.982   0.087
 6457SOL     OW31401   4.251   7.704   0.328
 6457SOL    HW131402   4.278   7.645   0.253
 6457SOL    HW231403   4.251   7.799   0.297
 6458SOL     OW31404   5.362   8.547   1.079
 6458SOL    HW131405   5.367   8.628   1.138
 6458SOL    HW231406   5.276   8.549   1.028
 6459SOL     OW31407   4.639   7.537   1.402
 6459SOL    HW131408   4.664   7.517   1.307
 6459SOL    HW231409   4.711   7.593   1.444
 6460SOL     OW31410   4.134   8.261   1.251
 6460SOL    HW131411   4.220   8.273   1.301
 6460SOL    HW231412   4.092   8.174   1.278
 6461SOL     OW31413   4.998   7.834   1.262
 6461SOL    HW131414   5.019   7.908   1.326
 6461SOL    HW231415   4.909   7.851   1.219
 6462SOL     OW31416   4.290   7.985   0.865
 6462SOL    HW131417   4.302   8.051   0.791
 6462SOL    HW231418   4.336   8.019   0.948
 6463SOL     OW31419   5.306   8.087   0.472
 6463SOL    HW131420   5.275   8.148   0.545
 6463SOL    HW231421   5.356   8.139   0.403
 6464SOL     OW31422   4.126   8.199   1.598
 6464SOL    HW131423   4.194   8.254   1.551
 6464SOL    HW231424   4.166   8.111   1.625
 6465SOL     OW31425   5.311   8.227   1.670
 6465SOL    HW131426   5.219   8.265   1.665
 6465SOL    HW231427   5.371   8.274   1.605
 6466SOL     OW31428   4.737   7.553   1.770
 6466SOL    HW131429   4.743   7.638   1.718
 6466SOL    HW231430   4.769   7.477   1.713
 6467SOL     OW31431   4.228   7.498   1.740
 6467SOL    HW131432   4.186   7.441   1.670
 6467SOL    HW231433   4.162   7.567   1.772
 6468SOL     OW31434   4.297   8.318   1.029
 6468SOL    HW131435   4.341   8.407   1.020
 6468SOL    HW231436   4.234   8.318   1.106
 6469SOL     OW31437   5.084   8.310   1.045
 6469SOL    HW131438   5.009   8.310   0.979
 6469SOL    HW231439   5.121   8.218   1.054
 6470SOL     OW31440   4.933   7.973   0.275
 6470SOL    HW131441   4.946   7.889   0.329
 6470SOL    HW231442   4.904   8.047   0.335
 6471SOL     OW31443   4.031   7.661   1.231
 6471SOL    HW131444   4.008   7.698   1.321
 6471SOL    HW231445   4.001   7.566   1.225
 6472SOL     OW31446   4.456   8.082   1.064
 6472SOL    HW131447   4.515   8.056   0.988
 6472SOL    HW231448   4.428   8.178   1.053
 6473SOL     OW31449   5.452   8.383   1.854
 6473SOL    HW131450   5.406   8.376   1.765
 6473SOL    HW231451   5.390   8.427   1.920
 6474SOL     OW31452   4.031   7.511   0.618
 6474SOL    HW131453   4.020   7.605   0.651
 6474SOL    HW231454   4.026   7.448   0.695
 6475SOL     OW31455   5.346   7.815   0.374
 6475SOL    HW131456   5.348   7.739   0.438
 6475SOL    HW231457   5.298   7.892   0.414
 6476SOL     OW31458   4.747   8.214   0.966
 6476SOL    HW131459   4.762   8.235   1.062
 6476SOL    HW231460   4.717   8.119   0.957
 6477SOL     OW31461   4.074   8.346   1.804
 6477SOL    HW131462   4.150   8.390   1.852
 6477SOL    HW231463   4.109   8.299   1.722
 6478SOL     OW31464   5.264   7.722   0.125
 6478SOL    HW131465   5.203   7.647   0.148
 6478SOL    HW231466   5.286   7.774   0.208
 6479SOL     OW31467   5.027   8.286   0.042
 6479SOL    HW131468   5.061   8.193   0.057
 6479SOL    HW231469   5.045   8.313  -0.053
 6480SOL     OW31470   4.043   8.258   0.949
 6480SOL    HW131471   4.136   8.294   0.954
 6480SOL    HW231472   4.037   8.173   1.001
 6481SOL     OW31473   4.063   7.957   1.006
 6481SOL    HW131474   4.011   7.874   0.989
 6481SOL    HW231475   4.140   7.962   0.942
 6482SOL     OW31476   4.862   7.828   1.678
 6482SOL    HW131477   4.817   7.891   1.742
 6482SOL    HW231478   4.955   7.859   1.661
 6483SOL     OW31479   4.884   7.655   1.477
 6483SOL    HW131480   4.884   7.719   1.554
 6483SOL    HW231481   4.912   7.703   1.394
 6484SOL     OW31482   4.726   8.244   1.238
 6484SOL    HW131483   4.767   8.212   1.324
 6484SOL    HW231484   4.630   8.217   1.235
 6485SOL     OW31485   3.764   7.992   1.114
 6485SOL    HW131486   3.849   7.959   1.073
 6485SOL    HW231487   3.777   8.007   1.212
 6486SOL     OW31488   5.093   8.398   1.660
 6486SOL    HW131489   5.132   8.487   1.680
 6486SOL    HW231490   5.103   8.378   1.563
 6487SOL     OW31491   4.539   8.020   0.325
 6487SOL    HW131492   4.546   7.931   0.279
 6487SOL    HW231493   4.445   8.054   0.317
 6488SOL     OW31494   5.381   8.052   1.206
 6488SOL    HW131495   5.343   7.983   1.268
 6488SOL    HW231496   5.463   8.016   1.162
 6489SOL     OW31497   4.395   7.912   1.269
 6489SOL    HW131498   4.361   7.823   1.239
 6489SOL    HW231499   4.421   7.966   1.189
 6490SOL     OW31500   4.197   7.948   0.191
 6490SOL    HW131501   4.258   8.028   0.195
 6490SOL    HW231502   4.102   7.979   0.198
 6491SOL     OW31503   3.883   8.585   1.466
 6491SOL    HW131504   3.905   8.524   1.542
 6491SOL    HW231505   3.893   8.536   1.380
 6492SOL     OW31506   5.071   8.507   1.234
 6492SOL    HW131507   5.095   8.444   1.160
 6492SOL    HW231508   4.981   8.547   1.216
 6493SOL     OW31509   5.026   8.303   0.309
 6493SOL    HW131510   4.940   8.272   0.351
 6493SOL    HW231511   5.022   8.289   0.210
 6494SOL     OW31512   4.627   7.534   0.133
 6494SOL    HW131513   4.678   7.535   0.047
 6494SOL    HW231514   4.683   7.492   0.204
 6495SOL     OW31515   5.450   7.583   0.523
 6495SOL    HW131516   5.523   7.566   0.456
 6495SOL    HW231517   5.419   7.496   0.561
 6496SOL     OW31518   5.004   8.375   0.672
 6496SOL    HW131519   5.064   8.294   0.674
 6496SOL    HW231520   5.044   8.444   0.612
 6497SOL     OW31521   5.565   7.623   0.963
 6497SOL    HW131522   5.604   7.538   0.927
 6497SOL    HW231523   5.467   7.625   0.944
 6498SOL     OW31524   3.987   7.774   0.720
 6498SOL    HW131525   3.908   7.825   0.686
 6498SOL    HW231526   3.978   7.759   0.818
 6499SOL     OW31527   4.640   8.358   0.291
 6499SOL    HW131528   4.703   8.396   0.223
 6499SOL    HW231529   4.680   8.275   0.330
 6500SOL     OW31530   4.738   7.684   0.971
 6500SOL    HW131531   4.730   7.648   0.878
 6500SOL    HW231532   4.736   7.608   1.036
 6501SOL     OW31533   5.433   7.833   1.381
 6501SOL    HW131534   5.506   7.902   1.385
 6501SOL    HW231535   5.461   7.758   1.322
 6502SOL     OW31536   4.396   7.651   1.489
 6502SOL    HW131537   4.486   7.635   1.449
 6502SOL    HW231538   4.404   7.656   1.588
 6503SOL     OW31539   3.799   7.793   0.033
 6503SOL    HW131540   3.707   7.765   0.004
 6503SOL    HW231541   3.830   7.870  -0.023
 6504SOL     OW31542   5.164   8.304   1.398
 6504SOL    HW131543   5.107   8.356   1.335
 6504SOL    HW231544   5.260   8.316   1.374
 6505SOL     OW31545   3.796   7.614   0.318
 6505SOL    HW131546   3.779   7.697   0.264
 6505SOL    HW231547   3.886   7.577   0.296
 6506SOL     OW31548   4.337   8.290   1.431
 6506SOL    HW131549   4.393   8.371   1.414
 6506SOL    HW231550   4.396   8.210   1.434
 6507SOL     OW31551   5.398   8.331   1.254
 6507SOL    HW131552   5.371   8.242   1.217
 6507SOL    HW231553   5.399   8.399   1.181
 6508SOL     OW31554   4.949   7.773   0.449
 6508SOL    HW131555   5.014   7.699   0.438
 6508SOL    HW231556   4.969   7.823   0.533
 6509SOL     OW31557   4.318   8.193   0.652
 6509SOL    HW131558   4.368   8.278   0.633
 6509SOL    HW231559   4.230   8.195   0.604
 6510SOL     OW31560   5.501   7.790   1.642
 6510SOL    HW131561   5.484   7.821   1.548
 6510SOL    HW231562   5.417   7.753   1.680
 6511SOL     OW31563   5.454   8.382   1.517
 6511SOL    HW131564   5.492   8.473   1.532
 6511SOL    HW231565   5.446   8.365   1.418
 6512SOL     OW31566   4.807   8.432   0.087
 6512SOL    HW131567   4.784   8.485   0.005
 6512SOL    HW231568   4.888   8.376   0.068
 6513SOL     OW31569   5.548   7.640   1.227
 6513SOL    HW131570   5.544   7.550   1.271
 6513SOL    HW231571   5.551   7.629   1.128
 6514SOL     OW31572   4.152   7.872   0.520
 6514SOL    HW131573   4.182   7.800   0.458
 6514SOL    HW231574   4.113   7.832   0.603
 6515SOL     OW31575   4.041   7.995   1.280
 6515SOL    HW131576   4.079   7.936   1.352
 6515SOL    HW231577   4.081   7.969   1.192
 6516SOL     OW31578   5.148   7.662   1.112
 6516SOL    HW131579   5.200   7.597   1.167
 6516SOL    HW231580   5.099   7.725   1.173
 6517SOL     OW31581   4.725   7.482   1.154
 6517SOL    HW131582   4.662   7.410   1.123
 6517SOL    HW231583   4.818   7.446   1.154
 6518SOL     OW31584   5.076   7.500   0.168
 6518SOL    HW131585   5.111   7.459   0.084
 6518SOL    HW231586   4.986   7.462   0.188
 6519SOL     OW31587   5.024   7.901   0.691
 6519SOL    HW131588   4.965   7.981   0.695
 6519SOL    HW231589   5.039   7.866   0.784
 6520SOL     OW31590   5.317   7.669   0.882
 6520SOL    HW131591   5.233   7.668   0.936
 6520SOL    HW231592   5.319   7.752   0.826
 6521SOL     OW31593   3.949   7.723   2.858
 6521SOL    HW131594   3.984   7.706   2.950
 6521SOL    HW231595   3.861   7.678   2.846
 6522SOL     OW31596   4.409   8.460   2.527
 6522SOL    HW131597   4.478   8.444   2.597
 6522SOL    HW231598   4.336   8.517   2.565
 6523SOL     OW31599   3.846   8.091   2.425
 6523SOL    HW131600   3.801   8.003   2.442
 6523SOL    HW231601   3.845   8.145   2.509
 6524SOL     OW31602   5.249   8.447   2.052
 6524SOL    HW131603   5.186   8.371   2.065
 6524SOL    HW231604   5.297   8.465   2.138
 6525SOL     OW31605   4.041   7.699   3.663
 6525SOL    HW131606   4.112   7.770   3.669
 6525SOL    HW231607   3.953   7.738   3.691
 6526SOL     OW31608   4.322   8.177   2.132
 6526SOL    HW131609   4.346   8.246   2.064
 6526SOL    HW231610   4.244   8.210   2.186
 6527SOL     OW31611   5.005   7.793   2.806
 6527SOL    HW131612   4.919   7.743   2.793
 6527SOL    HW231613   5.067   7.739   2.862
 6528SOL     OW31614   4.697   8.338   3.434
 6528SOL    HW131615   4.743   8.254   3.405
 6528SOL    HW231616   4.641   8.372   3.359
 6529SOL     OW31617   4.715   7.858   3.104
 6529SOL    HW131618   4.638   7.892   3.158
 6529SOL    HW231619   4.681   7.807   3.025
 6530SOL     OW31620   3.926   7.733   3.360
 6530SOL    HW131621   3.846   7.793   3.347
 6530SOL    HW231622   3.916   7.684   3.446
 6531SOL     OW31623   4.106   8.148   2.342
 6531SOL    HW131624   4.151   8.058   2.339
 6531SOL    HW231625   4.012   8.137   2.375
 6532SOL     OW31626   4.338   7.570   1.979
 6532SOL    HW131627   4.436   7.548   1.986
 6532SOL    HW231628   4.307   7.553   1.886
 6533SOL     OW31629   4.021   7.483   2.033
 6533SOL    HW131630   4.070   7.567   2.012
 6533SOL    HW231631   4.083   7.418   2.078
 6534SOL     OW31632   3.802   8.004   3.248
 6534SOL    HW131633   3.894   8.003   3.207
 6534SOL    HW231634   3.796   8.078   3.315
 6535SOL     OW31635   4.285   7.670   3.009
 6535SOL    HW131636   4.323   7.586   3.046
 6535SOL    HW231637   4.197   7.689   3.053
 6536SOL     OW31638   4.590   7.902   2.504
 6536SOL    HW131639   4.558   7.974   2.442
 6536SOL    HW231640   4.614   7.821   2.451
 6537SOL     OW31641   4.741   7.487   2.615
 6537SOL    HW131642   4.669   7.492   2.546
 6537SOL    HW231643   4.717   7.418   2.684
 6538SOL     OW31644   5.190   8.038   2.854
 6538SOL    HW131645   5.160   7.943   2.861
 6538SOL    HW231646   5.263   8.054   2.920
 6539SOL     OW31647   5.581   8.281   2.239
 6539SOL    HW131648   5.623   8.217   2.303
 6539SOL    HW231649   5.543   8.230   2.161
 6540SOL     OW31650   4.251   7.704   2.190
 6540SOL    HW131651   4.278   7.645   2.115
 6540SOL    HW231652   4.251   7.799   2.159
 6541SOL     OW31653   5.362   8.547   2.941
 6541SOL    HW131654   5.367   8.628   3.000
 6541SOL    HW231655   5.276   8.549   2.890
 6542SOL     OW31656   5.306   8.087   2.334
 6542SOL    HW131657   5.275   8.148   2.407
 6542SOL    HW231658   5.356   8.139   2.265
 6543SOL     OW31659   4.126   8.199   3.460
 6543SOL    HW131660   4.194   8.254   3.413
 6543SOL    HW231661   4.166   8.111   3.487
 6544SOL     OW31662   4.737   7.553   3.632
 6544SOL    HW131663   4.743   7.638   3.580
 6544SOL    HW231664   4.769   7.477   3.575
 6545SOL     OW31665   4.228   7.498   3.602
 6545SOL    HW131666   4.186   7.441   3.532
 6545SOL    HW231667   4.162   7.567   3.634
 6546SOL     OW31668   5.084   8.310   2.907
 6546SOL    HW131669   5.009   8.310   2.841
 6546SOL    HW231670   5.121   8.218   2.916
 6547SOL     OW31671   4.933   7.973   2.137
 6547SOL    HW131672   4.946   7.889   2.191
 6547SOL    HW231673   4.904   8.047   2.197
 6548SOL     OW31674   4.031   7.661   3.093
 6548SOL    HW131675   4.008   7.698   3.183
 6548SOL    HW231676   4.001   7.566   3.087
 6549SOL     OW31677   5.452   8.383   3.716
 6549SOL    HW131678   5.406   8.376   3.627
 6549SOL    HW231679   5.390   8.427   3.782
 6550SOL     OW31680   4.031   7.511   2.480
 6550SOL    HW131681   4.020   7.605   2.513
 6550SOL    HW231682   4.026   7.448   2.557
 6551SOL     OW31683   4.726   8.244   3.100
 6551SOL    HW131684   4.767   8.212   3.186
 6551SOL    HW231685   4.630   8.217   3.097
 6552SOL     OW31686   3.913   7.968   3.584
 6552SOL    HW131687   3.972   7.928   3.514
 6552SOL    HW231688   3.855   8.039   3.543
 6553SOL     OW31689   5.093   8.398   3.522
 6553SOL    HW131690   5.132   8.487   3.542
 6553SOL    HW231691   5.103   8.378   3.425
 6554SOL     OW31692   4.539   8.020   2.187
 6554SOL    HW131693   4.546   7.931   2.141
 6554SOL    HW231694   4.445   8.054   2.179
 6555SOL     OW31695   4.395   7.912   3.131
 6555SOL    HW131696   4.361   7.823   3.101
 6555SOL    HW231697   4.421   7.966   3.051
 6556SOL     OW31698   3.883   8.585   3.328
 6556SOL    HW131699   3.905   8.524   3.404
 6556SOL    HW231700   3.893   8.536   3.242
 6557SOL     OW31701   5.071   8.507   3.096
 6557SOL    HW131702   5.095   8.444   3.022
 6557SOL    HW231703   4.981   8.547   3.078
 6558SOL     OW31704   5.026   8.303   2.171
 6558SOL    HW131705   4.940   8.272   2.213
 6558SOL    HW231706   5.022   8.289   2.072
 6559SOL     OW31707   5.450   7.583   2.385
 6559SOL    HW131708   5.523   7.566   2.318
 6559SOL    HW231709   5.419   7.496   2.423
 6560SOL     OW31710   5.565   7.623   2.825
 6560SOL    HW131711   5.604   7.538   2.789
 6560SOL    HW231712   5.467   7.625   2.806
 6561SOL     OW31713   4.396   7.651   3.351
 6561SOL    HW131714   4.486   7.635   3.311
 6561SOL    HW231715   4.404   7.656   3.450
 6562SOL     OW31716   4.318   8.193   2.514
 6562SOL    HW131717   4.368   8.278   2.495
 6562SOL    HW231718   4.230   8.195   2.466
 6563SOL     OW31719   5.548   7.640   3.089
 6563SOL    HW131720   5.544   7.550   3.133
 6563SOL    HW231721   5.551   7.629   2.990
 6564SOL     OW31722   4.152   7.872   2.382
 6564SOL    HW131723   4.182   7.800   2.320
 6564SOL    HW231724   4.113   7.832   2.465
 6565SOL     OW31725   5.148   7.662   2.974
 6565SOL    HW131726   5.200   7.597   3.029
 6565SOL    HW231727   5.099   7.725   3.035
 6566SOL     OW31728   5.024   7.901   2.553
 6566SOL    HW131729   4.965   7.981   2.557
 6566SOL    HW231730   5.039   7.866   2.646
 6567SOL     OW31731   5.317   7.669   2.744
 6567SOL    HW131732   5.233   7.668   2.798
 6567SOL    HW231733   5.319   7.752   2.688
 6568SOL     OW31734   3.949   7.723   4.720
 6568SOL    HW131735   3.984   7.706   4.812
 6568SOL    HW231736   3.861   7.678   4.708
 6569SOL     OW31737   4.859   8.151   4.441
 6569SOL    HW131738   4.916   8.229   4.416
 6569SOL    HW231739   4.799   8.177   4.517
 6570SOL     OW31740   3.846   8.091   4.287
 6570SOL    HW131741   3.801   8.003   4.304
 6570SOL    HW231742   3.845   8.145   4.371
 6571SOL     OW31743   4.533   7.452   4.226
 6571SOL    HW131744   4.573   7.543   4.217
 6571SOL    HW231745   4.433   7.460   4.232
 6572SOL     OW31746   4.041   7.699   5.525
 6572SOL    HW131747   4.112   7.770   5.531
 6572SOL    HW231748   3.953   7.738   5.553
 6573SOL     OW31749   4.531   8.053   5.189
 6573SOL    HW131750   4.484   8.050   5.278
 6573SOL    HW231751   4.480   7.998   5.123
 6574SOL     OW31752   5.118   7.917   5.398
 6574SOL    HW131753   5.098   7.960   5.486
 6574SOL    HW231754   5.196   7.855   5.407
 6575SOL     OW31755   4.715   7.858   4.966
 6575SOL    HW131756   4.638   7.892   5.020
 6575SOL    HW231757   4.681   7.807   4.887
 6576SOL     OW31758   4.765   8.149   4.153
 6576SOL    HW131759   4.791   8.145   4.249
 6576SOL    HW231760   4.680   8.098   4.139
 6577SOL     OW31761   3.800   8.259   4.513
 6577SOL    HW131762   3.899   8.247   4.522
 6577SOL    HW231763   3.776   8.354   4.534
 6578SOL     OW31764   4.589   7.796   3.919
 6578SOL    HW131765   4.648   7.859   3.870
 6578SOL    HW231766   4.608   7.702   3.890
 6579SOL     OW31767   3.926   7.733   5.222
 6579SOL    HW131768   3.846   7.793   5.209
 6579SOL    HW231769   3.916   7.684   5.308
 6580SOL     OW31770   5.124   7.555   4.150
 6580SOL    HW131771   5.100   7.518   4.060
 6580SOL    HW231772   5.223   7.571   4.154
 6581SOL     OW31773   5.271   7.670   5.453
 6581SOL    HW131774   5.266   7.707   5.545
 6581SOL    HW231775   5.199   7.601   5.441
 6582SOL     OW31776   4.505   7.712   5.473
 6582SOL    HW131777   4.572   7.651   5.516
 6582SOL    HW231778   4.432   7.731   5.538
 6583SOL     OW31779   5.075   8.038   5.157
 6583SOL    HW131780   5.103   7.995   5.242
 6583SOL    HW231781   5.100   8.134   5.158
 6584SOL     OW31782   4.263   7.512   4.236
 6584SOL    HW131783   4.182   7.513   4.294
 6584SOL    HW231784   4.266   7.595   4.181
 6585SOL     OW31785   4.800   8.131   5.188
 6585SOL    HW131786   4.720   8.070   5.191
 6585SOL    HW231787   4.881   8.078   5.164
 6586SOL     OW31788   3.802   8.004   5.110
 6586SOL    HW131789   3.894   8.003   5.069
 6586SOL    HW231790   3.796   8.078   5.177
 6587SOL     OW31791   5.114   8.023   3.802
 6587SOL    HW131792   5.060   8.002   3.883
 6587SOL    HW231793   5.205   7.982   3.811
 6588SOL     OW31794   4.639   7.537   5.126
 6588SOL    HW131795   4.664   7.517   5.031
 6588SOL    HW231796   4.711   7.593   5.168
 6589SOL     OW31797   5.306   8.087   4.196
 6589SOL    HW131798   5.275   8.148   4.269
 6589SOL    HW231799   5.356   8.139   4.127
 6590SOL     OW31800   4.126   8.199   5.322
 6590SOL    HW131801   4.194   8.254   5.275
 6590SOL    HW231802   4.166   8.111   5.349
 6591SOL     OW31803   4.737   7.553   5.494
 6591SOL    HW131804   4.743   7.638   5.442
 6591SOL    HW231805   4.769   7.477   5.437
 6592SOL     OW31806   4.228   7.498   5.464
 6592SOL    HW131807   4.186   7.441   5.394
 6592SOL    HW231808   4.162   7.567   5.496
 6593SOL     OW31809   4.031   7.661   4.955
 6593SOL    HW131810   4.008   7.698   5.045
 6593SOL    HW231811   4.001   7.566   4.949
 6594SOL     OW31812   5.452   8.383   5.578
 6594SOL    HW131813   5.406   8.376   5.489
 6594SOL    HW231814   5.390   8.427   5.644
 6595SOL     OW31815   4.031   7.511   4.342
 6595SOL    HW131816   4.020   7.605   4.375
 6595SOL    HW231817   4.026   7.448   4.419
 6596SOL     OW31818   4.074   8.346   5.528
 6596SOL    HW131819   4.150   8.390   5.576
 6596SOL    HW231820   4.109   8.299   5.446
 6597SOL     OW31821   5.027   8.286   3.766
 6597SOL    HW131822   5.061   8.193   3.781
 6597SOL    HW231823   5.045   8.313   3.671
 6598SOL     OW31824   4.862   7.828   5.402
 6598SOL    HW131825   4.817   7.891   5.466
 6598SOL    HW231826   4.955   7.859   5.385
 6599SOL     OW31827   4.884   7.655   5.201
 6599SOL    HW131828   4.884   7.719   5.278
 6599SOL    HW231829   4.912   7.703   5.118
 6600SOL     OW31830   5.093   8.398   5.384
 6600SOL    HW131831   5.132   8.487   5.404
 6600SOL    HW231832   5.103   8.378   5.287
 6601SOL     OW31833   5.004   8.375   4.396
 6601SOL    HW131834   5.064   8.294   4.398
 6601SOL    HW231835   5.044   8.444   4.336
 6602SOL     OW31836   3.987   7.774   4.444
 6602SOL    HW131837   3.908   7.825   4.410
 6602SOL    HW231838   3.978   7.759   4.542
 6603SOL     OW31839   4.640   8.358   4.015
 6603SOL    HW131840   4.703   8.396   3.947
 6603SOL    HW231841   4.680   8.275   4.054
 6604SOL     OW31842   3.829   8.461   5.450
 6604SOL    HW131843   3.752   8.428   5.504
 6604SOL    HW231844   3.914   8.431   5.492
 6605SOL     OW31845   4.396   7.651   5.213
 6605SOL    HW131846   4.486   7.635   5.173
 6605SOL    HW231847   4.404   7.656   5.312
 6606SOL     OW31848   4.337   8.290   5.155
 6606SOL    HW131849   4.393   8.371   5.138
 6606SOL    HW231850   4.396   8.210   5.158
 6607SOL     OW31851   4.440   8.013   5.432
 6607SOL    HW131852   4.459   8.078   5.506
 6607SOL    HW231853   4.500   7.933   5.441
 6608SOL     OW31854   3.949   7.723   6.582
 6608SOL    HW131855   3.984   7.706   6.674
 6608SOL    HW231856   3.861   7.678   6.570
 6609SOL     OW31857   3.743   7.816   6.233
 6609SOL    HW131858   3.661   7.859   6.272
 6609SOL    HW231859   3.715   7.743   6.170
 6610SOL     OW31860   4.859   8.151   6.303
 6610SOL    HW131861   4.916   8.229   6.278
 6610SOL    HW231862   4.799   8.177   6.379
 6611SOL     OW31863   5.479   8.055   5.817
 6611SOL    HW131864   5.467   8.042   5.718
 6611SOL    HW231865   5.449   7.974   5.866
 6612SOL     OW31866   4.492   8.592   6.609
 6612SOL    HW131867   4.414   8.609   6.669
 6612SOL    HW231868   4.526   8.679   6.573
 6613SOL     OW31869   4.409   8.460   6.251
 6613SOL    HW131870   4.478   8.444   6.321
 6613SOL    HW231871   4.336   8.517   6.289
 6614SOL     OW31872   4.162   7.840   7.085
 6614SOL    HW131873   4.244   7.784   7.094
 6614SOL    HW231874   4.081   7.782   7.089
 6615SOL     OW31875   5.327   7.895   6.323
 6615SOL    HW131876   5.253   7.941   6.273
 6615SOL    HW231877   5.378   7.963   6.376
 6616SOL     OW31878   3.964   8.539   6.472
 6616SOL    HW131879   3.978   8.455   6.524
 6616SOL    HW231880   3.909   8.603   6.527
 6617SOL     OW31881   3.846   8.091   6.149
 6617SOL    HW131882   3.801   8.003   6.166
 6617SOL    HW231883   3.845   8.145   6.233
 6618SOL     OW31884   4.533   7.452   6.088
 6618SOL    HW131885   4.573   7.543   6.079
 6618SOL    HW231886   4.433   7.460   6.094
 6619SOL     OW31887   3.921   8.424   6.850
 6619SOL    HW131888   4.010   8.379   6.836
 6619SOL    HW231889   3.848   8.359   6.831
 6620SOL     OW31890   5.249   8.447   5.776
 6620SOL    HW131891   5.186   8.371   5.789
 6620SOL    HW231892   5.297   8.465   5.862
 6621SOL     OW31893   4.322   8.177   5.856
 6621SOL    HW131894   4.346   8.246   5.788
 6621SOL    HW231895   4.244   8.210   5.910
 6622SOL     OW31896   5.005   7.793   6.530
 6622SOL    HW131897   4.919   7.743   6.517
 6622SOL    HW231898   5.067   7.739   6.586
 6623SOL     OW31899   4.531   8.053   7.051
 6623SOL    HW131900   4.484   8.050   7.140
 6623SOL    HW231901   4.480   7.998   6.985
 6624SOL     OW31902   4.715   7.858   6.828
 6624SOL    HW131903   4.638   7.892   6.882
 6624SOL    HW231904   4.681   7.807   6.749
 6625SOL     OW31905   4.765   8.149   6.015
 6625SOL    HW131906   4.791   8.145   6.111
 6625SOL    HW231907   4.680   8.098   6.001
 6626SOL     OW31908   3.800   8.259   6.375
 6626SOL    HW131909   3.899   8.247   6.384
 6626SOL    HW231910   3.776   8.354   6.396
 6627SOL     OW31911   4.589   7.796   5.781
 6627SOL    HW131912   4.648   7.859   5.732
 6627SOL    HW231913   4.608   7.702   5.752
 6628SOL     OW31914   4.274   7.644   6.471
 6628SOL    HW131915   4.269   7.639   6.571
 6628SOL    HW231916   4.276   7.740   6.442
 6629SOL     OW31917   5.182   8.183   6.314
 6629SOL    HW131918   5.177   8.118   6.389
 6629SOL    HW231919   5.262   8.242   6.327
 6630SOL     OW31920   5.124   7.555   6.012
 6630SOL    HW131921   5.100   7.518   5.922
 6630SOL    HW231922   5.223   7.571   6.016
 6631SOL     OW31923   4.106   8.148   6.066
 6631SOL    HW131924   4.151   8.058   6.063
 6631SOL    HW231925   4.012   8.137   6.099
 6632SOL     OW31926   4.338   7.570   5.703
 6632SOL    HW131927   4.436   7.548   5.710
 6632SOL    HW231928   4.307   7.553   5.610
 6633SOL     OW31929   4.646   7.951   6.485
 6633SOL    HW131930   4.621   7.942   6.389
 6633SOL    HW231931   4.694   7.869   6.516
 6634SOL     OW31932   4.263   7.512   6.098
 6634SOL    HW131933   4.182   7.513   6.156
 6634SOL    HW231934   4.266   7.595   6.043
 6635SOL     OW31935   4.021   7.483   5.757
 6635SOL    HW131936   4.070   7.567   5.736
 6635SOL    HW231937   4.083   7.418   5.802
 6636SOL     OW31938   4.659   7.684   6.066
 6636SOL    HW131939   4.611   7.725   5.988
 6636SOL    HW231940   4.758   7.682   6.047
 6637SOL     OW31941   4.756   7.997   5.602
 6637SOL    HW131942   4.715   8.079   5.563
 6637SOL    HW231943   4.820   8.023   5.675
 6638SOL     OW31944   4.285   7.670   6.733
 6638SOL    HW131945   4.323   7.586   6.770
 6638SOL    HW231946   4.197   7.689   6.777
 6639SOL     OW31947   4.590   7.902   6.228
 6639SOL    HW131948   4.558   7.974   6.166
 6639SOL    HW231949   4.614   7.821   6.175
 6640SOL     OW31950   4.741   7.487   6.339
 6640SOL    HW131951   4.669   7.492   6.270
 6640SOL    HW231952   4.717   7.418   6.408
 6641SOL     OW31953   5.190   8.038   6.578
 6641SOL    HW131954   5.160   7.943   6.585
 6641SOL    HW231955   5.263   8.054   6.644
 6642SOL     OW31956   5.581   8.281   5.963
 6642SOL    HW131957   5.623   8.217   6.027
 6642SOL    HW231958   5.543   8.230   5.885
 6643SOL     OW31959   5.114   8.023   5.664
 6643SOL    HW131960   5.060   8.002   5.745
 6643SOL    HW231961   5.205   7.982   5.673
 6644SOL     OW31962   4.251   7.704   5.914
 6644SOL    HW131963   4.278   7.645   5.839
 6644SOL    HW231964   4.251   7.799   5.883
 6645SOL     OW31965   5.478   8.671   7.174
 6645SOL    HW131966   5.569   8.632   7.161
 6645SOL    HW231967   5.486   8.767   7.198
 6646SOL     OW31968   5.362   8.547   6.665
 6646SOL    HW131969   5.367   8.628   6.724
 6646SOL    HW231970   5.276   8.549   6.614
 6647SOL     OW31971   4.134   8.261   6.837
 6647SOL    HW131972   4.220   8.273   6.887
 6647SOL    HW231973   4.092   8.174   6.864
 6648SOL     OW31974   4.998   7.834   6.848
 6648SOL    HW131975   5.019   7.908   6.912
 6648SOL    HW231976   4.909   7.851   6.805
 6649SOL     OW31977   4.290   7.985   6.451
 6649SOL    HW131978   4.302   8.051   6.377
 6649SOL    HW231979   4.336   8.019   6.534
 6650SOL     OW31980   5.306   8.087   6.058
 6650SOL    HW131981   5.275   8.148   6.131
 6650SOL    HW231982   5.356   8.139   5.989
 6651SOL     OW31983   4.228   7.498   7.326
 6651SOL    HW131984   4.186   7.441   7.256
 6651SOL    HW231985   4.162   7.567   7.358
 6652SOL     OW31986   4.297   8.318   6.615
 6652SOL    HW131987   4.341   8.407   6.606
 6652SOL    HW231988   4.234   8.318   6.692
 6653SOL     OW31989   5.084   8.310   6.631
 6653SOL    HW131990   5.009   8.310   6.565
 6653SOL    HW231991   5.121   8.218   6.640
 6654SOL     OW31992   4.933   7.973   5.861
 6654SOL    HW131993   4.946   7.889   5.915
 6654SOL    HW231994   4.904   8.047   5.921
 6655SOL     OW31995   4.031   7.661   6.817
 6655SOL    HW131996   4.008   7.698   6.907
 6655SOL    HW231997   4.001   7.566   6.811
 6656SOL     OW31998   4.456   8.082   6.650
 6656SOL    HW131999   4.515   8.056   6.574
 6656SOL    HW232000   4.428   8.178   6.639
 6657SOL     OW32001   4.031   7.511   6.204
 6657SOL    HW132002   4.020   7.605   6.237
 6657SOL    HW232003   4.026   7.448   6.281
 6658SOL     OW32004   5.346   7.815   5.960
 6658SOL    HW132005   5.348   7.739   6.024
 6658SOL    HW232006   5.298   7.892   6.000
 6659SOL     OW32007   4.747   8.214   6.552
 6659SOL    HW132008   4.762   8.235   6.648
 6659SOL    HW232009   4.717   8.119   6.543
 6660SOL     OW32010   4.074   8.346   7.390
 6660SOL    HW132011   4.150   8.390   7.438
 6660SOL    HW232012   4.109   8.299   7.308
 6661SOL     OW32013   5.264   7.722   5.711
 6661SOL    HW132014   5.203   7.647   5.734
 6661SOL    HW232015   5.286   7.774   5.794
 6662SOL     OW32016   5.027   8.286   5.628
 6662SOL    HW132017   5.061   8.193   5.643
 6662SOL    HW232018   5.045   8.313   5.533
 6663SOL     OW32019   4.043   8.258   6.535
 6663SOL    HW132020   4.136   8.294   6.540
 6663SOL    HW232021   4.037   8.173   6.587
 6664SOL     OW32022   4.063   7.957   6.592
 6664SOL    HW132023   4.011   7.874   6.575
 6664SOL    HW232024   4.140   7.962   6.528
 6665SOL     OW32025   4.884   7.655   7.063
 6665SOL    HW132026   4.884   7.719   7.140
 6665SOL    HW232027   4.912   7.703   6.980
 6666SOL     OW32028   4.726   8.244   6.824
 6666SOL    HW132029   4.767   8.212   6.910
 6666SOL    HW232030   4.630   8.217   6.821
 6667SOL     OW32031   3.764   7.992   6.700
 6667SOL    HW132032   3.849   7.959   6.659
 6667SOL    HW232033   3.777   8.007   6.798
 6668SOL     OW32034   4.539   8.020   5.911
 6668SOL    HW132035   4.546   7.931   5.865
 6668SOL    HW232036   4.445   8.054   5.903
 6669SOL     OW32037   5.381   8.052   6.792
 6669SOL    HW132038   5.343   7.983   6.854
 6669SOL    HW232039   5.463   8.016   6.748
 6670SOL     OW32040   4.395   7.912   6.855
 6670SOL    HW132041   4.361   7.823   6.825
 6670SOL    HW232042   4.421   7.966   6.775
 6671SOL     OW32043   4.197   7.948   5.777
 6671SOL    HW132044   4.258   8.028   5.781
 6671SOL    HW232045   4.102   7.979   5.784
 6672SOL     OW32046   3.883   8.585   7.052
 6672SOL    HW132047   3.905   8.524   7.128
 6672SOL    HW232048   3.893   8.536   6.966
 6673SOL     OW32049   5.071   8.507   6.820
 6673SOL    HW132050   5.095   8.444   6.746
 6673SOL    HW232051   4.981   8.547   6.802
 6674SOL     OW32052   5.026   8.303   5.895
 6674SOL    HW132053   4.940   8.272   5.937
 6674SOL    HW232054   5.022   8.289   5.796
 6675SOL     OW32055   5.450   7.583   6.109
 6675SOL    HW132056   5.523   7.566   6.042
 6675SOL    HW232057   5.419   7.496   6.147
 6676SOL     OW32058   5.004   8.375   6.258
 6676SOL    HW132059   5.064   8.294   6.260
 6676SOL    HW232060   5.044   8.444   6.198
 6677SOL     OW32061   4.554   8.721   7.008
 6677SOL    HW132062   4.549   8.754   7.103
 6677SOL    HW232063   4.468   8.740   6.962
 6678SOL     OW32064   5.565   7.623   6.549
 6678SOL    HW132065   5.604   7.538   6.513
 6678SOL    HW232066   5.467   7.625   6.530
 6679SOL     OW32067   3.987   7.774   6.306
 6679SOL    HW132068   3.908   7.825   6.272
 6679SOL    HW232069   3.978   7.759   6.404
 6680SOL     OW32070   4.546   8.450   6.958
 6680SOL    HW132071   4.586   8.449   6.866
 6680SOL    HW232072   4.556   8.542   6.998
 6681SOL     OW32073   4.640   8.358   5.877
 6681SOL    HW132074   4.703   8.396   5.809
 6681SOL    HW232075   4.680   8.275   5.916
 6682SOL     OW32076   4.738   7.684   6.557
 6682SOL    HW132077   4.730   7.648   6.464
 6682SOL    HW232078   4.736   7.608   6.622
 6683SOL     OW32079   5.433   7.833   6.967
 6683SOL    HW132080   5.506   7.902   6.971
 6683SOL    HW232081   5.461   7.758   6.908
 6684SOL     OW32082   3.829   8.461   7.312
 6684SOL    HW132083   3.752   8.428   7.366
 6684SOL    HW232084   3.914   8.431   7.354
 6685SOL     OW32085   4.396   7.651   7.075
 6685SOL    HW132086   4.486   7.635   7.035
 6685SOL    HW232087   4.404   7.656   7.174
 6686SOL     OW32088   3.796   7.614   5.904
 6686SOL    HW132089   3.779   7.697   5.850
 6686SOL    HW232090   3.886   7.577   5.882
 6687SOL     OW32091   4.337   8.290   7.017
 6687SOL    HW132092   4.393   8.371   7.000
 6687SOL    HW232093   4.396   8.210   7.020
 6688SOL     OW32094   5.398   8.331   6.840
 6688SOL    HW132095   5.371   8.242   6.803
 6688SOL    HW232096   5.399   8.399   6.767
 6689SOL     OW32097   4.949   7.773   6.035
 6689SOL    HW132098   5.014   7.699   6.024
 6689SOL    HW232099   4.969   7.823   6.119
 6690SOL     OW32100   4.318   8.193   6.238
 6690SOL    HW132101   4.368   8.278   6.219
 6690SOL    HW232102   4.230   8.195   6.190
 6691SOL     OW32103   5.454   8.382   7.103
 6691SOL    HW132104   5.492   8.473   7.118
 6691SOL    HW232105   5.446   8.365   7.004
 6692SOL     OW32106   5.548   7.640   6.813
 6692SOL    HW132107   5.544   7.550   6.857
 6692SOL    HW232108   5.551   7.629   6.714
 6693SOL     OW32109   4.152   7.872   6.106
 6693SOL    HW132110   4.182   7.800   6.044
 6693SOL    HW232111   4.113   7.832   6.189
 6694SOL     OW32112   4.041   7.995   6.866
 6694SOL    HW132113   4.079   7.936   6.938
 6694SOL    HW232114   4.081   7.969   6.778
 6695SOL     OW32115   5.148   7.662   6.698
 6695SOL    HW132116   5.200   7.597   6.753
 6695SOL    HW232117   5.099   7.725   6.759
 6696SOL     OW32118   4.725   7.482   6.740
 6696SOL    HW132119   4.662   7.410   6.709
 6696SOL    HW232120   4.818   7.446   6.740
 6697SOL     OW32121   5.024   7.901   6.277
 6697SOL    HW132122   4.965   7.981   6.281
 6697SOL    HW232123   5.039   7.866   6.370
 6698SOL     OW32124   5.317   7.669   6.468
 6698SOL    HW132125   5.233   7.668   6.522
 6698SOL    HW232126   5.319   7.752   6.412
 6699SOL     OW32127   5.816   0.628   0.113
 6699SOL    HW132128   5.723   0.626   0.150
 6699SOL    HW232129   5.817   0.589   0.021
 6700SOL     OW32130   5.811   0.275   0.996
 6700SOL    HW132131   5.846   0.258   1.088
 6700SOL    HW232132   5.723   0.230   0.984
 6701SOL     OW32133   5.605   0.368   0.647
 6701SOL    HW132134   5.523   0.411   0.686
 6701SOL    HW232135   5.577   0.295   0.584
 6702SOL     OW32136   6.155   1.275   1.165
 6702SOL    HW132137   6.062   1.268   1.128
 6702SOL    HW232138   6.166   1.364   1.209
 6703SOL     OW32139   7.141   1.511   0.703
 6703SOL    HW132140   7.084   1.495   0.784
 6703SOL    HW232141   7.082   1.521   0.623
 6704SOL     OW32142   6.721   0.703   0.717
 6704SOL    HW132143   6.778   0.781   0.692
 6704SOL    HW232144   6.661   0.729   0.793
 6705SOL     OW32145   7.341   0.607   0.231
 6705SOL    HW132146   7.329   0.594   0.132
 6705SOL    HW232147   7.311   0.526   0.280
 6706SOL     OW32148   6.354   1.144   1.023
 6706SOL    HW132149   6.276   1.161   1.083
 6706SOL    HW232150   6.388   1.231   0.987
 6707SOL     OW32151   6.436   0.798   1.823
 6707SOL    HW132152   6.432   0.874   1.888
 6707SOL    HW232153   6.458   0.834   1.732
 6708SOL     OW32154   6.271   1.012   0.665
 6708SOL    HW132155   6.340   0.996   0.735
 6708SOL    HW232156   6.198   1.069   0.703
 6709SOL     OW32157   5.921   1.435   1.061
 6709SOL    HW132158   5.843   1.404   1.008
 6709SOL    HW232159   5.979   1.493   1.004
 6710SOL     OW32160   7.046   1.505   1.339
 6710SOL    HW132161   7.070   1.599   1.365
 6710SOL    HW232162   7.030   1.451   1.421
 6711SOL     OW32163   7.189   0.447   0.737
 6711SOL    HW132164   7.115   0.493   0.687
 6711SOL    HW232165   7.240   0.515   0.790
 6712SOL     OW32166   5.817   1.713   0.483
 6712SOL    HW132167   5.851   1.790   0.537
 6712SOL    HW232168   5.861   1.713   0.393
 6713SOL     OW32169   6.713   1.341   1.690
 6713SOL    HW132170   6.760   1.341   1.778
 6713SOL    HW232171   6.665   1.254   1.679
 6714SOL     OW32172   5.816   1.434   0.538
 6714SOL    HW132173   5.790   1.530   0.538
 6714SOL    HW232174   5.745   1.380   0.583
 6715SOL     OW32175   5.826   1.091   0.886
 6715SOL    HW132176   5.840   1.007   0.938
 6715SOL    HW232177   5.771   1.155   0.941
 6716SOL     OW32178   6.206   1.786   1.439
 6716SOL    HW132179   6.114   1.769   1.474
 6716SOL    HW232180   6.234   1.878   1.465
 6717SOL     OW32181   6.192   0.964   0.123
 6717SOL    HW132182   6.199   1.048   0.069
 6717SOL    HW232183   6.238   0.977   0.211
 6718SOL     OW32184   7.180   0.114   1.480
 6718SOL    HW132185   7.162   0.181   1.408
 6718SOL    HW232186   7.177   0.160   1.569
 6719SOL     OW32187   5.708   0.643   0.563
 6719SOL    HW132188   5.663   0.555   0.580
 6719SOL    HW232189   5.707   0.697   0.647
 6720SOL     OW32190   7.428   1.767   0.359
 6720SOL    HW132191   7.482   1.738   0.439
 6720SOL    HW232192   7.458   1.857   0.330
 6721SOL     OW32193   5.613   1.596   0.117
 6721SOL    HW132194   5.594   1.500   0.138
 6721SOL    HW232195   5.580   1.654   0.192
 6722SOL     OW32196   7.275   0.922   0.612
 6722SOL    HW132197   7.370   0.893   0.620
 6722SOL    HW232198   7.267   0.987   0.537
 6723SOL     OW32199   7.227   1.108   0.432
 6723SOL    HW132200   7.313   1.110   0.380
 6723SOL    HW232201   7.241   1.155   0.520
 6724SOL     OW32202   5.699   0.737   1.597
 6724SOL    HW132203   5.787   0.724   1.642
 6724SOL    HW232204   5.686   0.834   1.575
 6725SOL     OW32205   6.199   1.365   0.726
 6725SOL    HW132206   6.150   1.278   0.735
 6725SOL    HW232207   6.176   1.408   0.639
 6726SOL     OW32208   6.879   1.228   1.423
 6726SOL    HW132209   6.916   1.155   1.365
 6726SOL    HW232210   6.931   1.233   1.508
 6727SOL     OW32211   6.395   0.004   0.502
 6727SOL    HW132212   6.435   0.095   0.493
 6727SOL    HW232213   6.295   0.012   0.508
 6728SOL     OW32214   5.783   0.976   1.264
 6728SOL    HW132215   5.872   0.931   1.250
 6728SOL    HW232216   5.710   0.911   1.245
 6729SOL     OW32217   7.111   0.999   0.190
 6729SOL    HW132218   7.048   0.923   0.203
 6729SOL    HW232219   7.159   1.017   0.276
 6730SOL     OW32220   6.773   1.792   1.616
 6730SOL    HW132221   6.797   1.852   1.540
 6730SOL    HW232222   6.780   1.697   1.586
 6731SOL     OW32223   5.903   0.251   1.801
 6731SOL    HW132224   5.974   0.322   1.807
 6731SOL    HW232225   5.815   0.290   1.829
 6732SOL     OW32226   7.253   1.714   0.572
 6732SOL    HW132227   7.212   1.691   0.484
 6732SOL    HW232228   7.235   1.640   0.637
 6733SOL     OW32229   6.184   0.729   0.270
 6733SOL    HW132230   6.208   0.798   0.202
 6733SOL    HW232231   6.106   0.762   0.324
 6734SOL     OW32232   6.867   0.345   0.944
 6734SOL    HW132233   6.781   0.295   0.931
 6734SOL    HW232234   6.929   0.291   1.000
 6735SOL     OW32235   7.162   1.662   0.307
 6735SOL    HW132236   7.251   1.708   0.310
 6735SOL    HW232237   7.141   1.638   0.212
 6736SOL     OW32238   6.393   0.605   1.465
 6736SOL    HW132239   6.346   0.602   1.554
 6736SOL    HW232240   6.342   0.550   1.399
 6737SOL     OW32241   6.559   0.890   1.572
 6737SOL    HW132242   6.605   0.806   1.543
 6737SOL    HW232243   6.503   0.924   1.497
 6738SOL     OW32244   6.577   0.410   1.242
 6738SOL    HW132245   6.500   0.444   1.296
 6738SOL    HW232246   6.543   0.359   1.163
 6739SOL     OW32247   6.627   0.701   0.429
 6739SOL    HW132248   6.653   0.697   0.525
 6739SOL    HW232249   6.542   0.650   0.415
 6740SOL     OW32250   5.662   0.811   0.789
 6740SOL    HW132251   5.761   0.799   0.798
 6740SOL    HW232252   5.638   0.906   0.810
 6741SOL     OW32253   6.451   0.348   0.195
 6741SOL    HW132254   6.510   0.411   0.146
 6741SOL    HW232255   6.470   0.254   0.166
 6742SOL     OW32256   6.948   1.144   0.545
 6742SOL    HW132257   7.031   1.115   0.497
 6742SOL    HW232258   6.899   1.211   0.489
 6743SOL     OW32259   6.136   0.196   0.885
 6743SOL    HW132260   6.131   0.191   0.985
 6743SOL    HW232261   6.138   0.292   0.856
 6744SOL     OW32262   6.594   1.456   0.477
 6744SOL    HW132263   6.548   1.528   0.425
 6744SOL    HW232264   6.590   1.476   0.575
 6745SOL     OW32265   5.937   1.801   0.853
 6745SOL    HW132266   5.987   1.715   0.859
 6745SOL    HW232267   6.002   1.878   0.850
 6746SOL     OW32268   6.813   1.550   1.506
 6746SOL    HW132269   6.819   1.473   1.570
 6746SOL    HW232270   6.761   1.524   1.426
 6747SOL     OW32271   5.907   0.943   0.242
 6747SOL    HW132272   5.989   0.982   0.200
 6747SOL    HW232273   5.880   0.861   0.193
 6748SOL     OW32274   7.044   0.735   0.728
 6748SOL    HW132275   7.039   0.670   0.803
 6748SOL    HW232276   7.124   0.794   0.741
 6749SOL     OW32277   6.047   1.266   1.727
 6749SOL    HW132278   5.997   1.267   1.641
 6749SOL    HW232279   5.984   1.248   1.803
 6750SOL     OW32280   6.697   1.776   0.237
 6750SOL    HW132281   6.637   1.714   0.287
 6750SOL    HW232282   6.728   1.732   0.152
 6751SOL     OW32283   5.788   0.285   1.498
 6751SOL    HW132284   5.708   0.345   1.485
 6751SOL    HW232285   5.778   0.236   1.584
 6752SOL     OW32286   7.218   1.377   0.081
 6752SOL    HW132287   7.186   1.471   0.071
 6752SOL    HW232288   7.142   1.314   0.069
 6753SOL     OW32289   6.050   1.743   0.323
 6753SOL    HW132290   6.083   1.782   0.409
 6753SOL    HW232291   6.126   1.736   0.258
 6754SOL     OW32292   6.986   0.107   0.426
 6754SOL    HW132293   6.962   0.070   0.336
 6754SOL    HW232294   7.085   0.123   0.430
 6755SOL     OW32295   5.835   1.785   1.241
 6755SOL    HW132296   5.892   1.720   1.291
 6755SOL    HW232297   5.819   1.752   1.148
 6756SOL     OW32298   6.526   1.698   0.904
 6756SOL    HW132299   6.606   1.641   0.925
 6756SOL    HW232300   6.477   1.658   0.827
 6757SOL     OW32301   5.968   0.700   0.480
 6757SOL    HW132302   6.013   0.610   0.477
 6757SOL    HW232303   5.874   0.689   0.513
 6758SOL     OW32304   7.133   0.222   1.729
 6758SOL    HW132305   7.128   0.259   1.821
 6758SOL    HW232306   7.061   0.153   1.717
 6759SOL     OW32307   6.200   0.122   0.117
 6759SOL    HW132308   6.298   0.100   0.124
 6759SOL    HW232309   6.169   0.105   0.024
 6760SOL     OW32310   6.474   1.514   1.195
 6760SOL    HW132311   6.451   1.489   1.101
 6760SOL    HW232312   6.535   1.445   1.234
 6761SOL     OW32313   6.389   1.402   0.924
 6761SOL    HW132314   6.479   1.416   0.882
 6761SOL    HW232315   6.318   1.404   0.853
 6762SOL     OW32316   6.508   0.503   0.899
 6762SOL    HW132317   6.483   0.494   0.803
 6762SOL    HW232318   6.556   0.421   0.930
 6763SOL     OW32319   6.125   0.064   0.512
 6763SOL    HW132320   6.044   0.065   0.570
 6763SOL    HW232321   6.128   0.147   0.457
 6764SOL     OW32322   7.020   1.188   0.041
 6764SOL    HW132323   7.052   1.112   0.098
 6764SOL    HW232324   6.928   1.215   0.071
 6765SOL     OW32325   5.883   0.035   0.171
 6765SOL    HW132326   5.932   0.119   0.150
 6765SOL    HW232327   5.945  -0.030   0.216
 6766SOL     OW32328   6.521   0.236   0.480
 6766SOL    HW132329   6.473   0.277   0.402
 6766SOL    HW232330   6.620   0.234   0.461
 6767SOL     OW32331   6.662   0.683   1.464
 6767SOL    HW132332   6.582   0.622   1.467
 6767SOL    HW232333   6.743   0.630   1.440
 6768SOL     OW32334   6.813   1.570   0.793
 6768SOL    HW132335   6.834   1.644   0.728
 6768SOL    HW232336   6.881   1.570   0.866
 6769SOL     OW32337   6.045   1.152   0.741
 6769SOL    HW132338   5.974   1.125   0.806
 6769SOL    HW232339   6.019   1.124   0.648
 6770SOL     OW32340   6.857   1.797   0.591
 6770SOL    HW132341   6.901   1.861   0.527
 6770SOL    HW232342   6.807   1.849   0.661
 6771SOL     OW32343   6.618   0.549   0.016
 6771SOL    HW132344   6.577   0.631  -0.023
 6771SOL    HW232345   6.682   0.575   0.089
 6772SOL     OW32346   5.664   0.556   1.386
 6772SOL    HW132347   5.756   0.555   1.345
 6772SOL    HW232348   5.658   0.630   1.453
 6773SOL     OW32349   6.147   0.222   1.147
 6773SOL    HW132350   6.185   0.138   1.184
 6773SOL    HW232351   6.059   0.241   1.191
 6774SOL     OW32352   6.452   0.454   0.642
 6774SOL    HW132353   6.420   0.526   0.580
 6774SOL    HW232354   6.476   0.373   0.589
 6775SOL     OW32355   6.603   0.039   0.753
 6775SOL    HW132356   6.531   0.044   0.684
 6775SOL    HW232357   6.579  -0.030   0.822
 6776SOL     OW32358   7.015   1.173   0.867
 6776SOL    HW132359   6.960   1.089   0.860
 6776SOL    HW232360   7.041   1.202   0.775
 6777SOL     OW32361   7.443   0.833   0.377
 6777SOL    HW132362   7.485   0.769   0.441
 6777SOL    HW232363   7.405   0.782   0.299
 6778SOL     OW32364   6.074   1.385   0.174
 6778SOL    HW132365   5.987   1.370   0.221
 6778SOL    HW232366   6.057   1.411   0.079
 6779SOL     OW32367   7.250   1.280   0.657
 6779SOL    HW132368   7.349   1.288   0.671
 6779SOL    HW232369   7.205   1.364   0.688
 6780SOL     OW32370   6.976   0.575   0.078
 6780SOL    HW132371   6.922   0.554   0.159
 6780SOL    HW232372   7.067   0.534   0.087
 6781SOL     OW32373   6.113   0.256   0.328
 6781SOL    HW132374   6.140   0.197   0.253
 6781SOL    HW232375   6.113   0.351   0.297
 6782SOL     OW32376   6.650   1.347   1.340
 6782SOL    HW132377   6.570   1.324   1.395
 6782SOL    HW232378   6.733   1.321   1.389
 6783SOL     OW32379   7.178   1.629   1.625
 6783SOL    HW132380   7.205   1.663   1.535
 6783SOL    HW232381   7.257   1.591   1.671
 6784SOL     OW32382   6.697   1.195   1.100
 6784SOL    HW132383   6.657   1.239   1.181
 6784SOL    HW232384   6.656   1.232   1.017
 6785SOL     OW32385   6.501   0.089   1.402
 6785SOL    HW132386   6.526   0.069   1.307
 6785SOL    HW232387   6.573   0.145   1.444
 6786SOL     OW32388   6.566   1.116   1.719
 6786SOL    HW132389   6.467   1.122   1.729
 6786SOL    HW232390   6.589   1.036   1.663
 6787SOL     OW32391   6.291   1.050   0.368
 6787SOL    HW132392   6.277   1.057   0.467
 6787SOL    HW232393   6.375   0.999   0.350
 6788SOL     OW32394   5.996   0.813   1.251
 6788SOL    HW132395   6.082   0.825   1.301
 6788SOL    HW232396   5.954   0.726   1.278
 6789SOL     OW32397   5.953   1.100   0.501
 6789SOL    HW132398   5.946   1.183   0.445
 6789SOL    HW232399   5.957   1.020   0.441
 6790SOL     OW32400   6.152   0.537   0.865
 6790SOL    HW132401   6.164   0.603   0.791
 6790SOL    HW232402   6.198   0.571   0.948
 6791SOL     OW32403   6.838   1.348   0.388
 6791SOL    HW132404   6.888   1.425   0.428
 6791SOL    HW232405   6.743   1.350   0.420
 6792SOL     OW32406   6.858   1.445   1.142
 6792SOL    HW132407   6.905   1.458   1.229
 6792SOL    HW232408   6.792   1.371   1.151
 6793SOL     OW32409   7.168   0.639   0.472
 6793SOL    HW132410   7.137   0.700   0.545
 6793SOL    HW232411   7.218   0.691   0.403
 6794SOL     OW32412   5.940   1.510   1.329
 6794SOL    HW132413   5.919   1.466   1.242
 6794SOL    HW232414   6.037   1.536   1.332
 6795SOL     OW32415   5.988   0.751   1.598
 6795SOL    HW132416   6.056   0.806   1.551
 6795SOL    HW232417   6.028   0.663   1.625
 6796SOL     OW32418   6.090   0.050   1.740
 6796SOL    HW132419   6.048  -0.007   1.670
 6796SOL    HW232420   6.024   0.119   1.772
 6797SOL     OW32421   6.159   0.870   1.029
 6797SOL    HW132422   6.203   0.959   1.020
 6797SOL    HW232423   6.096   0.870   1.106
 6798SOL     OW32424   6.795   0.525   0.275
 6798SOL    HW132425   6.808   0.441   0.329
 6798SOL    HW232426   6.766   0.599   0.335
 6799SOL     OW32427   5.893   0.213   1.231
 6799SOL    HW132428   5.870   0.250   1.321
 6799SOL    HW232429   5.863   0.118   1.225
 6800SOL     OW32430   5.623   1.310   1.282
 6800SOL    HW132431   5.676   1.261   1.350
 6800SOL    HW232432   5.645   1.408   1.287
 6801SOL     OW32433   6.318   0.634   1.064
 6801SOL    HW132434   6.377   0.608   0.988
 6801SOL    HW232435   6.290   0.730   1.053
 6802SOL     OW32436   5.893   0.063   0.618
 6802SOL    HW132437   5.882   0.157   0.651
 6802SOL    HW232438   5.888   0.000   0.695
 6803SOL     OW32439   7.208   0.367   0.374
 6803SOL    HW132440   7.210   0.291   0.438
 6803SOL    HW232441   7.160   0.444   0.414
 6804SOL     OW32442   6.609   0.766   0.966
 6804SOL    HW132443   6.624   0.787   1.062
 6804SOL    HW232444   6.579   0.671   0.957
 6805SOL     OW32445   6.566   1.573   1.700
 6805SOL    HW132446   6.546   1.617   1.612
 6805SOL    HW232447   6.605   1.482   1.684
 6806SOL     OW32448   7.445   1.518   1.605
 6806SOL    HW132449   7.459   1.545   1.510
 6806SOL    HW232450   7.528   1.540   1.658
 6807SOL     OW32451   7.126   0.274   0.125
 6807SOL    HW132452   7.065   0.199   0.148
 6807SOL    HW232453   7.148   0.326   0.208
 6808SOL     OW32454   6.889   0.838   0.042
 6808SOL    HW132455   6.923   0.745   0.057
 6808SOL    HW232456   6.907   0.865  -0.053
 6809SOL     OW32457   6.654   1.333   0.849
 6809SOL    HW132458   6.661   1.249   0.794
 6809SOL    HW232459   6.716   1.402   0.813
 6810SOL     OW32460   5.905   0.810   0.949
 6810SOL    HW132461   5.998   0.846   0.954
 6810SOL    HW232462   5.899   0.725   1.001
 6811SOL     OW32463   5.925   0.509   1.006
 6811SOL    HW132464   5.873   0.426   0.989
 6811SOL    HW232465   6.002   0.514   0.942
 6812SOL     OW32466   5.594   1.326   0.200
 6812SOL    HW132467   5.501   1.347   0.169
 6812SOL    HW232468   5.604   1.227   0.213
 6813SOL     OW32469   5.674   1.801   0.927
 6813SOL    HW132470   5.632   1.715   0.900
 6813SOL    HW232471   5.768   1.804   0.893
 6814SOL     OW32472   6.090   1.568   0.910
 6814SOL    HW132473   6.156   1.642   0.919
 6814SOL    HW232474   6.134   1.489   0.868
 6815SOL     OW32475   6.588   0.796   1.238
 6815SOL    HW132476   6.629   0.764   1.324
 6815SOL    HW232477   6.492   0.769   1.235
 6816SOL     OW32478   5.626   0.544   1.114
 6816SOL    HW132479   5.711   0.511   1.073
 6816SOL    HW232480   5.639   0.559   1.212
 6817SOL     OW32481   5.775   0.520   1.722
 6817SOL    HW132482   5.834   0.480   1.652
 6817SOL    HW232483   5.717   0.591   1.681
 6818SOL     OW32484   6.955   0.950   1.660
 6818SOL    HW132485   6.994   1.039   1.680
 6818SOL    HW232486   6.965   0.930   1.563
 6819SOL     OW32487   6.401   0.572   0.325
 6819SOL    HW132488   6.408   0.483   0.279
 6819SOL    HW232489   6.307   0.606   0.317
 6820SOL     OW32490   5.838   1.564   1.744
 6820SOL    HW132491   5.808   1.621   1.820
 6820SOL    HW232492   5.831   1.467   1.770
 6821SOL     OW32493   6.257   0.464   1.269
 6821SOL    HW132494   6.223   0.375   1.239
 6821SOL    HW232495   6.283   0.518   1.189
 6822SOL     OW32496   6.516   1.678   1.465
 6822SOL    HW132497   6.492   1.660   1.370
 6822SOL    HW232498   6.546   1.772   1.475
 6823SOL     OW32499   6.059   0.500   0.191
 6823SOL    HW132500   6.120   0.580   0.195
 6823SOL    HW232501   5.964   0.531   0.198
 6824SOL     OW32502   5.745   1.137   1.466
 6824SOL    HW132503   5.767   1.076   1.542
 6824SOL    HW232504   5.755   1.088   1.380
 6825SOL     OW32505   6.933   1.059   1.234
 6825SOL    HW132506   6.957   0.996   1.160
 6825SOL    HW232507   6.843   1.099   1.216
 6826SOL     OW32508   6.888   0.855   0.309
 6826SOL    HW132509   6.802   0.824   0.351
 6826SOL    HW232510   6.884   0.841   0.210
 6827SOL     OW32511   7.345   1.747   1.154
 6827SOL    HW132512   7.406   1.777   1.081
 6827SOL    HW232513   7.307   1.658   1.132
 6828SOL     OW32514   6.838   1.731   1.128
 6828SOL    HW132515   6.922   1.736   1.074
 6828SOL    HW232516   6.815   1.635   1.146
 6829SOL     OW32517   5.669   1.258   1.022
 6829SOL    HW132518   5.664   1.257   1.122
 6829SOL    HW232519   5.586   1.217   0.984
 6830SOL     OW32520   6.274   1.662   1.716
 6830SOL    HW132521   6.218   1.743   1.725
 6830SOL    HW232522   6.326   1.666   1.630
 6831SOL     OW32523   6.489   0.086   0.133
 6831SOL    HW132524   6.540   0.087   0.047
 6831SOL    HW232525   6.545   0.044   0.204
 6832SOL     OW32526   7.312   0.135   0.523
 6832SOL    HW132527   7.385   0.118   0.456
 6832SOL    HW232528   7.281   0.048   0.561
 6833SOL     OW32529   6.974   1.573   0.477
 6833SOL    HW132530   7.041   1.585   0.403
 6833SOL    HW232531   6.934   1.662   0.500
 6834SOL     OW32532   5.716   1.794   1.851
 6834SOL    HW132533   5.675   1.720   1.904
 6834SOL    HW232534   5.780   1.845   1.909
 6835SOL     OW32535   6.866   0.927   0.672
 6835SOL    HW132536   6.926   0.846   0.674
 6835SOL    HW232537   6.906   0.996   0.612
 6836SOL     OW32538   6.416   1.273   1.422
 6836SOL    HW132539   6.411   1.306   1.517
 6836SOL    HW232540   6.330   1.292   1.376
 6837SOL     OW32541   6.258   1.616   0.154
 6837SOL    HW132542   6.267   1.626   0.055
 6837SOL    HW232543   6.218   1.527   0.175
 6838SOL     OW32544   7.236   1.720   1.394
 6838SOL    HW132545   7.289   1.730   1.310
 6838SOL    HW232546   7.209   1.810   1.428
 6839SOL     OW32547   7.427   0.175   0.963
 6839SOL    HW132548   7.466   0.090   0.927
 6839SOL    HW232549   7.329   0.177   0.944
 6840SOL     OW32550   5.849   0.326   0.720
 6840SOL    HW132551   5.770   0.377   0.686
 6840SOL    HW232552   5.840   0.311   0.818
 6841SOL     OW32553   6.780   1.612   0.031
 6841SOL    HW132554   6.786   1.519   0.068
 6841SOL    HW232555   6.721   1.612  -0.049
 6842SOL     OW32556   6.408   1.002   1.372
 6842SOL    HW132557   6.448   1.001   1.280
 6842SOL    HW232558   6.418   1.094   1.412
 6843SOL     OW32559   6.502   0.910   0.291
 6843SOL    HW132560   6.565   0.948   0.223
 6843SOL    HW232561   6.542   0.827   0.330
 6844SOL     OW32562   7.090   1.607   0.044
 6844SOL    HW132563   6.998   1.644   0.051
 6844SOL    HW232564   7.128   1.627  -0.046
 6845SOL     OW32565   5.958   1.288   1.490
 6845SOL    HW132566   5.945   1.381   1.456
 6845SOL    HW232567   5.874   1.236   1.477
 6846SOL     OW32568   6.625   1.098   0.696
 6846SOL    HW132569   6.555   1.051   0.750
 6846SOL    HW232570   6.684   1.030   0.653
 6847SOL     OW32571   6.600   0.236   0.971
 6847SOL    HW132572   6.592   0.200   0.878
 6847SOL    HW232573   6.598   0.160   1.036
 6848SOL     OW32574   6.176   1.487   0.491
 6848SOL    HW132575   6.218   1.429   0.421
 6848SOL    HW232576   6.132   1.566   0.447
 6849SOL     OW32577   7.295   0.385   1.381
 6849SOL    HW132578   7.368   0.454   1.385
 6849SOL    HW232579   7.323   0.310   1.322
 6850SOL     OW32580   5.841   1.348   0.290
 6850SOL    HW132581   5.745   1.349   0.263
 6850SOL    HW232582   5.853   1.401   0.374
 6851SOL     OW32583   5.691   1.013   1.726
 6851SOL    HW132584   5.614   0.980   1.780
 6851SOL    HW232585   5.776   0.983   1.768
 6852SOL     OW32586   5.661   0.345   0.033
 6852SOL    HW132587   5.569   0.317   0.004
 6852SOL    HW232588   5.692   0.422  -0.023
 6853SOL     OW32589   7.026   0.856   1.398
 6853SOL    HW132590   6.969   0.908   1.335
 6853SOL    HW232591   7.122   0.868   1.374
 6854SOL     OW32592   5.658   0.166   0.318
 6854SOL    HW132593   5.641   0.249   0.264
 6854SOL    HW232594   5.748   0.129   0.296
 6855SOL     OW32595   6.769   1.335   0.119
 6855SOL    HW132596   6.670   1.324   0.121
 6855SOL    HW232597   6.803   1.350   0.212
 6856SOL     OW32598   6.199   0.842   1.431
 6856SOL    HW132599   6.255   0.923   1.414
 6856SOL    HW232600   6.258   0.762   1.434
 6857SOL     OW32601   7.079   1.767   0.959
 6857SOL    HW132602   7.112   1.831   0.890
 6857SOL    HW232603   7.145   1.761   1.034
 6858SOL     OW32604   7.036   1.220   1.633
 6858SOL    HW132605   7.027   1.210   1.732
 6858SOL    HW232606   7.132   1.213   1.607
 6859SOL     OW32607   5.976   1.741   1.560
 6859SOL    HW132608   5.885   1.782   1.558
 6859SOL    HW232609   5.969   1.647   1.592
 6860SOL     OW32610   6.811   0.325   0.449
 6860SOL    HW132611   6.876   0.251   0.438
 6860SOL    HW232612   6.831   0.375   0.533
 6861SOL     OW32613   6.180   0.745   0.652
 6861SOL    HW132614   6.230   0.830   0.633
 6861SOL    HW232615   6.092   0.747   0.604
 6862SOL     OW32616   7.316   0.934   1.517
 6862SOL    HW132617   7.354   1.025   1.532
 6862SOL    HW232618   7.308   0.917   1.418
 6863SOL     OW32619   6.445   1.374   0.016
 6863SOL    HW132620   6.399   1.389   0.104
 6863SOL    HW232621   6.489   1.459  -0.014
 6864SOL     OW32622   6.247   1.790   0.953
 6864SOL    HW132623   6.201   1.878   0.940
 6864SOL    HW232624   6.346   1.802   0.946
 6865SOL     OW32625   6.445   0.956   0.861
 6865SOL    HW132626   6.499   0.887   0.909
 6865SOL    HW232627   6.413   1.025   0.927
 6866SOL     OW32628   6.669   0.984   0.087
 6866SOL    HW132629   6.646   1.037   0.005
 6866SOL    HW232630   6.750   0.928   0.068
 6867SOL     OW32631   7.447   1.569   0.851
 6867SOL    HW132632   7.376   1.557   0.781
 6867SOL    HW232633   7.448   1.490   0.911
 6868SOL     OW32634   5.807   1.314   1.844
 6868SOL    HW132635   5.742   1.241   1.823
 6868SOL    HW232636   5.811   1.328   1.942
 6869SOL     OW32637   5.665   1.240   0.653
 6869SOL    HW132638   5.664   1.193   0.741
 6869SOL    HW232639   5.747   1.212   0.602
 6870SOL     OW32640   7.410   0.192   1.227
 6870SOL    HW132641   7.406   0.102   1.271
 6870SOL    HW232642   7.413   0.181   1.128
 6871SOL     OW32643   6.014   0.424   0.520
 6871SOL    HW132644   6.044   0.352   0.458
 6871SOL    HW232645   5.975   0.384   0.603
 6872SOL     OW32646   7.291   1.487   1.104
 6872SOL    HW132647   7.198   1.462   1.077
 6872SOL    HW232648   7.317   1.437   1.186
 6873SOL     OW32649   5.903   0.547   1.280
 6873SOL    HW132650   5.941   0.488   1.352
 6873SOL    HW232651   5.943   0.521   1.192
 6874SOL     OW32652   6.398   1.586   0.687
 6874SOL    HW132653   6.430   1.596   0.593
 6874SOL    HW232654   6.319   1.524   0.689
 6875SOL     OW32655   7.010   0.214   1.112
 6875SOL    HW132656   7.062   0.149   1.167
 6875SOL    HW232657   6.961   0.277   1.173
 6876SOL     OW32658   6.587   0.034   1.154
 6876SOL    HW132659   6.524  -0.038   1.123
 6876SOL    HW232660   6.680  -0.002   1.154
 6877SOL     OW32661   6.356   1.330   0.301
 6877SOL    HW132662   6.310   1.243   0.318
 6877SOL    HW232663   6.447   1.327   0.342
 6878SOL     OW32664   6.204   1.567   1.284
 6878SOL    HW132665   6.199   1.649   1.341
 6878SOL    HW232666   6.293   1.564   1.239
 6879SOL     OW32667   6.938   0.052   0.168
 6879SOL    HW132668   6.973   0.011   0.084
 6879SOL    HW232669   6.848   0.014   0.188
 6880SOL     OW32670   6.886   0.453   0.691
 6880SOL    HW132671   6.827   0.533   0.695
 6880SOL    HW232672   6.901   0.418   0.784
 6881SOL     OW32673   7.179   0.221   0.882
 6881SOL    HW132674   7.095   0.220   0.936
 6881SOL    HW232675   7.181   0.304   0.826
 6882SOL     OW32676   5.625   1.077   0.300
 6882SOL    HW132677   5.724   1.066   0.291
 6882SOL    HW232678   5.585   0.991   0.332
 6883SOL     OW32679   6.461   1.646   0.337
 6883SOL    HW132680   6.384   1.611   0.283
 6883SOL    HW232681   6.429   1.717   0.399
 6884SOL     OW32682   5.816   0.628   1.975
 6884SOL    HW132683   5.723   0.626   2.012
 6884SOL    HW232684   5.817   0.589   1.883
 6885SOL     OW32685   5.811   0.275   2.858
 6885SOL    HW132686   5.846   0.258   2.950
 6885SOL    HW232687   5.723   0.230   2.846
 6886SOL     OW32688   5.817   1.713   2.345
 6886SOL    HW132689   5.851   1.790   2.399
 6886SOL    HW232690   5.861   1.713   2.255
 6887SOL     OW32691   5.816   1.434   2.400
 6887SOL    HW132692   5.790   1.530   2.400
 6887SOL    HW232693   5.745   1.380   2.445
 6888SOL     OW32694   5.826   1.091   2.748
 6888SOL    HW132695   5.840   1.007   2.800
 6888SOL    HW232696   5.771   1.155   2.803
 6889SOL     OW32697   5.708   0.643   2.425
 6889SOL    HW132698   5.663   0.555   2.442
 6889SOL    HW232699   5.707   0.697   2.509
 6890SOL     OW32700   6.199   1.365   2.588
 6890SOL    HW132701   6.150   1.278   2.597
 6890SOL    HW232702   6.176   1.408   2.501
 6891SOL     OW32703   6.879   1.228   3.285
 6891SOL    HW132704   6.916   1.155   3.227
 6891SOL    HW232705   6.931   1.233   3.370
 6892SOL     OW32706   6.184   0.729   2.132
 6892SOL    HW132707   6.208   0.798   2.064
 6892SOL    HW232708   6.106   0.762   2.186
 6893SOL     OW32709   6.867   0.345   2.806
 6893SOL    HW132710   6.781   0.295   2.793
 6893SOL    HW232711   6.929   0.291   2.862
 6894SOL     OW32712   6.559   0.890   3.434
 6894SOL    HW132713   6.605   0.806   3.405
 6894SOL    HW232714   6.503   0.924   3.359
 6895SOL     OW32715   6.594   1.456   2.339
 6895SOL    HW132716   6.548   1.528   2.287
 6895SOL    HW232717   6.590   1.476   2.437
 6896SOL     OW32718   5.937   1.801   2.715
 6896SOL    HW132719   5.987   1.715   2.721
 6896SOL    HW232720   6.002   1.878   2.712
 6897SOL     OW32721   6.813   1.550   3.368
 6897SOL    HW132722   6.819   1.473   3.432
 6897SOL    HW232723   6.761   1.524   3.288
 6898SOL     OW32724   6.047   1.266   3.589
 6898SOL    HW132725   5.997   1.267   3.503
 6898SOL    HW232726   5.984   1.248   3.665
 6899SOL     OW32727   6.697   1.776   2.099
 6899SOL    HW132728   6.637   1.714   2.149
 6899SOL    HW232729   6.728   1.732   2.014
 6900SOL     OW32730   5.788   0.285   3.360
 6900SOL    HW132731   5.708   0.345   3.347
 6900SOL    HW232732   5.778   0.236   3.446
 6901SOL     OW32733   6.050   1.743   2.185
 6901SOL    HW132734   6.083   1.782   2.271
 6901SOL    HW232735   6.126   1.736   2.120
 6902SOL     OW32736   6.526   1.698   2.766
 6902SOL    HW132737   6.606   1.641   2.787
 6902SOL    HW232738   6.477   1.658   2.689
 6903SOL     OW32739   5.968   0.700   2.342
 6903SOL    HW132740   6.013   0.610   2.339
 6903SOL    HW232741   5.874   0.689   2.375
 6904SOL     OW32742   7.133   0.222   3.591
 6904SOL    HW132743   7.128   0.259   3.683
 6904SOL    HW232744   7.061   0.153   3.579
 6905SOL     OW32745   6.367   0.264   3.611
 6905SOL    HW132746   6.434   0.203   3.654
 6905SOL    HW232747   6.294   0.283   3.676
 6906SOL     OW32748   7.020   1.188   1.903
 6906SOL    HW132749   7.052   1.112   1.960
 6906SOL    HW232750   6.928   1.215   1.933
 6907SOL     OW32751   5.883   0.035   2.033
 6907SOL    HW132752   5.932   0.119   2.012
 6907SOL    HW232753   5.945  -0.030   2.078
 6908SOL     OW32754   6.813   1.570   2.655
 6908SOL    HW132755   6.834   1.644   2.590
 6908SOL    HW232756   6.881   1.570   2.728
 6909SOL     OW32757   6.045   1.152   2.603
 6909SOL    HW132758   5.974   1.125   2.668
 6909SOL    HW232759   6.019   1.124   2.510
 6910SOL     OW32760   7.340   1.223   3.450
 6910SOL    HW132761   7.431   1.184   3.437
 6910SOL    HW232762   7.348   1.319   3.474
 6911SOL     OW32763   7.178   1.629   3.487
 6911SOL    HW132764   7.205   1.663   3.397
 6911SOL    HW232765   7.257   1.591   3.533
 6912SOL     OW32766   7.224   1.099   2.941
 6912SOL    HW132767   7.229   1.180   3.000
 6912SOL    HW232768   7.138   1.101   2.890
 6913SOL     OW32769   6.566   1.116   3.581
 6913SOL    HW132770   6.467   1.122   3.591
 6913SOL    HW232771   6.589   1.036   3.525
 6914SOL     OW32772   5.996   0.813   3.113
 6914SOL    HW132773   6.082   0.825   3.163
 6914SOL    HW232774   5.954   0.726   3.140
 6915SOL     OW32775   7.208   0.367   2.236
 6915SOL    HW132776   7.210   0.291   2.300
 6915SOL    HW232777   7.160   0.444   2.276
 6916SOL     OW32778   6.566   1.573   3.562
 6916SOL    HW132779   6.546   1.617   3.474
 6916SOL    HW232780   6.605   1.482   3.546
 6917SOL     OW32781   7.445   1.518   3.467
 6917SOL    HW132782   7.459   1.545   3.372
 6917SOL    HW232783   7.528   1.540   3.520
 6918SOL     OW32784   5.936   0.898   3.666
 6918SOL    HW132785   6.012   0.942   3.714
 6918SOL    HW232786   5.971   0.851   3.584
 6919SOL     OW32787   7.126   0.274   1.987
 6919SOL    HW132788   7.065   0.199   2.010
 6919SOL    HW232789   7.148   0.326   2.070
 6920SOL     OW32790   5.594   1.326   2.062
 6920SOL    HW132791   5.501   1.347   2.031
 6920SOL    HW232792   5.604   1.227   2.075
 6921SOL     OW32793   6.955   0.950   3.522
 6921SOL    HW132794   6.994   1.039   3.542
 6921SOL    HW232795   6.965   0.930   3.425
 6922SOL     OW32796   6.516   1.678   3.327
 6922SOL    HW132797   6.492   1.660   3.232
 6922SOL    HW232798   6.546   1.772   3.337
 6923SOL     OW32799   6.059   0.500   2.053
 6923SOL    HW132800   6.120   0.580   2.057
 6923SOL    HW232801   5.964   0.531   2.060
 6924SOL     OW32802   7.345   1.747   3.016
 6924SOL    HW132803   7.406   1.777   2.943
 6924SOL    HW232804   7.307   1.658   2.994
 6925SOL     OW32805   5.669   1.258   2.884
 6925SOL    HW132806   5.664   1.257   2.984
 6925SOL    HW232807   5.586   1.217   2.846
 6926SOL     OW32808   6.274   1.662   3.578
 6926SOL    HW132809   6.218   1.743   3.587
 6926SOL    HW232810   6.326   1.666   3.492
 6927SOL     OW32811   6.416   1.273   3.284
 6927SOL    HW132812   6.411   1.306   3.379
 6927SOL    HW232813   6.330   1.292   3.238
 6928SOL     OW32814   6.258   1.616   2.016
 6928SOL    HW132815   6.267   1.626   1.917
 6928SOL    HW232816   6.218   1.527   2.037
 6929SOL     OW32817   7.236   1.720   3.256
 6929SOL    HW132818   7.289   1.730   3.172
 6929SOL    HW232819   7.209   1.810   3.290
 6930SOL     OW32820   5.849   0.326   2.582
 6930SOL    HW132821   5.770   0.377   2.548
 6930SOL    HW232822   5.840   0.311   2.680
 6931SOL     OW32823   6.780   1.612   1.893
 6931SOL    HW132824   6.786   1.519   1.930
 6931SOL    HW232825   6.721   1.612   1.813
 6932SOL     OW32826   6.408   1.002   3.234
 6932SOL    HW132827   6.448   1.001   3.142
 6932SOL    HW232828   6.418   1.094   3.274
 6933SOL     OW32829   6.176   1.487   2.353
 6933SOL    HW132830   6.218   1.429   2.283
 6933SOL    HW232831   6.132   1.566   2.309
 6934SOL     OW32832   5.841   1.348   2.152
 6934SOL    HW132833   5.745   1.349   2.125
 6934SOL    HW232834   5.853   1.401   2.236
 6935SOL     OW32835   6.769   1.335   1.981
 6935SOL    HW132836   6.670   1.324   1.983
 6935SOL    HW232837   6.803   1.350   2.074
 6936SOL     OW32838   6.302   0.565   3.570
 6936SOL    HW132839   6.321   0.630   3.644
 6936SOL    HW232840   6.362   0.485   3.579
 6937SOL     OW32841   5.976   1.741   3.422
 6937SOL    HW132842   5.885   1.782   3.420
 6937SOL    HW232843   5.969   1.647   3.454
 6938SOL     OW32844   7.260   0.883   3.116
 6938SOL    HW132845   7.233   0.794   3.079
 6938SOL    HW232846   7.261   0.951   3.043
 6939SOL     OW32847   6.180   0.745   2.514
 6939SOL    HW132848   6.230   0.830   2.495
 6939SOL    HW232849   6.092   0.747   2.466
 6940SOL     OW32850   7.363   0.342   3.504
 6940SOL    HW132851   7.346   0.373   3.410
 6940SOL    HW232852   7.279   0.305   3.542
 6941SOL     OW32853   6.445   0.956   2.723
 6941SOL    HW132854   6.499   0.887   2.771
 6941SOL    HW232855   6.413   1.025   2.789
 6942SOL     OW32856   7.447   1.569   2.713
 6942SOL    HW132857   7.376   1.557   2.643
 6942SOL    HW232858   7.448   1.490   2.773
 6943SOL     OW32859   5.665   1.240   2.515
 6943SOL    HW132860   5.664   1.193   2.603
 6943SOL    HW232861   5.747   1.212   2.464
 6944SOL     OW32862   6.258   1.391   3.486
 6944SOL    HW132863   6.180   1.341   3.524
 6944SOL    HW232864   6.255   1.486   3.517
 6945SOL     OW32865   7.010   0.214   2.974
 6945SOL    HW132866   7.062   0.149   3.029
 6945SOL    HW232867   6.961   0.277   3.035
 6946SOL     OW32868   6.356   1.330   2.163
 6946SOL    HW132869   6.310   1.243   2.180
 6946SOL    HW232870   6.447   1.327   2.204
 6947SOL     OW32871   5.605   0.368   4.371
 6947SOL    HW132872   5.523   0.411   4.410
 6947SOL    HW232873   5.577   0.295   4.308
 6948SOL     OW32874   5.817   1.713   4.207
 6948SOL    HW132875   5.851   1.790   4.261
 6948SOL    HW232876   5.861   1.713   4.117
 6949SOL     OW32877   5.816   1.434   4.262
 6949SOL    HW132878   5.790   1.530   4.262
 6949SOL    HW232879   5.745   1.380   4.307
 6950SOL     OW32880   5.826   1.091   4.610
 6950SOL    HW132881   5.840   1.007   4.662
 6950SOL    HW232882   5.771   1.155   4.665
 6951SOL     OW32883   7.275   0.922   4.336
 6951SOL    HW132884   7.370   0.893   4.344
 6951SOL    HW232885   7.267   0.987   4.261
 6952SOL     OW32886   7.227   1.108   4.156
 6952SOL    HW132887   7.313   1.110   4.104
 6952SOL    HW232888   7.241   1.155   4.244
 6953SOL     OW32889   5.903   0.251   5.525
 6953SOL    HW132890   5.974   0.322   5.531
 6953SOL    HW232891   5.815   0.290   5.553
 6954SOL     OW32892   7.253   1.714   4.296
 6954SOL    HW132893   7.212   1.691   4.208
 6954SOL    HW232894   7.235   1.640   4.361
 6955SOL     OW32895   7.162   1.662   4.031
 6955SOL    HW132896   7.251   1.708   4.034
 6955SOL    HW232897   7.141   1.638   3.936
 6956SOL     OW32898   6.627   0.701   4.153
 6956SOL    HW132899   6.653   0.697   4.249
 6956SOL    HW232900   6.542   0.650   4.139
 6957SOL     OW32901   6.451   0.348   3.919
 6957SOL    HW132902   6.510   0.411   3.870
 6957SOL    HW232903   6.470   0.254   3.890
 6958SOL     OW32904   5.907   0.943   3.966
 6958SOL    HW132905   5.989   0.982   3.924
 6958SOL    HW232906   5.880   0.861   3.917
 6959SOL     OW32907   6.697   1.776   3.961
 6959SOL    HW132908   6.637   1.714   4.011
 6959SOL    HW232909   6.728   1.732   3.876
 6960SOL     OW32910   6.050   1.743   4.047
 6960SOL    HW132911   6.083   1.782   4.133
 6960SOL    HW232912   6.126   1.736   3.982
 6961SOL     OW32913   6.526   1.698   4.628
 6961SOL    HW132914   6.606   1.641   4.649
 6961SOL    HW232915   6.477   1.658   4.551
 6962SOL     OW32916   6.045   1.152   4.465
 6962SOL    HW132917   5.974   1.125   4.530
 6962SOL    HW232918   6.019   1.124   4.372
 6963SOL     OW32919   6.618   0.549   3.740
 6963SOL    HW132920   6.577   0.631   3.701
 6963SOL    HW232921   6.682   0.575   3.813
 6964SOL     OW32922   5.664   0.556   5.110
 6964SOL    HW132923   5.756   0.555   5.069
 6964SOL    HW232924   5.658   0.630   5.177
 6965SOL     OW32925   7.443   0.833   4.101
 6965SOL    HW132926   7.485   0.769   4.165
 6965SOL    HW232927   7.405   0.782   4.023
 6966SOL     OW32928   6.860   0.386   4.986
 6966SOL    HW132929   6.881   0.460   5.050
 6966SOL    HW232930   6.771   0.403   4.943
 6967SOL     OW32931   6.152   0.537   4.589
 6967SOL    HW132932   6.164   0.603   4.515
 6967SOL    HW232933   6.198   0.571   4.672
 6968SOL     OW32934   6.838   1.348   4.112
 6968SOL    HW132935   6.888   1.425   4.152
 6968SOL    HW232936   6.743   1.350   4.144
 6969SOL     OW32937   5.940   1.510   5.053
 6969SOL    HW132938   5.919   1.466   4.966
 6969SOL    HW232939   6.037   1.536   5.056
 6970SOL     OW32940   5.988   0.751   5.322
 6970SOL    HW132941   6.056   0.806   5.275
 6970SOL    HW232942   6.028   0.663   5.349
 6971SOL     OW32943   6.599   0.105   5.494
 6971SOL    HW132944   6.605   0.190   5.442
 6971SOL    HW232945   6.631   0.029   5.437
 6972SOL     OW32946   6.090   0.050   5.464
 6972SOL    HW132947   6.048  -0.007   5.394
 6972SOL    HW232948   6.024   0.119   5.496
 6973SOL     OW32949   5.893   0.213   4.955
 6973SOL    HW132950   5.870   0.250   5.045
 6973SOL    HW232951   5.863   0.118   4.949
 6974SOL     OW32952   7.314   0.935   5.578
 6974SOL    HW132953   7.268   0.928   5.489
 6974SOL    HW232954   7.252   0.979   5.644
 6975SOL     OW32955   6.609   0.766   4.690
 6975SOL    HW132956   6.624   0.787   4.786
 6975SOL    HW232957   6.579   0.671   4.681
 6976SOL     OW32958   5.936   0.898   5.528
 6976SOL    HW132959   6.012   0.942   5.576
 6976SOL    HW232960   5.971   0.851   5.446
 6977SOL     OW32961   6.889   0.838   3.766
 6977SOL    HW132962   6.923   0.745   3.781
 6977SOL    HW232963   6.907   0.865   3.671
 6978SOL     OW32964   5.905   0.810   4.673
 6978SOL    HW132965   5.998   0.846   4.678
 6978SOL    HW232966   5.899   0.725   4.725
 6979SOL     OW32967   6.724   0.380   5.402
 6979SOL    HW132968   6.679   0.443   5.466
 6979SOL    HW232969   6.817   0.411   5.385
 6980SOL     OW32970   5.594   1.326   3.924
 6980SOL    HW132971   5.501   1.347   3.893
 6980SOL    HW232972   5.604   1.227   3.937
 6981SOL     OW32973   5.626   0.544   4.838
 6981SOL    HW132974   5.711   0.511   4.797
 6981SOL    HW232975   5.639   0.559   4.936
 6982SOL     OW32976   5.775   0.520   5.446
 6982SOL    HW132977   5.834   0.480   5.376
 6982SOL    HW232978   5.717   0.591   5.405
 6983SOL     OW32979   6.401   0.572   4.049
 6983SOL    HW132980   6.408   0.483   4.003
 6983SOL    HW232981   6.307   0.606   4.041
 6984SOL     OW32982   6.933   1.059   4.958
 6984SOL    HW132983   6.957   0.996   4.884
 6984SOL    HW232984   6.843   1.099   4.940
 6985SOL     OW32985   6.838   1.731   4.852
 6985SOL    HW132986   6.922   1.736   4.798
 6985SOL    HW232987   6.815   1.635   4.870
 6986SOL     OW32988   7.312   0.135   4.247
 6986SOL    HW132989   7.385   0.118   4.180
 6986SOL    HW232990   7.281   0.048   4.285
 6987SOL     OW32991   5.716   1.794   5.575
 6987SOL    HW132992   5.675   1.720   5.628
 6987SOL    HW232993   5.780   1.845   5.633
 6988SOL     OW32994   6.258   1.616   3.878
 6988SOL    HW132995   6.267   1.626   3.779
 6988SOL    HW232996   6.218   1.527   3.899
 6989SOL     OW32997   7.427   0.175   4.687
 6989SOL    HW132998   7.466   0.090   4.651
 6989SOL    HW232999   7.329   0.177   4.668
 6990SOL     OW33000   7.090   1.607   3.768
 6990SOL    HW133001   6.998   1.644   3.775
 6990SOL    HW233002   7.128   1.627   3.678
 6991SOL     OW33003   6.199   0.842   5.155
 6991SOL    HW133004   6.255   0.923   5.138
 6991SOL    HW233005   6.258   0.762   5.158
 6992SOL     OW33006   5.976   1.741   5.284
 6992SOL    HW133007   5.885   1.782   5.282
 6992SOL    HW233008   5.969   1.647   5.316
 6993SOL     OW33009   6.180   0.745   4.376
 6993SOL    HW133010   6.230   0.830   4.357
 6993SOL    HW233011   6.092   0.747   4.328
 6994SOL     OW33012   6.445   1.374   3.740
 6994SOL    HW133013   6.399   1.389   3.828
 6994SOL    HW233014   6.489   1.459   3.710
 6995SOL     OW33015   6.445   0.956   4.585
 6995SOL    HW133016   6.499   0.887   4.633
 6995SOL    HW233017   6.413   1.025   4.651
 6996SOL     OW33018   5.665   1.240   4.377
 6996SOL    HW133019   5.664   1.193   4.465
 6996SOL    HW233020   5.747   1.212   4.326
 6997SOL     OW33021   7.291   1.487   4.828
 6997SOL    HW133022   7.198   1.462   4.801
 6997SOL    HW233023   7.317   1.437   4.910
 6998SOL     OW33024   5.903   0.547   5.004
 6998SOL    HW133025   5.941   0.488   5.076
 6998SOL    HW233026   5.943   0.521   4.916
 6999SOL     OW33027   5.625   1.077   4.024
 6999SOL    HW133028   5.724   1.066   4.015
 6999SOL    HW233029   5.585   0.991   4.056
 7000SOL     OW33030   6.461   1.646   4.061
 7000SOL    HW133031   6.384   1.611   4.007
 7000SOL    HW233032   6.429   1.717   4.123
 7001SOL     OW33033   5.816   0.628   5.699
 7001SOL    HW133034   5.723   0.626   5.736
 7001SOL    HW233035   5.817   0.589   5.607
 7002SOL     OW33036   5.811   0.275   6.582
 7002SOL    HW133037   5.846   0.258   6.674
 7002SOL    HW233038   5.723   0.230   6.570
 7003SOL     OW33039   5.605   0.368   6.233
 7003SOL    HW133040   5.523   0.411   6.272
 7003SOL    HW233041   5.577   0.295   6.170
 7004SOL     OW33042   6.155   1.275   6.751
 7004SOL    HW133043   6.062   1.268   6.714
 7004SOL    HW233044   6.166   1.364   6.795
 7005SOL     OW33045   7.141   1.511   6.289
 7005SOL    HW133046   7.084   1.495   6.370
 7005SOL    HW233047   7.082   1.521   6.209
 7006SOL     OW33048   6.721   0.703   6.303
 7006SOL    HW133049   6.778   0.781   6.278
 7006SOL    HW233050   6.661   0.729   6.379
 7007SOL     OW33051   7.341   0.607   5.817
 7007SOL    HW133052   7.329   0.594   5.718
 7007SOL    HW233053   7.311   0.526   5.866
 7008SOL     OW33054   6.354   1.144   6.609
 7008SOL    HW133055   6.276   1.161   6.669
 7008SOL    HW233056   6.388   1.231   6.573
 7009SOL     OW33057   6.271   1.012   6.251
 7009SOL    HW133058   6.340   0.996   6.321
 7009SOL    HW233059   6.198   1.069   6.289
 7010SOL     OW33060   5.921   1.435   6.647
 7010SOL    HW133061   5.843   1.404   6.594
 7010SOL    HW233062   5.979   1.493   6.590
 7011SOL     OW33063   6.024   0.392   7.085
 7011SOL    HW133064   6.106   0.336   7.094
 7011SOL    HW233065   5.943   0.334   7.089
 7012SOL     OW33066   7.189   0.447   6.323
 7012SOL    HW133067   7.115   0.493   6.273
 7012SOL    HW233068   7.240   0.515   6.376
 7013SOL     OW33069   5.816   1.434   6.124
 7013SOL    HW133070   5.790   1.530   6.124
 7013SOL    HW233071   5.745   1.380   6.169
 7014SOL     OW33072   5.826   1.091   6.472
 7014SOL    HW133073   5.840   1.007   6.524
 7014SOL    HW233074   5.771   1.155   6.527
 7015SOL     OW33075   6.206   1.786   7.025
 7015SOL    HW133076   6.114   1.769   7.060
 7015SOL    HW233077   6.234   1.878   7.051
 7016SOL     OW33078   6.192   0.964   5.709
 7016SOL    HW133079   6.199   1.048   5.655
 7016SOL    HW233080   6.238   0.977   5.797
 7017SOL     OW33081   5.708   0.643   6.149
 7017SOL    HW133082   5.663   0.555   6.166
 7017SOL    HW233083   5.707   0.697   6.233
 7018SOL     OW33084   7.275   0.922   6.198
 7018SOL    HW133085   7.370   0.893   6.206
 7018SOL    HW233086   7.267   0.987   6.123
 7019SOL     OW33087   7.227   1.108   6.018
 7019SOL    HW133088   7.313   1.110   5.966
 7019SOL    HW233089   7.241   1.155   6.106
 7020SOL     OW33090   6.199   1.365   6.312
 7020SOL    HW133091   6.150   1.278   6.321
 7020SOL    HW233092   6.176   1.408   6.225
 7021SOL     OW33093   6.395   0.004   6.088
 7021SOL    HW133094   6.435   0.095   6.079
 7021SOL    HW233095   6.295   0.012   6.094
 7022SOL     OW33096   5.783   0.976   6.850
 7022SOL    HW133097   5.872   0.931   6.836
 7022SOL    HW233098   5.710   0.911   6.831
 7023SOL     OW33099   7.111   0.999   5.776
 7023SOL    HW133100   7.048   0.923   5.789
 7023SOL    HW233101   7.159   1.017   5.862
 7024SOL     OW33102   7.052   1.417   6.539
 7024SOL    HW133103   6.993   1.423   6.619
 7024SOL    HW233104   7.037   1.329   6.493
 7025SOL     OW33105   7.253   1.714   6.158
 7025SOL    HW133106   7.212   1.691   6.070
 7025SOL    HW233107   7.235   1.640   6.223
 7026SOL     OW33108   6.184   0.729   5.856
 7026SOL    HW133109   6.208   0.798   5.788
 7026SOL    HW233110   6.106   0.762   5.910
 7027SOL     OW33111   6.867   0.345   6.530
 7027SOL    HW133112   6.781   0.295   6.517
 7027SOL    HW233113   6.929   0.291   6.586
 7028SOL     OW33114   6.393   0.605   7.051
 7028SOL    HW133115   6.346   0.602   7.140
 7028SOL    HW233116   6.342   0.550   6.985
 7029SOL     OW33117   6.577   0.410   6.828
 7029SOL    HW133118   6.500   0.444   6.882
 7029SOL    HW233119   6.543   0.359   6.749
 7030SOL     OW33120   6.627   0.701   6.015
 7030SOL    HW133121   6.653   0.697   6.111
 7030SOL    HW233122   6.542   0.650   6.001
 7031SOL     OW33123   5.662   0.811   6.375
 7031SOL    HW133124   5.761   0.799   6.384
 7031SOL    HW233125   5.638   0.906   6.396
 7032SOL     OW33126   5.716   1.821   7.157
 7032SOL    HW133127   5.706   1.806   7.256
 7032SOL    HW233128   5.630   1.857   7.121
 7033SOL     OW33129   6.948   1.144   6.131
 7033SOL    HW133130   7.031   1.115   6.083
 7033SOL    HW233131   6.899   1.211   6.075
 7034SOL     OW33132   6.136   0.196   6.471
 7034SOL    HW133133   6.131   0.191   6.571
 7034SOL    HW233134   6.138   0.292   6.442
 7035SOL     OW33135   6.594   1.456   6.063
 7035SOL    HW133136   6.548   1.528   6.011
 7035SOL    HW233137   6.590   1.476   6.161
 7036SOL     OW33138   5.937   1.801   6.439
 7036SOL    HW133139   5.987   1.715   6.445
 7036SOL    HW233140   6.002   1.878   6.436
 7037SOL     OW33141   7.381   1.066   6.459
 7037SOL    HW133142   7.319   1.051   6.383
 7037SOL    HW233143   7.329   1.077   6.544
 7038SOL     OW33144   5.907   0.943   5.828
 7038SOL    HW133145   5.989   0.982   5.786
 7038SOL    HW233146   5.880   0.861   5.779
 7039SOL     OW33147   7.044   0.735   6.314
 7039SOL    HW133148   7.039   0.670   6.389
 7039SOL    HW233149   7.124   0.794   6.327
 7040SOL     OW33150   6.697   1.776   5.823
 7040SOL    HW133151   6.637   1.714   5.873
 7040SOL    HW233152   6.728   1.732   5.738
 7041SOL     OW33153   7.218   1.377   5.667
 7041SOL    HW133154   7.186   1.471   5.657
 7041SOL    HW233155   7.142   1.314   5.655
 7042SOL     OW33156   6.050   1.743   5.909
 7042SOL    HW133157   6.083   1.782   5.995
 7042SOL    HW233158   6.126   1.736   5.844
 7043SOL     OW33159   6.986   0.107   6.012
 7043SOL    HW133160   6.962   0.070   5.922
 7043SOL    HW233161   7.085   0.123   6.016
 7044SOL     OW33162   5.835   1.785   6.827
 7044SOL    HW133163   5.892   1.720   6.877
 7044SOL    HW233164   5.819   1.752   6.734
 7045SOL     OW33165   6.526   1.698   6.490
 7045SOL    HW133166   6.606   1.641   6.511
 7045SOL    HW233167   6.477   1.658   6.413
 7046SOL     OW33168   5.968   0.700   6.066
 7046SOL    HW133169   6.013   0.610   6.063
 7046SOL    HW233170   5.874   0.689   6.099
 7047SOL     OW33171   6.200   0.122   5.703
 7047SOL    HW133172   6.298   0.100   5.710
 7047SOL    HW233173   6.169   0.105   5.610
 7048SOL     OW33174   6.474   1.514   6.781
 7048SOL    HW133175   6.451   1.489   6.687
 7048SOL    HW233176   6.535   1.445   6.820
 7049SOL     OW33177   6.389   1.402   6.510
 7049SOL    HW133178   6.479   1.416   6.468
 7049SOL    HW233179   6.318   1.404   6.439
 7050SOL     OW33180   6.508   0.503   6.485
 7050SOL    HW133181   6.483   0.494   6.389
 7050SOL    HW233182   6.556   0.421   6.516
 7051SOL     OW33183   6.125   0.064   6.098
 7051SOL    HW133184   6.044   0.065   6.156
 7051SOL    HW233185   6.128   0.147   6.043
 7052SOL     OW33186   5.883   0.035   5.757
 7052SOL    HW133187   5.932   0.119   5.736
 7052SOL    HW233188   5.945  -0.030   5.802
 7053SOL     OW33189   6.813   1.570   6.379
 7053SOL    HW133190   6.834   1.644   6.314
 7053SOL    HW233191   6.881   1.570   6.452
 7054SOL     OW33192   6.045   1.152   6.327
 7054SOL    HW133193   5.974   1.125   6.392
 7054SOL    HW233194   6.019   1.124   6.234
 7055SOL     OW33195   6.618   0.549   5.602
 7055SOL    HW133196   6.577   0.631   5.563
 7055SOL    HW233197   6.682   0.575   5.675
 7056SOL     OW33198   6.147   0.222   6.733
 7056SOL    HW133199   6.185   0.138   6.770
 7056SOL    HW233200   6.059   0.241   6.777
 7057SOL     OW33201   6.452   0.454   6.228
 7057SOL    HW133202   6.420   0.526   6.166
 7057SOL    HW233203   6.476   0.373   6.175
 7058SOL     OW33204   6.603   0.039   6.339
 7058SOL    HW133205   6.531   0.044   6.270
 7058SOL    HW233206   6.579  -0.030   6.408
 7059SOL     OW33207   7.015   1.173   6.453
 7059SOL    HW133208   6.960   1.089   6.446
 7059SOL    HW233209   7.041   1.202   6.361
 7060SOL     OW33210   7.052   0.590   6.578
 7060SOL    HW133211   7.022   0.495   6.585
 7060SOL    HW233212   7.125   0.606   6.644
 7061SOL     OW33213   7.443   0.833   5.963
 7061SOL    HW133214   7.485   0.769   6.027
 7061SOL    HW233215   7.405   0.782   5.885
 7062SOL     OW33216   6.074   1.385   5.760
 7062SOL    HW133217   5.987   1.370   5.807
 7062SOL    HW233218   6.057   1.411   5.665
 7063SOL     OW33219   7.250   1.280   6.243
 7063SOL    HW133220   7.349   1.288   6.257
 7063SOL    HW233221   7.205   1.364   6.274
 7064SOL     OW33222   6.976   0.575   5.664
 7064SOL    HW133223   6.922   0.554   5.745
 7064SOL    HW233224   7.067   0.534   5.673
 7065SOL     OW33225   6.113   0.256   5.914
 7065SOL    HW133226   6.140   0.197   5.839
 7065SOL    HW233227   6.113   0.351   5.883
 7066SOL     OW33228   6.650   1.347   6.926
 7066SOL    HW133229   6.570   1.324   6.981
 7066SOL    HW233230   6.733   1.321   6.975
 7067SOL     OW33231   6.697   1.195   6.686
 7067SOL    HW133232   6.657   1.239   6.767
 7067SOL    HW233233   6.656   1.232   6.603
 7068SOL     OW33234   7.224   1.099   6.665
 7068SOL    HW133235   7.229   1.180   6.724
 7068SOL    HW233236   7.138   1.101   6.614
 7069SOL     OW33237   6.291   1.050   5.954
 7069SOL    HW133238   6.277   1.057   6.053
 7069SOL    HW233239   6.375   0.999   5.936
 7070SOL     OW33240   5.996   0.813   6.837
 7070SOL    HW133241   6.082   0.825   6.887
 7070SOL    HW233242   5.954   0.726   6.864
 7071SOL     OW33243   6.860   0.386   6.848
 7071SOL    HW133244   6.881   0.460   6.912
 7071SOL    HW233245   6.771   0.403   6.805
 7072SOL     OW33246   5.650   1.564   6.917
 7072SOL    HW133247   5.604   1.646   6.883
 7072SOL    HW233248   5.748   1.583   6.926
 7073SOL     OW33249   5.953   1.100   6.087
 7073SOL    HW133250   5.946   1.183   6.031
 7073SOL    HW233251   5.957   1.020   6.027
 7074SOL     OW33252   6.152   0.537   6.451
 7074SOL    HW133253   6.164   0.603   6.377
 7074SOL    HW233254   6.198   0.571   6.534
 7075SOL     OW33255   6.838   1.348   5.974
 7075SOL    HW133256   6.888   1.425   6.014
 7075SOL    HW233257   6.743   1.350   6.006
 7076SOL     OW33258   6.858   1.445   6.728
 7076SOL    HW133259   6.905   1.458   6.815
 7076SOL    HW233260   6.792   1.371   6.737
 7077SOL     OW33261   7.168   0.639   6.058
 7077SOL    HW133262   7.137   0.700   6.131
 7077SOL    HW233263   7.218   0.691   5.989
 7078SOL     OW33264   5.940   1.510   6.915
 7078SOL    HW133265   5.919   1.466   6.828
 7078SOL    HW233266   6.037   1.536   6.918
 7079SOL     OW33267   6.159   0.870   6.615
 7079SOL    HW133268   6.203   0.959   6.606
 7079SOL    HW233269   6.096   0.870   6.692
 7080SOL     OW33270   6.946   0.862   6.631
 7080SOL    HW133271   6.871   0.862   6.565
 7080SOL    HW233272   6.983   0.770   6.640
 7081SOL     OW33273   5.893   0.213   6.817
 7081SOL    HW133274   5.870   0.250   6.907
 7081SOL    HW233275   5.863   0.118   6.811
 7082SOL     OW33276   5.623   1.310   6.868
 7082SOL    HW133277   5.676   1.261   6.936
 7082SOL    HW233278   5.645   1.408   6.873
 7083SOL     OW33279   6.318   0.634   6.650
 7083SOL    HW133280   6.377   0.608   6.574
 7083SOL    HW233281   6.290   0.730   6.639
 7084SOL     OW33282   5.893   0.063   6.204
 7084SOL    HW133283   5.882   0.157   6.237
 7084SOL    HW233284   5.888   0.000   6.281
 7085SOL     OW33285   7.208   0.367   5.960
 7085SOL    HW133286   7.210   0.291   6.024
 7085SOL    HW233287   7.160   0.444   6.000
 7086SOL     OW33288   6.609   0.766   6.552
 7086SOL    HW133289   6.624   0.787   6.648
 7086SOL    HW233290   6.579   0.671   6.543
 7087SOL     OW33291   7.126   0.274   5.711
 7087SOL    HW133292   7.065   0.199   5.734
 7087SOL    HW233293   7.148   0.326   5.794
 7088SOL     OW33294   6.654   1.333   6.435
 7088SOL    HW133295   6.661   1.249   6.380
 7088SOL    HW233296   6.716   1.402   6.399
 7089SOL     OW33297   5.905   0.810   6.535
 7089SOL    HW133298   5.998   0.846   6.540
 7089SOL    HW233299   5.899   0.725   6.587
 7090SOL     OW33300   5.925   0.509   6.592
 7090SOL    HW133301   5.873   0.426   6.575
 7090SOL    HW233302   6.002   0.514   6.528
 7091SOL     OW33303   6.746   0.207   7.063
 7091SOL    HW133304   6.746   0.271   7.140
 7091SOL    HW233305   6.774   0.255   6.980
 7092SOL     OW33306   5.594   1.326   5.786
 7092SOL    HW133307   5.501   1.347   5.755
 7092SOL    HW233308   5.604   1.227   5.799
 7093SOL     OW33309   5.674   1.801   6.513
 7093SOL    HW133310   5.632   1.715   6.486
 7093SOL    HW233311   5.768   1.804   6.479
 7094SOL     OW33312   6.090   1.568   6.496
 7094SOL    HW133313   6.156   1.642   6.505
 7094SOL    HW233314   6.134   1.489   6.454
 7095SOL     OW33315   6.588   0.796   6.824
 7095SOL    HW133316   6.629   0.764   6.910
 7095SOL    HW233317   6.492   0.769   6.821
 7096SOL     OW33318   5.626   0.544   6.700
 7096SOL    HW133319   5.711   0.511   6.659
 7096SOL    HW233320   5.639   0.559   6.798
 7097SOL     OW33321   7.243   0.604   6.792
 7097SOL    HW133322   7.205   0.535   6.854
 7097SOL    HW233323   7.325   0.568   6.748
 7098SOL     OW33324   6.257   0.464   6.855
 7098SOL    HW133325   6.223   0.375   6.825
 7098SOL    HW233326   6.283   0.518   6.775
 7099SOL     OW33327   6.516   1.678   7.051
 7099SOL    HW133328   6.492   1.660   6.956
 7099SOL    HW233329   6.546   1.772   7.061
 7100SOL     OW33330   6.059   0.500   5.777
 7100SOL    HW133331   6.120   0.580   5.781
 7100SOL    HW233332   5.964   0.531   5.784
 7101SOL     OW33333   5.745   1.137   7.052
 7101SOL    HW133334   5.767   1.076   7.128
 7101SOL    HW233335   5.755   1.088   6.966
 7102SOL     OW33336   6.933   1.059   6.820
 7102SOL    HW133337   6.957   0.996   6.746
 7102SOL    HW233338   6.843   1.099   6.802
 7103SOL     OW33339   6.888   0.855   5.895
 7103SOL    HW133340   6.802   0.824   5.937
 7103SOL    HW233341   6.884   0.841   5.796
 7104SOL     OW33342   7.345   1.747   6.740
 7104SOL    HW133343   7.406   1.777   6.667
 7104SOL    HW233344   7.307   1.658   6.718
 7105SOL     OW33345   6.838   1.731   6.714
 7105SOL    HW133346   6.922   1.736   6.660
 7105SOL    HW233347   6.815   1.635   6.732
 7106SOL     OW33348   5.669   1.258   6.608
 7106SOL    HW133349   5.664   1.257   6.708
 7106SOL    HW233350   5.586   1.217   6.570
 7107SOL     OW33351   7.312   0.135   6.109
 7107SOL    HW133352   7.385   0.118   6.042
 7107SOL    HW233353   7.281   0.048   6.147
 7108SOL     OW33354   6.974   1.573   6.063
 7108SOL    HW133355   7.041   1.585   5.989
 7108SOL    HW233356   6.934   1.662   6.086
 7109SOL     OW33357   6.866   0.927   6.258
 7109SOL    HW133358   6.926   0.846   6.260
 7109SOL    HW233359   6.906   0.996   6.198
 7110SOL     OW33360   7.427   0.175   6.549
 7110SOL    HW133361   7.466   0.090   6.513
 7110SOL    HW233362   7.329   0.177   6.530
 7111SOL     OW33363   5.849   0.326   6.306
 7111SOL    HW133364   5.770   0.377   6.272
 7111SOL    HW233365   5.840   0.311   6.404
 7112SOL     OW33366   6.780   1.612   5.617
 7112SOL    HW133367   6.786   1.519   5.654
 7112SOL    HW233368   6.721   1.612   5.537
 7113SOL     OW33369   6.408   1.002   6.958
 7113SOL    HW133370   6.448   1.001   6.866
 7113SOL    HW233371   6.418   1.094   6.998
 7114SOL     OW33372   7.090   1.607   5.630
 7114SOL    HW133373   6.998   1.644   5.637
 7114SOL    HW233374   7.128   1.627   5.540
 7115SOL     OW33375   5.958   1.288   7.076
 7115SOL    HW133376   5.945   1.381   7.042
 7115SOL    HW233377   5.874   1.236   7.063
 7116SOL     OW33378   7.200   1.292   6.875
 7116SOL    HW133379   7.260   1.295   6.955
 7116SOL    HW233380   7.125   1.356   6.888
 7117SOL     OW33381   6.625   1.098   6.282
 7117SOL    HW133382   6.555   1.051   6.336
 7117SOL    HW233383   6.684   1.030   6.239
 7118SOL     OW33384   6.600   0.236   6.557
 7118SOL    HW133385   6.592   0.200   6.464
 7118SOL    HW233386   6.598   0.160   6.622
 7119SOL     OW33387   7.295   0.385   6.967
 7119SOL    HW133388   7.368   0.454   6.971
 7119SOL    HW233389   7.323   0.310   6.908
 7120SOL     OW33390   5.841   1.348   5.876
 7120SOL    HW133391   5.745   1.349   5.849
 7120SOL    HW233392   5.853   1.401   5.960
 7121SOL     OW33393   5.661   0.345   5.619
 7121SOL    HW133394   5.569   0.317   5.590
 7121SOL    HW233395   5.692   0.422   5.563
 7122SOL     OW33396   5.658   0.166   5.904
 7122SOL    HW133397   5.641   0.249   5.850
 7122SOL    HW233398   5.748   0.129   5.882
 7123SOL     OW33399   6.199   0.842   7.017
 7123SOL    HW133400   6.255   0.923   7.000
 7123SOL    HW233401   6.258   0.762   7.020
 7124SOL     OW33402   7.079   1.767   6.545
 7124SOL    HW133403   7.112   1.831   6.476
 7124SOL    HW233404   7.145   1.761   6.620
 7125SOL     OW33405   5.976   1.741   7.146
 7125SOL    HW133406   5.885   1.782   7.144
 7125SOL    HW233407   5.969   1.647   7.178
 7126SOL     OW33408   7.260   0.883   6.840
 7126SOL    HW133409   7.233   0.794   6.803
 7126SOL    HW233410   7.261   0.951   6.767
 7127SOL     OW33411   6.180   0.745   6.238
 7127SOL    HW133412   6.230   0.830   6.219
 7127SOL    HW233413   6.092   0.747   6.190
 7128SOL     OW33414   7.316   0.934   7.103
 7128SOL    HW133415   7.354   1.025   7.118
 7128SOL    HW233416   7.308   0.917   7.004
 7129SOL     OW33417   6.247   1.790   6.539
 7129SOL    HW133418   6.201   1.878   6.526
 7129SOL    HW233419   6.346   1.802   6.532
 7130SOL     OW33420   6.445   0.956   6.447
 7130SOL    HW133421   6.499   0.887   6.495
 7130SOL    HW233422   6.413   1.025   6.513
 7131SOL     OW33423   7.447   1.569   6.437
 7131SOL    HW133424   7.376   1.557   6.367
 7131SOL    HW233425   7.448   1.490   6.497
 7132SOL     OW33426   5.665   1.240   6.239
 7132SOL    HW133427   5.664   1.193   6.327
 7132SOL    HW233428   5.747   1.212   6.188
 7133SOL     OW33429   7.410   0.192   6.813
 7133SOL    HW133430   7.406   0.102   6.857
 7133SOL    HW233431   7.413   0.181   6.714
 7134SOL     OW33432   6.014   0.424   6.106
 7134SOL    HW133433   6.044   0.352   6.044
 7134SOL    HW233434   5.975   0.384   6.189
 7135SOL     OW33435   7.291   1.487   6.690
 7135SOL    HW133436   7.198   1.462   6.663
 7135SOL    HW233437   7.317   1.437   6.772
 7136SOL     OW33438   5.903   0.547   6.866
 7136SOL    HW133439   5.941   0.488   6.938
 7136SOL    HW233440   5.943   0.521   6.778
 7137SOL     OW33441   7.010   0.214   6.698
 7137SOL    HW133442   7.062   0.149   6.753
 7137SOL    HW233443   6.961   0.277   6.759
 7138SOL     OW33444   6.587   0.034   6.740
 7138SOL    HW133445   6.524  -0.038   6.709
 7138SOL    HW233446   6.680  -0.002   6.740
 7139SOL     OW33447   6.204   1.567   6.870
 7139SOL    HW133448   6.199   1.649   6.927
 7139SOL    HW233449   6.293   1.564   6.825
 7140SOL     OW33450   6.938   0.052   5.754
 7140SOL    HW133451   6.973   0.011   5.670
 7140SOL    HW233452   6.848   0.014   5.774
 7141SOL     OW33453   6.886   0.453   6.277
 7141SOL    HW133454   6.827   0.533   6.281
 7141SOL    HW233455   6.901   0.418   6.370
 7142SOL     OW33456   7.179   0.221   6.468
 7142SOL    HW133457   7.095   0.220   6.522
 7142SOL    HW233458   7.181   0.304   6.412
 7143SOL     OW33459   5.625   1.077   5.886
 7143SOL    HW133460   5.724   1.066   5.877
 7143SOL    HW233461   5.585   0.991   5.918
 7144SOL     OW33462   6.461   1.646   5.923
 7144SOL    HW133463   6.384   1.611   5.869
 7144SOL    HW233464   6.429   1.717   5.985
 7145SOL     OW33465   5.816   2.490   0.113
 7145SOL    HW133466   5.723   2.488   0.150
 7145SOL    HW233467   5.817   2.451   0.021
 7146SOL     OW33468   5.811   2.137   0.996
 7146SOL    HW133469   5.846   2.120   1.088
 7146SOL    HW233470   5.723   2.092   0.984
 7147SOL     OW33471   5.605   2.230   0.647
 7147SOL    HW133472   5.523   2.273   0.686
 7147SOL    HW233473   5.577   2.157   0.584
 7148SOL     OW33474   6.155   3.137   1.165
 7148SOL    HW133475   6.062   3.130   1.128
 7148SOL    HW233476   6.166   3.226   1.209
 7149SOL     OW33477   7.141   3.373   0.703
 7149SOL    HW133478   7.084   3.357   0.784
 7149SOL    HW233479   7.082   3.383   0.623
 7150SOL     OW33480   6.721   2.565   0.717
 7150SOL    HW133481   6.778   2.643   0.692
 7150SOL    HW233482   6.661   2.591   0.793
 7151SOL     OW33483   7.341   2.469   0.231
 7151SOL    HW133484   7.329   2.456   0.132
 7151SOL    HW233485   7.311   2.388   0.280
 7152SOL     OW33486   6.354   3.006   1.023
 7152SOL    HW133487   6.276   3.023   1.083
 7152SOL    HW233488   6.388   3.093   0.987
 7153SOL     OW33489   6.271   2.874   0.665
 7153SOL    HW133490   6.340   2.858   0.735
 7153SOL    HW233491   6.198   2.931   0.703
 7154SOL     OW33492   5.921   3.297   1.061
 7154SOL    HW133493   5.843   3.266   1.008
 7154SOL    HW233494   5.979   3.355   1.004
 7155SOL     OW33495   7.046   3.367   1.339
 7155SOL    HW133496   7.070   3.461   1.365
 7155SOL    HW233497   7.030   3.313   1.421
 7156SOL     OW33498   6.024   2.254   1.499
 7156SOL    HW133499   6.106   2.198   1.508
 7156SOL    HW233500   5.943   2.196   1.503
 7157SOL     OW33501   7.189   2.309   0.737
 7157SOL    HW133502   7.115   2.355   0.687
 7157SOL    HW233503   7.240   2.377   0.790
 7158SOL     OW33504   5.817   3.575   0.483
 7158SOL    HW133505   5.851   3.652   0.537
 7158SOL    HW233506   5.861   3.575   0.393
 7159SOL     OW33507   5.816   3.296   0.538
 7159SOL    HW133508   5.790   3.392   0.538
 7159SOL    HW233509   5.745   3.242   0.583
 7160SOL     OW33510   5.826   2.953   0.886
 7160SOL    HW133511   5.840   2.869   0.938
 7160SOL    HW233512   5.771   3.017   0.941
 7161SOL     OW33513   6.192   2.826   0.123
 7161SOL    HW133514   6.199   2.910   0.069
 7161SOL    HW233515   6.238   2.839   0.211
 7162SOL     OW33516   7.180   1.976   1.480
 7162SOL    HW133517   7.162   2.043   1.408
 7162SOL    HW233518   7.177   2.022   1.569
 7163SOL     OW33519   5.708   2.505   0.563
 7163SOL    HW133520   5.663   2.417   0.580
 7163SOL    HW233521   5.707   2.559   0.647
 7164SOL     OW33522   7.428   3.629   0.359
 7164SOL    HW133523   7.482   3.600   0.439
 7164SOL    HW233524   7.458   3.719   0.330
 7165SOL     OW33525   5.613   3.458   0.117
 7165SOL    HW133526   5.594   3.362   0.138
 7165SOL    HW233527   5.580   3.516   0.192
 7166SOL     OW33528   7.275   2.784   0.612
 7166SOL    HW133529   7.370   2.755   0.620
 7166SOL    HW233530   7.267   2.849   0.537
 7167SOL     OW33531   7.227   2.970   0.432
 7167SOL    HW133532   7.313   2.972   0.380
 7167SOL    HW233533   7.241   3.017   0.520
 7168SOL     OW33534   5.699   2.599   1.597
 7168SOL    HW133535   5.787   2.586   1.642
 7168SOL    HW233536   5.686   2.696   1.575
 7169SOL     OW33537   6.199   3.227   0.726
 7169SOL    HW133538   6.150   3.140   0.735
 7169SOL    HW233539   6.176   3.270   0.639
 7170SOL     OW33540   6.395   1.866   0.502
 7170SOL    HW133541   6.435   1.957   0.493
 7170SOL    HW233542   6.295   1.874   0.508
 7171SOL     OW33543   5.783   2.838   1.264
 7171SOL    HW133544   5.872   2.793   1.250
 7171SOL    HW233545   5.710   2.773   1.245
 7172SOL     OW33546   7.111   2.861   0.190
 7172SOL    HW133547   7.048   2.785   0.203
 7172SOL    HW233548   7.159   2.879   0.276
 7173SOL     OW33549   6.773   3.654   1.616
 7173SOL    HW133550   6.797   3.714   1.540
 7173SOL    HW233551   6.780   3.559   1.586
 7174SOL     OW33552   5.903   2.113   1.801
 7174SOL    HW133553   5.974   2.184   1.807
 7174SOL    HW233554   5.815   2.152   1.829
 7175SOL     OW33555   7.052   3.279   0.953
 7175SOL    HW133556   6.993   3.285   1.033
 7175SOL    HW233557   7.037   3.191   0.907
 7176SOL     OW33558   7.253   3.576   0.572
 7176SOL    HW133559   7.212   3.553   0.484
 7176SOL    HW233560   7.235   3.502   0.637
 7177SOL     OW33561   6.184   2.591   0.270
 7177SOL    HW133562   6.208   2.660   0.202
 7177SOL    HW233563   6.106   2.624   0.324
 7178SOL     OW33564   6.867   2.207   0.944
 7178SOL    HW133565   6.781   2.157   0.931
 7178SOL    HW233566   6.929   2.153   1.000
 7179SOL     OW33567   7.162   3.524   0.307
 7179SOL    HW133568   7.251   3.570   0.310
 7179SOL    HW233569   7.141   3.500   0.212
 7180SOL     OW33570   6.393   2.467   1.465
 7180SOL    HW133571   6.346   2.464   1.554
 7180SOL    HW233572   6.342   2.412   1.399
 7181SOL     OW33573   6.980   2.331   1.674
 7181SOL    HW133574   6.960   2.374   1.762
 7181SOL    HW233575   7.058   2.269   1.683
 7182SOL     OW33576   6.559   2.752   1.572
 7182SOL    HW133577   6.605   2.668   1.543
 7182SOL    HW233578   6.503   2.786   1.497
 7183SOL     OW33579   6.577   2.272   1.242
 7183SOL    HW133580   6.500   2.306   1.296
 7183SOL    HW233581   6.543   2.221   1.163
 7184SOL     OW33582   6.627   2.563   0.429
 7184SOL    HW133583   6.653   2.559   0.525
 7184SOL    HW233584   6.542   2.512   0.415
 7185SOL     OW33585   5.662   2.673   0.789
 7185SOL    HW133586   5.761   2.661   0.798
 7185SOL    HW233587   5.638   2.768   0.810
 7186SOL     OW33588   6.451   2.210   0.195
 7186SOL    HW133589   6.510   2.273   0.146
 7186SOL    HW233590   6.470   2.116   0.166
 7187SOL     OW33591   6.948   3.006   0.545
 7187SOL    HW133592   7.031   2.977   0.497
 7187SOL    HW233593   6.899   3.073   0.489
 7188SOL     OW33594   6.136   2.058   0.885
 7188SOL    HW133595   6.131   2.053   0.985
 7188SOL    HW233596   6.138   2.154   0.856
 7189SOL     OW33597   6.594   3.318   0.477
 7189SOL    HW133598   6.548   3.390   0.425
 7189SOL    HW233599   6.590   3.338   0.575
 7190SOL     OW33600   5.937   3.663   0.853
 7190SOL    HW133601   5.987   3.577   0.859
 7190SOL    HW233602   6.002   3.740   0.850
 7191SOL     OW33603   7.381   2.928   0.873
 7191SOL    HW133604   7.319   2.913   0.797
 7191SOL    HW233605   7.329   2.939   0.958
 7192SOL     OW33606   6.813   3.412   1.506
 7192SOL    HW133607   6.819   3.335   1.570
 7192SOL    HW233608   6.761   3.386   1.426
 7193SOL     OW33609   5.907   2.805   0.242
 7193SOL    HW133610   5.989   2.844   0.200
 7193SOL    HW233611   5.880   2.723   0.193
 7194SOL     OW33612   7.044   2.597   0.728
 7194SOL    HW133613   7.039   2.532   0.803
 7194SOL    HW233614   7.124   2.656   0.741
 7195SOL     OW33615   6.697   3.638   0.237
 7195SOL    HW133616   6.637   3.576   0.287
 7195SOL    HW233617   6.728   3.594   0.152
 7196SOL     OW33618   5.788   2.147   1.498
 7196SOL    HW133619   5.708   2.207   1.485
 7196SOL    HW233620   5.778   2.098   1.584
 7197SOL     OW33621   7.218   3.239   0.081
 7197SOL    HW133622   7.186   3.333   0.071
 7197SOL    HW233623   7.142   3.176   0.069
 7198SOL     OW33624   6.050   3.605   0.323
 7198SOL    HW133625   6.083   3.644   0.409
 7198SOL    HW233626   6.126   3.598   0.258
 7199SOL     OW33627   6.986   1.969   0.426
 7199SOL    HW133628   6.962   1.932   0.336
 7199SOL    HW233629   7.085   1.985   0.430
 7200SOL     OW33630   5.835   3.647   1.241
 7200SOL    HW133631   5.892   3.582   1.291
 7200SOL    HW233632   5.819   3.614   1.148
 7201SOL     OW33633   6.526   3.560   0.904
 7201SOL    HW133634   6.606   3.503   0.925
 7201SOL    HW233635   6.477   3.520   0.827
 7202SOL     OW33636   5.968   2.562   0.480
 7202SOL    HW133637   6.013   2.472   0.477
 7202SOL    HW233638   5.874   2.551   0.513
 7203SOL     OW33639   7.133   2.084   1.729
 7203SOL    HW133640   7.128   2.121   1.821
 7203SOL    HW233641   7.061   2.015   1.717
 7204SOL     OW33642   6.474   3.376   1.195
 7204SOL    HW133643   6.451   3.351   1.101
 7204SOL    HW233644   6.535   3.307   1.234
 7205SOL     OW33645   6.937   2.452   1.433
 7205SOL    HW133646   6.965   2.409   1.518
 7205SOL    HW233647   6.962   2.548   1.434
 7206SOL     OW33648   6.389   3.264   0.924
 7206SOL    HW133649   6.479   3.278   0.882
 7206SOL    HW233650   6.318   3.266   0.853
 7207SOL     OW33651   6.508   2.365   0.899
 7207SOL    HW133652   6.483   2.356   0.803
 7207SOL    HW233653   6.556   2.283   0.930
 7208SOL     OW33654   6.125   1.926   0.512
 7208SOL    HW133655   6.044   1.927   0.570
 7208SOL    HW233656   6.128   2.009   0.457
 7209SOL     OW33657   7.020   3.050   0.041
 7209SOL    HW133658   7.052   2.974   0.098
 7209SOL    HW233659   6.928   3.077   0.071
 7210SOL     OW33660   6.521   2.098   0.480
 7210SOL    HW133661   6.473   2.139   0.402
 7210SOL    HW233662   6.620   2.096   0.461
 7211SOL     OW33663   6.662   2.545   1.464
 7211SOL    HW133664   6.582   2.484   1.467
 7211SOL    HW233665   6.743   2.492   1.440
 7212SOL     OW33666   6.813   3.432   0.793
 7212SOL    HW133667   6.834   3.506   0.728
 7212SOL    HW233668   6.881   3.432   0.866
 7213SOL     OW33669   6.045   3.014   0.741
 7213SOL    HW133670   5.974   2.987   0.806
 7213SOL    HW233671   6.019   2.986   0.648
 7214SOL     OW33672   6.857   3.659   0.591
 7214SOL    HW133673   6.901   3.723   0.527
 7214SOL    HW233674   6.807   3.711   0.661
 7215SOL     OW33675   6.618   2.411   0.016
 7215SOL    HW133676   6.577   2.493  -0.023
 7215SOL    HW233677   6.682   2.437   0.089
 7216SOL     OW33678   5.664   2.418   1.386
 7216SOL    HW133679   5.756   2.417   1.345
 7216SOL    HW233680   5.658   2.492   1.453
 7217SOL     OW33681   6.147   2.084   1.147
 7217SOL    HW133682   6.185   2.000   1.184
 7217SOL    HW233683   6.059   2.103   1.191
 7218SOL     OW33684   6.452   2.316   0.642
 7218SOL    HW133685   6.420   2.388   0.580
 7218SOL    HW233686   6.476   2.235   0.589
 7219SOL     OW33687   6.603   1.901   0.753
 7219SOL    HW133688   6.531   1.906   0.684
 7219SOL    HW233689   6.579   1.832   0.822
 7220SOL     OW33690   7.015   3.035   0.867
 7220SOL    HW133691   6.960   2.951   0.860
 7220SOL    HW233692   7.041   3.064   0.775
 7221SOL     OW33693   7.052   2.452   0.992
 7221SOL    HW133694   7.022   2.357   0.999
 7221SOL    HW233695   7.125   2.468   1.058
 7222SOL     OW33696   7.443   2.695   0.377
 7222SOL    HW133697   7.485   2.631   0.441
 7222SOL    HW233698   7.405   2.644   0.299
 7223SOL     OW33699   6.074   3.247   0.174
 7223SOL    HW133700   5.987   3.232   0.221
 7223SOL    HW233701   6.057   3.273   0.079
 7224SOL     OW33702   7.250   3.142   0.657
 7224SOL    HW133703   7.349   3.150   0.671
 7224SOL    HW233704   7.205   3.226   0.688
 7225SOL     OW33705   6.976   2.437   0.078
 7225SOL    HW133706   6.922   2.416   0.159
 7225SOL    HW233707   7.067   2.396   0.087
 7226SOL     OW33708   6.113   2.118   0.328
 7226SOL    HW133709   6.140   2.059   0.253
 7226SOL    HW233710   6.113   2.213   0.297
 7227SOL     OW33711   6.697   3.057   1.100
 7227SOL    HW133712   6.657   3.101   1.181
 7227SOL    HW233713   6.656   3.094   1.017
 7228SOL     OW33714   7.224   2.961   1.079
 7228SOL    HW133715   7.229   3.042   1.138
 7228SOL    HW233716   7.138   2.963   1.028
 7229SOL     OW33717   6.501   1.951   1.402
 7229SOL    HW133718   6.526   1.931   1.307
 7229SOL    HW233719   6.573   2.007   1.444
 7230SOL     OW33720   6.291   2.912   0.368
 7230SOL    HW133721   6.277   2.919   0.467
 7230SOL    HW233722   6.375   2.861   0.350
 7231SOL     OW33723   6.860   2.248   1.262
 7231SOL    HW133724   6.881   2.322   1.326
 7231SOL    HW233725   6.771   2.265   1.219
 7232SOL     OW33726   5.650   3.426   1.331
 7232SOL    HW133727   5.604   3.508   1.297
 7232SOL    HW233728   5.748   3.445   1.340
 7233SOL     OW33729   5.953   2.962   0.501
 7233SOL    HW133730   5.946   3.045   0.445
 7233SOL    HW233731   5.957   2.882   0.441
 7234SOL     OW33732   6.152   2.399   0.865
 7234SOL    HW133733   6.164   2.465   0.791
 7234SOL    HW233734   6.198   2.433   0.948
 7235SOL     OW33735   6.838   3.210   0.388
 7235SOL    HW133736   6.888   3.287   0.428
 7235SOL    HW233737   6.743   3.212   0.420
 7236SOL     OW33738   6.858   3.307   1.142
 7236SOL    HW133739   6.905   3.320   1.229
 7236SOL    HW233740   6.792   3.233   1.151
 7237SOL     OW33741   7.168   2.501   0.472
 7237SOL    HW133742   7.137   2.562   0.545
 7237SOL    HW233743   7.218   2.553   0.403
 7238SOL     OW33744   5.940   3.372   1.329
 7238SOL    HW133745   5.919   3.328   1.242
 7238SOL    HW233746   6.037   3.398   1.332
 7239SOL     OW33747   6.599   1.967   1.770
 7239SOL    HW133748   6.605   2.052   1.718
 7239SOL    HW233749   6.631   1.891   1.713
 7240SOL     OW33750   6.090   1.912   1.740
 7240SOL    HW133751   6.048   1.855   1.670
 7240SOL    HW233752   6.024   1.981   1.772
 7241SOL     OW33753   6.159   2.732   1.029
 7241SOL    HW133754   6.203   2.821   1.020
 7241SOL    HW233755   6.096   2.732   1.106
 7242SOL     OW33756   6.946   2.724   1.045
 7242SOL    HW133757   6.871   2.724   0.979
 7242SOL    HW233758   6.983   2.632   1.054
 7243SOL     OW33759   6.795   2.387   0.275
 7243SOL    HW133760   6.808   2.303   0.329
 7243SOL    HW233761   6.766   2.461   0.335
 7244SOL     OW33762   5.893   2.075   1.231
 7244SOL    HW133763   5.870   2.112   1.321
 7244SOL    HW233764   5.863   1.980   1.225
 7245SOL     OW33765   5.623   3.172   1.282
 7245SOL    HW133766   5.676   3.123   1.350
 7245SOL    HW233767   5.645   3.270   1.287
 7246SOL     OW33768   6.318   2.496   1.064
 7246SOL    HW133769   6.377   2.470   0.988
 7246SOL    HW233770   6.290   2.592   1.053
 7247SOL     OW33771   5.893   1.925   0.618
 7247SOL    HW133772   5.882   2.019   0.651
 7247SOL    HW233773   5.888   1.862   0.695
 7248SOL     OW33774   7.208   2.229   0.374
 7248SOL    HW133775   7.210   2.153   0.438
 7248SOL    HW233776   7.160   2.306   0.414
 7249SOL     OW33777   6.609   2.628   0.966
 7249SOL    HW133778   6.624   2.649   1.062
 7249SOL    HW233779   6.579   2.533   0.957
 7250SOL     OW33780   6.566   3.435   1.700
 7250SOL    HW133781   6.546   3.479   1.612
 7250SOL    HW233782   6.605   3.344   1.684
 7251SOL     OW33783   7.126   2.136   0.125
 7251SOL    HW133784   7.065   2.061   0.148
 7251SOL    HW233785   7.148   2.188   0.208
 7252SOL     OW33786   6.889   2.700   0.042
 7252SOL    HW133787   6.923   2.607   0.057
 7252SOL    HW233788   6.907   2.727  -0.053
 7253SOL     OW33789   6.654   3.195   0.849
 7253SOL    HW133790   6.661   3.111   0.794
 7253SOL    HW233791   6.716   3.264   0.813
 7254SOL     OW33792   5.905   2.672   0.949
 7254SOL    HW133793   5.998   2.708   0.954
 7254SOL    HW233794   5.899   2.587   1.001
 7255SOL     OW33795   5.925   2.371   1.006
 7255SOL    HW133796   5.873   2.288   0.989
 7255SOL    HW233797   6.002   2.376   0.942
 7256SOL     OW33798   6.746   2.069   1.477
 7256SOL    HW133799   6.746   2.133   1.554
 7256SOL    HW233800   6.774   2.117   1.394
 7257SOL     OW33801   5.594   3.188   0.200
 7257SOL    HW133802   5.501   3.209   0.169
 7257SOL    HW233803   5.604   3.089   0.213
 7258SOL     OW33804   5.674   3.663   0.927
 7258SOL    HW133805   5.632   3.577   0.900
 7258SOL    HW233806   5.768   3.666   0.893
 7259SOL     OW33807   6.090   3.430   0.910
 7259SOL    HW133808   6.156   3.504   0.919
 7259SOL    HW233809   6.134   3.351   0.868
 7260SOL     OW33810   6.588   2.658   1.238
 7260SOL    HW133811   6.629   2.626   1.324
 7260SOL    HW233812   6.492   2.631   1.235
 7261SOL     OW33813   5.626   2.406   1.114
 7261SOL    HW133814   5.711   2.373   1.073
 7261SOL    HW233815   5.639   2.421   1.212
 7262SOL     OW33816   5.775   2.382   1.722
 7262SOL    HW133817   5.834   2.342   1.652
 7262SOL    HW233818   5.717   2.453   1.681
 7263SOL     OW33819   6.401   2.434   0.325
 7263SOL    HW133820   6.408   2.345   0.279
 7263SOL    HW233821   6.307   2.468   0.317
 7264SOL     OW33822   7.243   2.466   1.206
 7264SOL    HW133823   7.205   2.397   1.268
 7264SOL    HW233824   7.325   2.430   1.162
 7265SOL     OW33825   5.838   3.426   1.744
 7265SOL    HW133826   5.808   3.483   1.820
 7265SOL    HW233827   5.831   3.329   1.770
 7266SOL     OW33828   6.257   2.326   1.269
 7266SOL    HW133829   6.223   2.237   1.239
 7266SOL    HW233830   6.283   2.380   1.189
 7267SOL     OW33831   6.059   2.362   0.191
 7267SOL    HW133832   6.120   2.442   0.195
 7267SOL    HW233833   5.964   2.393   0.198
 7268SOL     OW33834   5.745   2.999   1.466
 7268SOL    HW133835   5.767   2.938   1.542
 7268SOL    HW233836   5.755   2.950   1.380
 7269SOL     OW33837   6.933   2.921   1.234
 7269SOL    HW133838   6.957   2.858   1.160
 7269SOL    HW233839   6.843   2.961   1.216
 7270SOL     OW33840   6.888   2.717   0.309
 7270SOL    HW133841   6.802   2.686   0.351
 7270SOL    HW233842   6.884   2.703   0.210
 7271SOL     OW33843   7.345   3.609   1.154
 7271SOL    HW133844   7.406   3.639   1.081
 7271SOL    HW233845   7.307   3.520   1.132
 7272SOL     OW33846   6.838   3.593   1.128
 7272SOL    HW133847   6.922   3.598   1.074
 7272SOL    HW233848   6.815   3.497   1.146
 7273SOL     OW33849   5.669   3.120   1.022
 7273SOL    HW133850   5.664   3.119   1.122
 7273SOL    HW233851   5.586   3.079   0.984
 7274SOL     OW33852   6.489   1.948   0.133
 7274SOL    HW133853   6.540   1.949   0.047
 7274SOL    HW233854   6.545   1.906   0.204
 7275SOL     OW33855   7.312   1.997   0.523
 7275SOL    HW133856   7.385   1.980   0.456
 7275SOL    HW233857   7.281   1.910   0.561
 7276SOL     OW33858   6.974   3.435   0.477
 7276SOL    HW133859   7.041   3.447   0.403
 7276SOL    HW233860   6.934   3.524   0.500
 7277SOL     OW33861   5.716   3.656   1.851
 7277SOL    HW133862   5.675   3.582   1.904
 7277SOL    HW233863   5.780   3.707   1.909
 7278SOL     OW33864   6.866   2.789   0.672
 7278SOL    HW133865   6.926   2.708   0.674
 7278SOL    HW233866   6.906   2.858   0.612
 7279SOL     OW33867   6.416   3.135   1.422
 7279SOL    HW133868   6.411   3.168   1.517
 7279SOL    HW233869   6.330   3.154   1.376
 7280SOL     OW33870   6.258   3.478   0.154
 7280SOL    HW133871   6.267   3.488   0.055
 7280SOL    HW233872   6.218   3.389   0.175
 7281SOL     OW33873   7.236   3.582   1.394
 7281SOL    HW133874   7.289   3.592   1.310
 7281SOL    HW233875   7.209   3.672   1.428
 7282SOL     OW33876   7.427   2.037   0.963
 7282SOL    HW133877   7.466   1.952   0.927
 7282SOL    HW233878   7.329   2.039   0.944
 7283SOL     OW33879   5.849   2.188   0.720
 7283SOL    HW133880   5.770   2.239   0.686
 7283SOL    HW233881   5.840   2.173   0.818
 7284SOL     OW33882   6.780   3.474   0.031
 7284SOL    HW133883   6.786   3.381   0.068
 7284SOL    HW233884   6.721   3.474  -0.049
 7285SOL     OW33885   6.408   2.864   1.372
 7285SOL    HW133886   6.448   2.863   1.280
 7285SOL    HW233887   6.418   2.956   1.412
 7286SOL     OW33888   6.502   2.772   0.291
 7286SOL    HW133889   6.565   2.810   0.223
 7286SOL    HW233890   6.542   2.689   0.330
 7287SOL     OW33891   7.090   3.469   0.044
 7287SOL    HW133892   6.998   3.506   0.051
 7287SOL    HW233893   7.128   3.489  -0.046
 7288SOL     OW33894   5.958   3.150   1.490
 7288SOL    HW133895   5.945   3.243   1.456
 7288SOL    HW233896   5.874   3.098   1.477
 7289SOL     OW33897   7.200   3.154   1.289
 7289SOL    HW133898   7.260   3.157   1.369
 7289SOL    HW233899   7.125   3.218   1.302
 7290SOL     OW33900   6.625   2.960   0.696
 7290SOL    HW133901   6.555   2.913   0.750
 7290SOL    HW233902   6.684   2.892   0.653
 7291SOL     OW33903   6.600   2.098   0.971
 7291SOL    HW133904   6.592   2.062   0.878
 7291SOL    HW233905   6.598   2.022   1.036
 7292SOL     OW33906   6.176   3.349   0.491
 7292SOL    HW133907   6.218   3.291   0.421
 7292SOL    HW233908   6.132   3.428   0.447
 7293SOL     OW33909   7.295   2.247   1.381
 7293SOL    HW133910   7.368   2.316   1.385
 7293SOL    HW233911   7.323   2.172   1.322
 7294SOL     OW33912   5.841   3.210   0.290
 7294SOL    HW133913   5.745   3.211   0.263
 7294SOL    HW233914   5.853   3.263   0.374
 7295SOL     OW33915   6.258   2.065   1.489
 7295SOL    HW133916   6.348   2.049   1.449
 7295SOL    HW233917   6.266   2.070   1.588
 7296SOL     OW33918   5.661   2.207   0.033
 7296SOL    HW133919   5.569   2.179   0.004
 7296SOL    HW233920   5.692   2.284  -0.023
 7297SOL     OW33921   7.026   2.718   1.398
 7297SOL    HW133922   6.969   2.770   1.335
 7297SOL    HW233923   7.122   2.730   1.374
 7298SOL     OW33924   5.658   2.028   0.318
 7298SOL    HW133925   5.641   2.111   0.264
 7298SOL    HW233926   5.748   1.991   0.296
 7299SOL     OW33927   6.769   3.197   0.119
 7299SOL    HW133928   6.670   3.186   0.121
 7299SOL    HW233929   6.803   3.212   0.212
 7300SOL     OW33930   7.079   3.629   0.959
 7300SOL    HW133931   7.112   3.693   0.890
 7300SOL    HW233932   7.145   3.623   1.034
 7301SOL     OW33933   7.260   2.745   1.254
 7301SOL    HW133934   7.233   2.656   1.217
 7301SOL    HW233935   7.261   2.813   1.181
 7302SOL     OW33936   6.811   2.187   0.449
 7302SOL    HW133937   6.876   2.113   0.438
 7302SOL    HW233938   6.831   2.237   0.533
 7303SOL     OW33939   6.180   2.607   0.652
 7303SOL    HW133940   6.230   2.692   0.633
 7303SOL    HW233941   6.092   2.609   0.604
 7304SOL     OW33942   7.316   2.796   1.517
 7304SOL    HW133943   7.354   2.887   1.532
 7304SOL    HW233944   7.308   2.779   1.418
 7305SOL     OW33945   6.445   3.236   0.016
 7305SOL    HW133946   6.399   3.251   0.104
 7305SOL    HW233947   6.489   3.321  -0.014
 7306SOL     OW33948   6.247   3.652   0.953
 7306SOL    HW133949   6.201   3.740   0.940
 7306SOL    HW233950   6.346   3.664   0.946
 7307SOL     OW33951   6.445   2.818   0.861
 7307SOL    HW133952   6.499   2.749   0.909
 7307SOL    HW233953   6.413   2.887   0.927
 7308SOL     OW33954   6.669   2.846   0.087
 7308SOL    HW133955   6.646   2.899   0.005
 7308SOL    HW233956   6.750   2.790   0.068
 7309SOL     OW33957   7.447   3.431   0.851
 7309SOL    HW133958   7.376   3.419   0.781
 7309SOL    HW233959   7.448   3.352   0.911
 7310SOL     OW33960   5.665   3.102   0.653
 7310SOL    HW133961   5.664   3.055   0.741
 7310SOL    HW233962   5.747   3.074   0.602
 7311SOL     OW33963   6.014   2.286   0.520
 7311SOL    HW133964   6.044   2.214   0.458
 7311SOL    HW233965   5.975   2.246   0.603
 7312SOL     OW33966   7.291   3.349   1.104
 7312SOL    HW133967   7.198   3.324   1.077
 7312SOL    HW233968   7.317   3.299   1.186
 7313SOL     OW33969   5.903   2.409   1.280
 7313SOL    HW133970   5.941   2.350   1.352
 7313SOL    HW233971   5.943   2.383   1.192
 7314SOL     OW33972   6.398   3.448   0.687
 7314SOL    HW133973   6.430   3.458   0.593
 7314SOL    HW233974   6.319   3.386   0.689
 7315SOL     OW33975   7.010   2.076   1.112
 7315SOL    HW133976   7.062   2.011   1.167
 7315SOL    HW233977   6.961   2.139   1.173
 7316SOL     OW33978   6.587   1.896   1.154
 7316SOL    HW133979   6.524   1.824   1.123
 7316SOL    HW233980   6.680   1.860   1.154
 7317SOL     OW33981   6.356   3.192   0.301
 7317SOL    HW133982   6.310   3.105   0.318
 7317SOL    HW233983   6.447   3.189   0.342
 7318SOL     OW33984   6.204   3.429   1.284
 7318SOL    HW133985   6.199   3.511   1.341
 7318SOL    HW233986   6.293   3.426   1.239
 7319SOL     OW33987   6.938   1.914   0.168
 7319SOL    HW133988   6.973   1.873   0.084
 7319SOL    HW233989   6.848   1.876   0.188
 7320SOL     OW33990   6.886   2.315   0.691
 7320SOL    HW133991   6.827   2.395   0.695
 7320SOL    HW233992   6.901   2.280   0.784
 7321SOL     OW33993   7.179   2.083   0.882
 7321SOL    HW133994   7.095   2.082   0.936
 7321SOL    HW233995   7.181   2.166   0.826
 7322SOL     OW33996   5.625   2.939   0.300
 7322SOL    HW133997   5.724   2.928   0.291
 7322SOL    HW233998   5.585   2.853   0.332
 7323SOL     OW33999   6.461   3.508   0.337
 7323SOL    HW134000   6.384   3.473   0.283
 7323SOL    HW234001   6.429   3.579   0.399
 7324SOL     OW34002   5.816   2.490   1.975
 7324SOL    HW134003   5.723   2.488   2.012
 7324SOL    HW234004   5.817   2.451   1.883
 7325SOL     OW34005   6.155   3.137   3.027
 7325SOL    HW134006   6.062   3.130   2.990
 7325SOL    HW234007   6.166   3.226   3.071
 7326SOL     OW34008   6.721   2.565   2.579
 7326SOL    HW134009   6.778   2.643   2.554
 7326SOL    HW234010   6.661   2.591   2.655
 7327SOL     OW34011   6.272   3.023   3.665
 7327SOL    HW134012   6.332   3.102   3.679
 7327SOL    HW234013   6.186   3.054   3.624
 7328SOL     OW34014   5.921   3.297   2.923
 7328SOL    HW134015   5.843   3.266   2.870
 7328SOL    HW234016   5.979   3.355   2.866
 7329SOL     OW34017   7.046   3.367   3.201
 7329SOL    HW134018   7.070   3.461   3.227
 7329SOL    HW234019   7.030   3.313   3.283
 7330SOL     OW34020   7.189   2.309   2.599
 7330SOL    HW134021   7.115   2.355   2.549
 7330SOL    HW234022   7.240   2.377   2.652
 7331SOL     OW34023   7.180   1.976   3.342
 7331SOL    HW134024   7.162   2.043   3.270
 7331SOL    HW234025   7.177   2.022   3.431
 7332SOL     OW34026   7.428   3.629   2.221
 7332SOL    HW134027   7.482   3.600   2.301
 7332SOL    HW234028   7.458   3.719   2.192
 7333SOL     OW34029   7.275   2.784   2.474
 7333SOL    HW134030   7.370   2.755   2.482
 7333SOL    HW234031   7.267   2.849   2.399
 7334SOL     OW34032   5.699   2.599   3.459
 7334SOL    HW134033   5.787   2.586   3.504
 7334SOL    HW234034   5.686   2.696   3.437
 7335SOL     OW34035   6.773   3.654   3.478
 7335SOL    HW134036   6.797   3.714   3.402
 7335SOL    HW234037   6.780   3.559   3.448
 7336SOL     OW34038   6.393   2.467   3.327
 7336SOL    HW134039   6.346   2.464   3.416
 7336SOL    HW234040   6.342   2.412   3.261
 7337SOL     OW34041   6.627   2.563   2.291
 7337SOL    HW134042   6.653   2.559   2.387
 7337SOL    HW234043   6.542   2.512   2.277
 7338SOL     OW34044   7.381   2.928   2.735
 7338SOL    HW134045   7.319   2.913   2.659
 7338SOL    HW234046   7.329   2.939   2.820
 7339SOL     OW34047   5.788   2.147   3.360
 7339SOL    HW134048   5.708   2.207   3.347
 7339SOL    HW234049   5.778   2.098   3.446
 7340SOL     OW34050   6.050   3.605   2.185
 7340SOL    HW134051   6.083   3.644   2.271
 7340SOL    HW234052   6.126   3.598   2.120
 7341SOL     OW34053   6.986   1.969   2.288
 7341SOL    HW134054   6.962   1.932   2.198
 7341SOL    HW234055   7.085   1.985   2.292
 7342SOL     OW34056   7.133   2.084   3.591
 7342SOL    HW134057   7.128   2.121   3.683
 7342SOL    HW234058   7.061   2.015   3.579
 7343SOL     OW34059   6.367   2.126   3.611
 7343SOL    HW134060   6.434   2.065   3.654
 7343SOL    HW234061   6.294   2.145   3.676
 7344SOL     OW34062   6.389   3.264   2.786
 7344SOL    HW134063   6.479   3.278   2.744
 7344SOL    HW234064   6.318   3.266   2.715
 7345SOL     OW34065   7.020   3.050   1.903
 7345SOL    HW134066   7.052   2.974   1.960
 7345SOL    HW234067   6.928   3.077   1.933
 7346SOL     OW34068   6.603   1.901   2.615
 7346SOL    HW134069   6.531   1.906   2.546
 7346SOL    HW234070   6.579   1.832   2.684
 7347SOL     OW34071   7.250   3.142   2.519
 7347SOL    HW134072   7.349   3.150   2.533
 7347SOL    HW234073   7.205   3.226   2.550
 7348SOL     OW34074   6.976   2.437   1.940
 7348SOL    HW134075   6.922   2.416   2.021
 7348SOL    HW234076   7.067   2.396   1.949
 7349SOL     OW34077   7.178   3.491   3.487
 7349SOL    HW134078   7.205   3.525   3.397
 7349SOL    HW234079   7.257   3.453   3.533
 7350SOL     OW34080   6.697   3.057   2.962
 7350SOL    HW134081   6.657   3.101   3.043
 7350SOL    HW234082   6.656   3.094   2.879
 7351SOL     OW34083   6.501   1.951   3.264
 7351SOL    HW134084   6.526   1.931   3.169
 7351SOL    HW234085   6.573   2.007   3.306
 7352SOL     OW34086   5.996   2.675   3.113
 7352SOL    HW134087   6.082   2.687   3.163
 7352SOL    HW234088   5.954   2.588   3.140
 7353SOL     OW34089   6.858   3.307   3.004
 7353SOL    HW134090   6.905   3.320   3.091
 7353SOL    HW234091   6.792   3.233   3.013
 7354SOL     OW34092   5.988   2.613   3.460
 7354SOL    HW134093   6.056   2.668   3.413
 7354SOL    HW234094   6.028   2.525   3.487
 7355SOL     OW34095   6.599   1.967   3.632
 7355SOL    HW134096   6.605   2.052   3.580
 7355SOL    HW234097   6.631   1.891   3.575
 7356SOL     OW34098   6.090   1.912   3.602
 7356SOL    HW134099   6.048   1.855   3.532
 7356SOL    HW234100   6.024   1.981   3.634
 7357SOL     OW34101   6.795   2.387   2.137
 7357SOL    HW134102   6.808   2.303   2.191
 7357SOL    HW234103   6.766   2.461   2.197
 7358SOL     OW34104   5.893   2.075   3.093
 7358SOL    HW134105   5.870   2.112   3.183
 7358SOL    HW234106   5.863   1.980   3.087
 7359SOL     OW34107   5.623   3.172   3.144
 7359SOL    HW134108   5.676   3.123   3.212
 7359SOL    HW234109   5.645   3.270   3.149
 7360SOL     OW34110   7.126   2.136   1.987
 7360SOL    HW134111   7.065   2.061   2.010
 7360SOL    HW234112   7.148   2.188   2.070
 7361SOL     OW34113   6.889   2.700   1.904
 7361SOL    HW134114   6.923   2.607   1.919
 7361SOL    HW234115   6.907   2.727   1.809
 7362SOL     OW34116   5.905   2.672   2.811
 7362SOL    HW134117   5.998   2.708   2.816
 7362SOL    HW234118   5.899   2.587   2.863
 7363SOL     OW34119   5.775   2.382   3.584
 7363SOL    HW134120   5.834   2.342   3.514
 7363SOL    HW234121   5.717   2.453   3.543
 7364SOL     OW34122   6.955   2.812   3.522
 7364SOL    HW134123   6.994   2.901   3.542
 7364SOL    HW234124   6.965   2.792   3.425
 7365SOL     OW34125   5.838   3.426   3.606
 7365SOL    HW134126   5.808   3.483   3.682
 7365SOL    HW234127   5.831   3.329   3.632
 7366SOL     OW34128   6.257   2.326   3.131
 7366SOL    HW134129   6.223   2.237   3.101
 7366SOL    HW234130   6.283   2.380   3.051
 7367SOL     OW34131   6.516   3.540   3.327
 7367SOL    HW134132   6.492   3.522   3.232
 7367SOL    HW234133   6.546   3.634   3.337
 7368SOL     OW34134   5.745   2.999   3.328
 7368SOL    HW134135   5.767   2.938   3.404
 7368SOL    HW234136   5.755   2.950   3.242
 7369SOL     OW34137   6.933   2.921   3.096
 7369SOL    HW134138   6.957   2.858   3.022
 7369SOL    HW234139   6.843   2.961   3.078
 7370SOL     OW34140   7.345   3.609   3.016
 7370SOL    HW134141   7.406   3.639   2.943
 7370SOL    HW234142   7.307   3.520   2.994
 7371SOL     OW34143   5.849   2.188   2.582
 7371SOL    HW134144   5.770   2.239   2.548
 7371SOL    HW234145   5.840   2.173   2.680
 7372SOL     OW34146   6.780   3.474   1.893
 7372SOL    HW134147   6.786   3.381   1.930
 7372SOL    HW234148   6.721   3.474   1.813
 7373SOL     OW34149   6.408   2.864   3.234
 7373SOL    HW134150   6.448   2.863   3.142
 7373SOL    HW234151   6.418   2.956   3.274
 7374SOL     OW34152   7.200   3.154   3.151
 7374SOL    HW134153   7.260   3.157   3.231
 7374SOL    HW234154   7.125   3.218   3.164
 7375SOL     OW34155   6.600   2.098   2.833
 7375SOL    HW134156   6.592   2.062   2.740
 7375SOL    HW234157   6.598   2.022   2.898
 7376SOL     OW34158   7.295   2.247   3.243
 7376SOL    HW134159   7.368   2.316   3.247
 7376SOL    HW234160   7.323   2.172   3.184
 7377SOL     OW34161   5.661   2.207   1.895
 7377SOL    HW134162   5.569   2.179   1.866
 7377SOL    HW234163   5.692   2.284   1.839
 7378SOL     OW34164   7.079   3.629   2.821
 7378SOL    HW134165   7.112   3.693   2.752
 7378SOL    HW234166   7.145   3.623   2.896
 7379SOL     OW34167   7.036   3.082   3.495
 7379SOL    HW134168   7.027   3.072   3.594
 7379SOL    HW234169   7.132   3.075   3.469
 7380SOL     OW34170   5.976   3.603   3.422
 7380SOL    HW134171   5.885   3.644   3.420
 7380SOL    HW234172   5.969   3.509   3.454
 7381SOL     OW34173   6.811   2.187   2.311
 7381SOL    HW134174   6.876   2.113   2.300
 7381SOL    HW234175   6.831   2.237   2.395
 7382SOL     OW34176   6.669   2.846   1.949
 7382SOL    HW134177   6.646   2.899   1.867
 7382SOL    HW234178   6.750   2.790   1.930
 7383SOL     OW34179   5.807   3.176   3.706
 7383SOL    HW134180   5.742   3.103   3.685
 7383SOL    HW234181   5.811   3.190   3.804
 7384SOL     OW34182   5.903   2.409   3.142
 7384SOL    HW134183   5.941   2.350   3.214
 7384SOL    HW234184   5.943   2.383   3.054
 7385SOL     OW34185   6.938   1.914   2.030
 7385SOL    HW134186   6.973   1.873   1.946
 7385SOL    HW234187   6.848   1.876   2.050
 7386SOL     OW34188   7.179   2.083   2.744
 7386SOL    HW134189   7.095   2.082   2.798
 7386SOL    HW234190   7.181   2.166   2.688
 7387SOL     OW34191   5.605   2.230   4.371
 7387SOL    HW134192   5.523   2.273   4.410
 7387SOL    HW234193   5.577   2.157   4.308
 7388SOL     OW34194   6.155   3.137   4.889
 7388SOL    HW134195   6.062   3.130   4.852
 7388SOL    HW234196   6.166   3.226   4.933
 7389SOL     OW34197   6.436   2.660   5.547
 7389SOL    HW134198   6.432   2.736   5.612
 7389SOL    HW234199   6.458   2.696   5.456
 7390SOL     OW34200   5.817   3.575   4.207
 7390SOL    HW134201   5.851   3.652   4.261
 7390SOL    HW234202   5.861   3.575   4.117
 7391SOL     OW34203   7.180   1.976   5.204
 7391SOL    HW134204   7.162   2.043   5.132
 7391SOL    HW234205   7.177   2.022   5.293
 7392SOL     OW34206   7.428   3.629   4.083
 7392SOL    HW134207   7.482   3.600   4.163
 7392SOL    HW234208   7.458   3.719   4.054
 7393SOL     OW34209   5.613   3.458   3.841
 7393SOL    HW134210   5.594   3.362   3.862
 7393SOL    HW234211   5.580   3.516   3.916
 7394SOL     OW34212   6.395   1.866   4.226
 7394SOL    HW134213   6.435   1.957   4.217
 7394SOL    HW234214   6.295   1.874   4.232
 7395SOL     OW34215   5.903   2.113   5.525
 7395SOL    HW134216   5.974   2.184   5.531
 7395SOL    HW234217   5.815   2.152   5.553
 7396SOL     OW34218   7.052   3.279   4.677
 7396SOL    HW134219   6.993   3.285   4.757
 7396SOL    HW234220   7.037   3.191   4.631
 7397SOL     OW34221   6.559   2.752   5.296
 7397SOL    HW134222   6.605   2.668   5.267
 7397SOL    HW234223   6.503   2.786   5.221
 7398SOL     OW34224   6.577   2.272   4.966
 7398SOL    HW134225   6.500   2.306   5.020
 7398SOL    HW234226   6.543   2.221   4.887
 7399SOL     OW34227   6.136   2.058   4.609
 7399SOL    HW134228   6.131   2.053   4.709
 7399SOL    HW234229   6.138   2.154   4.580
 7400SOL     OW34230   5.937   3.663   4.577
 7400SOL    HW134231   5.987   3.577   4.583
 7400SOL    HW234232   6.002   3.740   4.574
 7401SOL     OW34233   6.813   3.412   5.230
 7401SOL    HW134234   6.819   3.335   5.294
 7401SOL    HW234235   6.761   3.386   5.150
 7402SOL     OW34236   5.907   2.805   3.966
 7402SOL    HW134237   5.989   2.844   3.924
 7402SOL    HW234238   5.880   2.723   3.917
 7403SOL     OW34239   6.047   3.128   5.451
 7403SOL    HW134240   5.997   3.129   5.365
 7403SOL    HW234241   5.984   3.110   5.527
 7404SOL     OW34242   6.697   3.638   3.961
 7404SOL    HW134243   6.637   3.576   4.011
 7404SOL    HW234244   6.728   3.594   3.876
 7405SOL     OW34245   5.788   2.147   5.222
 7405SOL    HW134246   5.708   2.207   5.209
 7405SOL    HW234247   5.778   2.098   5.308
 7406SOL     OW34248   7.218   3.239   3.805
 7406SOL    HW134249   7.186   3.333   3.795
 7406SOL    HW234250   7.142   3.176   3.793
 7407SOL     OW34251   6.526   3.560   4.628
 7407SOL    HW134252   6.606   3.503   4.649
 7407SOL    HW234253   6.477   3.520   4.551
 7408SOL     OW34254   6.200   1.984   3.841
 7408SOL    HW134255   6.298   1.962   3.848
 7408SOL    HW234256   6.169   1.967   3.748
 7409SOL     OW34257   6.367   2.126   5.473
 7409SOL    HW134258   6.434   2.065   5.516
 7409SOL    HW234259   6.294   2.145   5.538
 7410SOL     OW34260   6.474   3.376   4.919
 7410SOL    HW134261   6.451   3.351   4.825
 7410SOL    HW234262   6.535   3.307   4.958
 7411SOL     OW34263   6.389   3.264   4.648
 7411SOL    HW134264   6.479   3.278   4.606
 7411SOL    HW234265   6.318   3.266   4.577
 7412SOL     OW34266   6.508   2.365   4.623
 7412SOL    HW134267   6.483   2.356   4.527
 7412SOL    HW234268   6.556   2.283   4.654
 7413SOL     OW34269   7.020   3.050   3.765
 7413SOL    HW134270   7.052   2.974   3.822
 7413SOL    HW234271   6.928   3.077   3.795
 7414SOL     OW34272   5.883   1.897   3.895
 7414SOL    HW134273   5.932   1.981   3.874
 7414SOL    HW234274   5.945   1.832   3.940
 7415SOL     OW34275   6.045   3.014   4.465
 7415SOL    HW134276   5.974   2.987   4.530
 7415SOL    HW234277   6.019   2.986   4.372
 7416SOL     OW34278   6.857   3.659   4.315
 7416SOL    HW134279   6.901   3.723   4.251
 7416SOL    HW234280   6.807   3.711   4.385
 7417SOL     OW34281   5.664   2.418   5.110
 7417SOL    HW134282   5.756   2.417   5.069
 7417SOL    HW234283   5.658   2.492   5.177
 7418SOL     OW34284   6.147   2.084   4.871
 7418SOL    HW134285   6.185   2.000   4.908
 7418SOL    HW234286   6.059   2.103   4.915
 7419SOL     OW34287   6.452   2.316   4.366
 7419SOL    HW134288   6.420   2.388   4.304
 7419SOL    HW234289   6.476   2.235   4.313
 7420SOL     OW34290   6.074   3.247   3.898
 7420SOL    HW134291   5.987   3.232   3.945
 7420SOL    HW234292   6.057   3.273   3.803
 7421SOL     OW34293   6.113   2.118   4.052
 7421SOL    HW134294   6.140   2.059   3.977
 7421SOL    HW234295   6.113   2.213   4.021
 7422SOL     OW34296   7.178   3.491   5.349
 7422SOL    HW134297   7.205   3.525   5.259
 7422SOL    HW234298   7.257   3.453   5.395
 7423SOL     OW34299   7.224   2.961   4.803
 7423SOL    HW134300   7.229   3.042   4.862
 7423SOL    HW234301   7.138   2.963   4.752
 7424SOL     OW34302   6.566   2.978   5.443
 7424SOL    HW134303   6.467   2.984   5.453
 7424SOL    HW234304   6.589   2.898   5.387
 7425SOL     OW34305   5.953   2.962   4.225
 7425SOL    HW134306   5.946   3.045   4.169
 7425SOL    HW234307   5.957   2.882   4.165
 7426SOL     OW34308   6.838   3.210   4.112
 7426SOL    HW134309   6.888   3.287   4.152
 7426SOL    HW234310   6.743   3.212   4.144
 7427SOL     OW34311   6.599   1.967   5.494
 7427SOL    HW134312   6.605   2.052   5.442
 7427SOL    HW234313   6.631   1.891   5.437
 7428SOL     OW34314   6.795   2.387   3.999
 7428SOL    HW134315   6.808   2.303   4.053
 7428SOL    HW234316   6.766   2.461   4.059
 7429SOL     OW34317   5.893   2.075   4.955
 7429SOL    HW134318   5.870   2.112   5.045
 7429SOL    HW234319   5.863   1.980   4.949
 7430SOL     OW34320   7.208   2.229   4.098
 7430SOL    HW134321   7.210   2.153   4.162
 7430SOL    HW234322   7.160   2.306   4.138
 7431SOL     OW34323   6.609   2.628   4.690
 7431SOL    HW134324   6.624   2.649   4.786
 7431SOL    HW234325   6.579   2.533   4.681
 7432SOL     OW34326   6.566   3.435   5.424
 7432SOL    HW134327   6.546   3.479   5.336
 7432SOL    HW234328   6.605   3.344   5.408
 7433SOL     OW34329   5.936   2.760   5.528
 7433SOL    HW134330   6.012   2.804   5.576
 7433SOL    HW234331   5.971   2.713   5.446
 7434SOL     OW34332   7.126   2.136   3.849
 7434SOL    HW134333   7.065   2.061   3.872
 7434SOL    HW234334   7.148   2.188   3.932
 7435SOL     OW34335   6.401   2.434   4.049
 7435SOL    HW134336   6.408   2.345   4.003
 7435SOL    HW234337   6.307   2.468   4.041
 7436SOL     OW34338   6.888   2.717   4.033
 7436SOL    HW134339   6.802   2.686   4.075
 7436SOL    HW234340   6.884   2.703   3.934
 7437SOL     OW34341   6.866   2.789   4.396
 7437SOL    HW134342   6.926   2.708   4.398
 7437SOL    HW234343   6.906   2.858   4.336
 7438SOL     OW34344   6.416   3.135   5.146
 7438SOL    HW134345   6.411   3.168   5.241
 7438SOL    HW234346   6.330   3.154   5.100
 7439SOL     OW34347   7.236   3.582   5.118
 7439SOL    HW134348   7.289   3.592   5.034
 7439SOL    HW234349   7.209   3.672   5.152
 7440SOL     OW34350   6.780   3.474   3.755
 7440SOL    HW134351   6.786   3.381   3.792
 7440SOL    HW234352   6.721   3.474   3.675
 7441SOL     OW34353   6.502   2.772   4.015
 7441SOL    HW134354   6.565   2.810   3.947
 7441SOL    HW234355   6.542   2.689   4.054
 7442SOL     OW34356   7.090   3.469   3.768
 7442SOL    HW134357   6.998   3.506   3.775
 7442SOL    HW234358   7.128   3.489   3.678
 7443SOL     OW34359   5.958   3.150   5.214
 7443SOL    HW134360   5.945   3.243   5.180
 7443SOL    HW234361   5.874   3.098   5.201
 7444SOL     OW34362   6.176   3.349   4.215
 7444SOL    HW134363   6.218   3.291   4.145
 7444SOL    HW234364   6.132   3.428   4.171
 7445SOL     OW34365   5.691   2.875   5.450
 7445SOL    HW134366   5.614   2.842   5.504
 7445SOL    HW234367   5.776   2.845   5.492
 7446SOL     OW34368   5.658   2.028   4.042
 7446SOL    HW134369   5.641   2.111   3.988
 7446SOL    HW234370   5.748   1.991   4.020
 7447SOL     OW34371   7.079   3.629   4.683
 7447SOL    HW134372   7.112   3.693   4.614
 7447SOL    HW234373   7.145   3.623   4.758
 7448SOL     OW34374   6.302   2.427   5.432
 7448SOL    HW134375   6.321   2.492   5.506
 7448SOL    HW234376   6.362   2.347   5.441
 7449SOL     OW34377   7.036   3.082   5.357
 7449SOL    HW134378   7.027   3.072   5.456
 7449SOL    HW234379   7.132   3.075   5.331
 7450SOL     OW34380   6.811   2.187   4.173
 7450SOL    HW134381   6.876   2.113   4.162
 7450SOL    HW234382   6.831   2.237   4.257
 7451SOL     OW34383   6.445   3.236   3.740
 7451SOL    HW134384   6.399   3.251   3.828
 7451SOL    HW234385   6.489   3.321   3.710
 7452SOL     OW34386   6.445   2.818   4.585
 7452SOL    HW134387   6.499   2.749   4.633
 7452SOL    HW234388   6.413   2.887   4.651
 7453SOL     OW34389   7.447   3.431   4.575
 7453SOL    HW134390   7.376   3.419   4.505
 7453SOL    HW234391   7.448   3.352   4.635
 7454SOL     OW34392   5.665   3.102   4.377
 7454SOL    HW134393   5.664   3.055   4.465
 7454SOL    HW234394   5.747   3.074   4.326
 7455SOL     OW34395   6.258   3.253   5.348
 7455SOL    HW134396   6.180   3.203   5.386
 7455SOL    HW234397   6.255   3.348   5.379
 7456SOL     OW34398   6.014   2.286   4.244
 7456SOL    HW134399   6.044   2.214   4.182
 7456SOL    HW234400   5.975   2.246   4.327
 7457SOL     OW34401   5.903   2.409   5.004
 7457SOL    HW134402   5.941   2.350   5.076
 7457SOL    HW234403   5.943   2.383   4.916
 7458SOL     OW34404   6.587   1.896   4.878
 7458SOL    HW134405   6.524   1.824   4.847
 7458SOL    HW234406   6.680   1.860   4.878
 7459SOL     OW34407   5.625   2.939   4.024
 7459SOL    HW134408   5.724   2.928   4.015
 7459SOL    HW234409   5.585   2.853   4.056
 7460SOL     OW34410   6.461   3.508   4.061
 7460SOL    HW134411   6.384   3.473   4.007
 7460SOL    HW234412   6.429   3.579   4.123
 7461SOL     OW34413   5.816   2.490   5.699
 7461SOL    HW134414   5.723   2.488   5.736
 7461SOL    HW234415   5.817   2.451   5.607
 7462SOL     OW34416   5.811   2.137   6.582
 7462SOL    HW134417   5.846   2.120   6.674
 7462SOL    HW234418   5.723   2.092   6.570
 7463SOL     OW34419   6.155   3.137   6.751
 7463SOL    HW134420   6.062   3.130   6.714
 7463SOL    HW234421   6.166   3.226   6.795
 7464SOL     OW34422   7.141   3.373   6.289
 7464SOL    HW134423   7.084   3.357   6.370
 7464SOL    HW234424   7.082   3.383   6.209
 7465SOL     OW34425   6.721   2.565   6.303
 7465SOL    HW134426   6.778   2.643   6.278
 7465SOL    HW234427   6.661   2.591   6.379
 7466SOL     OW34428   6.354   3.006   6.609
 7466SOL    HW134429   6.276   3.023   6.669
 7466SOL    HW234430   6.388   3.093   6.573
 7467SOL     OW34431   6.271   2.874   6.251
 7467SOL    HW134432   6.340   2.858   6.321
 7467SOL    HW234433   6.198   2.931   6.289
 7468SOL     OW34434   5.921   3.297   6.647
 7468SOL    HW134435   5.843   3.266   6.594
 7468SOL    HW234436   5.979   3.355   6.590
 7469SOL     OW34437   6.024   2.254   7.085
 7469SOL    HW134438   6.106   2.198   7.094
 7469SOL    HW234439   5.943   2.196   7.089
 7470SOL     OW34440   7.189   2.309   6.323
 7470SOL    HW134441   7.115   2.355   6.273
 7470SOL    HW234442   7.240   2.377   6.376
 7471SOL     OW34443   5.826   2.953   6.472
 7471SOL    HW134444   5.840   2.869   6.524
 7471SOL    HW234445   5.771   3.017   6.527
 7472SOL     OW34446   6.206   3.648   7.025
 7472SOL    HW134447   6.114   3.631   7.060
 7472SOL    HW234448   6.234   3.740   7.051
 7473SOL     OW34449   6.192   2.826   5.709
 7473SOL    HW134450   6.199   2.910   5.655
 7473SOL    HW234451   6.238   2.839   5.797
 7474SOL     OW34452   5.708   2.505   6.149
 7474SOL    HW134453   5.663   2.417   6.166
 7474SOL    HW234454   5.707   2.559   6.233
 7475SOL     OW34455   5.613   3.458   5.703
 7475SOL    HW134456   5.594   3.362   5.724
 7475SOL    HW234457   5.580   3.516   5.778
 7476SOL     OW34458   6.395   1.866   6.088
 7476SOL    HW134459   6.435   1.957   6.079
 7476SOL    HW234460   6.295   1.874   6.094
 7477SOL     OW34461   5.783   2.838   6.850
 7477SOL    HW134462   5.872   2.793   6.836
 7477SOL    HW234463   5.710   2.773   6.831
 7478SOL     OW34464   7.052   3.279   6.539
 7478SOL    HW134465   6.993   3.285   6.619
 7478SOL    HW234466   7.037   3.191   6.493
 7479SOL     OW34467   6.184   2.591   5.856
 7479SOL    HW134468   6.208   2.660   5.788
 7479SOL    HW234469   6.106   2.624   5.910
 7480SOL     OW34470   6.867   2.207   6.530
 7480SOL    HW134471   6.781   2.157   6.517
 7480SOL    HW234472   6.929   2.153   6.586
 7481SOL     OW34473   6.393   2.467   7.051
 7481SOL    HW134474   6.346   2.464   7.140
 7481SOL    HW234475   6.342   2.412   6.985
 7482SOL     OW34476   6.577   2.272   6.828
 7482SOL    HW134477   6.500   2.306   6.882
 7482SOL    HW234478   6.543   2.221   6.749
 7483SOL     OW34479   5.662   2.673   6.375
 7483SOL    HW134480   5.761   2.661   6.384
 7483SOL    HW234481   5.638   2.768   6.396
 7484SOL     OW34482   5.716   3.683   7.157
 7484SOL    HW134483   5.706   3.668   7.256
 7484SOL    HW234484   5.630   3.719   7.121
 7485SOL     OW34485   6.451   2.210   5.781
 7485SOL    HW134486   6.510   2.273   5.732
 7485SOL    HW234487   6.470   2.116   5.752
 7486SOL     OW34488   6.948   3.006   6.131
 7486SOL    HW134489   7.031   2.977   6.083
 7486SOL    HW234490   6.899   3.073   6.075
 7487SOL     OW34491   6.136   2.058   6.471
 7487SOL    HW134492   6.131   2.053   6.571
 7487SOL    HW234493   6.138   2.154   6.442
 7488SOL     OW34494   6.594   3.318   6.063
 7488SOL    HW134495   6.548   3.390   6.011
 7488SOL    HW234496   6.590   3.338   6.161
 7489SOL     OW34497   5.937   3.663   6.439
 7489SOL    HW134498   5.987   3.577   6.445
 7489SOL    HW234499   6.002   3.740   6.436
 7490SOL     OW34500   7.381   2.928   6.459
 7490SOL    HW134501   7.319   2.913   6.383
 7490SOL    HW234502   7.329   2.939   6.544
 7491SOL     OW34503   5.907   2.805   5.828
 7491SOL    HW134504   5.989   2.844   5.786
 7491SOL    HW234505   5.880   2.723   5.779
 7492SOL     OW34506   7.044   2.597   6.314
 7492SOL    HW134507   7.039   2.532   6.389
 7492SOL    HW234508   7.124   2.656   6.327
 7493SOL     OW34509   7.218   3.239   5.667
 7493SOL    HW134510   7.186   3.333   5.657
 7493SOL    HW234511   7.142   3.176   5.655
 7494SOL     OW34512   5.835   3.647   6.827
 7494SOL    HW134513   5.892   3.582   6.877
 7494SOL    HW234514   5.819   3.614   6.734
 7495SOL     OW34515   6.526   3.560   6.490
 7495SOL    HW134516   6.606   3.503   6.511
 7495SOL    HW234517   6.477   3.520   6.413
 7496SOL     OW34518   5.968   2.562   6.066
 7496SOL    HW134519   6.013   2.472   6.063
 7496SOL    HW234520   5.874   2.551   6.099
 7497SOL     OW34521   6.200   1.984   5.703
 7497SOL    HW134522   6.298   1.962   5.710
 7497SOL    HW234523   6.169   1.967   5.610
 7498SOL     OW34524   6.474   3.376   6.781
 7498SOL    HW134525   6.451   3.351   6.687
 7498SOL    HW234526   6.535   3.307   6.820
 7499SOL     OW34527   6.389   3.264   6.510
 7499SOL    HW134528   6.479   3.278   6.468
 7499SOL    HW234529   6.318   3.266   6.439
 7500SOL     OW34530   6.508   2.365   6.485
 7500SOL    HW134531   6.483   2.356   6.389
 7500SOL    HW234532   6.556   2.283   6.516
 7501SOL     OW34533   6.125   1.926   6.098
 7501SOL    HW134534   6.044   1.927   6.156
 7501SOL    HW234535   6.128   2.009   6.043
 7502SOL     OW34536   7.020   3.050   5.627
 7502SOL    HW134537   7.052   2.974   5.684
 7502SOL    HW234538   6.928   3.077   5.657
 7503SOL     OW34539   5.883   1.897   5.757
 7503SOL    HW134540   5.932   1.981   5.736
 7503SOL    HW234541   5.945   1.832   5.802
 7504SOL     OW34542   6.521   2.098   6.066
 7504SOL    HW134543   6.473   2.139   5.988
 7504SOL    HW234544   6.620   2.096   6.047
 7505SOL     OW34545   6.813   3.432   6.379
 7505SOL    HW134546   6.834   3.506   6.314
 7505SOL    HW234547   6.881   3.432   6.452
 7506SOL     OW34548   6.045   3.014   6.327
 7506SOL    HW134549   5.974   2.987   6.392
 7506SOL    HW234550   6.019   2.986   6.234
 7507SOL     OW34551   6.857   3.659   6.177
 7507SOL    HW134552   6.901   3.723   6.113
 7507SOL    HW234553   6.807   3.711   6.247
 7508SOL     OW34554   6.618   2.411   5.602
 7508SOL    HW134555   6.577   2.493   5.563
 7508SOL    HW234556   6.682   2.437   5.675
 7509SOL     OW34557   6.147   2.084   6.733
 7509SOL    HW134558   6.185   2.000   6.770
 7509SOL    HW234559   6.059   2.103   6.777
 7510SOL     OW34560   6.452   2.316   6.228
 7510SOL    HW134561   6.420   2.388   6.166
 7510SOL    HW234562   6.476   2.235   6.175
 7511SOL     OW34563   6.603   1.901   6.339
 7511SOL    HW134564   6.531   1.906   6.270
 7511SOL    HW234565   6.579   1.832   6.408
 7512SOL     OW34566   7.015   3.035   6.453
 7512SOL    HW134567   6.960   2.951   6.446
 7512SOL    HW234568   7.041   3.064   6.361
 7513SOL     OW34569   7.052   2.452   6.578
 7513SOL    HW134570   7.022   2.357   6.585
 7513SOL    HW234571   7.125   2.468   6.644
 7514SOL     OW34572   6.074   3.247   5.760
 7514SOL    HW134573   5.987   3.232   5.807
 7514SOL    HW234574   6.057   3.273   5.665
 7515SOL     OW34575   7.250   3.142   6.243
 7515SOL    HW134576   7.349   3.150   6.257
 7515SOL    HW234577   7.205   3.226   6.274
 7516SOL     OW34578   6.113   2.118   5.914
 7516SOL    HW134579   6.140   2.059   5.839
 7516SOL    HW234580   6.113   2.213   5.883
 7517SOL     OW34581   6.650   3.209   6.926
 7517SOL    HW134582   6.570   3.186   6.981
 7517SOL    HW234583   6.733   3.183   6.975
 7518SOL     OW34584   6.697   3.057   6.686
 7518SOL    HW134585   6.657   3.101   6.767
 7518SOL    HW234586   6.656   3.094   6.603
 7519SOL     OW34587   7.224   2.961   6.665
 7519SOL    HW134588   7.229   3.042   6.724
 7519SOL    HW234589   7.138   2.963   6.614
 7520SOL     OW34590   6.291   2.912   5.954
 7520SOL    HW134591   6.277   2.919   6.053
 7520SOL    HW234592   6.375   2.861   5.936
 7521SOL     OW34593   5.996   2.675   6.837
 7521SOL    HW134594   6.082   2.687   6.887
 7521SOL    HW234595   5.954   2.588   6.864
 7522SOL     OW34596   6.860   2.248   6.848
 7522SOL    HW134597   6.881   2.322   6.912
 7522SOL    HW234598   6.771   2.265   6.805
 7523SOL     OW34599   5.650   3.426   6.917
 7523SOL    HW134600   5.604   3.508   6.883
 7523SOL    HW234601   5.748   3.445   6.926
 7524SOL     OW34602   6.152   2.399   6.451
 7524SOL    HW134603   6.164   2.465   6.377
 7524SOL    HW234604   6.198   2.433   6.534
 7525SOL     OW34605   6.838   3.210   5.974
 7525SOL    HW134606   6.888   3.287   6.014
 7525SOL    HW234607   6.743   3.212   6.006
 7526SOL     OW34608   6.858   3.307   6.728
 7526SOL    HW134609   6.905   3.320   6.815
 7526SOL    HW234610   6.792   3.233   6.737
 7527SOL     OW34611   5.940   3.372   6.915
 7527SOL    HW134612   5.919   3.328   6.828
 7527SOL    HW234613   6.037   3.398   6.918
 7528SOL     OW34614   6.090   1.912   7.326
 7528SOL    HW134615   6.048   1.855   7.256
 7528SOL    HW234616   6.024   1.981   7.358
 7529SOL     OW34617   6.159   2.732   6.615
 7529SOL    HW134618   6.203   2.821   6.606
 7529SOL    HW234619   6.096   2.732   6.692
 7530SOL     OW34620   6.946   2.724   6.631
 7530SOL    HW134621   6.871   2.724   6.565
 7530SOL    HW234622   6.983   2.632   6.640
 7531SOL     OW34623   5.893   2.075   6.817
 7531SOL    HW134624   5.870   2.112   6.907
 7531SOL    HW234625   5.863   1.980   6.811
 7532SOL     OW34626   5.623   3.172   6.868
 7532SOL    HW134627   5.676   3.123   6.936
 7532SOL    HW234628   5.645   3.270   6.873
 7533SOL     OW34629   6.318   2.496   6.650
 7533SOL    HW134630   6.377   2.470   6.574
 7533SOL    HW234631   6.290   2.592   6.639
 7534SOL     OW34632   6.609   2.628   6.552
 7534SOL    HW134633   6.624   2.649   6.648
 7534SOL    HW234634   6.579   2.533   6.543
 7535SOL     OW34635   6.654   3.195   6.435
 7535SOL    HW134636   6.661   3.111   6.380
 7535SOL    HW234637   6.716   3.264   6.399
 7536SOL     OW34638   5.905   2.672   6.535
 7536SOL    HW134639   5.998   2.708   6.540
 7536SOL    HW234640   5.899   2.587   6.587
 7537SOL     OW34641   5.925   2.371   6.592
 7537SOL    HW134642   5.873   2.288   6.575
 7537SOL    HW234643   6.002   2.376   6.528
 7538SOL     OW34644   6.746   2.069   7.063
 7538SOL    HW134645   6.746   2.133   7.140
 7538SOL    HW234646   6.774   2.117   6.980
 7539SOL     OW34647   5.674   3.663   6.513
 7539SOL    HW134648   5.632   3.577   6.486
 7539SOL    HW234649   5.768   3.666   6.479
 7540SOL     OW34650   6.090   3.430   6.496
 7540SOL    HW134651   6.156   3.504   6.505
 7540SOL    HW234652   6.134   3.351   6.454
 7541SOL     OW34653   6.588   2.658   6.824
 7541SOL    HW134654   6.629   2.626   6.910
 7541SOL    HW234655   6.492   2.631   6.821
 7542SOL     OW34656   5.626   2.406   6.700
 7542SOL    HW134657   5.711   2.373   6.659
 7542SOL    HW234658   5.639   2.421   6.798
 7543SOL     OW34659   6.401   2.434   5.911
 7543SOL    HW134660   6.408   2.345   5.865
 7543SOL    HW234661   6.307   2.468   5.903
 7544SOL     OW34662   7.243   2.466   6.792
 7544SOL    HW134663   7.205   2.397   6.854
 7544SOL    HW234664   7.325   2.430   6.748
 7545SOL     OW34665   6.257   2.326   6.855
 7545SOL    HW134666   6.223   2.237   6.825
 7545SOL    HW234667   6.283   2.380   6.775
 7546SOL     OW34668   6.516   3.540   7.051
 7546SOL    HW134669   6.492   3.522   6.956
 7546SOL    HW234670   6.546   3.634   7.061
 7547SOL     OW34671   6.059   2.362   5.777
 7547SOL    HW134672   6.120   2.442   5.781
 7547SOL    HW234673   5.964   2.393   5.784
 7548SOL     OW34674   5.745   2.999   7.052
 7548SOL    HW134675   5.767   2.938   7.128
 7548SOL    HW234676   5.755   2.950   6.966
 7549SOL     OW34677   6.933   2.921   6.820
 7549SOL    HW134678   6.957   2.858   6.746
 7549SOL    HW234679   6.843   2.961   6.802
 7550SOL     OW34680   7.345   3.609   6.740
 7550SOL    HW134681   7.406   3.639   6.667
 7550SOL    HW234682   7.307   3.520   6.718
 7551SOL     OW34683   6.838   3.593   6.714
 7551SOL    HW134684   6.922   3.598   6.660
 7551SOL    HW234685   6.815   3.497   6.732
 7552SOL     OW34686   5.669   3.120   6.608
 7552SOL    HW134687   5.664   3.119   6.708
 7552SOL    HW234688   5.586   3.079   6.570
 7553SOL     OW34689   7.312   1.997   6.109
 7553SOL    HW134690   7.385   1.980   6.042
 7553SOL    HW234691   7.281   1.910   6.147
 7554SOL     OW34692   6.866   2.789   6.258
 7554SOL    HW134693   6.926   2.708   6.260
 7554SOL    HW234694   6.906   2.858   6.198
 7555SOL     OW34695   7.427   2.037   6.549
 7555SOL    HW134696   7.466   1.952   6.513
 7555SOL    HW234697   7.329   2.039   6.530
 7556SOL     OW34698   5.849   2.188   6.306
 7556SOL    HW134699   5.770   2.239   6.272
 7556SOL    HW234700   5.840   2.173   6.404
 7557SOL     OW34701   6.408   2.864   6.958
 7557SOL    HW134702   6.448   2.863   6.866
 7557SOL    HW234703   6.418   2.956   6.998
 7558SOL     OW34704   6.502   2.772   5.877
 7558SOL    HW134705   6.565   2.810   5.809
 7558SOL    HW234706   6.542   2.689   5.916
 7559SOL     OW34707   7.090   3.469   5.630
 7559SOL    HW134708   6.998   3.506   5.637
 7559SOL    HW234709   7.128   3.489   5.540
 7560SOL     OW34710   5.958   3.150   7.076
 7560SOL    HW134711   5.945   3.243   7.042
 7560SOL    HW234712   5.874   3.098   7.063
 7561SOL     OW34713   7.200   3.154   6.875
 7561SOL    HW134714   7.260   3.157   6.955
 7561SOL    HW234715   7.125   3.218   6.888
 7562SOL     OW34716   6.625   2.960   6.282
 7562SOL    HW134717   6.555   2.913   6.336
 7562SOL    HW234718   6.684   2.892   6.239
 7563SOL     OW34719   6.600   2.098   6.557
 7563SOL    HW134720   6.592   2.062   6.464
 7563SOL    HW234721   6.598   2.022   6.622
 7564SOL     OW34722   7.295   2.247   6.967
 7564SOL    HW134723   7.368   2.316   6.971
 7564SOL    HW234724   7.323   2.172   6.908
 7565SOL     OW34725   6.258   2.065   7.075
 7565SOL    HW134726   6.348   2.049   7.035
 7565SOL    HW234727   6.266   2.070   7.174
 7566SOL     OW34728   6.769   3.197   5.705
 7566SOL    HW134729   6.670   3.186   5.707
 7566SOL    HW234730   6.803   3.212   5.798
 7567SOL     OW34731   6.199   2.704   7.017
 7567SOL    HW134732   6.255   2.785   7.000
 7567SOL    HW234733   6.258   2.624   7.020
 7568SOL     OW34734   7.079   3.629   6.545
 7568SOL    HW134735   7.112   3.693   6.476
 7568SOL    HW234736   7.145   3.623   6.620
 7569SOL     OW34737   5.976   3.603   7.146
 7569SOL    HW134738   5.885   3.644   7.144
 7569SOL    HW234739   5.969   3.509   7.178
 7570SOL     OW34740   7.260   2.745   6.840
 7570SOL    HW134741   7.233   2.656   6.803
 7570SOL    HW234742   7.261   2.813   6.767
 7571SOL     OW34743   6.180   2.607   6.238
 7571SOL    HW134744   6.230   2.692   6.219
 7571SOL    HW234745   6.092   2.609   6.190
 7572SOL     OW34746   7.316   2.796   7.103
 7572SOL    HW134747   7.354   2.887   7.118
 7572SOL    HW234748   7.308   2.779   7.004
 7573SOL     OW34749   6.247   3.652   6.539
 7573SOL    HW134750   6.201   3.740   6.526
 7573SOL    HW234751   6.346   3.664   6.532
 7574SOL     OW34752   6.445   2.818   6.447
 7574SOL    HW134753   6.499   2.749   6.495
 7574SOL    HW234754   6.413   2.887   6.513
 7575SOL     OW34755   6.669   2.846   5.673
 7575SOL    HW134756   6.646   2.899   5.591
 7575SOL    HW234757   6.750   2.790   5.654
 7576SOL     OW34758   7.447   3.431   6.437
 7576SOL    HW134759   7.376   3.419   6.367
 7576SOL    HW234760   7.448   3.352   6.497
 7577SOL     OW34761   5.665   3.102   6.239
 7577SOL    HW134762   5.664   3.055   6.327
 7577SOL    HW234763   5.747   3.074   6.188
 7578SOL     OW34764   7.410   2.054   6.813
 7578SOL    HW134765   7.406   1.964   6.857
 7578SOL    HW234766   7.413   2.043   6.714
 7579SOL     OW34767   6.014   2.286   6.106
 7579SOL    HW134768   6.044   2.214   6.044
 7579SOL    HW234769   5.975   2.246   6.189
 7580SOL     OW34770   7.291   3.349   6.690
 7580SOL    HW134771   7.198   3.324   6.663
 7580SOL    HW234772   7.317   3.299   6.772
 7581SOL     OW34773   5.903   2.409   6.866
 7581SOL    HW134774   5.941   2.350   6.938
 7581SOL    HW234775   5.943   2.383   6.778
 7582SOL     OW34776   6.398   3.448   6.273
 7582SOL    HW134777   6.430   3.458   6.179
 7582SOL    HW234778   6.319   3.386   6.275
 7583SOL     OW34779   7.010   2.076   6.698
 7583SOL    HW134780   7.062   2.011   6.753
 7583SOL    HW234781   6.961   2.139   6.759
 7584SOL     OW34782   6.587   1.896   6.740
 7584SOL    HW134783   6.524   1.824   6.709
 7584SOL    HW234784   6.680   1.860   6.740
 7585SOL     OW34785   6.356   3.192   5.887
 7585SOL    HW134786   6.310   3.105   5.904
 7585SOL    HW234787   6.447   3.189   5.928
 7586SOL     OW34788   6.204   3.429   6.870
 7586SOL    HW134789   6.199   3.511   6.927
 7586SOL    HW234790   6.293   3.426   6.825
 7587SOL     OW34791   6.886   2.315   6.277
 7587SOL    HW134792   6.827   2.395   6.281
 7587SOL    HW234793   6.901   2.280   6.370
 7588SOL     OW34794   7.179   2.083   6.468
 7588SOL    HW134795   7.095   2.082   6.522
 7588SOL    HW234796   7.181   2.166   6.412
 7589SOL     OW34797   5.625   2.939   5.886
 7589SOL    HW134798   5.724   2.928   5.877
 7589SOL    HW234799   5.585   2.853   5.918
 7590SOL     OW34800   6.461   3.508   5.923
 7590SOL    HW134801   6.384   3.473   5.869
 7590SOL    HW234802   6.429   3.579   5.985
 7591SOL     OW34803   5.816   4.352   0.113
 7591SOL    HW134804   5.723   4.350   0.150
 7591SOL    HW234805   5.817   4.313   0.021
 7592SOL     OW34806   5.811   3.999   0.996
 7592SOL    HW134807   5.846   3.982   1.088
 7592SOL    HW234808   5.723   3.954   0.984
 7593SOL     OW34809   5.605   4.092   0.647
 7593SOL    HW134810   5.523   4.135   0.686
 7593SOL    HW234811   5.577   4.019   0.584
 7594SOL     OW34812   7.141   5.235   0.703
 7594SOL    HW134813   7.084   5.219   0.784
 7594SOL    HW234814   7.082   5.245   0.623
 7595SOL     OW34815   6.721   4.427   0.717
 7595SOL    HW134816   6.778   4.505   0.692
 7595SOL    HW234817   6.661   4.453   0.793
 7596SOL     OW34818   7.341   4.331   0.231
 7596SOL    HW134819   7.329   4.318   0.132
 7596SOL    HW234820   7.311   4.250   0.280
 7597SOL     OW34821   6.354   4.868   1.023
 7597SOL    HW134822   6.276   4.885   1.083
 7597SOL    HW234823   6.388   4.955   0.987
 7598SOL     OW34824   6.271   4.736   0.665
 7598SOL    HW134825   6.340   4.720   0.735
 7598SOL    HW234826   6.198   4.793   0.703
 7599SOL     OW34827   5.921   5.159   1.061
 7599SOL    HW134828   5.843   5.128   1.008
 7599SOL    HW234829   5.979   5.217   1.004
 7600SOL     OW34830   7.046   5.229   1.339
 7600SOL    HW134831   7.070   5.323   1.365
 7600SOL    HW234832   7.030   5.175   1.421
 7601SOL     OW34833   6.024   4.116   1.499
 7601SOL    HW134834   6.106   4.060   1.508
 7601SOL    HW234835   5.943   4.058   1.503
 7602SOL     OW34836   7.189   4.171   0.737
 7602SOL    HW134837   7.115   4.217   0.687
 7602SOL    HW234838   7.240   4.239   0.790
 7603SOL     OW34839   5.817   5.437   0.483
 7603SOL    HW134840   5.851   5.514   0.537
 7603SOL    HW234841   5.861   5.437   0.393
 7604SOL     OW34842   5.816   5.158   0.538
 7604SOL    HW134843   5.790   5.254   0.538
 7604SOL    HW234844   5.745   5.104   0.583
 7605SOL     OW34845   5.826   4.815   0.886
 7605SOL    HW134846   5.840   4.731   0.938
 7605SOL    HW234847   5.771   4.879   0.941
 7606SOL     OW34848   6.206   5.510   1.439
 7606SOL    HW134849   6.114   5.493   1.474
 7606SOL    HW234850   6.234   5.602   1.465
 7607SOL     OW34851   6.192   4.688   0.123
 7607SOL    HW134852   6.199   4.772   0.069
 7607SOL    HW234853   6.238   4.701   0.211
 7608SOL     OW34854   7.180   3.838   1.480
 7608SOL    HW134855   7.162   3.905   1.408
 7608SOL    HW234856   7.177   3.884   1.569
 7609SOL     OW34857   5.708   4.367   0.563
 7609SOL    HW134858   5.663   4.279   0.580
 7609SOL    HW234859   5.707   4.421   0.647
 7610SOL     OW34860   7.428   5.491   0.359
 7610SOL    HW134861   7.482   5.462   0.439
 7610SOL    HW234862   7.458   5.581   0.330
 7611SOL     OW34863   5.613   5.320   0.117
 7611SOL    HW134864   5.594   5.224   0.138
 7611SOL    HW234865   5.580   5.378   0.192
 7612SOL     OW34866   7.275   4.646   0.612
 7612SOL    HW134867   7.370   4.617   0.620
 7612SOL    HW234868   7.267   4.711   0.537
 7613SOL     OW34869   7.227   4.832   0.432
 7613SOL    HW134870   7.313   4.834   0.380
 7613SOL    HW234871   7.241   4.879   0.520
 7614SOL     OW34872   5.699   4.461   1.597
 7614SOL    HW134873   5.787   4.448   1.642
 7614SOL    HW234874   5.686   4.558   1.575
 7615SOL     OW34875   6.199   5.089   0.726
 7615SOL    HW134876   6.150   5.002   0.735
 7615SOL    HW234877   6.176   5.132   0.639
 7616SOL     OW34878   6.395   3.728   0.502
 7616SOL    HW134879   6.435   3.819   0.493
 7616SOL    HW234880   6.295   3.736   0.508
 7617SOL     OW34881   5.783   4.700   1.264
 7617SOL    HW134882   5.872   4.655   1.250
 7617SOL    HW234883   5.710   4.635   1.245
 7618SOL     OW34884   7.111   4.723   0.190
 7618SOL    HW134885   7.048   4.647   0.203
 7618SOL    HW234886   7.159   4.741   0.276
 7619SOL     OW34887   7.052   5.141   0.953
 7619SOL    HW134888   6.993   5.147   1.033
 7619SOL    HW234889   7.037   5.053   0.907
 7620SOL     OW34890   7.253   5.438   0.572
 7620SOL    HW134891   7.212   5.415   0.484
 7620SOL    HW234892   7.235   5.364   0.637
 7621SOL     OW34893   6.184   4.453   0.270
 7621SOL    HW134894   6.208   4.522   0.202
 7621SOL    HW234895   6.106   4.486   0.324
 7622SOL     OW34896   6.867   4.069   0.944
 7622SOL    HW134897   6.781   4.019   0.931
 7622SOL    HW234898   6.929   4.015   1.000
 7623SOL     OW34899   7.162   5.386   0.307
 7623SOL    HW134900   7.251   5.432   0.310
 7623SOL    HW234901   7.141   5.362   0.212
 7624SOL     OW34902   6.393   4.329   1.465
 7624SOL    HW134903   6.346   4.326   1.554
 7624SOL    HW234904   6.342   4.274   1.399
 7625SOL     OW34905   6.980   4.193   1.674
 7625SOL    HW134906   6.960   4.236   1.762
 7625SOL    HW234907   7.058   4.131   1.683
 7626SOL     OW34908   6.559   4.614   1.572
 7626SOL    HW134909   6.605   4.530   1.543
 7626SOL    HW234910   6.503   4.648   1.497
 7627SOL     OW34911   6.577   4.134   1.242
 7627SOL    HW134912   6.500   4.168   1.296
 7627SOL    HW234913   6.543   4.083   1.163
 7628SOL     OW34914   6.627   4.425   0.429
 7628SOL    HW134915   6.653   4.421   0.525
 7628SOL    HW234916   6.542   4.374   0.415
 7629SOL     OW34917   5.662   4.535   0.789
 7629SOL    HW134918   5.761   4.523   0.798
 7629SOL    HW234919   5.638   4.630   0.810
 7630SOL     OW34920   6.451   4.072   0.195
 7630SOL    HW134921   6.510   4.135   0.146
 7630SOL    HW234922   6.470   3.978   0.166
 7631SOL     OW34923   7.305   4.309   1.831
 7631SOL    HW134924   7.279   4.398   1.795
 7631SOL    HW234925   7.303   4.241   1.758
 7632SOL     OW34926   6.948   4.868   0.545
 7632SOL    HW134927   7.031   4.839   0.497
 7632SOL    HW234928   6.899   4.935   0.489
 7633SOL     OW34929   6.136   3.920   0.885
 7633SOL    HW134930   6.131   3.915   0.985
 7633SOL    HW234931   6.138   4.016   0.856
 7634SOL     OW34932   6.594   5.180   0.477
 7634SOL    HW134933   6.548   5.252   0.425
 7634SOL    HW234934   6.590   5.200   0.575
 7635SOL     OW34935   5.937   5.525   0.853
 7635SOL    HW134936   5.987   5.439   0.859
 7635SOL    HW234937   6.002   5.602   0.850
 7636SOL     OW34938   7.381   4.790   0.873
 7636SOL    HW134939   7.319   4.775   0.797
 7636SOL    HW234940   7.329   4.801   0.958
 7637SOL     OW34941   6.813   5.274   1.506
 7637SOL    HW134942   6.819   5.197   1.570
 7637SOL    HW234943   6.761   5.248   1.426
 7638SOL     OW34944   5.907   4.667   0.242
 7638SOL    HW134945   5.989   4.706   0.200
 7638SOL    HW234946   5.880   4.585   0.193
 7639SOL     OW34947   7.044   4.459   0.728
 7639SOL    HW134948   7.039   4.394   0.803
 7639SOL    HW234949   7.124   4.518   0.741
 7640SOL     OW34950   6.047   4.990   1.727
 7640SOL    HW134951   5.997   4.991   1.641
 7640SOL    HW234952   5.984   4.972   1.803
 7641SOL     OW34953   6.697   5.500   0.237
 7641SOL    HW134954   6.637   5.438   0.287
 7641SOL    HW234955   6.728   5.456   0.152
 7642SOL     OW34956   5.788   4.009   1.498
 7642SOL    HW134957   5.708   4.069   1.485
 7642SOL    HW234958   5.778   3.960   1.584
 7643SOL     OW34959   7.218   5.101   0.081
 7643SOL    HW134960   7.186   5.195   0.071
 7643SOL    HW234961   7.142   5.038   0.069
 7644SOL     OW34962   6.050   5.467   0.323
 7644SOL    HW134963   6.083   5.506   0.409
 7644SOL    HW234964   6.126   5.460   0.258
 7645SOL     OW34965   6.986   3.831   0.426
 7645SOL    HW134966   6.962   3.794   0.336
 7645SOL    HW234967   7.085   3.847   0.430
 7646SOL     OW34968   5.835   5.509   1.241
 7646SOL    HW134969   5.892   5.444   1.291
 7646SOL    HW234970   5.819   5.476   1.148
 7647SOL     OW34971   6.526   5.422   0.904
 7647SOL    HW134972   6.606   5.365   0.925
 7647SOL    HW234973   6.477   5.382   0.827
 7648SOL     OW34974   5.968   4.424   0.480
 7648SOL    HW134975   6.013   4.334   0.477
 7648SOL    HW234976   5.874   4.413   0.513
 7649SOL     OW34977   7.133   3.946   1.729
 7649SOL    HW134978   7.128   3.983   1.821
 7649SOL    HW234979   7.061   3.877   1.717
 7650SOL     OW34980   6.937   4.314   1.433
 7650SOL    HW134981   6.965   4.271   1.518
 7650SOL    HW234982   6.962   4.410   1.434
 7651SOL     OW34983   6.389   5.126   0.924
 7651SOL    HW134984   6.479   5.140   0.882
 7651SOL    HW234985   6.318   5.128   0.853
 7652SOL     OW34986   6.508   4.227   0.899
 7652SOL    HW134987   6.483   4.218   0.803
 7652SOL    HW234988   6.556   4.145   0.930
 7653SOL     OW34989   6.125   3.788   0.512
 7653SOL    HW134990   6.044   3.789   0.570
 7653SOL    HW234991   6.128   3.871   0.457
 7654SOL     OW34992   7.020   4.912   0.041
 7654SOL    HW134993   7.052   4.836   0.098
 7654SOL    HW234994   6.928   4.939   0.071
 7655SOL     OW34995   6.521   3.960   0.480
 7655SOL    HW134996   6.473   4.001   0.402
 7655SOL    HW234997   6.620   3.958   0.461
 7656SOL     OW34998   6.662   4.407   1.464
 7656SOL    HW134999   6.582   4.346   1.467
 7656SOL    HW235000   6.743   4.354   1.440
 7657SOL     OW35001   6.813   5.294   0.793
 7657SOL    HW135002   6.834   5.368   0.728
 7657SOL    HW235003   6.881   5.294   0.866
 7658SOL     OW35004   6.045   4.876   0.741
 7658SOL    HW135005   5.974   4.849   0.806
 7658SOL    HW235006   6.019   4.848   0.648
 7659SOL     OW35007   6.857   5.521   0.591
 7659SOL    HW135008   6.901   5.585   0.527
 7659SOL    HW235009   6.807   5.573   0.661
 7660SOL     OW35010   6.618   4.273   0.016
 7660SOL    HW135011   6.577   4.355  -0.023
 7660SOL    HW235012   6.682   4.299   0.089
 7661SOL     OW35013   5.664   4.280   1.386
 7661SOL    HW135014   5.756   4.279   1.345
 7661SOL    HW235015   5.658   4.354   1.453
 7662SOL     OW35016   6.147   3.946   1.147
 7662SOL    HW135017   6.185   3.862   1.184
 7662SOL    HW235018   6.059   3.965   1.191
 7663SOL     OW35019   6.452   4.178   0.642
 7663SOL    HW135020   6.420   4.250   0.580
 7663SOL    HW235021   6.476   4.097   0.589
 7664SOL     OW35022   6.603   3.763   0.753
 7664SOL    HW135023   6.531   3.768   0.684
 7664SOL    HW235024   6.579   3.694   0.822
 7665SOL     OW35025   7.015   4.897   0.867
 7665SOL    HW135026   6.960   4.813   0.860
 7665SOL    HW235027   7.041   4.926   0.775
 7666SOL     OW35028   7.052   4.314   0.992
 7666SOL    HW135029   7.022   4.219   0.999
 7666SOL    HW235030   7.125   4.330   1.058
 7667SOL     OW35031   7.443   4.557   0.377
 7667SOL    HW135032   7.485   4.493   0.441
 7667SOL    HW235033   7.405   4.506   0.299
 7668SOL     OW35034   6.074   5.109   0.174
 7668SOL    HW135035   5.987   5.094   0.221
 7668SOL    HW235036   6.057   5.135   0.079
 7669SOL     OW35037   7.250   5.004   0.657
 7669SOL    HW135038   7.349   5.012   0.671
 7669SOL    HW235039   7.205   5.088   0.688
 7670SOL     OW35040   6.976   4.299   0.078
 7670SOL    HW135041   6.922   4.278   0.159
 7670SOL    HW235042   7.067   4.258   0.087
 7671SOL     OW35043   6.113   3.980   0.328
 7671SOL    HW135044   6.140   3.921   0.253
 7671SOL    HW235045   6.113   4.075   0.297
 7672SOL     OW35046   7.178   5.353   1.625
 7672SOL    HW135047   7.205   5.387   1.535
 7672SOL    HW235048   7.257   5.315   1.671
 7673SOL     OW35049   7.224   4.823   1.079
 7673SOL    HW135050   7.229   4.904   1.138
 7673SOL    HW235051   7.138   4.825   1.028
 7674SOL     OW35052   6.566   4.840   1.719
 7674SOL    HW135053   6.467   4.846   1.729
 7674SOL    HW235054   6.589   4.760   1.663
 7675SOL     OW35055   6.291   4.774   0.368
 7675SOL    HW135056   6.277   4.781   0.467
 7675SOL    HW235057   6.375   4.723   0.350
 7676SOL     OW35058   5.996   4.537   1.251
 7676SOL    HW135059   6.082   4.549   1.301
 7676SOL    HW235060   5.954   4.450   1.278
 7677SOL     OW35061   6.860   4.110   1.262
 7677SOL    HW135062   6.881   4.184   1.326
 7677SOL    HW235063   6.771   4.127   1.219
 7678SOL     OW35064   5.650   5.288   1.331
 7678SOL    HW135065   5.604   5.370   1.297
 7678SOL    HW235066   5.748   5.307   1.340
 7679SOL     OW35067   5.953   4.824   0.501
 7679SOL    HW135068   5.946   4.907   0.445
 7679SOL    HW235069   5.957   4.744   0.441
 7680SOL     OW35070   6.152   4.261   0.865
 7680SOL    HW135071   6.164   4.327   0.791
 7680SOL    HW235072   6.198   4.295   0.948
 7681SOL     OW35073   6.838   5.072   0.388
 7681SOL    HW135074   6.888   5.149   0.428
 7681SOL    HW235075   6.743   5.074   0.420
 7682SOL     OW35076   6.858   5.169   1.142
 7682SOL    HW135077   6.905   5.182   1.229
 7682SOL    HW235078   6.792   5.095   1.151
 7683SOL     OW35079   7.168   4.363   0.472
 7683SOL    HW135080   7.137   4.424   0.545
 7683SOL    HW235081   7.218   4.415   0.403
 7684SOL     OW35082   5.988   4.475   1.598
 7684SOL    HW135083   6.056   4.530   1.551
 7684SOL    HW235084   6.028   4.387   1.625
 7685SOL     OW35085   6.159   4.594   1.029
 7685SOL    HW135086   6.203   4.683   1.020
 7685SOL    HW235087   6.096   4.594   1.106
 7686SOL     OW35088   6.946   4.586   1.045
 7686SOL    HW135089   6.871   4.586   0.979
 7686SOL    HW235090   6.983   4.494   1.054
 7687SOL     OW35091   6.795   4.249   0.275
 7687SOL    HW135092   6.808   4.165   0.329
 7687SOL    HW235093   6.766   4.323   0.335
 7688SOL     OW35094   5.893   3.937   1.231
 7688SOL    HW135095   5.870   3.974   1.321
 7688SOL    HW235096   5.863   3.842   1.225
 7689SOL     OW35097   5.623   5.034   1.282
 7689SOL    HW135098   5.676   4.985   1.350
 7689SOL    HW235099   5.645   5.132   1.287
 7690SOL     OW35100   6.318   4.358   1.064
 7690SOL    HW135101   6.377   4.332   0.988
 7690SOL    HW235102   6.290   4.454   1.053
 7691SOL     OW35103   5.893   3.787   0.618
 7691SOL    HW135104   5.882   3.881   0.651
 7691SOL    HW235105   5.888   3.724   0.695
 7692SOL     OW35106   7.208   4.091   0.374
 7692SOL    HW135107   7.210   4.015   0.438
 7692SOL    HW235108   7.160   4.168   0.414
 7693SOL     OW35109   6.609   4.490   0.966
 7693SOL    HW135110   6.624   4.511   1.062
 7693SOL    HW235111   6.579   4.395   0.957
 7694SOL     OW35112   7.126   3.998   0.125
 7694SOL    HW135113   7.065   3.923   0.148
 7694SOL    HW235114   7.148   4.050   0.208
 7695SOL     OW35115   6.889   4.562   0.042
 7695SOL    HW135116   6.923   4.469   0.057
 7695SOL    HW235117   6.907   4.589  -0.053
 7696SOL     OW35118   6.654   5.057   0.849
 7696SOL    HW135119   6.661   4.973   0.794
 7696SOL    HW235120   6.716   5.126   0.813
 7697SOL     OW35121   5.905   4.534   0.949
 7697SOL    HW135122   5.998   4.570   0.954
 7697SOL    HW235123   5.899   4.449   1.001
 7698SOL     OW35124   5.925   4.233   1.006
 7698SOL    HW135125   5.873   4.150   0.989
 7698SOL    HW235126   6.002   4.238   0.942
 7699SOL     OW35127   6.724   4.104   1.678
 7699SOL    HW135128   6.679   4.167   1.742
 7699SOL    HW235129   6.817   4.135   1.661
 7700SOL     OW35130   6.746   3.931   1.477
 7700SOL    HW135131   6.746   3.995   1.554
 7700SOL    HW235132   6.774   3.979   1.394
 7701SOL     OW35133   5.594   5.050   0.200
 7701SOL    HW135134   5.501   5.071   0.169
 7701SOL    HW235135   5.604   4.951   0.213
 7702SOL     OW35136   5.674   5.525   0.927
 7702SOL    HW135137   5.632   5.439   0.900
 7702SOL    HW235138   5.768   5.528   0.893
 7703SOL     OW35139   6.090   5.292   0.910
 7703SOL    HW135140   6.156   5.366   0.919
 7703SOL    HW235141   6.134   5.213   0.868
 7704SOL     OW35142   6.588   4.520   1.238
 7704SOL    HW135143   6.629   4.488   1.324
 7704SOL    HW235144   6.492   4.493   1.235
 7705SOL     OW35145   5.626   4.268   1.114
 7705SOL    HW135146   5.711   4.235   1.073
 7705SOL    HW235147   5.639   4.283   1.212
 7706SOL     OW35148   5.775   4.244   1.722
 7706SOL    HW135149   5.834   4.204   1.652
 7706SOL    HW235150   5.717   4.315   1.681
 7707SOL     OW35151   6.401   4.296   0.325
 7707SOL    HW135152   6.408   4.207   0.279
 7707SOL    HW235153   6.307   4.330   0.317
 7708SOL     OW35154   7.243   4.328   1.206
 7708SOL    HW135155   7.205   4.259   1.268
 7708SOL    HW235156   7.325   4.292   1.162
 7709SOL     OW35157   6.257   4.188   1.269
 7709SOL    HW135158   6.223   4.099   1.239
 7709SOL    HW235159   6.283   4.242   1.189
 7710SOL     OW35160   6.059   4.224   0.191
 7710SOL    HW135161   6.120   4.304   0.195
 7710SOL    HW235162   5.964   4.255   0.198
 7711SOL     OW35163   5.745   4.861   1.466
 7711SOL    HW135164   5.767   4.800   1.542
 7711SOL    HW235165   5.755   4.812   1.380
 7712SOL     OW35166   6.888   4.579   0.309
 7712SOL    HW135167   6.802   4.548   0.351
 7712SOL    HW235168   6.884   4.565   0.210
 7713SOL     OW35169   7.345   5.471   1.154
 7713SOL    HW135170   7.406   5.501   1.081
 7713SOL    HW235171   7.307   5.382   1.132
 7714SOL     OW35172   6.838   5.455   1.128
 7714SOL    HW135173   6.922   5.460   1.074
 7714SOL    HW235174   6.815   5.359   1.146
 7715SOL     OW35175   5.669   4.982   1.022
 7715SOL    HW135176   5.664   4.981   1.122
 7715SOL    HW235177   5.586   4.941   0.984
 7716SOL     OW35178   6.274   5.386   1.716
 7716SOL    HW135179   6.218   5.467   1.725
 7716SOL    HW235180   6.326   5.390   1.630
 7717SOL     OW35181   6.489   3.810   0.133
 7717SOL    HW135182   6.540   3.811   0.047
 7717SOL    HW235183   6.545   3.768   0.204
 7718SOL     OW35184   7.312   3.859   0.523
 7718SOL    HW135185   7.385   3.842   0.456
 7718SOL    HW235186   7.281   3.772   0.561
 7719SOL     OW35187   6.974   5.297   0.477
 7719SOL    HW135188   7.041   5.309   0.403
 7719SOL    HW235189   6.934   5.386   0.500
 7720SOL     OW35190   6.866   4.651   0.672
 7720SOL    HW135191   6.926   4.570   0.674
 7720SOL    HW235192   6.906   4.720   0.612
 7721SOL     OW35193   6.258   5.340   0.154
 7721SOL    HW135194   6.267   5.350   0.055
 7721SOL    HW235195   6.218   5.251   0.175
 7722SOL     OW35196   7.236   5.444   1.394
 7722SOL    HW135197   7.289   5.454   1.310
 7722SOL    HW235198   7.209   5.534   1.428
 7723SOL     OW35199   7.427   3.899   0.963
 7723SOL    HW135200   7.466   3.814   0.927
 7723SOL    HW235201   7.329   3.901   0.944
 7724SOL     OW35202   5.849   4.050   0.720
 7724SOL    HW135203   5.770   4.101   0.686
 7724SOL    HW235204   5.840   4.035   0.818
 7725SOL     OW35205   6.780   5.336   0.031
 7725SOL    HW135206   6.786   5.243   0.068
 7725SOL    HW235207   6.721   5.336  -0.049
 7726SOL     OW35208   6.408   4.726   1.372
 7726SOL    HW135209   6.448   4.725   1.280
 7726SOL    HW235210   6.418   4.818   1.412
 7727SOL     OW35211   6.502   4.634   0.291
 7727SOL    HW135212   6.565   4.672   0.223
 7727SOL    HW235213   6.542   4.551   0.330
 7728SOL     OW35214   7.090   5.331   0.044
 7728SOL    HW135215   6.998   5.368   0.051
 7728SOL    HW235216   7.128   5.351  -0.046
 7729SOL     OW35217   7.200   5.016   1.289
 7729SOL    HW135218   7.260   5.019   1.369
 7729SOL    HW235219   7.125   5.080   1.302
 7730SOL     OW35220   6.625   4.822   0.696
 7730SOL    HW135221   6.555   4.775   0.750
 7730SOL    HW235222   6.684   4.754   0.653
 7731SOL     OW35223   6.600   3.960   0.971
 7731SOL    HW135224   6.592   3.924   0.878
 7731SOL    HW235225   6.598   3.884   1.036
 7732SOL     OW35226   6.176   5.211   0.491
 7732SOL    HW135227   6.218   5.153   0.421
 7732SOL    HW235228   6.132   5.290   0.447
 7733SOL     OW35229   7.295   4.109   1.381
 7733SOL    HW135230   7.368   4.178   1.385
 7733SOL    HW235231   7.323   4.034   1.322
 7734SOL     OW35232   5.841   5.072   0.290
 7734SOL    HW135233   5.745   5.073   0.263
 7734SOL    HW235234   5.853   5.125   0.374
 7735SOL     OW35235   5.661   4.069   0.033
 7735SOL    HW135236   5.569   4.041   0.004
 7735SOL    HW235237   5.692   4.146  -0.023
 7736SOL     OW35238   5.658   3.890   0.318
 7736SOL    HW135239   5.641   3.973   0.264
 7736SOL    HW235240   5.748   3.853   0.296
 7737SOL     OW35241   6.769   5.059   0.119
 7737SOL    HW135242   6.670   5.048   0.121
 7737SOL    HW235243   6.803   5.074   0.212
 7738SOL     OW35244   6.199   4.566   1.431
 7738SOL    HW135245   6.255   4.647   1.414
 7738SOL    HW235246   6.258   4.486   1.434
 7739SOL     OW35247   7.079   5.491   0.959
 7739SOL    HW135248   7.112   5.555   0.890
 7739SOL    HW235249   7.145   5.485   1.034
 7740SOL     OW35250   5.976   5.465   1.560
 7740SOL    HW135251   5.885   5.506   1.558
 7740SOL    HW235252   5.969   5.371   1.592
 7741SOL     OW35253   6.811   4.049   0.449
 7741SOL    HW135254   6.876   3.975   0.438
 7741SOL    HW235255   6.831   4.099   0.533
 7742SOL     OW35256   6.180   4.469   0.652
 7742SOL    HW135257   6.230   4.554   0.633
 7742SOL    HW235258   6.092   4.471   0.604
 7743SOL     OW35259   7.363   4.066   1.642
 7743SOL    HW135260   7.346   4.097   1.548
 7743SOL    HW235261   7.279   4.029   1.680
 7744SOL     OW35262   6.445   5.098   0.016
 7744SOL    HW135263   6.399   5.113   0.104
 7744SOL    HW235264   6.489   5.183  -0.014
 7745SOL     OW35265   6.247   5.514   0.953
 7745SOL    HW135266   6.201   5.602   0.940
 7745SOL    HW235267   6.346   5.526   0.946
 7746SOL     OW35268   6.445   4.680   0.861
 7746SOL    HW135269   6.499   4.611   0.909
 7746SOL    HW235270   6.413   4.749   0.927
 7747SOL     OW35271   6.669   4.708   0.087
 7747SOL    HW135272   6.646   4.761   0.005
 7747SOL    HW235273   6.750   4.652   0.068
 7748SOL     OW35274   7.447   5.293   0.851
 7748SOL    HW135275   7.376   5.281   0.781
 7748SOL    HW235276   7.448   5.214   0.911
 7749SOL     OW35277   5.807   5.038   1.844
 7749SOL    HW135278   5.742   4.965   1.823
 7749SOL    HW235279   5.811   5.052   1.942
 7750SOL     OW35280   5.665   4.964   0.653
 7750SOL    HW135281   5.664   4.917   0.741
 7750SOL    HW235282   5.747   4.936   0.602
 7751SOL     OW35283   6.258   5.115   1.624
 7751SOL    HW135284   6.180   5.065   1.662
 7751SOL    HW235285   6.255   5.210   1.655
 7752SOL     OW35286   7.410   3.916   1.227
 7752SOL    HW135287   7.406   3.826   1.271
 7752SOL    HW235288   7.413   3.905   1.128
 7753SOL     OW35289   6.014   4.148   0.520
 7753SOL    HW135290   6.044   4.076   0.458
 7753SOL    HW235291   5.975   4.108   0.603
 7754SOL     OW35292   7.291   5.211   1.104
 7754SOL    HW135293   7.198   5.186   1.077
 7754SOL    HW235294   7.317   5.161   1.186
 7755SOL     OW35295   5.903   4.271   1.280
 7755SOL    HW135296   5.941   4.212   1.352
 7755SOL    HW235297   5.943   4.245   1.192
 7756SOL     OW35298   6.398   5.310   0.687
 7756SOL    HW135299   6.430   5.320   0.593
 7756SOL    HW235300   6.319   5.248   0.689
 7757SOL     OW35301   7.010   3.938   1.112
 7757SOL    HW135302   7.062   3.873   1.167
 7757SOL    HW235303   6.961   4.001   1.173
 7758SOL     OW35304   6.587   3.758   1.154
 7758SOL    HW135305   6.524   3.686   1.123
 7758SOL    HW235306   6.680   3.722   1.154
 7759SOL     OW35307   6.356   5.054   0.301
 7759SOL    HW135308   6.310   4.967   0.318
 7759SOL    HW235309   6.447   5.051   0.342
 7760SOL     OW35310   6.938   3.776   0.168
 7760SOL    HW135311   6.973   3.735   0.084
 7760SOL    HW235312   6.848   3.738   0.188
 7761SOL     OW35313   6.886   4.177   0.691
 7761SOL    HW135314   6.827   4.257   0.695
 7761SOL    HW235315   6.901   4.142   0.784
 7762SOL     OW35316   7.179   3.945   0.882
 7762SOL    HW135317   7.095   3.944   0.936
 7762SOL    HW235318   7.181   4.028   0.826
 7763SOL     OW35319   5.625   4.801   0.300
 7763SOL    HW135320   5.724   4.790   0.291
 7763SOL    HW235321   5.585   4.715   0.332
 7764SOL     OW35322   6.461   5.370   0.337
 7764SOL    HW135323   6.384   5.335   0.283
 7764SOL    HW235324   6.429   5.441   0.399
 7765SOL     OW35325   6.155   4.999   3.027
 7765SOL    HW135326   6.062   4.992   2.990
 7765SOL    HW235327   6.166   5.088   3.071
 7766SOL     OW35328   7.341   4.331   2.093
 7766SOL    HW135329   7.329   4.318   1.994
 7766SOL    HW235330   7.311   4.250   2.142
 7767SOL     OW35331   6.354   4.868   2.885
 7767SOL    HW135332   6.276   4.885   2.945
 7767SOL    HW235333   6.388   4.955   2.849
 7768SOL     OW35334   5.921   5.159   2.923
 7768SOL    HW135335   5.843   5.128   2.870
 7768SOL    HW235336   5.979   5.217   2.866
 7769SOL     OW35337   6.024   4.116   3.361
 7769SOL    HW135338   6.106   4.060   3.370
 7769SOL    HW235339   5.943   4.058   3.365
 7770SOL     OW35340   7.189   4.171   2.599
 7770SOL    HW135341   7.115   4.217   2.549
 7770SOL    HW235342   7.240   4.239   2.652
 7771SOL     OW35343   6.713   5.065   3.552
 7771SOL    HW135344   6.760   5.065   3.640
 7771SOL    HW235345   6.665   4.978   3.541
 7772SOL     OW35346   5.826   4.815   2.748
 7772SOL    HW135347   5.840   4.731   2.800
 7772SOL    HW235348   5.771   4.879   2.803
 7773SOL     OW35349   7.428   5.491   2.221
 7773SOL    HW135350   7.482   5.462   2.301
 7773SOL    HW235351   7.458   5.581   2.192
 7774SOL     OW35352   7.275   4.646   2.474
 7774SOL    HW135353   7.370   4.617   2.482
 7774SOL    HW235354   7.267   4.711   2.399
 7775SOL     OW35355   6.879   4.952   3.285
 7775SOL    HW135356   6.916   4.879   3.227
 7775SOL    HW235357   6.931   4.957   3.370
 7776SOL     OW35358   7.111   4.723   2.052
 7776SOL    HW135359   7.048   4.647   2.065
 7776SOL    HW235360   7.159   4.741   2.138
 7777SOL     OW35361   6.773   5.516   3.478
 7777SOL    HW135362   6.797   5.576   3.402
 7777SOL    HW235363   6.780   5.421   3.448
 7778SOL     OW35364   5.903   3.975   3.663
 7778SOL    HW135365   5.974   4.046   3.669
 7778SOL    HW235366   5.815   4.014   3.691
 7779SOL     OW35367   7.052   5.141   2.815
 7779SOL    HW135368   6.993   5.147   2.895
 7779SOL    HW235369   7.037   5.053   2.769
 7780SOL     OW35370   6.980   4.193   3.536
 7780SOL    HW135371   6.960   4.236   3.624
 7780SOL    HW235372   7.058   4.131   3.545
 7781SOL     OW35373   6.813   5.274   3.368
 7781SOL    HW135374   6.819   5.197   3.432
 7781SOL    HW235375   6.761   5.248   3.288
 7782SOL     OW35376   6.047   4.990   3.589
 7782SOL    HW135377   5.997   4.991   3.503
 7782SOL    HW235378   5.984   4.972   3.665
 7783SOL     OW35379   6.697   5.500   2.099
 7783SOL    HW135380   6.637   5.438   2.149
 7783SOL    HW235381   6.728   5.456   2.014
 7784SOL     OW35382   7.133   3.946   3.591
 7784SOL    HW135383   7.128   3.983   3.683
 7784SOL    HW235384   7.061   3.877   3.579
 7785SOL     OW35385   6.367   3.988   3.611
 7785SOL    HW135386   6.434   3.927   3.654
 7785SOL    HW235387   6.294   4.007   3.676
 7786SOL     OW35388   6.937   4.314   3.295
 7786SOL    HW135389   6.965   4.271   3.380
 7786SOL    HW235390   6.962   4.410   3.296
 7787SOL     OW35391   6.813   5.294   2.655
 7787SOL    HW135392   6.834   5.368   2.590
 7787SOL    HW235393   6.881   5.294   2.728
 7788SOL     OW35394   6.147   3.946   3.009
 7788SOL    HW135395   6.185   3.862   3.046
 7788SOL    HW235396   6.059   3.965   3.053
 7789SOL     OW35397   6.452   4.178   2.504
 7789SOL    HW135398   6.420   4.250   2.442
 7789SOL    HW235399   6.476   4.097   2.451
 7790SOL     OW35400   6.603   3.763   2.615
 7790SOL    HW135401   6.531   3.768   2.546
 7790SOL    HW235402   6.579   3.694   2.684
 7791SOL     OW35403   7.015   4.897   2.729
 7791SOL    HW135404   6.960   4.813   2.722
 7791SOL    HW235405   7.041   4.926   2.637
 7792SOL     OW35406   7.250   5.004   2.519
 7792SOL    HW135407   7.349   5.012   2.533
 7792SOL    HW235408   7.205   5.088   2.550
 7793SOL     OW35409   6.976   4.299   1.940
 7793SOL    HW135410   6.922   4.278   2.021
 7793SOL    HW235411   7.067   4.258   1.949
 7794SOL     OW35412   7.340   4.947   3.450
 7794SOL    HW135413   7.431   4.908   3.437
 7794SOL    HW235414   7.348   5.043   3.474
 7795SOL     OW35415   6.650   5.071   3.202
 7795SOL    HW135416   6.570   5.048   3.257
 7795SOL    HW235417   6.733   5.045   3.251
 7796SOL     OW35418   7.178   5.353   3.487
 7796SOL    HW135419   7.205   5.387   3.397
 7796SOL    HW235420   7.257   5.315   3.533
 7797SOL     OW35421   6.501   3.813   3.264
 7797SOL    HW135422   6.526   3.793   3.169
 7797SOL    HW235423   6.573   3.869   3.306
 7798SOL     OW35424   6.291   4.774   2.230
 7798SOL    HW135425   6.277   4.781   2.329
 7798SOL    HW235426   6.375   4.723   2.212
 7799SOL     OW35427   6.838   5.072   2.250
 7799SOL    HW135428   6.888   5.149   2.290
 7799SOL    HW235429   6.743   5.074   2.282
 7800SOL     OW35430   5.988   4.475   3.460
 7800SOL    HW135431   6.056   4.530   3.413
 7800SOL    HW235432   6.028   4.387   3.487
 7801SOL     OW35433   7.173   4.503   3.532
 7801SOL    HW135434   7.081   4.541   3.527
 7801SOL    HW235435   7.233   4.550   3.467
 7802SOL     OW35436   6.599   3.829   3.632
 7802SOL    HW135437   6.605   3.914   3.580
 7802SOL    HW235438   6.631   3.753   3.575
 7803SOL     OW35439   6.090   3.774   3.602
 7803SOL    HW135440   6.048   3.717   3.532
 7803SOL    HW235441   6.024   3.843   3.634
 7804SOL     OW35442   6.159   4.594   2.891
 7804SOL    HW135443   6.203   4.683   2.882
 7804SOL    HW235444   6.096   4.594   2.968
 7805SOL     OW35445   6.946   4.586   2.907
 7805SOL    HW135446   6.871   4.586   2.841
 7805SOL    HW235447   6.983   4.494   2.916
 7806SOL     OW35448   6.795   4.249   2.137
 7806SOL    HW135449   6.808   4.165   2.191
 7806SOL    HW235450   6.766   4.323   2.197
 7807SOL     OW35451   5.623   5.034   3.144
 7807SOL    HW135452   5.676   4.985   3.212
 7807SOL    HW235453   5.645   5.132   3.149
 7808SOL     OW35454   5.936   4.622   3.666
 7808SOL    HW135455   6.012   4.666   3.714
 7808SOL    HW235456   5.971   4.575   3.584
 7809SOL     OW35457   6.724   4.104   3.540
 7809SOL    HW135458   6.679   4.167   3.604
 7809SOL    HW235459   6.817   4.135   3.523
 7810SOL     OW35460   6.746   3.931   3.339
 7810SOL    HW135461   6.746   3.995   3.416
 7810SOL    HW235462   6.774   3.979   3.256
 7811SOL     OW35463   5.594   5.050   2.062
 7811SOL    HW135464   5.501   5.071   2.031
 7811SOL    HW235465   5.604   4.951   2.075
 7812SOL     OW35466   6.588   4.520   3.100
 7812SOL    HW135467   6.629   4.488   3.186
 7812SOL    HW235468   6.492   4.493   3.097
 7813SOL     OW35469   5.775   4.244   3.584
 7813SOL    HW135470   5.834   4.204   3.514
 7813SOL    HW235471   5.717   4.315   3.543
 7814SOL     OW35472   6.955   4.674   3.522
 7814SOL    HW135473   6.994   4.763   3.542
 7814SOL    HW235474   6.965   4.654   3.425
 7815SOL     OW35475   6.257   4.188   3.131
 7815SOL    HW135476   6.223   4.099   3.101
 7815SOL    HW235477   6.283   4.242   3.051
 7816SOL     OW35478   6.059   4.224   2.053
 7816SOL    HW135479   6.120   4.304   2.057
 7816SOL    HW235480   5.964   4.255   2.060
 7817SOL     OW35481   6.933   4.783   3.096
 7817SOL    HW135482   6.957   4.720   3.022
 7817SOL    HW235483   6.843   4.823   3.078
 7818SOL     OW35484   6.838   5.455   2.990
 7818SOL    HW135485   6.922   5.460   2.936
 7818SOL    HW235486   6.815   5.359   3.008
 7819SOL     OW35487   5.669   4.982   2.884
 7819SOL    HW135488   5.664   4.981   2.984
 7819SOL    HW235489   5.586   4.941   2.846
 7820SOL     OW35490   6.274   5.386   3.578
 7820SOL    HW135491   6.218   5.467   3.587
 7820SOL    HW235492   6.326   5.390   3.492
 7821SOL     OW35493   5.716   5.518   3.713
 7821SOL    HW135494   5.675   5.444   3.766
 7821SOL    HW235495   5.780   5.569   3.771
 7822SOL     OW35496   6.866   4.651   2.534
 7822SOL    HW135497   6.926   4.570   2.536
 7822SOL    HW235498   6.906   4.720   2.474
 7823SOL     OW35499   6.416   4.997   3.284
 7823SOL    HW135500   6.411   5.030   3.379
 7823SOL    HW235501   6.330   5.016   3.238
 7824SOL     OW35502   6.258   5.340   2.016
 7824SOL    HW135503   6.267   5.350   1.917
 7824SOL    HW235504   6.218   5.251   2.037
 7825SOL     OW35505   7.236   5.444   3.256
 7825SOL    HW135506   7.289   5.454   3.172
 7825SOL    HW235507   7.209   5.534   3.290
 7826SOL     OW35508   5.849   4.050   2.582
 7826SOL    HW135509   5.770   4.101   2.548
 7826SOL    HW235510   5.840   4.035   2.680
 7827SOL     OW35511   6.408   4.726   3.234
 7827SOL    HW135512   6.448   4.725   3.142
 7827SOL    HW235513   6.418   4.818   3.274
 7828SOL     OW35514   7.200   5.016   3.151
 7828SOL    HW135515   7.260   5.019   3.231
 7828SOL    HW235516   7.125   5.080   3.164
 7829SOL     OW35517   7.026   4.580   3.260
 7829SOL    HW135518   6.969   4.632   3.197
 7829SOL    HW235519   7.122   4.592   3.236
 7830SOL     OW35520   5.976   5.465   3.422
 7830SOL    HW135521   5.885   5.506   3.420
 7830SOL    HW235522   5.969   5.371   3.454
 7831SOL     OW35523   7.260   4.607   3.116
 7831SOL    HW135524   7.233   4.518   3.079
 7831SOL    HW235525   7.261   4.675   3.043
 7832SOL     OW35526   6.180   4.469   2.514
 7832SOL    HW135527   6.230   4.554   2.495
 7832SOL    HW235528   6.092   4.471   2.466
 7833SOL     OW35529   7.316   4.658   3.379
 7833SOL    HW135530   7.354   4.749   3.394
 7833SOL    HW235531   7.308   4.641   3.280
 7834SOL     OW35532   6.247   5.514   2.815
 7834SOL    HW135533   6.201   5.602   2.802
 7834SOL    HW235534   6.346   5.526   2.808
 7835SOL     OW35535   7.447   5.293   2.713
 7835SOL    HW135536   7.376   5.281   2.643
 7835SOL    HW235537   7.448   5.214   2.773
 7836SOL     OW35538   6.258   5.115   3.486
 7836SOL    HW135539   6.180   5.065   3.524
 7836SOL    HW235540   6.255   5.210   3.517
 7837SOL     OW35541   6.014   4.148   2.382
 7837SOL    HW135542   6.044   4.076   2.320
 7837SOL    HW235543   5.975   4.108   2.465
 7838SOL     OW35544   5.903   4.271   3.142
 7838SOL    HW135545   5.941   4.212   3.214
 7838SOL    HW235546   5.943   4.245   3.054
 7839SOL     OW35547   6.587   3.758   3.016
 7839SOL    HW135548   6.524   3.686   2.985
 7839SOL    HW235549   6.680   3.722   3.016
 7840SOL     OW35550   5.625   4.801   2.162
 7840SOL    HW135551   5.724   4.790   2.153
 7840SOL    HW235552   5.585   4.715   2.194
 7841SOL     OW35553   5.811   3.999   4.720
 7841SOL    HW135554   5.846   3.982   4.812
 7841SOL    HW235555   5.723   3.954   4.708
 7842SOL     OW35556   6.272   4.885   5.527
 7842SOL    HW135557   6.332   4.964   5.541
 7842SOL    HW235558   6.186   4.916   5.486
 7843SOL     OW35559   7.046   5.229   5.063
 7843SOL    HW135560   7.070   5.323   5.089
 7843SOL    HW235561   7.030   5.175   5.145
 7844SOL     OW35562   5.817   5.437   4.207
 7844SOL    HW135563   5.851   5.514   4.261
 7844SOL    HW235564   5.861   5.437   4.117
 7845SOL     OW35565   5.826   4.815   4.610
 7845SOL    HW135566   5.840   4.731   4.662
 7845SOL    HW235567   5.771   4.879   4.665
 7846SOL     OW35568   6.192   4.688   3.847
 7846SOL    HW135569   6.199   4.772   3.793
 7846SOL    HW235570   6.238   4.701   3.935
 7847SOL     OW35571   6.395   3.728   4.226
 7847SOL    HW135572   6.435   3.819   4.217
 7847SOL    HW235573   6.295   3.736   4.232
 7848SOL     OW35574   7.111   4.723   3.914
 7848SOL    HW135575   7.048   4.647   3.927
 7848SOL    HW235576   7.159   4.741   4.000
 7849SOL     OW35577   6.773   5.516   5.340
 7849SOL    HW135578   6.797   5.576   5.264
 7849SOL    HW235579   6.780   5.421   5.310
 7850SOL     OW35580   5.903   3.975   5.525
 7850SOL    HW135581   5.974   4.046   5.531
 7850SOL    HW235582   5.815   4.014   5.553
 7851SOL     OW35583   7.052   5.141   4.677
 7851SOL    HW135584   6.993   5.147   4.757
 7851SOL    HW235585   7.037   5.053   4.631
 7852SOL     OW35586   6.184   4.453   3.994
 7852SOL    HW135587   6.208   4.522   3.926
 7852SOL    HW235588   6.106   4.486   4.048
 7853SOL     OW35589   7.162   5.386   4.031
 7853SOL    HW135590   7.251   5.432   4.034
 7853SOL    HW235591   7.141   5.362   3.936
 7854SOL     OW35592   6.980   4.193   5.398
 7854SOL    HW135593   6.960   4.236   5.486
 7854SOL    HW235594   7.058   4.131   5.407
 7855SOL     OW35595   6.577   4.134   4.966
 7855SOL    HW135596   6.500   4.168   5.020
 7855SOL    HW235597   6.543   4.083   4.887
 7856SOL     OW35598   6.627   4.425   4.153
 7856SOL    HW135599   6.653   4.421   4.249
 7856SOL    HW235600   6.542   4.374   4.139
 7857SOL     OW35601   6.813   5.274   5.230
 7857SOL    HW135602   6.819   5.197   5.294
 7857SOL    HW235603   6.761   5.248   5.150
 7858SOL     OW35604   7.044   4.459   4.452
 7858SOL    HW135605   7.039   4.394   4.527
 7858SOL    HW235606   7.124   4.518   4.465
 7859SOL     OW35607   6.047   4.990   5.451
 7859SOL    HW135608   5.997   4.991   5.365
 7859SOL    HW235609   5.984   4.972   5.527
 7860SOL     OW35610   5.788   4.009   5.222
 7860SOL    HW135611   5.708   4.069   5.209
 7860SOL    HW235612   5.778   3.960   5.308
 7861SOL     OW35613   6.986   3.831   4.150
 7861SOL    HW135614   6.962   3.794   4.060
 7861SOL    HW235615   7.085   3.847   4.154
 7862SOL     OW35616   5.835   5.509   4.965
 7862SOL    HW135617   5.892   5.444   5.015
 7862SOL    HW235618   5.819   5.476   4.872
 7863SOL     OW35619   5.968   4.424   4.204
 7863SOL    HW135620   6.013   4.334   4.201
 7863SOL    HW235621   5.874   4.413   4.237
 7864SOL     OW35622   7.133   3.946   5.453
 7864SOL    HW135623   7.128   3.983   5.545
 7864SOL    HW235624   7.061   3.877   5.441
 7865SOL     OW35625   6.474   5.238   4.919
 7865SOL    HW135626   6.451   5.213   4.825
 7865SOL    HW235627   6.535   5.169   4.958
 7866SOL     OW35628   6.389   5.126   4.648
 7866SOL    HW135629   6.479   5.140   4.606
 7866SOL    HW235630   6.318   5.128   4.577
 7867SOL     OW35631   6.508   4.227   4.623
 7867SOL    HW135632   6.483   4.218   4.527
 7867SOL    HW235633   6.556   4.145   4.654
 7868SOL     OW35634   6.857   5.521   4.315
 7868SOL    HW135635   6.901   5.585   4.251
 7868SOL    HW235636   6.807   5.573   4.385
 7869SOL     OW35637   5.664   4.280   5.110
 7869SOL    HW135638   5.756   4.279   5.069
 7869SOL    HW235639   5.658   4.354   5.177
 7870SOL     OW35640   6.074   5.109   3.898
 7870SOL    HW135641   5.987   5.094   3.945
 7870SOL    HW235642   6.057   5.135   3.803
 7871SOL     OW35643   7.250   5.004   4.381
 7871SOL    HW135644   7.349   5.012   4.395
 7871SOL    HW235645   7.205   5.088   4.412
 7872SOL     OW35646   6.113   3.980   4.052
 7872SOL    HW135647   6.140   3.921   3.977
 7872SOL    HW235648   6.113   4.075   4.021
 7873SOL     OW35649   7.340   4.947   5.312
 7873SOL    HW135650   7.431   4.908   5.299
 7873SOL    HW235651   7.348   5.043   5.336
 7874SOL     OW35652   7.178   5.353   5.349
 7874SOL    HW135653   7.205   5.387   5.259
 7874SOL    HW235654   7.257   5.315   5.395
 7875SOL     OW35655   6.860   4.110   4.986
 7875SOL    HW135656   6.881   4.184   5.050
 7875SOL    HW235657   6.771   4.127   4.943
 7876SOL     OW35658   6.152   4.261   4.589
 7876SOL    HW135659   6.164   4.327   4.515
 7876SOL    HW235660   6.198   4.295   4.672
 7877SOL     OW35661   6.599   3.829   5.494
 7877SOL    HW135662   6.605   3.914   5.442
 7877SOL    HW235663   6.631   3.753   5.437
 7878SOL     OW35664   6.090   3.774   5.464
 7878SOL    HW135665   6.048   3.717   5.394
 7878SOL    HW235666   6.024   3.843   5.496
 7879SOL     OW35667   6.159   4.594   4.753
 7879SOL    HW135668   6.203   4.683   4.744
 7879SOL    HW235669   6.096   4.594   4.830
 7880SOL     OW35670   5.893   3.937   4.955
 7880SOL    HW135671   5.870   3.974   5.045
 7880SOL    HW235672   5.863   3.842   4.949
 7881SOL     OW35673   6.318   4.358   4.788
 7881SOL    HW135674   6.377   4.332   4.712
 7881SOL    HW235675   6.290   4.454   4.777
 7882SOL     OW35676   7.314   4.659   5.578
 7882SOL    HW135677   7.268   4.652   5.489
 7882SOL    HW235678   7.252   4.703   5.644
 7883SOL     OW35679   5.893   3.787   4.342
 7883SOL    HW135680   5.882   3.881   4.375
 7883SOL    HW235681   5.888   3.724   4.419
 7884SOL     OW35682   7.208   4.091   4.098
 7884SOL    HW135683   7.210   4.015   4.162
 7884SOL    HW235684   7.160   4.168   4.138
 7885SOL     OW35685   6.566   5.297   5.424
 7885SOL    HW135686   6.546   5.341   5.336
 7885SOL    HW235687   6.605   5.206   5.408
 7886SOL     OW35688   7.445   5.242   5.329
 7886SOL    HW135689   7.459   5.269   5.234
 7886SOL    HW235690   7.528   5.264   5.382
 7887SOL     OW35691   7.126   3.998   3.849
 7887SOL    HW135692   7.065   3.923   3.872
 7887SOL    HW235693   7.148   4.050   3.932
 7888SOL     OW35694   5.905   4.534   4.673
 7888SOL    HW135695   5.998   4.570   4.678
 7888SOL    HW235696   5.899   4.449   4.725
 7889SOL     OW35697   6.724   4.104   5.402
 7889SOL    HW135698   6.679   4.167   5.466
 7889SOL    HW235699   6.817   4.135   5.385
 7890SOL     OW35700   6.746   3.931   5.201
 7890SOL    HW135701   6.746   3.995   5.278
 7890SOL    HW235702   6.774   3.979   5.118
 7891SOL     OW35703   5.674   5.525   4.651
 7891SOL    HW135704   5.632   5.439   4.624
 7891SOL    HW235705   5.768   5.528   4.617
 7892SOL     OW35706   6.955   4.674   5.384
 7892SOL    HW135707   6.994   4.763   5.404
 7892SOL    HW235708   6.965   4.654   5.287
 7893SOL     OW35709   5.838   5.288   5.468
 7893SOL    HW135710   5.808   5.345   5.544
 7893SOL    HW235711   5.831   5.191   5.494
 7894SOL     OW35712   6.257   4.188   4.993
 7894SOL    HW135713   6.223   4.099   4.963
 7894SOL    HW235714   6.283   4.242   4.913
 7895SOL     OW35715   6.274   5.386   5.440
 7895SOL    HW135716   6.218   5.467   5.449
 7895SOL    HW235717   6.326   5.390   5.354
 7896SOL     OW35718   6.974   5.297   4.201
 7896SOL    HW135719   7.041   5.309   4.127
 7896SOL    HW235720   6.934   5.386   4.224
 7897SOL     OW35721   6.258   5.340   3.878
 7897SOL    HW135722   6.267   5.350   3.779
 7897SOL    HW235723   6.218   5.251   3.899
 7898SOL     OW35724   6.502   4.634   4.015
 7898SOL    HW135725   6.565   4.672   3.947
 7898SOL    HW235726   6.542   4.551   4.054
 7899SOL     OW35727   7.090   5.331   3.768
 7899SOL    HW135728   6.998   5.368   3.775
 7899SOL    HW235729   7.128   5.351   3.678
 7900SOL     OW35730   5.958   5.012   5.214
 7900SOL    HW135731   5.945   5.105   5.180
 7900SOL    HW235732   5.874   4.960   5.201
 7901SOL     OW35733   7.200   5.016   5.013
 7901SOL    HW135734   7.260   5.019   5.093
 7901SOL    HW235735   7.125   5.080   5.026
 7902SOL     OW35736   6.176   5.211   4.215
 7902SOL    HW135737   6.218   5.153   4.145
 7902SOL    HW235738   6.132   5.290   4.171
 7903SOL     OW35739   7.295   4.109   5.105
 7903SOL    HW135740   7.368   4.178   5.109
 7903SOL    HW235741   7.323   4.034   5.046
 7904SOL     OW35742   5.841   5.072   4.014
 7904SOL    HW135743   5.745   5.073   3.987
 7904SOL    HW235744   5.853   5.125   4.098
 7905SOL     OW35745   5.661   4.069   3.757
 7905SOL    HW135746   5.569   4.041   3.728
 7905SOL    HW235747   5.692   4.146   3.701
 7906SOL     OW35748   5.658   3.890   4.042
 7906SOL    HW135749   5.641   3.973   3.988
 7906SOL    HW235750   5.748   3.853   4.020
 7907SOL     OW35751   6.302   4.289   5.432
 7907SOL    HW135752   6.321   4.354   5.506
 7907SOL    HW235753   6.362   4.209   5.441
 7908SOL     OW35754   7.036   4.944   5.357
 7908SOL    HW135755   7.027   4.934   5.456
 7908SOL    HW235756   7.132   4.937   5.331
 7909SOL     OW35757   5.976   5.465   5.284
 7909SOL    HW135758   5.885   5.506   5.282
 7909SOL    HW235759   5.969   5.371   5.316
 7910SOL     OW35760   7.260   4.607   4.978
 7910SOL    HW135761   7.233   4.518   4.941
 7910SOL    HW235762   7.261   4.675   4.905
 7911SOL     OW35763   6.811   4.049   4.173
 7911SOL    HW135764   6.876   3.975   4.162
 7911SOL    HW235765   6.831   4.099   4.257
 7912SOL     OW35766   7.363   4.066   5.366
 7912SOL    HW135767   7.346   4.097   5.272
 7912SOL    HW235768   7.279   4.029   5.404
 7913SOL     OW35769   6.258   5.115   5.348
 7913SOL    HW135770   6.180   5.065   5.386
 7913SOL    HW235771   6.255   5.210   5.379
 7914SOL     OW35772   6.014   4.148   4.244
 7914SOL    HW135773   6.044   4.076   4.182
 7914SOL    HW235774   5.975   4.108   4.327
 7915SOL     OW35775   7.291   5.211   4.828
 7915SOL    HW135776   7.198   5.186   4.801
 7915SOL    HW235777   7.317   5.161   4.910
 7916SOL     OW35778   7.010   3.938   4.836
 7916SOL    HW135779   7.062   3.873   4.891
 7916SOL    HW235780   6.961   4.001   4.897
 7917SOL     OW35781   6.587   3.758   4.878
 7917SOL    HW135782   6.524   3.686   4.847
 7917SOL    HW235783   6.680   3.722   4.878
 7918SOL     OW35784   6.938   3.776   3.892
 7918SOL    HW135785   6.973   3.735   3.808
 7918SOL    HW235786   6.848   3.738   3.912
 7919SOL     OW35787   6.886   4.177   4.415
 7919SOL    HW135788   6.827   4.257   4.419
 7919SOL    HW235789   6.901   4.142   4.508
 7920SOL     OW35790   7.179   3.945   4.606
 7920SOL    HW135791   7.095   3.944   4.660
 7920SOL    HW235792   7.181   4.028   4.550
 7921SOL     OW35793   5.811   3.999   6.582
 7921SOL    HW135794   5.846   3.982   6.674
 7921SOL    HW235795   5.723   3.954   6.570
 7922SOL     OW35796   6.155   4.999   6.751
 7922SOL    HW135797   6.062   4.992   6.714
 7922SOL    HW235798   6.166   5.088   6.795
 7923SOL     OW35799   7.141   5.235   6.289
 7923SOL    HW135800   7.084   5.219   6.370
 7923SOL    HW235801   7.082   5.245   6.209
 7924SOL     OW35802   6.721   4.427   6.303
 7924SOL    HW135803   6.778   4.505   6.278
 7924SOL    HW235804   6.661   4.453   6.379
 7925SOL     OW35805   6.354   4.868   6.609
 7925SOL    HW135806   6.276   4.885   6.669
 7925SOL    HW235807   6.388   4.955   6.573
 7926SOL     OW35808   6.271   4.736   6.251
 7926SOL    HW135809   6.340   4.720   6.321
 7926SOL    HW235810   6.198   4.793   6.289
 7927SOL     OW35811   5.921   5.159   6.647
 7927SOL    HW135812   5.843   5.128   6.594
 7927SOL    HW235813   5.979   5.217   6.590
 7928SOL     OW35814   6.024   4.116   7.085
 7928SOL    HW135815   6.106   4.060   7.094
 7928SOL    HW235816   5.943   4.058   7.089
 7929SOL     OW35817   7.189   4.171   6.323
 7929SOL    HW135818   7.115   4.217   6.273
 7929SOL    HW235819   7.240   4.239   6.376
 7930SOL     OW35820   5.817   5.437   6.069
 7930SOL    HW135821   5.851   5.514   6.123
 7930SOL    HW235822   5.861   5.437   5.979
 7931SOL     OW35823   5.816   5.158   6.124
 7931SOL    HW135824   5.790   5.254   6.124
 7931SOL    HW235825   5.745   5.104   6.169
 7932SOL     OW35826   5.826   4.815   6.472
 7932SOL    HW135827   5.840   4.731   6.524
 7932SOL    HW235828   5.771   4.879   6.527
 7933SOL     OW35829   6.206   5.510   7.025
 7933SOL    HW135830   6.114   5.493   7.060
 7933SOL    HW235831   6.234   5.602   7.051
 7934SOL     OW35832   6.192   4.688   5.709
 7934SOL    HW135833   6.199   4.772   5.655
 7934SOL    HW235834   6.238   4.701   5.797
 7935SOL     OW35835   5.708   4.367   6.149
 7935SOL    HW135836   5.663   4.279   6.166
 7935SOL    HW235837   5.707   4.421   6.233
 7936SOL     OW35838   7.428   5.491   5.945
 7936SOL    HW135839   7.482   5.462   6.025
 7936SOL    HW235840   7.458   5.581   5.916
 7937SOL     OW35841   7.275   4.646   6.198
 7937SOL    HW135842   7.370   4.617   6.206
 7937SOL    HW235843   7.267   4.711   6.123
 7938SOL     OW35844   7.227   4.832   6.018
 7938SOL    HW135845   7.313   4.834   5.966
 7938SOL    HW235846   7.241   4.879   6.106
 7939SOL     OW35847   6.199   5.089   6.312
 7939SOL    HW135848   6.150   5.002   6.321
 7939SOL    HW235849   6.176   5.132   6.225
 7940SOL     OW35850   6.395   3.728   6.088
 7940SOL    HW135851   6.435   3.819   6.079
 7940SOL    HW235852   6.295   3.736   6.094
 7941SOL     OW35853   5.783   4.700   6.850
 7941SOL    HW135854   5.872   4.655   6.836
 7941SOL    HW235855   5.710   4.635   6.831
 7942SOL     OW35856   7.111   4.723   5.776
 7942SOL    HW135857   7.048   4.647   5.789
 7942SOL    HW235858   7.159   4.741   5.862
 7943SOL     OW35859   7.052   5.141   6.539
 7943SOL    HW135860   6.993   5.147   6.619
 7943SOL    HW235861   7.037   5.053   6.493
 7944SOL     OW35862   7.253   5.438   6.158
 7944SOL    HW135863   7.212   5.415   6.070
 7944SOL    HW235864   7.235   5.364   6.223
 7945SOL     OW35865   6.184   4.453   5.856
 7945SOL    HW135866   6.208   4.522   5.788
 7945SOL    HW235867   6.106   4.486   5.910
 7946SOL     OW35868   6.867   4.069   6.530
 7946SOL    HW135869   6.781   4.019   6.517
 7946SOL    HW235870   6.929   4.015   6.586
 7947SOL     OW35871   7.162   5.386   5.893
 7947SOL    HW135872   7.251   5.432   5.896
 7947SOL    HW235873   7.141   5.362   5.798
 7948SOL     OW35874   6.393   4.329   7.051
 7948SOL    HW135875   6.346   4.326   7.140
 7948SOL    HW235876   6.342   4.274   6.985
 7949SOL     OW35877   6.577   4.134   6.828
 7949SOL    HW135878   6.500   4.168   6.882
 7949SOL    HW235879   6.543   4.083   6.749
 7950SOL     OW35880   6.627   4.425   6.015
 7950SOL    HW135881   6.653   4.421   6.111
 7950SOL    HW235882   6.542   4.374   6.001
 7951SOL     OW35883   5.662   4.535   6.375
 7951SOL    HW135884   5.761   4.523   6.384
 7951SOL    HW235885   5.638   4.630   6.396
 7952SOL     OW35886   5.716   5.545   7.157
 7952SOL    HW135887   5.706   5.530   7.256
 7952SOL    HW235888   5.630   5.581   7.121
 7953SOL     OW35889   6.451   4.072   5.781
 7953SOL    HW135890   6.510   4.135   5.732
 7953SOL    HW235891   6.470   3.978   5.752
 7954SOL     OW35892   6.948   4.868   6.131
 7954SOL    HW135893   7.031   4.839   6.083
 7954SOL    HW235894   6.899   4.935   6.075
 7955SOL     OW35895   6.136   3.920   6.471
 7955SOL    HW135896   6.131   3.915   6.571
 7955SOL    HW235897   6.138   4.016   6.442
 7956SOL     OW35898   6.594   5.180   6.063
 7956SOL    HW135899   6.548   5.252   6.011
 7956SOL    HW235900   6.590   5.200   6.161
 7957SOL     OW35901   5.937   5.525   6.439
 7957SOL    HW135902   5.987   5.439   6.445
 7957SOL    HW235903   6.002   5.602   6.436
 7958SOL     OW35904   7.381   4.790   6.459
 7958SOL    HW135905   7.319   4.775   6.383
 7958SOL    HW235906   7.329   4.801   6.544
 7959SOL     OW35907   7.044   4.459   6.314
 7959SOL    HW135908   7.039   4.394   6.389
 7959SOL    HW235909   7.124   4.518   6.327
 7960SOL     OW35910   6.697   5.500   5.823
 7960SOL    HW135911   6.637   5.438   5.873
 7960SOL    HW235912   6.728   5.456   5.738
 7961SOL     OW35913   7.218   5.101   5.667
 7961SOL    HW135914   7.186   5.195   5.657
 7961SOL    HW235915   7.142   5.038   5.655
 7962SOL     OW35916   6.050   5.467   5.909
 7962SOL    HW135917   6.083   5.506   5.995
 7962SOL    HW235918   6.126   5.460   5.844
 7963SOL     OW35919   5.835   5.509   6.827
 7963SOL    HW135920   5.892   5.444   6.877
 7963SOL    HW235921   5.819   5.476   6.734
 7964SOL     OW35922   6.526   5.422   6.490
 7964SOL    HW135923   6.606   5.365   6.511
 7964SOL    HW235924   6.477   5.382   6.413
 7965SOL     OW35925   5.968   4.424   6.066
 7965SOL    HW135926   6.013   4.334   6.063
 7965SOL    HW235927   5.874   4.413   6.099
 7966SOL     OW35928   6.474   5.238   6.781
 7966SOL    HW135929   6.451   5.213   6.687
 7966SOL    HW235930   6.535   5.169   6.820
 7967SOL     OW35931   6.389   5.126   6.510
 7967SOL    HW135932   6.479   5.140   6.468
 7967SOL    HW235933   6.318   5.128   6.439
 7968SOL     OW35934   6.508   4.227   6.485
 7968SOL    HW135935   6.483   4.218   6.389
 7968SOL    HW235936   6.556   4.145   6.516
 7969SOL     OW35937   7.020   4.912   5.627
 7969SOL    HW135938   7.052   4.836   5.684
 7969SOL    HW235939   6.928   4.939   5.657
 7970SOL     OW35940   6.521   3.960   6.066
 7970SOL    HW135941   6.473   4.001   5.988
 7970SOL    HW235942   6.620   3.958   6.047
 7971SOL     OW35943   6.813   5.294   6.379
 7971SOL    HW135944   6.834   5.368   6.314
 7971SOL    HW235945   6.881   5.294   6.452
 7972SOL     OW35946   6.045   4.876   6.327
 7972SOL    HW135947   5.974   4.849   6.392
 7972SOL    HW235948   6.019   4.848   6.234
 7973SOL     OW35949   6.857   5.521   6.177
 7973SOL    HW135950   6.901   5.585   6.113
 7973SOL    HW235951   6.807   5.573   6.247
 7974SOL     OW35952   6.618   4.273   5.602
 7974SOL    HW135953   6.577   4.355   5.563
 7974SOL    HW235954   6.682   4.299   5.675
 7975SOL     OW35955   6.147   3.946   6.733
 7975SOL    HW135956   6.185   3.862   6.770
 7975SOL    HW235957   6.059   3.965   6.777
 7976SOL     OW35958   6.452   4.178   6.228
 7976SOL    HW135959   6.420   4.250   6.166
 7976SOL    HW235960   6.476   4.097   6.175
 7977SOL     OW35961   6.603   3.763   6.339
 7977SOL    HW135962   6.531   3.768   6.270
 7977SOL    HW235963   6.579   3.694   6.408
 7978SOL     OW35964   7.015   4.897   6.453
 7978SOL    HW135965   6.960   4.813   6.446
 7978SOL    HW235966   7.041   4.926   6.361
 7979SOL     OW35967   7.052   4.314   6.578
 7979SOL    HW135968   7.022   4.219   6.585
 7979SOL    HW235969   7.125   4.330   6.644
 7980SOL     OW35970   6.074   5.109   5.760
 7980SOL    HW135971   5.987   5.094   5.807
 7980SOL    HW235972   6.057   5.135   5.665
 7981SOL     OW35973   7.250   5.004   6.243
 7981SOL    HW135974   7.349   5.012   6.257
 7981SOL    HW235975   7.205   5.088   6.274
 7982SOL     OW35976   6.113   3.980   5.914
 7982SOL    HW135977   6.140   3.921   5.839
 7982SOL    HW235978   6.113   4.075   5.883
 7983SOL     OW35979   6.650   5.071   6.926
 7983SOL    HW135980   6.570   5.048   6.981
 7983SOL    HW235981   6.733   5.045   6.975
 7984SOL     OW35982   6.697   4.919   6.686
 7984SOL    HW135983   6.657   4.963   6.767
 7984SOL    HW235984   6.656   4.956   6.603
 7985SOL     OW35985   7.224   4.823   6.665
 7985SOL    HW135986   7.229   4.904   6.724
 7985SOL    HW235987   7.138   4.825   6.614
 7986SOL     OW35988   6.291   4.774   5.954
 7986SOL    HW135989   6.277   4.781   6.053
 7986SOL    HW235990   6.375   4.723   5.936
 7987SOL     OW35991   5.996   4.537   6.837
 7987SOL    HW135992   6.082   4.549   6.887
 7987SOL    HW235993   5.954   4.450   6.864
 7988SOL     OW35994   6.860   4.110   6.848
 7988SOL    HW135995   6.881   4.184   6.912
 7988SOL    HW235996   6.771   4.127   6.805
 7989SOL     OW35997   5.650   5.288   6.917
 7989SOL    HW135998   5.604   5.370   6.883
 7989SOL    HW235999   5.748   5.307   6.926
 7990SOL     OW36000   5.953   4.824   6.087
 7990SOL    HW136001   5.946   4.907   6.031
 7990SOL    HW236002   5.957   4.744   6.027
 7991SOL     OW36003   6.152   4.261   6.451
 7991SOL    HW136004   6.164   4.327   6.377
 7991SOL    HW236005   6.198   4.295   6.534
 7992SOL     OW36006   6.838   5.072   5.974
 7992SOL    HW136007   6.888   5.149   6.014
 7992SOL    HW236008   6.743   5.074   6.006
 7993SOL     OW36009   6.858   5.169   6.728
 7993SOL    HW136010   6.905   5.182   6.815
 7993SOL    HW236011   6.792   5.095   6.737
 7994SOL     OW36012   7.168   4.363   6.058
 7994SOL    HW136013   7.137   4.424   6.131
 7994SOL    HW236014   7.218   4.415   5.989
 7995SOL     OW36015   5.940   5.234   6.915
 7995SOL    HW136016   5.919   5.190   6.828
 7995SOL    HW236017   6.037   5.260   6.918
 7996SOL     OW36018   6.090   3.774   7.326
 7996SOL    HW136019   6.048   3.717   7.256
 7996SOL    HW236020   6.024   3.843   7.358
 7997SOL     OW36021   6.159   4.594   6.615
 7997SOL    HW136022   6.203   4.683   6.606
 7997SOL    HW236023   6.096   4.594   6.692
 7998SOL     OW36024   6.946   4.586   6.631
 7998SOL    HW136025   6.871   4.586   6.565
 7998SOL    HW236026   6.983   4.494   6.640
 7999SOL     OW36027   5.893   3.937   6.817
 7999SOL    HW136028   5.870   3.974   6.907
 7999SOL    HW236029   5.863   3.842   6.811
 8000SOL     OW36030   5.623   5.034   6.868
 8000SOL    HW136031   5.676   4.985   6.936
 8000SOL    HW236032   5.645   5.132   6.873
 8001SOL     OW36033   6.318   4.358   6.650
 8001SOL    HW136034   6.377   4.332   6.574
 8001SOL    HW236035   6.290   4.454   6.639
 8002SOL     OW36036   6.609   4.490   6.552
 8002SOL    HW136037   6.624   4.511   6.648
 8002SOL    HW236038   6.579   4.395   6.543
 8003SOL     OW36039   7.126   3.998   5.711
 8003SOL    HW136040   7.065   3.923   5.734
 8003SOL    HW236041   7.148   4.050   5.794
 8004SOL     OW36042   6.889   4.562   5.628
 8004SOL    HW136043   6.923   4.469   5.643
 8004SOL    HW236044   6.907   4.589   5.533
 8005SOL     OW36045   6.654   5.057   6.435
 8005SOL    HW136046   6.661   4.973   6.380
 8005SOL    HW236047   6.716   5.126   6.399
 8006SOL     OW36048   5.905   4.534   6.535
 8006SOL    HW136049   5.998   4.570   6.540
 8006SOL    HW236050   5.899   4.449   6.587
 8007SOL     OW36051   5.925   4.233   6.592
 8007SOL    HW136052   5.873   4.150   6.575
 8007SOL    HW236053   6.002   4.238   6.528
 8008SOL     OW36054   6.746   3.931   7.063
 8008SOL    HW136055   6.746   3.995   7.140
 8008SOL    HW236056   6.774   3.979   6.980
 8009SOL     OW36057   5.674   5.525   6.513
 8009SOL    HW136058   5.632   5.439   6.486
 8009SOL    HW236059   5.768   5.528   6.479
 8010SOL     OW36060   6.090   5.292   6.496
 8010SOL    HW136061   6.156   5.366   6.505
 8010SOL    HW236062   6.134   5.213   6.454
 8011SOL     OW36063   6.588   4.520   6.824
 8011SOL    HW136064   6.629   4.488   6.910
 8011SOL    HW236065   6.492   4.493   6.821
 8012SOL     OW36066   5.626   4.268   6.700
 8012SOL    HW136067   5.711   4.235   6.659
 8012SOL    HW236068   5.639   4.283   6.798
 8013SOL     OW36069   6.401   4.296   5.911
 8013SOL    HW136070   6.408   4.207   5.865
 8013SOL    HW236071   6.307   4.330   5.903
 8014SOL     OW36072   7.243   4.328   6.792
 8014SOL    HW136073   7.205   4.259   6.854
 8014SOL    HW236074   7.325   4.292   6.748
 8015SOL     OW36075   6.257   4.188   6.855
 8015SOL    HW136076   6.223   4.099   6.825
 8015SOL    HW236077   6.283   4.242   6.775
 8016SOL     OW36078   6.516   5.402   7.051
 8016SOL    HW136079   6.492   5.384   6.956
 8016SOL    HW236080   6.546   5.496   7.061
 8017SOL     OW36081   6.059   4.224   5.777
 8017SOL    HW136082   6.120   4.304   5.781
 8017SOL    HW236083   5.964   4.255   5.784
 8018SOL     OW36084   5.745   4.861   7.052
 8018SOL    HW136085   5.767   4.800   7.128
 8018SOL    HW236086   5.755   4.812   6.966
 8019SOL     OW36087   6.933   4.783   6.820
 8019SOL    HW136088   6.957   4.720   6.746
 8019SOL    HW236089   6.843   4.823   6.802
 8020SOL     OW36090   6.888   4.579   5.895
 8020SOL    HW136091   6.802   4.548   5.937
 8020SOL    HW236092   6.884   4.565   5.796
 8021SOL     OW36093   7.345   5.471   6.740
 8021SOL    HW136094   7.406   5.501   6.667
 8021SOL    HW236095   7.307   5.382   6.718
 8022SOL     OW36096   6.838   5.455   6.714
 8022SOL    HW136097   6.922   5.460   6.660
 8022SOL    HW236098   6.815   5.359   6.732
 8023SOL     OW36099   5.669   4.982   6.608
 8023SOL    HW136100   5.664   4.981   6.708
 8023SOL    HW236101   5.586   4.941   6.570
 8024SOL     OW36102   7.312   3.859   6.109
 8024SOL    HW136103   7.385   3.842   6.042
 8024SOL    HW236104   7.281   3.772   6.147
 8025SOL     OW36105   6.974   5.297   6.063
 8025SOL    HW136106   7.041   5.309   5.989
 8025SOL    HW236107   6.934   5.386   6.086
 8026SOL     OW36108   6.866   4.651   6.258
 8026SOL    HW136109   6.926   4.570   6.260
 8026SOL    HW236110   6.906   4.720   6.198
 8027SOL     OW36111   6.258   5.340   5.740
 8027SOL    HW136112   6.267   5.350   5.641
 8027SOL    HW236113   6.218   5.251   5.761
 8028SOL     OW36114   7.427   3.899   6.549
 8028SOL    HW136115   7.466   3.814   6.513
 8028SOL    HW236116   7.329   3.901   6.530
 8029SOL     OW36117   6.780   5.336   5.617
 8029SOL    HW136118   6.786   5.243   5.654
 8029SOL    HW236119   6.721   5.336   5.537
 8030SOL     OW36120   6.408   4.726   6.958
 8030SOL    HW136121   6.448   4.725   6.866
 8030SOL    HW236122   6.418   4.818   6.998
 8031SOL     OW36123   6.502   4.634   5.877
 8031SOL    HW136124   6.565   4.672   5.809
 8031SOL    HW236125   6.542   4.551   5.916
 8032SOL     OW36126   7.090   5.331   5.630
 8032SOL    HW136127   6.998   5.368   5.637
 8032SOL    HW236128   7.128   5.351   5.540
 8033SOL     OW36129   5.958   5.012   7.076
 8033SOL    HW136130   5.945   5.105   7.042
 8033SOL    HW236131   5.874   4.960   7.063
 8034SOL     OW36132   7.200   5.016   6.875
 8034SOL    HW136133   7.260   5.019   6.955
 8034SOL    HW236134   7.125   5.080   6.888
 8035SOL     OW36135   6.625   4.822   6.282
 8035SOL    HW136136   6.555   4.775   6.336
 8035SOL    HW236137   6.684   4.754   6.239
 8036SOL     OW36138   6.600   3.960   6.557
 8036SOL    HW136139   6.592   3.924   6.464
 8036SOL    HW236140   6.598   3.884   6.622
 8037SOL     OW36141   6.176   5.211   6.077
 8037SOL    HW136142   6.218   5.153   6.007
 8037SOL    HW236143   6.132   5.290   6.033
 8038SOL     OW36144   7.295   4.109   6.967
 8038SOL    HW136145   7.368   4.178   6.971
 8038SOL    HW236146   7.323   4.034   6.908
 8039SOL     OW36147   5.841   5.072   5.876
 8039SOL    HW136148   5.745   5.073   5.849
 8039SOL    HW236149   5.853   5.125   5.960
 8040SOL     OW36150   6.258   3.927   7.075
 8040SOL    HW136151   6.348   3.911   7.035
 8040SOL    HW236152   6.266   3.932   7.174
 8041SOL     OW36153   5.658   3.890   5.904
 8041SOL    HW136154   5.641   3.973   5.850
 8041SOL    HW236155   5.748   3.853   5.882
 8042SOL     OW36156   6.769   5.059   5.705
 8042SOL    HW136157   6.670   5.048   5.707
 8042SOL    HW236158   6.803   5.074   5.798
 8043SOL     OW36159   6.199   4.566   7.017
 8043SOL    HW136160   6.255   4.647   7.000
 8043SOL    HW236161   6.258   4.486   7.020
 8044SOL     OW36162   7.079   5.491   6.545
 8044SOL    HW136163   7.112   5.555   6.476
 8044SOL    HW236164   7.145   5.485   6.620
 8045SOL     OW36165   5.976   5.465   7.146
 8045SOL    HW136166   5.885   5.506   7.144
 8045SOL    HW236167   5.969   5.371   7.178
 8046SOL     OW36168   7.260   4.607   6.840
 8046SOL    HW136169   7.233   4.518   6.803
 8046SOL    HW236170   7.261   4.675   6.767
 8047SOL     OW36171   6.180   4.469   6.238
 8047SOL    HW136172   6.230   4.554   6.219
 8047SOL    HW236173   6.092   4.471   6.190
 8048SOL     OW36174   7.316   4.658   7.103
 8048SOL    HW136175   7.354   4.749   7.118
 8048SOL    HW236176   7.308   4.641   7.004
 8049SOL     OW36177   6.445   5.098   5.602
 8049SOL    HW136178   6.399   5.113   5.690
 8049SOL    HW236179   6.489   5.183   5.572
 8050SOL     OW36180   6.247   5.514   6.539
 8050SOL    HW136181   6.201   5.602   6.526
 8050SOL    HW236182   6.346   5.526   6.532
 8051SOL     OW36183   6.445   4.680   6.447
 8051SOL    HW136184   6.499   4.611   6.495
 8051SOL    HW236185   6.413   4.749   6.513
 8052SOL     OW36186   6.669   4.708   5.673
 8052SOL    HW136187   6.646   4.761   5.591
 8052SOL    HW236188   6.750   4.652   5.654
 8053SOL     OW36189   7.447   5.293   6.437
 8053SOL    HW136190   7.376   5.281   6.367
 8053SOL    HW236191   7.448   5.214   6.497
 8054SOL     OW36192   5.665   4.964   6.239
 8054SOL    HW136193   5.664   4.917   6.327
 8054SOL    HW236194   5.747   4.936   6.188
 8055SOL     OW36195   7.410   3.916   6.813
 8055SOL    HW136196   7.406   3.826   6.857
 8055SOL    HW236197   7.413   3.905   6.714
 8056SOL     OW36198   6.014   4.148   6.106
 8056SOL    HW136199   6.044   4.076   6.044
 8056SOL    HW236200   5.975   4.108   6.189
 8057SOL     OW36201   7.291   5.211   6.690
 8057SOL    HW136202   7.198   5.186   6.663
 8057SOL    HW236203   7.317   5.161   6.772
 8058SOL     OW36204   5.903   4.271   6.866
 8058SOL    HW136205   5.941   4.212   6.938
 8058SOL    HW236206   5.943   4.245   6.778
 8059SOL     OW36207   6.398   5.310   6.273
 8059SOL    HW136208   6.430   5.320   6.179
 8059SOL    HW236209   6.319   5.248   6.275
 8060SOL     OW36210   7.010   3.938   6.698
 8060SOL    HW136211   7.062   3.873   6.753
 8060SOL    HW236212   6.961   4.001   6.759
 8061SOL     OW36213   6.587   3.758   6.740
 8061SOL    HW136214   6.524   3.686   6.709
 8061SOL    HW236215   6.680   3.722   6.740
 8062SOL     OW36216   6.356   5.054   5.887
 8062SOL    HW136217   6.310   4.967   5.904
 8062SOL    HW236218   6.447   5.051   5.928
 8063SOL     OW36219   6.204   5.291   6.870
 8063SOL    HW136220   6.199   5.373   6.927
 8063SOL    HW236221   6.293   5.288   6.825
 8064SOL     OW36222   6.886   4.177   6.277
 8064SOL    HW136223   6.827   4.257   6.281
 8064SOL    HW236224   6.901   4.142   6.370
 8065SOL     OW36225   7.179   3.945   6.468
 8065SOL    HW136226   7.095   3.944   6.522
 8065SOL    HW236227   7.181   4.028   6.412
 8066SOL     OW36228   5.625   4.801   5.886
 8066SOL    HW136229   5.724   4.790   5.877
 8066SOL    HW236230   5.585   4.715   5.918
 8067SOL     OW36231   6.461   5.370   5.923
 8067SOL    HW136232   6.384   5.335   5.869
 8067SOL    HW236233   6.429   5.441   5.985
 8068SOL     OW36234   5.816   6.214   0.113
 8068SOL    HW136235   5.723   6.212   0.150
 8068SOL    HW236236   5.817   6.175   0.021
 8069SOL     OW36237   5.811   5.861   0.996
 8069SOL    HW136238   5.846   5.844   1.088
 8069SOL    HW236239   5.723   5.816   0.984
 8070SOL     OW36240   5.605   5.954   0.647
 8070SOL    HW136241   5.523   5.997   0.686
 8070SOL    HW236242   5.577   5.881   0.584
 8071SOL     OW36243   6.155   6.861   1.165
 8071SOL    HW136244   6.062   6.854   1.128
 8071SOL    HW236245   6.166   6.950   1.209
 8072SOL     OW36246   7.141   7.097   0.703
 8072SOL    HW136247   7.084   7.081   0.784
 8072SOL    HW236248   7.082   7.107   0.623
 8073SOL     OW36249   6.721   6.289   0.717
 8073SOL    HW136250   6.778   6.367   0.692
 8073SOL    HW236251   6.661   6.315   0.793
 8074SOL     OW36252   7.341   6.193   0.231
 8074SOL    HW136253   7.329   6.180   0.132
 8074SOL    HW236254   7.311   6.112   0.280
 8075SOL     OW36255   6.354   6.730   1.023
 8075SOL    HW136256   6.276   6.747   1.083
 8075SOL    HW236257   6.388   6.817   0.987
 8076SOL     OW36258   6.271   6.598   0.665
 8076SOL    HW136259   6.340   6.582   0.735
 8076SOL    HW236260   6.198   6.655   0.703
 8077SOL     OW36261   5.921   7.021   1.061
 8077SOL    HW136262   5.843   6.990   1.008
 8077SOL    HW236263   5.979   7.079   1.004
 8078SOL     OW36264   7.046   7.091   1.339
 8078SOL    HW136265   7.070   7.185   1.365
 8078SOL    HW236266   7.030   7.037   1.421
 8079SOL     OW36267   6.024   5.978   1.499
 8079SOL    HW136268   6.106   5.922   1.508
 8079SOL    HW236269   5.943   5.920   1.503
 8080SOL     OW36270   7.189   6.033   0.737
 8080SOL    HW136271   7.115   6.079   0.687
 8080SOL    HW236272   7.240   6.101   0.790
 8081SOL     OW36273   5.817   7.299   0.483
 8081SOL    HW136274   5.851   7.376   0.537
 8081SOL    HW236275   5.861   7.299   0.393
 8082SOL     OW36276   5.816   7.020   0.538
 8082SOL    HW136277   5.790   7.116   0.538
 8082SOL    HW236278   5.745   6.966   0.583
 8083SOL     OW36279   5.826   6.677   0.886
 8083SOL    HW136280   5.840   6.593   0.938
 8083SOL    HW236281   5.771   6.741   0.941
 8084SOL     OW36282   6.206   7.372   1.439
 8084SOL    HW136283   6.114   7.355   1.474
 8084SOL    HW236284   6.234   7.464   1.465
 8085SOL     OW36285   6.192   6.550   0.123
 8085SOL    HW136286   6.199   6.634   0.069
 8085SOL    HW236287   6.238   6.563   0.211
 8086SOL     OW36288   7.180   5.700   1.480
 8086SOL    HW136289   7.162   5.767   1.408
 8086SOL    HW236290   7.177   5.746   1.569
 8087SOL     OW36291   5.708   6.229   0.563
 8087SOL    HW136292   5.663   6.141   0.580
 8087SOL    HW236293   5.707   6.283   0.647
 8088SOL     OW36294   7.428   7.353   0.359
 8088SOL    HW136295   7.482   7.324   0.439
 8088SOL    HW236296   7.458   7.443   0.330
 8089SOL     OW36297   5.613   7.182   0.117
 8089SOL    HW136298   5.594   7.086   0.138
 8089SOL    HW236299   5.580   7.240   0.192
 8090SOL     OW36300   7.275   6.508   0.612
 8090SOL    HW136301   7.370   6.479   0.620
 8090SOL    HW236302   7.267   6.573   0.537
 8091SOL     OW36303   7.227   6.694   0.432
 8091SOL    HW136304   7.313   6.696   0.380
 8091SOL    HW236305   7.241   6.741   0.520
 8092SOL     OW36306   5.699   6.323   1.597
 8092SOL    HW136307   5.787   6.310   1.642
 8092SOL    HW236308   5.686   6.420   1.575
 8093SOL     OW36309   6.199   6.951   0.726
 8093SOL    HW136310   6.150   6.864   0.735
 8093SOL    HW236311   6.176   6.994   0.639
 8094SOL     OW36312   6.395   5.590   0.502
 8094SOL    HW136313   6.435   5.681   0.493
 8094SOL    HW236314   6.295   5.598   0.508
 8095SOL     OW36315   5.783   6.562   1.264
 8095SOL    HW136316   5.872   6.517   1.250
 8095SOL    HW236317   5.710   6.497   1.245
 8096SOL     OW36318   7.111   6.585   0.190
 8096SOL    HW136319   7.048   6.509   0.203
 8096SOL    HW236320   7.159   6.603   0.276
 8097SOL     OW36321   6.773   7.378   1.616
 8097SOL    HW136322   6.797   7.438   1.540
 8097SOL    HW236323   6.780   7.283   1.586
 8098SOL     OW36324   7.052   7.003   0.953
 8098SOL    HW136325   6.993   7.009   1.033
 8098SOL    HW236326   7.037   6.915   0.907
 8099SOL     OW36327   7.253   7.300   0.572
 8099SOL    HW136328   7.212   7.277   0.484
 8099SOL    HW236329   7.235   7.226   0.637
 8100SOL     OW36330   6.184   6.315   0.270
 8100SOL    HW136331   6.208   6.384   0.202
 8100SOL    HW236332   6.106   6.348   0.324
 8101SOL     OW36333   6.867   5.931   0.944
 8101SOL    HW136334   6.781   5.881   0.931
 8101SOL    HW236335   6.929   5.877   1.000
 8102SOL     OW36336   7.162   7.248   0.307
 8102SOL    HW136337   7.251   7.294   0.310
 8102SOL    HW236338   7.141   7.224   0.212
 8103SOL     OW36339   6.980   6.055   1.674
 8103SOL    HW136340   6.960   6.098   1.762
 8103SOL    HW236341   7.058   5.993   1.683
 8104SOL     OW36342   6.559   6.476   1.572
 8104SOL    HW136343   6.605   6.392   1.543
 8104SOL    HW236344   6.503   6.510   1.497
 8105SOL     OW36345   6.627   6.287   0.429
 8105SOL    HW136346   6.653   6.283   0.525
 8105SOL    HW236347   6.542   6.236   0.415
 8106SOL     OW36348   5.662   6.397   0.789
 8106SOL    HW136349   5.761   6.385   0.798
 8106SOL    HW236350   5.638   6.492   0.810
 8107SOL     OW36351   6.451   5.934   0.195
 8107SOL    HW136352   6.510   5.997   0.146
 8107SOL    HW236353   6.470   5.840   0.166
 8108SOL     OW36354   7.305   6.171   1.831
 8108SOL    HW136355   7.279   6.260   1.795
 8108SOL    HW236356   7.303   6.103   1.758
 8109SOL     OW36357   6.948   6.730   0.545
 8109SOL    HW136358   7.031   6.701   0.497
 8109SOL    HW236359   6.899   6.797   0.489
 8110SOL     OW36360   6.136   5.782   0.885
 8110SOL    HW136361   6.131   5.777   0.985
 8110SOL    HW236362   6.138   5.878   0.856
 8111SOL     OW36363   6.594   7.042   0.477
 8111SOL    HW136364   6.548   7.114   0.425
 8111SOL    HW236365   6.590   7.062   0.575
 8112SOL     OW36366   5.937   7.387   0.853
 8112SOL    HW136367   5.987   7.301   0.859
 8112SOL    HW236368   6.002   7.464   0.850
 8113SOL     OW36369   7.381   6.652   0.873
 8113SOL    HW136370   7.319   6.637   0.797
 8113SOL    HW236371   7.329   6.663   0.958
 8114SOL     OW36372   6.813   7.136   1.506
 8114SOL    HW136373   6.819   7.059   1.570
 8114SOL    HW236374   6.761   7.110   1.426
 8115SOL     OW36375   5.907   6.529   0.242
 8115SOL    HW136376   5.989   6.568   0.200
 8115SOL    HW236377   5.880   6.447   0.193
 8116SOL     OW36378   7.044   6.321   0.728
 8116SOL    HW136379   7.039   6.256   0.803
 8116SOL    HW236380   7.124   6.380   0.741
 8117SOL     OW36381   6.697   7.362   0.237
 8117SOL    HW136382   6.637   7.300   0.287
 8117SOL    HW236383   6.728   7.318   0.152
 8118SOL     OW36384   7.218   6.963   0.081
 8118SOL    HW136385   7.186   7.057   0.071
 8118SOL    HW236386   7.142   6.900   0.069
 8119SOL     OW36387   6.050   7.329   0.323
 8119SOL    HW136388   6.083   7.368   0.409
 8119SOL    HW236389   6.126   7.322   0.258
 8120SOL     OW36390   6.986   5.693   0.426
 8120SOL    HW136391   6.962   5.656   0.336
 8120SOL    HW236392   7.085   5.709   0.430
 8121SOL     OW36393   6.526   7.284   0.904
 8121SOL    HW136394   6.606   7.227   0.925
 8121SOL    HW236395   6.477   7.244   0.827
 8122SOL     OW36396   5.968   6.286   0.480
 8122SOL    HW136397   6.013   6.196   0.477
 8122SOL    HW236398   5.874   6.275   0.513
 8123SOL     OW36399   7.133   5.808   1.729
 8123SOL    HW136400   7.128   5.845   1.821
 8123SOL    HW236401   7.061   5.739   1.717
 8124SOL     OW36402   6.474   7.100   1.195
 8124SOL    HW136403   6.451   7.075   1.101
 8124SOL    HW236404   6.535   7.031   1.234
 8125SOL     OW36405   6.937   6.176   1.433
 8125SOL    HW136406   6.965   6.133   1.518
 8125SOL    HW236407   6.962   6.272   1.434
 8126SOL     OW36408   6.389   6.988   0.924
 8126SOL    HW136409   6.479   7.002   0.882
 8126SOL    HW236410   6.318   6.990   0.853
 8127SOL     OW36411   6.508   6.089   0.899
 8127SOL    HW136412   6.483   6.080   0.803
 8127SOL    HW236413   6.556   6.007   0.930
 8128SOL     OW36414   6.125   5.650   0.512
 8128SOL    HW136415   6.044   5.651   0.570
 8128SOL    HW236416   6.128   5.733   0.457
 8129SOL     OW36417   7.020   6.774   0.041
 8129SOL    HW136418   7.052   6.698   0.098
 8129SOL    HW236419   6.928   6.801   0.071
 8130SOL     OW36420   6.521   5.822   0.480
 8130SOL    HW136421   6.473   5.863   0.402
 8130SOL    HW236422   6.620   5.820   0.461
 8131SOL     OW36423   6.662   6.269   1.464
 8131SOL    HW136424   6.582   6.208   1.467
 8131SOL    HW236425   6.743   6.216   1.440
 8132SOL     OW36426   6.813   7.156   0.793
 8132SOL    HW136427   6.834   7.230   0.728
 8132SOL    HW236428   6.881   7.156   0.866
 8133SOL     OW36429   6.045   6.738   0.741
 8133SOL    HW136430   5.974   6.711   0.806
 8133SOL    HW236431   6.019   6.710   0.648
 8134SOL     OW36432   6.857   7.383   0.591
 8134SOL    HW136433   6.901   7.447   0.527
 8134SOL    HW236434   6.807   7.435   0.661
 8135SOL     OW36435   6.618   6.135   0.016
 8135SOL    HW136436   6.577   6.217  -0.023
 8135SOL    HW236437   6.682   6.161   0.089
 8136SOL     OW36438   5.664   6.142   1.386
 8136SOL    HW136439   5.756   6.141   1.345
 8136SOL    HW236440   5.658   6.216   1.453
 8137SOL     OW36441   6.147   5.808   1.147
 8137SOL    HW136442   6.185   5.724   1.184
 8137SOL    HW236443   6.059   5.827   1.191
 8138SOL     OW36444   6.452   6.040   0.642
 8138SOL    HW136445   6.420   6.112   0.580
 8138SOL    HW236446   6.476   5.959   0.589
 8139SOL     OW36447   6.603   5.625   0.753
 8139SOL    HW136448   6.531   5.630   0.684
 8139SOL    HW236449   6.579   5.556   0.822
 8140SOL     OW36450   7.015   6.759   0.867
 8140SOL    HW136451   6.960   6.675   0.860
 8140SOL    HW236452   7.041   6.788   0.775
 8141SOL     OW36453   7.052   6.176   0.992
 8141SOL    HW136454   7.022   6.081   0.999
 8141SOL    HW236455   7.125   6.192   1.058
 8142SOL     OW36456   7.443   6.419   0.377
 8142SOL    HW136457   7.485   6.355   0.441
 8142SOL    HW236458   7.405   6.368   0.299
 8143SOL     OW36459   6.074   6.971   0.174
 8143SOL    HW136460   5.987   6.956   0.221
 8143SOL    HW236461   6.057   6.997   0.079
 8144SOL     OW36462   7.250   6.866   0.657
 8144SOL    HW136463   7.349   6.874   0.671
 8144SOL    HW236464   7.205   6.950   0.688
 8145SOL     OW36465   6.976   6.161   0.078
 8145SOL    HW136466   6.922   6.140   0.159
 8145SOL    HW236467   7.067   6.120   0.087
 8146SOL     OW36468   6.113   5.842   0.328
 8146SOL    HW136469   6.140   5.783   0.253
 8146SOL    HW236470   6.113   5.937   0.297
 8147SOL     OW36471   6.650   6.933   1.340
 8147SOL    HW136472   6.570   6.910   1.395
 8147SOL    HW236473   6.733   6.907   1.389
 8148SOL     OW36474   6.697   6.781   1.100
 8148SOL    HW136475   6.657   6.825   1.181
 8148SOL    HW236476   6.656   6.818   1.017
 8149SOL     OW36477   7.224   6.685   1.079
 8149SOL    HW136478   7.229   6.766   1.138
 8149SOL    HW236479   7.138   6.687   1.028
 8150SOL     OW36480   6.566   6.702   1.719
 8150SOL    HW136481   6.467   6.708   1.729
 8150SOL    HW236482   6.589   6.622   1.663
 8151SOL     OW36483   6.291   6.636   0.368
 8151SOL    HW136484   6.277   6.643   0.467
 8151SOL    HW236485   6.375   6.585   0.350
 8152SOL     OW36486   5.996   6.399   1.251
 8152SOL    HW136487   6.082   6.411   1.301
 8152SOL    HW236488   5.954   6.312   1.278
 8153SOL     OW36489   6.860   5.972   1.262
 8153SOL    HW136490   6.881   6.046   1.326
 8153SOL    HW236491   6.771   5.989   1.219
 8154SOL     OW36492   5.953   6.686   0.501
 8154SOL    HW136493   5.946   6.769   0.445
 8154SOL    HW236494   5.957   6.606   0.441
 8155SOL     OW36495   6.152   6.123   0.865
 8155SOL    HW136496   6.164   6.189   0.791
 8155SOL    HW236497   6.198   6.157   0.948
 8156SOL     OW36498   6.838   6.934   0.388
 8156SOL    HW136499   6.888   7.011   0.428
 8156SOL    HW236500   6.743   6.936   0.420
 8157SOL     OW36501   6.858   7.031   1.142
 8157SOL    HW136502   6.905   7.044   1.229
 8157SOL    HW236503   6.792   6.957   1.151
 8158SOL     OW36504   7.168   6.225   0.472
 8158SOL    HW136505   7.137   6.286   0.545
 8158SOL    HW236506   7.218   6.277   0.403
 8159SOL     OW36507   5.940   7.096   1.329
 8159SOL    HW136508   5.919   7.052   1.242
 8159SOL    HW236509   6.037   7.122   1.332
 8160SOL     OW36510   5.988   6.337   1.598
 8160SOL    HW136511   6.056   6.392   1.551
 8160SOL    HW236512   6.028   6.249   1.625
 8161SOL     OW36513   7.173   6.365   1.670
 8161SOL    HW136514   7.081   6.403   1.665
 8161SOL    HW236515   7.233   6.412   1.605
 8162SOL     OW36516   6.090   5.636   1.740
 8162SOL    HW136517   6.048   5.579   1.670
 8162SOL    HW236518   6.024   5.705   1.772
 8163SOL     OW36519   6.159   6.456   1.029
 8163SOL    HW136520   6.203   6.545   1.020
 8163SOL    HW236521   6.096   6.456   1.106
 8164SOL     OW36522   6.946   6.448   1.045
 8164SOL    HW136523   6.871   6.448   0.979
 8164SOL    HW236524   6.983   6.356   1.054
 8165SOL     OW36525   6.795   6.111   0.275
 8165SOL    HW136526   6.808   6.027   0.329
 8165SOL    HW236527   6.766   6.185   0.335
 8166SOL     OW36528   5.893   5.799   1.231
 8166SOL    HW136529   5.870   5.836   1.321
 8166SOL    HW236530   5.863   5.704   1.225
 8167SOL     OW36531   5.623   6.896   1.282
 8167SOL    HW136532   5.676   6.847   1.350
 8167SOL    HW236533   5.645   6.994   1.287
 8168SOL     OW36534   6.318   6.220   1.064
 8168SOL    HW136535   6.377   6.194   0.988
 8168SOL    HW236536   6.290   6.316   1.053
 8169SOL     OW36537   7.314   6.521   1.854
 8169SOL    HW136538   7.268   6.514   1.765
 8169SOL    HW236539   7.252   6.565   1.920
 8170SOL     OW36540   5.893   5.649   0.618
 8170SOL    HW136541   5.882   5.743   0.651
 8170SOL    HW236542   5.888   5.586   0.695
 8171SOL     OW36543   7.208   5.953   0.374
 8171SOL    HW136544   7.210   5.877   0.438
 8171SOL    HW236545   7.160   6.030   0.414
 8172SOL     OW36546   6.609   6.352   0.966
 8172SOL    HW136547   6.624   6.373   1.062
 8172SOL    HW236548   6.579   6.257   0.957
 8173SOL     OW36549   7.126   5.860   0.125
 8173SOL    HW136550   7.065   5.785   0.148
 8173SOL    HW236551   7.148   5.912   0.208
 8174SOL     OW36552   6.889   6.424   0.042
 8174SOL    HW136553   6.923   6.331   0.057
 8174SOL    HW236554   6.907   6.451  -0.053
 8175SOL     OW36555   6.654   6.919   0.849
 8175SOL    HW136556   6.661   6.835   0.794
 8175SOL    HW236557   6.716   6.988   0.813
 8176SOL     OW36558   5.905   6.396   0.949
 8176SOL    HW136559   5.998   6.432   0.954
 8176SOL    HW236560   5.899   6.311   1.001
 8177SOL     OW36561   5.925   6.095   1.006
 8177SOL    HW136562   5.873   6.012   0.989
 8177SOL    HW236563   6.002   6.100   0.942
 8178SOL     OW36564   5.594   6.912   0.200
 8178SOL    HW136565   5.501   6.933   0.169
 8178SOL    HW236566   5.604   6.813   0.213
 8179SOL     OW36567   5.674   7.387   0.927
 8179SOL    HW136568   5.632   7.301   0.900
 8179SOL    HW236569   5.768   7.390   0.893
 8180SOL     OW36570   6.090   7.154   0.910
 8180SOL    HW136571   6.156   7.228   0.919
 8180SOL    HW236572   6.134   7.075   0.868
 8181SOL     OW36573   6.588   6.382   1.238
 8181SOL    HW136574   6.629   6.350   1.324
 8181SOL    HW236575   6.492   6.355   1.235
 8182SOL     OW36576   5.626   6.130   1.114
 8182SOL    HW136577   5.711   6.097   1.073
 8182SOL    HW236578   5.639   6.145   1.212
 8183SOL     OW36579   5.775   6.106   1.722
 8183SOL    HW136580   5.834   6.066   1.652
 8183SOL    HW236581   5.717   6.177   1.681
 8184SOL     OW36582   6.401   6.158   0.325
 8184SOL    HW136583   6.408   6.069   0.279
 8184SOL    HW236584   6.307   6.192   0.317
 8185SOL     OW36585   7.243   6.190   1.206
 8185SOL    HW136586   7.205   6.121   1.268
 8185SOL    HW236587   7.325   6.154   1.162
 8186SOL     OW36588   5.838   7.150   1.744
 8186SOL    HW136589   5.808   7.207   1.820
 8186SOL    HW236590   5.831   7.053   1.770
 8187SOL     OW36591   6.257   6.050   1.269
 8187SOL    HW136592   6.223   5.961   1.239
 8187SOL    HW236593   6.283   6.104   1.189
 8188SOL     OW36594   6.059   6.086   0.191
 8188SOL    HW136595   6.120   6.166   0.195
 8188SOL    HW236596   5.964   6.117   0.198
 8189SOL     OW36597   5.745   6.723   1.466
 8189SOL    HW136598   5.767   6.662   1.542
 8189SOL    HW236599   5.755   6.674   1.380
 8190SOL     OW36600   6.933   6.645   1.234
 8190SOL    HW136601   6.957   6.582   1.160
 8190SOL    HW236602   6.843   6.685   1.216
 8191SOL     OW36603   6.888   6.441   0.309
 8191SOL    HW136604   6.802   6.410   0.351
 8191SOL    HW236605   6.884   6.427   0.210
 8192SOL     OW36606   7.345   7.333   1.154
 8192SOL    HW136607   7.406   7.363   1.081
 8192SOL    HW236608   7.307   7.244   1.132
 8193SOL     OW36609   6.838   7.317   1.128
 8193SOL    HW136610   6.922   7.322   1.074
 8193SOL    HW236611   6.815   7.221   1.146
 8194SOL     OW36612   5.669   6.844   1.022
 8194SOL    HW136613   5.664   6.843   1.122
 8194SOL    HW236614   5.586   6.803   0.984
 8195SOL     OW36615   6.489   5.672   0.133
 8195SOL    HW136616   6.540   5.673   0.047
 8195SOL    HW236617   6.545   5.630   0.204
 8196SOL     OW36618   7.312   5.721   0.523
 8196SOL    HW136619   7.385   5.704   0.456
 8196SOL    HW236620   7.281   5.634   0.561
 8197SOL     OW36621   6.974   7.159   0.477
 8197SOL    HW136622   7.041   7.171   0.403
 8197SOL    HW236623   6.934   7.248   0.500
 8198SOL     OW36624   6.866   6.513   0.672
 8198SOL    HW136625   6.926   6.432   0.674
 8198SOL    HW236626   6.906   6.582   0.612
 8199SOL     OW36627   6.416   6.859   1.422
 8199SOL    HW136628   6.411   6.892   1.517
 8199SOL    HW236629   6.330   6.878   1.376
 8200SOL     OW36630   6.258   7.202   0.154
 8200SOL    HW136631   6.267   7.212   0.055
 8200SOL    HW236632   6.218   7.113   0.175
 8201SOL     OW36633   7.236   7.306   1.394
 8201SOL    HW136634   7.289   7.316   1.310
 8201SOL    HW236635   7.209   7.396   1.428
 8202SOL     OW36636   7.427   5.761   0.963
 8202SOL    HW136637   7.466   5.676   0.927
 8202SOL    HW236638   7.329   5.763   0.944
 8203SOL     OW36639   5.849   5.912   0.720
 8203SOL    HW136640   5.770   5.963   0.686
 8203SOL    HW236641   5.840   5.897   0.818
 8204SOL     OW36642   6.780   7.198   0.031
 8204SOL    HW136643   6.786   7.105   0.068
 8204SOL    HW236644   6.721   7.198  -0.049
 8205SOL     OW36645   6.408   6.588   1.372
 8205SOL    HW136646   6.448   6.587   1.280
 8205SOL    HW236647   6.418   6.680   1.412
 8206SOL     OW36648   6.502   6.496   0.291
 8206SOL    HW136649   6.565   6.534   0.223
 8206SOL    HW236650   6.542   6.413   0.330
 8207SOL     OW36651   7.090   7.193   0.044
 8207SOL    HW136652   6.998   7.230   0.051
 8207SOL    HW236653   7.128   7.213  -0.046
 8208SOL     OW36654   5.958   6.874   1.490
 8208SOL    HW136655   5.945   6.967   1.456
 8208SOL    HW236656   5.874   6.822   1.477
 8209SOL     OW36657   7.200   6.878   1.289
 8209SOL    HW136658   7.260   6.881   1.369
 8209SOL    HW236659   7.125   6.942   1.302
 8210SOL     OW36660   6.625   6.684   0.696
 8210SOL    HW136661   6.555   6.637   0.750
 8210SOL    HW236662   6.684   6.616   0.653
 8211SOL     OW36663   6.600   5.822   0.971
 8211SOL    HW136664   6.592   5.786   0.878
 8211SOL    HW236665   6.598   5.746   1.036
 8212SOL     OW36666   6.176   7.073   0.491
 8212SOL    HW136667   6.218   7.015   0.421
 8212SOL    HW236668   6.132   7.152   0.447
 8213SOL     OW36669   7.295   5.971   1.381
 8213SOL    HW136670   7.368   6.040   1.385
 8213SOL    HW236671   7.323   5.896   1.322
 8214SOL     OW36672   5.841   6.934   0.290
 8214SOL    HW136673   5.745   6.935   0.263
 8214SOL    HW236674   5.853   6.987   0.374
 8215SOL     OW36675   6.258   5.789   1.489
 8215SOL    HW136676   6.348   5.773   1.449
 8215SOL    HW236677   6.266   5.794   1.588
 8216SOL     OW36678   5.661   5.931   0.033
 8216SOL    HW136679   5.569   5.903   0.004
 8216SOL    HW236680   5.692   6.008  -0.023
 8217SOL     OW36681   7.026   6.442   1.398
 8217SOL    HW136682   6.969   6.494   1.335
 8217SOL    HW236683   7.122   6.454   1.374
 8218SOL     OW36684   5.658   5.752   0.318
 8218SOL    HW136685   5.641   5.835   0.264
 8218SOL    HW236686   5.748   5.715   0.296
 8219SOL     OW36687   6.769   6.921   0.119
 8219SOL    HW136688   6.670   6.910   0.121
 8219SOL    HW236689   6.803   6.936   0.212
 8220SOL     OW36690   6.199   6.428   1.431
 8220SOL    HW136691   6.255   6.509   1.414
 8220SOL    HW236692   6.258   6.348   1.434
 8221SOL     OW36693   7.079   7.353   0.959
 8221SOL    HW136694   7.112   7.417   0.890
 8221SOL    HW236695   7.145   7.347   1.034
 8222SOL     OW36696   7.260   6.469   1.254
 8222SOL    HW136697   7.233   6.380   1.217
 8222SOL    HW236698   7.261   6.537   1.181
 8223SOL     OW36699   6.811   5.911   0.449
 8223SOL    HW136700   6.876   5.837   0.438
 8223SOL    HW236701   6.831   5.961   0.533
 8224SOL     OW36702   6.180   6.331   0.652
 8224SOL    HW136703   6.230   6.416   0.633
 8224SOL    HW236704   6.092   6.333   0.604
 8225SOL     OW36705   7.363   5.928   1.642
 8225SOL    HW136706   7.346   5.959   1.548
 8225SOL    HW236707   7.279   5.891   1.680
 8226SOL     OW36708   7.316   6.520   1.517
 8226SOL    HW136709   7.354   6.611   1.532
 8226SOL    HW236710   7.308   6.503   1.418
 8227SOL     OW36711   6.445   6.960   0.016
 8227SOL    HW136712   6.399   6.975   0.104
 8227SOL    HW236713   6.489   7.045  -0.014
 8228SOL     OW36714   6.247   7.376   0.953
 8228SOL    HW136715   6.201   7.464   0.940
 8228SOL    HW236716   6.346   7.388   0.946
 8229SOL     OW36717   6.445   6.542   0.861
 8229SOL    HW136718   6.499   6.473   0.909
 8229SOL    HW236719   6.413   6.611   0.927
 8230SOL     OW36720   6.669   6.570   0.087
 8230SOL    HW136721   6.646   6.623   0.005
 8230SOL    HW236722   6.750   6.514   0.068
 8231SOL     OW36723   7.447   7.155   0.851
 8231SOL    HW136724   7.376   7.143   0.781
 8231SOL    HW236725   7.448   7.076   0.911
 8232SOL     OW36726   5.665   6.826   0.653
 8232SOL    HW136727   5.664   6.779   0.741
 8232SOL    HW236728   5.747   6.798   0.602
 8233SOL     OW36729   6.258   6.977   1.624
 8233SOL    HW136730   6.180   6.927   1.662
 8233SOL    HW236731   6.255   7.072   1.655
 8234SOL     OW36732   7.410   5.778   1.227
 8234SOL    HW136733   7.406   5.688   1.271
 8234SOL    HW236734   7.413   5.767   1.128
 8235SOL     OW36735   6.014   6.010   0.520
 8235SOL    HW136736   6.044   5.938   0.458
 8235SOL    HW236737   5.975   5.970   0.603
 8236SOL     OW36738   7.291   7.073   1.104
 8236SOL    HW136739   7.198   7.048   1.077
 8236SOL    HW236740   7.317   7.023   1.186
 8237SOL     OW36741   5.903   6.133   1.280
 8237SOL    HW136742   5.941   6.074   1.352
 8237SOL    HW236743   5.943   6.107   1.192
 8238SOL     OW36744   6.398   7.172   0.687
 8238SOL    HW136745   6.430   7.182   0.593
 8238SOL    HW236746   6.319   7.110   0.689
 8239SOL     OW36747   7.010   5.800   1.112
 8239SOL    HW136748   7.062   5.735   1.167
 8239SOL    HW236749   6.961   5.863   1.173
 8240SOL     OW36750   6.587   5.620   1.154
 8240SOL    HW136751   6.524   5.548   1.123
 8240SOL    HW236752   6.680   5.584   1.154
 8241SOL     OW36753   6.356   6.916   0.301
 8241SOL    HW136754   6.310   6.829   0.318
 8241SOL    HW236755   6.447   6.913   0.342
 8242SOL     OW36756   6.204   7.153   1.284
 8242SOL    HW136757   6.199   7.235   1.341
 8242SOL    HW236758   6.293   7.150   1.239
 8243SOL     OW36759   6.938   5.638   0.168
 8243SOL    HW136760   6.973   5.597   0.084
 8243SOL    HW236761   6.848   5.600   0.188
 8244SOL     OW36762   6.886   6.039   0.691
 8244SOL    HW136763   6.827   6.119   0.695
 8244SOL    HW236764   6.901   6.004   0.784
 8245SOL     OW36765   7.179   5.807   0.882
 8245SOL    HW136766   7.095   5.806   0.936
 8245SOL    HW236767   7.181   5.890   0.826
 8246SOL     OW36768   5.625   6.663   0.300
 8246SOL    HW136769   5.724   6.652   0.291
 8246SOL    HW236770   5.585   6.577   0.332
 8247SOL     OW36771   6.461   7.232   0.337
 8247SOL    HW136772   6.384   7.197   0.283
 8247SOL    HW236773   6.429   7.303   0.399
 8248SOL     OW36774   5.816   6.214   1.975
 8248SOL    HW136775   5.723   6.212   2.012
 8248SOL    HW236776   5.817   6.175   1.883
 8249SOL     OW36777   7.141   7.097   2.565
 8249SOL    HW136778   7.084   7.081   2.646
 8249SOL    HW236779   7.082   7.107   2.485
 8250SOL     OW36780   6.721   6.289   2.579
 8250SOL    HW136781   6.778   6.367   2.554
 8250SOL    HW236782   6.661   6.315   2.655
 8251SOL     OW36783   7.341   6.193   2.093
 8251SOL    HW136784   7.329   6.180   1.994
 8251SOL    HW236785   7.311   6.112   2.142
 8252SOL     OW36786   6.271   6.598   2.527
 8252SOL    HW136787   6.340   6.582   2.597
 8252SOL    HW236788   6.198   6.655   2.565
 8253SOL     OW36789   7.046   7.091   3.201
 8253SOL    HW136790   7.070   7.185   3.227
 8253SOL    HW236791   7.030   7.037   3.283
 8254SOL     OW36792   6.024   5.978   3.361
 8254SOL    HW136793   6.106   5.922   3.370
 8254SOL    HW236794   5.943   5.920   3.365
 8255SOL     OW36795   5.817   7.299   2.345
 8255SOL    HW136796   5.851   7.376   2.399
 8255SOL    HW236797   5.861   7.299   2.255
 8256SOL     OW36798   7.253   7.300   2.434
 8256SOL    HW136799   7.212   7.277   2.346
 8256SOL    HW236800   7.235   7.226   2.499
 8257SOL     OW36801   6.184   6.315   2.132
 8257SOL    HW136802   6.208   6.384   2.064
 8257SOL    HW236803   6.106   6.348   2.186
 8258SOL     OW36804   6.980   6.055   3.536
 8258SOL    HW136805   6.960   6.098   3.624
 8258SOL    HW236806   7.058   5.993   3.545
 8259SOL     OW36807   6.577   5.996   3.104
 8259SOL    HW136808   6.500   6.030   3.158
 8259SOL    HW236809   6.543   5.945   3.025
 8260SOL     OW36810   6.136   5.782   2.747
 8260SOL    HW136811   6.131   5.777   2.847
 8260SOL    HW236812   6.138   5.878   2.718
 8261SOL     OW36813   6.047   6.852   3.589
 8261SOL    HW136814   5.997   6.853   3.503
 8261SOL    HW236815   5.984   6.834   3.665
 8262SOL     OW36816   6.697   7.362   2.099
 8262SOL    HW136817   6.637   7.300   2.149
 8262SOL    HW236818   6.728   7.318   2.014
 8263SOL     OW36819   6.367   5.850   3.611
 8263SOL    HW136820   6.434   5.789   3.654
 8263SOL    HW236821   6.294   5.869   3.676
 8264SOL     OW36822   6.474   7.100   3.057
 8264SOL    HW136823   6.451   7.075   2.963
 8264SOL    HW236824   6.535   7.031   3.096
 8265SOL     OW36825   6.508   6.089   2.761
 8265SOL    HW136826   6.483   6.080   2.665
 8265SOL    HW236827   6.556   6.007   2.792
 8266SOL     OW36828   7.020   6.774   1.903
 8266SOL    HW136829   7.052   6.698   1.960
 8266SOL    HW236830   6.928   6.801   1.933
 8267SOL     OW36831   6.662   6.269   3.326
 8267SOL    HW136832   6.582   6.208   3.329
 8267SOL    HW236833   6.743   6.216   3.302
 8268SOL     OW36834   6.857   7.383   2.453
 8268SOL    HW136835   6.901   7.447   2.389
 8268SOL    HW236836   6.807   7.435   2.523
 8269SOL     OW36837   5.664   6.142   3.248
 8269SOL    HW136838   5.756   6.141   3.207
 8269SOL    HW236839   5.658   6.216   3.315
 8270SOL     OW36840   6.147   5.808   3.009
 8270SOL    HW136841   6.185   5.724   3.046
 8270SOL    HW236842   6.059   5.827   3.053
 8271SOL     OW36843   6.452   6.040   2.504
 8271SOL    HW136844   6.420   6.112   2.442
 8271SOL    HW236845   6.476   5.959   2.451
 8272SOL     OW36846   7.052   6.176   2.854
 8272SOL    HW136847   7.022   6.081   2.861
 8272SOL    HW236848   7.125   6.192   2.920
 8273SOL     OW36849   7.250   6.866   2.519
 8273SOL    HW136850   7.349   6.874   2.533
 8273SOL    HW236851   7.205   6.950   2.550
 8274SOL     OW36852   6.976   6.161   1.940
 8274SOL    HW136853   6.922   6.140   2.021
 8274SOL    HW236854   7.067   6.120   1.949
 8275SOL     OW36855   6.113   5.842   2.190
 8275SOL    HW136856   6.140   5.783   2.115
 8275SOL    HW236857   6.113   5.937   2.159
 8276SOL     OW36858   7.340   6.809   3.450
 8276SOL    HW136859   7.431   6.770   3.437
 8276SOL    HW236860   7.348   6.905   3.474
 8277SOL     OW36861   6.650   6.933   3.202
 8277SOL    HW136862   6.570   6.910   3.257
 8277SOL    HW236863   6.733   6.907   3.251
 8278SOL     OW36864   6.697   6.781   2.962
 8278SOL    HW136865   6.657   6.825   3.043
 8278SOL    HW236866   6.656   6.818   2.879
 8279SOL     OW36867   7.224   6.685   2.941
 8279SOL    HW136868   7.229   6.766   3.000
 8279SOL    HW236869   7.138   6.687   2.890
 8280SOL     OW36870   7.173   6.365   3.532
 8280SOL    HW136871   7.081   6.403   3.527
 8280SOL    HW236872   7.233   6.412   3.467
 8281SOL     OW36873   6.599   5.691   3.632
 8281SOL    HW136874   6.605   5.776   3.580
 8281SOL    HW236875   6.631   5.615   3.575
 8282SOL     OW36876   6.946   6.448   2.907
 8282SOL    HW136877   6.871   6.448   2.841
 8282SOL    HW236878   6.983   6.356   2.916
 8283SOL     OW36879   6.318   6.220   2.926
 8283SOL    HW136880   6.377   6.194   2.850
 8283SOL    HW236881   6.290   6.316   2.915
 8284SOL     OW36882   7.314   6.521   3.716
 8284SOL    HW136883   7.268   6.514   3.627
 8284SOL    HW236884   7.252   6.565   3.782
 8285SOL     OW36885   7.445   7.104   3.467
 8285SOL    HW136886   7.459   7.131   3.372
 8285SOL    HW236887   7.528   7.126   3.520
 8286SOL     OW36888   7.126   5.860   1.987
 8286SOL    HW136889   7.065   5.785   2.010
 8286SOL    HW236890   7.148   5.912   2.070
 8287SOL     OW36891   6.654   6.919   2.711
 8287SOL    HW136892   6.661   6.835   2.656
 8287SOL    HW236893   6.716   6.988   2.675
 8288SOL     OW36894   5.775   6.106   3.584
 8288SOL    HW136895   5.834   6.066   3.514
 8288SOL    HW236896   5.717   6.177   3.543
 8289SOL     OW36897   7.243   6.190   3.068
 8289SOL    HW136898   7.205   6.121   3.130
 8289SOL    HW236899   7.325   6.154   3.024
 8290SOL     OW36900   5.838   7.150   3.606
 8290SOL    HW136901   5.808   7.207   3.682
 8290SOL    HW236902   5.831   7.053   3.632
 8291SOL     OW36903   6.516   7.264   3.327
 8291SOL    HW136904   6.492   7.246   3.232
 8291SOL    HW236905   6.546   7.358   3.337
 8292SOL     OW36906   6.059   6.086   2.053
 8292SOL    HW136907   6.120   6.166   2.057
 8292SOL    HW236908   5.964   6.117   2.060
 8293SOL     OW36909   5.745   6.723   3.328
 8293SOL    HW136910   5.767   6.662   3.404
 8293SOL    HW236911   5.755   6.674   3.242
 8294SOL     OW36912   6.933   6.645   3.096
 8294SOL    HW136913   6.957   6.582   3.022
 8294SOL    HW236914   6.843   6.685   3.078
 8295SOL     OW36915   6.974   7.159   2.339
 8295SOL    HW136916   7.041   7.171   2.265
 8295SOL    HW236917   6.934   7.248   2.362
 8296SOL     OW36918   5.716   7.380   3.713
 8296SOL    HW136919   5.675   7.306   3.766
 8296SOL    HW236920   5.780   7.431   3.771
 8297SOL     OW36921   7.236   7.306   3.256
 8297SOL    HW136922   7.289   7.316   3.172
 8297SOL    HW236923   7.209   7.396   3.290
 8298SOL     OW36924   6.780   7.198   1.893
 8298SOL    HW136925   6.786   7.105   1.930
 8298SOL    HW236926   6.721   7.198   1.813
 8299SOL     OW36927   7.026   6.442   3.260
 8299SOL    HW136928   6.969   6.494   3.197
 8299SOL    HW236929   7.122   6.454   3.236
 8300SOL     OW36930   6.199   6.428   3.293
 8300SOL    HW136931   6.255   6.509   3.276
 8300SOL    HW236932   6.258   6.348   3.296
 8301SOL     OW36933   5.976   7.327   3.422
 8301SOL    HW136934   5.885   7.368   3.420
 8301SOL    HW236935   5.969   7.233   3.454
 8302SOL     OW36936   7.316   6.520   3.379
 8302SOL    HW136937   7.354   6.611   3.394
 8302SOL    HW236938   7.308   6.503   3.280
 8303SOL     OW36939   5.665   6.826   2.515
 8303SOL    HW136940   5.664   6.779   2.603
 8303SOL    HW236941   5.747   6.798   2.464
 8304SOL     OW36942   7.410   5.778   3.089
 8304SOL    HW136943   7.406   5.688   3.133
 8304SOL    HW236944   7.413   5.767   2.990
 8305SOL     OW36945   7.010   5.800   2.974
 8305SOL    HW136946   7.062   5.735   3.029
 8305SOL    HW236947   6.961   5.863   3.035
 8306SOL     OW36948   6.587   5.620   3.016
 8306SOL    HW136949   6.524   5.548   2.985
 8306SOL    HW236950   6.680   5.584   3.016
 8307SOL     OW36951   6.938   5.638   2.030
 8307SOL    HW136952   6.973   5.597   1.946
 8307SOL    HW236953   6.848   5.600   2.050
 8308SOL     OW36954   6.886   6.039   2.553
 8308SOL    HW136955   6.827   6.119   2.557
 8308SOL    HW236956   6.901   6.004   2.646
 8309SOL     OW36957   6.155   6.861   4.889
 8309SOL    HW136958   6.062   6.854   4.852
 8309SOL    HW236959   6.166   6.950   4.933
 8310SOL     OW36960   6.436   6.384   5.547
 8310SOL    HW136961   6.432   6.460   5.612
 8310SOL    HW236962   6.458   6.420   5.456
 8311SOL     OW36963   6.272   6.747   5.527
 8311SOL    HW136964   6.332   6.826   5.541
 8311SOL    HW236965   6.186   6.778   5.486
 8312SOL     OW36966   7.189   6.033   4.461
 8312SOL    HW136967   7.115   6.079   4.411
 8312SOL    HW236968   7.240   6.101   4.514
 8313SOL     OW36969   5.817   7.299   4.207
 8313SOL    HW136970   5.851   7.376   4.261
 8313SOL    HW236971   5.861   7.299   4.117
 8314SOL     OW36972   6.713   6.927   5.414
 8314SOL    HW136973   6.760   6.927   5.502
 8314SOL    HW236974   6.665   6.840   5.403
 8315SOL     OW36975   6.206   7.372   5.163
 8315SOL    HW136976   6.114   7.355   5.198
 8315SOL    HW236977   6.234   7.464   5.189
 8316SOL     OW36978   7.180   5.700   5.204
 8316SOL    HW136979   7.162   5.767   5.132
 8316SOL    HW236980   7.177   5.746   5.293
 8317SOL     OW36981   5.708   6.229   4.287
 8317SOL    HW136982   5.663   6.141   4.304
 8317SOL    HW236983   5.707   6.283   4.371
 8318SOL     OW36984   5.613   7.182   3.841
 8318SOL    HW136985   5.594   7.086   3.862
 8318SOL    HW236986   5.580   7.240   3.916
 8319SOL     OW36987   7.275   6.508   4.336
 8319SOL    HW136988   7.370   6.479   4.344
 8319SOL    HW236989   7.267   6.573   4.261
 8320SOL     OW36990   7.227   6.694   4.156
 8320SOL    HW136991   7.313   6.696   4.104
 8320SOL    HW236992   7.241   6.741   4.244
 8321SOL     OW36993   5.699   6.323   5.321
 8321SOL    HW136994   5.787   6.310   5.366
 8321SOL    HW236995   5.686   6.420   5.299
 8322SOL     OW36996   6.199   6.951   4.450
 8322SOL    HW136997   6.150   6.864   4.459
 8322SOL    HW236998   6.176   6.994   4.363
 8323SOL     OW36999   6.879   6.814   5.147
 8323SOL    HW137000   6.916   6.741   5.089
 8323SOL    HW237001   6.931   6.819   5.232
 8324SOL     OW37002   6.395   5.590   4.226
 8324SOL    HW137003   6.435   5.681   4.217
 8324SOL    HW237004   6.295   5.598   4.232
 8325SOL     OW37005   6.773   7.378   5.340
 8325SOL    HW137006   6.797   7.438   5.264
 8325SOL    HW237007   6.780   7.283   5.310
 8326SOL     OW37008   6.980   6.055   5.398
 8326SOL    HW137009   6.960   6.098   5.486
 8326SOL    HW237010   7.058   5.993   5.407
 8327SOL     OW37011   5.662   6.397   4.513
 8327SOL    HW137012   5.761   6.385   4.522
 8327SOL    HW237013   5.638   6.492   4.534
 8328SOL     OW37014   5.716   7.407   5.295
 8328SOL    HW137015   5.706   7.392   5.394
 8328SOL    HW237016   5.630   7.443   5.259
 8329SOL     OW37017   7.305   6.171   5.555
 8329SOL    HW137018   7.279   6.260   5.519
 8329SOL    HW237019   7.303   6.103   5.482
 8330SOL     OW37020   6.047   6.852   5.451
 8330SOL    HW137021   5.997   6.853   5.365
 8330SOL    HW237022   5.984   6.834   5.527
 8331SOL     OW37023   5.788   5.871   5.222
 8331SOL    HW137024   5.708   5.931   5.209
 8331SOL    HW237025   5.778   5.822   5.308
 8332SOL     OW37026   6.050   7.329   4.047
 8332SOL    HW137027   6.083   7.368   4.133
 8332SOL    HW237028   6.126   7.322   3.982
 8333SOL     OW37029   5.835   7.371   4.965
 8333SOL    HW137030   5.892   7.306   5.015
 8333SOL    HW237031   5.819   7.338   4.872
 8334SOL     OW37032   7.133   5.808   5.453
 8334SOL    HW137033   7.128   5.845   5.545
 8334SOL    HW237034   7.061   5.739   5.441
 8335SOL     OW37035   6.367   5.850   5.473
 8335SOL    HW137036   6.434   5.789   5.516
 8335SOL    HW237037   6.294   5.869   5.538
 8336SOL     OW37038   6.937   6.176   5.157
 8336SOL    HW137039   6.965   6.133   5.242
 8336SOL    HW237040   6.962   6.272   5.158
 8337SOL     OW37041   6.389   6.988   4.648
 8337SOL    HW137042   6.479   7.002   4.606
 8337SOL    HW237043   6.318   6.990   4.577
 8338SOL     OW37044   5.664   6.142   5.110
 8338SOL    HW137045   5.756   6.141   5.069
 8338SOL    HW237046   5.658   6.216   5.177
 8339SOL     OW37047   6.603   5.625   4.477
 8339SOL    HW137048   6.531   5.630   4.408
 8339SOL    HW237049   6.579   5.556   4.546
 8340SOL     OW37050   7.015   6.759   4.591
 8340SOL    HW137051   6.960   6.675   4.584
 8340SOL    HW237052   7.041   6.788   4.499
 8341SOL     OW37053   6.074   6.971   3.898
 8341SOL    HW137054   5.987   6.956   3.945
 8341SOL    HW237055   6.057   6.997   3.803
 8342SOL     OW37056   6.113   5.842   4.052
 8342SOL    HW137057   6.140   5.783   3.977
 8342SOL    HW237058   6.113   5.937   4.021
 8343SOL     OW37059   5.996   6.399   4.975
 8343SOL    HW137060   6.082   6.411   5.025
 8343SOL    HW237061   5.954   6.312   5.002
 8344SOL     OW37062   5.953   6.686   4.225
 8344SOL    HW137063   5.946   6.769   4.169
 8344SOL    HW237064   5.957   6.606   4.165
 8345SOL     OW37065   6.838   6.934   4.112
 8345SOL    HW137066   6.888   7.011   4.152
 8345SOL    HW237067   6.743   6.936   4.144
 8346SOL     OW37068   6.858   7.031   4.866
 8346SOL    HW137069   6.905   7.044   4.953
 8346SOL    HW237070   6.792   6.957   4.875
 8347SOL     OW37071   5.988   6.337   5.322
 8347SOL    HW137072   6.056   6.392   5.275
 8347SOL    HW237073   6.028   6.249   5.349
 8348SOL     OW37074   6.599   5.691   5.494
 8348SOL    HW137075   6.605   5.776   5.442
 8348SOL    HW237076   6.631   5.615   5.437
 8349SOL     OW37077   6.090   5.636   5.464
 8349SOL    HW137078   6.048   5.579   5.394
 8349SOL    HW237079   6.024   5.705   5.496
 8350SOL     OW37080   5.893   5.799   4.955
 8350SOL    HW137081   5.870   5.836   5.045
 8350SOL    HW237082   5.863   5.704   4.949
 8351SOL     OW37083   7.314   6.521   5.578
 8351SOL    HW137084   7.268   6.514   5.489
 8351SOL    HW237085   7.252   6.565   5.644
 8352SOL     OW37086   6.566   7.159   5.424
 8352SOL    HW137087   6.546   7.203   5.336
 8352SOL    HW237088   6.605   7.068   5.408
 8353SOL     OW37089   5.936   6.484   5.528
 8353SOL    HW137090   6.012   6.528   5.576
 8353SOL    HW237091   5.971   6.437   5.446
 8354SOL     OW37092   7.126   5.860   3.849
 8354SOL    HW137093   7.065   5.785   3.872
 8354SOL    HW237094   7.148   5.912   3.932
 8355SOL     OW37095   5.925   6.095   4.730
 8355SOL    HW137096   5.873   6.012   4.713
 8355SOL    HW237097   6.002   6.100   4.666
 8356SOL     OW37098   6.090   7.154   4.634
 8356SOL    HW137099   6.156   7.228   4.643
 8356SOL    HW237100   6.134   7.075   4.592
 8357SOL     OW37101   5.775   6.106   5.446
 8357SOL    HW137102   5.834   6.066   5.376
 8357SOL    HW237103   5.717   6.177   5.405
 8358SOL     OW37104   5.838   7.150   5.468
 8358SOL    HW137105   5.808   7.207   5.544
 8358SOL    HW237106   5.831   7.053   5.494
 8359SOL     OW37107   6.257   6.050   4.993
 8359SOL    HW137108   6.223   5.961   4.963
 8359SOL    HW237109   6.283   6.104   4.913
 8360SOL     OW37110   6.059   6.086   3.915
 8360SOL    HW137111   6.120   6.166   3.919
 8360SOL    HW237112   5.964   6.117   3.922
 8361SOL     OW37113   6.933   6.645   4.958
 8361SOL    HW137114   6.957   6.582   4.884
 8361SOL    HW237115   6.843   6.685   4.940
 8362SOL     OW37116   6.274   7.248   5.440
 8362SOL    HW137117   6.218   7.329   5.449
 8362SOL    HW237118   6.326   7.252   5.354
 8363SOL     OW37119   6.974   7.159   4.201
 8363SOL    HW137120   7.041   7.171   4.127
 8363SOL    HW237121   6.934   7.248   4.224
 8364SOL     OW37122   5.716   7.380   5.575
 8364SOL    HW137123   5.675   7.306   5.628
 8364SOL    HW237124   5.780   7.431   5.633
 8365SOL     OW37125   6.416   6.859   5.146
 8365SOL    HW137126   6.411   6.892   5.241
 8365SOL    HW237127   6.330   6.878   5.100
 8366SOL     OW37128   6.258   7.202   3.878
 8366SOL    HW137129   6.267   7.212   3.779
 8366SOL    HW237130   6.218   7.113   3.899
 8367SOL     OW37131   7.427   5.761   4.687
 8367SOL    HW137132   7.466   5.676   4.651
 8367SOL    HW237133   7.329   5.763   4.668
 8368SOL     OW37134   5.849   5.912   4.444
 8368SOL    HW137135   5.770   5.963   4.410
 8368SOL    HW237136   5.840   5.897   4.542
 8369SOL     OW37137   6.780   7.198   3.755
 8369SOL    HW137138   6.786   7.105   3.792
 8369SOL    HW237139   6.721   7.198   3.675
 8370SOL     OW37140   6.502   6.496   4.015
 8370SOL    HW137141   6.565   6.534   3.947
 8370SOL    HW237142   6.542   6.413   4.054
 8371SOL     OW37143   7.295   5.971   5.105
 8371SOL    HW137144   7.368   6.040   5.109
 8371SOL    HW237145   7.323   5.896   5.046
 8372SOL     OW37146   5.691   6.599   5.450
 8372SOL    HW137147   5.614   6.566   5.504
 8372SOL    HW237148   5.776   6.569   5.492
 8373SOL     OW37149   5.661   5.931   3.757
 8373SOL    HW137150   5.569   5.903   3.728
 8373SOL    HW237151   5.692   6.008   3.701
 8374SOL     OW37152   7.026   6.442   5.122
 8374SOL    HW137153   6.969   6.494   5.059
 8374SOL    HW237154   7.122   6.454   5.098
 8375SOL     OW37155   7.260   6.469   4.978
 8375SOL    HW137156   7.233   6.380   4.941
 8375SOL    HW237157   7.261   6.537   4.905
 8376SOL     OW37158   7.363   5.928   5.366
 8376SOL    HW137159   7.346   5.959   5.272
 8376SOL    HW237160   7.279   5.891   5.404
 8377SOL     OW37161   7.316   6.520   5.241
 8377SOL    HW137162   7.354   6.611   5.256
 8377SOL    HW237163   7.308   6.503   5.142
 8378SOL     OW37164   6.445   6.542   4.585
 8378SOL    HW137165   6.499   6.473   4.633
 8378SOL    HW237166   6.413   6.611   4.651
 8379SOL     OW37167   7.447   7.155   4.575
 8379SOL    HW137168   7.376   7.143   4.505
 8379SOL    HW237169   7.448   7.076   4.635
 8380SOL     OW37170   5.807   6.900   5.568
 8380SOL    HW137171   5.742   6.827   5.547
 8380SOL    HW237172   5.811   6.914   5.666
 8381SOL     OW37173   5.665   6.826   4.377
 8381SOL    HW137174   5.664   6.779   4.465
 8381SOL    HW237175   5.747   6.798   4.326
 8382SOL     OW37176   6.258   6.977   5.348
 8382SOL    HW137177   6.180   6.927   5.386
 8382SOL    HW237178   6.255   7.072   5.379
 8383SOL     OW37179   7.410   5.778   4.951
 8383SOL    HW137180   7.406   5.688   4.995
 8383SOL    HW237181   7.413   5.767   4.852
 8384SOL     OW37182   5.903   6.133   5.004
 8384SOL    HW137183   5.941   6.074   5.076
 8384SOL    HW237184   5.943   6.107   4.916
 8385SOL     OW37185   6.398   7.172   4.411
 8385SOL    HW137186   6.430   7.182   4.317
 8385SOL    HW237187   6.319   7.110   4.413
 8386SOL     OW37188   6.356   6.916   4.025
 8386SOL    HW137189   6.310   6.829   4.042
 8386SOL    HW237190   6.447   6.913   4.066
 8387SOL     OW37191   6.886   6.039   4.415
 8387SOL    HW137192   6.827   6.119   4.419
 8387SOL    HW237193   6.901   6.004   4.508
 8388SOL     OW37194   7.179   5.807   4.606
 8388SOL    HW137195   7.095   5.806   4.660
 8388SOL    HW237196   7.181   5.890   4.550
 8389SOL     OW37197   5.816   6.214   5.699
 8389SOL    HW137198   5.723   6.212   5.736
 8389SOL    HW237199   5.817   6.175   5.607
 8390SOL     OW37200   5.811   5.861   6.582
 8390SOL    HW137201   5.846   5.844   6.674
 8390SOL    HW237202   5.723   5.816   6.570
 8391SOL     OW37203   5.605   5.954   6.233
 8391SOL    HW137204   5.523   5.997   6.272
 8391SOL    HW237205   5.577   5.881   6.170
 8392SOL     OW37206   6.155   6.861   6.751
 8392SOL    HW137207   6.062   6.854   6.714
 8392SOL    HW237208   6.166   6.950   6.795
 8393SOL     OW37209   7.141   7.097   6.289
 8393SOL    HW137210   7.084   7.081   6.370
 8393SOL    HW237211   7.082   7.107   6.209
 8394SOL     OW37212   6.721   6.289   6.303
 8394SOL    HW137213   6.778   6.367   6.278
 8394SOL    HW237214   6.661   6.315   6.379
 8395SOL     OW37215   7.341   6.193   5.817
 8395SOL    HW137216   7.329   6.180   5.718
 8395SOL    HW237217   7.311   6.112   5.866
 8396SOL     OW37218   6.354   6.730   6.609
 8396SOL    HW137219   6.276   6.747   6.669
 8396SOL    HW237220   6.388   6.817   6.573
 8397SOL     OW37221   6.271   6.598   6.251
 8397SOL    HW137222   6.340   6.582   6.321
 8397SOL    HW237223   6.198   6.655   6.289
 8398SOL     OW37224   5.921   7.021   6.647
 8398SOL    HW137225   5.843   6.990   6.594
 8398SOL    HW237226   5.979   7.079   6.590
 8399SOL     OW37227   6.024   5.978   7.085
 8399SOL    HW137228   6.106   5.922   7.094
 8399SOL    HW237229   5.943   5.920   7.089
 8400SOL     OW37230   7.189   6.033   6.323
 8400SOL    HW137231   7.115   6.079   6.273
 8400SOL    HW237232   7.240   6.101   6.376
 8401SOL     OW37233   5.817   7.299   6.069
 8401SOL    HW137234   5.851   7.376   6.123
 8401SOL    HW237235   5.861   7.299   5.979
 8402SOL     OW37236   5.816   7.020   6.124
 8402SOL    HW137237   5.790   7.116   6.124
 8402SOL    HW237238   5.745   6.966   6.169
 8403SOL     OW37239   5.826   6.677   6.472
 8403SOL    HW137240   5.840   6.593   6.524
 8403SOL    HW237241   5.771   6.741   6.527
 8404SOL     OW37242   6.206   7.372   7.025
 8404SOL    HW137243   6.114   7.355   7.060
 8404SOL    HW237244   6.234   7.464   7.051
 8405SOL     OW37245   6.192   6.550   5.709
 8405SOL    HW137246   6.199   6.634   5.655
 8405SOL    HW237247   6.238   6.563   5.797
 8406SOL     OW37248   5.708   6.229   6.149
 8406SOL    HW137249   5.663   6.141   6.166
 8406SOL    HW237250   5.707   6.283   6.233
 8407SOL     OW37251   7.428   7.353   5.945
 8407SOL    HW137252   7.482   7.324   6.025
 8407SOL    HW237253   7.458   7.443   5.916
 8408SOL     OW37254   5.613   7.182   5.703
 8408SOL    HW137255   5.594   7.086   5.724
 8408SOL    HW237256   5.580   7.240   5.778
 8409SOL     OW37257   7.275   6.508   6.198
 8409SOL    HW137258   7.370   6.479   6.206
 8409SOL    HW237259   7.267   6.573   6.123
 8410SOL     OW37260   7.227   6.694   6.018
 8410SOL    HW137261   7.313   6.696   5.966
 8410SOL    HW237262   7.241   6.741   6.106
 8411SOL     OW37263   6.199   6.951   6.312
 8411SOL    HW137264   6.150   6.864   6.321
 8411SOL    HW237265   6.176   6.994   6.225
 8412SOL     OW37266   6.395   5.590   6.088
 8412SOL    HW137267   6.435   5.681   6.079
 8412SOL    HW237268   6.295   5.598   6.094
 8413SOL     OW37269   5.783   6.562   6.850
 8413SOL    HW137270   5.872   6.517   6.836
 8413SOL    HW237271   5.710   6.497   6.831
 8414SOL     OW37272   7.111   6.585   5.776
 8414SOL    HW137273   7.048   6.509   5.789
 8414SOL    HW237274   7.159   6.603   5.862
 8415SOL     OW37275   7.052   7.003   6.539
 8415SOL    HW137276   6.993   7.009   6.619
 8415SOL    HW237277   7.037   6.915   6.493
 8416SOL     OW37278   7.253   7.300   6.158
 8416SOL    HW137279   7.212   7.277   6.070
 8416SOL    HW237280   7.235   7.226   6.223
 8417SOL     OW37281   6.184   6.315   5.856
 8417SOL    HW137282   6.208   6.384   5.788
 8417SOL    HW237283   6.106   6.348   5.910
 8418SOL     OW37284   6.867   5.931   6.530
 8418SOL    HW137285   6.781   5.881   6.517
 8418SOL    HW237286   6.929   5.877   6.586
 8419SOL     OW37287   7.162   7.248   5.893
 8419SOL    HW137288   7.251   7.294   5.896
 8419SOL    HW237289   7.141   7.224   5.798
 8420SOL     OW37290   6.393   6.191   7.051
 8420SOL    HW137291   6.346   6.188   7.140
 8420SOL    HW237292   6.342   6.136   6.985
 8421SOL     OW37293   6.577   5.996   6.828
 8421SOL    HW137294   6.500   6.030   6.882
 8421SOL    HW237295   6.543   5.945   6.749
 8422SOL     OW37296   6.627   6.287   6.015
 8422SOL    HW137297   6.653   6.283   6.111
 8422SOL    HW237298   6.542   6.236   6.001
 8423SOL     OW37299   5.662   6.397   6.375
 8423SOL    HW137300   5.761   6.385   6.384
 8423SOL    HW237301   5.638   6.492   6.396
 8424SOL     OW37302   5.716   7.407   7.157
 8424SOL    HW137303   5.706   7.392   7.256
 8424SOL    HW237304   5.630   7.443   7.121
 8425SOL     OW37305   6.451   5.934   5.781
 8425SOL    HW137306   6.510   5.997   5.732
 8425SOL    HW237307   6.470   5.840   5.752
 8426SOL     OW37308   6.948   6.730   6.131
 8426SOL    HW137309   7.031   6.701   6.083
 8426SOL    HW237310   6.899   6.797   6.075
 8427SOL     OW37311   6.136   5.782   6.471
 8427SOL    HW137312   6.131   5.777   6.571
 8427SOL    HW237313   6.138   5.878   6.442
 8428SOL     OW37314   6.594   7.042   6.063
 8428SOL    HW137315   6.548   7.114   6.011
 8428SOL    HW237316   6.590   7.062   6.161
 8429SOL     OW37317   5.937   7.387   6.439
 8429SOL    HW137318   5.987   7.301   6.445
 8429SOL    HW237319   6.002   7.464   6.436
 8430SOL     OW37320   7.381   6.652   6.459
 8430SOL    HW137321   7.319   6.637   6.383
 8430SOL    HW237322   7.329   6.663   6.544
 8431SOL     OW37323   5.907   6.529   5.828
 8431SOL    HW137324   5.989   6.568   5.786
 8431SOL    HW237325   5.880   6.447   5.779
 8432SOL     OW37326   7.044   6.321   6.314
 8432SOL    HW137327   7.039   6.256   6.389
 8432SOL    HW237328   7.124   6.380   6.327
 8433SOL     OW37329   6.697   7.362   5.823
 8433SOL    HW137330   6.637   7.300   5.873
 8433SOL    HW237331   6.728   7.318   5.738
 8434SOL     OW37332   6.050   7.329   5.909
 8434SOL    HW137333   6.083   7.368   5.995
 8434SOL    HW237334   6.126   7.322   5.844
 8435SOL     OW37335   6.986   5.693   6.012
 8435SOL    HW137336   6.962   5.656   5.922
 8435SOL    HW237337   7.085   5.709   6.016
 8436SOL     OW37338   5.835   7.371   6.827
 8436SOL    HW137339   5.892   7.306   6.877
 8436SOL    HW237340   5.819   7.338   6.734
 8437SOL     OW37341   6.526   7.284   6.490
 8437SOL    HW137342   6.606   7.227   6.511
 8437SOL    HW237343   6.477   7.244   6.413
 8438SOL     OW37344   5.968   6.286   6.066
 8438SOL    HW137345   6.013   6.196   6.063
 8438SOL    HW237346   5.874   6.275   6.099
 8439SOL     OW37347   6.200   5.708   5.703
 8439SOL    HW137348   6.298   5.686   5.710
 8439SOL    HW237349   6.169   5.691   5.610
 8440SOL     OW37350   6.474   7.100   6.781
 8440SOL    HW137351   6.451   7.075   6.687
 8440SOL    HW237352   6.535   7.031   6.820
 8441SOL     OW37353   6.389   6.988   6.510
 8441SOL    HW137354   6.479   7.002   6.468
 8441SOL    HW237355   6.318   6.990   6.439
 8442SOL     OW37356   6.508   6.089   6.485
 8442SOL    HW137357   6.483   6.080   6.389
 8442SOL    HW237358   6.556   6.007   6.516
 8443SOL     OW37359   6.125   5.650   6.098
 8443SOL    HW137360   6.044   5.651   6.156
 8443SOL    HW237361   6.128   5.733   6.043
 8444SOL     OW37362   6.521   5.822   6.066
 8444SOL    HW137363   6.473   5.863   5.988
 8444SOL    HW237364   6.620   5.820   6.047
 8445SOL     OW37365   6.813   7.156   6.379
 8445SOL    HW137366   6.834   7.230   6.314
 8445SOL    HW237367   6.881   7.156   6.452
 8446SOL     OW37368   6.045   6.738   6.327
 8446SOL    HW137369   5.974   6.711   6.392
 8446SOL    HW237370   6.019   6.710   6.234
 8447SOL     OW37371   6.857   7.383   6.177
 8447SOL    HW137372   6.901   7.447   6.113
 8447SOL    HW237373   6.807   7.435   6.247
 8448SOL     OW37374   6.618   6.135   5.602
 8448SOL    HW137375   6.577   6.217   5.563
 8448SOL    HW237376   6.682   6.161   5.675
 8449SOL     OW37377   6.147   5.808   6.733
 8449SOL    HW137378   6.185   5.724   6.770
 8449SOL    HW237379   6.059   5.827   6.777
 8450SOL     OW37380   6.452   6.040   6.228
 8450SOL    HW137381   6.420   6.112   6.166
 8450SOL    HW237382   6.476   5.959   6.175
 8451SOL     OW37383   6.603   5.625   6.339
 8451SOL    HW137384   6.531   5.630   6.270
 8451SOL    HW237385   6.579   5.556   6.408
 8452SOL     OW37386   7.015   6.759   6.453
 8452SOL    HW137387   6.960   6.675   6.446
 8452SOL    HW237388   7.041   6.788   6.361
 8453SOL     OW37389   7.052   6.176   6.578
 8453SOL    HW137390   7.022   6.081   6.585
 8453SOL    HW237391   7.125   6.192   6.644
 8454SOL     OW37392   7.443   6.419   5.963
 8454SOL    HW137393   7.485   6.355   6.027
 8454SOL    HW237394   7.405   6.368   5.885
 8455SOL     OW37395   6.074   6.971   5.760
 8455SOL    HW137396   5.987   6.956   5.807
 8455SOL    HW237397   6.057   6.997   5.665
 8456SOL     OW37398   7.250   6.866   6.243
 8456SOL    HW137399   7.349   6.874   6.257
 8456SOL    HW237400   7.205   6.950   6.274
 8457SOL     OW37401   6.976   6.161   5.664
 8457SOL    HW137402   6.922   6.140   5.745
 8457SOL    HW237403   7.067   6.120   5.673
 8458SOL     OW37404   6.113   5.842   5.914
 8458SOL    HW137405   6.140   5.783   5.839
 8458SOL    HW237406   6.113   5.937   5.883
 8459SOL     OW37407   6.650   6.933   6.926
 8459SOL    HW137408   6.570   6.910   6.981
 8459SOL    HW237409   6.733   6.907   6.975
 8460SOL     OW37410   6.697   6.781   6.686
 8460SOL    HW137411   6.657   6.825   6.767
 8460SOL    HW237412   6.656   6.818   6.603
 8461SOL     OW37413   7.224   6.685   6.665
 8461SOL    HW137414   7.229   6.766   6.724
 8461SOL    HW237415   7.138   6.687   6.614
 8462SOL     OW37416   6.291   6.636   5.954
 8462SOL    HW137417   6.277   6.643   6.053
 8462SOL    HW237418   6.375   6.585   5.936
 8463SOL     OW37419   5.996   6.399   6.837
 8463SOL    HW137420   6.082   6.411   6.887
 8463SOL    HW237421   5.954   6.312   6.864
 8464SOL     OW37422   6.860   5.972   6.848
 8464SOL    HW137423   6.881   6.046   6.912
 8464SOL    HW237424   6.771   5.989   6.805
 8465SOL     OW37425   5.650   7.150   6.917
 8465SOL    HW137426   5.604   7.232   6.883
 8465SOL    HW237427   5.748   7.169   6.926
 8466SOL     OW37428   5.953   6.686   6.087
 8466SOL    HW137429   5.946   6.769   6.031
 8466SOL    HW237430   5.957   6.606   6.027
 8467SOL     OW37431   6.152   6.123   6.451
 8467SOL    HW137432   6.164   6.189   6.377
 8467SOL    HW237433   6.198   6.157   6.534
 8468SOL     OW37434   6.838   6.934   5.974
 8468SOL    HW137435   6.888   7.011   6.014
 8468SOL    HW237436   6.743   6.936   6.006
 8469SOL     OW37437   6.858   7.031   6.728
 8469SOL    HW137438   6.905   7.044   6.815
 8469SOL    HW237439   6.792   6.957   6.737
 8470SOL     OW37440   7.168   6.225   6.058
 8470SOL    HW137441   7.137   6.286   6.131
 8470SOL    HW237442   7.218   6.277   5.989
 8471SOL     OW37443   5.940   7.096   6.915
 8471SOL    HW137444   5.919   7.052   6.828
 8471SOL    HW237445   6.037   7.122   6.918
 8472SOL     OW37446   6.090   5.636   7.326
 8472SOL    HW137447   6.048   5.579   7.256
 8472SOL    HW237448   6.024   5.705   7.358
 8473SOL     OW37449   6.159   6.456   6.615
 8473SOL    HW137450   6.203   6.545   6.606
 8473SOL    HW237451   6.096   6.456   6.692
 8474SOL     OW37452   6.946   6.448   6.631
 8474SOL    HW137453   6.871   6.448   6.565
 8474SOL    HW237454   6.983   6.356   6.640
 8475SOL     OW37455   6.795   6.111   5.861
 8475SOL    HW137456   6.808   6.027   5.915
 8475SOL    HW237457   6.766   6.185   5.921
 8476SOL     OW37458   5.893   5.799   6.817
 8476SOL    HW137459   5.870   5.836   6.907
 8476SOL    HW237460   5.863   5.704   6.811
 8477SOL     OW37461   5.623   6.896   6.868
 8477SOL    HW137462   5.676   6.847   6.936
 8477SOL    HW237463   5.645   6.994   6.873
 8478SOL     OW37464   6.318   6.220   6.650
 8478SOL    HW137465   6.377   6.194   6.574
 8478SOL    HW237466   6.290   6.316   6.639
 8479SOL     OW37467   5.893   5.649   6.204
 8479SOL    HW137468   5.882   5.743   6.237
 8479SOL    HW237469   5.888   5.586   6.281
 8480SOL     OW37470   7.208   5.953   5.960
 8480SOL    HW137471   7.210   5.877   6.024
 8480SOL    HW237472   7.160   6.030   6.000
 8481SOL     OW37473   6.609   6.352   6.552
 8481SOL    HW137474   6.624   6.373   6.648
 8481SOL    HW237475   6.579   6.257   6.543
 8482SOL     OW37476   7.126   5.860   5.711
 8482SOL    HW137477   7.065   5.785   5.734
 8482SOL    HW237478   7.148   5.912   5.794
 8483SOL     OW37479   6.889   6.424   5.628
 8483SOL    HW137480   6.923   6.331   5.643
 8483SOL    HW237481   6.907   6.451   5.533
 8484SOL     OW37482   6.654   6.919   6.435
 8484SOL    HW137483   6.661   6.835   6.380
 8484SOL    HW237484   6.716   6.988   6.399
 8485SOL     OW37485   5.905   6.396   6.535
 8485SOL    HW137486   5.998   6.432   6.540
 8485SOL    HW237487   5.899   6.311   6.587
 8486SOL     OW37488   5.925   6.095   6.592
 8486SOL    HW137489   5.873   6.012   6.575
 8486SOL    HW237490   6.002   6.100   6.528
 8487SOL     OW37491   6.746   5.793   7.063
 8487SOL    HW137492   6.746   5.857   7.140
 8487SOL    HW237493   6.774   5.841   6.980
 8488SOL     OW37494   5.594   6.912   5.786
 8488SOL    HW137495   5.501   6.933   5.755
 8488SOL    HW237496   5.604   6.813   5.799
 8489SOL     OW37497   5.674   7.387   6.513
 8489SOL    HW137498   5.632   7.301   6.486
 8489SOL    HW237499   5.768   7.390   6.479
 8490SOL     OW37500   6.090   7.154   6.496
 8490SOL    HW137501   6.156   7.228   6.505
 8490SOL    HW237502   6.134   7.075   6.454
 8491SOL     OW37503   6.588   6.382   6.824
 8491SOL    HW137504   6.629   6.350   6.910
 8491SOL    HW237505   6.492   6.355   6.821
 8492SOL     OW37506   5.626   6.130   6.700
 8492SOL    HW137507   5.711   6.097   6.659
 8492SOL    HW237508   5.639   6.145   6.798
 8493SOL     OW37509   6.401   6.158   5.911
 8493SOL    HW137510   6.408   6.069   5.865
 8493SOL    HW237511   6.307   6.192   5.903
 8494SOL     OW37512   7.243   6.190   6.792
 8494SOL    HW137513   7.205   6.121   6.854
 8494SOL    HW237514   7.325   6.154   6.748
 8495SOL     OW37515   6.257   6.050   6.855
 8495SOL    HW137516   6.223   5.961   6.825
 8495SOL    HW237517   6.283   6.104   6.775
 8496SOL     OW37518   6.516   7.264   7.051
 8496SOL    HW137519   6.492   7.246   6.956
 8496SOL    HW237520   6.546   7.358   7.061
 8497SOL     OW37521   6.059   6.086   5.777
 8497SOL    HW137522   6.120   6.166   5.781
 8497SOL    HW237523   5.964   6.117   5.784
 8498SOL     OW37524   5.745   6.723   7.052
 8498SOL    HW137525   5.767   6.662   7.128
 8498SOL    HW237526   5.755   6.674   6.966
 8499SOL     OW37527   6.933   6.645   6.820
 8499SOL    HW137528   6.957   6.582   6.746
 8499SOL    HW237529   6.843   6.685   6.802
 8500SOL     OW37530   6.888   6.441   5.895
 8500SOL    HW137531   6.802   6.410   5.937
 8500SOL    HW237532   6.884   6.427   5.796
 8501SOL     OW37533   7.345   7.333   6.740
 8501SOL    HW137534   7.406   7.363   6.667
 8501SOL    HW237535   7.307   7.244   6.718
 8502SOL     OW37536   6.838   7.317   6.714
 8502SOL    HW137537   6.922   7.322   6.660
 8502SOL    HW237538   6.815   7.221   6.732
 8503SOL     OW37539   5.669   6.844   6.608
 8503SOL    HW137540   5.664   6.843   6.708
 8503SOL    HW237541   5.586   6.803   6.570
 8504SOL     OW37542   7.312   5.721   6.109
 8504SOL    HW137543   7.385   5.704   6.042
 8504SOL    HW237544   7.281   5.634   6.147
 8505SOL     OW37545   6.974   7.159   6.063
 8505SOL    HW137546   7.041   7.171   5.989
 8505SOL    HW237547   6.934   7.248   6.086
 8506SOL     OW37548   6.866   6.513   6.258
 8506SOL    HW137549   6.926   6.432   6.260
 8506SOL    HW237550   6.906   6.582   6.198
 8507SOL     OW37551   6.258   7.202   5.740
 8507SOL    HW137552   6.267   7.212   5.641
 8507SOL    HW237553   6.218   7.113   5.761
 8508SOL     OW37554   7.427   5.761   6.549
 8508SOL    HW137555   7.466   5.676   6.513
 8508SOL    HW237556   7.329   5.763   6.530
 8509SOL     OW37557   5.849   5.912   6.306
 8509SOL    HW137558   5.770   5.963   6.272
 8509SOL    HW237559   5.840   5.897   6.404
 8510SOL     OW37560   6.780   7.198   5.617
 8510SOL    HW137561   6.786   7.105   5.654
 8510SOL    HW237562   6.721   7.198   5.537
 8511SOL     OW37563   6.408   6.588   6.958
 8511SOL    HW137564   6.448   6.587   6.866
 8511SOL    HW237565   6.418   6.680   6.998
 8512SOL     OW37566   6.502   6.496   5.877
 8512SOL    HW137567   6.565   6.534   5.809
 8512SOL    HW237568   6.542   6.413   5.916
 8513SOL     OW37569   5.958   6.874   7.076
 8513SOL    HW137570   5.945   6.967   7.042
 8513SOL    HW237571   5.874   6.822   7.063
 8514SOL     OW37572   7.200   6.878   6.875
 8514SOL    HW137573   7.260   6.881   6.955
 8514SOL    HW237574   7.125   6.942   6.888
 8515SOL     OW37575   6.625   6.684   6.282
 8515SOL    HW137576   6.555   6.637   6.336
 8515SOL    HW237577   6.684   6.616   6.239
 8516SOL     OW37578   6.600   5.822   6.557
 8516SOL    HW137579   6.592   5.786   6.464
 8516SOL    HW237580   6.598   5.746   6.622
 8517SOL     OW37581   6.176   7.073   6.077
 8517SOL    HW137582   6.218   7.015   6.007
 8517SOL    HW237583   6.132   7.152   6.033
 8518SOL     OW37584   7.295   5.971   6.967
 8518SOL    HW137585   7.368   6.040   6.971
 8518SOL    HW237586   7.323   5.896   6.908
 8519SOL     OW37587   5.841   6.934   5.876
 8519SOL    HW137588   5.745   6.935   5.849
 8519SOL    HW237589   5.853   6.987   5.960
 8520SOL     OW37590   6.258   5.789   7.075
 8520SOL    HW137591   6.348   5.773   7.035
 8520SOL    HW237592   6.266   5.794   7.174
 8521SOL     OW37593   5.658   5.752   5.904
 8521SOL    HW137594   5.641   5.835   5.850
 8521SOL    HW237595   5.748   5.715   5.882
 8522SOL     OW37596   6.769   6.921   5.705
 8522SOL    HW137597   6.670   6.910   5.707
 8522SOL    HW237598   6.803   6.936   5.798
 8523SOL     OW37599   6.199   6.428   7.017
 8523SOL    HW137600   6.255   6.509   7.000
 8523SOL    HW237601   6.258   6.348   7.020
 8524SOL     OW37602   7.079   7.353   6.545
 8524SOL    HW137603   7.112   7.417   6.476
 8524SOL    HW237604   7.145   7.347   6.620
 8525SOL     OW37605   5.976   7.327   7.146
 8525SOL    HW137606   5.885   7.368   7.144
 8525SOL    HW237607   5.969   7.233   7.178
 8526SOL     OW37608   7.260   6.469   6.840
 8526SOL    HW137609   7.233   6.380   6.803
 8526SOL    HW237610   7.261   6.537   6.767
 8527SOL     OW37611   6.811   5.911   6.035
 8527SOL    HW137612   6.876   5.837   6.024
 8527SOL    HW237613   6.831   5.961   6.119
 8528SOL     OW37614   6.180   6.331   6.238
 8528SOL    HW137615   6.230   6.416   6.219
 8528SOL    HW237616   6.092   6.333   6.190
 8529SOL     OW37617   7.316   6.520   7.103
 8529SOL    HW137618   7.354   6.611   7.118
 8529SOL    HW237619   7.308   6.503   7.004
 8530SOL     OW37620   6.445   6.960   5.602
 8530SOL    HW137621   6.399   6.975   5.690
 8530SOL    HW237622   6.489   7.045   5.572
 8531SOL     OW37623   6.247   7.376   6.539
 8531SOL    HW137624   6.201   7.464   6.526
 8531SOL    HW237625   6.346   7.388   6.532
 8532SOL     OW37626   6.445   6.542   6.447
 8532SOL    HW137627   6.499   6.473   6.495
 8532SOL    HW237628   6.413   6.611   6.513
 8533SOL     OW37629   6.669   6.570   5.673
 8533SOL    HW137630   6.646   6.623   5.591
 8533SOL    HW237631   6.750   6.514   5.654
 8534SOL     OW37632   7.447   7.155   6.437
 8534SOL    HW137633   7.376   7.143   6.367
 8534SOL    HW237634   7.448   7.076   6.497
 8535SOL     OW37635   5.665   6.826   6.239
 8535SOL    HW137636   5.664   6.779   6.327
 8535SOL    HW237637   5.747   6.798   6.188
 8536SOL     OW37638   7.410   5.778   6.813
 8536SOL    HW137639   7.406   5.688   6.857
 8536SOL    HW237640   7.413   5.767   6.714
 8537SOL     OW37641   6.014   6.010   6.106
 8537SOL    HW137642   6.044   5.938   6.044
 8537SOL    HW237643   5.975   5.970   6.189
 8538SOL     OW37644   7.291   7.073   6.690
 8538SOL    HW137645   7.198   7.048   6.663
 8538SOL    HW237646   7.317   7.023   6.772
 8539SOL     OW37647   5.903   6.133   6.866
 8539SOL    HW137648   5.941   6.074   6.938
 8539SOL    HW237649   5.943   6.107   6.778
 8540SOL     OW37650   6.398   7.172   6.273
 8540SOL    HW137651   6.430   7.182   6.179
 8540SOL    HW237652   6.319   7.110   6.275
 8541SOL     OW37653   7.010   5.800   6.698
 8541SOL    HW137654   7.062   5.735   6.753
 8541SOL    HW237655   6.961   5.863   6.759
 8542SOL     OW37656   6.587   5.620   6.740
 8542SOL    HW137657   6.524   5.548   6.709
 8542SOL    HW237658   6.680   5.584   6.740
 8543SOL     OW37659   6.356   6.916   5.887
 8543SOL    HW137660   6.310   6.829   5.904
 8543SOL    HW237661   6.447   6.913   5.928
 8544SOL     OW37662   6.204   7.153   6.870
 8544SOL    HW137663   6.199   7.235   6.927
 8544SOL    HW237664   6.293   7.150   6.825
 8545SOL     OW37665   6.938   5.638   5.754
 8545SOL    HW137666   6.973   5.597   5.670
 8545SOL    HW237667   6.848   5.600   5.774
 8546SOL     OW37668   6.886   6.039   6.277
 8546SOL    HW137669   6.827   6.119   6.281
 8546SOL    HW237670   6.901   6.004   6.370
 8547SOL     OW37671   7.179   5.807   6.468
 8547SOL    HW137672   7.095   5.806   6.522
 8547SOL    HW237673   7.181   5.890   6.412
 8548SOL     OW37674   5.625   6.663   5.886
 8548SOL    HW137675   5.724   6.652   5.877
 8548SOL    HW237676   5.585   6.577   5.918
 8549SOL     OW37677   6.461   7.232   5.923
 8549SOL    HW137678   6.384   7.197   5.869
 8549SOL    HW237679   6.429   7.303   5.985
 8550SOL     OW37680   5.816   8.076   0.113
 8550SOL    HW137681   5.723   8.074   0.150
 8550SOL    HW237682   5.817   8.037   0.021
 8551SOL     OW37683   5.811   7.723   0.996
 8551SOL    HW137684   5.846   7.706   1.088
 8551SOL    HW237685   5.723   7.678   0.984
 8552SOL     OW37686   5.605   7.816   0.647
 8552SOL    HW137687   5.523   7.859   0.686
 8552SOL    HW237688   5.577   7.743   0.584
 8553SOL     OW37689   6.721   8.151   0.717
 8553SOL    HW137690   6.778   8.229   0.692
 8553SOL    HW237691   6.661   8.177   0.793
 8554SOL     OW37692   7.341   8.055   0.231
 8554SOL    HW137693   7.329   8.042   0.132
 8554SOL    HW237694   7.311   7.974   0.280
 8555SOL     OW37695   6.354   8.592   1.023
 8555SOL    HW137696   6.276   8.609   1.083
 8555SOL    HW237697   6.388   8.679   0.987
 8556SOL     OW37698   6.271   8.460   0.665
 8556SOL    HW137699   6.340   8.444   0.735
 8556SOL    HW237700   6.198   8.517   0.703
 8557SOL     OW37701   6.024   7.840   1.499
 8557SOL    HW137702   6.106   7.784   1.508
 8557SOL    HW237703   5.943   7.782   1.503
 8558SOL     OW37704   7.189   7.895   0.737
 8558SOL    HW137705   7.115   7.941   0.687
 8558SOL    HW237706   7.240   7.963   0.790
 8559SOL     OW37707   5.826   8.539   0.886
 8559SOL    HW137708   5.840   8.455   0.938
 8559SOL    HW237709   5.771   8.603   0.941
 8560SOL     OW37710   7.180   7.562   1.480
 8560SOL    HW137711   7.162   7.629   1.408
 8560SOL    HW237712   7.177   7.608   1.569
 8561SOL     OW37713   5.708   8.091   0.563
 8561SOL    HW137714   5.663   8.003   0.580
 8561SOL    HW237715   5.707   8.145   0.647
 8562SOL     OW37716   5.699   8.185   1.597
 8562SOL    HW137717   5.787   8.172   1.642
 8562SOL    HW237718   5.686   8.282   1.575
 8563SOL     OW37719   6.395   7.452   0.502
 8563SOL    HW137720   6.435   7.543   0.493
 8563SOL    HW237721   6.295   7.460   0.508
 8564SOL     OW37722   5.783   8.424   1.264
 8564SOL    HW137723   5.872   8.379   1.250
 8564SOL    HW237724   5.710   8.359   1.245
 8565SOL     OW37725   7.111   8.447   0.190
 8565SOL    HW137726   7.048   8.371   0.203
 8565SOL    HW237727   7.159   8.465   0.276
 8566SOL     OW37728   5.903   7.699   1.801
 8566SOL    HW137729   5.974   7.770   1.807
 8566SOL    HW237730   5.815   7.738   1.829
 8567SOL     OW37731   6.184   8.177   0.270
 8567SOL    HW137732   6.208   8.246   0.202
 8567SOL    HW237733   6.106   8.210   0.324
 8568SOL     OW37734   6.867   7.793   0.944
 8568SOL    HW137735   6.781   7.743   0.931
 8568SOL    HW237736   6.929   7.739   1.000
 8569SOL     OW37737   6.393   8.053   1.465
 8569SOL    HW137738   6.346   8.050   1.554
 8569SOL    HW237739   6.342   7.998   1.399
 8570SOL     OW37740   6.559   8.338   1.572
 8570SOL    HW137741   6.605   8.254   1.543
 8570SOL    HW237742   6.503   8.372   1.497
 8571SOL     OW37743   6.577   7.858   1.242
 8571SOL    HW137744   6.500   7.892   1.296
 8571SOL    HW237745   6.543   7.807   1.163
 8572SOL     OW37746   6.627   8.149   0.429
 8572SOL    HW137747   6.653   8.145   0.525
 8572SOL    HW237748   6.542   8.098   0.415
 8573SOL     OW37749   5.662   8.259   0.789
 8573SOL    HW137750   5.761   8.247   0.798
 8573SOL    HW237751   5.638   8.354   0.810
 8574SOL     OW37752   6.451   7.796   0.195
 8574SOL    HW137753   6.510   7.859   0.146
 8574SOL    HW237754   6.470   7.702   0.166
 8575SOL     OW37755   6.136   7.644   0.885
 8575SOL    HW137756   6.131   7.639   0.985
 8575SOL    HW237757   6.138   7.740   0.856
 8576SOL     OW37758   7.044   8.183   0.728
 8576SOL    HW137759   7.039   8.118   0.803
 8576SOL    HW237760   7.124   8.242   0.741
 8577SOL     OW37761   5.788   7.733   1.498
 8577SOL    HW137762   5.708   7.793   1.485
 8577SOL    HW237763   5.778   7.684   1.584
 8578SOL     OW37764   6.986   7.555   0.426
 8578SOL    HW137765   6.962   7.518   0.336
 8578SOL    HW237766   7.085   7.571   0.430
 8579SOL     OW37767   5.968   8.148   0.480
 8579SOL    HW137768   6.013   8.058   0.477
 8579SOL    HW237769   5.874   8.137   0.513
 8580SOL     OW37770   7.133   7.670   1.729
 8580SOL    HW137771   7.128   7.707   1.821
 8580SOL    HW237772   7.061   7.601   1.717
 8581SOL     OW37773   6.367   7.712   1.749
 8581SOL    HW137774   6.434   7.651   1.792
 8581SOL    HW237775   6.294   7.731   1.814
 8582SOL     OW37776   6.937   8.038   1.433
 8582SOL    HW137777   6.965   7.995   1.518
 8582SOL    HW237778   6.962   8.134   1.434
 8583SOL     OW37779   6.508   7.951   0.899
 8583SOL    HW137780   6.483   7.942   0.803
 8583SOL    HW237781   6.556   7.869   0.930
 8584SOL     OW37782   6.125   7.512   0.512
 8584SOL    HW137783   6.044   7.513   0.570
 8584SOL    HW237784   6.128   7.595   0.457
 8585SOL     OW37785   6.521   7.684   0.480
 8585SOL    HW137786   6.473   7.725   0.402
 8585SOL    HW237787   6.620   7.682   0.461
 8586SOL     OW37788   6.662   8.131   1.464
 8586SOL    HW137789   6.582   8.070   1.467
 8586SOL    HW237790   6.743   8.078   1.440
 8587SOL     OW37791   6.618   7.997   0.016
 8587SOL    HW137792   6.577   8.079  -0.023
 8587SOL    HW237793   6.682   8.023   0.089
 8588SOL     OW37794   5.664   8.004   1.386
 8588SOL    HW137795   5.756   8.003   1.345
 8588SOL    HW237796   5.658   8.078   1.453
 8589SOL     OW37797   6.147   7.670   1.147
 8589SOL    HW137798   6.185   7.586   1.184
 8589SOL    HW237799   6.059   7.689   1.191
 8590SOL     OW37800   6.452   7.902   0.642
 8590SOL    HW137801   6.420   7.974   0.580
 8590SOL    HW237802   6.476   7.821   0.589
 8591SOL     OW37803   6.603   7.487   0.753
 8591SOL    HW137804   6.531   7.492   0.684
 8591SOL    HW237805   6.579   7.418   0.822
 8592SOL     OW37806   7.052   8.038   0.992
 8592SOL    HW137807   7.022   7.943   0.999
 8592SOL    HW237808   7.125   8.054   1.058
 8593SOL     OW37809   7.443   8.281   0.377
 8593SOL    HW137810   7.485   8.217   0.441
 8593SOL    HW237811   7.405   8.230   0.299
 8594SOL     OW37812   6.976   8.023   0.078
 8594SOL    HW137813   6.922   8.002   0.159
 8594SOL    HW237814   7.067   7.982   0.087
 8595SOL     OW37815   6.113   7.704   0.328
 8595SOL    HW137816   6.140   7.645   0.253
 8595SOL    HW237817   6.113   7.799   0.297
 8596SOL     OW37818   7.224   8.547   1.079
 8596SOL    HW137819   7.229   8.628   1.138
 8596SOL    HW237820   7.138   8.549   1.028
 8597SOL     OW37821   6.501   7.537   1.402
 8597SOL    HW137822   6.526   7.517   1.307
 8597SOL    HW237823   6.573   7.593   1.444
 8598SOL     OW37824   5.996   8.261   1.251
 8598SOL    HW137825   6.082   8.273   1.301
 8598SOL    HW237826   5.954   8.174   1.278
 8599SOL     OW37827   6.860   7.834   1.262
 8599SOL    HW137828   6.881   7.908   1.326
 8599SOL    HW237829   6.771   7.851   1.219
 8600SOL     OW37830   6.152   7.985   0.865
 8600SOL    HW137831   6.164   8.051   0.791
 8600SOL    HW237832   6.198   8.019   0.948
 8601SOL     OW37833   7.168   8.087   0.472
 8601SOL    HW137834   7.137   8.148   0.545
 8601SOL    HW237835   7.218   8.139   0.403
 8602SOL     OW37836   5.988   8.199   1.598
 8602SOL    HW137837   6.056   8.254   1.551
 8602SOL    HW237838   6.028   8.111   1.625
 8603SOL     OW37839   6.090   7.498   1.740
 8603SOL    HW137840   6.048   7.441   1.670
 8603SOL    HW237841   6.024   7.567   1.772
 8604SOL     OW37842   6.159   8.318   1.029
 8604SOL    HW137843   6.203   8.407   1.020
 8604SOL    HW237844   6.096   8.318   1.106
 8605SOL     OW37845   6.946   8.310   1.045
 8605SOL    HW137846   6.871   8.310   0.979
 8605SOL    HW237847   6.983   8.218   1.054
 8606SOL     OW37848   6.795   7.973   0.275
 8606SOL    HW137849   6.808   7.889   0.329
 8606SOL    HW237850   6.766   8.047   0.335
 8607SOL     OW37851   5.893   7.661   1.231
 8607SOL    HW137852   5.870   7.698   1.321
 8607SOL    HW237853   5.863   7.566   1.225
 8608SOL     OW37854   6.318   8.082   1.064
 8608SOL    HW137855   6.377   8.056   0.988
 8608SOL    HW237856   6.290   8.178   1.053
 8609SOL     OW37857   5.893   7.511   0.618
 8609SOL    HW137858   5.882   7.605   0.651
 8609SOL    HW237859   5.888   7.448   0.695
 8610SOL     OW37860   7.208   7.815   0.374
 8610SOL    HW137861   7.210   7.739   0.438
 8610SOL    HW237862   7.160   7.892   0.414
 8611SOL     OW37863   6.609   8.214   0.966
 8611SOL    HW137864   6.624   8.235   1.062
 8611SOL    HW237865   6.579   8.119   0.957
 8612SOL     OW37866   5.936   8.346   1.804
 8612SOL    HW137867   6.012   8.390   1.852
 8612SOL    HW237868   5.971   8.299   1.722
 8613SOL     OW37869   7.126   7.722   0.125
 8613SOL    HW137870   7.065   7.647   0.148
 8613SOL    HW237871   7.148   7.774   0.208
 8614SOL     OW37872   6.889   8.286   0.042
 8614SOL    HW137873   6.923   8.193   0.057
 8614SOL    HW237874   6.907   8.313  -0.053
 8615SOL     OW37875   5.905   8.258   0.949
 8615SOL    HW137876   5.998   8.294   0.954
 8615SOL    HW237877   5.899   8.173   1.001
 8616SOL     OW37878   5.925   7.957   1.006
 8616SOL    HW137879   5.873   7.874   0.989
 8616SOL    HW237880   6.002   7.962   0.942
 8617SOL     OW37881   6.724   7.828   1.678
 8617SOL    HW137882   6.679   7.891   1.742
 8617SOL    HW237883   6.817   7.859   1.661
 8618SOL     OW37884   6.746   7.655   1.477
 8618SOL    HW137885   6.746   7.719   1.554
 8618SOL    HW237886   6.774   7.703   1.394
 8619SOL     OW37887   6.588   8.244   1.238
 8619SOL    HW137888   6.629   8.212   1.324
 8619SOL    HW237889   6.492   8.217   1.235
 8620SOL     OW37890   5.626   7.992   1.114
 8620SOL    HW137891   5.711   7.959   1.073
 8620SOL    HW237892   5.639   8.007   1.212
 8621SOL     OW37893   5.775   7.968   1.722
 8621SOL    HW137894   5.834   7.928   1.652
 8621SOL    HW237895   5.717   8.039   1.681
 8622SOL     OW37896   6.401   8.020   0.325
 8622SOL    HW137897   6.408   7.931   0.279
 8622SOL    HW237898   6.307   8.054   0.317
 8623SOL     OW37899   7.243   8.052   1.206
 8623SOL    HW137900   7.205   7.983   1.268
 8623SOL    HW237901   7.325   8.016   1.162
 8624SOL     OW37902   6.257   7.912   1.269
 8624SOL    HW137903   6.223   7.823   1.239
 8624SOL    HW237904   6.283   7.966   1.189
 8625SOL     OW37905   6.059   7.948   0.191
 8625SOL    HW137906   6.120   8.028   0.195
 8625SOL    HW237907   5.964   7.979   0.198
 8626SOL     OW37908   5.745   8.585   1.466
 8626SOL    HW137909   5.767   8.524   1.542
 8626SOL    HW237910   5.755   8.536   1.380
 8627SOL     OW37911   6.933   8.507   1.234
 8627SOL    HW137912   6.957   8.444   1.160
 8627SOL    HW237913   6.843   8.547   1.216
 8628SOL     OW37914   6.888   8.303   0.309
 8628SOL    HW137915   6.802   8.272   0.351
 8628SOL    HW237916   6.884   8.289   0.210
 8629SOL     OW37917   6.489   7.534   0.133
 8629SOL    HW137918   6.540   7.535   0.047
 8629SOL    HW237919   6.545   7.492   0.204
 8630SOL     OW37920   7.312   7.583   0.523
 8630SOL    HW137921   7.385   7.566   0.456
 8630SOL    HW237922   7.281   7.496   0.561
 8631SOL     OW37923   6.866   8.375   0.672
 8631SOL    HW137924   6.926   8.294   0.674
 8631SOL    HW237925   6.906   8.444   0.612
 8632SOL     OW37926   7.427   7.623   0.963
 8632SOL    HW137927   7.466   7.538   0.927
 8632SOL    HW237928   7.329   7.625   0.944
 8633SOL     OW37929   5.849   7.774   0.720
 8633SOL    HW137930   5.770   7.825   0.686
 8633SOL    HW237931   5.840   7.759   0.818
 8634SOL     OW37932   6.502   8.358   0.291
 8634SOL    HW137933   6.565   8.396   0.223
 8634SOL    HW237934   6.542   8.275   0.330
 8635SOL     OW37935   6.600   7.684   0.971
 8635SOL    HW137936   6.592   7.648   0.878
 8635SOL    HW237937   6.598   7.608   1.036
 8636SOL     OW37938   7.295   7.833   1.381
 8636SOL    HW137939   7.368   7.902   1.385
 8636SOL    HW237940   7.323   7.758   1.322
 8637SOL     OW37941   5.691   8.461   1.726
 8637SOL    HW137942   5.614   8.428   1.780
 8637SOL    HW237943   5.776   8.431   1.768
 8638SOL     OW37944   6.258   7.651   1.489
 8638SOL    HW137945   6.348   7.635   1.449
 8638SOL    HW237946   6.266   7.656   1.588
 8639SOL     OW37947   5.661   7.793   0.033
 8639SOL    HW137948   5.569   7.765   0.004
 8639SOL    HW237949   5.692   7.870  -0.023
 8640SOL     OW37950   5.658   7.614   0.318
 8640SOL    HW137951   5.641   7.697   0.264
 8640SOL    HW237952   5.748   7.577   0.296
 8641SOL     OW37953   6.199   8.290   1.431
 8641SOL    HW137954   6.255   8.371   1.414
 8641SOL    HW237955   6.258   8.210   1.434
 8642SOL     OW37956   6.302   8.013   1.708
 8642SOL    HW137957   6.321   8.078   1.782
 8642SOL    HW237958   6.362   7.933   1.717
 8643SOL     OW37959   7.260   8.331   1.254
 8643SOL    HW137960   7.233   8.242   1.217
 8643SOL    HW237961   7.261   8.399   1.181
 8644SOL     OW37962   6.811   7.773   0.449
 8644SOL    HW137963   6.876   7.699   0.438
 8644SOL    HW237964   6.831   7.823   0.533
 8645SOL     OW37965   6.180   8.193   0.652
 8645SOL    HW137966   6.230   8.278   0.633
 8645SOL    HW237967   6.092   8.195   0.604
 8646SOL     OW37968   7.316   8.382   1.517
 8646SOL    HW137969   7.354   8.473   1.532
 8646SOL    HW237970   7.308   8.365   1.418
 8647SOL     OW37971   6.669   8.432   0.087
 8647SOL    HW137972   6.646   8.485   0.005
 8647SOL    HW237973   6.750   8.376   0.068
 8648SOL     OW37974   7.410   7.640   1.227
 8648SOL    HW137975   7.406   7.550   1.271
 8648SOL    HW237976   7.413   7.629   1.128
 8649SOL     OW37977   6.014   7.872   0.520
 8649SOL    HW137978   6.044   7.800   0.458
 8649SOL    HW237979   5.975   7.832   0.603
 8650SOL     OW37980   5.903   7.995   1.280
 8650SOL    HW137981   5.941   7.936   1.352
 8650SOL    HW237982   5.943   7.969   1.192
 8651SOL     OW37983   7.010   7.662   1.112
 8651SOL    HW137984   7.062   7.597   1.167
 8651SOL    HW237985   6.961   7.725   1.173
 8652SOL     OW37986   6.587   7.482   1.154
 8652SOL    HW137987   6.524   7.410   1.123
 8652SOL    HW237988   6.680   7.446   1.154
 8653SOL     OW37989   6.938   7.500   0.168
 8653SOL    HW137990   6.973   7.459   0.084
 8653SOL    HW237991   6.848   7.462   0.188
 8654SOL     OW37992   6.886   7.901   0.691
 8654SOL    HW137993   6.827   7.981   0.695
 8654SOL    HW237994   6.901   7.866   0.784
 8655SOL     OW37995   7.179   7.669   0.882
 8655SOL    HW137996   7.095   7.668   0.936
 8655SOL    HW237997   7.181   7.752   0.826
 8656SOL     OW37998   5.816   8.076   1.975
 8656SOL    HW137999   5.723   8.074   2.012
 8656SOL    HW238000   5.817   8.037   1.883
 8657SOL     OW38001   5.811   7.723   2.858
 8657SOL    HW138002   5.846   7.706   2.950
 8657SOL    HW238003   5.723   7.678   2.846
 8658SOL     OW38004   6.436   8.246   3.685
 8658SOL    HW138005   6.432   8.322   3.750
 8658SOL    HW238006   6.458   8.282   3.594
 8659SOL     OW38007   7.189   7.895   2.599
 8659SOL    HW138008   7.115   7.941   2.549
 8659SOL    HW238009   7.240   7.963   2.652
 8660SOL     OW38010   7.180   7.562   3.342
 8660SOL    HW138011   7.162   7.629   3.270
 8660SOL    HW238012   7.177   7.608   3.431
 8661SOL     OW38013   5.708   8.091   2.425
 8661SOL    HW138014   5.663   8.003   2.442
 8661SOL    HW238015   5.707   8.145   2.509
 8662SOL     OW38016   5.783   8.424   3.126
 8662SOL    HW138017   5.872   8.379   3.112
 8662SOL    HW238018   5.710   8.359   3.107
 8663SOL     OW38019   7.111   8.447   2.052
 8663SOL    HW138020   7.048   8.371   2.065
 8663SOL    HW238021   7.159   8.465   2.138
 8664SOL     OW38022   6.559   8.338   3.434
 8664SOL    HW138023   6.605   8.254   3.405
 8664SOL    HW238024   6.503   8.372   3.359
 8665SOL     OW38025   6.451   7.796   2.057
 8665SOL    HW138026   6.510   7.859   2.008
 8665SOL    HW238027   6.470   7.702   2.028
 8666SOL     OW38028   7.133   7.670   3.591
 8666SOL    HW138029   7.128   7.707   3.683
 8666SOL    HW238030   7.061   7.601   3.579
 8667SOL     OW38031   6.200   7.570   1.979
 8667SOL    HW138032   6.298   7.548   1.986
 8667SOL    HW238033   6.169   7.553   1.886
 8668SOL     OW38034   6.937   8.038   3.295
 8668SOL    HW138035   6.965   7.995   3.380
 8668SOL    HW238036   6.962   8.134   3.296
 8669SOL     OW38037   6.508   7.951   2.761
 8669SOL    HW138038   6.483   7.942   2.665
 8669SOL    HW238039   6.556   7.869   2.792
 8670SOL     OW38040   6.521   7.684   2.342
 8670SOL    HW138041   6.473   7.725   2.264
 8670SOL    HW238042   6.620   7.682   2.323
 8671SOL     OW38043   6.662   8.131   3.326
 8671SOL    HW138044   6.582   8.070   3.329
 8671SOL    HW238045   6.743   8.078   3.302
 8672SOL     OW38046   6.147   7.670   3.009
 8672SOL    HW138047   6.185   7.586   3.046
 8672SOL    HW238048   6.059   7.689   3.053
 8673SOL     OW38049   6.603   7.487   2.615
 8673SOL    HW138050   6.531   7.492   2.546
 8673SOL    HW238051   6.579   7.418   2.684
 8674SOL     OW38052   7.224   8.547   2.941
 8674SOL    HW138053   7.229   8.628   3.000
 8674SOL    HW238054   7.138   8.549   2.890
 8675SOL     OW38055   6.501   7.537   3.264
 8675SOL    HW138056   6.526   7.517   3.169
 8675SOL    HW238057   6.573   7.593   3.306
 8676SOL     OW38058   5.988   8.199   3.460
 8676SOL    HW138059   6.056   8.254   3.413
 8676SOL    HW238060   6.028   8.111   3.487
 8677SOL     OW38061   6.599   7.553   3.632
 8677SOL    HW138062   6.605   7.638   3.580
 8677SOL    HW238063   6.631   7.477   3.575
 8678SOL     OW38064   6.609   8.214   2.828
 8678SOL    HW138065   6.624   8.235   2.924
 8678SOL    HW238066   6.579   8.119   2.819
 8679SOL     OW38067   6.724   7.828   3.540
 8679SOL    HW138068   6.679   7.891   3.604
 8679SOL    HW238069   6.817   7.859   3.523
 8680SOL     OW38070   6.746   7.655   3.339
 8680SOL    HW138071   6.746   7.719   3.416
 8680SOL    HW238072   6.774   7.703   3.256
 8681SOL     OW38073   6.588   8.244   3.100
 8681SOL    HW138074   6.629   8.212   3.186
 8681SOL    HW238075   6.492   8.217   3.097
 8682SOL     OW38076   5.775   7.968   3.584
 8682SOL    HW138077   5.834   7.928   3.514
 8682SOL    HW238078   5.717   8.039   3.543
 8683SOL     OW38079   6.401   8.020   2.187
 8683SOL    HW138080   6.408   7.931   2.141
 8683SOL    HW238081   6.307   8.054   2.179
 8684SOL     OW38082   6.257   7.912   3.131
 8684SOL    HW138083   6.223   7.823   3.101
 8684SOL    HW238084   6.283   7.966   3.051
 8685SOL     OW38085   5.745   8.585   3.328
 8685SOL    HW138086   5.767   8.524   3.404
 8685SOL    HW238087   5.755   8.536   3.242
 8686SOL     OW38088   6.866   8.375   2.534
 8686SOL    HW138089   6.926   8.294   2.536
 8686SOL    HW238090   6.906   8.444   2.474
 8687SOL     OW38091   6.258   7.651   3.351
 8687SOL    HW138092   6.348   7.635   3.311
 8687SOL    HW238093   6.266   7.656   3.450
 8688SOL     OW38094   5.661   7.793   1.895
 8688SOL    HW138095   5.569   7.765   1.866
 8688SOL    HW238096   5.692   7.870   1.839
 8689SOL     OW38097   7.260   8.331   3.116
 8689SOL    HW138098   7.233   8.242   3.079
 8689SOL    HW238099   7.261   8.399   3.043
 8690SOL     OW38100   6.180   8.193   2.514
 8690SOL    HW138101   6.230   8.278   2.495
 8690SOL    HW238102   6.092   8.195   2.466
 8691SOL     OW38103   6.669   8.432   1.949
 8691SOL    HW138104   6.646   8.485   1.867
 8691SOL    HW238105   6.750   8.376   1.930
 8692SOL     OW38106   7.010   7.662   2.974
 8692SOL    HW138107   7.062   7.597   3.029
 8692SOL    HW238108   6.961   7.725   3.035
 8693SOL     OW38109   6.587   7.482   3.016
 8693SOL    HW138110   6.524   7.410   2.985
 8693SOL    HW238111   6.680   7.446   3.016
 8694SOL     OW38112   6.938   7.500   2.030
 8694SOL    HW138113   6.973   7.459   1.946
 8694SOL    HW238114   6.848   7.462   2.050
 8695SOL     OW38115   5.811   7.723   4.720
 8695SOL    HW138116   5.846   7.706   4.812
 8695SOL    HW238117   5.723   7.678   4.708
 8696SOL     OW38118   5.605   7.816   4.371
 8696SOL    HW138119   5.523   7.859   4.410
 8696SOL    HW238120   5.577   7.743   4.308
 8697SOL     OW38121   6.436   8.246   5.547
 8697SOL    HW138122   6.432   8.322   5.612
 8697SOL    HW238123   6.458   8.282   5.456
 8698SOL     OW38124   7.180   7.562   5.204
 8698SOL    HW138125   7.162   7.629   5.132
 8698SOL    HW238126   7.177   7.608   5.293
 8699SOL     OW38127   5.783   8.424   4.988
 8699SOL    HW138128   5.872   8.379   4.974
 8699SOL    HW238129   5.710   8.359   4.969
 8700SOL     OW38130   6.184   8.177   3.994
 8700SOL    HW138131   6.208   8.246   3.926
 8700SOL    HW238132   6.106   8.210   4.048
 8701SOL     OW38133   6.867   7.793   4.668
 8701SOL    HW138134   6.781   7.743   4.655
 8701SOL    HW238135   6.929   7.739   4.724
 8702SOL     OW38136   6.980   7.917   5.398
 8702SOL    HW138137   6.960   7.960   5.486
 8702SOL    HW238138   7.058   7.855   5.407
 8703SOL     OW38139   6.627   8.149   4.153
 8703SOL    HW138140   6.653   8.145   4.249
 8703SOL    HW238141   6.542   8.098   4.139
 8704SOL     OW38142   6.451   7.796   3.919
 8704SOL    HW138143   6.510   7.859   3.870
 8704SOL    HW238144   6.470   7.702   3.890
 8705SOL     OW38145   7.305   8.033   5.555
 8705SOL    HW138146   7.279   8.122   5.519
 8705SOL    HW238147   7.303   7.965   5.482
 8706SOL     OW38148   6.136   7.644   4.609
 8706SOL    HW138149   6.131   7.639   4.709
 8706SOL    HW238150   6.138   7.740   4.580
 8707SOL     OW38151   5.968   8.148   4.204
 8707SOL    HW138152   6.013   8.058   4.201
 8707SOL    HW238153   5.874   8.137   4.237
 8708SOL     OW38154   7.133   7.670   5.453
 8708SOL    HW138155   7.128   7.707   5.545
 8708SOL    HW238156   7.061   7.601   5.441
 8709SOL     OW38157   6.200   7.570   3.841
 8709SOL    HW138158   6.298   7.548   3.848
 8709SOL    HW238159   6.169   7.553   3.748
 8710SOL     OW38160   6.521   7.684   4.204
 8710SOL    HW138161   6.473   7.725   4.126
 8710SOL    HW238162   6.620   7.682   4.185
 8711SOL     OW38163   6.501   7.537   5.126
 8711SOL    HW138164   6.526   7.517   5.031
 8711SOL    HW238165   6.573   7.593   5.168
 8712SOL     OW38166   5.988   8.199   5.322
 8712SOL    HW138167   6.056   8.254   5.275
 8712SOL    HW238168   6.028   8.111   5.349
 8713SOL     OW38169   7.173   8.227   5.394
 8713SOL    HW138170   7.081   8.265   5.389
 8713SOL    HW238171   7.233   8.274   5.329
 8714SOL     OW38172   6.090   7.498   5.464
 8714SOL    HW138173   6.048   7.441   5.394
 8714SOL    HW238174   6.024   7.567   5.496
 8715SOL     OW38175   7.314   8.383   5.578
 8715SOL    HW138176   7.268   8.376   5.489
 8715SOL    HW238177   7.252   8.427   5.644
 8716SOL     OW38178   5.893   7.511   4.342
 8716SOL    HW138179   5.882   7.605   4.375
 8716SOL    HW238180   5.888   7.448   4.419
 8717SOL     OW38181   7.208   7.815   4.098
 8717SOL    HW138182   7.210   7.739   4.162
 8717SOL    HW238183   7.160   7.892   4.138
 8718SOL     OW38184   6.609   8.214   4.690
 8718SOL    HW138185   6.624   8.235   4.786
 8718SOL    HW238186   6.579   8.119   4.681
 8719SOL     OW38187   5.936   8.346   5.528
 8719SOL    HW138188   6.012   8.390   5.576
 8719SOL    HW238189   5.971   8.299   5.446
 8720SOL     OW38190   7.126   7.722   3.849
 8720SOL    HW138191   7.065   7.647   3.872
 8720SOL    HW238192   7.148   7.774   3.932
 8721SOL     OW38193   5.925   7.957   4.730
 8721SOL    HW138194   5.873   7.874   4.713
 8721SOL    HW238195   6.002   7.962   4.666
 8722SOL     OW38196   6.955   8.398   5.384
 8722SOL    HW138197   6.994   8.487   5.404
 8722SOL    HW238198   6.965   8.378   5.287
 8723SOL     OW38199   6.401   8.020   4.049
 8723SOL    HW138200   6.408   7.931   4.003
 8723SOL    HW238201   6.307   8.054   4.041
 8724SOL     OW38202   6.866   8.375   4.396
 8724SOL    HW138203   6.926   8.294   4.398
 8724SOL    HW238204   6.906   8.444   4.336
 8725SOL     OW38205   7.427   7.623   4.687
 8725SOL    HW138206   7.466   7.538   4.651
 8725SOL    HW238207   7.329   7.625   4.668
 8726SOL     OW38208   7.295   7.833   5.105
 8726SOL    HW138209   7.368   7.902   5.109
 8726SOL    HW238210   7.323   7.758   5.046
 8727SOL     OW38211   6.258   7.651   5.213
 8727SOL    HW138212   6.348   7.635   5.173
 8727SOL    HW238213   6.266   7.656   5.312
 8728SOL     OW38214   6.199   8.290   5.155
 8728SOL    HW138215   6.255   8.371   5.138
 8728SOL    HW238216   6.258   8.210   5.158
 8729SOL     OW38217   6.302   8.013   5.432
 8729SOL    HW138218   6.321   8.078   5.506
 8729SOL    HW238219   6.362   7.933   5.441
 8730SOL     OW38220   7.260   8.331   4.978
 8730SOL    HW138221   7.233   8.242   4.941
 8730SOL    HW238222   7.261   8.399   4.905
 8731SOL     OW38223   6.811   7.773   4.173
 8731SOL    HW138224   6.876   7.699   4.162
 8731SOL    HW238225   6.831   7.823   4.257
 8732SOL     OW38226   7.363   7.790   5.366
 8732SOL    HW138227   7.346   7.821   5.272
 8732SOL    HW238228   7.279   7.753   5.404
 8733SOL     OW38229   7.316   8.382   5.241
 8733SOL    HW138230   7.354   8.473   5.256
 8733SOL    HW238231   7.308   8.365   5.142
 8734SOL     OW38232   6.669   8.432   3.811
 8734SOL    HW138233   6.646   8.485   3.729
 8734SOL    HW238234   6.750   8.376   3.792
 8735SOL     OW38235   7.410   7.640   4.951
 8735SOL    HW138236   7.406   7.550   4.995
 8735SOL    HW238237   7.413   7.629   4.852
 8736SOL     OW38238   5.816   8.076   5.699
 8736SOL    HW138239   5.723   8.074   5.736
 8736SOL    HW238240   5.817   8.037   5.607
 8737SOL     OW38241   5.811   7.723   6.582
 8737SOL    HW138242   5.846   7.706   6.674
 8737SOL    HW238243   5.723   7.678   6.570
 8738SOL     OW38244   5.605   7.816   6.233
 8738SOL    HW138245   5.523   7.859   6.272
 8738SOL    HW238246   5.577   7.743   6.170
 8739SOL     OW38247   6.721   8.151   6.303
 8739SOL    HW138248   6.778   8.229   6.278
 8739SOL    HW238249   6.661   8.177   6.379
 8740SOL     OW38250   7.341   8.055   5.817
 8740SOL    HW138251   7.329   8.042   5.718
 8740SOL    HW238252   7.311   7.974   5.866
 8741SOL     OW38253   6.354   8.592   6.609
 8741SOL    HW138254   6.276   8.609   6.669
 8741SOL    HW238255   6.388   8.679   6.573
 8742SOL     OW38256   6.271   8.460   6.251
 8742SOL    HW138257   6.340   8.444   6.321
 8742SOL    HW238258   6.198   8.517   6.289
 8743SOL     OW38259   6.024   7.840   7.085
 8743SOL    HW138260   6.106   7.784   7.094
 8743SOL    HW238261   5.943   7.782   7.089
 8744SOL     OW38262   7.189   7.895   6.323
 8744SOL    HW138263   7.115   7.941   6.273
 8744SOL    HW238264   7.240   7.963   6.376
 8745SOL     OW38265   5.826   8.539   6.472
 8745SOL    HW138266   5.840   8.455   6.524
 8745SOL    HW238267   5.771   8.603   6.527
 8746SOL     OW38268   5.708   8.091   6.149
 8746SOL    HW138269   5.663   8.003   6.166
 8746SOL    HW238270   5.707   8.145   6.233
 8747SOL     OW38271   6.395   7.452   6.088
 8747SOL    HW138272   6.435   7.543   6.079
 8747SOL    HW238273   6.295   7.460   6.094
 8748SOL     OW38274   5.783   8.424   6.850
 8748SOL    HW138275   5.872   8.379   6.836
 8748SOL    HW238276   5.710   8.359   6.831
 8749SOL     OW38277   7.111   8.447   5.776
 8749SOL    HW138278   7.048   8.371   5.789
 8749SOL    HW238279   7.159   8.465   5.862
 8750SOL     OW38280   6.184   8.177   5.856
 8750SOL    HW138281   6.208   8.246   5.788
 8750SOL    HW238282   6.106   8.210   5.910
 8751SOL     OW38283   6.867   7.793   6.530
 8751SOL    HW138284   6.781   7.743   6.517
 8751SOL    HW238285   6.929   7.739   6.586
 8752SOL     OW38286   6.393   8.053   7.051
 8752SOL    HW138287   6.346   8.050   7.140
 8752SOL    HW238288   6.342   7.998   6.985
 8753SOL     OW38289   6.577   7.858   6.828
 8753SOL    HW138290   6.500   7.892   6.882
 8753SOL    HW238291   6.543   7.807   6.749
 8754SOL     OW38292   6.627   8.149   6.015
 8754SOL    HW138293   6.653   8.145   6.111
 8754SOL    HW238294   6.542   8.098   6.001
 8755SOL     OW38295   5.662   8.259   6.375
 8755SOL    HW138296   5.761   8.247   6.384
 8755SOL    HW238297   5.638   8.354   6.396
 8756SOL     OW38298   6.136   7.644   6.471
 8756SOL    HW138299   6.131   7.639   6.571
 8756SOL    HW238300   6.138   7.740   6.442
 8757SOL     OW38301   7.044   8.183   6.314
 8757SOL    HW138302   7.039   8.118   6.389
 8757SOL    HW238303   7.124   8.242   6.327
 8758SOL     OW38304   6.986   7.555   6.012
 8758SOL    HW138305   6.962   7.518   5.922
 8758SOL    HW238306   7.085   7.571   6.016
 8759SOL     OW38307   5.968   8.148   6.066
 8759SOL    HW138308   6.013   8.058   6.063
 8759SOL    HW238309   5.874   8.137   6.099
 8760SOL     OW38310   6.200   7.570   5.703
 8760SOL    HW138311   6.298   7.548   5.710
 8760SOL    HW238312   6.169   7.553   5.610
 8761SOL     OW38313   6.508   7.951   6.485
 8761SOL    HW138314   6.483   7.942   6.389
 8761SOL    HW238315   6.556   7.869   6.516
 8762SOL     OW38316   6.125   7.512   6.098
 8762SOL    HW138317   6.044   7.513   6.156
 8762SOL    HW238318   6.128   7.595   6.043
 8763SOL     OW38319   5.883   7.483   5.757
 8763SOL    HW138320   5.932   7.567   5.736
 8763SOL    HW238321   5.945   7.418   5.802
 8764SOL     OW38322   6.521   7.684   6.066
 8764SOL    HW138323   6.473   7.725   5.988
 8764SOL    HW238324   6.620   7.682   6.047
 8765SOL     OW38325   6.147   7.670   6.733
 8765SOL    HW138326   6.185   7.586   6.770
 8765SOL    HW238327   6.059   7.689   6.777
 8766SOL     OW38328   6.452   7.902   6.228
 8766SOL    HW138329   6.420   7.974   6.166
 8766SOL    HW238330   6.476   7.821   6.175
 8767SOL     OW38331   6.603   7.487   6.339
 8767SOL    HW138332   6.531   7.492   6.270
 8767SOL    HW238333   6.579   7.418   6.408
 8768SOL     OW38334   7.052   8.038   6.578
 8768SOL    HW138335   7.022   7.943   6.585
 8768SOL    HW238336   7.125   8.054   6.644
 8769SOL     OW38337   7.443   8.281   5.963
 8769SOL    HW138338   7.485   8.217   6.027
 8769SOL    HW238339   7.405   8.230   5.885
 8770SOL     OW38340   6.976   8.023   5.664
 8770SOL    HW138341   6.922   8.002   5.745
 8770SOL    HW238342   7.067   7.982   5.673
 8771SOL     OW38343   6.113   7.704   5.914
 8771SOL    HW138344   6.140   7.645   5.839
 8771SOL    HW238345   6.113   7.799   5.883
 8772SOL     OW38346   7.340   8.671   7.174
 8772SOL    HW138347   7.431   8.632   7.161
 8772SOL    HW238348   7.348   8.767   7.198
 8773SOL     OW38349   7.224   8.547   6.665
 8773SOL    HW138350   7.229   8.628   6.724
 8773SOL    HW238351   7.138   8.549   6.614
 8774SOL     OW38352   5.996   8.261   6.837
 8774SOL    HW138353   6.082   8.273   6.887
 8774SOL    HW238354   5.954   8.174   6.864
 8775SOL     OW38355   6.860   7.834   6.848
 8775SOL    HW138356   6.881   7.908   6.912
 8775SOL    HW238357   6.771   7.851   6.805
 8776SOL     OW38358   6.152   7.985   6.451
 8776SOL    HW138359   6.164   8.051   6.377
 8776SOL    HW238360   6.198   8.019   6.534
 8777SOL     OW38361   7.168   8.087   6.058
 8777SOL    HW138362   7.137   8.148   6.131
 8777SOL    HW238363   7.218   8.139   5.989
 8778SOL     OW38364   6.090   7.498   7.326
 8778SOL    HW138365   6.048   7.441   7.256
 8778SOL    HW238366   6.024   7.567   7.358
 8779SOL     OW38367   6.159   8.318   6.615
 8779SOL    HW138368   6.203   8.407   6.606
 8779SOL    HW238369   6.096   8.318   6.692
 8780SOL     OW38370   6.946   8.310   6.631
 8780SOL    HW138371   6.871   8.310   6.565
 8780SOL    HW238372   6.983   8.218   6.640
 8781SOL     OW38373   5.893   7.661   6.817
 8781SOL    HW138374   5.870   7.698   6.907
 8781SOL    HW238375   5.863   7.566   6.811
 8782SOL     OW38376   6.318   8.082   6.650
 8782SOL    HW138377   6.377   8.056   6.574
 8782SOL    HW238378   6.290   8.178   6.639
 8783SOL     OW38379   5.893   7.511   6.204
 8783SOL    HW138380   5.882   7.605   6.237
 8783SOL    HW238381   5.888   7.448   6.281
 8784SOL     OW38382   7.208   7.815   5.960
 8784SOL    HW138383   7.210   7.739   6.024
 8784SOL    HW238384   7.160   7.892   6.000
 8785SOL     OW38385   6.609   8.214   6.552
 8785SOL    HW138386   6.624   8.235   6.648
 8785SOL    HW238387   6.579   8.119   6.543
 8786SOL     OW38388   5.936   8.346   7.390
 8786SOL    HW138389   6.012   8.390   7.438
 8786SOL    HW238390   5.971   8.299   7.308
 8787SOL     OW38391   7.126   7.722   5.711
 8787SOL    HW138392   7.065   7.647   5.734
 8787SOL    HW238393   7.148   7.774   5.794
 8788SOL     OW38394   6.889   8.286   5.628
 8788SOL    HW138395   6.923   8.193   5.643
 8788SOL    HW238396   6.907   8.313   5.533
 8789SOL     OW38397   5.905   8.258   6.535
 8789SOL    HW138398   5.998   8.294   6.540
 8789SOL    HW238399   5.899   8.173   6.587
 8790SOL     OW38400   5.925   7.957   6.592
 8790SOL    HW138401   5.873   7.874   6.575
 8790SOL    HW238402   6.002   7.962   6.528
 8791SOL     OW38403   6.746   7.655   7.063
 8791SOL    HW138404   6.746   7.719   7.140
 8791SOL    HW238405   6.774   7.703   6.980
 8792SOL     OW38406   6.588   8.244   6.824
 8792SOL    HW138407   6.629   8.212   6.910
 8792SOL    HW238408   6.492   8.217   6.821
 8793SOL     OW38409   5.626   7.992   6.700
 8793SOL    HW138410   5.711   7.959   6.659
 8793SOL    HW238411   5.639   8.007   6.798
 8794SOL     OW38412   6.401   8.020   5.911
 8794SOL    HW138413   6.408   7.931   5.865
 8794SOL    HW238414   6.307   8.054   5.903
 8795SOL     OW38415   7.243   8.052   6.792
 8795SOL    HW138416   7.205   7.983   6.854
 8795SOL    HW238417   7.325   8.016   6.748
 8796SOL     OW38418   6.257   7.912   6.855
 8796SOL    HW138419   6.223   7.823   6.825
 8796SOL    HW238420   6.283   7.966   6.775
 8797SOL     OW38421   6.059   7.948   5.777
 8797SOL    HW138422   6.120   8.028   5.781
 8797SOL    HW238423   5.964   7.979   5.784
 8798SOL     OW38424   5.745   8.585   7.052
 8798SOL    HW138425   5.767   8.524   7.128
 8798SOL    HW238426   5.755   8.536   6.966
 8799SOL     OW38427   6.933   8.507   6.820
 8799SOL    HW138428   6.957   8.444   6.746
 8799SOL    HW238429   6.843   8.547   6.802
 8800SOL     OW38430   6.888   8.303   5.895
 8800SOL    HW138431   6.802   8.272   5.937
 8800SOL    HW238432   6.884   8.289   5.796
 8801SOL     OW38433   7.312   7.583   6.109
 8801SOL    HW138434   7.385   7.566   6.042
 8801SOL    HW238435   7.281   7.496   6.147
 8802SOL     OW38436   6.866   8.375   6.258
 8802SOL    HW138437   6.926   8.294   6.260
 8802SOL    HW238438   6.906   8.444   6.198
 8803SOL     OW38439   6.416   8.721   7.008
 8803SOL    HW138440   6.411   8.754   7.103
 8803SOL    HW238441   6.330   8.740   6.962
 8804SOL     OW38442   7.427   7.623   6.549
 8804SOL    HW138443   7.466   7.538   6.513
 8804SOL    HW238444   7.329   7.625   6.530
 8805SOL     OW38445   5.849   7.774   6.306
 8805SOL    HW138446   5.770   7.825   6.272
 8805SOL    HW238447   5.840   7.759   6.404
 8806SOL     OW38448   6.408   8.450   6.958
 8806SOL    HW138449   6.448   8.449   6.866
 8806SOL    HW238450   6.418   8.542   6.998
 8807SOL     OW38451   6.502   8.358   5.877
 8807SOL    HW138452   6.565   8.396   5.809
 8807SOL    HW238453   6.542   8.275   5.916
 8808SOL     OW38454   6.600   7.684   6.557
 8808SOL    HW138455   6.592   7.648   6.464
 8808SOL    HW238456   6.598   7.608   6.622
 8809SOL     OW38457   7.295   7.833   6.967
 8809SOL    HW138458   7.368   7.902   6.971
 8809SOL    HW238459   7.323   7.758   6.908
 8810SOL     OW38460   5.691   8.461   7.312
 8810SOL    HW138461   5.614   8.428   7.366
 8810SOL    HW238462   5.776   8.431   7.354
 8811SOL     OW38463   6.258   7.651   7.075
 8811SOL    HW138464   6.348   7.635   7.035
 8811SOL    HW238465   6.266   7.656   7.174
 8812SOL     OW38466   5.658   7.614   5.904
 8812SOL    HW138467   5.641   7.697   5.850
 8812SOL    HW238468   5.748   7.577   5.882
 8813SOL     OW38469   6.199   8.290   7.017
 8813SOL    HW138470   6.255   8.371   7.000
 8813SOL    HW238471   6.258   8.210   7.020
 8814SOL     OW38472   7.260   8.331   6.840
 8814SOL    HW138473   7.233   8.242   6.803
 8814SOL    HW238474   7.261   8.399   6.767
 8815SOL     OW38475   6.811   7.773   6.035
 8815SOL    HW138476   6.876   7.699   6.024
 8815SOL    HW238477   6.831   7.823   6.119
 8816SOL     OW38478   6.180   8.193   6.238
 8816SOL    HW138479   6.230   8.278   6.219
 8816SOL    HW238480   6.092   8.195   6.190
 8817SOL     OW38481   7.316   8.382   7.103
 8817SOL    HW138482   7.354   8.473   7.118
 8817SOL    HW238483   7.308   8.365   7.004
 8818SOL     OW38484   6.669   8.432   5.673
 8818SOL    HW138485   6.646   8.485   5.591
 8818SOL    HW238486   6.750   8.376   5.654
 8819SOL     OW38487   7.410   7.640   6.813
 8819SOL    HW138488   7.406   7.550   6.857
 8819SOL    HW238489   7.413   7.629   6.714
 8820SOL     OW38490   6.014   7.872   6.106
 8820SOL    HW138491   6.044   7.800   6.044
 8820SOL    HW238492   5.975   7.832   6.189
 8821SOL     OW38493   5.903   7.995   6.866
 8821SOL    HW138494   5.941   7.936   6.938
 8821SOL    HW238495   5.943   7.969   6.778
 8822SOL     OW38496   7.010   7.662   6.698
 8822SOL    HW138497   7.062   7.597   6.753
 8822SOL    HW238498   6.961   7.725   6.759
 8823SOL     OW38499   6.587   7.482   6.740
 8823SOL    HW138500   6.524   7.410   6.709
 8823SOL    HW238501   6.680   7.446   6.740
 8824SOL     OW38502   6.938   7.500   5.754
 8824SOL    HW138503   6.973   7.459   5.670
 8824SOL    HW238504   6.848   7.462   5.774
 8825SOL     OW38505   6.886   7.901   6.277
 8825SOL    HW138506   6.827   7.981   6.281
 8825SOL    HW238507   6.901   7.866   6.370
 8826SOL     OW38508   7.179   7.669   6.468
 8826SOL    HW138509   7.095   7.668   6.522
 8826SOL    HW238510   7.181   7.752   6.412
 8827SOL     OW38511   7.678   0.628   0.113
 8827SOL    HW138512   7.585   0.626   0.150
 8827SOL    HW238513   7.679   0.589   0.021
 8828SOL     OW38514   7.673   0.275   0.996
 8828SOL    HW138515   7.708   0.258   1.088
 8828SOL    HW238516   7.585   0.230   0.984
 8829SOL     OW38517   7.467   0.368   0.647
 8829SOL    HW138518   7.385   0.411   0.686
 8829SOL    HW238519   7.439   0.295   0.584
 8830SOL     OW38520   8.017   1.275   1.165
 8830SOL    HW138521   7.924   1.268   1.128
 8830SOL    HW238522   8.028   1.364   1.209
 8831SOL     OW38523   9.003   1.511   0.703
 8831SOL    HW138524   8.946   1.495   0.784
 8831SOL    HW238525   8.944   1.521   0.623
 8832SOL     OW38526   8.583   0.703   0.717
 8832SOL    HW138527   8.640   0.781   0.692
 8832SOL    HW238528   8.523   0.729   0.793
 8833SOL     OW38529   9.203   0.607   0.231
 8833SOL    HW138530   9.191   0.594   0.132
 8833SOL    HW238531   9.173   0.526   0.280
 8834SOL     OW38532   8.216   1.144   1.023
 8834SOL    HW138533   8.138   1.161   1.083
 8834SOL    HW238534   8.250   1.231   0.987
 8835SOL     OW38535   8.133   1.012   0.665
 8835SOL    HW138536   8.202   0.996   0.735
 8835SOL    HW238537   8.060   1.069   0.703
 8836SOL     OW38538   7.783   1.435   1.061
 8836SOL    HW138539   7.705   1.404   1.008
 8836SOL    HW238540   7.841   1.493   1.004
 8837SOL     OW38541   8.908   1.505   1.339
 8837SOL    HW138542   8.932   1.599   1.365
 8837SOL    HW238543   8.892   1.451   1.421
 8838SOL     OW38544   9.051   0.447   0.737
 8838SOL    HW138545   8.977   0.493   0.687
 8838SOL    HW238546   9.102   0.515   0.790
 8839SOL     OW38547   7.679   1.713   0.483
 8839SOL    HW138548   7.713   1.790   0.537
 8839SOL    HW238549   7.723   1.713   0.393
 8840SOL     OW38550   7.678   1.434   0.538
 8840SOL    HW138551   7.652   1.530   0.538
 8840SOL    HW238552   7.607   1.380   0.583
 8841SOL     OW38553   7.688   1.091   0.886
 8841SOL    HW138554   7.702   1.007   0.938
 8841SOL    HW238555   7.633   1.155   0.941
 8842SOL     OW38556   8.068   1.786   1.439
 8842SOL    HW138557   7.976   1.769   1.474
 8842SOL    HW238558   8.096   1.878   1.465
 8843SOL     OW38559   8.054   0.964   0.123
 8843SOL    HW138560   8.061   1.048   0.069
 8843SOL    HW238561   8.100   0.977   0.211
 8844SOL     OW38562   7.570   0.643   0.563
 8844SOL    HW138563   7.525   0.555   0.580
 8844SOL    HW238564   7.569   0.697   0.647
 8845SOL     OW38565   9.290   1.767   0.359
 8845SOL    HW138566   9.344   1.738   0.439
 8845SOL    HW238567   9.320   1.857   0.330
 8846SOL     OW38568   7.475   1.596   0.117
 8846SOL    HW138569   7.456   1.500   0.138
 8846SOL    HW238570   7.442   1.654   0.192
 8847SOL     OW38571   8.061   1.365   0.726
 8847SOL    HW138572   8.012   1.278   0.735
 8847SOL    HW238573   8.038   1.408   0.639
 8848SOL     OW38574   8.257   0.004   0.502
 8848SOL    HW138575   8.297   0.095   0.493
 8848SOL    HW238576   8.157   0.012   0.508
 8849SOL     OW38577   8.973   0.999   0.190
 8849SOL    HW138578   8.910   0.923   0.203
 8849SOL    HW238579   9.021   1.017   0.276
 8850SOL     OW38580   8.635   1.792   1.616
 8850SOL    HW138581   8.659   1.852   1.540
 8850SOL    HW238582   8.642   1.697   1.586
 8851SOL     OW38583   7.765   0.251   1.801
 8851SOL    HW138584   7.836   0.322   1.807
 8851SOL    HW238585   7.677   0.290   1.829
 8852SOL     OW38586   8.914   1.417   0.953
 8852SOL    HW138587   8.855   1.423   1.033
 8852SOL    HW238588   8.899   1.329   0.907
 8853SOL     OW38589   9.115   1.714   0.572
 8853SOL    HW138590   9.074   1.691   0.484
 8853SOL    HW238591   9.097   1.640   0.637
 8854SOL     OW38592   8.046   0.729   0.270
 8854SOL    HW138593   8.070   0.798   0.202
 8854SOL    HW238594   7.968   0.762   0.324
 8855SOL     OW38595   8.729   0.345   0.944
 8855SOL    HW138596   8.643   0.295   0.931
 8855SOL    HW238597   8.791   0.291   1.000
 8856SOL     OW38598   9.024   1.662   0.307
 8856SOL    HW138599   9.113   1.708   0.310
 8856SOL    HW238600   9.003   1.638   0.212
 8857SOL     OW38601   8.421   0.890   1.572
 8857SOL    HW138602   8.467   0.806   1.543
 8857SOL    HW238603   8.365   0.924   1.497
 8858SOL     OW38604   8.489   0.701   0.429
 8858SOL    HW138605   8.515   0.697   0.525
 8858SOL    HW238606   8.404   0.650   0.415
 8859SOL     OW38607   7.524   0.811   0.789
 8859SOL    HW138608   7.623   0.799   0.798
 8859SOL    HW238609   7.500   0.906   0.810
 8860SOL     OW38610   8.313   0.348   0.195
 8860SOL    HW138611   8.372   0.411   0.146
 8860SOL    HW238612   8.332   0.254   0.166
 8861SOL     OW38613   8.810   1.144   0.545
 8861SOL    HW138614   8.893   1.115   0.497
 8861SOL    HW238615   8.761   1.211   0.489
 8862SOL     OW38616   8.456   1.456   0.477
 8862SOL    HW138617   8.410   1.528   0.425
 8862SOL    HW238618   8.452   1.476   0.575
 8863SOL     OW38619   7.799   1.801   0.853
 8863SOL    HW138620   7.849   1.715   0.859
 8863SOL    HW238621   7.864   1.878   0.850
 8864SOL     OW38622   7.769   0.943   0.242
 8864SOL    HW138623   7.851   0.982   0.200
 8864SOL    HW238624   7.742   0.861   0.193
 8865SOL     OW38625   8.906   0.735   0.728
 8865SOL    HW138626   8.901   0.670   0.803
 8865SOL    HW238627   8.986   0.794   0.741
 8866SOL     OW38628   7.909   1.266   1.727
 8866SOL    HW138629   7.859   1.267   1.641
 8866SOL    HW238630   7.846   1.248   1.803
 8867SOL     OW38631   8.559   1.776   0.237
 8867SOL    HW138632   8.499   1.714   0.287
 8867SOL    HW238633   8.590   1.732   0.152
 8868SOL     OW38634   9.080   1.377   0.081
 8868SOL    HW138635   9.048   1.471   0.071
 8868SOL    HW238636   9.004   1.314   0.069
 8869SOL     OW38637   7.912   1.743   0.323
 8869SOL    HW138638   7.945   1.782   0.409
 8869SOL    HW238639   7.988   1.736   0.258
 8870SOL     OW38640   8.848   0.107   0.426
 8870SOL    HW138641   8.824   0.070   0.336
 8870SOL    HW238642   8.947   0.123   0.430
 8871SOL     OW38643   8.388   1.698   0.904
 8871SOL    HW138644   8.468   1.641   0.925
 8871SOL    HW238645   8.339   1.658   0.827
 8872SOL     OW38646   7.830   0.700   0.480
 8872SOL    HW138647   7.875   0.610   0.477
 8872SOL    HW238648   7.736   0.689   0.513
 8873SOL     OW38649   8.995   0.222   1.729
 8873SOL    HW138650   8.990   0.259   1.821
 8873SOL    HW238651   8.923   0.153   1.717
 8874SOL     OW38652   8.062   0.122   0.117
 8874SOL    HW138653   8.160   0.100   0.124
 8874SOL    HW238654   8.031   0.105   0.024
 8875SOL     OW38655   8.336   1.514   1.195
 8875SOL    HW138656   8.313   1.489   1.101
 8875SOL    HW238657   8.397   1.445   1.234
 8876SOL     OW38658   8.251   1.402   0.924
 8876SOL    HW138659   8.341   1.416   0.882
 8876SOL    HW238660   8.180   1.404   0.853
 8877SOL     OW38661   7.987   0.064   0.512
 8877SOL    HW138662   7.906   0.065   0.570
 8877SOL    HW238663   7.990   0.147   0.457
 8878SOL     OW38664   8.882   1.188   0.041
 8878SOL    HW138665   8.914   1.112   0.098
 8878SOL    HW238666   8.790   1.215   0.071
 8879SOL     OW38667   7.745   0.035   0.171
 8879SOL    HW138668   7.794   0.119   0.150
 8879SOL    HW238669   7.807  -0.030   0.216
 8880SOL     OW38670   8.383   0.236   0.480
 8880SOL    HW138671   8.335   0.277   0.402
 8880SOL    HW238672   8.482   0.234   0.461
 8881SOL     OW38673   8.524   0.683   1.464
 8881SOL    HW138674   8.444   0.622   1.467
 8881SOL    HW238675   8.605   0.630   1.440
 8882SOL     OW38676   8.675   1.570   0.793
 8882SOL    HW138677   8.696   1.644   0.728
 8882SOL    HW238678   8.743   1.570   0.866
 8883SOL     OW38679   7.907   1.152   0.741
 8883SOL    HW138680   7.836   1.125   0.806
 8883SOL    HW238681   7.881   1.124   0.648
 8884SOL     OW38682   8.719   1.797   0.591
 8884SOL    HW138683   8.763   1.861   0.527
 8884SOL    HW238684   8.669   1.849   0.661
 8885SOL     OW38685   8.480   0.549   0.016
 8885SOL    HW138686   8.439   0.631  -0.023
 8885SOL    HW238687   8.544   0.575   0.089
 8886SOL     OW38688   8.465   0.039   0.753
 8886SOL    HW138689   8.393   0.044   0.684
 8886SOL    HW238690   8.441  -0.030   0.822
 8887SOL     OW38691   8.914   0.590   0.992
 8887SOL    HW138692   8.884   0.495   0.999
 8887SOL    HW238693   8.987   0.606   1.058
 8888SOL     OW38694   9.305   0.833   0.377
 8888SOL    HW138695   9.347   0.769   0.441
 8888SOL    HW238696   9.267   0.782   0.299
 8889SOL     OW38697   7.936   1.385   0.174
 8889SOL    HW138698   7.849   1.370   0.221
 8889SOL    HW238699   7.919   1.411   0.079
 8890SOL     OW38700   8.838   0.575   0.078
 8890SOL    HW138701   8.784   0.554   0.159
 8890SOL    HW238702   8.929   0.534   0.087
 8891SOL     OW38703   7.975   0.256   0.328
 8891SOL    HW138704   8.002   0.197   0.253
 8891SOL    HW238705   7.975   0.351   0.297
 8892SOL     OW38706   8.428   1.116   1.719
 8892SOL    HW138707   8.329   1.122   1.729
 8892SOL    HW238708   8.451   1.036   1.663
 8893SOL     OW38709   8.153   1.050   0.368
 8893SOL    HW138710   8.139   1.057   0.467
 8893SOL    HW238711   8.237   0.999   0.350
 8894SOL     OW38712   8.722   0.386   1.262
 8894SOL    HW138713   8.743   0.460   1.326
 8894SOL    HW238714   8.633   0.403   1.219
 8895SOL     OW38715   7.512   1.564   1.331
 8895SOL    HW138716   7.466   1.646   1.297
 8895SOL    HW238717   7.610   1.583   1.340
 8896SOL     OW38718   7.815   1.100   0.501
 8896SOL    HW138719   7.808   1.183   0.445
 8896SOL    HW238720   7.819   1.020   0.441
 8897SOL     OW38721   8.014   0.537   0.865
 8897SOL    HW138722   8.026   0.603   0.791
 8897SOL    HW238723   8.060   0.571   0.948
 8898SOL     OW38724   8.700   1.348   0.388
 8898SOL    HW138725   8.750   1.425   0.428
 8898SOL    HW238726   8.605   1.350   0.420
 8899SOL     OW38727   9.030   0.639   0.472
 8899SOL    HW138728   8.999   0.700   0.545
 8899SOL    HW238729   9.080   0.691   0.403
 8900SOL     OW38730   7.802   1.510   1.329
 8900SOL    HW138731   7.781   1.466   1.242
 8900SOL    HW238732   7.899   1.536   1.332
 8901SOL     OW38733   7.850   0.751   1.598
 8901SOL    HW138734   7.918   0.806   1.551
 8901SOL    HW238735   7.890   0.663   1.625
 8902SOL     OW38736   9.035   0.779   1.670
 8902SOL    HW138737   8.943   0.817   1.665
 8902SOL    HW238738   9.095   0.826   1.605
 8903SOL     OW38739   7.952   0.050   1.740
 8903SOL    HW138740   7.910  -0.007   1.670
 8903SOL    HW238741   7.886   0.119   1.772
 8904SOL     OW38742   8.021   0.870   1.029
 8904SOL    HW138743   8.065   0.959   1.020
 8904SOL    HW238744   7.958   0.870   1.106
 8905SOL     OW38745   8.657   0.525   0.275
 8905SOL    HW138746   8.670   0.441   0.329
 8905SOL    HW238747   8.628   0.599   0.335
 8906SOL     OW38748   7.755   0.213   1.231
 8906SOL    HW138749   7.732   0.250   1.321
 8906SOL    HW238750   7.725   0.118   1.225
 8907SOL     OW38751   7.485   1.310   1.282
 8907SOL    HW138752   7.538   1.261   1.350
 8907SOL    HW238753   7.507   1.408   1.287
 8908SOL     OW38754   7.755   0.063   0.618
 8908SOL    HW138755   7.744   0.157   0.651
 8908SOL    HW238756   7.750   0.000   0.695
 8909SOL     OW38757   9.070   0.367   0.374
 8909SOL    HW138758   9.072   0.291   0.438
 8909SOL    HW238759   9.022   0.444   0.414
 8910SOL     OW38760   8.471   0.766   0.966
 8910SOL    HW138761   8.486   0.787   1.062
 8910SOL    HW238762   8.441   0.671   0.957
 8911SOL     OW38763   8.988   0.274   0.125
 8911SOL    HW138764   8.927   0.199   0.148
 8911SOL    HW238765   9.010   0.326   0.208
 8912SOL     OW38766   8.751   0.838   0.042
 8912SOL    HW138767   8.785   0.745   0.057
 8912SOL    HW238768   8.769   0.865  -0.053
 8913SOL     OW38769   8.516   1.333   0.849
 8913SOL    HW138770   8.523   1.249   0.794
 8913SOL    HW238771   8.578   1.402   0.813
 8914SOL     OW38772   7.767   0.810   0.949
 8914SOL    HW138773   7.860   0.846   0.954
 8914SOL    HW238774   7.761   0.725   1.001
 8915SOL     OW38775   7.787   0.509   1.006
 8915SOL    HW138776   7.735   0.426   0.989
 8915SOL    HW238777   7.864   0.514   0.942
 8916SOL     OW38778   7.456   1.326   0.200
 8916SOL    HW138779   7.363   1.347   0.169
 8916SOL    HW238780   7.466   1.227   0.213
 8917SOL     OW38781   7.536   1.801   0.927
 8917SOL    HW138782   7.494   1.715   0.900
 8917SOL    HW238783   7.630   1.804   0.893
 8918SOL     OW38784   7.952   1.568   0.910
 8918SOL    HW138785   8.018   1.642   0.919
 8918SOL    HW238786   7.996   1.489   0.868
 8919SOL     OW38787   8.450   0.796   1.238
 8919SOL    HW138788   8.491   0.764   1.324
 8919SOL    HW238789   8.354   0.769   1.235
 8920SOL     OW38790   7.488   0.544   1.114
 8920SOL    HW138791   7.573   0.511   1.073
 8920SOL    HW238792   7.501   0.559   1.212
 8921SOL     OW38793   8.263   0.572   0.325
 8921SOL    HW138794   8.270   0.483   0.279
 8921SOL    HW238795   8.169   0.606   0.317
 8922SOL     OW38796   8.378   1.678   1.465
 8922SOL    HW138797   8.354   1.660   1.370
 8922SOL    HW238798   8.408   1.772   1.475
 8923SOL     OW38799   7.921   0.500   0.191
 8923SOL    HW138800   7.982   0.580   0.195
 8923SOL    HW238801   7.826   0.531   0.198
 8924SOL     OW38802   8.750   0.855   0.309
 8924SOL    HW138803   8.664   0.824   0.351
 8924SOL    HW238804   8.746   0.841   0.210
 8925SOL     OW38805   7.531   1.258   1.022
 8925SOL    HW138806   7.526   1.257   1.122
 8925SOL    HW238807   7.448   1.217   0.984
 8926SOL     OW38808   8.136   1.662   1.716
 8926SOL    HW138809   8.080   1.743   1.725
 8926SOL    HW238810   8.188   1.666   1.630
 8927SOL     OW38811   8.351   0.086   0.133
 8927SOL    HW138812   8.402   0.087   0.047
 8927SOL    HW238813   8.407   0.044   0.204
 8928SOL     OW38814   9.174   0.135   0.523
 8928SOL    HW138815   9.247   0.118   0.456
 8928SOL    HW238816   9.143   0.048   0.561
 8929SOL     OW38817   8.836   1.573   0.477
 8929SOL    HW138818   8.903   1.585   0.403
 8929SOL    HW238819   8.796   1.662   0.500
 8930SOL     OW38820   8.728   0.927   0.672
 8930SOL    HW138821   8.788   0.846   0.674
 8930SOL    HW238822   8.768   0.996   0.612
 8931SOL     OW38823   8.120   1.616   0.154
 8931SOL    HW138824   8.129   1.626   0.055
 8931SOL    HW238825   8.080   1.527   0.175
 8932SOL     OW38826   9.098   1.720   1.394
 8932SOL    HW138827   9.151   1.730   1.310
 8932SOL    HW238828   9.071   1.810   1.428
 8933SOL     OW38829   9.289   0.175   0.963
 8933SOL    HW138830   9.328   0.090   0.927
 8933SOL    HW238831   9.191   0.177   0.944
 8934SOL     OW38832   7.711   0.326   0.720
 8934SOL    HW138833   7.632   0.377   0.686
 8934SOL    HW238834   7.702   0.311   0.818
 8935SOL     OW38835   8.642   1.612   0.031
 8935SOL    HW138836   8.648   1.519   0.068
 8935SOL    HW238837   8.583   1.612  -0.049
 8936SOL     OW38838   8.270   1.002   1.372
 8936SOL    HW138839   8.310   1.001   1.280
 8936SOL    HW238840   8.280   1.094   1.412
 8937SOL     OW38841   8.364   0.910   0.291
 8937SOL    HW138842   8.427   0.948   0.223
 8937SOL    HW238843   8.404   0.827   0.330
 8938SOL     OW38844   8.952   1.607   0.044
 8938SOL    HW138845   8.860   1.644   0.051
 8938SOL    HW238846   8.990   1.627  -0.046
 8939SOL     OW38847   9.062   1.292   1.289
 8939SOL    HW138848   9.122   1.295   1.369
 8939SOL    HW238849   8.987   1.356   1.302
 8940SOL     OW38850   8.487   1.098   0.696
 8940SOL    HW138851   8.417   1.051   0.750
 8940SOL    HW238852   8.546   1.030   0.653
 8941SOL     OW38853   8.462   0.236   0.971
 8941SOL    HW138854   8.454   0.200   0.878
 8941SOL    HW238855   8.460   0.160   1.036
 8942SOL     OW38856   8.038   1.487   0.491
 8942SOL    HW138857   8.080   1.429   0.421
 8942SOL    HW238858   7.994   1.566   0.447
 8943SOL     OW38859   7.703   1.348   0.290
 8943SOL    HW138860   7.607   1.349   0.263
 8943SOL    HW238861   7.715   1.401   0.374
 8944SOL     OW38862   7.523   0.345   0.033
 8944SOL    HW138863   7.431   0.317   0.004
 8944SOL    HW238864   7.554   0.422  -0.023
 8945SOL     OW38865   7.520   0.166   0.318
 8945SOL    HW138866   7.503   0.249   0.264
 8945SOL    HW238867   7.610   0.129   0.296
 8946SOL     OW38868   8.631   1.335   0.119
 8946SOL    HW138869   8.532   1.324   0.121
 8946SOL    HW238870   8.665   1.350   0.212
 8947SOL     OW38871   8.941   1.767   0.959
 8947SOL    HW138872   8.974   1.831   0.890
 8947SOL    HW238873   9.007   1.761   1.034
 8948SOL     OW38874   7.838   1.741   1.560
 8948SOL    HW138875   7.747   1.782   1.558
 8948SOL    HW238876   7.831   1.647   1.592
 8949SOL     OW38877   9.122   0.883   1.254
 8949SOL    HW138878   9.095   0.794   1.217
 8949SOL    HW238879   9.123   0.951   1.181
 8950SOL     OW38880   8.673   0.325   0.449
 8950SOL    HW138881   8.738   0.251   0.438
 8950SOL    HW238882   8.693   0.375   0.533
 8951SOL     OW38883   8.042   0.745   0.652
 8951SOL    HW138884   8.092   0.830   0.633
 8951SOL    HW238885   7.954   0.747   0.604
 8952SOL     OW38886   9.225   0.342   1.642
 8952SOL    HW138887   9.208   0.373   1.548
 8952SOL    HW238888   9.141   0.305   1.680
 8953SOL     OW38889   8.307   1.374   0.016
 8953SOL    HW138890   8.261   1.389   0.104
 8953SOL    HW238891   8.351   1.459  -0.014
 8954SOL     OW38892   8.109   1.790   0.953
 8954SOL    HW138893   8.063   1.878   0.940
 8954SOL    HW238894   8.208   1.802   0.946
 8955SOL     OW38895   8.307   0.956   0.861
 8955SOL    HW138896   8.361   0.887   0.909
 8955SOL    HW238897   8.275   1.025   0.927
 8956SOL     OW38898   8.531   0.984   0.087
 8956SOL    HW138899   8.508   1.037   0.005
 8956SOL    HW238900   8.612   0.928   0.068
 8957SOL     OW38901   9.309   1.569   0.851
 8957SOL    HW138902   9.238   1.557   0.781
 8957SOL    HW238903   9.310   1.490   0.911
 8958SOL     OW38904   7.527   1.240   0.653
 8958SOL    HW138905   7.526   1.193   0.741
 8958SOL    HW238906   7.609   1.212   0.602
 8959SOL     OW38907   9.272   0.192   1.227
 8959SOL    HW138908   9.268   0.102   1.271
 8959SOL    HW238909   9.275   0.181   1.128
 8960SOL     OW38910   7.876   0.424   0.520
 8960SOL    HW138911   7.906   0.352   0.458
 8960SOL    HW238912   7.837   0.384   0.603
 8961SOL     OW38913   9.153   1.487   1.104
 8961SOL    HW138914   9.060   1.462   1.077
 8961SOL    HW238915   9.179   1.437   1.186
 8962SOL     OW38916   7.765   0.547   1.280
 8962SOL    HW138917   7.803   0.488   1.352
 8962SOL    HW238918   7.805   0.521   1.192
 8963SOL     OW38919   8.260   1.586   0.687
 8963SOL    HW138920   8.292   1.596   0.593
 8963SOL    HW238921   8.181   1.524   0.689
 8964SOL     OW38922   8.872   0.214   1.112
 8964SOL    HW138923   8.924   0.149   1.167
 8964SOL    HW238924   8.823   0.277   1.173
 8965SOL     OW38925   8.449   0.034   1.154
 8965SOL    HW138926   8.386  -0.038   1.123
 8965SOL    HW238927   8.542  -0.002   1.154
 8966SOL     OW38928   8.218   1.330   0.301
 8966SOL    HW138929   8.172   1.243   0.318
 8966SOL    HW238930   8.309   1.327   0.342
 8967SOL     OW38931   8.800   0.052   0.168
 8967SOL    HW138932   8.835   0.011   0.084
 8967SOL    HW238933   8.710   0.014   0.188
 8968SOL     OW38934   8.748   0.453   0.691
 8968SOL    HW138935   8.689   0.533   0.695
 8968SOL    HW238936   8.763   0.418   0.784
 8969SOL     OW38937   9.041   0.221   0.882
 8969SOL    HW138938   8.957   0.220   0.936
 8969SOL    HW238939   9.043   0.304   0.826
 8970SOL     OW38940   7.487   1.077   0.300
 8970SOL    HW138941   7.586   1.066   0.291
 8970SOL    HW238942   7.447   0.991   0.332
 8971SOL     OW38943   8.323   1.646   0.337
 8971SOL    HW138944   8.246   1.611   0.283
 8971SOL    HW238945   8.291   1.717   0.399
 8972SOL     OW38946   7.673   0.275   2.858
 8972SOL    HW138947   7.708   0.258   2.950
 8972SOL    HW238948   7.585   0.230   2.846
 8973SOL     OW38949   7.467   0.368   2.509
 8973SOL    HW138950   7.385   0.411   2.548
 8973SOL    HW238951   7.439   0.295   2.446
 8974SOL     OW38952   8.298   0.798   3.685
 8974SOL    HW138953   8.294   0.874   3.750
 8974SOL    HW238954   8.320   0.834   3.594
 8975SOL     OW38955   8.134   1.161   3.665
 8975SOL    HW138956   8.194   1.240   3.679
 8975SOL    HW238957   8.048   1.192   3.624
 8976SOL     OW38958   8.575   1.341   3.552
 8976SOL    HW138959   8.622   1.341   3.640
 8976SOL    HW238960   8.527   1.254   3.541
 8977SOL     OW38961   7.688   1.091   2.748
 8977SOL    HW138962   7.702   1.007   2.800
 8977SOL    HW238963   7.633   1.155   2.803
 8978SOL     OW38964   8.068   1.786   3.301
 8978SOL    HW138965   7.976   1.769   3.336
 8978SOL    HW238966   8.096   1.878   3.327
 8979SOL     OW38967   7.561   0.737   3.459
 8979SOL    HW138968   7.649   0.724   3.504
 8979SOL    HW238969   7.548   0.834   3.437
 8980SOL     OW38970   8.741   1.228   3.285
 8980SOL    HW138971   8.778   1.155   3.227
 8980SOL    HW238972   8.793   1.233   3.370
 8981SOL     OW38973   8.257   0.004   2.364
 8981SOL    HW138974   8.297   0.095   2.355
 8981SOL    HW238975   8.157   0.012   2.370
 8982SOL     OW38976   8.635   1.792   3.478
 8982SOL    HW138977   8.659   1.852   3.402
 8982SOL    HW238978   8.642   1.697   3.448
 8983SOL     OW38979   7.765   0.251   3.663
 8983SOL    HW138980   7.836   0.322   3.669
 8983SOL    HW238981   7.677   0.290   3.691
 8984SOL     OW38982   8.046   0.729   2.132
 8984SOL    HW138983   8.070   0.798   2.064
 8984SOL    HW238984   7.968   0.762   2.186
 8985SOL     OW38985   8.729   0.345   2.806
 8985SOL    HW138986   8.643   0.295   2.793
 8985SOL    HW238987   8.791   0.291   2.862
 8986SOL     OW38988   8.255   0.605   3.327
 8986SOL    HW138989   8.208   0.602   3.416
 8986SOL    HW238990   8.204   0.550   3.261
 8987SOL     OW38991   8.842   0.469   3.536
 8987SOL    HW138992   8.822   0.512   3.624
 8987SOL    HW238993   8.920   0.407   3.545
 8988SOL     OW38994   8.439   0.410   3.104
 8988SOL    HW138995   8.362   0.444   3.158
 8988SOL    HW238996   8.405   0.359   3.025
 8989SOL     OW38997   9.167   0.585   3.693
 8989SOL    HW138998   9.141   0.674   3.657
 8989SOL    HW238999   9.165   0.517   3.620
 8990SOL     OW39000   9.243   1.066   2.735
 8990SOL    HW139001   9.181   1.051   2.659
 8990SOL    HW239002   9.191   1.077   2.820
 8991SOL     OW39003   8.675   1.550   3.368
 8991SOL    HW139004   8.681   1.473   3.432
 8991SOL    HW239005   8.623   1.524   3.288
 8992SOL     OW39006   7.909   1.266   3.589
 8992SOL    HW139007   7.859   1.267   3.503
 8992SOL    HW239008   7.846   1.248   3.665
 8993SOL     OW39009   7.650   0.285   3.360
 8993SOL    HW139010   7.570   0.345   3.347
 8993SOL    HW239011   7.640   0.236   3.446
 8994SOL     OW39012   7.912   1.743   2.185
 8994SOL    HW139013   7.945   1.782   2.271
 8994SOL    HW239014   7.988   1.736   2.120
 8995SOL     OW39015   8.062   0.122   1.979
 8995SOL    HW139016   8.160   0.100   1.986
 8995SOL    HW239017   8.031   0.105   1.886
 8996SOL     OW39018   8.370   0.503   2.761
 8996SOL    HW139019   8.345   0.494   2.665
 8996SOL    HW239020   8.418   0.421   2.792
 8997SOL     OW39021   8.524   0.683   3.326
 8997SOL    HW139022   8.444   0.622   3.329
 8997SOL    HW239023   8.605   0.630   3.302
 8998SOL     OW39024   8.675   1.570   2.655
 8998SOL    HW139025   8.696   1.644   2.590
 8998SOL    HW239026   8.743   1.570   2.728
 8999SOL     OW39027   9.305   0.833   2.239
 8999SOL    HW139028   9.347   0.769   2.303
 8999SOL    HW239029   9.267   0.782   2.161
 9000SOL     OW39030   9.086   1.099   2.941
 9000SOL    HW139031   9.091   1.180   3.000
 9000SOL    HW239032   9.000   1.101   2.890
 9001SOL     OW39033   7.858   0.813   3.113
 9001SOL    HW139034   7.944   0.825   3.163
 9001SOL    HW239035   7.816   0.726   3.140
 9002SOL     OW39036   7.512   1.564   3.193
 9002SOL    HW139037   7.466   1.646   3.159
 9002SOL    HW239038   7.610   1.583   3.202
 9003SOL     OW39039   8.720   1.445   3.004
 9003SOL    HW139040   8.767   1.458   3.091
 9003SOL    HW239041   8.654   1.371   3.013
 9004SOL     OW39042   7.850   0.751   3.460
 9004SOL    HW139043   7.918   0.806   3.413
 9004SOL    HW239044   7.890   0.663   3.487
 9005SOL     OW39045   9.035   0.779   3.532
 9005SOL    HW139046   8.943   0.817   3.527
 9005SOL    HW239047   9.095   0.826   3.467
 9006SOL     OW39048   9.176   0.935   3.716
 9006SOL    HW139049   9.130   0.928   3.627
 9006SOL    HW239050   9.114   0.979   3.782
 9007SOL     OW39051   8.751   0.838   1.904
 9007SOL    HW139052   8.785   0.745   1.919
 9007SOL    HW239053   8.769   0.865   1.809
 9008SOL     OW39054   8.516   1.333   2.711
 9008SOL    HW139055   8.523   1.249   2.656
 9008SOL    HW239056   8.578   1.402   2.675
 9009SOL     OW39057   7.767   0.810   2.811
 9009SOL    HW139058   7.860   0.846   2.816
 9009SOL    HW239059   7.761   0.725   2.863
 9010SOL     OW39060   7.787   0.509   2.868
 9010SOL    HW139061   7.735   0.426   2.851
 9010SOL    HW239062   7.864   0.514   2.804
 9011SOL     OW39063   8.586   0.380   3.540
 9011SOL    HW139064   8.541   0.443   3.604
 9011SOL    HW239065   8.679   0.411   3.523
 9012SOL     OW39066   7.456   1.326   2.062
 9012SOL    HW139067   7.363   1.347   2.031
 9012SOL    HW239068   7.466   1.227   2.075
 9013SOL     OW39069   7.952   1.568   2.772
 9013SOL    HW139070   8.018   1.642   2.781
 9013SOL    HW239071   7.996   1.489   2.730
 9014SOL     OW39072   8.450   0.796   3.100
 9014SOL    HW139073   8.491   0.764   3.186
 9014SOL    HW239074   8.354   0.769   3.097
 9015SOL     OW39075   7.488   0.544   2.976
 9015SOL    HW139076   7.573   0.511   2.935
 9015SOL    HW239077   7.501   0.559   3.074
 9016SOL     OW39078   8.817   0.950   3.522
 9016SOL    HW139079   8.856   1.039   3.542
 9016SOL    HW239080   8.827   0.930   3.425
 9017SOL     OW39081   9.105   0.604   3.068
 9017SOL    HW139082   9.067   0.535   3.130
 9017SOL    HW239083   9.187   0.568   3.024
 9018SOL     OW39084   7.700   1.564   3.606
 9018SOL    HW139085   7.670   1.621   3.682
 9018SOL    HW239086   7.693   1.467   3.632
 9019SOL     OW39087   8.119   0.464   3.131
 9019SOL    HW139088   8.085   0.375   3.101
 9019SOL    HW239089   8.145   0.518   3.051
 9020SOL     OW39090   7.921   0.500   2.053
 9020SOL    HW139091   7.982   0.580   2.057
 9020SOL    HW239092   7.826   0.531   2.060
 9021SOL     OW39093   9.207   1.747   3.016
 9021SOL    HW139094   9.268   1.777   2.943
 9021SOL    HW239095   9.169   1.658   2.994
 9022SOL     OW39096   8.136   1.662   3.578
 9022SOL    HW139097   8.080   1.743   3.587
 9022SOL    HW239098   8.188   1.666   3.492
 9023SOL     OW39099   7.578   1.794   3.713
 9023SOL    HW139100   7.537   1.720   3.766
 9023SOL    HW239101   7.642   1.845   3.771
 9024SOL     OW39102   8.120   1.616   2.016
 9024SOL    HW139103   8.129   1.626   1.917
 9024SOL    HW239104   8.080   1.527   2.037
 9025SOL     OW39105   9.289   0.175   2.825
 9025SOL    HW139106   9.328   0.090   2.789
 9025SOL    HW239107   9.191   0.177   2.806
 9026SOL     OW39108   7.820   1.288   3.352
 9026SOL    HW139109   7.807   1.381   3.318
 9026SOL    HW239110   7.736   1.236   3.339
 9027SOL     OW39111   8.462   0.236   2.833
 9027SOL    HW139112   8.454   0.200   2.740
 9027SOL    HW239113   8.460   0.160   2.898
 9028SOL     OW39114   9.225   0.342   3.504
 9028SOL    HW139115   9.208   0.373   3.410
 9028SOL    HW239116   9.141   0.305   3.542
 9029SOL     OW39117   8.307   1.374   1.878
 9029SOL    HW139118   8.261   1.389   1.966
 9029SOL    HW239119   8.351   1.459   1.848
 9030SOL     OW39120   7.669   1.314   3.706
 9030SOL    HW139121   7.604   1.241   3.685
 9030SOL    HW239122   7.673   1.328   3.804
 9031SOL     OW39123   8.120   1.391   3.486
 9031SOL    HW139124   8.042   1.341   3.524
 9031SOL    HW239125   8.117   1.486   3.517
 9032SOL     OW39126   8.066   1.567   3.146
 9032SOL    HW139127   8.061   1.649   3.203
 9032SOL    HW239128   8.155   1.564   3.101
 9033SOL     OW39129   8.800   0.052   2.030
 9033SOL    HW139130   8.835   0.011   1.946
 9033SOL    HW239131   8.710   0.014   2.050
 9034SOL     OW39132   9.041   0.221   2.744
 9034SOL    HW139133   8.957   0.220   2.798
 9034SOL    HW239134   9.043   0.304   2.688
 9035SOL     OW39135   7.467   0.368   4.371
 9035SOL    HW139136   7.385   0.411   4.410
 9035SOL    HW239137   7.439   0.295   4.308
 9036SOL     OW39138   9.203   0.607   3.955
 9036SOL    HW139139   9.191   0.594   3.856
 9036SOL    HW239140   9.173   0.526   4.004
 9037SOL     OW39141   8.216   1.144   4.747
 9037SOL    HW139142   8.138   1.161   4.807
 9037SOL    HW239143   8.250   1.231   4.711
 9038SOL     OW39144   8.298   0.798   5.547
 9038SOL    HW139145   8.294   0.874   5.612
 9038SOL    HW239146   8.320   0.834   5.456
 9039SOL     OW39147   8.133   1.012   4.389
 9039SOL    HW139148   8.202   0.996   4.459
 9039SOL    HW239149   8.060   1.069   4.427
 9040SOL     OW39150   8.134   1.161   5.527
 9040SOL    HW139151   8.194   1.240   5.541
 9040SOL    HW239152   8.048   1.192   5.486
 9041SOL     OW39153   7.679   1.713   4.207
 9041SOL    HW139154   7.713   1.790   4.261
 9041SOL    HW239155   7.723   1.713   4.117
 9042SOL     OW39156   7.688   1.091   4.610
 9042SOL    HW139157   7.702   1.007   4.662
 9042SOL    HW239158   7.633   1.155   4.665
 9043SOL     OW39159   7.475   1.596   3.841
 9043SOL    HW139160   7.456   1.500   3.862
 9043SOL    HW239161   7.442   1.654   3.916
 9044SOL     OW39162   8.061   1.365   4.450
 9044SOL    HW139163   8.012   1.278   4.459
 9044SOL    HW239164   8.038   1.408   4.363
 9045SOL     OW39165   8.741   1.228   5.147
 9045SOL    HW139166   8.778   1.155   5.089
 9045SOL    HW239167   8.793   1.233   5.232
 9046SOL     OW39168   7.765   0.251   5.525
 9046SOL    HW139169   7.836   0.322   5.531
 9046SOL    HW239170   7.677   0.290   5.553
 9047SOL     OW39171   8.914   1.417   4.677
 9047SOL    HW139172   8.855   1.423   4.757
 9047SOL    HW239173   8.899   1.329   4.631
 9048SOL     OW39174   8.255   0.605   5.189
 9048SOL    HW139175   8.208   0.602   5.278
 9048SOL    HW239176   8.204   0.550   5.123
 9049SOL     OW39177   8.489   0.701   4.153
 9049SOL    HW139178   8.515   0.697   4.249
 9049SOL    HW239179   8.404   0.650   4.139
 9050SOL     OW39180   8.313   0.348   3.919
 9050SOL    HW139181   8.372   0.411   3.870
 9050SOL    HW239182   8.332   0.254   3.890
 9051SOL     OW39183   8.675   1.550   5.230
 9051SOL    HW139184   8.681   1.473   5.294
 9051SOL    HW239185   8.623   1.524   5.150
 9052SOL     OW39186   7.909   1.266   5.451
 9052SOL    HW139187   7.859   1.267   5.365
 9052SOL    HW239188   7.846   1.248   5.527
 9053SOL     OW39189   7.650   0.285   5.222
 9053SOL    HW139190   7.570   0.345   5.209
 9053SOL    HW239191   7.640   0.236   5.308
 9054SOL     OW39192   7.912   1.743   4.047
 9054SOL    HW139193   7.945   1.782   4.133
 9054SOL    HW239194   7.988   1.736   3.982
 9055SOL     OW39195   8.848   0.107   4.150
 9055SOL    HW139196   8.824   0.070   4.060
 9055SOL    HW239197   8.947   0.123   4.154
 9056SOL     OW39198   8.388   1.698   4.628
 9056SOL    HW139199   8.468   1.641   4.649
 9056SOL    HW239200   8.339   1.658   4.551
 9057SOL     OW39201   7.830   0.700   4.204
 9057SOL    HW139202   7.875   0.610   4.201
 9057SOL    HW239203   7.736   0.689   4.237
 9058SOL     OW39204   8.995   0.222   5.453
 9058SOL    HW139205   8.990   0.259   5.545
 9058SOL    HW239206   8.923   0.153   5.441
 9059SOL     OW39207   7.907   1.152   4.465
 9059SOL    HW139208   7.836   1.125   4.530
 9059SOL    HW239209   7.881   1.124   4.372
 9060SOL     OW39210   8.719   1.797   4.315
 9060SOL    HW139211   8.763   1.861   4.251
 9060SOL    HW239212   8.669   1.849   4.385
 9061SOL     OW39213   7.526   0.556   5.110
 9061SOL    HW139214   7.618   0.555   5.069
 9061SOL    HW239215   7.520   0.630   5.177
 9062SOL     OW39216   8.314   0.454   4.366
 9062SOL    HW139217   8.282   0.526   4.304
 9062SOL    HW239218   8.338   0.373   4.313
 9063SOL     OW39219   8.838   0.575   3.802
 9063SOL    HW139220   8.784   0.554   3.883
 9063SOL    HW239221   8.929   0.534   3.811
 9064SOL     OW39222   7.975   0.256   4.052
 9064SOL    HW139223   8.002   0.197   3.977
 9064SOL    HW239224   7.975   0.351   4.021
 9065SOL     OW39225   9.202   1.223   5.312
 9065SOL    HW139226   9.293   1.184   5.299
 9065SOL    HW239227   9.210   1.319   5.336
 9066SOL     OW39228   8.512   1.347   5.064
 9066SOL    HW139229   8.432   1.324   5.119
 9066SOL    HW239230   8.595   1.321   5.113
 9067SOL     OW39231   8.559   1.195   4.824
 9067SOL    HW139232   8.519   1.239   4.905
 9067SOL    HW239233   8.518   1.232   4.741
 9068SOL     OW39234   8.428   1.116   5.443
 9068SOL    HW139235   8.329   1.122   5.453
 9068SOL    HW239236   8.451   1.036   5.387
 9069SOL     OW39237   7.858   0.813   4.975
 9069SOL    HW139238   7.944   0.825   5.025
 9069SOL    HW239239   7.816   0.726   5.002
 9070SOL     OW39240   7.512   1.564   5.055
 9070SOL    HW139241   7.466   1.646   5.021
 9070SOL    HW239242   7.610   1.583   5.064
 9071SOL     OW39243   7.815   1.100   4.225
 9071SOL    HW139244   7.808   1.183   4.169
 9071SOL    HW239245   7.819   1.020   4.165
 9072SOL     OW39246   8.720   1.445   4.866
 9072SOL    HW139247   8.767   1.458   4.953
 9072SOL    HW239248   8.654   1.371   4.875
 9073SOL     OW39249   8.461   0.105   5.494
 9073SOL    HW139250   8.467   0.190   5.442
 9073SOL    HW239251   8.493   0.029   5.437
 9074SOL     OW39252   7.952   0.050   5.464
 9074SOL    HW139253   7.910  -0.007   5.394
 9074SOL    HW239254   7.886   0.119   5.496
 9075SOL     OW39255   8.751   0.838   3.766
 9075SOL    HW139256   8.785   0.745   3.781
 9075SOL    HW239257   8.769   0.865   3.671
 9076SOL     OW39258   7.787   0.509   4.730
 9076SOL    HW139259   7.735   0.426   4.713
 9076SOL    HW239260   7.864   0.514   4.666
 9077SOL     OW39261   8.586   0.380   5.402
 9077SOL    HW139262   8.541   0.443   5.466
 9077SOL    HW239263   8.679   0.411   5.385
 9078SOL     OW39264   8.817   0.950   5.384
 9078SOL    HW139265   8.856   1.039   5.404
 9078SOL    HW239266   8.827   0.930   5.287
 9079SOL     OW39267   9.105   0.604   4.930
 9079SOL    HW139268   9.067   0.535   4.992
 9079SOL    HW239269   9.187   0.568   4.886
 9080SOL     OW39270   7.700   1.564   5.468
 9080SOL    HW139271   7.670   1.621   5.544
 9080SOL    HW239272   7.693   1.467   5.494
 9081SOL     OW39273   7.921   0.500   3.915
 9081SOL    HW139274   7.982   0.580   3.919
 9081SOL    HW239275   7.826   0.531   3.922
 9082SOL     OW39276   9.174   0.135   4.247
 9082SOL    HW139277   9.247   0.118   4.180
 9082SOL    HW239278   9.143   0.048   4.285
 9083SOL     OW39279   8.728   0.927   4.396
 9083SOL    HW139280   8.788   0.846   4.398
 9083SOL    HW239281   8.768   0.996   4.336
 9084SOL     OW39282   7.711   0.326   4.444
 9084SOL    HW139283   7.632   0.377   4.410
 9084SOL    HW239284   7.702   0.311   4.542
 9085SOL     OW39285   8.270   1.002   5.096
 9085SOL    HW139286   8.310   1.001   5.004
 9085SOL    HW239287   8.280   1.094   5.136
 9086SOL     OW39288   7.703   1.348   4.014
 9086SOL    HW139289   7.607   1.349   3.987
 9086SOL    HW239290   7.715   1.401   4.098
 9087SOL     OW39291   8.631   1.335   3.843
 9087SOL    HW139292   8.532   1.324   3.845
 9087SOL    HW239293   8.665   1.350   3.936
 9088SOL     OW39294   8.061   0.842   5.155
 9088SOL    HW139295   8.117   0.923   5.138
 9088SOL    HW239296   8.120   0.762   5.158
 9089SOL     OW39297   8.673   0.325   4.173
 9089SOL    HW139298   8.738   0.251   4.162
 9089SOL    HW239299   8.693   0.375   4.257
 9090SOL     OW39300   8.042   0.745   4.376
 9090SOL    HW139301   8.092   0.830   4.357
 9090SOL    HW239302   7.954   0.747   4.328
 9091SOL     OW39303   8.307   1.374   3.740
 9091SOL    HW139304   8.261   1.389   3.828
 9091SOL    HW239305   8.351   1.459   3.710
 9092SOL     OW39306   8.109   1.790   4.677
 9092SOL    HW139307   8.063   1.878   4.664
 9092SOL    HW239308   8.208   1.802   4.670
 9093SOL     OW39309   7.669   1.314   5.568
 9093SOL    HW139310   7.604   1.241   5.547
 9093SOL    HW239311   7.673   1.328   5.666
 9094SOL     OW39312   7.876   0.424   4.244
 9094SOL    HW139313   7.906   0.352   4.182
 9094SOL    HW239314   7.837   0.384   4.327
 9095SOL     OW39315   7.765   0.547   5.004
 9095SOL    HW139316   7.803   0.488   5.076
 9095SOL    HW239317   7.805   0.521   4.916
 9096SOL     OW39318   8.449   0.034   4.878
 9096SOL    HW139319   8.386  -0.038   4.847
 9096SOL    HW239320   8.542  -0.002   4.878
 9097SOL     OW39321   8.218   1.330   4.025
 9097SOL    HW139322   8.172   1.243   4.042
 9097SOL    HW239323   8.309   1.327   4.066
 9098SOL     OW39324   8.066   1.567   5.008
 9098SOL    HW139325   8.061   1.649   5.065
 9098SOL    HW239326   8.155   1.564   4.963
 9099SOL     OW39327   7.487   1.077   4.024
 9099SOL    HW139328   7.586   1.066   4.015
 9099SOL    HW239329   7.447   0.991   4.056
 9100SOL     OW39330   7.673   0.275   6.582
 9100SOL    HW139331   7.708   0.258   6.674
 9100SOL    HW239332   7.585   0.230   6.570
 9101SOL     OW39333   7.467   0.368   6.233
 9101SOL    HW139334   7.385   0.411   6.272
 9101SOL    HW239335   7.439   0.295   6.170
 9102SOL     OW39336   8.017   1.275   6.751
 9102SOL    HW139337   7.924   1.268   6.714
 9102SOL    HW239338   8.028   1.364   6.795
 9103SOL     OW39339   9.003   1.511   6.289
 9103SOL    HW139340   8.946   1.495   6.370
 9103SOL    HW239341   8.944   1.521   6.209
 9104SOL     OW39342   8.583   0.703   6.303
 9104SOL    HW139343   8.640   0.781   6.278
 9104SOL    HW239344   8.523   0.729   6.379
 9105SOL     OW39345   9.203   0.607   5.817
 9105SOL    HW139346   9.191   0.594   5.718
 9105SOL    HW239347   9.173   0.526   5.866
 9106SOL     OW39348   8.216   1.144   6.609
 9106SOL    HW139349   8.138   1.161   6.669
 9106SOL    HW239350   8.250   1.231   6.573
 9107SOL     OW39351   8.133   1.012   6.251
 9107SOL    HW139352   8.202   0.996   6.321
 9107SOL    HW239353   8.060   1.069   6.289
 9108SOL     OW39354   7.783   1.435   6.647
 9108SOL    HW139355   7.705   1.404   6.594
 9108SOL    HW239356   7.841   1.493   6.590
 9109SOL     OW39357   7.886   0.392   7.085
 9109SOL    HW139358   7.968   0.336   7.094
 9109SOL    HW239359   7.805   0.334   7.089
 9110SOL     OW39360   9.051   0.447   6.323
 9110SOL    HW139361   8.977   0.493   6.273
 9110SOL    HW239362   9.102   0.515   6.376
 9111SOL     OW39363   7.678   1.434   6.124
 9111SOL    HW139364   7.652   1.530   6.124
 9111SOL    HW239365   7.607   1.380   6.169
 9112SOL     OW39366   7.688   1.091   6.472
 9112SOL    HW139367   7.702   1.007   6.524
 9112SOL    HW239368   7.633   1.155   6.527
 9113SOL     OW39369   8.068   1.786   7.025
 9113SOL    HW139370   7.976   1.769   7.060
 9113SOL    HW239371   8.096   1.878   7.051
 9114SOL     OW39372   8.054   0.964   5.709
 9114SOL    HW139373   8.061   1.048   5.655
 9114SOL    HW239374   8.100   0.977   5.797
 9115SOL     OW39375   7.570   0.643   6.149
 9115SOL    HW139376   7.525   0.555   6.166
 9115SOL    HW239377   7.569   0.697   6.233
 9116SOL     OW39378   9.290   1.767   5.945
 9116SOL    HW139379   9.344   1.738   6.025
 9116SOL    HW239380   9.320   1.857   5.916
 9117SOL     OW39381   9.137   0.922   6.198
 9117SOL    HW139382   9.232   0.893   6.206
 9117SOL    HW239383   9.129   0.987   6.123
 9118SOL     OW39384   9.089   1.108   6.018
 9118SOL    HW139385   9.175   1.110   5.966
 9118SOL    HW239386   9.103   1.155   6.106
 9119SOL     OW39387   8.061   1.365   6.312
 9119SOL    HW139388   8.012   1.278   6.321
 9119SOL    HW239389   8.038   1.408   6.225
 9120SOL     OW39390   8.257   0.004   6.088
 9120SOL    HW139391   8.297   0.095   6.079
 9120SOL    HW239392   8.157   0.012   6.094
 9121SOL     OW39393   7.645   0.976   6.850
 9121SOL    HW139394   7.734   0.931   6.836
 9121SOL    HW239395   7.572   0.911   6.831
 9122SOL     OW39396   8.973   0.999   5.776
 9122SOL    HW139397   8.910   0.923   5.789
 9122SOL    HW239398   9.021   1.017   5.862
 9123SOL     OW39399   8.914   1.417   6.539
 9123SOL    HW139400   8.855   1.423   6.619
 9123SOL    HW239401   8.899   1.329   6.493
 9124SOL     OW39402   9.115   1.714   6.158
 9124SOL    HW139403   9.074   1.691   6.070
 9124SOL    HW239404   9.097   1.640   6.223
 9125SOL     OW39405   8.046   0.729   5.856
 9125SOL    HW139406   8.070   0.798   5.788
 9125SOL    HW239407   7.968   0.762   5.910
 9126SOL     OW39408   8.729   0.345   6.530
 9126SOL    HW139409   8.643   0.295   6.517
 9126SOL    HW239410   8.791   0.291   6.586
 9127SOL     OW39411   9.024   1.662   5.893
 9127SOL    HW139412   9.113   1.708   5.896
 9127SOL    HW239413   9.003   1.638   5.798
 9128SOL     OW39414   8.255   0.605   7.051
 9128SOL    HW139415   8.208   0.602   7.140
 9128SOL    HW239416   8.204   0.550   6.985
 9129SOL     OW39417   8.439   0.410   6.828
 9129SOL    HW139418   8.362   0.444   6.882
 9129SOL    HW239419   8.405   0.359   6.749
 9130SOL     OW39420   8.489   0.701   6.015
 9130SOL    HW139421   8.515   0.697   6.111
 9130SOL    HW239422   8.404   0.650   6.001
 9131SOL     OW39423   7.524   0.811   6.375
 9131SOL    HW139424   7.623   0.799   6.384
 9131SOL    HW239425   7.500   0.906   6.396
 9132SOL     OW39426   7.578   1.821   7.157
 9132SOL    HW139427   7.568   1.806   7.256
 9132SOL    HW239428   7.492   1.857   7.121
 9133SOL     OW39429   8.313   0.348   5.781
 9133SOL    HW139430   8.372   0.411   5.732
 9133SOL    HW239431   8.332   0.254   5.752
 9134SOL     OW39432   8.810   1.144   6.131
 9134SOL    HW139433   8.893   1.115   6.083
 9134SOL    HW239434   8.761   1.211   6.075
 9135SOL     OW39435   7.998   0.196   6.471
 9135SOL    HW139436   7.993   0.191   6.571
 9135SOL    HW239437   8.000   0.292   6.442
 9136SOL     OW39438   8.456   1.456   6.063
 9136SOL    HW139439   8.410   1.528   6.011
 9136SOL    HW239440   8.452   1.476   6.161
 9137SOL     OW39441   7.799   1.801   6.439
 9137SOL    HW139442   7.849   1.715   6.445
 9137SOL    HW239443   7.864   1.878   6.436
 9138SOL     OW39444   9.243   1.066   6.459
 9138SOL    HW139445   9.181   1.051   6.383
 9138SOL    HW239446   9.191   1.077   6.544
 9139SOL     OW39447   7.769   0.943   5.828
 9139SOL    HW139448   7.851   0.982   5.786
 9139SOL    HW239449   7.742   0.861   5.779
 9140SOL     OW39450   8.906   0.735   6.314
 9140SOL    HW139451   8.901   0.670   6.389
 9140SOL    HW239452   8.986   0.794   6.327
 9141SOL     OW39453   8.848   0.107   6.012
 9141SOL    HW139454   8.824   0.070   5.922
 9141SOL    HW239455   8.947   0.123   6.016
 9142SOL     OW39456   7.697   1.785   6.827
 9142SOL    HW139457   7.754   1.720   6.877
 9142SOL    HW239458   7.681   1.752   6.734
 9143SOL     OW39459   8.388   1.698   6.490
 9143SOL    HW139460   8.468   1.641   6.511
 9143SOL    HW239461   8.339   1.658   6.413
 9144SOL     OW39462   7.830   0.700   6.066
 9144SOL    HW139463   7.875   0.610   6.063
 9144SOL    HW239464   7.736   0.689   6.099
 9145SOL     OW39465   8.062   0.122   5.703
 9145SOL    HW139466   8.160   0.100   5.710
 9145SOL    HW239467   8.031   0.105   5.610
 9146SOL     OW39468   8.336   1.514   6.781
 9146SOL    HW139469   8.313   1.489   6.687
 9146SOL    HW239470   8.397   1.445   6.820
 9147SOL     OW39471   8.251   1.402   6.510
 9147SOL    HW139472   8.341   1.416   6.468
 9147SOL    HW239473   8.180   1.404   6.439
 9148SOL     OW39474   8.370   0.503   6.485
 9148SOL    HW139475   8.345   0.494   6.389
 9148SOL    HW239476   8.418   0.421   6.516
 9149SOL     OW39477   7.987   0.064   6.098
 9149SOL    HW139478   7.906   0.065   6.156
 9149SOL    HW239479   7.990   0.147   6.043
 9150SOL     OW39480   7.745   0.035   5.757
 9150SOL    HW139481   7.794   0.119   5.736
 9150SOL    HW239482   7.807  -0.030   5.802
 9151SOL     OW39483   8.383   0.236   6.066
 9151SOL    HW139484   8.335   0.277   5.988
 9151SOL    HW239485   8.482   0.234   6.047
 9152SOL     OW39486   8.675   1.570   6.379
 9152SOL    HW139487   8.696   1.644   6.314
 9152SOL    HW239488   8.743   1.570   6.452
 9153SOL     OW39489   7.907   1.152   6.327
 9153SOL    HW139490   7.836   1.125   6.392
 9153SOL    HW239491   7.881   1.124   6.234
 9154SOL     OW39492   8.719   1.797   6.177
 9154SOL    HW139493   8.763   1.861   6.113
 9154SOL    HW239494   8.669   1.849   6.247
 9155SOL     OW39495   8.480   0.549   5.602
 9155SOL    HW139496   8.439   0.631   5.563
 9155SOL    HW239497   8.544   0.575   5.675
 9156SOL     OW39498   8.009   0.222   6.733
 9156SOL    HW139499   8.047   0.138   6.770
 9156SOL    HW239500   7.921   0.241   6.777
 9157SOL     OW39501   8.314   0.454   6.228
 9157SOL    HW139502   8.282   0.526   6.166
 9157SOL    HW239503   8.338   0.373   6.175
 9158SOL     OW39504   8.465   0.039   6.339
 9158SOL    HW139505   8.393   0.044   6.270
 9158SOL    HW239506   8.441  -0.030   6.408
 9159SOL     OW39507   8.877   1.173   6.453
 9159SOL    HW139508   8.822   1.089   6.446
 9159SOL    HW239509   8.903   1.202   6.361
 9160SOL     OW39510   8.914   0.590   6.578
 9160SOL    HW139511   8.884   0.495   6.585
 9160SOL    HW239512   8.987   0.606   6.644
 9161SOL     OW39513   9.305   0.833   5.963
 9161SOL    HW139514   9.347   0.769   6.027
 9161SOL    HW239515   9.267   0.782   5.885
 9162SOL     OW39516   9.112   1.280   6.243
 9162SOL    HW139517   9.211   1.288   6.257
 9162SOL    HW239518   9.067   1.364   6.274
 9163SOL     OW39519   7.975   0.256   5.914
 9163SOL    HW139520   8.002   0.197   5.839
 9163SOL    HW239521   7.975   0.351   5.883
 9164SOL     OW39522   8.512   1.347   6.926
 9164SOL    HW139523   8.432   1.324   6.981
 9164SOL    HW239524   8.595   1.321   6.975
 9165SOL     OW39525   8.559   1.195   6.686
 9165SOL    HW139526   8.519   1.239   6.767
 9165SOL    HW239527   8.518   1.232   6.603
 9166SOL     OW39528   9.086   1.099   6.665
 9166SOL    HW139529   9.091   1.180   6.724
 9166SOL    HW239530   9.000   1.101   6.614
 9167SOL     OW39531   8.153   1.050   5.954
 9167SOL    HW139532   8.139   1.057   6.053
 9167SOL    HW239533   8.237   0.999   5.936
 9168SOL     OW39534   7.858   0.813   6.837
 9168SOL    HW139535   7.944   0.825   6.887
 9168SOL    HW239536   7.816   0.726   6.864
 9169SOL     OW39537   8.722   0.386   6.848
 9169SOL    HW139538   8.743   0.460   6.912
 9169SOL    HW239539   8.633   0.403   6.805
 9170SOL     OW39540   7.512   1.564   6.917
 9170SOL    HW139541   7.466   1.646   6.883
 9170SOL    HW239542   7.610   1.583   6.926
 9171SOL     OW39543   7.815   1.100   6.087
 9171SOL    HW139544   7.808   1.183   6.031
 9171SOL    HW239545   7.819   1.020   6.027
 9172SOL     OW39546   8.014   0.537   6.451
 9172SOL    HW139547   8.026   0.603   6.377
 9172SOL    HW239548   8.060   0.571   6.534
 9173SOL     OW39549   8.700   1.348   5.974
 9173SOL    HW139550   8.750   1.425   6.014
 9173SOL    HW239551   8.605   1.350   6.006
 9174SOL     OW39552   8.720   1.445   6.728
 9174SOL    HW139553   8.767   1.458   6.815
 9174SOL    HW239554   8.654   1.371   6.737
 9175SOL     OW39555   9.030   0.639   6.058
 9175SOL    HW139556   8.999   0.700   6.131
 9175SOL    HW239557   9.080   0.691   5.989
 9176SOL     OW39558   7.802   1.510   6.915
 9176SOL    HW139559   7.781   1.466   6.828
 9176SOL    HW239560   7.899   1.536   6.918
 9177SOL     OW39561   8.021   0.870   6.615
 9177SOL    HW139562   8.065   0.959   6.606
 9177SOL    HW239563   7.958   0.870   6.692
 9178SOL     OW39564   8.808   0.862   6.631
 9178SOL    HW139565   8.733   0.862   6.565
 9178SOL    HW239566   8.845   0.770   6.640
 9179SOL     OW39567   8.657   0.525   5.861
 9179SOL    HW139568   8.670   0.441   5.915
 9179SOL    HW239569   8.628   0.599   5.921
 9180SOL     OW39570   7.755   0.213   6.817
 9180SOL    HW139571   7.732   0.250   6.907
 9180SOL    HW239572   7.725   0.118   6.811
 9181SOL     OW39573   7.485   1.310   6.868
 9181SOL    HW139574   7.538   1.261   6.936
 9181SOL    HW239575   7.507   1.408   6.873
 9182SOL     OW39576   8.180   0.634   6.650
 9182SOL    HW139577   8.239   0.608   6.574
 9182SOL    HW239578   8.152   0.730   6.639
 9183SOL     OW39579   7.755   0.063   6.204
 9183SOL    HW139580   7.744   0.157   6.237
 9183SOL    HW239581   7.750   0.000   6.281
 9184SOL     OW39582   9.070   0.367   5.960
 9184SOL    HW139583   9.072   0.291   6.024
 9184SOL    HW239584   9.022   0.444   6.000
 9185SOL     OW39585   8.471   0.766   6.552
 9185SOL    HW139586   8.486   0.787   6.648
 9185SOL    HW239587   8.441   0.671   6.543
 9186SOL     OW39588   8.516   1.333   6.435
 9186SOL    HW139589   8.523   1.249   6.380
 9186SOL    HW239590   8.578   1.402   6.399
 9187SOL     OW39591   7.767   0.810   6.535
 9187SOL    HW139592   7.860   0.846   6.540
 9187SOL    HW239593   7.761   0.725   6.587
 9188SOL     OW39594   7.787   0.509   6.592
 9188SOL    HW139595   7.735   0.426   6.575
 9188SOL    HW239596   7.864   0.514   6.528
 9189SOL     OW39597   8.608   0.207   7.063
 9189SOL    HW139598   8.608   0.271   7.140
 9189SOL    HW239599   8.636   0.255   6.980
 9190SOL     OW39600   7.456   1.326   5.786
 9190SOL    HW139601   7.363   1.347   5.755
 9190SOL    HW239602   7.466   1.227   5.799
 9191SOL     OW39603   7.536   1.801   6.513
 9191SOL    HW139604   7.494   1.715   6.486
 9191SOL    HW239605   7.630   1.804   6.479
 9192SOL     OW39606   7.952   1.568   6.496
 9192SOL    HW139607   8.018   1.642   6.505
 9192SOL    HW239608   7.996   1.489   6.454
 9193SOL     OW39609   8.450   0.796   6.824
 9193SOL    HW139610   8.491   0.764   6.910
 9193SOL    HW239611   8.354   0.769   6.821
 9194SOL     OW39612   7.488   0.544   6.700
 9194SOL    HW139613   7.573   0.511   6.659
 9194SOL    HW239614   7.501   0.559   6.798
 9195SOL     OW39615   8.263   0.572   5.911
 9195SOL    HW139616   8.270   0.483   5.865
 9195SOL    HW239617   8.169   0.606   5.903
 9196SOL     OW39618   9.105   0.604   6.792
 9196SOL    HW139619   9.067   0.535   6.854
 9196SOL    HW239620   9.187   0.568   6.748
 9197SOL     OW39621   8.119   0.464   6.855
 9197SOL    HW139622   8.085   0.375   6.825
 9197SOL    HW239623   8.145   0.518   6.775
 9198SOL     OW39624   8.378   1.678   7.051
 9198SOL    HW139625   8.354   1.660   6.956
 9198SOL    HW239626   8.408   1.772   7.061
 9199SOL     OW39627   7.921   0.500   5.777
 9199SOL    HW139628   7.982   0.580   5.781
 9199SOL    HW239629   7.826   0.531   5.784
 9200SOL     OW39630   7.607   1.137   7.052
 9200SOL    HW139631   7.629   1.076   7.128
 9200SOL    HW239632   7.617   1.088   6.966
 9201SOL     OW39633   8.795   1.059   6.820
 9201SOL    HW139634   8.819   0.996   6.746
 9201SOL    HW239635   8.705   1.099   6.802
 9202SOL     OW39636   8.750   0.855   5.895
 9202SOL    HW139637   8.664   0.824   5.937
 9202SOL    HW239638   8.746   0.841   5.796
 9203SOL     OW39639   9.207   1.747   6.740
 9203SOL    HW139640   9.268   1.777   6.667
 9203SOL    HW239641   9.169   1.658   6.718
 9204SOL     OW39642   8.700   1.731   6.714
 9204SOL    HW139643   8.784   1.736   6.660
 9204SOL    HW239644   8.677   1.635   6.732
 9205SOL     OW39645   7.531   1.258   6.608
 9205SOL    HW139646   7.526   1.257   6.708
 9205SOL    HW239647   7.448   1.217   6.570
 9206SOL     OW39648   9.174   0.135   6.109
 9206SOL    HW139649   9.247   0.118   6.042
 9206SOL    HW239650   9.143   0.048   6.147
 9207SOL     OW39651   8.836   1.573   6.063
 9207SOL    HW139652   8.903   1.585   5.989
 9207SOL    HW239653   8.796   1.662   6.086
 9208SOL     OW39654   8.728   0.927   6.258
 9208SOL    HW139655   8.788   0.846   6.260
 9208SOL    HW239656   8.768   0.996   6.198
 9209SOL     OW39657   9.289   0.175   6.549
 9209SOL    HW139658   9.328   0.090   6.513
 9209SOL    HW239659   9.191   0.177   6.530
 9210SOL     OW39660   7.711   0.326   6.306
 9210SOL    HW139661   7.632   0.377   6.272
 9210SOL    HW239662   7.702   0.311   6.404
 9211SOL     OW39663   8.270   1.002   6.958
 9211SOL    HW139664   8.310   1.001   6.866
 9211SOL    HW239665   8.280   1.094   6.998
 9212SOL     OW39666   8.364   0.910   5.877
 9212SOL    HW139667   8.427   0.948   5.809
 9212SOL    HW239668   8.404   0.827   5.916
 9213SOL     OW39669   8.952   1.607   5.630
 9213SOL    HW139670   8.860   1.644   5.637
 9213SOL    HW239671   8.990   1.627   5.540
 9214SOL     OW39672   7.820   1.288   7.076
 9214SOL    HW139673   7.807   1.381   7.042
 9214SOL    HW239674   7.736   1.236   7.063
 9215SOL     OW39675   9.062   1.292   6.875
 9215SOL    HW139676   9.122   1.295   6.955
 9215SOL    HW239677   8.987   1.356   6.888
 9216SOL     OW39678   8.487   1.098   6.282
 9216SOL    HW139679   8.417   1.051   6.336
 9216SOL    HW239680   8.546   1.030   6.239
 9217SOL     OW39681   8.462   0.236   6.557
 9217SOL    HW139682   8.454   0.200   6.464
 9217SOL    HW239683   8.460   0.160   6.622
 9218SOL     OW39684   8.038   1.487   6.077
 9218SOL    HW139685   8.080   1.429   6.007
 9218SOL    HW239686   7.994   1.566   6.033
 9219SOL     OW39687   9.157   0.385   6.967
 9219SOL    HW139688   9.230   0.454   6.971
 9219SOL    HW239689   9.185   0.310   6.908
 9220SOL     OW39690   7.520   0.166   5.904
 9220SOL    HW139691   7.503   0.249   5.850
 9220SOL    HW239692   7.610   0.129   5.882
 9221SOL     OW39693   8.631   1.335   5.705
 9221SOL    HW139694   8.532   1.324   5.707
 9221SOL    HW239695   8.665   1.350   5.798
 9222SOL     OW39696   8.061   0.842   7.017
 9222SOL    HW139697   8.117   0.923   7.000
 9222SOL    HW239698   8.120   0.762   7.020
 9223SOL     OW39699   8.941   1.767   6.545
 9223SOL    HW139700   8.974   1.831   6.476
 9223SOL    HW239701   9.007   1.761   6.620
 9224SOL     OW39702   7.838   1.741   7.146
 9224SOL    HW139703   7.747   1.782   7.144
 9224SOL    HW239704   7.831   1.647   7.178
 9225SOL     OW39705   9.122   0.883   6.840
 9225SOL    HW139706   9.095   0.794   6.803
 9225SOL    HW239707   9.123   0.951   6.767
 9226SOL     OW39708   8.673   0.325   6.035
 9226SOL    HW139709   8.738   0.251   6.024
 9226SOL    HW239710   8.693   0.375   6.119
 9227SOL     OW39711   8.042   0.745   6.238
 9227SOL    HW139712   8.092   0.830   6.219
 9227SOL    HW239713   7.954   0.747   6.190
 9228SOL     OW39714   9.178   0.934   7.103
 9228SOL    HW139715   9.216   1.025   7.118
 9228SOL    HW239716   9.170   0.917   7.004
 9229SOL     OW39717   8.109   1.790   6.539
 9229SOL    HW139718   8.063   1.878   6.526
 9229SOL    HW239719   8.208   1.802   6.532
 9230SOL     OW39720   8.307   0.956   6.447
 9230SOL    HW139721   8.361   0.887   6.495
 9230SOL    HW239722   8.275   1.025   6.513
 9231SOL     OW39723   8.531   0.984   5.673
 9231SOL    HW139724   8.508   1.037   5.591
 9231SOL    HW239725   8.612   0.928   5.654
 9232SOL     OW39726   9.309   1.569   6.437
 9232SOL    HW139727   9.238   1.557   6.367
 9232SOL    HW239728   9.310   1.490   6.497
 9233SOL     OW39729   7.527   1.240   6.239
 9233SOL    HW139730   7.526   1.193   6.327
 9233SOL    HW239731   7.609   1.212   6.188
 9234SOL     OW39732   9.272   0.192   6.813
 9234SOL    HW139733   9.268   0.102   6.857
 9234SOL    HW239734   9.275   0.181   6.714
 9235SOL     OW39735   7.876   0.424   6.106
 9235SOL    HW139736   7.906   0.352   6.044
 9235SOL    HW239737   7.837   0.384   6.189
 9236SOL     OW39738   9.153   1.487   6.690
 9236SOL    HW139739   9.060   1.462   6.663
 9236SOL    HW239740   9.179   1.437   6.772
 9237SOL     OW39741   7.765   0.547   6.866
 9237SOL    HW139742   7.803   0.488   6.938
 9237SOL    HW239743   7.805   0.521   6.778
 9238SOL     OW39744   8.260   1.586   6.273
 9238SOL    HW139745   8.292   1.596   6.179
 9238SOL    HW239746   8.181   1.524   6.275
 9239SOL     OW39747   8.872   0.214   6.698
 9239SOL    HW139748   8.924   0.149   6.753
 9239SOL    HW239749   8.823   0.277   6.759
 9240SOL     OW39750   8.449   0.034   6.740
 9240SOL    HW139751   8.386  -0.038   6.709
 9240SOL    HW239752   8.542  -0.002   6.740
 9241SOL     OW39753   8.218   1.330   5.887
 9241SOL    HW139754   8.172   1.243   5.904
 9241SOL    HW239755   8.309   1.327   5.928
 9242SOL     OW39756   8.066   1.567   6.870
 9242SOL    HW139757   8.061   1.649   6.927
 9242SOL    HW239758   8.155   1.564   6.825
 9243SOL     OW39759   8.800   0.052   5.754
 9243SOL    HW139760   8.835   0.011   5.670
 9243SOL    HW239761   8.710   0.014   5.774
 9244SOL     OW39762   8.748   0.453   6.277
 9244SOL    HW139763   8.689   0.533   6.281
 9244SOL    HW239764   8.763   0.418   6.370
 9245SOL     OW39765   9.041   0.221   6.468
 9245SOL    HW139766   8.957   0.220   6.522
 9245SOL    HW239767   9.043   0.304   6.412
 9246SOL     OW39768   7.487   1.077   5.886
 9246SOL    HW139769   7.586   1.066   5.877
 9246SOL    HW239770   7.447   0.991   5.918
 9247SOL     OW39771   8.323   1.646   5.923
 9247SOL    HW139772   8.246   1.611   5.869
 9247SOL    HW239773   8.291   1.717   5.985
 9248SOL     OW39774   7.678   2.490   0.113
 9248SOL    HW139775   7.585   2.488   0.150
 9248SOL    HW239776   7.679   2.451   0.021
 9249SOL     OW39777   7.673   2.137   0.996
 9249SOL    HW139778   7.708   2.120   1.088
 9249SOL    HW239779   7.585   2.092   0.984
 9250SOL     OW39780   7.467   2.230   0.647
 9250SOL    HW139781   7.385   2.273   0.686
 9250SOL    HW239782   7.439   2.157   0.584
 9251SOL     OW39783   8.017   3.137   1.165
 9251SOL    HW139784   7.924   3.130   1.128
 9251SOL    HW239785   8.028   3.226   1.209
 9252SOL     OW39786   9.003   3.373   0.703
 9252SOL    HW139787   8.946   3.357   0.784
 9252SOL    HW239788   8.944   3.383   0.623
 9253SOL     OW39789   8.583   2.565   0.717
 9253SOL    HW139790   8.640   2.643   0.692
 9253SOL    HW239791   8.523   2.591   0.793
 9254SOL     OW39792   9.203   2.469   0.231
 9254SOL    HW139793   9.191   2.456   0.132
 9254SOL    HW239794   9.173   2.388   0.280
 9255SOL     OW39795   8.216   3.006   1.023
 9255SOL    HW139796   8.138   3.023   1.083
 9255SOL    HW239797   8.250   3.093   0.987
 9256SOL     OW39798   8.133   2.874   0.665
 9256SOL    HW139799   8.202   2.858   0.735
 9256SOL    HW239800   8.060   2.931   0.703
 9257SOL     OW39801   7.783   3.297   1.061
 9257SOL    HW139802   7.705   3.266   1.008
 9257SOL    HW239803   7.841   3.355   1.004
 9258SOL     OW39804   9.051   2.309   0.737
 9258SOL    HW139805   8.977   2.355   0.687
 9258SOL    HW239806   9.102   2.377   0.790
 9259SOL     OW39807   7.679   3.575   0.483
 9259SOL    HW139808   7.713   3.652   0.537
 9259SOL    HW239809   7.723   3.575   0.393
 9260SOL     OW39810   7.678   3.296   0.538
 9260SOL    HW139811   7.652   3.392   0.538
 9260SOL    HW239812   7.607   3.242   0.583
 9261SOL     OW39813   7.688   2.953   0.886
 9261SOL    HW139814   7.702   2.869   0.938
 9261SOL    HW239815   7.633   3.017   0.941
 9262SOL     OW39816   8.068   3.648   1.439
 9262SOL    HW139817   7.976   3.631   1.474
 9262SOL    HW239818   8.096   3.740   1.465
 9263SOL     OW39819   8.054   2.826   0.123
 9263SOL    HW139820   8.061   2.910   0.069
 9263SOL    HW239821   8.100   2.839   0.211
 9264SOL     OW39822   7.570   2.505   0.563
 9264SOL    HW139823   7.525   2.417   0.580
 9264SOL    HW239824   7.569   2.559   0.647
 9265SOL     OW39825   9.290   3.629   0.359
 9265SOL    HW139826   9.344   3.600   0.439
 9265SOL    HW239827   9.320   3.719   0.330
 9266SOL     OW39828   7.475   3.458   0.117
 9266SOL    HW139829   7.456   3.362   0.138
 9266SOL    HW239830   7.442   3.516   0.192
 9267SOL     OW39831   9.137   2.784   0.612
 9267SOL    HW139832   9.232   2.755   0.620
 9267SOL    HW239833   9.129   2.849   0.537
 9268SOL     OW39834   9.089   2.970   0.432
 9268SOL    HW139835   9.175   2.972   0.380
 9268SOL    HW239836   9.103   3.017   0.520
 9269SOL     OW39837   7.561   2.599   1.597
 9269SOL    HW139838   7.649   2.586   1.642
 9269SOL    HW239839   7.548   2.696   1.575
 9270SOL     OW39840   8.061   3.227   0.726
 9270SOL    HW139841   8.012   3.140   0.735
 9270SOL    HW239842   8.038   3.270   0.639
 9271SOL     OW39843   8.257   1.866   0.502
 9271SOL    HW139844   8.297   1.957   0.493
 9271SOL    HW239845   8.157   1.874   0.508
 9272SOL     OW39846   7.645   2.838   1.264
 9272SOL    HW139847   7.734   2.793   1.250
 9272SOL    HW239848   7.572   2.773   1.245
 9273SOL     OW39849   8.973   2.861   0.190
 9273SOL    HW139850   8.910   2.785   0.203
 9273SOL    HW239851   9.021   2.879   0.276
 9274SOL     OW39852   7.765   2.113   1.801
 9274SOL    HW139853   7.836   2.184   1.807
 9274SOL    HW239854   7.677   2.152   1.829
 9275SOL     OW39855   8.914   3.279   0.953
 9275SOL    HW139856   8.855   3.285   1.033
 9275SOL    HW239857   8.899   3.191   0.907
 9276SOL     OW39858   9.115   3.576   0.572
 9276SOL    HW139859   9.074   3.553   0.484
 9276SOL    HW239860   9.097   3.502   0.637
 9277SOL     OW39861   8.046   2.591   0.270
 9277SOL    HW139862   8.070   2.660   0.202
 9277SOL    HW239863   7.968   2.624   0.324
 9278SOL     OW39864   8.729   2.207   0.944
 9278SOL    HW139865   8.643   2.157   0.931
 9278SOL    HW239866   8.791   2.153   1.000
 9279SOL     OW39867   9.024   3.524   0.307
 9279SOL    HW139868   9.113   3.570   0.310
 9279SOL    HW239869   9.003   3.500   0.212
 9280SOL     OW39870   8.255   2.467   1.465
 9280SOL    HW139871   8.208   2.464   1.554
 9280SOL    HW239872   8.204   2.412   1.399
 9281SOL     OW39873   8.842   2.331   1.674
 9281SOL    HW139874   8.822   2.374   1.762
 9281SOL    HW239875   8.920   2.269   1.683
 9282SOL     OW39876   8.421   2.752   1.572
 9282SOL    HW139877   8.467   2.668   1.543
 9282SOL    HW239878   8.365   2.786   1.497
 9283SOL     OW39879   8.439   2.272   1.242
 9283SOL    HW139880   8.362   2.306   1.296
 9283SOL    HW239881   8.405   2.221   1.163
 9284SOL     OW39882   8.489   2.563   0.429
 9284SOL    HW139883   8.515   2.559   0.525
 9284SOL    HW239884   8.404   2.512   0.415
 9285SOL     OW39885   7.524   2.673   0.789
 9285SOL    HW139886   7.623   2.661   0.798
 9285SOL    HW239887   7.500   2.768   0.810
 9286SOL     OW39888   8.313   2.210   0.195
 9286SOL    HW139889   8.372   2.273   0.146
 9286SOL    HW239890   8.332   2.116   0.166
 9287SOL     OW39891   9.167   2.447   1.831
 9287SOL    HW139892   9.141   2.536   1.795
 9287SOL    HW239893   9.165   2.379   1.758
 9288SOL     OW39894   8.810   3.006   0.545
 9288SOL    HW139895   8.893   2.977   0.497
 9288SOL    HW239896   8.761   3.073   0.489
 9289SOL     OW39897   7.998   2.058   0.885
 9289SOL    HW139898   7.993   2.053   0.985
 9289SOL    HW239899   8.000   2.154   0.856
 9290SOL     OW39900   8.456   3.318   0.477
 9290SOL    HW139901   8.410   3.390   0.425
 9290SOL    HW239902   8.452   3.338   0.575
 9291SOL     OW39903   7.799   3.663   0.853
 9291SOL    HW139904   7.849   3.577   0.859
 9291SOL    HW239905   7.864   3.740   0.850
 9292SOL     OW39906   9.243   2.928   0.873
 9292SOL    HW139907   9.181   2.913   0.797
 9292SOL    HW239908   9.191   2.939   0.958
 9293SOL     OW39909   7.769   2.805   0.242
 9293SOL    HW139910   7.851   2.844   0.200
 9293SOL    HW239911   7.742   2.723   0.193
 9294SOL     OW39912   8.906   2.597   0.728
 9294SOL    HW139913   8.901   2.532   0.803
 9294SOL    HW239914   8.986   2.656   0.741
 9295SOL     OW39915   7.909   3.128   1.727
 9295SOL    HW139916   7.859   3.129   1.641
 9295SOL    HW239917   7.846   3.110   1.803
 9296SOL     OW39918   8.559   3.638   0.237
 9296SOL    HW139919   8.499   3.576   0.287
 9296SOL    HW239920   8.590   3.594   0.152
 9297SOL     OW39921   7.650   2.147   1.498
 9297SOL    HW139922   7.570   2.207   1.485
 9297SOL    HW239923   7.640   2.098   1.584
 9298SOL     OW39924   9.080   3.239   0.081
 9298SOL    HW139925   9.048   3.333   0.071
 9298SOL    HW239926   9.004   3.176   0.069
 9299SOL     OW39927   7.912   3.605   0.323
 9299SOL    HW139928   7.945   3.644   0.409
 9299SOL    HW239929   7.988   3.598   0.258
 9300SOL     OW39930   8.848   1.969   0.426
 9300SOL    HW139931   8.824   1.932   0.336
 9300SOL    HW239932   8.947   1.985   0.430
 9301SOL     OW39933   7.697   3.647   1.241
 9301SOL    HW139934   7.754   3.582   1.291
 9301SOL    HW239935   7.681   3.614   1.148
 9302SOL     OW39936   8.388   3.560   0.904
 9302SOL    HW139937   8.468   3.503   0.925
 9302SOL    HW239938   8.339   3.520   0.827
 9303SOL     OW39939   7.830   2.562   0.480
 9303SOL    HW139940   7.875   2.472   0.477
 9303SOL    HW239941   7.736   2.551   0.513
 9304SOL     OW39942   8.229   2.126   1.749
 9304SOL    HW139943   8.296   2.065   1.792
 9304SOL    HW239944   8.156   2.145   1.814
 9305SOL     OW39945   8.336   3.376   1.195
 9305SOL    HW139946   8.313   3.351   1.101
 9305SOL    HW239947   8.397   3.307   1.234
 9306SOL     OW39948   8.799   2.452   1.433
 9306SOL    HW139949   8.827   2.409   1.518
 9306SOL    HW239950   8.824   2.548   1.434
 9307SOL     OW39951   8.251   3.264   0.924
 9307SOL    HW139952   8.341   3.278   0.882
 9307SOL    HW239953   8.180   3.266   0.853
 9308SOL     OW39954   8.370   2.365   0.899
 9308SOL    HW139955   8.345   2.356   0.803
 9308SOL    HW239956   8.418   2.283   0.930
 9309SOL     OW39957   7.987   1.926   0.512
 9309SOL    HW139958   7.906   1.927   0.570
 9309SOL    HW239959   7.990   2.009   0.457
 9310SOL     OW39960   8.882   3.050   0.041
 9310SOL    HW139961   8.914   2.974   0.098
 9310SOL    HW239962   8.790   3.077   0.071
 9311SOL     OW39963   8.383   2.098   0.480
 9311SOL    HW139964   8.335   2.139   0.402
 9311SOL    HW239965   8.482   2.096   0.461
 9312SOL     OW39966   8.524   2.545   1.464
 9312SOL    HW139967   8.444   2.484   1.467
 9312SOL    HW239968   8.605   2.492   1.440
 9313SOL     OW39969   8.675   3.432   0.793
 9313SOL    HW139970   8.696   3.506   0.728
 9313SOL    HW239971   8.743   3.432   0.866
 9314SOL     OW39972   7.907   3.014   0.741
 9314SOL    HW139973   7.836   2.987   0.806
 9314SOL    HW239974   7.881   2.986   0.648
 9315SOL     OW39975   8.719   3.659   0.591
 9315SOL    HW139976   8.763   3.723   0.527
 9315SOL    HW239977   8.669   3.711   0.661
 9316SOL     OW39978   8.480   2.411   0.016
 9316SOL    HW139979   8.439   2.493  -0.023
 9316SOL    HW239980   8.544   2.437   0.089
 9317SOL     OW39981   8.009   2.084   1.147
 9317SOL    HW139982   8.047   2.000   1.184
 9317SOL    HW239983   7.921   2.103   1.191
 9318SOL     OW39984   8.314   2.316   0.642
 9318SOL    HW139985   8.282   2.388   0.580
 9318SOL    HW239986   8.338   2.235   0.589
 9319SOL     OW39987   8.465   1.901   0.753
 9319SOL    HW139988   8.393   1.906   0.684
 9319SOL    HW239989   8.441   1.832   0.822
 9320SOL     OW39990   8.877   3.035   0.867
 9320SOL    HW139991   8.822   2.951   0.860
 9320SOL    HW239992   8.903   3.064   0.775
 9321SOL     OW39993   8.914   2.452   0.992
 9321SOL    HW139994   8.884   2.357   0.999
 9321SOL    HW239995   8.987   2.468   1.058
 9322SOL     OW39996   9.305   2.695   0.377
 9322SOL    HW139997   9.347   2.631   0.441
 9322SOL    HW239998   9.267   2.644   0.299
 9323SOL     OW39999   7.936   3.247   0.174
 9323SOL    HW140000   7.849   3.232   0.221
 9323SOL    HW240001   7.919   3.273   0.079
 9324SOL     OW40002   9.112   3.142   0.657
 9324SOL    HW140003   9.211   3.150   0.671
 9324SOL    HW240004   9.067   3.226   0.688
 9325SOL     OW40005   8.838   2.437   0.078
 9325SOL    HW140006   8.784   2.416   0.159
 9325SOL    HW240007   8.929   2.396   0.087
 9326SOL     OW40008   7.975   2.118   0.328
 9326SOL    HW140009   8.002   2.059   0.253
 9326SOL    HW240010   7.975   2.213   0.297
 9327SOL     OW40011   9.040   3.491   1.625
 9327SOL    HW140012   9.067   3.525   1.535
 9327SOL    HW240013   9.119   3.453   1.671
 9328SOL     OW40014   8.559   3.057   1.100
 9328SOL    HW140015   8.519   3.101   1.181
 9328SOL    HW240016   8.518   3.094   1.017
 9329SOL     OW40017   9.086   2.961   1.079
 9329SOL    HW140018   9.091   3.042   1.138
 9329SOL    HW240019   9.000   2.963   1.028
 9330SOL     OW40020   8.363   1.951   1.402
 9330SOL    HW140021   8.388   1.931   1.307
 9330SOL    HW240022   8.435   2.007   1.444
 9331SOL     OW40023   8.153   2.912   0.368
 9331SOL    HW140024   8.139   2.919   0.467
 9331SOL    HW240025   8.237   2.861   0.350
 9332SOL     OW40026   8.722   2.248   1.262
 9332SOL    HW140027   8.743   2.322   1.326
 9332SOL    HW240028   8.633   2.265   1.219
 9333SOL     OW40029   7.512   3.426   1.331
 9333SOL    HW140030   7.466   3.508   1.297
 9333SOL    HW240031   7.610   3.445   1.340
 9334SOL     OW40032   7.815   2.962   0.501
 9334SOL    HW140033   7.808   3.045   0.445
 9334SOL    HW240034   7.819   2.882   0.441
 9335SOL     OW40035   8.014   2.399   0.865
 9335SOL    HW140036   8.026   2.465   0.791
 9335SOL    HW240037   8.060   2.433   0.948
 9336SOL     OW40038   8.700   3.210   0.388
 9336SOL    HW140039   8.750   3.287   0.428
 9336SOL    HW240040   8.605   3.212   0.420
 9337SOL     OW40041   8.720   3.307   1.142
 9337SOL    HW140042   8.767   3.320   1.229
 9337SOL    HW240043   8.654   3.233   1.151
 9338SOL     OW40044   9.030   2.501   0.472
 9338SOL    HW140045   8.999   2.562   0.545
 9338SOL    HW240046   9.080   2.553   0.403
 9339SOL     OW40047   7.802   3.372   1.329
 9339SOL    HW140048   7.781   3.328   1.242
 9339SOL    HW240049   7.899   3.398   1.332
 9340SOL     OW40050   8.461   1.967   1.770
 9340SOL    HW140051   8.467   2.052   1.718
 9340SOL    HW240052   8.493   1.891   1.713
 9341SOL     OW40053   7.952   1.912   1.740
 9341SOL    HW140054   7.910   1.855   1.670
 9341SOL    HW240055   7.886   1.981   1.772
 9342SOL     OW40056   8.021   2.732   1.029
 9342SOL    HW140057   8.065   2.821   1.020
 9342SOL    HW240058   7.958   2.732   1.106
 9343SOL     OW40059   8.808   2.724   1.045
 9343SOL    HW140060   8.733   2.724   0.979
 9343SOL    HW240061   8.845   2.632   1.054
 9344SOL     OW40062   8.657   2.387   0.275
 9344SOL    HW140063   8.670   2.303   0.329
 9344SOL    HW240064   8.628   2.461   0.335
 9345SOL     OW40065   7.485   3.172   1.282
 9345SOL    HW140066   7.538   3.123   1.350
 9345SOL    HW240067   7.507   3.270   1.287
 9346SOL     OW40068   8.180   2.496   1.064
 9346SOL    HW140069   8.239   2.470   0.988
 9346SOL    HW240070   8.152   2.592   1.053
 9347SOL     OW40071   9.176   2.797   1.854
 9347SOL    HW140072   9.130   2.790   1.765
 9347SOL    HW240073   9.114   2.841   1.920
 9348SOL     OW40074   7.755   1.925   0.618
 9348SOL    HW140075   7.744   2.019   0.651
 9348SOL    HW240076   7.750   1.862   0.695
 9349SOL     OW40077   9.070   2.229   0.374
 9349SOL    HW140078   9.072   2.153   0.438
 9349SOL    HW240079   9.022   2.306   0.414
 9350SOL     OW40080   8.471   2.628   0.966
 9350SOL    HW140081   8.486   2.649   1.062
 9350SOL    HW240082   8.441   2.533   0.957
 9351SOL     OW40083   9.307   3.380   1.605
 9351SOL    HW140084   9.321   3.407   1.510
 9351SOL    HW240085   9.390   3.402   1.658
 9352SOL     OW40086   8.988   2.136   0.125
 9352SOL    HW140087   8.927   2.061   0.148
 9352SOL    HW240088   9.010   2.188   0.208
 9353SOL     OW40089   8.751   2.700   0.042
 9353SOL    HW140090   8.785   2.607   0.057
 9353SOL    HW240091   8.769   2.727  -0.053
 9354SOL     OW40092   8.516   3.195   0.849
 9354SOL    HW140093   8.523   3.111   0.794
 9354SOL    HW240094   8.578   3.264   0.813
 9355SOL     OW40095   7.767   2.672   0.949
 9355SOL    HW140096   7.860   2.708   0.954
 9355SOL    HW240097   7.761   2.587   1.001
 9356SOL     OW40098   7.787   2.371   1.006
 9356SOL    HW140099   7.735   2.288   0.989
 9356SOL    HW240100   7.864   2.376   0.942
 9357SOL     OW40101   8.608   2.069   1.477
 9357SOL    HW140102   8.608   2.133   1.554
 9357SOL    HW240103   8.636   2.117   1.394
 9358SOL     OW40104   7.456   3.188   0.200
 9358SOL    HW140105   7.363   3.209   0.169
 9358SOL    HW240106   7.466   3.089   0.213
 9359SOL     OW40107   7.536   3.663   0.927
 9359SOL    HW140108   7.494   3.577   0.900
 9359SOL    HW240109   7.630   3.666   0.893
 9360SOL     OW40110   7.952   3.430   0.910
 9360SOL    HW140111   8.018   3.504   0.919
 9360SOL    HW240112   7.996   3.351   0.868
 9361SOL     OW40113   8.450   2.658   1.238
 9361SOL    HW140114   8.491   2.626   1.324
 9361SOL    HW240115   8.354   2.631   1.235
 9362SOL     OW40116   7.488   2.406   1.114
 9362SOL    HW140117   7.573   2.373   1.073
 9362SOL    HW240118   7.501   2.421   1.212
 9363SOL     OW40119   7.637   2.382   1.722
 9363SOL    HW140120   7.696   2.342   1.652
 9363SOL    HW240121   7.579   2.453   1.681
 9364SOL     OW40122   8.817   2.812   1.660
 9364SOL    HW140123   8.856   2.901   1.680
 9364SOL    HW240124   8.827   2.792   1.563
 9365SOL     OW40125   8.263   2.434   0.325
 9365SOL    HW140126   8.270   2.345   0.279
 9365SOL    HW240127   8.169   2.468   0.317
 9366SOL     OW40128   9.105   2.466   1.206
 9366SOL    HW140129   9.067   2.397   1.268
 9366SOL    HW240130   9.187   2.430   1.162
 9367SOL     OW40131   8.119   2.326   1.269
 9367SOL    HW140132   8.085   2.237   1.239
 9367SOL    HW240133   8.145   2.380   1.189
 9368SOL     OW40134   7.921   2.362   0.191
 9368SOL    HW140135   7.982   2.442   0.195
 9368SOL    HW240136   7.826   2.393   0.198
 9369SOL     OW40137   7.607   2.999   1.466
 9369SOL    HW140138   7.629   2.938   1.542
 9369SOL    HW240139   7.617   2.950   1.380
 9370SOL     OW40140   8.795   2.921   1.234
 9370SOL    HW140141   8.819   2.858   1.160
 9370SOL    HW240142   8.705   2.961   1.216
 9371SOL     OW40143   8.750   2.717   0.309
 9371SOL    HW140144   8.664   2.686   0.351
 9371SOL    HW240145   8.746   2.703   0.210
 9372SOL     OW40146   9.207   3.609   1.154
 9372SOL    HW140147   9.268   3.639   1.081
 9372SOL    HW240148   9.169   3.520   1.132
 9373SOL     OW40149   8.700   3.593   1.128
 9373SOL    HW140150   8.784   3.598   1.074
 9373SOL    HW240151   8.677   3.497   1.146
 9374SOL     OW40152   7.531   3.120   1.022
 9374SOL    HW140153   7.526   3.119   1.122
 9374SOL    HW240154   7.448   3.079   0.984
 9375SOL     OW40155   8.136   3.524   1.716
 9375SOL    HW140156   8.080   3.605   1.725
 9375SOL    HW240157   8.188   3.528   1.630
 9376SOL     OW40158   8.351   1.948   0.133
 9376SOL    HW140159   8.402   1.949   0.047
 9376SOL    HW240160   8.407   1.906   0.204
 9377SOL     OW40161   9.174   1.997   0.523
 9377SOL    HW140162   9.247   1.980   0.456
 9377SOL    HW240163   9.143   1.910   0.561
 9378SOL     OW40164   8.836   3.435   0.477
 9378SOL    HW140165   8.903   3.447   0.403
 9378SOL    HW240166   8.796   3.524   0.500
 9379SOL     OW40167   8.728   2.789   0.672
 9379SOL    HW140168   8.788   2.708   0.674
 9379SOL    HW240169   8.768   2.858   0.612
 9380SOL     OW40170   8.120   3.478   0.154
 9380SOL    HW140171   8.129   3.488   0.055
 9380SOL    HW240172   8.080   3.389   0.175
 9381SOL     OW40173   9.289   2.037   0.963
 9381SOL    HW140174   9.328   1.952   0.927
 9381SOL    HW240175   9.191   2.039   0.944
 9382SOL     OW40176   7.711   2.188   0.720
 9382SOL    HW140177   7.632   2.239   0.686
 9382SOL    HW240178   7.702   2.173   0.818
 9383SOL     OW40179   8.642   3.474   0.031
 9383SOL    HW140180   8.648   3.381   0.068
 9383SOL    HW240181   8.583   3.474  -0.049
 9384SOL     OW40182   8.270   2.864   1.372
 9384SOL    HW140183   8.310   2.863   1.280
 9384SOL    HW240184   8.280   2.956   1.412
 9385SOL     OW40185   8.364   2.772   0.291
 9385SOL    HW140186   8.427   2.810   0.223
 9385SOL    HW240187   8.404   2.689   0.330
 9386SOL     OW40188   8.952   3.469   0.044
 9386SOL    HW140189   8.860   3.506   0.051
 9386SOL    HW240190   8.990   3.489  -0.046
 9387SOL     OW40191   7.820   3.150   1.490
 9387SOL    HW140192   7.807   3.243   1.456
 9387SOL    HW240193   7.736   3.098   1.477
 9388SOL     OW40194   9.062   3.154   1.289
 9388SOL    HW140195   9.122   3.157   1.369
 9388SOL    HW240196   8.987   3.218   1.302
 9389SOL     OW40197   8.487   2.960   0.696
 9389SOL    HW140198   8.417   2.913   0.750
 9389SOL    HW240199   8.546   2.892   0.653
 9390SOL     OW40200   8.038   3.349   0.491
 9390SOL    HW140201   8.080   3.291   0.421
 9390SOL    HW240202   7.994   3.428   0.447
 9391SOL     OW40203   7.703   3.210   0.290
 9391SOL    HW140204   7.607   3.211   0.263
 9391SOL    HW240205   7.715   3.263   0.374
 9392SOL     OW40206   8.120   2.065   1.489
 9392SOL    HW140207   8.210   2.049   1.449
 9392SOL    HW240208   8.128   2.070   1.588
 9393SOL     OW40209   7.523   2.207   0.033
 9393SOL    HW140210   7.431   2.179   0.004
 9393SOL    HW240211   7.554   2.284  -0.023
 9394SOL     OW40212   7.520   2.028   0.318
 9394SOL    HW140213   7.503   2.111   0.264
 9394SOL    HW240214   7.610   1.991   0.296
 9395SOL     OW40215   8.631   3.197   0.119
 9395SOL    HW140216   8.532   3.186   0.121
 9395SOL    HW240217   8.665   3.212   0.212
 9396SOL     OW40218   8.061   2.704   1.431
 9396SOL    HW140219   8.117   2.785   1.414
 9396SOL    HW240220   8.120   2.624   1.434
 9397SOL     OW40221   8.941   3.629   0.959
 9397SOL    HW140222   8.974   3.693   0.890
 9397SOL    HW240223   9.007   3.623   1.034
 9398SOL     OW40224   7.838   3.603   1.560
 9398SOL    HW140225   7.747   3.644   1.558
 9398SOL    HW240226   7.831   3.509   1.592
 9399SOL     OW40227   9.122   2.745   1.254
 9399SOL    HW140228   9.095   2.656   1.217
 9399SOL    HW240229   9.123   2.813   1.181
 9400SOL     OW40230   8.673   2.187   0.449
 9400SOL    HW140231   8.738   2.113   0.438
 9400SOL    HW240232   8.693   2.237   0.533
 9401SOL     OW40233   8.042   2.607   0.652
 9401SOL    HW140234   8.092   2.692   0.633
 9401SOL    HW240235   7.954   2.609   0.604
 9402SOL     OW40236   8.307   3.236   0.016
 9402SOL    HW140237   8.261   3.251   0.104
 9402SOL    HW240238   8.351   3.321  -0.014
 9403SOL     OW40239   8.109   3.652   0.953
 9403SOL    HW140240   8.063   3.740   0.940
 9403SOL    HW240241   8.208   3.664   0.946
 9404SOL     OW40242   8.307   2.818   0.861
 9404SOL    HW140243   8.361   2.749   0.909
 9404SOL    HW240244   8.275   2.887   0.927
 9405SOL     OW40245   8.531   2.846   0.087
 9405SOL    HW140246   8.508   2.899   0.005
 9405SOL    HW240247   8.612   2.790   0.068
 9406SOL     OW40248   9.309   3.431   0.851
 9406SOL    HW140249   9.238   3.419   0.781
 9406SOL    HW240250   9.310   3.352   0.911
 9407SOL     OW40251   7.527   3.102   0.653
 9407SOL    HW140252   7.526   3.055   0.741
 9407SOL    HW240253   7.609   3.074   0.602
 9408SOL     OW40254   8.120   3.253   1.624
 9408SOL    HW140255   8.042   3.203   1.662
 9408SOL    HW240256   8.117   3.348   1.655
 9409SOL     OW40257   7.876   2.286   0.520
 9409SOL    HW140258   7.906   2.214   0.458
 9409SOL    HW240259   7.837   2.246   0.603
 9410SOL     OW40260   9.153   3.349   1.104
 9410SOL    HW140261   9.060   3.324   1.077
 9410SOL    HW240262   9.179   3.299   1.186
 9411SOL     OW40263   8.260   3.448   0.687
 9411SOL    HW140264   8.292   3.458   0.593
 9411SOL    HW240265   8.181   3.386   0.689
 9412SOL     OW40266   8.218   3.192   0.301
 9412SOL    HW140267   8.172   3.105   0.318
 9412SOL    HW240268   8.309   3.189   0.342
 9413SOL     OW40269   8.066   3.429   1.284
 9413SOL    HW140270   8.061   3.511   1.341
 9413SOL    HW240271   8.155   3.426   1.239
 9414SOL     OW40272   8.800   1.914   0.168
 9414SOL    HW140273   8.835   1.873   0.084
 9414SOL    HW240274   8.710   1.876   0.188
 9415SOL     OW40275   8.748   2.315   0.691
 9415SOL    HW140276   8.689   2.395   0.695
 9415SOL    HW240277   8.763   2.280   0.784
 9416SOL     OW40278   9.041   2.083   0.882
 9416SOL    HW140279   8.957   2.082   0.936
 9416SOL    HW240280   9.043   2.166   0.826
 9417SOL     OW40281   7.487   2.939   0.300
 9417SOL    HW140282   7.586   2.928   0.291
 9417SOL    HW240283   7.447   2.853   0.332
 9418SOL     OW40284   8.323   3.508   0.337
 9418SOL    HW140285   8.246   3.473   0.283
 9418SOL    HW240286   8.291   3.579   0.399
 9419SOL     OW40287   7.678   2.490   1.975
 9419SOL    HW140288   7.585   2.488   2.012
 9419SOL    HW240289   7.679   2.451   1.883
 9420SOL     OW40290   7.467   2.230   2.509
 9420SOL    HW140291   7.385   2.273   2.548
 9420SOL    HW240292   7.439   2.157   2.446
 9421SOL     OW40293   8.134   3.023   3.665
 9421SOL    HW140294   8.194   3.102   3.679
 9421SOL    HW240295   8.048   3.054   3.624
 9422SOL     OW40296   8.908   3.367   3.201
 9422SOL    HW140297   8.932   3.461   3.227
 9422SOL    HW240298   8.892   3.313   3.283
 9423SOL     OW40299   7.886   2.254   3.361
 9423SOL    HW140300   7.968   2.198   3.370
 9423SOL    HW240301   7.805   2.196   3.365
 9424SOL     OW40302   7.475   3.458   1.979
 9424SOL    HW140303   7.456   3.362   2.000
 9424SOL    HW240304   7.442   3.516   2.054
 9425SOL     OW40305   8.257   1.866   2.364
 9425SOL    HW140306   8.297   1.957   2.355
 9425SOL    HW240307   8.157   1.874   2.370
 9426SOL     OW40308   7.765   2.113   3.663
 9426SOL    HW140309   7.836   2.184   3.669
 9426SOL    HW240310   7.677   2.152   3.691
 9427SOL     OW40311   8.046   2.591   2.132
 9427SOL    HW140312   8.070   2.660   2.064
 9427SOL    HW240313   7.968   2.624   2.186
 9428SOL     OW40314   8.842   2.331   3.536
 9428SOL    HW140315   8.822   2.374   3.624
 9428SOL    HW240316   8.920   2.269   3.545
 9429SOL     OW40317   8.421   2.752   3.434
 9429SOL    HW140318   8.467   2.668   3.405
 9429SOL    HW240319   8.365   2.786   3.359
 9430SOL     OW40320   8.810   3.006   2.407
 9430SOL    HW140321   8.893   2.977   2.359
 9430SOL    HW240322   8.761   3.073   2.351
 9431SOL     OW40323   9.243   2.928   2.735
 9431SOL    HW140324   9.181   2.913   2.659
 9431SOL    HW240325   9.191   2.939   2.820
 9432SOL     OW40326   8.675   3.412   3.368
 9432SOL    HW140327   8.681   3.335   3.432
 9432SOL    HW240328   8.623   3.386   3.288
 9433SOL     OW40329   7.909   3.128   3.589
 9433SOL    HW140330   7.859   3.129   3.503
 9433SOL    HW240331   7.846   3.110   3.665
 9434SOL     OW40332   7.650   2.147   3.360
 9434SOL    HW140333   7.570   2.207   3.347
 9434SOL    HW240334   7.640   2.098   3.446
 9435SOL     OW40335   7.912   3.605   2.185
 9435SOL    HW140336   7.945   3.644   2.271
 9435SOL    HW240337   7.988   3.598   2.120
 9436SOL     OW40338   7.830   2.562   2.342
 9436SOL    HW140339   7.875   2.472   2.339
 9436SOL    HW240340   7.736   2.551   2.375
 9437SOL     OW40341   8.995   2.084   3.591
 9437SOL    HW140342   8.990   2.121   3.683
 9437SOL    HW240343   8.923   2.015   3.579
 9438SOL     OW40344   8.370   2.365   2.761
 9438SOL    HW140345   8.345   2.356   2.665
 9438SOL    HW240346   8.418   2.283   2.792
 9439SOL     OW40347   8.524   2.545   3.326
 9439SOL    HW140348   8.444   2.484   3.329
 9439SOL    HW240349   8.605   2.492   3.302
 9440SOL     OW40350   7.907   3.014   2.603
 9440SOL    HW140351   7.836   2.987   2.668
 9440SOL    HW240352   7.881   2.986   2.510
 9441SOL     OW40353   8.719   3.659   2.453
 9441SOL    HW140354   8.763   3.723   2.389
 9441SOL    HW240355   8.669   3.711   2.523
 9442SOL     OW40356   8.914   2.452   2.854
 9442SOL    HW140357   8.884   2.357   2.861
 9442SOL    HW240358   8.987   2.468   2.920
 9443SOL     OW40359   9.305   2.695   2.239
 9443SOL    HW140360   9.347   2.631   2.303
 9443SOL    HW240361   9.267   2.644   2.161
 9444SOL     OW40362   9.112   3.142   2.519
 9444SOL    HW140363   9.211   3.150   2.533
 9444SOL    HW240364   9.067   3.226   2.550
 9445SOL     OW40365   8.838   2.437   1.940
 9445SOL    HW140366   8.784   2.416   2.021
 9445SOL    HW240367   8.929   2.396   1.949
 9446SOL     OW40368   9.202   3.085   3.450
 9446SOL    HW140369   9.293   3.046   3.437
 9446SOL    HW240370   9.210   3.181   3.474
 9447SOL     OW40371   9.040   3.491   3.487
 9447SOL    HW140372   9.067   3.525   3.397
 9447SOL    HW240373   9.119   3.453   3.533
 9448SOL     OW40374   8.363   1.951   3.264
 9448SOL    HW140375   8.388   1.931   3.169
 9448SOL    HW240376   8.435   2.007   3.306
 9449SOL     OW40377   8.428   2.978   3.581
 9449SOL    HW140378   8.329   2.984   3.591
 9449SOL    HW240379   8.451   2.898   3.525
 9450SOL     OW40380   7.952   1.912   3.602
 9450SOL    HW140381   7.910   1.855   3.532
 9450SOL    HW240382   7.886   1.981   3.634
 9451SOL     OW40383   7.755   2.075   3.093
 9451SOL    HW140384   7.732   2.112   3.183
 9451SOL    HW240385   7.725   1.980   3.087
 9452SOL     OW40386   8.180   2.496   2.926
 9452SOL    HW140387   8.239   2.470   2.850
 9452SOL    HW240388   8.152   2.592   2.915
 9453SOL     OW40389   9.176   2.797   3.716
 9453SOL    HW140390   9.130   2.790   3.627
 9453SOL    HW240391   9.114   2.841   3.782
 9454SOL     OW40392   8.428   3.435   3.562
 9454SOL    HW140393   8.408   3.479   3.474
 9454SOL    HW240394   8.467   3.344   3.546
 9455SOL     OW40395   9.307   3.380   3.467
 9455SOL    HW140396   9.321   3.407   3.372
 9455SOL    HW240397   9.390   3.402   3.520
 9456SOL     OW40398   8.751   2.700   1.904
 9456SOL    HW140399   8.785   2.607   1.919
 9456SOL    HW240400   8.769   2.727   1.809
 9457SOL     OW40401   8.516   3.195   2.711
 9457SOL    HW140402   8.523   3.111   2.656
 9457SOL    HW240403   8.578   3.264   2.675
 9458SOL     OW40404   8.608   2.069   3.339
 9458SOL    HW140405   8.608   2.133   3.416
 9458SOL    HW240406   8.636   2.117   3.256
 9459SOL     OW40407   7.536   3.663   2.789
 9459SOL    HW140408   7.494   3.577   2.762
 9459SOL    HW240409   7.630   3.666   2.755
 9460SOL     OW40410   7.488   2.406   2.976
 9460SOL    HW140411   7.573   2.373   2.935
 9460SOL    HW240412   7.501   2.421   3.074
 9461SOL     OW40413   8.817   2.812   3.522
 9461SOL    HW140414   8.856   2.901   3.542
 9461SOL    HW240415   8.827   2.792   3.425
 9462SOL     OW40416   8.119   2.326   3.131
 9462SOL    HW140417   8.085   2.237   3.101
 9462SOL    HW240418   8.145   2.380   3.051
 9463SOL     OW40419   7.921   2.362   2.053
 9463SOL    HW140420   7.982   2.442   2.057
 9463SOL    HW240421   7.826   2.393   2.060
 9464SOL     OW40422   9.207   3.609   3.016
 9464SOL    HW140423   9.268   3.639   2.943
 9464SOL    HW240424   9.169   3.520   2.994
 9465SOL     OW40425   9.174   1.997   2.385
 9465SOL    HW140426   9.247   1.980   2.318
 9465SOL    HW240427   9.143   1.910   2.423
 9466SOL     OW40428   9.098   3.582   3.256
 9466SOL    HW140429   9.151   3.592   3.172
 9466SOL    HW240430   9.071   3.672   3.290
 9467SOL     OW40431   8.364   2.772   2.153
 9467SOL    HW140432   8.427   2.810   2.085
 9467SOL    HW240433   8.404   2.689   2.192
 9468SOL     OW40434   7.820   3.150   3.352
 9468SOL    HW140435   7.807   3.243   3.318
 9468SOL    HW240436   7.736   3.098   3.339
 9469SOL     OW40437   8.120   2.065   3.351
 9469SOL    HW140438   8.210   2.049   3.311
 9469SOL    HW240439   8.128   2.070   3.450
 9470SOL     OW40440   8.888   2.718   3.260
 9470SOL    HW140441   8.831   2.770   3.197
 9470SOL    HW240442   8.984   2.730   3.236
 9471SOL     OW40443   8.898   3.082   3.495
 9471SOL    HW140444   8.889   3.072   3.594
 9471SOL    HW240445   8.994   3.075   3.469
 9472SOL     OW40446   9.178   2.796   3.379
 9472SOL    HW140447   9.216   2.887   3.394
 9472SOL    HW240448   9.170   2.779   3.280
 9473SOL     OW40449   8.307   3.236   1.878
 9473SOL    HW140450   8.261   3.251   1.966
 9473SOL    HW240451   8.351   3.321   1.848
 9474SOL     OW40452   8.307   2.818   2.723
 9474SOL    HW140453   8.361   2.749   2.771
 9474SOL    HW240454   8.275   2.887   2.789
 9475SOL     OW40455   8.531   2.846   1.949
 9475SOL    HW140456   8.508   2.899   1.867
 9475SOL    HW240457   8.612   2.790   1.930
 9476SOL     OW40458   8.260   3.448   2.549
 9476SOL    HW140459   8.292   3.458   2.455
 9476SOL    HW240460   8.181   3.386   2.551
 9477SOL     OW40461   8.066   3.429   3.146
 9477SOL    HW140462   8.061   3.511   3.203
 9477SOL    HW240463   8.155   3.426   3.101
 9478SOL     OW40464   9.041   2.083   2.744
 9478SOL    HW140465   8.957   2.082   2.798
 9478SOL    HW240466   9.043   2.166   2.688
 9479SOL     OW40467   7.678   2.490   3.837
 9479SOL    HW140468   7.585   2.488   3.874
 9479SOL    HW240469   7.679   2.451   3.745
 9480SOL     OW40470   7.467   2.230   4.371
 9480SOL    HW140471   7.385   2.273   4.410
 9480SOL    HW240472   7.439   2.157   4.308
 9481SOL     OW40473   9.203   2.469   3.955
 9481SOL    HW140474   9.191   2.456   3.856
 9481SOL    HW240475   9.173   2.388   4.004
 9482SOL     OW40476   8.216   3.006   4.747
 9482SOL    HW140477   8.138   3.023   4.807
 9482SOL    HW240478   8.250   3.093   4.711
 9483SOL     OW40479   8.575   3.203   5.414
 9483SOL    HW140480   8.622   3.203   5.502
 9483SOL    HW240481   8.527   3.116   5.403
 9484SOL     OW40482   8.054   2.826   3.847
 9484SOL    HW140483   8.061   2.910   3.793
 9484SOL    HW240484   8.100   2.839   3.935
 9485SOL     OW40485   9.089   2.970   4.156
 9485SOL    HW140486   9.175   2.972   4.104
 9485SOL    HW240487   9.103   3.017   4.244
 9486SOL     OW40488   7.561   2.599   5.321
 9486SOL    HW140489   7.649   2.586   5.366
 9486SOL    HW240490   7.548   2.696   5.299
 9487SOL     OW40491   8.061   3.227   4.450
 9487SOL    HW140492   8.012   3.140   4.459
 9487SOL    HW240493   8.038   3.270   4.363
 9488SOL     OW40494   8.741   3.090   5.147
 9488SOL    HW140495   8.778   3.017   5.089
 9488SOL    HW240496   8.793   3.095   5.232
 9489SOL     OW40497   8.729   2.207   4.668
 9489SOL    HW140498   8.643   2.157   4.655
 9489SOL    HW240499   8.791   2.153   4.724
 9490SOL     OW40500   8.842   2.331   5.398
 9490SOL    HW140501   8.822   2.374   5.486
 9490SOL    HW240502   8.920   2.269   5.407
 9491SOL     OW40503   8.439   2.272   4.966
 9491SOL    HW140504   8.362   2.306   5.020
 9491SOL    HW240505   8.405   2.221   4.887
 9492SOL     OW40506   8.489   2.563   4.153
 9492SOL    HW140507   8.515   2.559   4.249
 9492SOL    HW240508   8.404   2.512   4.139
 9493SOL     OW40509   7.524   2.673   4.513
 9493SOL    HW140510   7.623   2.661   4.522
 9493SOL    HW240511   7.500   2.768   4.534
 9494SOL     OW40512   8.456   3.318   4.201
 9494SOL    HW140513   8.410   3.390   4.149
 9494SOL    HW240514   8.452   3.338   4.299
 9495SOL     OW40515   8.559   3.638   3.961
 9495SOL    HW140516   8.499   3.576   4.011
 9495SOL    HW240517   8.590   3.594   3.876
 9496SOL     OW40518   7.650   2.147   5.222
 9496SOL    HW140519   7.570   2.207   5.209
 9496SOL    HW240520   7.640   2.098   5.308
 9497SOL     OW40521   9.080   3.239   3.805
 9497SOL    HW140522   9.048   3.333   3.795
 9497SOL    HW240523   9.004   3.176   3.793
 9498SOL     OW40524   7.912   3.605   4.047
 9498SOL    HW140525   7.945   3.644   4.133
 9498SOL    HW240526   7.988   3.598   3.982
 9499SOL     OW40527   8.229   2.126   5.473
 9499SOL    HW140528   8.296   2.065   5.516
 9499SOL    HW240529   8.156   2.145   5.538
 9500SOL     OW40530   8.799   2.452   5.157
 9500SOL    HW140531   8.827   2.409   5.242
 9500SOL    HW240532   8.824   2.548   5.158
 9501SOL     OW40533   7.745   1.897   3.895
 9501SOL    HW140534   7.794   1.981   3.874
 9501SOL    HW240535   7.807   1.832   3.940
 9502SOL     OW40536   8.675   3.432   4.517
 9502SOL    HW140537   8.696   3.506   4.452
 9502SOL    HW240538   8.743   3.432   4.590
 9503SOL     OW40539   8.719   3.659   4.315
 9503SOL    HW140540   8.763   3.723   4.251
 9503SOL    HW240541   8.669   3.711   4.385
 9504SOL     OW40542   8.480   2.411   3.740
 9504SOL    HW140543   8.439   2.493   3.701
 9504SOL    HW240544   8.544   2.437   3.813
 9505SOL     OW40545   9.112   3.142   4.381
 9505SOL    HW140546   9.211   3.150   4.395
 9505SOL    HW240547   9.067   3.226   4.412
 9506SOL     OW40548   7.975   2.118   4.052
 9506SOL    HW140549   8.002   2.059   3.977
 9506SOL    HW240550   7.975   2.213   4.021
 9507SOL     OW40551   8.559   3.057   4.824
 9507SOL    HW140552   8.519   3.101   4.905
 9507SOL    HW240553   8.518   3.094   4.741
 9508SOL     OW40554   9.086   2.961   4.803
 9508SOL    HW140555   9.091   3.042   4.862
 9508SOL    HW240556   9.000   2.963   4.752
 9509SOL     OW40557   8.428   2.978   5.443
 9509SOL    HW140558   8.329   2.984   5.453
 9509SOL    HW240559   8.451   2.898   5.387
 9510SOL     OW40560   8.720   3.307   4.866
 9510SOL    HW140561   8.767   3.320   4.953
 9510SOL    HW240562   8.654   3.233   4.875
 9511SOL     OW40563   7.802   3.372   5.053
 9511SOL    HW140564   7.781   3.328   4.966
 9511SOL    HW240565   7.899   3.398   5.056
 9512SOL     OW40566   8.657   2.387   3.999
 9512SOL    HW140567   8.670   2.303   4.053
 9512SOL    HW240568   8.628   2.461   4.059
 9513SOL     OW40569   8.428   3.435   5.424
 9513SOL    HW140570   8.408   3.479   5.336
 9513SOL    HW240571   8.467   3.344   5.408
 9514SOL     OW40572   9.307   3.380   5.329
 9514SOL    HW140573   9.321   3.407   5.234
 9514SOL    HW240574   9.390   3.402   5.382
 9515SOL     OW40575   8.751   2.700   3.766
 9515SOL    HW140576   8.785   2.607   3.781
 9515SOL    HW240577   8.769   2.727   3.671
 9516SOL     OW40578   7.767   2.672   4.673
 9516SOL    HW140579   7.860   2.708   4.678
 9516SOL    HW240580   7.761   2.587   4.725
 9517SOL     OW40581   8.586   2.242   5.402
 9517SOL    HW140582   8.541   2.305   5.466
 9517SOL    HW240583   8.679   2.273   5.385
 9518SOL     OW40584   7.536   3.663   4.651
 9518SOL    HW140585   7.494   3.577   4.624
 9518SOL    HW240586   7.630   3.666   4.617
 9519SOL     OW40587   8.450   2.658   4.962
 9519SOL    HW140588   8.491   2.626   5.048
 9519SOL    HW240589   8.354   2.631   4.959
 9520SOL     OW40590   7.637   2.382   5.446
 9520SOL    HW140591   7.696   2.342   5.376
 9520SOL    HW240592   7.579   2.453   5.405
 9521SOL     OW40593   8.817   2.812   5.384
 9521SOL    HW140594   8.856   2.901   5.404
 9521SOL    HW240595   8.827   2.792   5.287
 9522SOL     OW40596   8.263   2.434   4.049
 9522SOL    HW140597   8.270   2.345   4.003
 9522SOL    HW240598   8.169   2.468   4.041
 9523SOL     OW40599   8.119   2.326   4.993
 9523SOL    HW140600   8.085   2.237   4.963
 9523SOL    HW240601   8.145   2.380   4.913
 9524SOL     OW40602   7.607   2.999   5.190
 9524SOL    HW140603   7.629   2.938   5.266
 9524SOL    HW240604   7.617   2.950   5.104
 9525SOL     OW40605   8.750   2.717   4.033
 9525SOL    HW140606   8.664   2.686   4.075
 9525SOL    HW240607   8.746   2.703   3.934
 9526SOL     OW40608   8.700   3.593   4.852
 9526SOL    HW140609   8.784   3.598   4.798
 9526SOL    HW240610   8.677   3.497   4.870
 9527SOL     OW40611   7.531   3.120   4.746
 9527SOL    HW140612   7.526   3.119   4.846
 9527SOL    HW240613   7.448   3.079   4.708
 9528SOL     OW40614   9.098   3.582   5.118
 9528SOL    HW140615   9.151   3.592   5.034
 9528SOL    HW240616   9.071   3.672   5.152
 9529SOL     OW40617   8.642   3.474   3.755
 9529SOL    HW140618   8.648   3.381   3.792
 9529SOL    HW240619   8.583   3.474   3.675
 9530SOL     OW40620   8.952   3.469   3.768
 9530SOL    HW140621   8.860   3.506   3.775
 9530SOL    HW240622   8.990   3.489   3.678
 9531SOL     OW40623   7.820   3.150   5.214
 9531SOL    HW140624   7.807   3.243   5.180
 9531SOL    HW240625   7.736   3.098   5.201
 9532SOL     OW40626   9.062   3.154   5.013
 9532SOL    HW140627   9.122   3.157   5.093
 9532SOL    HW240628   8.987   3.218   5.026
 9533SOL     OW40629   8.462   2.098   4.695
 9533SOL    HW140630   8.454   2.062   4.602
 9533SOL    HW240631   8.460   2.022   4.760
 9534SOL     OW40632   7.553   2.875   5.450
 9534SOL    HW140633   7.476   2.842   5.504
 9534SOL    HW240634   7.638   2.845   5.492
 9535SOL     OW40635   8.888   2.718   5.122
 9535SOL    HW140636   8.831   2.770   5.059
 9535SOL    HW240637   8.984   2.730   5.098
 9536SOL     OW40638   8.631   3.197   3.843
 9536SOL    HW140639   8.532   3.186   3.845
 9536SOL    HW240640   8.665   3.212   3.936
 9537SOL     OW40641   8.061   2.704   5.155
 9537SOL    HW140642   8.117   2.785   5.138
 9537SOL    HW240643   8.120   2.624   5.158
 9538SOL     OW40644   8.941   3.629   4.683
 9538SOL    HW140645   8.974   3.693   4.614
 9538SOL    HW240646   9.007   3.623   4.758
 9539SOL     OW40647   8.164   2.427   5.432
 9539SOL    HW140648   8.183   2.492   5.506
 9539SOL    HW240649   8.224   2.347   5.441
 9540SOL     OW40650   8.673   2.187   4.173
 9540SOL    HW140651   8.738   2.113   4.162
 9540SOL    HW240652   8.693   2.237   4.257
 9541SOL     OW40653   9.225   2.204   5.366
 9541SOL    HW140654   9.208   2.235   5.272
 9541SOL    HW240655   9.141   2.167   5.404
 9542SOL     OW40656   8.307   3.236   3.740
 9542SOL    HW140657   8.261   3.251   3.828
 9542SOL    HW240658   8.351   3.321   3.710
 9543SOL     OW40659   7.669   3.176   5.568
 9543SOL    HW140660   7.604   3.103   5.547
 9543SOL    HW240661   7.673   3.190   5.666
 9544SOL     OW40662   7.876   2.286   4.244
 9544SOL    HW140663   7.906   2.214   4.182
 9544SOL    HW240664   7.837   2.246   4.327
 9545SOL     OW40665   8.218   3.192   4.025
 9545SOL    HW140666   8.172   3.105   4.042
 9545SOL    HW240667   8.309   3.189   4.066
 9546SOL     OW40668   7.487   2.939   4.024
 9546SOL    HW140669   7.586   2.928   4.015
 9546SOL    HW240670   7.447   2.853   4.056
 9547SOL     OW40671   7.678   2.490   5.699
 9547SOL    HW140672   7.585   2.488   5.736
 9547SOL    HW240673   7.679   2.451   5.607
 9548SOL     OW40674   7.673   2.137   6.582
 9548SOL    HW140675   7.708   2.120   6.674
 9548SOL    HW240676   7.585   2.092   6.570
 9549SOL     OW40677   7.467   2.230   6.233
 9549SOL    HW140678   7.385   2.273   6.272
 9549SOL    HW240679   7.439   2.157   6.170
 9550SOL     OW40680   8.017   3.137   6.751
 9550SOL    HW140681   7.924   3.130   6.714
 9550SOL    HW240682   8.028   3.226   6.795
 9551SOL     OW40683   9.003   3.373   6.289
 9551SOL    HW140684   8.946   3.357   6.370
 9551SOL    HW240685   8.944   3.383   6.209
 9552SOL     OW40686   8.583   2.565   6.303
 9552SOL    HW140687   8.640   2.643   6.278
 9552SOL    HW240688   8.523   2.591   6.379
 9553SOL     OW40689   9.203   2.469   5.817
 9553SOL    HW140690   9.191   2.456   5.718
 9553SOL    HW240691   9.173   2.388   5.866
 9554SOL     OW40692   8.216   3.006   6.609
 9554SOL    HW140693   8.138   3.023   6.669
 9554SOL    HW240694   8.250   3.093   6.573
 9555SOL     OW40695   7.783   3.297   6.647
 9555SOL    HW140696   7.705   3.266   6.594
 9555SOL    HW240697   7.841   3.355   6.590
 9556SOL     OW40698   7.886   2.254   7.085
 9556SOL    HW140699   7.968   2.198   7.094
 9556SOL    HW240700   7.805   2.196   7.089
 9557SOL     OW40701   9.051   2.309   6.323
 9557SOL    HW140702   8.977   2.355   6.273
 9557SOL    HW240703   9.102   2.377   6.376
 9558SOL     OW40704   7.688   2.953   6.472
 9558SOL    HW140705   7.702   2.869   6.524
 9558SOL    HW240706   7.633   3.017   6.527
 9559SOL     OW40707   8.068   3.648   7.025
 9559SOL    HW140708   7.976   3.631   7.060
 9559SOL    HW240709   8.096   3.740   7.051
 9560SOL     OW40710   7.570   2.505   6.149
 9560SOL    HW140711   7.525   2.417   6.166
 9560SOL    HW240712   7.569   2.559   6.233
 9561SOL     OW40713   9.137   2.784   6.198
 9561SOL    HW140714   9.232   2.755   6.206
 9561SOL    HW240715   9.129   2.849   6.123
 9562SOL     OW40716   9.089   2.970   6.018
 9562SOL    HW140717   9.175   2.972   5.966
 9562SOL    HW240718   9.103   3.017   6.106
 9563SOL     OW40719   8.257   1.866   6.088
 9563SOL    HW140720   8.297   1.957   6.079
 9563SOL    HW240721   8.157   1.874   6.094
 9564SOL     OW40722   7.645   2.838   6.850
 9564SOL    HW140723   7.734   2.793   6.836
 9564SOL    HW240724   7.572   2.773   6.831
 9565SOL     OW40725   8.973   2.861   5.776
 9565SOL    HW140726   8.910   2.785   5.789
 9565SOL    HW240727   9.021   2.879   5.862
 9566SOL     OW40728   8.914   3.279   6.539
 9566SOL    HW140729   8.855   3.285   6.619
 9566SOL    HW240730   8.899   3.191   6.493
 9567SOL     OW40731   9.115   3.576   6.158
 9567SOL    HW140732   9.074   3.553   6.070
 9567SOL    HW240733   9.097   3.502   6.223
 9568SOL     OW40734   8.729   2.207   6.530
 9568SOL    HW140735   8.643   2.157   6.517
 9568SOL    HW240736   8.791   2.153   6.586
 9569SOL     OW40737   9.024   3.524   5.893
 9569SOL    HW140738   9.113   3.570   5.896
 9569SOL    HW240739   9.003   3.500   5.798
 9570SOL     OW40740   8.255   2.467   7.051
 9570SOL    HW140741   8.208   2.464   7.140
 9570SOL    HW240742   8.204   2.412   6.985
 9571SOL     OW40743   8.439   2.272   6.828
 9571SOL    HW140744   8.362   2.306   6.882
 9571SOL    HW240745   8.405   2.221   6.749
 9572SOL     OW40746   8.489   2.563   6.015
 9572SOL    HW140747   8.515   2.559   6.111
 9572SOL    HW240748   8.404   2.512   6.001
 9573SOL     OW40749   7.524   2.673   6.375
 9573SOL    HW140750   7.623   2.661   6.384
 9573SOL    HW240751   7.500   2.768   6.396
 9574SOL     OW40752   7.578   3.683   7.157
 9574SOL    HW140753   7.568   3.668   7.256
 9574SOL    HW240754   7.492   3.719   7.121
 9575SOL     OW40755   8.313   2.210   5.781
 9575SOL    HW140756   8.372   2.273   5.732
 9575SOL    HW240757   8.332   2.116   5.752
 9576SOL     OW40758   8.810   3.006   6.131
 9576SOL    HW140759   8.893   2.977   6.083
 9576SOL    HW240760   8.761   3.073   6.075
 9577SOL     OW40761   7.998   2.058   6.471
 9577SOL    HW140762   7.993   2.053   6.571
 9577SOL    HW240763   8.000   2.154   6.442
 9578SOL     OW40764   8.456   3.318   6.063
 9578SOL    HW140765   8.410   3.390   6.011
 9578SOL    HW240766   8.452   3.338   6.161
 9579SOL     OW40767   7.799   3.663   6.439
 9579SOL    HW140768   7.849   3.577   6.445
 9579SOL    HW240769   7.864   3.740   6.436
 9580SOL     OW40770   9.243   2.928   6.459
 9580SOL    HW140771   9.181   2.913   6.383
 9580SOL    HW240772   9.191   2.939   6.544
 9581SOL     OW40773   7.769   2.805   5.828
 9581SOL    HW140774   7.851   2.844   5.786
 9581SOL    HW240775   7.742   2.723   5.779
 9582SOL     OW40776   8.906   2.597   6.314
 9582SOL    HW140777   8.901   2.532   6.389
 9582SOL    HW240778   8.986   2.656   6.327
 9583SOL     OW40779   8.848   1.969   6.012
 9583SOL    HW140780   8.824   1.932   5.922
 9583SOL    HW240781   8.947   1.985   6.016
 9584SOL     OW40782   7.697   3.647   6.827
 9584SOL    HW140783   7.754   3.582   6.877
 9584SOL    HW240784   7.681   3.614   6.734
 9585SOL     OW40785   8.388   3.560   6.490
 9585SOL    HW140786   8.468   3.503   6.511
 9585SOL    HW240787   8.339   3.520   6.413
 9586SOL     OW40788   7.830   2.562   6.066
 9586SOL    HW140789   7.875   2.472   6.063
 9586SOL    HW240790   7.736   2.551   6.099
 9587SOL     OW40791   8.336   3.376   6.781
 9587SOL    HW140792   8.313   3.351   6.687
 9587SOL    HW240793   8.397   3.307   6.820
 9588SOL     OW40794   8.251   3.264   6.510
 9588SOL    HW140795   8.341   3.278   6.468
 9588SOL    HW240796   8.180   3.266   6.439
 9589SOL     OW40797   8.370   2.365   6.485
 9589SOL    HW140798   8.345   2.356   6.389
 9589SOL    HW240799   8.418   2.283   6.516
 9590SOL     OW40800   7.987   1.926   6.098
 9590SOL    HW140801   7.906   1.927   6.156
 9590SOL    HW240802   7.990   2.009   6.043
 9591SOL     OW40803   8.882   3.050   5.627
 9591SOL    HW140804   8.914   2.974   5.684
 9591SOL    HW240805   8.790   3.077   5.657
 9592SOL     OW40806   8.383   2.098   6.066
 9592SOL    HW140807   8.335   2.139   5.988
 9592SOL    HW240808   8.482   2.096   6.047
 9593SOL     OW40809   8.675   3.432   6.379
 9593SOL    HW140810   8.696   3.506   6.314
 9593SOL    HW240811   8.743   3.432   6.452
 9594SOL     OW40812   7.907   3.014   6.327
 9594SOL    HW140813   7.836   2.987   6.392
 9594SOL    HW240814   7.881   2.986   6.234
 9595SOL     OW40815   8.719   3.659   6.177
 9595SOL    HW140816   8.763   3.723   6.113
 9595SOL    HW240817   8.669   3.711   6.247
 9596SOL     OW40818   8.009   2.084   6.733
 9596SOL    HW140819   8.047   2.000   6.770
 9596SOL    HW240820   7.921   2.103   6.777
 9597SOL     OW40821   8.314   2.316   6.228
 9597SOL    HW140822   8.282   2.388   6.166
 9597SOL    HW240823   8.338   2.235   6.175
 9598SOL     OW40824   8.465   1.901   6.339
 9598SOL    HW140825   8.393   1.906   6.270
 9598SOL    HW240826   8.441   1.832   6.408
 9599SOL     OW40827   8.877   3.035   6.453
 9599SOL    HW140828   8.822   2.951   6.446
 9599SOL    HW240829   8.903   3.064   6.361
 9600SOL     OW40830   8.914   2.452   6.578
 9600SOL    HW140831   8.884   2.357   6.585
 9600SOL    HW240832   8.987   2.468   6.644
 9601SOL     OW40833   9.305   2.695   5.963
 9601SOL    HW140834   9.347   2.631   6.027
 9601SOL    HW240835   9.267   2.644   5.885
 9602SOL     OW40836   9.112   3.142   6.243
 9602SOL    HW140837   9.211   3.150   6.257
 9602SOL    HW240838   9.067   3.226   6.274
 9603SOL     OW40839   8.512   3.209   6.926
 9603SOL    HW140840   8.432   3.186   6.981
 9603SOL    HW240841   8.595   3.183   6.975
 9604SOL     OW40842   8.559   3.057   6.686
 9604SOL    HW140843   8.519   3.101   6.767
 9604SOL    HW240844   8.518   3.094   6.603
 9605SOL     OW40845   9.086   2.961   6.665
 9605SOL    HW140846   9.091   3.042   6.724
 9605SOL    HW240847   9.000   2.963   6.614
 9606SOL     OW40848   7.858   2.675   6.837
 9606SOL    HW140849   7.944   2.687   6.887
 9606SOL    HW240850   7.816   2.588   6.864
 9607SOL     OW40851   8.722   2.248   6.848
 9607SOL    HW140852   8.743   2.322   6.912
 9607SOL    HW240853   8.633   2.265   6.805
 9608SOL     OW40854   7.512   3.426   6.917
 9608SOL    HW140855   7.466   3.508   6.883
 9608SOL    HW240856   7.610   3.445   6.926
 9609SOL     OW40857   7.815   2.962   6.087
 9609SOL    HW140858   7.808   3.045   6.031
 9609SOL    HW240859   7.819   2.882   6.027
 9610SOL     OW40860   8.014   2.399   6.451
 9610SOL    HW140861   8.026   2.465   6.377
 9610SOL    HW240862   8.060   2.433   6.534
 9611SOL     OW40863   8.700   3.210   5.974
 9611SOL    HW140864   8.750   3.287   6.014
 9611SOL    HW240865   8.605   3.212   6.006
 9612SOL     OW40866   8.720   3.307   6.728
 9612SOL    HW140867   8.767   3.320   6.815
 9612SOL    HW240868   8.654   3.233   6.737
 9613SOL     OW40869   9.030   2.501   6.058
 9613SOL    HW140870   8.999   2.562   6.131
 9613SOL    HW240871   9.080   2.553   5.989
 9614SOL     OW40872   7.802   3.372   6.915
 9614SOL    HW140873   7.781   3.328   6.828
 9614SOL    HW240874   7.899   3.398   6.918
 9615SOL     OW40875   7.952   1.912   7.326
 9615SOL    HW140876   7.910   1.855   7.256
 9615SOL    HW240877   7.886   1.981   7.358
 9616SOL     OW40878   8.021   2.732   6.615
 9616SOL    HW140879   8.065   2.821   6.606
 9616SOL    HW240880   7.958   2.732   6.692
 9617SOL     OW40881   8.808   2.724   6.631
 9617SOL    HW140882   8.733   2.724   6.565
 9617SOL    HW240883   8.845   2.632   6.640
 9618SOL     OW40884   8.657   2.387   5.861
 9618SOL    HW140885   8.670   2.303   5.915
 9618SOL    HW240886   8.628   2.461   5.921
 9619SOL     OW40887   7.755   2.075   6.817
 9619SOL    HW140888   7.732   2.112   6.907
 9619SOL    HW240889   7.725   1.980   6.811
 9620SOL     OW40890   7.485   3.172   6.868
 9620SOL    HW140891   7.538   3.123   6.936
 9620SOL    HW240892   7.507   3.270   6.873
 9621SOL     OW40893   8.180   2.496   6.650
 9621SOL    HW140894   8.239   2.470   6.574
 9621SOL    HW240895   8.152   2.592   6.639
 9622SOL     OW40896   7.755   1.925   6.204
 9622SOL    HW140897   7.744   2.019   6.237
 9622SOL    HW240898   7.750   1.862   6.281
 9623SOL     OW40899   9.070   2.229   5.960
 9623SOL    HW140900   9.072   2.153   6.024
 9623SOL    HW240901   9.022   2.306   6.000
 9624SOL     OW40902   8.471   2.628   6.552
 9624SOL    HW140903   8.486   2.649   6.648
 9624SOL    HW240904   8.441   2.533   6.543
 9625SOL     OW40905   8.516   3.195   6.435
 9625SOL    HW140906   8.523   3.111   6.380
 9625SOL    HW240907   8.578   3.264   6.399
 9626SOL     OW40908   7.767   2.672   6.535
 9626SOL    HW140909   7.860   2.708   6.540
 9626SOL    HW240910   7.761   2.587   6.587
 9627SOL     OW40911   7.787   2.371   6.592
 9627SOL    HW140912   7.735   2.288   6.575
 9627SOL    HW240913   7.864   2.376   6.528
 9628SOL     OW40914   8.608   2.069   7.063
 9628SOL    HW140915   8.608   2.133   7.140
 9628SOL    HW240916   8.636   2.117   6.980
 9629SOL     OW40917   7.456   3.188   5.786
 9629SOL    HW140918   7.363   3.209   5.755
 9629SOL    HW240919   7.466   3.089   5.799
 9630SOL     OW40920   7.536   3.663   6.513
 9630SOL    HW140921   7.494   3.577   6.486
 9630SOL    HW240922   7.630   3.666   6.479
 9631SOL     OW40923   7.952   3.430   6.496
 9631SOL    HW140924   8.018   3.504   6.505
 9631SOL    HW240925   7.996   3.351   6.454
 9632SOL     OW40926   8.450   2.658   6.824
 9632SOL    HW140927   8.491   2.626   6.910
 9632SOL    HW240928   8.354   2.631   6.821
 9633SOL     OW40929   7.488   2.406   6.700
 9633SOL    HW140930   7.573   2.373   6.659
 9633SOL    HW240931   7.501   2.421   6.798
 9634SOL     OW40932   8.263   2.434   5.911
 9634SOL    HW140933   8.270   2.345   5.865
 9634SOL    HW240934   8.169   2.468   5.903
 9635SOL     OW40935   9.105   2.466   6.792
 9635SOL    HW140936   9.067   2.397   6.854
 9635SOL    HW240937   9.187   2.430   6.748
 9636SOL     OW40938   8.119   2.326   6.855
 9636SOL    HW140939   8.085   2.237   6.825
 9636SOL    HW240940   8.145   2.380   6.775
 9637SOL     OW40941   8.378   3.540   7.051
 9637SOL    HW140942   8.354   3.522   6.956
 9637SOL    HW240943   8.408   3.634   7.061
 9638SOL     OW40944   7.921   2.362   5.777
 9638SOL    HW140945   7.982   2.442   5.781
 9638SOL    HW240946   7.826   2.393   5.784
 9639SOL     OW40947   7.607   2.999   7.052
 9639SOL    HW140948   7.629   2.938   7.128
 9639SOL    HW240949   7.617   2.950   6.966
 9640SOL     OW40950   8.795   2.921   6.820
 9640SOL    HW140951   8.819   2.858   6.746
 9640SOL    HW240952   8.705   2.961   6.802
 9641SOL     OW40953   8.750   2.717   5.895
 9641SOL    HW140954   8.664   2.686   5.937
 9641SOL    HW240955   8.746   2.703   5.796
 9642SOL     OW40956   9.207   3.609   6.740
 9642SOL    HW140957   9.268   3.639   6.667
 9642SOL    HW240958   9.169   3.520   6.718
 9643SOL     OW40959   8.700   3.593   6.714
 9643SOL    HW140960   8.784   3.598   6.660
 9643SOL    HW240961   8.677   3.497   6.732
 9644SOL     OW40962   7.531   3.120   6.608
 9644SOL    HW140963   7.526   3.119   6.708
 9644SOL    HW240964   7.448   3.079   6.570
 9645SOL     OW40965   9.174   1.997   6.109
 9645SOL    HW140966   9.247   1.980   6.042
 9645SOL    HW240967   9.143   1.910   6.147
 9646SOL     OW40968   8.836   3.435   6.063
 9646SOL    HW140969   8.903   3.447   5.989
 9646SOL    HW240970   8.796   3.524   6.086
 9647SOL     OW40971   8.728   2.789   6.258
 9647SOL    HW140972   8.788   2.708   6.260
 9647SOL    HW240973   8.768   2.858   6.198
 9648SOL     OW40974   9.289   2.037   6.549
 9648SOL    HW140975   9.328   1.952   6.513
 9648SOL    HW240976   9.191   2.039   6.530
 9649SOL     OW40977   7.711   2.188   6.306
 9649SOL    HW140978   7.632   2.239   6.272
 9649SOL    HW240979   7.702   2.173   6.404
 9650SOL     OW40980   8.270   2.864   6.958
 9650SOL    HW140981   8.310   2.863   6.866
 9650SOL    HW240982   8.280   2.956   6.998
 9651SOL     OW40983   8.364   2.772   5.877
 9651SOL    HW140984   8.427   2.810   5.809
 9651SOL    HW240985   8.404   2.689   5.916
 9652SOL     OW40986   8.952   3.469   5.630
 9652SOL    HW140987   8.860   3.506   5.637
 9652SOL    HW240988   8.990   3.489   5.540
 9653SOL     OW40989   7.820   3.150   7.076
 9653SOL    HW140990   7.807   3.243   7.042
 9653SOL    HW240991   7.736   3.098   7.063
 9654SOL     OW40992   9.062   3.154   6.875
 9654SOL    HW140993   9.122   3.157   6.955
 9654SOL    HW240994   8.987   3.218   6.888
 9655SOL     OW40995   8.487   2.960   6.282
 9655SOL    HW140996   8.417   2.913   6.336
 9655SOL    HW240997   8.546   2.892   6.239
 9656SOL     OW40998   8.462   2.098   6.557
 9656SOL    HW140999   8.454   2.062   6.464
 9656SOL    HW241000   8.460   2.022   6.622
 9657SOL     OW41001   9.157   2.247   6.967
 9657SOL    HW141002   9.230   2.316   6.971
 9657SOL    HW241003   9.185   2.172   6.908
 9658SOL     OW41004   7.703   3.210   5.876
 9658SOL    HW141005   7.607   3.211   5.849
 9658SOL    HW241006   7.715   3.263   5.960
 9659SOL     OW41007   8.120   2.065   7.075
 9659SOL    HW141008   8.210   2.049   7.035
 9659SOL    HW241009   8.128   2.070   7.174
 9660SOL     OW41010   8.631   3.197   5.705
 9660SOL    HW141011   8.532   3.186   5.707
 9660SOL    HW241012   8.665   3.212   5.798
 9661SOL     OW41013   8.061   2.704   7.017
 9661SOL    HW141014   8.117   2.785   7.000
 9661SOL    HW241015   8.120   2.624   7.020
 9662SOL     OW41016   8.941   3.629   6.545
 9662SOL    HW141017   8.974   3.693   6.476
 9662SOL    HW241018   9.007   3.623   6.620
 9663SOL     OW41019   7.838   3.603   7.146
 9663SOL    HW141020   7.747   3.644   7.144
 9663SOL    HW241021   7.831   3.509   7.178
 9664SOL     OW41022   9.122   2.745   6.840
 9664SOL    HW141023   9.095   2.656   6.803
 9664SOL    HW241024   9.123   2.813   6.767
 9665SOL     OW41025   8.673   2.187   6.035
 9665SOL    HW141026   8.738   2.113   6.024
 9665SOL    HW241027   8.693   2.237   6.119
 9666SOL     OW41028   8.042   2.607   6.238
 9666SOL    HW141029   8.092   2.692   6.219
 9666SOL    HW241030   7.954   2.609   6.190
 9667SOL     OW41031   9.178   2.796   7.103
 9667SOL    HW141032   9.216   2.887   7.118
 9667SOL    HW241033   9.170   2.779   7.004
 9668SOL     OW41034   8.109   3.652   6.539
 9668SOL    HW141035   8.063   3.740   6.526
 9668SOL    HW241036   8.208   3.664   6.532
 9669SOL     OW41037   8.307   2.818   6.447
 9669SOL    HW141038   8.361   2.749   6.495
 9669SOL    HW241039   8.275   2.887   6.513
 9670SOL     OW41040   9.309   3.431   6.437
 9670SOL    HW141041   9.238   3.419   6.367
 9670SOL    HW241042   9.310   3.352   6.497
 9671SOL     OW41043   7.527   3.102   6.239
 9671SOL    HW141044   7.526   3.055   6.327
 9671SOL    HW241045   7.609   3.074   6.188
 9672SOL     OW41046   9.272   2.054   6.813
 9672SOL    HW141047   9.268   1.964   6.857
 9672SOL    HW241048   9.275   2.043   6.714
 9673SOL     OW41049   7.876   2.286   6.106
 9673SOL    HW141050   7.906   2.214   6.044
 9673SOL    HW241051   7.837   2.246   6.189
 9674SOL     OW41052   9.153   3.349   6.690
 9674SOL    HW141053   9.060   3.324   6.663
 9674SOL    HW241054   9.179   3.299   6.772
 9675SOL     OW41055   7.765   2.409   6.866
 9675SOL    HW141056   7.803   2.350   6.938
 9675SOL    HW241057   7.805   2.383   6.778
 9676SOL     OW41058   8.260   3.448   6.273
 9676SOL    HW141059   8.292   3.458   6.179
 9676SOL    HW241060   8.181   3.386   6.275
 9677SOL     OW41061   8.872   2.076   6.698
 9677SOL    HW141062   8.924   2.011   6.753
 9677SOL    HW241063   8.823   2.139   6.759
 9678SOL     OW41064   8.449   1.896   6.740
 9678SOL    HW141065   8.386   1.824   6.709
 9678SOL    HW241066   8.542   1.860   6.740
 9679SOL     OW41067   8.066   3.429   6.870
 9679SOL    HW141068   8.061   3.511   6.927
 9679SOL    HW241069   8.155   3.426   6.825
 9680SOL     OW41070   8.748   2.315   6.277
 9680SOL    HW141071   8.689   2.395   6.281
 9680SOL    HW241072   8.763   2.280   6.370
 9681SOL     OW41073   9.041   2.083   6.468
 9681SOL    HW141074   8.957   2.082   6.522
 9681SOL    HW241075   9.043   2.166   6.412
 9682SOL     OW41076   7.487   2.939   5.886
 9682SOL    HW141077   7.586   2.928   5.877
 9682SOL    HW241078   7.447   2.853   5.918
 9683SOL     OW41079   7.678   4.352   0.113
 9683SOL    HW141080   7.585   4.350   0.150
 9683SOL    HW241081   7.679   4.313   0.021
 9684SOL     OW41082   7.673   3.999   0.996
 9684SOL    HW141083   7.708   3.982   1.088
 9684SOL    HW241084   7.585   3.954   0.984
 9685SOL     OW41085   7.467   4.092   0.647
 9685SOL    HW141086   7.385   4.135   0.686
 9685SOL    HW241087   7.439   4.019   0.584
 9686SOL     OW41088   9.003   5.235   0.703
 9686SOL    HW141089   8.946   5.219   0.784
 9686SOL    HW241090   8.944   5.245   0.623
 9687SOL     OW41091   8.583   4.427   0.717
 9687SOL    HW141092   8.640   4.505   0.692
 9687SOL    HW241093   8.523   4.453   0.793
 9688SOL     OW41094   9.203   4.331   0.231
 9688SOL    HW141095   9.191   4.318   0.132
 9688SOL    HW241096   9.173   4.250   0.280
 9689SOL     OW41097   8.133   4.736   0.665
 9689SOL    HW141098   8.202   4.720   0.735
 9689SOL    HW241099   8.060   4.793   0.703
 9690SOL     OW41100   8.908   5.229   1.339
 9690SOL    HW141101   8.932   5.323   1.365
 9690SOL    HW241102   8.892   5.175   1.421
 9691SOL     OW41103   9.051   4.171   0.737
 9691SOL    HW141104   8.977   4.217   0.687
 9691SOL    HW241105   9.102   4.239   0.790
 9692SOL     OW41106   7.679   5.437   0.483
 9692SOL    HW141107   7.713   5.514   0.537
 9692SOL    HW241108   7.723   5.437   0.393
 9693SOL     OW41109   7.678   5.158   0.538
 9693SOL    HW141110   7.652   5.254   0.538
 9693SOL    HW241111   7.607   5.104   0.583
 9694SOL     OW41112   7.688   4.815   0.886
 9694SOL    HW141113   7.702   4.731   0.938
 9694SOL    HW241114   7.633   4.879   0.941
 9695SOL     OW41115   8.054   4.688   0.123
 9695SOL    HW141116   8.061   4.772   0.069
 9695SOL    HW241117   8.100   4.701   0.211
 9696SOL     OW41118   9.042   3.838   1.480
 9696SOL    HW141119   9.024   3.905   1.408
 9696SOL    HW241120   9.039   3.884   1.569
 9697SOL     OW41121   7.570   4.367   0.563
 9697SOL    HW141122   7.525   4.279   0.580
 9697SOL    HW241123   7.569   4.421   0.647
 9698SOL     OW41124   9.290   5.491   0.359
 9698SOL    HW141125   9.344   5.462   0.439
 9698SOL    HW241126   9.320   5.581   0.330
 9699SOL     OW41127   7.475   5.320   0.117
 9699SOL    HW141128   7.456   5.224   0.138
 9699SOL    HW241129   7.442   5.378   0.192
 9700SOL     OW41130   9.137   4.646   0.612
 9700SOL    HW141131   9.232   4.617   0.620
 9700SOL    HW241132   9.129   4.711   0.537
 9701SOL     OW41133   9.089   4.832   0.432
 9701SOL    HW141134   9.175   4.834   0.380
 9701SOL    HW241135   9.103   4.879   0.520
 9702SOL     OW41136   8.061   5.089   0.726
 9702SOL    HW141137   8.012   5.002   0.735
 9702SOL    HW241138   8.038   5.132   0.639
 9703SOL     OW41139   8.257   3.728   0.502
 9703SOL    HW141140   8.297   3.819   0.493
 9703SOL    HW241141   8.157   3.736   0.508
 9704SOL     OW41142   8.973   4.723   0.190
 9704SOL    HW141143   8.910   4.647   0.203
 9704SOL    HW241144   9.021   4.741   0.276
 9705SOL     OW41145   7.765   3.975   1.801
 9705SOL    HW141146   7.836   4.046   1.807
 9705SOL    HW241147   7.677   4.014   1.829
 9706SOL     OW41148   8.914   5.141   0.953
 9706SOL    HW141149   8.855   5.147   1.033
 9706SOL    HW241150   8.899   5.053   0.907
 9707SOL     OW41151   9.115   5.438   0.572
 9707SOL    HW141152   9.074   5.415   0.484
 9707SOL    HW241153   9.097   5.364   0.637
 9708SOL     OW41154   8.046   4.453   0.270
 9708SOL    HW141155   8.070   4.522   0.202
 9708SOL    HW241156   7.968   4.486   0.324
 9709SOL     OW41157   8.729   4.069   0.944
 9709SOL    HW141158   8.643   4.019   0.931
 9709SOL    HW241159   8.791   4.015   1.000
 9710SOL     OW41160   9.024   5.386   0.307
 9710SOL    HW141161   9.113   5.432   0.310
 9710SOL    HW241162   9.003   5.362   0.212
 9711SOL     OW41163   8.421   4.614   1.572
 9711SOL    HW141164   8.467   4.530   1.543
 9711SOL    HW241165   8.365   4.648   1.497
 9712SOL     OW41166   8.489   4.425   0.429
 9712SOL    HW141167   8.515   4.421   0.525
 9712SOL    HW241168   8.404   4.374   0.415
 9713SOL     OW41169   7.524   4.535   0.789
 9713SOL    HW141170   7.623   4.523   0.798
 9713SOL    HW241171   7.500   4.630   0.810
 9714SOL     OW41172   8.313   4.072   0.195
 9714SOL    HW141173   8.372   4.135   0.146
 9714SOL    HW241174   8.332   3.978   0.166
 9715SOL     OW41175   8.810   4.868   0.545
 9715SOL    HW141176   8.893   4.839   0.497
 9715SOL    HW241177   8.761   4.935   0.489
 9716SOL     OW41178   7.998   3.920   0.885
 9716SOL    HW141179   7.993   3.915   0.985
 9716SOL    HW241180   8.000   4.016   0.856
 9717SOL     OW41181   8.456   5.180   0.477
 9717SOL    HW141182   8.410   5.252   0.425
 9717SOL    HW241183   8.452   5.200   0.575
 9718SOL     OW41184   7.769   4.667   0.242
 9718SOL    HW141185   7.851   4.706   0.200
 9718SOL    HW241186   7.742   4.585   0.193
 9719SOL     OW41187   8.906   4.459   0.728
 9719SOL    HW141188   8.901   4.394   0.803
 9719SOL    HW241189   8.986   4.518   0.741
 9720SOL     OW41190   8.559   5.500   0.237
 9720SOL    HW141191   8.499   5.438   0.287
 9720SOL    HW241192   8.590   5.456   0.152
 9721SOL     OW41193   7.650   4.009   1.498
 9721SOL    HW141194   7.570   4.069   1.485
 9721SOL    HW241195   7.640   3.960   1.584
 9722SOL     OW41196   9.080   5.101   0.081
 9722SOL    HW141197   9.048   5.195   0.071
 9722SOL    HW241198   9.004   5.038   0.069
 9723SOL     OW41199   7.912   5.467   0.323
 9723SOL    HW141200   7.945   5.506   0.409
 9723SOL    HW241201   7.988   5.460   0.258
 9724SOL     OW41202   8.848   3.831   0.426
 9724SOL    HW141203   8.824   3.794   0.336
 9724SOL    HW241204   8.947   3.847   0.430
 9725SOL     OW41205   8.388   5.422   0.904
 9725SOL    HW141206   8.468   5.365   0.925
 9725SOL    HW241207   8.339   5.382   0.827
 9726SOL     OW41208   7.830   4.424   0.480
 9726SOL    HW141209   7.875   4.334   0.477
 9726SOL    HW241210   7.736   4.413   0.513
 9727SOL     OW41211   8.251   5.126   0.924
 9727SOL    HW141212   8.341   5.140   0.882
 9727SOL    HW241213   8.180   5.128   0.853
 9728SOL     OW41214   8.370   4.227   0.899
 9728SOL    HW141215   8.345   4.218   0.803
 9728SOL    HW241216   8.418   4.145   0.930
 9729SOL     OW41217   7.987   3.788   0.512
 9729SOL    HW141218   7.906   3.789   0.570
 9729SOL    HW241219   7.990   3.871   0.457
 9730SOL     OW41220   8.882   4.912   0.041
 9730SOL    HW141221   8.914   4.836   0.098
 9730SOL    HW241222   8.790   4.939   0.071
 9731SOL     OW41223   8.383   3.960   0.480
 9731SOL    HW141224   8.335   4.001   0.402
 9731SOL    HW241225   8.482   3.958   0.461
 9732SOL     OW41226   8.524   4.407   1.464
 9732SOL    HW141227   8.444   4.346   1.467
 9732SOL    HW241228   8.605   4.354   1.440
 9733SOL     OW41229   8.675   5.294   0.793
 9733SOL    HW141230   8.696   5.368   0.728
 9733SOL    HW241231   8.743   5.294   0.866
 9734SOL     OW41232   7.907   4.876   0.741
 9734SOL    HW141233   7.836   4.849   0.806
 9734SOL    HW241234   7.881   4.848   0.648
 9735SOL     OW41235   8.719   5.521   0.591
 9735SOL    HW141236   8.763   5.585   0.527
 9735SOL    HW241237   8.669   5.573   0.661
 9736SOL     OW41238   8.480   4.273   0.016
 9736SOL    HW141239   8.439   4.355  -0.023
 9736SOL    HW241240   8.544   4.299   0.089
 9737SOL     OW41241   7.526   4.280   1.386
 9737SOL    HW141242   7.618   4.279   1.345
 9737SOL    HW241243   7.520   4.354   1.453
 9738SOL     OW41244   8.009   3.946   1.147
 9738SOL    HW141245   8.047   3.862   1.184
 9738SOL    HW241246   7.921   3.965   1.191
 9739SOL     OW41247   8.314   4.178   0.642
 9739SOL    HW141248   8.282   4.250   0.580
 9739SOL    HW241249   8.338   4.097   0.589
 9740SOL     OW41250   8.465   3.763   0.753
 9740SOL    HW141251   8.393   3.768   0.684
 9740SOL    HW241252   8.441   3.694   0.822
 9741SOL     OW41253   8.877   4.897   0.867
 9741SOL    HW141254   8.822   4.813   0.860
 9741SOL    HW241255   8.903   4.926   0.775
 9742SOL     OW41256   8.914   4.314   0.992
 9742SOL    HW141257   8.884   4.219   0.999
 9742SOL    HW241258   8.987   4.330   1.058
 9743SOL     OW41259   9.305   4.557   0.377
 9743SOL    HW141260   9.347   4.493   0.441
 9743SOL    HW241261   9.267   4.506   0.299
 9744SOL     OW41262   7.936   5.109   0.174
 9744SOL    HW141263   7.849   5.094   0.221
 9744SOL    HW241264   7.919   5.135   0.079
 9745SOL     OW41265   9.112   5.004   0.657
 9745SOL    HW141266   9.211   5.012   0.671
 9745SOL    HW241267   9.067   5.088   0.688
 9746SOL     OW41268   8.838   4.299   0.078
 9746SOL    HW141269   8.784   4.278   0.159
 9746SOL    HW241270   8.929   4.258   0.087
 9747SOL     OW41271   7.975   3.980   0.328
 9747SOL    HW141272   8.002   3.921   0.253
 9747SOL    HW241273   7.975   4.075   0.297
 9748SOL     OW41274   9.040   5.353   1.625
 9748SOL    HW141275   9.067   5.387   1.535
 9748SOL    HW241276   9.119   5.315   1.671
 9749SOL     OW41277   8.363   3.813   1.402
 9749SOL    HW141278   8.388   3.793   1.307
 9749SOL    HW241279   8.435   3.869   1.444
 9750SOL     OW41280   8.153   4.774   0.368
 9750SOL    HW141281   8.139   4.781   0.467
 9750SOL    HW241282   8.237   4.723   0.350
 9751SOL     OW41283   7.512   5.288   1.331
 9751SOL    HW141284   7.466   5.370   1.297
 9751SOL    HW241285   7.610   5.307   1.340
 9752SOL     OW41286   7.815   4.824   0.501
 9752SOL    HW141287   7.808   4.907   0.445
 9752SOL    HW241288   7.819   4.744   0.441
 9753SOL     OW41289   8.014   4.261   0.865
 9753SOL    HW141290   8.026   4.327   0.791
 9753SOL    HW241291   8.060   4.295   0.948
 9754SOL     OW41292   8.700   5.072   0.388
 9754SOL    HW141293   8.750   5.149   0.428
 9754SOL    HW241294   8.605   5.074   0.420
 9755SOL     OW41295   9.030   4.363   0.472
 9755SOL    HW141296   8.999   4.424   0.545
 9755SOL    HW241297   9.080   4.415   0.403
 9756SOL     OW41298   7.952   3.774   1.740
 9756SOL    HW141299   7.910   3.717   1.670
 9756SOL    HW241300   7.886   3.843   1.772
 9757SOL     OW41301   8.808   4.586   1.045
 9757SOL    HW141302   8.733   4.586   0.979
 9757SOL    HW241303   8.845   4.494   1.054
 9758SOL     OW41304   8.657   4.249   0.275
 9758SOL    HW141305   8.670   4.165   0.329
 9758SOL    HW241306   8.628   4.323   0.335
 9759SOL     OW41307   7.755   3.937   1.231
 9759SOL    HW141308   7.732   3.974   1.321
 9759SOL    HW241309   7.725   3.842   1.225
 9760SOL     OW41310   7.485   5.034   1.282
 9760SOL    HW141311   7.538   4.985   1.350
 9760SOL    HW241312   7.507   5.132   1.287
 9761SOL     OW41313   8.180   4.358   1.064
 9761SOL    HW141314   8.239   4.332   0.988
 9761SOL    HW241315   8.152   4.454   1.053
 9762SOL     OW41316   7.755   3.787   0.618
 9762SOL    HW141317   7.744   3.881   0.651
 9762SOL    HW241318   7.750   3.724   0.695
 9763SOL     OW41319   9.070   4.091   0.374
 9763SOL    HW141320   9.072   4.015   0.438
 9763SOL    HW241321   9.022   4.168   0.414
 9764SOL     OW41322   8.471   4.490   0.966
 9764SOL    HW141323   8.486   4.511   1.062
 9764SOL    HW241324   8.441   4.395   0.957
 9765SOL     OW41325   8.988   3.998   0.125
 9765SOL    HW141326   8.927   3.923   0.148
 9765SOL    HW241327   9.010   4.050   0.208
 9766SOL     OW41328   8.751   4.562   0.042
 9766SOL    HW141329   8.785   4.469   0.057
 9766SOL    HW241330   8.769   4.589  -0.053
 9767SOL     OW41331   8.516   5.057   0.849
 9767SOL    HW141332   8.523   4.973   0.794
 9767SOL    HW241333   8.578   5.126   0.813
 9768SOL     OW41334   7.787   4.233   1.006
 9768SOL    HW141335   7.735   4.150   0.989
 9768SOL    HW241336   7.864   4.238   0.942
 9769SOL     OW41337   7.456   5.050   0.200
 9769SOL    HW141338   7.363   5.071   0.169
 9769SOL    HW241339   7.466   4.951   0.213
 9770SOL     OW41340   7.536   5.525   0.927
 9770SOL    HW141341   7.494   5.439   0.900
 9770SOL    HW241342   7.630   5.528   0.893
 9771SOL     OW41343   7.952   5.292   0.910
 9771SOL    HW141344   8.018   5.366   0.919
 9771SOL    HW241345   7.996   5.213   0.868
 9772SOL     OW41346   8.450   4.520   1.238
 9772SOL    HW141347   8.491   4.488   1.324
 9772SOL    HW241348   8.354   4.493   1.235
 9773SOL     OW41349   7.637   4.244   1.722
 9773SOL    HW141350   7.696   4.204   1.652
 9773SOL    HW241351   7.579   4.315   1.681
 9774SOL     OW41352   8.817   4.674   1.660
 9774SOL    HW141353   8.856   4.763   1.680
 9774SOL    HW241354   8.827   4.654   1.563
 9775SOL     OW41355   8.263   4.296   0.325
 9775SOL    HW141356   8.270   4.207   0.279
 9775SOL    HW241357   8.169   4.330   0.317
 9776SOL     OW41358   9.105   4.328   1.206
 9776SOL    HW141359   9.067   4.259   1.268
 9776SOL    HW241360   9.187   4.292   1.162
 9777SOL     OW41361   8.119   4.188   1.269
 9777SOL    HW141362   8.085   4.099   1.239
 9777SOL    HW241363   8.145   4.242   1.189
 9778SOL     OW41364   7.921   4.224   0.191
 9778SOL    HW141365   7.982   4.304   0.195
 9778SOL    HW241366   7.826   4.255   0.198
 9779SOL     OW41367   7.607   4.861   1.466
 9779SOL    HW141368   7.629   4.800   1.542
 9779SOL    HW241369   7.617   4.812   1.380
 9780SOL     OW41370   8.795   4.783   1.234
 9780SOL    HW141371   8.819   4.720   1.160
 9780SOL    HW241372   8.705   4.823   1.216
 9781SOL     OW41373   8.750   4.579   0.309
 9781SOL    HW141374   8.664   4.548   0.351
 9781SOL    HW241375   8.746   4.565   0.210
 9782SOL     OW41376   9.207   5.471   1.154
 9782SOL    HW141377   9.268   5.501   1.081
 9782SOL    HW241378   9.169   5.382   1.132
 9783SOL     OW41379   8.700   5.455   1.128
 9783SOL    HW141380   8.784   5.460   1.074
 9783SOL    HW241381   8.677   5.359   1.146
 9784SOL     OW41382   7.531   4.982   1.022
 9784SOL    HW141383   7.526   4.981   1.122
 9784SOL    HW241384   7.448   4.941   0.984
 9785SOL     OW41385   8.351   3.810   0.133
 9785SOL    HW141386   8.402   3.811   0.047
 9785SOL    HW241387   8.407   3.768   0.204
 9786SOL     OW41388   9.174   3.859   0.523
 9786SOL    HW141389   9.247   3.842   0.456
 9786SOL    HW241390   9.143   3.772   0.561
 9787SOL     OW41391   8.836   5.297   0.477
 9787SOL    HW141392   8.903   5.309   0.403
 9787SOL    HW241393   8.796   5.386   0.500
 9788SOL     OW41394   8.728   4.651   0.672
 9788SOL    HW141395   8.788   4.570   0.674
 9788SOL    HW241396   8.768   4.720   0.612
 9789SOL     OW41397   8.278   4.997   1.422
 9789SOL    HW141398   8.273   5.030   1.517
 9789SOL    HW241399   8.192   5.016   1.376
 9790SOL     OW41400   8.120   5.340   0.154
 9790SOL    HW141401   8.129   5.350   0.055
 9790SOL    HW241402   8.080   5.251   0.175
 9791SOL     OW41403   9.289   3.899   0.963
 9791SOL    HW141404   9.328   3.814   0.927
 9791SOL    HW241405   9.191   3.901   0.944
 9792SOL     OW41406   7.711   4.050   0.720
 9792SOL    HW141407   7.632   4.101   0.686
 9792SOL    HW241408   7.702   4.035   0.818
 9793SOL     OW41409   8.642   5.336   0.031
 9793SOL    HW141410   8.648   5.243   0.068
 9793SOL    HW241411   8.583   5.336  -0.049
 9794SOL     OW41412   8.364   4.634   0.291
 9794SOL    HW141413   8.427   4.672   0.223
 9794SOL    HW241414   8.404   4.551   0.330
 9795SOL     OW41415   8.952   5.331   0.044
 9795SOL    HW141416   8.860   5.368   0.051
 9795SOL    HW241417   8.990   5.351  -0.046
 9796SOL     OW41418   8.487   4.822   0.696
 9796SOL    HW141419   8.417   4.775   0.750
 9796SOL    HW241420   8.546   4.754   0.653
 9797SOL     OW41421   8.462   3.960   0.971
 9797SOL    HW141422   8.454   3.924   0.878
 9797SOL    HW241423   8.460   3.884   1.036
 9798SOL     OW41424   8.038   5.211   0.491
 9798SOL    HW141425   8.080   5.153   0.421
 9798SOL    HW241426   7.994   5.290   0.447
 9799SOL     OW41427   9.157   4.109   1.381
 9799SOL    HW141428   9.230   4.178   1.385
 9799SOL    HW241429   9.185   4.034   1.322
 9800SOL     OW41430   7.703   5.072   0.290
 9800SOL    HW141431   7.607   5.073   0.263
 9800SOL    HW241432   7.715   5.125   0.374
 9801SOL     OW41433   7.553   4.737   1.726
 9801SOL    HW141434   7.476   4.704   1.780
 9801SOL    HW241435   7.638   4.707   1.768
 9802SOL     OW41436   8.120   3.927   1.489
 9802SOL    HW141437   8.210   3.911   1.449
 9802SOL    HW241438   8.128   3.932   1.588
 9803SOL     OW41439   7.523   4.069   0.033
 9803SOL    HW141440   7.431   4.041   0.004
 9803SOL    HW241441   7.554   4.146  -0.023
 9804SOL     OW41442   8.888   4.580   1.398
 9804SOL    HW141443   8.831   4.632   1.335
 9804SOL    HW241444   8.984   4.592   1.374
 9805SOL     OW41445   7.520   3.890   0.318
 9805SOL    HW141446   7.503   3.973   0.264
 9805SOL    HW241447   7.610   3.853   0.296
 9806SOL     OW41448   8.631   5.059   0.119
 9806SOL    HW141449   8.532   5.048   0.121
 9806SOL    HW241450   8.665   5.074   0.212
 9807SOL     OW41451   8.061   4.566   1.431
 9807SOL    HW141452   8.117   4.647   1.414
 9807SOL    HW241453   8.120   4.486   1.434
 9808SOL     OW41454   8.941   5.491   0.959
 9808SOL    HW141455   8.974   5.555   0.890
 9808SOL    HW241456   9.007   5.485   1.034
 9809SOL     OW41457   8.673   4.049   0.449
 9809SOL    HW141458   8.738   3.975   0.438
 9809SOL    HW241459   8.693   4.099   0.533
 9810SOL     OW41460   8.042   4.469   0.652
 9810SOL    HW141461   8.092   4.554   0.633
 9810SOL    HW241462   7.954   4.471   0.604
 9811SOL     OW41463   9.178   4.658   1.517
 9811SOL    HW141464   9.216   4.749   1.532
 9811SOL    HW241465   9.170   4.641   1.418
 9812SOL     OW41466   8.307   5.098   0.016
 9812SOL    HW141467   8.261   5.113   0.104
 9812SOL    HW241468   8.351   5.183  -0.014
 9813SOL     OW41469   8.531   4.708   0.087
 9813SOL    HW141470   8.508   4.761   0.005
 9813SOL    HW241471   8.612   4.652   0.068
 9814SOL     OW41472   9.309   5.293   0.851
 9814SOL    HW141473   9.238   5.281   0.781
 9814SOL    HW241474   9.310   5.214   0.911
 9815SOL     OW41475   7.527   4.964   0.653
 9815SOL    HW141476   7.526   4.917   0.741
 9815SOL    HW241477   7.609   4.936   0.602
 9816SOL     OW41478   9.272   3.916   1.227
 9816SOL    HW141479   9.268   3.826   1.271
 9816SOL    HW241480   9.275   3.905   1.128
 9817SOL     OW41481   7.876   4.148   0.520
 9817SOL    HW141482   7.906   4.076   0.458
 9817SOL    HW241483   7.837   4.108   0.603
 9818SOL     OW41484   9.153   5.211   1.104
 9818SOL    HW141485   9.060   5.186   1.077
 9818SOL    HW241486   9.179   5.161   1.186
 9819SOL     OW41487   8.260   5.310   0.687
 9819SOL    HW141488   8.292   5.320   0.593
 9819SOL    HW241489   8.181   5.248   0.689
 9820SOL     OW41490   8.872   3.938   1.112
 9820SOL    HW141491   8.924   3.873   1.167
 9820SOL    HW241492   8.823   4.001   1.173
 9821SOL     OW41493   8.449   3.758   1.154
 9821SOL    HW141494   8.386   3.686   1.123
 9821SOL    HW241495   8.542   3.722   1.154
 9822SOL     OW41496   8.218   5.054   0.301
 9822SOL    HW141497   8.172   4.967   0.318
 9822SOL    HW241498   8.309   5.051   0.342
 9823SOL     OW41499   8.800   3.776   0.168
 9823SOL    HW141500   8.835   3.735   0.084
 9823SOL    HW241501   8.710   3.738   0.188
 9824SOL     OW41502   8.748   4.177   0.691
 9824SOL    HW141503   8.689   4.257   0.695
 9824SOL    HW241504   8.763   4.142   0.784
 9825SOL     OW41505   9.041   3.945   0.882
 9825SOL    HW141506   8.957   3.944   0.936
 9825SOL    HW241507   9.043   4.028   0.826
 9826SOL     OW41508   7.487   4.801   0.300
 9826SOL    HW141509   7.586   4.790   0.291
 9826SOL    HW241510   7.447   4.715   0.332
 9827SOL     OW41511   8.323   5.370   0.337
 9827SOL    HW141512   8.246   5.335   0.283
 9827SOL    HW241513   8.291   5.441   0.399
 9828SOL     OW41514   7.467   4.092   2.509
 9828SOL    HW141515   7.385   4.135   2.548
 9828SOL    HW241516   7.439   4.019   2.446
 9829SOL     OW41517   9.003   5.235   2.565
 9829SOL    HW141518   8.946   5.219   2.646
 9829SOL    HW241519   8.944   5.245   2.485
 9830SOL     OW41520   8.134   4.885   3.665
 9830SOL    HW141521   8.194   4.964   3.679
 9830SOL    HW241522   8.048   4.916   3.624
 9831SOL     OW41523   8.908   5.229   3.201
 9831SOL    HW141524   8.932   5.323   3.227
 9831SOL    HW241525   8.892   5.175   3.283
 9832SOL     OW41526   9.051   4.171   2.599
 9832SOL    HW141527   8.977   4.217   2.549
 9832SOL    HW241528   9.102   4.239   2.652
 9833SOL     OW41529   7.679   5.437   2.345
 9833SOL    HW141530   7.713   5.514   2.399
 9833SOL    HW241531   7.723   5.437   2.255
 9834SOL     OW41532   8.575   5.065   3.552
 9834SOL    HW141533   8.622   5.065   3.640
 9834SOL    HW241534   8.527   4.978   3.541
 9835SOL     OW41535   8.068   5.510   3.301
 9835SOL    HW141536   7.976   5.493   3.336
 9835SOL    HW241537   8.096   5.602   3.327
 9836SOL     OW41538   7.561   4.461   3.459
 9836SOL    HW141539   7.649   4.448   3.504
 9836SOL    HW241540   7.548   4.558   3.437
 9837SOL     OW41541   8.741   4.952   3.285
 9837SOL    HW141542   8.778   4.879   3.227
 9837SOL    HW241543   8.793   4.957   3.370
 9838SOL     OW41544   8.914   5.141   2.815
 9838SOL    HW141545   8.855   5.147   2.895
 9838SOL    HW241546   8.899   5.053   2.769
 9839SOL     OW41547   9.115   5.438   2.434
 9839SOL    HW141548   9.074   5.415   2.346
 9839SOL    HW241549   9.097   5.364   2.499
 9840SOL     OW41550   8.421   4.614   3.434
 9840SOL    HW141551   8.467   4.530   3.405
 9840SOL    HW241552   8.365   4.648   3.359
 9841SOL     OW41553   7.524   4.535   2.651
 9841SOL    HW141554   7.623   4.523   2.660
 9841SOL    HW241555   7.500   4.630   2.672
 9842SOL     OW41556   8.313   4.072   2.057
 9842SOL    HW141557   8.372   4.135   2.008
 9842SOL    HW241558   8.332   3.978   2.028
 9843SOL     OW41559   7.650   4.009   3.360
 9843SOL    HW141560   7.570   4.069   3.347
 9843SOL    HW241561   7.640   3.960   3.446
 9844SOL     OW41562   8.848   3.831   2.288
 9844SOL    HW141563   8.824   3.794   2.198
 9844SOL    HW241564   8.947   3.847   2.292
 9845SOL     OW41565   8.336   5.238   3.057
 9845SOL    HW141566   8.313   5.213   2.963
 9845SOL    HW241567   8.397   5.169   3.096
 9846SOL     OW41568   8.799   4.314   3.295
 9846SOL    HW141569   8.827   4.271   3.380
 9846SOL    HW241570   8.824   4.410   3.296
 9847SOL     OW41571   7.987   3.788   2.374
 9847SOL    HW141572   7.906   3.789   2.432
 9847SOL    HW241573   7.990   3.871   2.319
 9848SOL     OW41574   7.745   3.759   2.033
 9848SOL    HW141575   7.794   3.843   2.012
 9848SOL    HW241576   7.807   3.694   2.078
 9849SOL     OW41577   8.524   4.407   3.326
 9849SOL    HW141578   8.444   4.346   3.329
 9849SOL    HW241579   8.605   4.354   3.302
 9850SOL     OW41580   8.675   5.294   2.655
 9850SOL    HW141581   8.696   5.368   2.590
 9850SOL    HW241582   8.743   5.294   2.728
 9851SOL     OW41583   7.907   4.876   2.603
 9851SOL    HW141584   7.836   4.849   2.668
 9851SOL    HW241585   7.881   4.848   2.510
 9852SOL     OW41586   8.480   4.273   1.878
 9852SOL    HW141587   8.439   4.355   1.839
 9852SOL    HW241588   8.544   4.299   1.951
 9853SOL     OW41589   7.936   5.109   2.036
 9853SOL    HW141590   7.849   5.094   2.083
 9853SOL    HW241591   7.919   5.135   1.941
 9854SOL     OW41592   8.838   4.299   1.940
 9854SOL    HW141593   8.784   4.278   2.021
 9854SOL    HW241594   8.929   4.258   1.949
 9855SOL     OW41595   7.975   3.980   2.190
 9855SOL    HW141596   8.002   3.921   2.115
 9855SOL    HW241597   7.975   4.075   2.159
 9856SOL     OW41598   9.202   4.947   3.450
 9856SOL    HW141599   9.293   4.908   3.437
 9856SOL    HW241600   9.210   5.043   3.474
 9857SOL     OW41601   8.559   4.919   2.962
 9857SOL    HW141602   8.519   4.963   3.043
 9857SOL    HW241603   8.518   4.956   2.879
 9858SOL     OW41604   8.428   4.840   3.581
 9858SOL    HW141605   8.329   4.846   3.591
 9858SOL    HW241606   8.451   4.760   3.525
 9859SOL     OW41607   8.014   4.261   2.727
 9859SOL    HW141608   8.026   4.327   2.653
 9859SOL    HW241609   8.060   4.295   2.810
 9860SOL     OW41610   8.700   5.072   2.250
 9860SOL    HW141611   8.750   5.149   2.290
 9860SOL    HW241612   8.605   5.074   2.282
 9861SOL     OW41613   7.802   5.234   3.191
 9861SOL    HW141614   7.781   5.190   3.104
 9861SOL    HW241615   7.899   5.260   3.194
 9862SOL     OW41616   7.850   4.475   3.460
 9862SOL    HW141617   7.918   4.530   3.413
 9862SOL    HW241618   7.890   4.387   3.487
 9863SOL     OW41619   8.461   3.829   3.632
 9863SOL    HW141620   8.467   3.914   3.580
 9863SOL    HW241621   8.493   3.753   3.575
 9864SOL     OW41622   7.952   3.774   3.602
 9864SOL    HW141623   7.910   3.717   3.532
 9864SOL    HW241624   7.886   3.843   3.634
 9865SOL     OW41625   8.428   5.297   3.562
 9865SOL    HW141626   8.408   5.341   3.474
 9865SOL    HW241627   8.467   5.206   3.546
 9866SOL     OW41628   9.307   5.242   3.467
 9866SOL    HW141629   9.321   5.269   3.372
 9866SOL    HW241630   9.390   5.264   3.520
 9867SOL     OW41631   8.751   4.562   1.904
 9867SOL    HW141632   8.785   4.469   1.919
 9867SOL    HW241633   8.769   4.589   1.809
 9868SOL     OW41634   7.787   4.233   2.868
 9868SOL    HW141635   7.735   4.150   2.851
 9868SOL    HW241636   7.864   4.238   2.804
 9869SOL     OW41637   7.637   4.244   3.584
 9869SOL    HW141638   7.696   4.204   3.514
 9869SOL    HW241639   7.579   4.315   3.543
 9870SOL     OW41640   7.700   5.288   3.606
 9870SOL    HW141641   7.670   5.345   3.682
 9870SOL    HW241642   7.693   5.191   3.632
 9871SOL     OW41643   8.795   4.783   3.096
 9871SOL    HW141644   8.819   4.720   3.022
 9871SOL    HW241645   8.705   4.823   3.078
 9872SOL     OW41646   8.700   5.455   2.990
 9872SOL    HW141647   8.784   5.460   2.936
 9872SOL    HW241648   8.677   5.359   3.008
 9873SOL     OW41649   8.120   5.340   2.016
 9873SOL    HW141650   8.129   5.350   1.917
 9873SOL    HW241651   8.080   5.251   2.037
 9874SOL     OW41652   9.098   5.444   3.256
 9874SOL    HW141653   9.151   5.454   3.172
 9874SOL    HW241654   9.071   5.534   3.290
 9875SOL     OW41655   8.270   4.726   3.234
 9875SOL    HW141656   8.310   4.725   3.142
 9875SOL    HW241657   8.280   4.818   3.274
 9876SOL     OW41658   8.364   4.634   2.153
 9876SOL    HW141659   8.427   4.672   2.085
 9876SOL    HW241660   8.404   4.551   2.192
 9877SOL     OW41661   8.462   3.960   2.833
 9877SOL    HW141662   8.454   3.924   2.740
 9877SOL    HW241663   8.460   3.884   2.898
 9878SOL     OW41664   9.157   4.109   3.243
 9878SOL    HW141665   9.230   4.178   3.247
 9878SOL    HW241666   9.185   4.034   3.184
 9879SOL     OW41667   7.703   5.072   2.152
 9879SOL    HW141668   7.607   5.073   2.125
 9879SOL    HW241669   7.715   5.125   2.236
 9880SOL     OW41670   7.553   4.737   3.588
 9880SOL    HW141671   7.476   4.704   3.642
 9880SOL    HW241672   7.638   4.707   3.630
 9881SOL     OW41673   8.120   3.927   3.351
 9881SOL    HW141674   8.210   3.911   3.311
 9881SOL    HW241675   8.128   3.932   3.450
 9882SOL     OW41676   7.523   4.069   1.895
 9882SOL    HW141677   7.431   4.041   1.866
 9882SOL    HW241678   7.554   4.146   1.839
 9883SOL     OW41679   8.888   4.580   3.260
 9883SOL    HW141680   8.831   4.632   3.197
 9883SOL    HW241681   8.984   4.592   3.236
 9884SOL     OW41682   7.520   3.890   2.180
 9884SOL    HW141683   7.503   3.973   2.126
 9884SOL    HW241684   7.610   3.853   2.158
 9885SOL     OW41685   8.061   4.566   3.293
 9885SOL    HW141686   8.117   4.647   3.276
 9885SOL    HW241687   8.120   4.486   3.296
 9886SOL     OW41688   8.164   4.289   3.570
 9886SOL    HW141689   8.183   4.354   3.644
 9886SOL    HW241690   8.224   4.209   3.579
 9887SOL     OW41691   7.669   5.038   3.706
 9887SOL    HW141692   7.604   4.965   3.685
 9887SOL    HW241693   7.673   5.052   3.804
 9888SOL     OW41694   8.120   5.115   3.486
 9888SOL    HW141695   8.042   5.065   3.524
 9888SOL    HW241696   8.117   5.210   3.517
 9889SOL     OW41697   7.876   4.148   2.382
 9889SOL    HW141698   7.906   4.076   2.320
 9889SOL    HW241699   7.837   4.108   2.465
 9890SOL     OW41700   9.153   5.211   2.966
 9890SOL    HW141701   9.060   5.186   2.939
 9890SOL    HW241702   9.179   5.161   3.048
 9891SOL     OW41703   8.066   5.291   3.146
 9891SOL    HW141704   8.061   5.373   3.203
 9891SOL    HW241705   8.155   5.288   3.101
 9892SOL     OW41706   9.041   3.945   2.744
 9892SOL    HW141707   8.957   3.944   2.798
 9892SOL    HW241708   9.043   4.028   2.688
 9893SOL     OW41709   7.487   4.801   2.162
 9893SOL    HW141710   7.586   4.790   2.153
 9893SOL    HW241711   7.447   4.715   2.194
 9894SOL     OW41712   7.678   4.352   3.837
 9894SOL    HW141713   7.585   4.350   3.874
 9894SOL    HW241714   7.679   4.313   3.745
 9895SOL     OW41715   9.203   4.331   3.955
 9895SOL    HW141716   9.191   4.318   3.856
 9895SOL    HW241717   9.173   4.250   4.004
 9896SOL     OW41718   8.298   4.522   5.547
 9896SOL    HW141719   8.294   4.598   5.612
 9896SOL    HW241720   8.320   4.558   5.456
 9897SOL     OW41721   8.134   4.885   5.527
 9897SOL    HW141722   8.194   4.964   5.541
 9897SOL    HW241723   8.048   4.916   5.486
 9898SOL     OW41724   7.886   4.116   5.223
 9898SOL    HW141725   7.968   4.060   5.232
 9898SOL    HW241726   7.805   4.058   5.227
 9899SOL     OW41727   8.575   5.065   5.414
 9899SOL    HW141728   8.622   5.065   5.502
 9899SOL    HW241729   8.527   4.978   5.403
 9900SOL     OW41730   7.678   5.158   4.262
 9900SOL    HW141731   7.652   5.254   4.262
 9900SOL    HW241732   7.607   5.104   4.307
 9901SOL     OW41733   9.290   5.491   4.083
 9901SOL    HW141734   9.344   5.462   4.163
 9901SOL    HW241735   9.320   5.581   4.054
 9902SOL     OW41736   9.089   4.832   4.156
 9902SOL    HW141737   9.175   4.834   4.104
 9902SOL    HW241738   9.103   4.879   4.244
 9903SOL     OW41739   7.561   4.461   5.321
 9903SOL    HW141740   7.649   4.448   5.366
 9903SOL    HW241741   7.548   4.558   5.299
 9904SOL     OW41742   8.741   4.952   5.147
 9904SOL    HW141743   8.778   4.879   5.089
 9904SOL    HW241744   8.793   4.957   5.232
 9905SOL     OW41745   8.914   5.141   4.677
 9905SOL    HW141746   8.855   5.147   4.757
 9905SOL    HW241747   8.899   5.053   4.631
 9906SOL     OW41748   8.046   4.453   3.994
 9906SOL    HW141749   8.070   4.522   3.926
 9906SOL    HW241750   7.968   4.486   4.048
 9907SOL     OW41751   9.024   5.386   4.031
 9907SOL    HW141752   9.113   5.432   4.034
 9907SOL    HW241753   9.003   5.362   3.936
 9908SOL     OW41754   7.524   4.535   4.513
 9908SOL    HW141755   7.623   4.523   4.522
 9908SOL    HW241756   7.500   4.630   4.534
 9909SOL     OW41757   7.578   5.545   5.295
 9909SOL    HW141758   7.568   5.530   5.394
 9909SOL    HW241759   7.492   5.581   5.259
 9910SOL     OW41760   8.313   4.072   3.919
 9910SOL    HW141761   8.372   4.135   3.870
 9910SOL    HW241762   8.332   3.978   3.890
 9911SOL     OW41763   8.810   4.868   4.269
 9911SOL    HW141764   8.893   4.839   4.221
 9911SOL    HW241765   8.761   4.935   4.213
 9912SOL     OW41766   8.675   5.274   5.230
 9912SOL    HW141767   8.681   5.197   5.294
 9912SOL    HW241768   8.623   5.248   5.150
 9913SOL     OW41769   7.909   4.990   5.451
 9913SOL    HW141770   7.859   4.991   5.365
 9913SOL    HW241771   7.846   4.972   5.527
 9914SOL     OW41772   7.912   5.467   4.047
 9914SOL    HW141773   7.945   5.506   4.133
 9914SOL    HW241774   7.988   5.460   3.982
 9915SOL     OW41775   8.848   3.831   4.150
 9915SOL    HW141776   8.824   3.794   4.060
 9915SOL    HW241777   8.947   3.847   4.154
 9916SOL     OW41778   7.697   5.509   4.965
 9916SOL    HW141779   7.754   5.444   5.015
 9916SOL    HW241780   7.681   5.476   4.872
 9917SOL     OW41781   8.229   3.988   5.473
 9917SOL    HW141782   8.296   3.927   5.516
 9917SOL    HW241783   8.156   4.007   5.538
 9918SOL     OW41784   8.799   4.314   5.157
 9918SOL    HW141785   8.827   4.271   5.242
 9918SOL    HW241786   8.824   4.410   5.158
 9919SOL     OW41787   8.465   3.763   4.477
 9919SOL    HW141788   8.393   3.768   4.408
 9919SOL    HW241789   8.441   3.694   4.546
 9920SOL     OW41790   8.877   4.897   4.591
 9920SOL    HW141791   8.822   4.813   4.584
 9920SOL    HW241792   8.903   4.926   4.499
 9921SOL     OW41793   9.202   4.947   5.312
 9921SOL    HW141794   9.293   4.908   5.299
 9921SOL    HW241795   9.210   5.043   5.336
 9922SOL     OW41796   8.363   3.813   5.126
 9922SOL    HW141797   8.388   3.793   5.031
 9922SOL    HW241798   8.435   3.869   5.168
 9923SOL     OW41799   8.428   4.840   5.443
 9923SOL    HW141800   8.329   4.846   5.453
 9923SOL    HW241801   8.451   4.760   5.387
 9924SOL     OW41802   7.858   4.537   4.975
 9924SOL    HW141803   7.944   4.549   5.025
 9924SOL    HW241804   7.816   4.450   5.002
 9925SOL     OW41805   7.512   5.288   5.055
 9925SOL    HW141806   7.466   5.370   5.021
 9925SOL    HW241807   7.610   5.307   5.064
 9926SOL     OW41808   7.850   4.475   5.322
 9926SOL    HW141809   7.918   4.530   5.275
 9926SOL    HW241810   7.890   4.387   5.349
 9927SOL     OW41811   8.021   4.594   4.753
 9927SOL    HW141812   8.065   4.683   4.744
 9927SOL    HW241813   7.958   4.594   4.830
 9928SOL     OW41814   8.657   4.249   3.999
 9928SOL    HW141815   8.670   4.165   4.053
 9928SOL    HW241816   8.628   4.323   4.059
 9929SOL     OW41817   7.485   5.034   5.006
 9929SOL    HW141818   7.538   4.985   5.074
 9929SOL    HW241819   7.507   5.132   5.011
 9930SOL     OW41820   9.176   4.659   5.578
 9930SOL    HW141821   9.130   4.652   5.489
 9930SOL    HW241822   9.114   4.703   5.644
 9931SOL     OW41823   7.755   3.787   4.342
 9931SOL    HW141824   7.744   3.881   4.375
 9931SOL    HW241825   7.750   3.724   4.419
 9932SOL     OW41826   8.428   5.297   5.424
 9932SOL    HW141827   8.408   5.341   5.336
 9932SOL    HW241828   8.467   5.206   5.408
 9933SOL     OW41829   8.988   3.998   3.849
 9933SOL    HW141830   8.927   3.923   3.872
 9933SOL    HW241831   9.010   4.050   3.932
 9934SOL     OW41832   8.751   4.562   3.766
 9934SOL    HW141833   8.785   4.469   3.781
 9934SOL    HW241834   8.769   4.589   3.671
 9935SOL     OW41835   7.767   4.534   4.673
 9935SOL    HW141836   7.860   4.570   4.678
 9935SOL    HW241837   7.761   4.449   4.725
 9936SOL     OW41838   8.608   3.931   5.201
 9936SOL    HW141839   8.608   3.995   5.278
 9936SOL    HW241840   8.636   3.979   5.118
 9937SOL     OW41841   7.536   5.525   4.651
 9937SOL    HW141842   7.494   5.439   4.624
 9937SOL    HW241843   7.630   5.528   4.617
 9938SOL     OW41844   7.637   4.244   5.446
 9938SOL    HW141845   7.696   4.204   5.376
 9938SOL    HW241846   7.579   4.315   5.405
 9939SOL     OW41847   8.263   4.296   4.049
 9939SOL    HW141848   8.270   4.207   4.003
 9939SOL    HW241849   8.169   4.330   4.041
 9940SOL     OW41850   9.105   4.328   4.930
 9940SOL    HW141851   9.067   4.259   4.992
 9940SOL    HW241852   9.187   4.292   4.886
 9941SOL     OW41853   7.700   5.288   5.468
 9941SOL    HW141854   7.670   5.345   5.544
 9941SOL    HW241855   7.693   5.191   5.494
 9942SOL     OW41856   7.921   4.224   3.915
 9942SOL    HW141857   7.982   4.304   3.919
 9942SOL    HW241858   7.826   4.255   3.922
 9943SOL     OW41859   8.795   4.783   4.958
 9943SOL    HW141860   8.819   4.720   4.884
 9943SOL    HW241861   8.705   4.823   4.940
 9944SOL     OW41862   8.750   4.579   4.033
 9944SOL    HW141863   8.664   4.548   4.075
 9944SOL    HW241864   8.746   4.565   3.934
 9945SOL     OW41865   7.531   4.982   4.746
 9945SOL    HW141866   7.526   4.981   4.846
 9945SOL    HW241867   7.448   4.941   4.708
 9946SOL     OW41868   7.578   5.518   5.575
 9946SOL    HW141869   7.537   5.444   5.628
 9946SOL    HW241870   7.642   5.569   5.633
 9947SOL     OW41871   8.278   4.997   5.146
 9947SOL    HW141872   8.273   5.030   5.241
 9947SOL    HW241873   8.192   5.016   5.100
 9948SOL     OW41874   7.711   4.050   4.444
 9948SOL    HW141875   7.632   4.101   4.410
 9948SOL    HW241876   7.702   4.035   4.542
 9949SOL     OW41877   8.642   5.336   3.755
 9949SOL    HW141878   8.648   5.243   3.792
 9949SOL    HW241879   8.583   5.336   3.675
 9950SOL     OW41880   8.952   5.331   3.768
 9950SOL    HW141881   8.860   5.368   3.775
 9950SOL    HW241882   8.990   5.351   3.678
 9951SOL     OW41883   8.487   4.822   4.420
 9951SOL    HW141884   8.417   4.775   4.474
 9951SOL    HW241885   8.546   4.754   4.377
 9952SOL     OW41886   7.703   5.072   4.014
 9952SOL    HW141887   7.607   5.073   3.987
 9952SOL    HW241888   7.715   5.125   4.098
 9953SOL     OW41889   7.523   4.069   3.757
 9953SOL    HW141890   7.431   4.041   3.728
 9953SOL    HW241891   7.554   4.146   3.701
 9954SOL     OW41892   8.631   5.059   3.843
 9954SOL    HW141893   8.532   5.048   3.845
 9954SOL    HW241894   8.665   5.074   3.936
 9955SOL     OW41895   8.941   5.491   4.683
 9955SOL    HW141896   8.974   5.555   4.614
 9955SOL    HW241897   9.007   5.485   4.758
 9956SOL     OW41898   8.898   4.944   5.357
 9956SOL    HW141899   8.889   4.934   5.456
 9956SOL    HW241900   8.994   4.937   5.331
 9957SOL     OW41901   7.838   5.465   5.284
 9957SOL    HW141902   7.747   5.506   5.282
 9957SOL    HW241903   7.831   5.371   5.316
 9958SOL     OW41904   9.178   4.658   5.241
 9958SOL    HW141905   9.216   4.749   5.256
 9958SOL    HW241906   9.170   4.641   5.142
 9959SOL     OW41907   8.531   4.708   3.811
 9959SOL    HW141908   8.508   4.761   3.729
 9959SOL    HW241909   8.612   4.652   3.792
 9960SOL     OW41910   8.120   5.115   5.348
 9960SOL    HW141911   8.042   5.065   5.386
 9960SOL    HW241912   8.117   5.210   5.379
 9961SOL     OW41913   8.260   5.310   4.411
 9961SOL    HW141914   8.292   5.320   4.317
 9961SOL    HW241915   8.181   5.248   4.413
 9962SOL     OW41916   8.449   3.758   4.878
 9962SOL    HW141917   8.386   3.686   4.847
 9962SOL    HW241918   8.542   3.722   4.878
 9963SOL     OW41919   8.748   4.177   4.415
 9963SOL    HW141920   8.689   4.257   4.419
 9963SOL    HW241921   8.763   4.142   4.508
 9964SOL     OW41922   7.673   3.999   6.582
 9964SOL    HW141923   7.708   3.982   6.674
 9964SOL    HW241924   7.585   3.954   6.570
 9965SOL     OW41925   7.467   4.092   6.233
 9965SOL    HW141926   7.385   4.135   6.272
 9965SOL    HW241927   7.439   4.019   6.170
 9966SOL     OW41928   8.017   4.999   6.751
 9966SOL    HW141929   7.924   4.992   6.714
 9966SOL    HW241930   8.028   5.088   6.795
 9967SOL     OW41931   9.003   5.235   6.289
 9967SOL    HW141932   8.946   5.219   6.370
 9967SOL    HW241933   8.944   5.245   6.209
 9968SOL     OW41934   8.583   4.427   6.303
 9968SOL    HW141935   8.640   4.505   6.278
 9968SOL    HW241936   8.523   4.453   6.379
 9969SOL     OW41937   9.203   4.331   5.817
 9969SOL    HW141938   9.191   4.318   5.718
 9969SOL    HW241939   9.173   4.250   5.866
 9970SOL     OW41940   8.216   4.868   6.609
 9970SOL    HW141941   8.138   4.885   6.669
 9970SOL    HW241942   8.250   4.955   6.573
 9971SOL     OW41943   8.133   4.736   6.251
 9971SOL    HW141944   8.202   4.720   6.321
 9971SOL    HW241945   8.060   4.793   6.289
 9972SOL     OW41946   7.783   5.159   6.647
 9972SOL    HW141947   7.705   5.128   6.594
 9972SOL    HW241948   7.841   5.217   6.590
 9973SOL     OW41949   7.886   4.116   7.085
 9973SOL    HW141950   7.968   4.060   7.094
 9973SOL    HW241951   7.805   4.058   7.089
 9974SOL     OW41952   9.051   4.171   6.323
 9974SOL    HW141953   8.977   4.217   6.273
 9974SOL    HW241954   9.102   4.239   6.376
 9975SOL     OW41955   7.679   5.437   6.069
 9975SOL    HW141956   7.713   5.514   6.123
 9975SOL    HW241957   7.723   5.437   5.979
 9976SOL     OW41958   7.678   5.158   6.124
 9976SOL    HW141959   7.652   5.254   6.124
 9976SOL    HW241960   7.607   5.104   6.169
 9977SOL     OW41961   7.688   4.815   6.472
 9977SOL    HW141962   7.702   4.731   6.524
 9977SOL    HW241963   7.633   4.879   6.527
 9978SOL     OW41964   8.068   5.510   7.025
 9978SOL    HW141965   7.976   5.493   7.060
 9978SOL    HW241966   8.096   5.602   7.051
 9979SOL     OW41967   8.054   4.688   5.709
 9979SOL    HW141968   8.061   4.772   5.655
 9979SOL    HW241969   8.100   4.701   5.797
 9980SOL     OW41970   7.570   4.367   6.149
 9980SOL    HW141971   7.525   4.279   6.166
 9980SOL    HW241972   7.569   4.421   6.233
 9981SOL     OW41973   9.290   5.491   5.945
 9981SOL    HW141974   9.344   5.462   6.025
 9981SOL    HW241975   9.320   5.581   5.916
 9982SOL     OW41976   9.137   4.646   6.198
 9982SOL    HW141977   9.232   4.617   6.206
 9982SOL    HW241978   9.129   4.711   6.123
 9983SOL     OW41979   9.089   4.832   6.018
 9983SOL    HW141980   9.175   4.834   5.966
 9983SOL    HW241981   9.103   4.879   6.106
 9984SOL     OW41982   8.061   5.089   6.312
 9984SOL    HW141983   8.012   5.002   6.321
 9984SOL    HW241984   8.038   5.132   6.225
 9985SOL     OW41985   8.257   3.728   6.088
 9985SOL    HW141986   8.297   3.819   6.079
 9985SOL    HW241987   8.157   3.736   6.094
 9986SOL     OW41988   7.645   4.700   6.850
 9986SOL    HW141989   7.734   4.655   6.836
 9986SOL    HW241990   7.572   4.635   6.831
 9987SOL     OW41991   8.914   5.141   6.539
 9987SOL    HW141992   8.855   5.147   6.619
 9987SOL    HW241993   8.899   5.053   6.493
 9988SOL     OW41994   9.115   5.438   6.158
 9988SOL    HW141995   9.074   5.415   6.070
 9988SOL    HW241996   9.097   5.364   6.223
 9989SOL     OW41997   8.046   4.453   5.856
 9989SOL    HW141998   8.070   4.522   5.788
 9989SOL    HW241999   7.968   4.486   5.910
 9990SOL     OW42000   8.729   4.069   6.530
 9990SOL    HW142001   8.643   4.019   6.517
 9990SOL    HW242002   8.791   4.015   6.586
 9991SOL     OW42003   9.024   5.386   5.893
 9991SOL    HW142004   9.113   5.432   5.896
 9991SOL    HW242005   9.003   5.362   5.798
 9992SOL     OW42006   8.255   4.329   7.051
 9992SOL    HW142007   8.208   4.326   7.140
 9992SOL    HW242008   8.204   4.274   6.985
 9993SOL     OW42009   8.439   4.134   6.828
 9993SOL    HW142010   8.362   4.168   6.882
 9993SOL    HW242011   8.405   4.083   6.749
 9994SOL     OW42012   8.489   4.425   6.015
 9994SOL    HW142013   8.515   4.421   6.111
 9994SOL    HW242014   8.404   4.374   6.001
 9995SOL     OW42015   7.524   4.535   6.375
 9995SOL    HW142016   7.623   4.523   6.384
 9995SOL    HW242017   7.500   4.630   6.396
 9996SOL     OW42018   7.578   5.545   7.157
 9996SOL    HW142019   7.568   5.530   7.256
 9996SOL    HW242020   7.492   5.581   7.121
 9997SOL     OW42021   8.313   4.072   5.781
 9997SOL    HW142022   8.372   4.135   5.732
 9997SOL    HW242023   8.332   3.978   5.752
 9998SOL     OW42024   8.810   4.868   6.131
 9998SOL    HW142025   8.893   4.839   6.083
 9998SOL    HW242026   8.761   4.935   6.075
 9999SOL     OW42027   7.998   3.920   6.471
 9999SOL    HW142028   7.993   3.915   6.571
 9999SOL    HW242029   8.000   4.016   6.442
10000SOL     OW42030   8.456   5.180   6.063
10000SOL    HW142031   8.410   5.252   6.011
10000SOL    HW242032   8.452   5.200   6.161
10001SOL     OW42033   7.799   5.525   6.439
10001SOL    HW142034   7.849   5.439   6.445
10001SOL    HW242035   7.864   5.602   6.436
10002SOL     OW42036   9.243   4.790   6.459
10002SOL    HW142037   9.181   4.775   6.383
10002SOL    HW242038   9.191   4.801   6.544
10003SOL     OW42039   8.906   4.459   6.314
10003SOL    HW142040   8.901   4.394   6.389
10003SOL    HW242041   8.986   4.518   6.327
10004SOL     OW42042   8.559   5.500   5.823
10004SOL    HW142043   8.499   5.438   5.873
10004SOL    HW242044   8.590   5.456   5.738
10005SOL     OW42045   9.080   5.101   5.667
10005SOL    HW142046   9.048   5.195   5.657
10005SOL    HW242047   9.004   5.038   5.655
10006SOL     OW42048   7.912   5.467   5.909
10006SOL    HW142049   7.945   5.506   5.995
10006SOL    HW242050   7.988   5.460   5.844
10007SOL     OW42051   8.848   3.831   6.012
10007SOL    HW142052   8.824   3.794   5.922
10007SOL    HW242053   8.947   3.847   6.016
10008SOL     OW42054   7.697   5.509   6.827
10008SOL    HW142055   7.754   5.444   6.877
10008SOL    HW242056   7.681   5.476   6.734
10009SOL     OW42057   8.388   5.422   6.490
10009SOL    HW142058   8.468   5.365   6.511
10009SOL    HW242059   8.339   5.382   6.413
10010SOL     OW42060   7.830   4.424   6.066
10010SOL    HW142061   7.875   4.334   6.063
10010SOL    HW242062   7.736   4.413   6.099
10011SOL     OW42063   8.062   3.846   5.703
10011SOL    HW142064   8.160   3.824   5.710
10011SOL    HW242065   8.031   3.829   5.610
10012SOL     OW42066   8.336   5.238   6.781
10012SOL    HW142067   8.313   5.213   6.687
10012SOL    HW242068   8.397   5.169   6.820
10013SOL     OW42069   8.251   5.126   6.510
10013SOL    HW142070   8.341   5.140   6.468
10013SOL    HW242071   8.180   5.128   6.439
10014SOL     OW42072   8.370   4.227   6.485
10014SOL    HW142073   8.345   4.218   6.389
10014SOL    HW242074   8.418   4.145   6.516
10015SOL     OW42075   7.987   3.788   6.098
10015SOL    HW142076   7.906   3.789   6.156
10015SOL    HW242077   7.990   3.871   6.043
10016SOL     OW42078   8.383   3.960   6.066
10016SOL    HW142079   8.335   4.001   5.988
10016SOL    HW242080   8.482   3.958   6.047
10017SOL     OW42081   8.675   5.294   6.379
10017SOL    HW142082   8.696   5.368   6.314
10017SOL    HW242083   8.743   5.294   6.452
10018SOL     OW42084   7.907   4.876   6.327
10018SOL    HW142085   7.836   4.849   6.392
10018SOL    HW242086   7.881   4.848   6.234
10019SOL     OW42087   8.719   5.521   6.177
10019SOL    HW142088   8.763   5.585   6.113
10019SOL    HW242089   8.669   5.573   6.247
10020SOL     OW42090   8.009   3.946   6.733
10020SOL    HW142091   8.047   3.862   6.770
10020SOL    HW242092   7.921   3.965   6.777
10021SOL     OW42093   8.314   4.178   6.228
10021SOL    HW142094   8.282   4.250   6.166
10021SOL    HW242095   8.338   4.097   6.175
10022SOL     OW42096   8.465   3.763   6.339
10022SOL    HW142097   8.393   3.768   6.270
10022SOL    HW242098   8.441   3.694   6.408
10023SOL     OW42099   8.877   4.897   6.453
10023SOL    HW142100   8.822   4.813   6.446
10023SOL    HW242101   8.903   4.926   6.361
10024SOL     OW42102   8.914   4.314   6.578
10024SOL    HW142103   8.884   4.219   6.585
10024SOL    HW242104   8.987   4.330   6.644
10025SOL     OW42105   9.305   4.557   5.963
10025SOL    HW142106   9.347   4.493   6.027
10025SOL    HW242107   9.267   4.506   5.885
10026SOL     OW42108   7.936   5.109   5.760
10026SOL    HW142109   7.849   5.094   5.807
10026SOL    HW242110   7.919   5.135   5.665
10027SOL     OW42111   9.112   5.004   6.243
10027SOL    HW142112   9.211   5.012   6.257
10027SOL    HW242113   9.067   5.088   6.274
10028SOL     OW42114   7.975   3.980   5.914
10028SOL    HW142115   8.002   3.921   5.839
10028SOL    HW242116   7.975   4.075   5.883
10029SOL     OW42117   8.512   5.071   6.926
10029SOL    HW142118   8.432   5.048   6.981
10029SOL    HW242119   8.595   5.045   6.975
10030SOL     OW42120   8.559   4.919   6.686
10030SOL    HW142121   8.519   4.963   6.767
10030SOL    HW242122   8.518   4.956   6.603
10031SOL     OW42123   9.086   4.823   6.665
10031SOL    HW142124   9.091   4.904   6.724
10031SOL    HW242125   9.000   4.825   6.614
10032SOL     OW42126   8.153   4.774   5.954
10032SOL    HW142127   8.139   4.781   6.053
10032SOL    HW242128   8.237   4.723   5.936
10033SOL     OW42129   7.858   4.537   6.837
10033SOL    HW142130   7.944   4.549   6.887
10033SOL    HW242131   7.816   4.450   6.864
10034SOL     OW42132   8.722   4.110   6.848
10034SOL    HW142133   8.743   4.184   6.912
10034SOL    HW242134   8.633   4.127   6.805
10035SOL     OW42135   7.512   5.288   6.917
10035SOL    HW142136   7.466   5.370   6.883
10035SOL    HW242137   7.610   5.307   6.926
10036SOL     OW42138   7.815   4.824   6.087
10036SOL    HW142139   7.808   4.907   6.031
10036SOL    HW242140   7.819   4.744   6.027
10037SOL     OW42141   8.014   4.261   6.451
10037SOL    HW142142   8.026   4.327   6.377
10037SOL    HW242143   8.060   4.295   6.534
10038SOL     OW42144   8.700   5.072   5.974
10038SOL    HW142145   8.750   5.149   6.014
10038SOL    HW242146   8.605   5.074   6.006
10039SOL     OW42147   8.720   5.169   6.728
10039SOL    HW142148   8.767   5.182   6.815
10039SOL    HW242149   8.654   5.095   6.737
10040SOL     OW42150   9.030   4.363   6.058
10040SOL    HW142151   8.999   4.424   6.131
10040SOL    HW242152   9.080   4.415   5.989
10041SOL     OW42153   7.802   5.234   6.915
10041SOL    HW142154   7.781   5.190   6.828
10041SOL    HW242155   7.899   5.260   6.918
10042SOL     OW42156   7.952   3.774   7.326
10042SOL    HW142157   7.910   3.717   7.256
10042SOL    HW242158   7.886   3.843   7.358
10043SOL     OW42159   8.021   4.594   6.615
10043SOL    HW142160   8.065   4.683   6.606
10043SOL    HW242161   7.958   4.594   6.692
10044SOL     OW42162   8.808   4.586   6.631
10044SOL    HW142163   8.733   4.586   6.565
10044SOL    HW242164   8.845   4.494   6.640
10045SOL     OW42165   8.657   4.249   5.861
10045SOL    HW142166   8.670   4.165   5.915
10045SOL    HW242167   8.628   4.323   5.921
10046SOL     OW42168   7.755   3.937   6.817
10046SOL    HW142169   7.732   3.974   6.907
10046SOL    HW242170   7.725   3.842   6.811
10047SOL     OW42171   7.485   5.034   6.868
10047SOL    HW142172   7.538   4.985   6.936
10047SOL    HW242173   7.507   5.132   6.873
10048SOL     OW42174   8.180   4.358   6.650
10048SOL    HW142175   8.239   4.332   6.574
10048SOL    HW242176   8.152   4.454   6.639
10049SOL     OW42177   7.755   3.787   6.204
10049SOL    HW142178   7.744   3.881   6.237
10049SOL    HW242179   7.750   3.724   6.281
10050SOL     OW42180   9.070   4.091   5.960
10050SOL    HW142181   9.072   4.015   6.024
10050SOL    HW242182   9.022   4.168   6.000
10051SOL     OW42183   8.471   4.490   6.552
10051SOL    HW142184   8.486   4.511   6.648
10051SOL    HW242185   8.441   4.395   6.543
10052SOL     OW42186   8.988   3.998   5.711
10052SOL    HW142187   8.927   3.923   5.734
10052SOL    HW242188   9.010   4.050   5.794
10053SOL     OW42189   8.516   5.057   6.435
10053SOL    HW142190   8.523   4.973   6.380
10053SOL    HW242191   8.578   5.126   6.399
10054SOL     OW42192   7.767   4.534   6.535
10054SOL    HW142193   7.860   4.570   6.540
10054SOL    HW242194   7.761   4.449   6.587
10055SOL     OW42195   7.787   4.233   6.592
10055SOL    HW142196   7.735   4.150   6.575
10055SOL    HW242197   7.864   4.238   6.528
10056SOL     OW42198   8.608   3.931   7.063
10056SOL    HW142199   8.608   3.995   7.140
10056SOL    HW242200   8.636   3.979   6.980
10057SOL     OW42201   7.536   5.525   6.513
10057SOL    HW142202   7.494   5.439   6.486
10057SOL    HW242203   7.630   5.528   6.479
10058SOL     OW42204   7.952   5.292   6.496
10058SOL    HW142205   8.018   5.366   6.505
10058SOL    HW242206   7.996   5.213   6.454
10059SOL     OW42207   8.450   4.520   6.824
10059SOL    HW142208   8.491   4.488   6.910
10059SOL    HW242209   8.354   4.493   6.821
10060SOL     OW42210   7.488   4.268   6.700
10060SOL    HW142211   7.573   4.235   6.659
10060SOL    HW242212   7.501   4.283   6.798
10061SOL     OW42213   8.263   4.296   5.911
10061SOL    HW142214   8.270   4.207   5.865
10061SOL    HW242215   8.169   4.330   5.903
10062SOL     OW42216   9.105   4.328   6.792
10062SOL    HW142217   9.067   4.259   6.854
10062SOL    HW242218   9.187   4.292   6.748
10063SOL     OW42219   8.119   4.188   6.855
10063SOL    HW142220   8.085   4.099   6.825
10063SOL    HW242221   8.145   4.242   6.775
10064SOL     OW42222   8.378   5.402   7.051
10064SOL    HW142223   8.354   5.384   6.956
10064SOL    HW242224   8.408   5.496   7.061
10065SOL     OW42225   7.607   4.861   7.052
10065SOL    HW142226   7.629   4.800   7.128
10065SOL    HW242227   7.617   4.812   6.966
10066SOL     OW42228   8.795   4.783   6.820
10066SOL    HW142229   8.819   4.720   6.746
10066SOL    HW242230   8.705   4.823   6.802
10067SOL     OW42231   8.750   4.579   5.895
10067SOL    HW142232   8.664   4.548   5.937
10067SOL    HW242233   8.746   4.565   5.796
10068SOL     OW42234   9.207   5.471   6.740
10068SOL    HW142235   9.268   5.501   6.667
10068SOL    HW242236   9.169   5.382   6.718
10069SOL     OW42237   8.700   5.455   6.714
10069SOL    HW142238   8.784   5.460   6.660
10069SOL    HW242239   8.677   5.359   6.732
10070SOL     OW42240   7.531   4.982   6.608
10070SOL    HW142241   7.526   4.981   6.708
10070SOL    HW242242   7.448   4.941   6.570
10071SOL     OW42243   9.174   3.859   6.109
10071SOL    HW142244   9.247   3.842   6.042
10071SOL    HW242245   9.143   3.772   6.147
10072SOL     OW42246   8.836   5.297   6.063
10072SOL    HW142247   8.903   5.309   5.989
10072SOL    HW242248   8.796   5.386   6.086
10073SOL     OW42249   8.728   4.651   6.258
10073SOL    HW142250   8.788   4.570   6.260
10073SOL    HW242251   8.768   4.720   6.198
10074SOL     OW42252   8.120   5.340   5.740
10074SOL    HW142253   8.129   5.350   5.641
10074SOL    HW242254   8.080   5.251   5.761
10075SOL     OW42255   9.289   3.899   6.549
10075SOL    HW142256   9.328   3.814   6.513
10075SOL    HW242257   9.191   3.901   6.530
10076SOL     OW42258   7.711   4.050   6.306
10076SOL    HW142259   7.632   4.101   6.272
10076SOL    HW242260   7.702   4.035   6.404
10077SOL     OW42261   8.642   5.336   5.617
10077SOL    HW142262   8.648   5.243   5.654
10077SOL    HW242263   8.583   5.336   5.537
10078SOL     OW42264   8.270   4.726   6.958
10078SOL    HW142265   8.310   4.725   6.866
10078SOL    HW242266   8.280   4.818   6.998
10079SOL     OW42267   8.364   4.634   5.877
10079SOL    HW142268   8.427   4.672   5.809
10079SOL    HW242269   8.404   4.551   5.916
10080SOL     OW42270   8.952   5.331   5.630
10080SOL    HW142271   8.860   5.368   5.637
10080SOL    HW242272   8.990   5.351   5.540
10081SOL     OW42273   7.820   5.012   7.076
10081SOL    HW142274   7.807   5.105   7.042
10081SOL    HW242275   7.736   4.960   7.063
10082SOL     OW42276   9.062   5.016   6.875
10082SOL    HW142277   9.122   5.019   6.955
10082SOL    HW242278   8.987   5.080   6.888
10083SOL     OW42279   8.487   4.822   6.282
10083SOL    HW142280   8.417   4.775   6.336
10083SOL    HW242281   8.546   4.754   6.239
10084SOL     OW42282   8.462   3.960   6.557
10084SOL    HW142283   8.454   3.924   6.464
10084SOL    HW242284   8.460   3.884   6.622
10085SOL     OW42285   8.038   5.211   6.077
10085SOL    HW142286   8.080   5.153   6.007
10085SOL    HW242287   7.994   5.290   6.033
10086SOL     OW42288   9.157   4.109   6.967
10086SOL    HW142289   9.230   4.178   6.971
10086SOL    HW242290   9.185   4.034   6.908
10087SOL     OW42291   8.120   3.927   7.075
10087SOL    HW142292   8.210   3.911   7.035
10087SOL    HW242293   8.128   3.932   7.174
10088SOL     OW42294   7.520   3.890   5.904
10088SOL    HW142295   7.503   3.973   5.850
10088SOL    HW242296   7.610   3.853   5.882
10089SOL     OW42297   8.631   5.059   5.705
10089SOL    HW142298   8.532   5.048   5.707
10089SOL    HW242299   8.665   5.074   5.798
10090SOL     OW42300   8.061   4.566   7.017
10090SOL    HW142301   8.117   4.647   7.000
10090SOL    HW242302   8.120   4.486   7.020
10091SOL     OW42303   8.941   5.491   6.545
10091SOL    HW142304   8.974   5.555   6.476
10091SOL    HW242305   9.007   5.485   6.620
10092SOL     OW42306   7.838   5.465   7.146
10092SOL    HW142307   7.747   5.506   7.144
10092SOL    HW242308   7.831   5.371   7.178
10093SOL     OW42309   9.122   4.607   6.840
10093SOL    HW142310   9.095   4.518   6.803
10093SOL    HW242311   9.123   4.675   6.767
10094SOL     OW42312   8.673   4.049   6.035
10094SOL    HW142313   8.738   3.975   6.024
10094SOL    HW242314   8.693   4.099   6.119
10095SOL     OW42315   8.042   4.469   6.238
10095SOL    HW142316   8.092   4.554   6.219
10095SOL    HW242317   7.954   4.471   6.190
10096SOL     OW42318   9.178   4.658   7.103
10096SOL    HW142319   9.216   4.749   7.118
10096SOL    HW242320   9.170   4.641   7.004
10097SOL     OW42321   8.307   5.098   5.602
10097SOL    HW142322   8.261   5.113   5.690
10097SOL    HW242323   8.351   5.183   5.572
10098SOL     OW42324   8.109   5.514   6.539
10098SOL    HW142325   8.063   5.602   6.526
10098SOL    HW242326   8.208   5.526   6.532
10099SOL     OW42327   8.307   4.680   6.447
10099SOL    HW142328   8.361   4.611   6.495
10099SOL    HW242329   8.275   4.749   6.513
10100SOL     OW42330   9.309   5.293   6.437
10100SOL    HW142331   9.238   5.281   6.367
10100SOL    HW242332   9.310   5.214   6.497
10101SOL     OW42333   7.527   4.964   6.239
10101SOL    HW142334   7.526   4.917   6.327
10101SOL    HW242335   7.609   4.936   6.188
10102SOL     OW42336   9.272   3.916   6.813
10102SOL    HW142337   9.268   3.826   6.857
10102SOL    HW242338   9.275   3.905   6.714
10103SOL     OW42339   7.876   4.148   6.106
10103SOL    HW142340   7.906   4.076   6.044
10103SOL    HW242341   7.837   4.108   6.189
10104SOL     OW42342   9.153   5.211   6.690
10104SOL    HW142343   9.060   5.186   6.663
10104SOL    HW242344   9.179   5.161   6.772
10105SOL     OW42345   7.765   4.271   6.866
10105SOL    HW142346   7.803   4.212   6.938
10105SOL    HW242347   7.805   4.245   6.778
10106SOL     OW42348   8.260   5.310   6.273
10106SOL    HW142349   8.292   5.320   6.179
10106SOL    HW242350   8.181   5.248   6.275
10107SOL     OW42351   8.872   3.938   6.698
10107SOL    HW142352   8.924   3.873   6.753
10107SOL    HW242353   8.823   4.001   6.759
10108SOL     OW42354   8.449   3.758   6.740
10108SOL    HW142355   8.386   3.686   6.709
10108SOL    HW242356   8.542   3.722   6.740
10109SOL     OW42357   8.218   5.054   5.887
10109SOL    HW142358   8.172   4.967   5.904
10109SOL    HW242359   8.309   5.051   5.928
10110SOL     OW42360   8.066   5.291   6.870
10110SOL    HW142361   8.061   5.373   6.927
10110SOL    HW242362   8.155   5.288   6.825
10111SOL     OW42363   8.800   3.776   5.754
10111SOL    HW142364   8.835   3.735   5.670
10111SOL    HW242365   8.710   3.738   5.774
10112SOL     OW42366   8.748   4.177   6.277
10112SOL    HW142367   8.689   4.257   6.281
10112SOL    HW242368   8.763   4.142   6.370
10113SOL     OW42369   9.041   3.945   6.468
10113SOL    HW142370   8.957   3.944   6.522
10113SOL    HW242371   9.043   4.028   6.412
10114SOL     OW42372   7.487   4.801   5.886
10114SOL    HW142373   7.586   4.790   5.877
10114SOL    HW242374   7.447   4.715   5.918
10115SOL     OW42375   8.323   5.370   5.923
10115SOL    HW142376   8.246   5.335   5.869
10115SOL    HW242377   8.291   5.441   5.985
10116SOL     OW42378   7.678   6.214   0.113
10116SOL    HW142379   7.585   6.212   0.150
10116SOL    HW242380   7.679   6.175   0.021
10117SOL     OW42381   7.673   5.861   0.996
10117SOL    HW142382   7.708   5.844   1.088
10117SOL    HW242383   7.585   5.816   0.984
10118SOL     OW42384   7.467   5.954   0.647
10118SOL    HW142385   7.385   5.997   0.686
10118SOL    HW242386   7.439   5.881   0.584
10119SOL     OW42387   8.017   6.861   1.165
10119SOL    HW142388   7.924   6.854   1.128
10119SOL    HW242389   8.028   6.950   1.209
10120SOL     OW42390   9.003   7.097   0.703
10120SOL    HW142391   8.946   7.081   0.784
10120SOL    HW242392   8.944   7.107   0.623
10121SOL     OW42393   8.583   6.289   0.717
10121SOL    HW142394   8.640   6.367   0.692
10121SOL    HW242395   8.523   6.315   0.793
10122SOL     OW42396   9.203   6.193   0.231
10122SOL    HW142397   9.191   6.180   0.132
10122SOL    HW242398   9.173   6.112   0.280
10123SOL     OW42399   8.216   6.730   1.023
10123SOL    HW142400   8.138   6.747   1.083
10123SOL    HW242401   8.250   6.817   0.987
10124SOL     OW42402   8.133   6.598   0.665
10124SOL    HW142403   8.202   6.582   0.735
10124SOL    HW242404   8.060   6.655   0.703
10125SOL     OW42405   8.134   6.747   1.803
10125SOL    HW142406   8.194   6.826   1.817
10125SOL    HW242407   8.048   6.778   1.762
10126SOL     OW42408   7.783   7.021   1.061
10126SOL    HW142409   7.705   6.990   1.008
10126SOL    HW242410   7.841   7.079   1.004
10127SOL     OW42411   8.908   7.091   1.339
10127SOL    HW142412   8.932   7.185   1.365
10127SOL    HW242413   8.892   7.037   1.421
10128SOL     OW42414   7.679   7.299   0.483
10128SOL    HW142415   7.713   7.376   0.537
10128SOL    HW242416   7.723   7.299   0.393
10129SOL     OW42417   8.575   6.927   1.690
10129SOL    HW142418   8.622   6.927   1.778
10129SOL    HW242419   8.527   6.840   1.679
10130SOL     OW42420   7.678   7.020   0.538
10130SOL    HW142421   7.652   7.116   0.538
10130SOL    HW242422   7.607   6.966   0.583
10131SOL     OW42423   7.688   6.677   0.886
10131SOL    HW142424   7.702   6.593   0.938
10131SOL    HW242425   7.633   6.741   0.941
10132SOL     OW42426   8.054   6.550   0.123
10132SOL    HW142427   8.061   6.634   0.069
10132SOL    HW242428   8.100   6.563   0.211
10133SOL     OW42429   7.570   6.229   0.563
10133SOL    HW142430   7.525   6.141   0.580
10133SOL    HW242431   7.569   6.283   0.647
10134SOL     OW42432   9.290   7.353   0.359
10134SOL    HW142433   9.344   7.324   0.439
10134SOL    HW242434   9.320   7.443   0.330
10135SOL     OW42435   7.475   7.182   0.117
10135SOL    HW142436   7.456   7.086   0.138
10135SOL    HW242437   7.442   7.240   0.192
10136SOL     OW42438   9.137   6.508   0.612
10136SOL    HW142439   9.232   6.479   0.620
10136SOL    HW242440   9.129   6.573   0.537
10137SOL     OW42441   9.089   6.694   0.432
10137SOL    HW142442   9.175   6.696   0.380
10137SOL    HW242443   9.103   6.741   0.520
10138SOL     OW42444   8.061   6.951   0.726
10138SOL    HW142445   8.012   6.864   0.735
10138SOL    HW242446   8.038   6.994   0.639
10139SOL     OW42447   8.257   5.590   0.502
10139SOL    HW142448   8.297   5.681   0.493
10139SOL    HW242449   8.157   5.598   0.508
10140SOL     OW42450   8.973   6.585   0.190
10140SOL    HW142451   8.910   6.509   0.203
10140SOL    HW242452   9.021   6.603   0.276
10141SOL     OW42453   8.635   7.378   1.616
10141SOL    HW142454   8.659   7.438   1.540
10141SOL    HW242455   8.642   7.283   1.586
10142SOL     OW42456   8.914   7.003   0.953
10142SOL    HW142457   8.855   7.009   1.033
10142SOL    HW242458   8.899   6.915   0.907
10143SOL     OW42459   9.115   7.300   0.572
10143SOL    HW142460   9.074   7.277   0.484
10143SOL    HW242461   9.097   7.226   0.637
10144SOL     OW42462   8.046   6.315   0.270
10144SOL    HW142463   8.070   6.384   0.202
10144SOL    HW242464   7.968   6.348   0.324
10145SOL     OW42465   8.729   5.931   0.944
10145SOL    HW142466   8.643   5.881   0.931
10145SOL    HW242467   8.791   5.877   1.000
10146SOL     OW42468   9.024   7.248   0.307
10146SOL    HW142469   9.113   7.294   0.310
10146SOL    HW242470   9.003   7.224   0.212
10147SOL     OW42471   8.421   6.476   1.572
10147SOL    HW142472   8.467   6.392   1.543
10147SOL    HW242473   8.365   6.510   1.497
10148SOL     OW42474   8.439   5.996   1.242
10148SOL    HW142475   8.362   6.030   1.296
10148SOL    HW242476   8.405   5.945   1.163
10149SOL     OW42477   8.489   6.287   0.429
10149SOL    HW142478   8.515   6.283   0.525
10149SOL    HW242479   8.404   6.236   0.415
10150SOL     OW42480   7.524   6.397   0.789
10150SOL    HW142481   7.623   6.385   0.798
10150SOL    HW242482   7.500   6.492   0.810
10151SOL     OW42483   8.313   5.934   0.195
10151SOL    HW142484   8.372   5.997   0.146
10151SOL    HW242485   8.332   5.840   0.166
10152SOL     OW42486   8.810   6.730   0.545
10152SOL    HW142487   8.893   6.701   0.497
10152SOL    HW242488   8.761   6.797   0.489
10153SOL     OW42489   7.998   5.782   0.885
10153SOL    HW142490   7.993   5.777   0.985
10153SOL    HW242491   8.000   5.878   0.856
10154SOL     OW42492   8.456   7.042   0.477
10154SOL    HW142493   8.410   7.114   0.425
10154SOL    HW242494   8.452   7.062   0.575
10155SOL     OW42495   7.799   7.387   0.853
10155SOL    HW142496   7.849   7.301   0.859
10155SOL    HW242497   7.864   7.464   0.850
10156SOL     OW42498   7.769   6.529   0.242
10156SOL    HW142499   7.851   6.568   0.200
10156SOL    HW242500   7.742   6.447   0.193
10157SOL     OW42501   8.559   7.362   0.237
10157SOL    HW142502   8.499   7.300   0.287
10157SOL    HW242503   8.590   7.318   0.152
10158SOL     OW42504   7.650   5.871   1.498
10158SOL    HW142505   7.570   5.931   1.485
10158SOL    HW242506   7.640   5.822   1.584
10159SOL     OW42507   9.080   6.963   0.081
10159SOL    HW142508   9.048   7.057   0.071
10159SOL    HW242509   9.004   6.900   0.069
10160SOL     OW42510   7.912   7.329   0.323
10160SOL    HW142511   7.945   7.368   0.409
10160SOL    HW242512   7.988   7.322   0.258
10161SOL     OW42513   8.848   5.693   0.426
10161SOL    HW142514   8.824   5.656   0.336
10161SOL    HW242515   8.947   5.709   0.430
10162SOL     OW42516   7.697   7.371   1.241
10162SOL    HW142517   7.754   7.306   1.291
10162SOL    HW242518   7.681   7.338   1.148
10163SOL     OW42519   8.388   7.284   0.904
10163SOL    HW142520   8.468   7.227   0.925
10163SOL    HW242521   8.339   7.244   0.827
10164SOL     OW42522   7.830   6.286   0.480
10164SOL    HW142523   7.875   6.196   0.477
10164SOL    HW242524   7.736   6.275   0.513
10165SOL     OW42525   8.229   5.850   1.749
10165SOL    HW142526   8.296   5.789   1.792
10165SOL    HW242527   8.156   5.869   1.814
10166SOL     OW42528   8.799   6.176   1.433
10166SOL    HW142529   8.827   6.133   1.518
10166SOL    HW242530   8.824   6.272   1.434
10167SOL     OW42531   8.251   6.988   0.924
10167SOL    HW142532   8.341   7.002   0.882
10167SOL    HW242533   8.180   6.990   0.853
10168SOL     OW42534   8.370   6.089   0.899
10168SOL    HW142535   8.345   6.080   0.803
10168SOL    HW242536   8.418   6.007   0.930
10169SOL     OW42537   7.987   5.650   0.512
10169SOL    HW142538   7.906   5.651   0.570
10169SOL    HW242539   7.990   5.733   0.457
10170SOL     OW42540   8.882   6.774   0.041
10170SOL    HW142541   8.914   6.698   0.098
10170SOL    HW242542   8.790   6.801   0.071
10171SOL     OW42543   8.383   5.822   0.480
10171SOL    HW142544   8.335   5.863   0.402
10171SOL    HW242545   8.482   5.820   0.461
10172SOL     OW42546   8.524   6.269   1.464
10172SOL    HW142547   8.444   6.208   1.467
10172SOL    HW242548   8.605   6.216   1.440
10173SOL     OW42549   8.675   7.156   0.793
10173SOL    HW142550   8.696   7.230   0.728
10173SOL    HW242551   8.743   7.156   0.866
10174SOL     OW42552   7.907   6.738   0.741
10174SOL    HW142553   7.836   6.711   0.806
10174SOL    HW242554   7.881   6.710   0.648
10175SOL     OW42555   8.719   7.383   0.591
10175SOL    HW142556   8.763   7.447   0.527
10175SOL    HW242557   8.669   7.435   0.661
10176SOL     OW42558   8.480   6.135   0.016
10176SOL    HW142559   8.439   6.217  -0.023
10176SOL    HW242560   8.544   6.161   0.089
10177SOL     OW42561   7.526   6.142   1.386
10177SOL    HW142562   7.618   6.141   1.345
10177SOL    HW242563   7.520   6.216   1.453
10178SOL     OW42564   8.009   5.808   1.147
10178SOL    HW142565   8.047   5.724   1.184
10178SOL    HW242566   7.921   5.827   1.191
10179SOL     OW42567   8.314   6.040   0.642
10179SOL    HW142568   8.282   6.112   0.580
10179SOL    HW242569   8.338   5.959   0.589
10180SOL     OW42570   8.465   5.625   0.753
10180SOL    HW142571   8.393   5.630   0.684
10180SOL    HW242572   8.441   5.556   0.822
10181SOL     OW42573   8.877   6.759   0.867
10181SOL    HW142574   8.822   6.675   0.860
10181SOL    HW242575   8.903   6.788   0.775
10182SOL     OW42576   9.305   6.419   0.377
10182SOL    HW142577   9.347   6.355   0.441
10182SOL    HW242578   9.267   6.368   0.299
10183SOL     OW42579   7.936   6.971   0.174
10183SOL    HW142580   7.849   6.956   0.221
10183SOL    HW242581   7.919   6.997   0.079
10184SOL     OW42582   9.112   6.866   0.657
10184SOL    HW142583   9.211   6.874   0.671
10184SOL    HW242584   9.067   6.950   0.688
10185SOL     OW42585   8.838   6.161   0.078
10185SOL    HW142586   8.784   6.140   0.159
10185SOL    HW242587   8.929   6.120   0.087
10186SOL     OW42588   7.975   5.842   0.328
10186SOL    HW142589   8.002   5.783   0.253
10186SOL    HW242590   7.975   5.937   0.297
10187SOL     OW42591   9.202   6.809   1.588
10187SOL    HW142592   9.293   6.770   1.575
10187SOL    HW242593   9.210   6.905   1.612
10188SOL     OW42594   9.040   7.215   1.625
10188SOL    HW142595   9.067   7.249   1.535
10188SOL    HW242596   9.119   7.177   1.671
10189SOL     OW42597   8.559   6.781   1.100
10189SOL    HW142598   8.519   6.825   1.181
10189SOL    HW242599   8.518   6.818   1.017
10190SOL     OW42600   8.428   6.702   1.719
10190SOL    HW142601   8.329   6.708   1.729
10190SOL    HW242602   8.451   6.622   1.663
10191SOL     OW42603   8.153   6.636   0.368
10191SOL    HW142604   8.139   6.643   0.467
10191SOL    HW242605   8.237   6.585   0.350
10192SOL     OW42606   7.815   6.686   0.501
10192SOL    HW142607   7.808   6.769   0.445
10192SOL    HW242608   7.819   6.606   0.441
10193SOL     OW42609   8.014   6.123   0.865
10193SOL    HW142610   8.026   6.189   0.791
10193SOL    HW242611   8.060   6.157   0.948
10194SOL     OW42612   8.700   6.934   0.388
10194SOL    HW142613   8.750   7.011   0.428
10194SOL    HW242614   8.605   6.936   0.420
10195SOL     OW42615   8.720   7.031   1.142
10195SOL    HW142616   8.767   7.044   1.229
10195SOL    HW242617   8.654   6.957   1.151
10196SOL     OW42618   9.030   6.225   0.472
10196SOL    HW142619   8.999   6.286   0.545
10196SOL    HW242620   9.080   6.277   0.403
10197SOL     OW42621   8.021   6.456   1.029
10197SOL    HW142622   8.065   6.545   1.020
10197SOL    HW242623   7.958   6.456   1.106
10198SOL     OW42624   8.808   6.448   1.045
10198SOL    HW142625   8.733   6.448   0.979
10198SOL    HW242626   8.845   6.356   1.054
10199SOL     OW42627   8.657   6.111   0.275
10199SOL    HW142628   8.670   6.027   0.329
10199SOL    HW242629   8.628   6.185   0.335
10200SOL     OW42630   8.180   6.220   1.064
10200SOL    HW142631   8.239   6.194   0.988
10200SOL    HW242632   8.152   6.316   1.053
10201SOL     OW42633   9.070   5.953   0.374
10201SOL    HW142634   9.072   5.877   0.438
10201SOL    HW242635   9.022   6.030   0.414
10202SOL     OW42636   8.471   6.352   0.966
10202SOL    HW142637   8.486   6.373   1.062
10202SOL    HW242638   8.441   6.257   0.957
10203SOL     OW42639   9.307   7.104   1.605
10203SOL    HW142640   9.321   7.131   1.510
10203SOL    HW242641   9.390   7.126   1.658
10204SOL     OW42642   8.988   5.860   0.125
10204SOL    HW142643   8.927   5.785   0.148
10204SOL    HW242644   9.010   5.912   0.208
10205SOL     OW42645   8.751   6.424   0.042
10205SOL    HW142646   8.785   6.331   0.057
10205SOL    HW242647   8.769   6.451  -0.053
10206SOL     OW42648   8.516   6.919   0.849
10206SOL    HW142649   8.523   6.835   0.794
10206SOL    HW242650   8.578   6.988   0.813
10207SOL     OW42651   7.767   6.396   0.949
10207SOL    HW142652   7.860   6.432   0.954
10207SOL    HW242653   7.761   6.311   1.001
10208SOL     OW42654   7.787   6.095   1.006
10208SOL    HW142655   7.735   6.012   0.989
10208SOL    HW242656   7.864   6.100   0.942
10209SOL     OW42657   7.456   6.912   0.200
10209SOL    HW142658   7.363   6.933   0.169
10209SOL    HW242659   7.466   6.813   0.213
10210SOL     OW42660   7.536   7.387   0.927
10210SOL    HW142661   7.494   7.301   0.900
10210SOL    HW242662   7.630   7.390   0.893
10211SOL     OW42663   7.952   7.154   0.910
10211SOL    HW142664   8.018   7.228   0.919
10211SOL    HW242665   7.996   7.075   0.868
10212SOL     OW42666   8.450   6.382   1.238
10212SOL    HW142667   8.491   6.350   1.324
10212SOL    HW242668   8.354   6.355   1.235
10213SOL     OW42669   7.488   6.130   1.114
10213SOL    HW142670   7.573   6.097   1.073
10213SOL    HW242671   7.501   6.145   1.212
10214SOL     OW42672   8.263   6.158   0.325
10214SOL    HW142673   8.270   6.069   0.279
10214SOL    HW242674   8.169   6.192   0.317
10215SOL     OW42675   7.700   7.150   1.744
10215SOL    HW142676   7.670   7.207   1.820
10215SOL    HW242677   7.693   7.053   1.770
10216SOL     OW42678   8.119   6.050   1.269
10216SOL    HW142679   8.085   5.961   1.239
10216SOL    HW242680   8.145   6.104   1.189
10217SOL     OW42681   7.921   6.086   0.191
10217SOL    HW142682   7.982   6.166   0.195
10217SOL    HW242683   7.826   6.117   0.198
10218SOL     OW42684   8.750   6.441   0.309
10218SOL    HW142685   8.664   6.410   0.351
10218SOL    HW242686   8.746   6.427   0.210
10219SOL     OW42687   9.207   7.333   1.154
10219SOL    HW142688   9.268   7.363   1.081
10219SOL    HW242689   9.169   7.244   1.132
10220SOL     OW42690   8.700   7.317   1.128
10220SOL    HW142691   8.784   7.322   1.074
10220SOL    HW242692   8.677   7.221   1.146
10221SOL     OW42693   7.531   6.844   1.022
10221SOL    HW142694   7.526   6.843   1.122
10221SOL    HW242695   7.448   6.803   0.984
10222SOL     OW42696   8.351   5.672   0.133
10222SOL    HW142697   8.402   5.673   0.047
10222SOL    HW242698   8.407   5.630   0.204
10223SOL     OW42699   9.174   5.721   0.523
10223SOL    HW142700   9.247   5.704   0.456
10223SOL    HW242701   9.143   5.634   0.561
10224SOL     OW42702   8.836   7.159   0.477
10224SOL    HW142703   8.903   7.171   0.403
10224SOL    HW242704   8.796   7.248   0.500
10225SOL     OW42705   8.728   6.513   0.672
10225SOL    HW142706   8.788   6.432   0.674
10225SOL    HW242707   8.768   6.582   0.612
10226SOL     OW42708   8.278   6.859   1.422
10226SOL    HW142709   8.273   6.892   1.517
10226SOL    HW242710   8.192   6.878   1.376
10227SOL     OW42711   8.120   7.202   0.154
10227SOL    HW142712   8.129   7.212   0.055
10227SOL    HW242713   8.080   7.113   0.175
10228SOL     OW42714   9.098   7.306   1.394
10228SOL    HW142715   9.151   7.316   1.310
10228SOL    HW242716   9.071   7.396   1.428
10229SOL     OW42717   9.289   5.761   0.963
10229SOL    HW142718   9.328   5.676   0.927
10229SOL    HW242719   9.191   5.763   0.944
10230SOL     OW42720   7.711   5.912   0.720
10230SOL    HW142721   7.632   5.963   0.686
10230SOL    HW242722   7.702   5.897   0.818
10231SOL     OW42723   8.642   7.198   0.031
10231SOL    HW142724   8.648   7.105   0.068
10231SOL    HW242725   8.583   7.198  -0.049
10232SOL     OW42726   8.270   6.588   1.372
10232SOL    HW142727   8.310   6.587   1.280
10232SOL    HW242728   8.280   6.680   1.412
10233SOL     OW42729   8.364   6.496   0.291
10233SOL    HW142730   8.427   6.534   0.223
10233SOL    HW242731   8.404   6.413   0.330
10234SOL     OW42732   8.952   7.193   0.044
10234SOL    HW142733   8.860   7.230   0.051
10234SOL    HW242734   8.990   7.213  -0.046
10235SOL     OW42735   9.062   6.878   1.289
10235SOL    HW142736   9.122   6.881   1.369
10235SOL    HW242737   8.987   6.942   1.302
10236SOL     OW42738   8.487   6.684   0.696
10236SOL    HW142739   8.417   6.637   0.750
10236SOL    HW242740   8.546   6.616   0.653
10237SOL     OW42741   8.462   5.822   0.971
10237SOL    HW142742   8.454   5.786   0.878
10237SOL    HW242743   8.460   5.746   1.036
10238SOL     OW42744   8.038   7.073   0.491
10238SOL    HW142745   8.080   7.015   0.421
10238SOL    HW242746   7.994   7.152   0.447
10239SOL     OW42747   7.703   6.934   0.290
10239SOL    HW142748   7.607   6.935   0.263
10239SOL    HW242749   7.715   6.987   0.374
10240SOL     OW42750   7.553   6.599   1.726
10240SOL    HW142751   7.476   6.566   1.780
10240SOL    HW242752   7.638   6.569   1.768
10241SOL     OW42753   7.523   5.931   0.033
10241SOL    HW142754   7.431   5.903   0.004
10241SOL    HW242755   7.554   6.008  -0.023
10242SOL     OW42756   7.520   5.752   0.318
10242SOL    HW142757   7.503   5.835   0.264
10242SOL    HW242758   7.610   5.715   0.296
10243SOL     OW42759   8.631   6.921   0.119
10243SOL    HW142760   8.532   6.910   0.121
10243SOL    HW242761   8.665   6.936   0.212
10244SOL     OW42762   8.061   6.428   1.431
10244SOL    HW142763   8.117   6.509   1.414
10244SOL    HW242764   8.120   6.348   1.434
10245SOL     OW42765   8.941   7.353   0.959
10245SOL    HW142766   8.974   7.417   0.890
10245SOL    HW242767   9.007   7.347   1.034
10246SOL     OW42768   8.898   6.806   1.633
10246SOL    HW142769   8.889   6.796   1.732
10246SOL    HW242770   8.994   6.799   1.607
10247SOL     OW42771   7.838   7.327   1.560
10247SOL    HW142772   7.747   7.368   1.558
10247SOL    HW242773   7.831   7.233   1.592
10248SOL     OW42774   8.673   5.911   0.449
10248SOL    HW142775   8.738   5.837   0.438
10248SOL    HW242776   8.693   5.961   0.533
10249SOL     OW42777   8.042   6.331   0.652
10249SOL    HW142778   8.092   6.416   0.633
10249SOL    HW242779   7.954   6.333   0.604
10250SOL     OW42780   9.225   5.928   1.642
10250SOL    HW142781   9.208   5.959   1.548
10250SOL    HW242782   9.141   5.891   1.680
10251SOL     OW42783   8.307   6.960   0.016
10251SOL    HW142784   8.261   6.975   0.104
10251SOL    HW242785   8.351   7.045  -0.014
10252SOL     OW42786   8.109   7.376   0.953
10252SOL    HW142787   8.063   7.464   0.940
10252SOL    HW242788   8.208   7.388   0.946
10253SOL     OW42789   8.307   6.542   0.861
10253SOL    HW142790   8.361   6.473   0.909
10253SOL    HW242791   8.275   6.611   0.927
10254SOL     OW42792   8.531   6.570   0.087
10254SOL    HW142793   8.508   6.623   0.005
10254SOL    HW242794   8.612   6.514   0.068
10255SOL     OW42795   9.309   7.155   0.851
10255SOL    HW142796   9.238   7.143   0.781
10255SOL    HW242797   9.310   7.076   0.911
10256SOL     OW42798   7.527   6.826   0.653
10256SOL    HW142799   7.526   6.779   0.741
10256SOL    HW242800   7.609   6.798   0.602
10257SOL     OW42801   8.120   6.977   1.624
10257SOL    HW142802   8.042   6.927   1.662
10257SOL    HW242803   8.117   7.072   1.655
10258SOL     OW42804   7.876   6.010   0.520
10258SOL    HW142805   7.906   5.938   0.458
10258SOL    HW242806   7.837   5.970   0.603
10259SOL     OW42807   9.153   7.073   1.104
10259SOL    HW142808   9.060   7.048   1.077
10259SOL    HW242809   9.179   7.023   1.186
10260SOL     OW42810   7.765   6.133   1.280
10260SOL    HW142811   7.803   6.074   1.352
10260SOL    HW242812   7.805   6.107   1.192
10261SOL     OW42813   8.260   7.172   0.687
10261SOL    HW142814   8.292   7.182   0.593
10261SOL    HW242815   8.181   7.110   0.689
10262SOL     OW42816   8.872   5.800   1.112
10262SOL    HW142817   8.924   5.735   1.167
10262SOL    HW242818   8.823   5.863   1.173
10263SOL     OW42819   8.218   6.916   0.301
10263SOL    HW142820   8.172   6.829   0.318
10263SOL    HW242821   8.309   6.913   0.342
10264SOL     OW42822   8.066   7.153   1.284
10264SOL    HW142823   8.061   7.235   1.341
10264SOL    HW242824   8.155   7.150   1.239
10265SOL     OW42825   8.800   5.638   0.168
10265SOL    HW142826   8.835   5.597   0.084
10265SOL    HW242827   8.710   5.600   0.188
10266SOL     OW42828   8.748   6.039   0.691
10266SOL    HW142829   8.689   6.119   0.695
10266SOL    HW242830   8.763   6.004   0.784
10267SOL     OW42831   9.041   5.807   0.882
10267SOL    HW142832   8.957   5.806   0.936
10267SOL    HW242833   9.043   5.890   0.826
10268SOL     OW42834   7.487   6.663   0.300
10268SOL    HW142835   7.586   6.652   0.291
10268SOL    HW242836   7.447   6.577   0.332
10269SOL     OW42837   8.323   7.232   0.337
10269SOL    HW142838   8.246   7.197   0.283
10269SOL    HW242839   8.291   7.303   0.399
10270SOL     OW42840   8.298   6.384   3.685
10270SOL    HW142841   8.294   6.460   3.750
10270SOL    HW242842   8.320   6.420   3.594
10271SOL     OW42843   8.908   7.091   3.201
10271SOL    HW142844   8.932   7.185   3.227
10271SOL    HW242845   8.892   7.037   3.283
10272SOL     OW42846   8.575   6.927   3.552
10272SOL    HW142847   8.622   6.927   3.640
10272SOL    HW242848   8.527   6.840   3.541
10273SOL     OW42849   8.068   7.372   3.301
10273SOL    HW142850   7.976   7.355   3.336
10273SOL    HW242851   8.096   7.464   3.327
10274SOL     OW42852   9.042   5.700   3.342
10274SOL    HW142853   9.024   5.767   3.270
10274SOL    HW242854   9.039   5.746   3.431
10275SOL     OW42855   7.570   6.229   2.425
10275SOL    HW142856   7.525   6.141   2.442
10275SOL    HW242857   7.569   6.283   2.509
10276SOL     OW42858   8.061   6.951   2.588
10276SOL    HW142859   8.012   6.864   2.597
10276SOL    HW242860   8.038   6.994   2.501
10277SOL     OW42861   8.257   5.590   2.364
10277SOL    HW142862   8.297   5.681   2.355
10277SOL    HW242863   8.157   5.598   2.370
10278SOL     OW42864   8.729   5.931   2.806
10278SOL    HW142865   8.643   5.881   2.793
10278SOL    HW242866   8.791   5.877   2.862
10279SOL     OW42867   8.842   6.055   3.536
10279SOL    HW142868   8.822   6.098   3.624
10279SOL    HW242869   8.920   5.993   3.545
10280SOL     OW42870   8.421   6.476   3.434
10280SOL    HW142871   8.467   6.392   3.405
10280SOL    HW242872   8.365   6.510   3.359
10281SOL     OW42873   8.489   6.287   2.291
10281SOL    HW142874   8.515   6.283   2.387
10281SOL    HW242875   8.404   6.236   2.277
10282SOL     OW42876   7.578   7.407   3.433
10282SOL    HW142877   7.568   7.392   3.532
10282SOL    HW242878   7.492   7.443   3.397
10283SOL     OW42879   7.998   5.782   2.747
10283SOL    HW142880   7.993   5.777   2.847
10283SOL    HW242881   8.000   5.878   2.718
10284SOL     OW42882   8.456   7.042   2.339
10284SOL    HW142883   8.410   7.114   2.287
10284SOL    HW242884   8.452   7.062   2.437
10285SOL     OW42885   7.799   7.387   2.715
10285SOL    HW142886   7.849   7.301   2.721
10285SOL    HW242887   7.864   7.464   2.712
10286SOL     OW42888   7.769   6.529   2.104
10286SOL    HW142889   7.851   6.568   2.062
10286SOL    HW242890   7.742   6.447   2.055
10287SOL     OW42891   7.909   6.852   3.589
10287SOL    HW142892   7.859   6.853   3.503
10287SOL    HW242893   7.846   6.834   3.665
10288SOL     OW42894   9.080   6.963   1.943
10288SOL    HW142895   9.048   7.057   1.933
10288SOL    HW242896   9.004   6.900   1.931
10289SOL     OW42897   8.848   5.693   2.288
10289SOL    HW142898   8.824   5.656   2.198
10289SOL    HW242899   8.947   5.709   2.292
10290SOL     OW42900   8.388   7.284   2.766
10290SOL    HW142901   8.468   7.227   2.787
10290SOL    HW242902   8.339   7.244   2.689
10291SOL     OW42903   7.830   6.286   2.342
10291SOL    HW142904   7.875   6.196   2.339
10291SOL    HW242905   7.736   6.275   2.375
10292SOL     OW42906   8.229   5.850   3.611
10292SOL    HW142907   8.296   5.789   3.654
10292SOL    HW242908   8.156   5.869   3.676
10293SOL     OW42909   8.799   6.176   3.295
10293SOL    HW142910   8.827   6.133   3.380
10293SOL    HW242911   8.824   6.272   3.296
10294SOL     OW42912   7.745   5.621   2.033
10294SOL    HW142913   7.794   5.705   2.012
10294SOL    HW242914   7.807   5.556   2.078
10295SOL     OW42915   7.907   6.738   2.603
10295SOL    HW142916   7.836   6.711   2.668
10295SOL    HW242917   7.881   6.710   2.510
10296SOL     OW42918   7.526   6.142   3.248
10296SOL    HW142919   7.618   6.141   3.207
10296SOL    HW242920   7.520   6.216   3.315
10297SOL     OW42921   8.914   6.176   2.854
10297SOL    HW142922   8.884   6.081   2.861
10297SOL    HW242923   8.987   6.192   2.920
10298SOL     OW42924   9.040   7.215   3.487
10298SOL    HW142925   9.067   7.249   3.397
10298SOL    HW242926   9.119   7.177   3.533
10299SOL     OW42927   8.428   6.702   3.581
10299SOL    HW142928   8.329   6.708   3.591
10299SOL    HW242929   8.451   6.622   3.525
10300SOL     OW42930   7.815   6.686   2.363
10300SOL    HW142931   7.808   6.769   2.307
10300SOL    HW242932   7.819   6.606   2.303
10301SOL     OW42933   8.014   6.123   2.727
10301SOL    HW142934   8.026   6.189   2.653
10301SOL    HW242935   8.060   6.157   2.810
10302SOL     OW42936   8.021   6.456   2.891
10302SOL    HW142937   8.065   6.545   2.882
10302SOL    HW242938   7.958   6.456   2.968
10303SOL     OW42939   8.808   6.448   2.907
10303SOL    HW142940   8.733   6.448   2.841
10303SOL    HW242941   8.845   6.356   2.916
10304SOL     OW42942   8.471   6.352   2.828
10304SOL    HW142943   8.486   6.373   2.924
10304SOL    HW242944   8.441   6.257   2.819
10305SOL     OW42945   9.307   7.104   3.467
10305SOL    HW142946   9.321   7.131   3.372
10305SOL    HW242947   9.390   7.126   3.520
10306SOL     OW42948   7.798   6.484   3.666
10306SOL    HW142949   7.874   6.528   3.714
10306SOL    HW242950   7.833   6.437   3.584
10307SOL     OW42951   8.988   5.860   1.987
10307SOL    HW142952   8.927   5.785   2.010
10307SOL    HW242953   9.010   5.912   2.070
10308SOL     OW42954   8.516   6.919   2.711
10308SOL    HW142955   8.523   6.835   2.656
10308SOL    HW242956   8.578   6.988   2.675
10309SOL     OW42957   7.767   6.396   2.811
10309SOL    HW142958   7.860   6.432   2.816
10309SOL    HW242959   7.761   6.311   2.863
10310SOL     OW42960   8.586   5.966   3.540
10310SOL    HW142961   8.541   6.029   3.604
10310SOL    HW242962   8.679   5.997   3.523
10311SOL     OW42963   8.608   5.793   3.339
10311SOL    HW142964   8.608   5.857   3.416
10311SOL    HW242965   8.636   5.841   3.256
10312SOL     OW42966   7.536   7.387   2.789
10312SOL    HW142967   7.494   7.301   2.762
10312SOL    HW242968   7.630   7.390   2.755
10313SOL     OW42969   7.952   7.154   2.772
10313SOL    HW142970   8.018   7.228   2.781
10313SOL    HW242971   7.996   7.075   2.730
10314SOL     OW42972   8.450   6.382   3.100
10314SOL    HW142973   8.491   6.350   3.186
10314SOL    HW242974   8.354   6.355   3.097
10315SOL     OW42975   8.817   6.536   3.522
10315SOL    HW142976   8.856   6.625   3.542
10315SOL    HW242977   8.827   6.516   3.425
10316SOL     OW42978   7.700   7.150   3.606
10316SOL    HW142979   7.670   7.207   3.682
10316SOL    HW242980   7.693   7.053   3.632
10317SOL     OW42981   8.119   6.050   3.131
10317SOL    HW142982   8.085   5.961   3.101
10317SOL    HW242983   8.145   6.104   3.051
10318SOL     OW42984   7.531   6.844   2.884
10318SOL    HW142985   7.526   6.843   2.984
10318SOL    HW242986   7.448   6.803   2.846
10319SOL     OW42987   7.711   5.912   2.582
10319SOL    HW142988   7.632   5.963   2.548
10319SOL    HW242989   7.702   5.897   2.680
10320SOL     OW42990   8.462   5.822   2.833
10320SOL    HW142991   8.454   5.786   2.740
10320SOL    HW242992   8.460   5.746   2.898
10321SOL     OW42993   8.038   7.073   2.353
10321SOL    HW142994   8.080   7.015   2.283
10321SOL    HW242995   7.994   7.152   2.309
10322SOL     OW42996   8.120   5.789   3.351
10322SOL    HW142997   8.210   5.773   3.311
10322SOL    HW242998   8.128   5.794   3.450
10323SOL     OW42999   8.631   6.921   1.981
10323SOL    HW143000   8.532   6.910   1.983
10323SOL    HW243001   8.665   6.936   2.074
10324SOL     OW43002   8.941   7.353   2.821
10324SOL    HW143003   8.974   7.417   2.752
10324SOL    HW243004   9.007   7.347   2.896
10325SOL     OW43005   8.898   6.806   3.495
10325SOL    HW143006   8.889   6.796   3.594
10325SOL    HW243007   8.994   6.799   3.469
10326SOL     OW43008   7.838   7.327   3.422
10326SOL    HW143009   7.747   7.368   3.420
10326SOL    HW243010   7.831   7.233   3.454
10327SOL     OW43011   9.122   6.469   3.116
10327SOL    HW143012   9.095   6.380   3.079
10327SOL    HW243013   9.123   6.537   3.043
10328SOL     OW43014   8.307   6.960   1.878
10328SOL    HW143015   8.261   6.975   1.966
10328SOL    HW243016   8.351   7.045   1.848
10329SOL     OW43017   8.109   7.376   2.815
10329SOL    HW143018   8.063   7.464   2.802
10329SOL    HW243019   8.208   7.388   2.808
10330SOL     OW43020   9.309   7.155   2.713
10330SOL    HW143021   9.238   7.143   2.643
10330SOL    HW243022   9.310   7.076   2.773
10331SOL     OW43023   7.527   6.826   2.515
10331SOL    HW143024   7.526   6.779   2.603
10331SOL    HW243025   7.609   6.798   2.464
10332SOL     OW43026   9.272   5.778   3.089
10332SOL    HW143027   9.268   5.688   3.133
10332SOL    HW243028   9.275   5.767   2.990
10333SOL     OW43029   8.449   5.620   3.016
10333SOL    HW143030   8.386   5.548   2.985
10333SOL    HW243031   8.542   5.584   3.016
10334SOL     OW43032   8.800   5.638   2.030
10334SOL    HW143033   8.835   5.597   1.946
10334SOL    HW243034   8.710   5.600   2.050
10335SOL     OW43035   8.017   6.861   4.889
10335SOL    HW143036   7.924   6.854   4.852
10335SOL    HW243037   8.028   6.950   4.933
10336SOL     OW43038   8.216   6.730   4.747
10336SOL    HW143039   8.138   6.747   4.807
10336SOL    HW243040   8.250   6.817   4.711
10337SOL     OW43041   8.133   6.598   4.389
10337SOL    HW143042   8.202   6.582   4.459
10337SOL    HW243043   8.060   6.655   4.427
10338SOL     OW43044   8.134   6.747   5.527
10338SOL    HW143045   8.194   6.826   5.541
10338SOL    HW243046   8.048   6.778   5.486
10339SOL     OW43047   8.908   7.091   5.063
10339SOL    HW143048   8.932   7.185   5.089
10339SOL    HW243049   8.892   7.037   5.145
10340SOL     OW43050   8.575   6.927   5.414
10340SOL    HW143051   8.622   6.927   5.502
10340SOL    HW243052   8.527   6.840   5.403
10341SOL     OW43053   7.678   7.020   4.262
10341SOL    HW143054   7.652   7.116   4.262
10341SOL    HW243055   7.607   6.966   4.307
10342SOL     OW43056   8.068   7.372   5.163
10342SOL    HW143057   7.976   7.355   5.198
10342SOL    HW243058   8.096   7.464   5.189
10343SOL     OW43059   7.475   7.182   3.841
10343SOL    HW143060   7.456   7.086   3.862
10343SOL    HW243061   7.442   7.240   3.916
10344SOL     OW43062   7.561   6.323   5.321
10344SOL    HW143063   7.649   6.310   5.366
10344SOL    HW243064   7.548   6.420   5.299
10345SOL     OW43065   8.741   6.814   5.147
10345SOL    HW143066   8.778   6.741   5.089
10345SOL    HW243067   8.793   6.819   5.232
10346SOL     OW43068   7.645   6.562   4.988
10346SOL    HW143069   7.734   6.517   4.974
10346SOL    HW243070   7.572   6.497   4.969
10347SOL     OW43071   8.635   7.378   5.340
10347SOL    HW143072   8.659   7.438   5.264
10347SOL    HW243073   8.642   7.283   5.310
10348SOL     OW43074   7.765   5.837   5.525
10348SOL    HW143075   7.836   5.908   5.531
10348SOL    HW243076   7.677   5.876   5.553
10349SOL     OW43077   8.842   6.055   5.398
10349SOL    HW143078   8.822   6.098   5.486
10349SOL    HW243079   8.920   5.993   5.407
10350SOL     OW43080   7.578   7.407   5.295
10350SOL    HW143081   7.568   7.392   5.394
10350SOL    HW243082   7.492   7.443   5.259
10351SOL     OW43083   8.313   5.934   3.919
10351SOL    HW143084   8.372   5.997   3.870
10351SOL    HW243085   8.332   5.840   3.890
10352SOL     OW43086   9.167   6.171   5.555
10352SOL    HW143087   9.141   6.260   5.519
10352SOL    HW243088   9.165   6.103   5.482
10353SOL     OW43089   7.998   5.782   4.609
10353SOL    HW143090   7.993   5.777   4.709
10353SOL    HW243091   8.000   5.878   4.580
10354SOL     OW43092   9.243   6.652   4.597
10354SOL    HW143093   9.181   6.637   4.521
10354SOL    HW243094   9.191   6.663   4.682
10355SOL     OW43095   8.675   7.136   5.230
10355SOL    HW143096   8.681   7.059   5.294
10355SOL    HW243097   8.623   7.110   5.150
10356SOL     OW43098   7.769   6.529   3.966
10356SOL    HW143099   7.851   6.568   3.924
10356SOL    HW243100   7.742   6.447   3.917
10357SOL     OW43101   7.650   5.871   5.222
10357SOL    HW143102   7.570   5.931   5.209
10357SOL    HW243103   7.640   5.822   5.308
10358SOL     OW43104   7.697   7.371   4.965
10358SOL    HW143105   7.754   7.306   5.015
10358SOL    HW243106   7.681   7.338   4.872
10359SOL     OW43107   8.995   5.808   5.453
10359SOL    HW143108   8.990   5.845   5.545
10359SOL    HW243109   8.923   5.739   5.441
10360SOL     OW43110   8.336   7.100   4.919
10360SOL    HW143111   8.313   7.075   4.825
10360SOL    HW243112   8.397   7.031   4.958
10361SOL     OW43113   8.799   6.176   5.157
10361SOL    HW143114   8.827   6.133   5.242
10361SOL    HW243115   8.824   6.272   5.158
10362SOL     OW43116   8.370   6.089   4.623
10362SOL    HW143117   8.345   6.080   4.527
10362SOL    HW243118   8.418   6.007   4.654
10363SOL     OW43119   8.882   6.774   3.765
10363SOL    HW143120   8.914   6.698   3.822
10363SOL    HW243121   8.790   6.801   3.795
10364SOL     OW43122   8.383   5.822   4.204
10364SOL    HW143123   8.335   5.863   4.126
10364SOL    HW243124   8.482   5.820   4.185
10365SOL     OW43125   8.719   7.383   4.315
10365SOL    HW143126   8.763   7.447   4.251
10365SOL    HW243127   8.669   7.435   4.385
10366SOL     OW43128   8.480   6.135   3.740
10366SOL    HW143129   8.439   6.217   3.701
10366SOL    HW243130   8.544   6.161   3.813
10367SOL     OW43131   8.465   5.625   4.477
10367SOL    HW143132   8.393   5.630   4.408
10367SOL    HW243133   8.441   5.556   4.546
10368SOL     OW43134   8.838   6.161   3.802
10368SOL    HW143135   8.784   6.140   3.883
10368SOL    HW243136   8.929   6.120   3.811
10369SOL     OW43137   7.975   5.842   4.052
10369SOL    HW143138   8.002   5.783   3.977
10369SOL    HW243139   7.975   5.937   4.021
10370SOL     OW43140   8.512   6.933   5.064
10370SOL    HW143141   8.432   6.910   5.119
10370SOL    HW243142   8.595   6.907   5.113
10371SOL     OW43143   9.040   7.215   5.349
10371SOL    HW143144   9.067   7.249   5.259
10371SOL    HW243145   9.119   7.177   5.395
10372SOL     OW43146   8.559   6.781   4.824
10372SOL    HW143147   8.519   6.825   4.905
10372SOL    HW243148   8.518   6.818   4.741
10373SOL     OW43149   8.428   6.702   5.443
10373SOL    HW143150   8.329   6.708   5.453
10373SOL    HW243151   8.451   6.622   5.387
10374SOL     OW43152   8.720   7.031   4.866
10374SOL    HW143153   8.767   7.044   4.953
10374SOL    HW243154   8.654   6.957   4.875
10375SOL     OW43155   9.030   6.225   4.196
10375SOL    HW143156   8.999   6.286   4.269
10375SOL    HW243157   9.080   6.277   4.127
10376SOL     OW43158   9.035   6.365   5.394
10376SOL    HW143159   8.943   6.403   5.389
10376SOL    HW243160   9.095   6.412   5.329
10377SOL     OW43161   8.021   6.456   4.753
10377SOL    HW143162   8.065   6.545   4.744
10377SOL    HW243163   7.958   6.456   4.830
10378SOL     OW43164   9.176   6.521   5.578
10378SOL    HW143165   9.130   6.514   5.489
10378SOL    HW243166   9.114   6.565   5.644
10379SOL     OW43167   7.755   5.649   4.342
10379SOL    HW143168   7.744   5.743   4.375
10379SOL    HW243169   7.750   5.586   4.419
10380SOL     OW43170   9.070   5.953   4.098
10380SOL    HW143171   9.072   5.877   4.162
10380SOL    HW243172   9.022   6.030   4.138
10381SOL     OW43173   8.428   7.159   5.424
10381SOL    HW143174   8.408   7.203   5.336
10381SOL    HW243175   8.467   7.068   5.408
10382SOL     OW43176   9.307   7.104   5.329
10382SOL    HW143177   9.321   7.131   5.234
10382SOL    HW243178   9.390   7.126   5.382
10383SOL     OW43179   7.767   6.396   4.673
10383SOL    HW143180   7.860   6.432   4.678
10383SOL    HW243181   7.761   6.311   4.725
10384SOL     OW43182   8.586   5.966   5.402
10384SOL    HW143183   8.541   6.029   5.466
10384SOL    HW243184   8.679   5.997   5.385
10385SOL     OW43185   8.608   5.793   5.201
10385SOL    HW143186   8.608   5.857   5.278
10385SOL    HW243187   8.636   5.841   5.118
10386SOL     OW43188   7.536   7.387   4.651
10386SOL    HW143189   7.494   7.301   4.624
10386SOL    HW243190   7.630   7.390   4.617
10387SOL     OW43191   8.450   6.382   4.962
10387SOL    HW143192   8.491   6.350   5.048
10387SOL    HW243193   8.354   6.355   4.959
10388SOL     OW43194   7.637   6.106   5.446
10388SOL    HW143195   7.696   6.066   5.376
10388SOL    HW243196   7.579   6.177   5.405
10389SOL     OW43197   8.817   6.536   5.384
10389SOL    HW143198   8.856   6.625   5.404
10389SOL    HW243199   8.827   6.516   5.287
10390SOL     OW43200   8.378   7.264   5.189
10390SOL    HW143201   8.354   7.246   5.094
10390SOL    HW243202   8.408   7.358   5.199
10391SOL     OW43203   7.921   6.086   3.915
10391SOL    HW143204   7.982   6.166   3.919
10391SOL    HW243205   7.826   6.117   3.922
10392SOL     OW43206   8.795   6.645   4.958
10392SOL    HW143207   8.819   6.582   4.884
10392SOL    HW243208   8.705   6.685   4.940
10393SOL     OW43209   8.136   7.248   5.440
10393SOL    HW143210   8.080   7.329   5.449
10393SOL    HW243211   8.188   7.252   5.354
10394SOL     OW43212   8.836   7.159   4.201
10394SOL    HW143213   8.903   7.171   4.127
10394SOL    HW243214   8.796   7.248   4.224
10395SOL     OW43215   7.578   7.380   5.575
10395SOL    HW143216   7.537   7.306   5.628
10395SOL    HW243217   7.642   7.431   5.633
10396SOL     OW43218   8.278   6.859   5.146
10396SOL    HW143219   8.273   6.892   5.241
10396SOL    HW243220   8.192   6.878   5.100
10397SOL     OW43221   9.098   7.306   5.118
10397SOL    HW143222   9.151   7.316   5.034
10397SOL    HW243223   9.071   7.396   5.152
10398SOL     OW43224   8.270   6.588   5.096
10398SOL    HW143225   8.310   6.587   5.004
10398SOL    HW243226   8.280   6.680   5.136
10399SOL     OW43227   8.364   6.496   4.015
10399SOL    HW143228   8.427   6.534   3.947
10399SOL    HW243229   8.404   6.413   4.054
10400SOL     OW43230   8.952   7.193   3.768
10400SOL    HW143231   8.860   7.230   3.775
10400SOL    HW243232   8.990   7.213   3.678
10401SOL     OW43233   9.157   5.971   5.105
10401SOL    HW143234   9.230   6.040   5.109
10401SOL    HW243235   9.185   5.896   5.046
10402SOL     OW43236   7.703   6.934   4.014
10402SOL    HW143237   7.607   6.935   3.987
10402SOL    HW243238   7.715   6.987   4.098
10403SOL     OW43239   8.888   6.442   5.122
10403SOL    HW143240   8.831   6.494   5.059
10403SOL    HW243241   8.984   6.454   5.098
10404SOL     OW43242   7.520   5.752   4.042
10404SOL    HW143243   7.503   5.835   3.988
10404SOL    HW243244   7.610   5.715   4.020
10405SOL     OW43245   8.164   6.151   5.432
10405SOL    HW143246   8.183   6.216   5.506
10405SOL    HW243247   8.224   6.071   5.441
10406SOL     OW43248   8.898   6.806   5.357
10406SOL    HW143249   8.889   6.796   5.456
10406SOL    HW243250   8.994   6.799   5.331
10407SOL     OW43251   8.673   5.911   4.173
10407SOL    HW143252   8.738   5.837   4.162
10407SOL    HW243253   8.693   5.961   4.257
10408SOL     OW43254   9.225   5.928   5.366
10408SOL    HW143255   9.208   5.959   5.272
10408SOL    HW243256   9.141   5.891   5.404
10409SOL     OW43257   9.178   6.520   5.241
10409SOL    HW143258   9.216   6.611   5.256
10409SOL    HW243259   9.170   6.503   5.142
10410SOL     OW43260   8.307   6.960   3.740
10410SOL    HW143261   8.261   6.975   3.828
10410SOL    HW243262   8.351   7.045   3.710
10411SOL     OW43263   8.531   6.570   3.811
10411SOL    HW143264   8.508   6.623   3.729
10411SOL    HW243265   8.612   6.514   3.792
10412SOL     OW43266   7.669   6.900   5.568
10412SOL    HW143267   7.604   6.827   5.547
10412SOL    HW243268   7.673   6.914   5.666
10413SOL     OW43269   8.120   6.977   5.348
10413SOL    HW143270   8.042   6.927   5.386
10413SOL    HW243271   8.117   7.072   5.379
10414SOL     OW43272   8.066   7.153   5.008
10414SOL    HW143273   8.061   7.235   5.065
10414SOL    HW243274   8.155   7.150   4.963
10415SOL     OW43275   8.748   6.039   4.415
10415SOL    HW143276   8.689   6.119   4.419
10415SOL    HW243277   8.763   6.004   4.508
10416SOL     OW43278   7.487   6.663   4.024
10416SOL    HW143279   7.586   6.652   4.015
10416SOL    HW243280   7.447   6.577   4.056
10417SOL     OW43281   7.678   6.214   5.699
10417SOL    HW143282   7.585   6.212   5.736
10417SOL    HW243283   7.679   6.175   5.607
10418SOL     OW43284   7.673   5.861   6.582
10418SOL    HW143285   7.708   5.844   6.674
10418SOL    HW243286   7.585   5.816   6.570
10419SOL     OW43287   7.467   5.954   6.233
10419SOL    HW143288   7.385   5.997   6.272
10419SOL    HW243289   7.439   5.881   6.170
10420SOL     OW43290   8.017   6.861   6.751
10420SOL    HW143291   7.924   6.854   6.714
10420SOL    HW243292   8.028   6.950   6.795
10421SOL     OW43293   9.003   7.097   6.289
10421SOL    HW143294   8.946   7.081   6.370
10421SOL    HW243295   8.944   7.107   6.209
10422SOL     OW43296   8.583   6.289   6.303
10422SOL    HW143297   8.640   6.367   6.278
10422SOL    HW243298   8.523   6.315   6.379
10423SOL     OW43299   9.203   6.193   5.817
10423SOL    HW143300   9.191   6.180   5.718
10423SOL    HW243301   9.173   6.112   5.866
10424SOL     OW43302   8.216   6.730   6.609
10424SOL    HW143303   8.138   6.747   6.669
10424SOL    HW243304   8.250   6.817   6.573
10425SOL     OW43305   8.133   6.598   6.251
10425SOL    HW143306   8.202   6.582   6.321
10425SOL    HW243307   8.060   6.655   6.289
10426SOL     OW43308   7.783   7.021   6.647
10426SOL    HW143309   7.705   6.990   6.594
10426SOL    HW243310   7.841   7.079   6.590
10427SOL     OW43311   7.886   5.978   7.085
10427SOL    HW143312   7.968   5.922   7.094
10427SOL    HW243313   7.805   5.920   7.089
10428SOL     OW43314   9.051   6.033   6.323
10428SOL    HW143315   8.977   6.079   6.273
10428SOL    HW243316   9.102   6.101   6.376
10429SOL     OW43317   7.679   7.299   6.069
10429SOL    HW143318   7.713   7.376   6.123
10429SOL    HW243319   7.723   7.299   5.979
10430SOL     OW43320   7.678   7.020   6.124
10430SOL    HW143321   7.652   7.116   6.124
10430SOL    HW243322   7.607   6.966   6.169
10431SOL     OW43323   7.688   6.677   6.472
10431SOL    HW143324   7.702   6.593   6.524
10431SOL    HW243325   7.633   6.741   6.527
10432SOL     OW43326   8.068   7.372   7.025
10432SOL    HW143327   7.976   7.355   7.060
10432SOL    HW243328   8.096   7.464   7.051
10433SOL     OW43329   8.054   6.550   5.709
10433SOL    HW143330   8.061   6.634   5.655
10433SOL    HW243331   8.100   6.563   5.797
10434SOL     OW43332   7.570   6.229   6.149
10434SOL    HW143333   7.525   6.141   6.166
10434SOL    HW243334   7.569   6.283   6.233
10435SOL     OW43335   9.290   7.353   5.945
10435SOL    HW143336   9.344   7.324   6.025
10435SOL    HW243337   9.320   7.443   5.916
10436SOL     OW43338   9.137   6.508   6.198
10436SOL    HW143339   9.232   6.479   6.206
10436SOL    HW243340   9.129   6.573   6.123
10437SOL     OW43341   9.089   6.694   6.018
10437SOL    HW143342   9.175   6.696   5.966
10437SOL    HW243343   9.103   6.741   6.106
10438SOL     OW43344   8.061   6.951   6.312
10438SOL    HW143345   8.012   6.864   6.321
10438SOL    HW243346   8.038   6.994   6.225
10439SOL     OW43347   8.257   5.590   6.088
10439SOL    HW143348   8.297   5.681   6.079
10439SOL    HW243349   8.157   5.598   6.094
10440SOL     OW43350   7.645   6.562   6.850
10440SOL    HW143351   7.734   6.517   6.836
10440SOL    HW243352   7.572   6.497   6.831
10441SOL     OW43353   8.973   6.585   5.776
10441SOL    HW143354   8.910   6.509   5.789
10441SOL    HW243355   9.021   6.603   5.862
10442SOL     OW43356   8.914   7.003   6.539
10442SOL    HW143357   8.855   7.009   6.619
10442SOL    HW243358   8.899   6.915   6.493
10443SOL     OW43359   9.115   7.300   6.158
10443SOL    HW143360   9.074   7.277   6.070
10443SOL    HW243361   9.097   7.226   6.223
10444SOL     OW43362   8.046   6.315   5.856
10444SOL    HW143363   8.070   6.384   5.788
10444SOL    HW243364   7.968   6.348   5.910
10445SOL     OW43365   8.729   5.931   6.530
10445SOL    HW143366   8.643   5.881   6.517
10445SOL    HW243367   8.791   5.877   6.586
10446SOL     OW43368   9.024   7.248   5.893
10446SOL    HW143369   9.113   7.294   5.896
10446SOL    HW243370   9.003   7.224   5.798
10447SOL     OW43371   8.255   6.191   7.051
10447SOL    HW143372   8.208   6.188   7.140
10447SOL    HW243373   8.204   6.136   6.985
10448SOL     OW43374   8.439   5.996   6.828
10448SOL    HW143375   8.362   6.030   6.882
10448SOL    HW243376   8.405   5.945   6.749
10449SOL     OW43377   8.489   6.287   6.015
10449SOL    HW143378   8.515   6.283   6.111
10449SOL    HW243379   8.404   6.236   6.001
10450SOL     OW43380   7.524   6.397   6.375
10450SOL    HW143381   7.623   6.385   6.384
10450SOL    HW243382   7.500   6.492   6.396
10451SOL     OW43383   7.578   7.407   7.157
10451SOL    HW143384   7.568   7.392   7.256
10451SOL    HW243385   7.492   7.443   7.121
10452SOL     OW43386   8.313   5.934   5.781
10452SOL    HW143387   8.372   5.997   5.732
10452SOL    HW243388   8.332   5.840   5.752
10453SOL     OW43389   8.810   6.730   6.131
10453SOL    HW143390   8.893   6.701   6.083
10453SOL    HW243391   8.761   6.797   6.075
10454SOL     OW43392   7.998   5.782   6.471
10454SOL    HW143393   7.993   5.777   6.571
10454SOL    HW243394   8.000   5.878   6.442
10455SOL     OW43395   8.456   7.042   6.063
10455SOL    HW143396   8.410   7.114   6.011
10455SOL    HW243397   8.452   7.062   6.161
10456SOL     OW43398   7.799   7.387   6.439
10456SOL    HW143399   7.849   7.301   6.445
10456SOL    HW243400   7.864   7.464   6.436
10457SOL     OW43401   9.243   6.652   6.459
10457SOL    HW143402   9.181   6.637   6.383
10457SOL    HW243403   9.191   6.663   6.544
10458SOL     OW43404   7.769   6.529   5.828
10458SOL    HW143405   7.851   6.568   5.786
10458SOL    HW243406   7.742   6.447   5.779
10459SOL     OW43407   8.906   6.321   6.314
10459SOL    HW143408   8.901   6.256   6.389
10459SOL    HW243409   8.986   6.380   6.327
10460SOL     OW43410   8.559   7.362   5.823
10460SOL    HW143411   8.499   7.300   5.873
10460SOL    HW243412   8.590   7.318   5.738
10461SOL     OW43413   9.080   6.963   5.667
10461SOL    HW143414   9.048   7.057   5.657
10461SOL    HW243415   9.004   6.900   5.655
10462SOL     OW43416   7.912   7.329   5.909
10462SOL    HW143417   7.945   7.368   5.995
10462SOL    HW243418   7.988   7.322   5.844
10463SOL     OW43419   8.848   5.693   6.012
10463SOL    HW143420   8.824   5.656   5.922
10463SOL    HW243421   8.947   5.709   6.016
10464SOL     OW43422   7.697   7.371   6.827
10464SOL    HW143423   7.754   7.306   6.877
10464SOL    HW243424   7.681   7.338   6.734
10465SOL     OW43425   8.388   7.284   6.490
10465SOL    HW143426   8.468   7.227   6.511
10465SOL    HW243427   8.339   7.244   6.413
10466SOL     OW43428   7.830   6.286   6.066
10466SOL    HW143429   7.875   6.196   6.063
10466SOL    HW243430   7.736   6.275   6.099
10467SOL     OW43431   8.336   7.100   6.781
10467SOL    HW143432   8.313   7.075   6.687
10467SOL    HW243433   8.397   7.031   6.820
10468SOL     OW43434   8.251   6.988   6.510
10468SOL    HW143435   8.341   7.002   6.468
10468SOL    HW243436   8.180   6.990   6.439
10469SOL     OW43437   8.370   6.089   6.485
10469SOL    HW143438   8.345   6.080   6.389
10469SOL    HW243439   8.418   6.007   6.516
10470SOL     OW43440   7.987   5.650   6.098
10470SOL    HW143441   7.906   5.651   6.156
10470SOL    HW243442   7.990   5.733   6.043
10471SOL     OW43443   8.882   6.774   5.627
10471SOL    HW143444   8.914   6.698   5.684
10471SOL    HW243445   8.790   6.801   5.657
10472SOL     OW43446   7.745   5.621   5.757
10472SOL    HW143447   7.794   5.705   5.736
10472SOL    HW243448   7.807   5.556   5.802
10473SOL     OW43449   8.383   5.822   6.066
10473SOL    HW143450   8.335   5.863   5.988
10473SOL    HW243451   8.482   5.820   6.047
10474SOL     OW43452   8.675   7.156   6.379
10474SOL    HW143453   8.696   7.230   6.314
10474SOL    HW243454   8.743   7.156   6.452
10475SOL     OW43455   7.907   6.738   6.327
10475SOL    HW143456   7.836   6.711   6.392
10475SOL    HW243457   7.881   6.710   6.234
10476SOL     OW43458   8.719   7.383   6.177
10476SOL    HW143459   8.763   7.447   6.113
10476SOL    HW243460   8.669   7.435   6.247
10477SOL     OW43461   8.009   5.808   6.733
10477SOL    HW143462   8.047   5.724   6.770
10477SOL    HW243463   7.921   5.827   6.777
10478SOL     OW43464   8.314   6.040   6.228
10478SOL    HW143465   8.282   6.112   6.166
10478SOL    HW243466   8.338   5.959   6.175
10479SOL     OW43467   8.465   5.625   6.339
10479SOL    HW143468   8.393   5.630   6.270
10479SOL    HW243469   8.441   5.556   6.408
10480SOL     OW43470   8.877   6.759   6.453
10480SOL    HW143471   8.822   6.675   6.446
10480SOL    HW243472   8.903   6.788   6.361
10481SOL     OW43473   8.914   6.176   6.578
10481SOL    HW143474   8.884   6.081   6.585
10481SOL    HW243475   8.987   6.192   6.644
10482SOL     OW43476   9.305   6.419   5.963
10482SOL    HW143477   9.347   6.355   6.027
10482SOL    HW243478   9.267   6.368   5.885
10483SOL     OW43479   7.936   6.971   5.760
10483SOL    HW143480   7.849   6.956   5.807
10483SOL    HW243481   7.919   6.997   5.665
10484SOL     OW43482   9.112   6.866   6.243
10484SOL    HW143483   9.211   6.874   6.257
10484SOL    HW243484   9.067   6.950   6.274
10485SOL     OW43485   8.838   6.161   5.664
10485SOL    HW143486   8.784   6.140   5.745
10485SOL    HW243487   8.929   6.120   5.673
10486SOL     OW43488   7.975   5.842   5.914
10486SOL    HW143489   8.002   5.783   5.839
10486SOL    HW243490   7.975   5.937   5.883
10487SOL     OW43491   8.512   6.933   6.926
10487SOL    HW143492   8.432   6.910   6.981
10487SOL    HW243493   8.595   6.907   6.975
10488SOL     OW43494   8.559   6.781   6.686
10488SOL    HW143495   8.519   6.825   6.767
10488SOL    HW243496   8.518   6.818   6.603
10489SOL     OW43497   9.086   6.685   6.665
10489SOL    HW143498   9.091   6.766   6.724
10489SOL    HW243499   9.000   6.687   6.614
10490SOL     OW43500   8.153   6.636   5.954
10490SOL    HW143501   8.139   6.643   6.053
10490SOL    HW243502   8.237   6.585   5.936
10491SOL     OW43503   7.858   6.399   6.837
10491SOL    HW143504   7.944   6.411   6.887
10491SOL    HW243505   7.816   6.312   6.864
10492SOL     OW43506   8.722   5.972   6.848
10492SOL    HW143507   8.743   6.046   6.912
10492SOL    HW243508   8.633   5.989   6.805
10493SOL     OW43509   7.512   7.150   6.917
10493SOL    HW143510   7.466   7.232   6.883
10493SOL    HW243511   7.610   7.169   6.926
10494SOL     OW43512   7.815   6.686   6.087
10494SOL    HW143513   7.808   6.769   6.031
10494SOL    HW243514   7.819   6.606   6.027
10495SOL     OW43515   8.014   6.123   6.451
10495SOL    HW143516   8.026   6.189   6.377
10495SOL    HW243517   8.060   6.157   6.534
10496SOL     OW43518   8.700   6.934   5.974
10496SOL    HW143519   8.750   7.011   6.014
10496SOL    HW243520   8.605   6.936   6.006
10497SOL     OW43521   8.720   7.031   6.728
10497SOL    HW143522   8.767   7.044   6.815
10497SOL    HW243523   8.654   6.957   6.737
10498SOL     OW43524   9.030   6.225   6.058
10498SOL    HW143525   8.999   6.286   6.131
10498SOL    HW243526   9.080   6.277   5.989
10499SOL     OW43527   7.802   7.096   6.915
10499SOL    HW143528   7.781   7.052   6.828
10499SOL    HW243529   7.899   7.122   6.918
10500SOL     OW43530   7.952   5.636   7.326
10500SOL    HW143531   7.910   5.579   7.256
10500SOL    HW243532   7.886   5.705   7.358
10501SOL     OW43533   8.021   6.456   6.615
10501SOL    HW143534   8.065   6.545   6.606
10501SOL    HW243535   7.958   6.456   6.692
10502SOL     OW43536   8.808   6.448   6.631
10502SOL    HW143537   8.733   6.448   6.565
10502SOL    HW243538   8.845   6.356   6.640
10503SOL     OW43539   8.657   6.111   5.861
10503SOL    HW143540   8.670   6.027   5.915
10503SOL    HW243541   8.628   6.185   5.921
10504SOL     OW43542   7.755   5.799   6.817
10504SOL    HW143543   7.732   5.836   6.907
10504SOL    HW243544   7.725   5.704   6.811
10505SOL     OW43545   7.485   6.896   6.868
10505SOL    HW143546   7.538   6.847   6.936
10505SOL    HW243547   7.507   6.994   6.873
10506SOL     OW43548   8.180   6.220   6.650
10506SOL    HW143549   8.239   6.194   6.574
10506SOL    HW243550   8.152   6.316   6.639
10507SOL     OW43551   7.755   5.649   6.204
10507SOL    HW143552   7.744   5.743   6.237
10507SOL    HW243553   7.750   5.586   6.281
10508SOL     OW43554   9.070   5.953   5.960
10508SOL    HW143555   9.072   5.877   6.024
10508SOL    HW243556   9.022   6.030   6.000
10509SOL     OW43557   8.471   6.352   6.552
10509SOL    HW143558   8.486   6.373   6.648
10509SOL    HW243559   8.441   6.257   6.543
10510SOL     OW43560   8.988   5.860   5.711
10510SOL    HW143561   8.927   5.785   5.734
10510SOL    HW243562   9.010   5.912   5.794
10511SOL     OW43563   8.751   6.424   5.628
10511SOL    HW143564   8.785   6.331   5.643
10511SOL    HW243565   8.769   6.451   5.533
10512SOL     OW43566   8.516   6.919   6.435
10512SOL    HW143567   8.523   6.835   6.380
10512SOL    HW243568   8.578   6.988   6.399
10513SOL     OW43569   7.767   6.396   6.535
10513SOL    HW143570   7.860   6.432   6.540
10513SOL    HW243571   7.761   6.311   6.587
10514SOL     OW43572   7.787   6.095   6.592
10514SOL    HW143573   7.735   6.012   6.575
10514SOL    HW243574   7.864   6.100   6.528
10515SOL     OW43575   8.608   5.793   7.063
10515SOL    HW143576   8.608   5.857   7.140
10515SOL    HW243577   8.636   5.841   6.980
10516SOL     OW43578   7.456   6.912   5.786
10516SOL    HW143579   7.363   6.933   5.755
10516SOL    HW243580   7.466   6.813   5.799
10517SOL     OW43581   7.536   7.387   6.513
10517SOL    HW143582   7.494   7.301   6.486
10517SOL    HW243583   7.630   7.390   6.479
10518SOL     OW43584   7.952   7.154   6.496
10518SOL    HW143585   8.018   7.228   6.505
10518SOL    HW243586   7.996   7.075   6.454
10519SOL     OW43587   8.450   6.382   6.824
10519SOL    HW143588   8.491   6.350   6.910
10519SOL    HW243589   8.354   6.355   6.821
10520SOL     OW43590   7.488   6.130   6.700
10520SOL    HW143591   7.573   6.097   6.659
10520SOL    HW243592   7.501   6.145   6.798
10521SOL     OW43593   8.263   6.158   5.911
10521SOL    HW143594   8.270   6.069   5.865
10521SOL    HW243595   8.169   6.192   5.903
10522SOL     OW43596   9.105   6.190   6.792
10522SOL    HW143597   9.067   6.121   6.854
10522SOL    HW243598   9.187   6.154   6.748
10523SOL     OW43599   8.119   6.050   6.855
10523SOL    HW143600   8.085   5.961   6.825
10523SOL    HW243601   8.145   6.104   6.775
10524SOL     OW43602   8.378   7.264   7.051
10524SOL    HW143603   8.354   7.246   6.956
10524SOL    HW243604   8.408   7.358   7.061
10525SOL     OW43605   7.921   6.086   5.777
10525SOL    HW143606   7.982   6.166   5.781
10525SOL    HW243607   7.826   6.117   5.784
10526SOL     OW43608   7.607   6.723   7.052
10526SOL    HW143609   7.629   6.662   7.128
10526SOL    HW243610   7.617   6.674   6.966
10527SOL     OW43611   8.795   6.645   6.820
10527SOL    HW143612   8.819   6.582   6.746
10527SOL    HW243613   8.705   6.685   6.802
10528SOL     OW43614   8.750   6.441   5.895
10528SOL    HW143615   8.664   6.410   5.937
10528SOL    HW243616   8.746   6.427   5.796
10529SOL     OW43617   9.207   7.333   6.740
10529SOL    HW143618   9.268   7.363   6.667
10529SOL    HW243619   9.169   7.244   6.718
10530SOL     OW43620   8.700   7.317   6.714
10530SOL    HW143621   8.784   7.322   6.660
10530SOL    HW243622   8.677   7.221   6.732
10531SOL     OW43623   7.531   6.844   6.608
10531SOL    HW143624   7.526   6.843   6.708
10531SOL    HW243625   7.448   6.803   6.570
10532SOL     OW43626   9.174   5.721   6.109
10532SOL    HW143627   9.247   5.704   6.042
10532SOL    HW243628   9.143   5.634   6.147
10533SOL     OW43629   8.836   7.159   6.063
10533SOL    HW143630   8.903   7.171   5.989
10533SOL    HW243631   8.796   7.248   6.086
10534SOL     OW43632   8.728   6.513   6.258
10534SOL    HW143633   8.788   6.432   6.260
10534SOL    HW243634   8.768   6.582   6.198
10535SOL     OW43635   8.120   7.202   5.740
10535SOL    HW143636   8.129   7.212   5.641
10535SOL    HW243637   8.080   7.113   5.761
10536SOL     OW43638   9.289   5.761   6.549
10536SOL    HW143639   9.328   5.676   6.513
10536SOL    HW243640   9.191   5.763   6.530
10537SOL     OW43641   7.711   5.912   6.306
10537SOL    HW143642   7.632   5.963   6.272
10537SOL    HW243643   7.702   5.897   6.404
10538SOL     OW43644   8.642   7.198   5.617
10538SOL    HW143645   8.648   7.105   5.654
10538SOL    HW243646   8.583   7.198   5.537
10539SOL     OW43647   8.270   6.588   6.958
10539SOL    HW143648   8.310   6.587   6.866
10539SOL    HW243649   8.280   6.680   6.998
10540SOL     OW43650   8.364   6.496   5.877
10540SOL    HW143651   8.427   6.534   5.809
10540SOL    HW243652   8.404   6.413   5.916
10541SOL     OW43653   8.952   7.193   5.630
10541SOL    HW143654   8.860   7.230   5.637
10541SOL    HW243655   8.990   7.213   5.540
10542SOL     OW43656   7.820   6.874   7.076
10542SOL    HW143657   7.807   6.967   7.042
10542SOL    HW243658   7.736   6.822   7.063
10543SOL     OW43659   9.062   6.878   6.875
10543SOL    HW143660   9.122   6.881   6.955
10543SOL    HW243661   8.987   6.942   6.888
10544SOL     OW43662   8.487   6.684   6.282
10544SOL    HW143663   8.417   6.637   6.336
10544SOL    HW243664   8.546   6.616   6.239
10545SOL     OW43665   8.462   5.822   6.557
10545SOL    HW143666   8.454   5.786   6.464
10545SOL    HW243667   8.460   5.746   6.622
10546SOL     OW43668   8.038   7.073   6.077
10546SOL    HW143669   8.080   7.015   6.007
10546SOL    HW243670   7.994   7.152   6.033
10547SOL     OW43671   9.157   5.971   6.967
10547SOL    HW143672   9.230   6.040   6.971
10547SOL    HW243673   9.185   5.896   6.908
10548SOL     OW43674   7.703   6.934   5.876
10548SOL    HW143675   7.607   6.935   5.849
10548SOL    HW243676   7.715   6.987   5.960
10549SOL     OW43677   8.120   5.789   7.075
10549SOL    HW143678   8.210   5.773   7.035
10549SOL    HW243679   8.128   5.794   7.174
10550SOL     OW43680   7.523   5.931   5.619
10550SOL    HW143681   7.431   5.903   5.590
10550SOL    HW243682   7.554   6.008   5.563
10551SOL     OW43683   7.520   5.752   5.904
10551SOL    HW143684   7.503   5.835   5.850
10551SOL    HW243685   7.610   5.715   5.882
10552SOL     OW43686   8.631   6.921   5.705
10552SOL    HW143687   8.532   6.910   5.707
10552SOL    HW243688   8.665   6.936   5.798
10553SOL     OW43689   8.061   6.428   7.017
10553SOL    HW143690   8.117   6.509   7.000
10553SOL    HW243691   8.120   6.348   7.020
10554SOL     OW43692   8.941   7.353   6.545
10554SOL    HW143693   8.974   7.417   6.476
10554SOL    HW243694   9.007   7.347   6.620
10555SOL     OW43695   7.838   7.327   7.146
10555SOL    HW143696   7.747   7.368   7.144
10555SOL    HW243697   7.831   7.233   7.178
10556SOL     OW43698   9.122   6.469   6.840
10556SOL    HW143699   9.095   6.380   6.803
10556SOL    HW243700   9.123   6.537   6.767
10557SOL     OW43701   8.673   5.911   6.035
10557SOL    HW143702   8.738   5.837   6.024
10557SOL    HW243703   8.693   5.961   6.119
10558SOL     OW43704   8.042   6.331   6.238
10558SOL    HW143705   8.092   6.416   6.219
10558SOL    HW243706   7.954   6.333   6.190
10559SOL     OW43707   9.178   6.520   7.103
10559SOL    HW143708   9.216   6.611   7.118
10559SOL    HW243709   9.170   6.503   7.004
10560SOL     OW43710   8.307   6.960   5.602
10560SOL    HW143711   8.261   6.975   5.690
10560SOL    HW243712   8.351   7.045   5.572
10561SOL     OW43713   8.109   7.376   6.539
10561SOL    HW143714   8.063   7.464   6.526
10561SOL    HW243715   8.208   7.388   6.532
10562SOL     OW43716   8.307   6.542   6.447
10562SOL    HW143717   8.361   6.473   6.495
10562SOL    HW243718   8.275   6.611   6.513
10563SOL     OW43719   8.531   6.570   5.673
10563SOL    HW143720   8.508   6.623   5.591
10563SOL    HW243721   8.612   6.514   5.654
10564SOL     OW43722   9.309   7.155   6.437
10564SOL    HW143723   9.238   7.143   6.367
10564SOL    HW243724   9.310   7.076   6.497
10565SOL     OW43725   7.527   6.826   6.239
10565SOL    HW143726   7.526   6.779   6.327
10565SOL    HW243727   7.609   6.798   6.188
10566SOL     OW43728   9.272   5.778   6.813
10566SOL    HW143729   9.268   5.688   6.857
10566SOL    HW243730   9.275   5.767   6.714
10567SOL     OW43731   7.876   6.010   6.106
10567SOL    HW143732   7.906   5.938   6.044
10567SOL    HW243733   7.837   5.970   6.189
10568SOL     OW43734   9.153   7.073   6.690
10568SOL    HW143735   9.060   7.048   6.663
10568SOL    HW243736   9.179   7.023   6.772
10569SOL     OW43737   7.765   6.133   6.866
10569SOL    HW143738   7.803   6.074   6.938
10569SOL    HW243739   7.805   6.107   6.778
10570SOL     OW43740   8.260   7.172   6.273
10570SOL    HW143741   8.292   7.182   6.179
10570SOL    HW243742   8.181   7.110   6.275
10571SOL     OW43743   8.872   5.800   6.698
10571SOL    HW143744   8.924   5.735   6.753
10571SOL    HW243745   8.823   5.863   6.759
10572SOL     OW43746   8.449   5.620   6.740
10572SOL    HW143747   8.386   5.548   6.709
10572SOL    HW243748   8.542   5.584   6.740
10573SOL     OW43749   8.218   6.916   5.887
10573SOL    HW143750   8.172   6.829   5.904
10573SOL    HW243751   8.309   6.913   5.928
10574SOL     OW43752   8.066   7.153   6.870
10574SOL    HW143753   8.061   7.235   6.927
10574SOL    HW243754   8.155   7.150   6.825
10575SOL     OW43755   8.800   5.638   5.754
10575SOL    HW143756   8.835   5.597   5.670
10575SOL    HW243757   8.710   5.600   5.774
10576SOL     OW43758   8.748   6.039   6.277
10576SOL    HW143759   8.689   6.119   6.281
10576SOL    HW243760   8.763   6.004   6.370
10577SOL     OW43761   9.041   5.807   6.468
10577SOL    HW143762   8.957   5.806   6.522
10577SOL    HW243763   9.043   5.890   6.412
10578SOL     OW43764   7.487   6.663   5.886
10578SOL    HW143765   7.586   6.652   5.877
10578SOL    HW243766   7.447   6.577   5.918
10579SOL     OW43767   8.323   7.232   5.923
10579SOL    HW143768   8.246   7.197   5.869
10579SOL    HW243769   8.291   7.303   5.985
10580SOL     OW43770   7.678   8.076   0.113
10580SOL    HW143771   7.585   8.074   0.150
10580SOL    HW243772   7.679   8.037   0.021
10581SOL     OW43773   7.673   7.723   0.996
10581SOL    HW143774   7.708   7.706   1.088
10581SOL    HW243775   7.585   7.678   0.984
10582SOL     OW43776   7.467   7.816   0.647
10582SOL    HW143777   7.385   7.859   0.686
10582SOL    HW243778   7.439   7.743   0.584
10583SOL     OW43779   8.583   8.151   0.717
10583SOL    HW143780   8.640   8.229   0.692
10583SOL    HW243781   8.523   8.177   0.793
10584SOL     OW43782   9.203   8.055   0.231
10584SOL    HW143783   9.191   8.042   0.132
10584SOL    HW243784   9.173   7.974   0.280
10585SOL     OW43785   8.133   8.460   0.665
10585SOL    HW143786   8.202   8.444   0.735
10585SOL    HW243787   8.060   8.517   0.703
10586SOL     OW43788   9.051   7.895   0.737
10586SOL    HW143789   8.977   7.941   0.687
10586SOL    HW243790   9.102   7.963   0.790
10587SOL     OW43791   9.042   7.562   1.480
10587SOL    HW143792   9.024   7.629   1.408
10587SOL    HW243793   9.039   7.608   1.569
10588SOL     OW43794   7.570   8.091   0.563
10588SOL    HW143795   7.525   8.003   0.580
10588SOL    HW243796   7.569   8.145   0.647
10589SOL     OW43797   8.257   7.452   0.502
10589SOL    HW143798   8.297   7.543   0.493
10589SOL    HW243799   8.157   7.460   0.508
10590SOL     OW43800   8.973   8.447   0.190
10590SOL    HW143801   8.910   8.371   0.203
10590SOL    HW243802   9.021   8.465   0.276
10591SOL     OW43803   8.046   8.177   0.270
10591SOL    HW143804   8.070   8.246   0.202
10591SOL    HW243805   7.968   8.210   0.324
10592SOL     OW43806   8.729   7.793   0.944
10592SOL    HW143807   8.643   7.743   0.931
10592SOL    HW243808   8.791   7.739   1.000
10593SOL     OW43809   8.255   8.053   1.465
10593SOL    HW143810   8.208   8.050   1.554
10593SOL    HW243811   8.204   7.998   1.399
10594SOL     OW43812   8.842   7.917   1.674
10594SOL    HW143813   8.822   7.960   1.762
10594SOL    HW243814   8.920   7.855   1.683
10595SOL     OW43815   8.439   7.858   1.242
10595SOL    HW143816   8.362   7.892   1.296
10595SOL    HW243817   8.405   7.807   1.163
10596SOL     OW43818   8.489   8.149   0.429
10596SOL    HW143819   8.515   8.145   0.525
10596SOL    HW243820   8.404   8.098   0.415
10597SOL     OW43821   7.524   8.259   0.789
10597SOL    HW143822   7.623   8.247   0.798
10597SOL    HW243823   7.500   8.354   0.810
10598SOL     OW43824   8.313   7.796   0.195
10598SOL    HW143825   8.372   7.859   0.146
10598SOL    HW243826   8.332   7.702   0.166
10599SOL     OW43827   7.998   7.644   0.885
10599SOL    HW143828   7.993   7.639   0.985
10599SOL    HW243829   8.000   7.740   0.856
10600SOL     OW43830   8.906   8.183   0.728
10600SOL    HW143831   8.901   8.118   0.803
10600SOL    HW243832   8.986   8.242   0.741
10601SOL     OW43833   8.848   7.555   0.426
10601SOL    HW143834   8.824   7.518   0.336
10601SOL    HW243835   8.947   7.571   0.430
10602SOL     OW43836   7.830   8.148   0.480
10602SOL    HW143837   7.875   8.058   0.477
10602SOL    HW243838   7.736   8.137   0.513
10603SOL     OW43839   8.995   7.670   1.729
10603SOL    HW143840   8.990   7.707   1.821
10603SOL    HW243841   8.923   7.601   1.717
10604SOL     OW43842   8.799   8.038   1.433
10604SOL    HW143843   8.827   7.995   1.518
10604SOL    HW243844   8.824   8.134   1.434
10605SOL     OW43845   8.370   7.951   0.899
10605SOL    HW143846   8.345   7.942   0.803
10605SOL    HW243847   8.418   7.869   0.930
10606SOL     OW43848   7.987   7.512   0.512
10606SOL    HW143849   7.906   7.513   0.570
10606SOL    HW243850   7.990   7.595   0.457
10607SOL     OW43851   8.383   7.684   0.480
10607SOL    HW143852   8.335   7.725   0.402
10607SOL    HW243853   8.482   7.682   0.461
10608SOL     OW43854   8.524   8.131   1.464
10608SOL    HW143855   8.444   8.070   1.467
10608SOL    HW243856   8.605   8.078   1.440
10609SOL     OW43857   8.480   7.997   0.016
10609SOL    HW143858   8.439   8.079  -0.023
10609SOL    HW243859   8.544   8.023   0.089
10610SOL     OW43860   8.009   7.670   1.147
10610SOL    HW143861   8.047   7.586   1.184
10610SOL    HW243862   7.921   7.689   1.191
10611SOL     OW43863   8.314   7.902   0.642
10611SOL    HW143864   8.282   7.974   0.580
10611SOL    HW243865   8.338   7.821   0.589
10612SOL     OW43866   8.465   7.487   0.753
10612SOL    HW143867   8.393   7.492   0.684
10612SOL    HW243868   8.441   7.418   0.822
10613SOL     OW43869   9.305   8.281   0.377
10613SOL    HW143870   9.347   8.217   0.441
10613SOL    HW243871   9.267   8.230   0.299
10614SOL     OW43872   8.838   8.023   0.078
10614SOL    HW143873   8.784   8.002   0.159
10614SOL    HW243874   8.929   7.982   0.087
10615SOL     OW43875   7.975   7.704   0.328
10615SOL    HW143876   8.002   7.645   0.253
10615SOL    HW243877   7.975   7.799   0.297
10616SOL     OW43878   9.086   8.547   1.079
10616SOL    HW143879   9.091   8.628   1.138
10616SOL    HW243880   9.000   8.549   1.028
10617SOL     OW43881   8.722   7.834   1.262
10617SOL    HW143882   8.743   7.908   1.326
10617SOL    HW243883   8.633   7.851   1.219
10618SOL     OW43884   8.014   7.985   0.865
10618SOL    HW143885   8.026   8.051   0.791
10618SOL    HW243886   8.060   8.019   0.948
10619SOL     OW43887   9.030   8.087   0.472
10619SOL    HW143888   8.999   8.148   0.545
10619SOL    HW243889   9.080   8.139   0.403
10620SOL     OW43890   8.657   7.973   0.275
10620SOL    HW143891   8.670   7.889   0.329
10620SOL    HW243892   8.628   8.047   0.335
10621SOL     OW43893   7.755   7.661   1.231
10621SOL    HW143894   7.732   7.698   1.321
10621SOL    HW243895   7.725   7.566   1.225
10622SOL     OW43896   8.180   8.082   1.064
10622SOL    HW143897   8.239   8.056   0.988
10622SOL    HW243898   8.152   8.178   1.053
10623SOL     OW43899   7.755   7.511   0.618
10623SOL    HW143900   7.744   7.605   0.651
10623SOL    HW243901   7.750   7.448   0.695
10624SOL     OW43902   9.070   7.815   0.374
10624SOL    HW143903   9.072   7.739   0.438
10624SOL    HW243904   9.022   7.892   0.414
10625SOL     OW43905   8.471   8.214   0.966
10625SOL    HW143906   8.486   8.235   1.062
10625SOL    HW243907   8.441   8.119   0.957
10626SOL     OW43908   8.988   7.722   0.125
10626SOL    HW143909   8.927   7.647   0.148
10626SOL    HW243910   9.010   7.774   0.208
10627SOL     OW43911   8.751   8.286   0.042
10627SOL    HW143912   8.785   8.193   0.057
10627SOL    HW243913   8.769   8.313  -0.053
10628SOL     OW43914   7.787   7.957   1.006
10628SOL    HW143915   7.735   7.874   0.989
10628SOL    HW243916   7.864   7.962   0.942
10629SOL     OW43917   8.608   7.655   1.477
10629SOL    HW143918   8.608   7.719   1.554
10629SOL    HW243919   8.636   7.703   1.394
10630SOL     OW43920   8.450   8.244   1.238
10630SOL    HW143921   8.491   8.212   1.324
10630SOL    HW243922   8.354   8.217   1.235
10631SOL     OW43923   7.488   7.992   1.114
10631SOL    HW143924   7.573   7.959   1.073
10631SOL    HW243925   7.501   8.007   1.212
10632SOL     OW43926   8.263   8.020   0.325
10632SOL    HW143927   8.270   7.931   0.279
10632SOL    HW243928   8.169   8.054   0.317
10633SOL     OW43929   9.105   8.052   1.206
10633SOL    HW143930   9.067   7.983   1.268
10633SOL    HW243931   9.187   8.016   1.162
10634SOL     OW43932   8.119   7.912   1.269
10634SOL    HW143933   8.085   7.823   1.239
10634SOL    HW243934   8.145   7.966   1.189
10635SOL     OW43935   7.921   7.948   0.191
10635SOL    HW143936   7.982   8.028   0.195
10635SOL    HW243937   7.826   7.979   0.198
10636SOL     OW43938   8.750   8.303   0.309
10636SOL    HW143939   8.664   8.272   0.351
10636SOL    HW243940   8.746   8.289   0.210
10637SOL     OW43941   8.351   7.534   0.133
10637SOL    HW143942   8.402   7.535   0.047
10637SOL    HW243943   8.407   7.492   0.204
10638SOL     OW43944   9.174   7.583   0.523
10638SOL    HW143945   9.247   7.566   0.456
10638SOL    HW243946   9.143   7.496   0.561
10639SOL     OW43947   8.728   8.375   0.672
10639SOL    HW143948   8.788   8.294   0.674
10639SOL    HW243949   8.768   8.444   0.612
10640SOL     OW43950   9.289   7.623   0.963
10640SOL    HW143951   9.328   7.538   0.927
10640SOL    HW243952   9.191   7.625   0.944
10641SOL     OW43953   7.711   7.774   0.720
10641SOL    HW143954   7.632   7.825   0.686
10641SOL    HW243955   7.702   7.759   0.818
10642SOL     OW43956   8.364   8.358   0.291
10642SOL    HW143957   8.427   8.396   0.223
10642SOL    HW243958   8.404   8.275   0.330
10643SOL     OW43959   8.462   7.684   0.971
10643SOL    HW143960   8.454   7.648   0.878
10643SOL    HW243961   8.460   7.608   1.036
10644SOL     OW43962   7.523   7.793   0.033
10644SOL    HW143963   7.431   7.765   0.004
10644SOL    HW243964   7.554   7.870  -0.023
10645SOL     OW43965   7.520   7.614   0.318
10645SOL    HW143966   7.503   7.697   0.264
10645SOL    HW243967   7.610   7.577   0.296
10646SOL     OW43968   8.061   8.290   1.431
10646SOL    HW143969   8.117   8.371   1.414
10646SOL    HW243970   8.120   8.210   1.434
10647SOL     OW43971   9.122   8.331   1.254
10647SOL    HW143972   9.095   8.242   1.217
10647SOL    HW243973   9.123   8.399   1.181
10648SOL     OW43974   8.673   7.773   0.449
10648SOL    HW143975   8.738   7.699   0.438
10648SOL    HW243976   8.693   7.823   0.533
10649SOL     OW43977   8.042   8.193   0.652
10649SOL    HW143978   8.092   8.278   0.633
10649SOL    HW243979   7.954   8.195   0.604
10650SOL     OW43980   9.225   7.790   1.642
10650SOL    HW143981   9.208   7.821   1.548
10650SOL    HW243982   9.141   7.753   1.680
10651SOL     OW43983   9.178   8.382   1.517
10651SOL    HW143984   9.216   8.473   1.532
10651SOL    HW243985   9.170   8.365   1.418
10652SOL     OW43986   8.531   8.432   0.087
10652SOL    HW143987   8.508   8.485   0.005
10652SOL    HW243988   8.612   8.376   0.068
10653SOL     OW43989   7.876   7.872   0.520
10653SOL    HW143990   7.906   7.800   0.458
10653SOL    HW243991   7.837   7.832   0.603
10654SOL     OW43992   7.765   7.995   1.280
10654SOL    HW143993   7.803   7.936   1.352
10654SOL    HW243994   7.805   7.969   1.192
10655SOL     OW43995   8.872   7.662   1.112
10655SOL    HW143996   8.924   7.597   1.167
10655SOL    HW243997   8.823   7.725   1.173
10656SOL     OW43998   8.449   7.482   1.154
10656SOL    HW143999   8.386   7.410   1.123
10656SOL    HW244000   8.542   7.446   1.154
10657SOL     OW44001   8.800   7.500   0.168
10657SOL    HW144002   8.835   7.459   0.084
10657SOL    HW244003   8.710   7.462   0.188
10658SOL     OW44004   8.748   7.901   0.691
10658SOL    HW144005   8.689   7.981   0.695
10658SOL    HW244006   8.763   7.866   0.784
10659SOL     OW44007   9.041   7.669   0.882
10659SOL    HW144008   8.957   7.668   0.936
10659SOL    HW244009   9.043   7.752   0.826
10660SOL     OW44010   8.298   8.246   3.685
10660SOL    HW144011   8.294   8.322   3.750
10660SOL    HW244012   8.320   8.282   3.594
10661SOL     OW44013   7.561   8.185   3.459
10661SOL    HW144014   7.649   8.172   3.504
10661SOL    HW244015   7.548   8.282   3.437
10662SOL     OW44016   8.257   7.452   2.364
10662SOL    HW144017   8.297   7.543   2.355
10662SOL    HW244018   8.157   7.460   2.370
10663SOL     OW44019   8.255   8.053   3.327
10663SOL    HW144020   8.208   8.050   3.416
10663SOL    HW244021   8.204   7.998   3.261
10664SOL     OW44022   8.842   7.917   3.536
10664SOL    HW144023   8.822   7.960   3.624
10664SOL    HW244024   8.920   7.855   3.545
10665SOL     OW44025   7.998   7.644   2.747
10665SOL    HW144026   7.993   7.639   2.847
10665SOL    HW244027   8.000   7.740   2.718
10666SOL     OW44028   7.650   7.733   3.360
10666SOL    HW144029   7.570   7.793   3.347
10666SOL    HW244030   7.640   7.684   3.446
10667SOL     OW44031   7.526   8.004   3.248
10667SOL    HW144032   7.618   8.003   3.207
10667SOL    HW244033   7.520   8.078   3.315
10668SOL     OW44034   8.914   8.038   2.854
10668SOL    HW144035   8.884   7.943   2.861
10668SOL    HW244036   8.987   8.054   2.920
10669SOL     OW44037   9.305   8.281   2.239
10669SOL    HW144038   9.347   8.217   2.303
10669SOL    HW244039   9.267   8.230   2.161
10670SOL     OW44040   8.838   8.023   1.940
10670SOL    HW144041   8.784   8.002   2.021
10670SOL    HW244042   8.929   7.982   1.949
10671SOL     OW44043   8.363   7.537   3.264
10671SOL    HW144044   8.388   7.517   3.169
10671SOL    HW244045   8.435   7.593   3.306
10672SOL     OW44046   8.014   7.985   2.727
10672SOL    HW144047   8.026   8.051   2.653
10672SOL    HW244048   8.060   8.019   2.810
10673SOL     OW44049   9.030   8.087   2.334
10673SOL    HW144050   8.999   8.148   2.407
10673SOL    HW244051   9.080   8.139   2.265
10674SOL     OW44052   8.461   7.553   3.632
10674SOL    HW144053   8.467   7.638   3.580
10674SOL    HW244054   8.493   7.477   3.575
10675SOL     OW44055   8.021   8.318   2.891
10675SOL    HW144056   8.065   8.407   2.882
10675SOL    HW244057   7.958   8.318   2.968
10676SOL     OW44058   8.180   8.082   2.926
10676SOL    HW144059   8.239   8.056   2.850
10676SOL    HW244060   8.152   8.178   2.915
10677SOL     OW44061   9.176   8.383   3.716
10677SOL    HW144062   9.130   8.376   3.627
10677SOL    HW244063   9.114   8.427   3.782
10678SOL     OW44064   7.767   8.258   2.811
10678SOL    HW144065   7.860   8.294   2.816
10678SOL    HW244066   7.761   8.173   2.863
10679SOL     OW44067   8.586   7.828   3.540
10679SOL    HW144068   8.541   7.891   3.604
10679SOL    HW244069   8.679   7.859   3.523
10680SOL     OW44070   8.608   7.655   3.339
10680SOL    HW144071   8.608   7.719   3.416
10680SOL    HW244072   8.636   7.703   3.256
10681SOL     OW44073   8.450   8.244   3.100
10681SOL    HW144074   8.491   8.212   3.186
10681SOL    HW244075   8.354   8.217   3.097
10682SOL     OW44076   7.488   7.992   2.976
10682SOL    HW144077   7.573   7.959   2.935
10682SOL    HW244078   7.501   8.007   3.074
10683SOL     OW44079   7.921   7.948   2.053
10683SOL    HW144080   7.982   8.028   2.057
10683SOL    HW244081   7.826   7.979   2.060
10684SOL     OW44082   9.174   7.583   2.385
10684SOL    HW144083   9.247   7.566   2.318
10684SOL    HW244084   9.143   7.496   2.423
10685SOL     OW44085   8.728   8.375   2.534
10685SOL    HW144086   8.788   8.294   2.536
10685SOL    HW244087   8.768   8.444   2.474
10686SOL     OW44088   8.888   8.304   3.260
10686SOL    HW144089   8.831   8.356   3.197
10686SOL    HW244090   8.984   8.316   3.236
10687SOL     OW44091   8.061   8.290   3.293
10687SOL    HW144092   8.117   8.371   3.276
10687SOL    HW244093   8.120   8.210   3.296
10688SOL     OW44094   8.164   8.013   3.570
10688SOL    HW144095   8.183   8.078   3.644
10688SOL    HW244096   8.224   7.933   3.579
10689SOL     OW44097   9.122   8.331   3.116
10689SOL    HW144098   9.095   8.242   3.079
10689SOL    HW244099   9.123   8.399   3.043
10690SOL     OW44100   9.178   8.382   3.379
10690SOL    HW144101   9.216   8.473   3.394
10690SOL    HW244102   9.170   8.365   3.280
10691SOL     OW44103   9.272   7.640   3.089
10691SOL    HW144104   9.268   7.550   3.133
10691SOL    HW244105   9.275   7.629   2.990
10692SOL     OW44106   8.449   7.482   3.016
10692SOL    HW144107   8.386   7.410   2.985
10692SOL    HW244108   8.542   7.446   3.016
10693SOL     OW44109   9.203   8.055   3.955
10693SOL    HW144110   9.191   8.042   3.856
10693SOL    HW244111   9.173   7.974   4.004
10694SOL     OW44112   8.298   8.246   5.547
10694SOL    HW144113   8.294   8.322   5.612
10694SOL    HW244114   8.320   8.282   5.456
10695SOL     OW44115   9.051   7.895   4.461
10695SOL    HW144116   8.977   7.941   4.411
10695SOL    HW244117   9.102   7.963   4.514
10696SOL     OW44118   8.729   7.793   4.668
10696SOL    HW144119   8.643   7.743   4.655
10696SOL    HW244120   8.791   7.739   4.724
10697SOL     OW44121   8.421   8.338   5.296
10697SOL    HW144122   8.467   8.254   5.267
10697SOL    HW244123   8.365   8.372   5.221
10698SOL     OW44124   8.439   7.858   4.966
10698SOL    HW144125   8.362   7.892   5.020
10698SOL    HW244126   8.405   7.807   4.887
10699SOL     OW44127   7.524   8.259   4.513
10699SOL    HW144128   7.623   8.247   4.522
10699SOL    HW244129   7.500   8.354   4.534
10700SOL     OW44130   8.313   7.796   3.919
10700SOL    HW144131   8.372   7.859   3.870
10700SOL    HW244132   8.332   7.702   3.890
10701SOL     OW44133   8.906   8.183   4.452
10701SOL    HW144134   8.901   8.118   4.527
10701SOL    HW244135   8.986   8.242   4.465
10702SOL     OW44136   7.830   8.148   4.204
10702SOL    HW144137   7.875   8.058   4.201
10702SOL    HW244138   7.736   8.137   4.237
10703SOL     OW44139   8.062   7.570   3.841
10703SOL    HW144140   8.160   7.548   3.848
10703SOL    HW244141   8.031   7.553   3.748
10704SOL     OW44142   8.229   7.712   5.473
10704SOL    HW144143   8.296   7.651   5.516
10704SOL    HW244144   8.156   7.731   5.538
10705SOL     OW44145   8.370   7.951   4.623
10705SOL    HW144146   8.345   7.942   4.527
10705SOL    HW244147   8.418   7.869   4.654
10706SOL     OW44148   7.987   7.512   4.236
10706SOL    HW144149   7.906   7.513   4.294
10706SOL    HW244150   7.990   7.595   4.181
10707SOL     OW44151   8.383   7.684   4.204
10707SOL    HW144152   8.335   7.725   4.126
10707SOL    HW244153   8.482   7.682   4.185
10708SOL     OW44154   8.465   7.487   4.477
10708SOL    HW144155   8.393   7.492   4.408
10708SOL    HW244156   8.441   7.418   4.546
10709SOL     OW44157   9.305   8.281   4.101
10709SOL    HW144158   9.347   8.217   4.165
10709SOL    HW244159   9.267   8.230   4.023
10710SOL     OW44160   8.363   7.537   5.126
10710SOL    HW144161   8.388   7.517   5.031
10710SOL    HW244162   8.435   7.593   5.168
10711SOL     OW44163   7.850   8.199   5.322
10711SOL    HW144164   7.918   8.254   5.275
10711SOL    HW244165   7.890   8.111   5.349
10712SOL     OW44166   9.035   8.227   5.394
10712SOL    HW144167   8.943   8.265   5.389
10712SOL    HW244168   9.095   8.274   5.329
10713SOL     OW44169   8.461   7.553   5.494
10713SOL    HW144170   8.467   7.638   5.442
10713SOL    HW244171   8.493   7.477   5.437
10714SOL     OW44172   7.952   7.498   5.464
10714SOL    HW144173   7.910   7.441   5.394
10714SOL    HW244174   7.886   7.567   5.496
10715SOL     OW44175   9.176   8.383   5.578
10715SOL    HW144176   9.130   8.376   5.489
10715SOL    HW244177   9.114   8.427   5.644
10716SOL     OW44178   7.798   8.346   5.528
10716SOL    HW144179   7.874   8.390   5.576
10716SOL    HW244180   7.833   8.299   5.446
10717SOL     OW44181   8.586   7.828   5.402
10717SOL    HW144182   8.541   7.891   5.466
10717SOL    HW244183   8.679   7.859   5.385
10718SOL     OW44184   8.817   8.398   5.384
10718SOL    HW144185   8.856   8.487   5.404
10718SOL    HW244186   8.827   8.378   5.287
10719SOL     OW44187   7.607   8.585   5.190
10719SOL    HW144188   7.629   8.524   5.266
10719SOL    HW244189   7.617   8.536   5.104
10720SOL     OW44190   9.157   7.833   5.105
10720SOL    HW144191   9.230   7.902   5.109
10720SOL    HW244192   9.185   7.758   5.046
10721SOL     OW44193   7.553   8.461   5.450
10721SOL    HW144194   7.476   8.428   5.504
10721SOL    HW244195   7.638   8.431   5.492
10722SOL     OW44196   8.120   7.651   5.213
10722SOL    HW144197   8.210   7.635   5.173
10722SOL    HW244198   8.128   7.656   5.312
10723SOL     OW44199   8.061   8.290   5.155
10723SOL    HW144200   8.117   8.371   5.138
10723SOL    HW244201   8.120   8.210   5.158
10724SOL     OW44202   8.042   8.193   4.376
10724SOL    HW144203   8.092   8.278   4.357
10724SOL    HW244204   7.954   8.195   4.328
10725SOL     OW44205   8.531   8.432   3.811
10725SOL    HW144206   8.508   8.485   3.729
10725SOL    HW244207   8.612   8.376   3.792
10726SOL     OW44208   9.272   7.640   4.951
10726SOL    HW144209   9.268   7.550   4.995
10726SOL    HW244210   9.275   7.629   4.852
10727SOL     OW44211   7.876   7.872   4.244
10727SOL    HW144212   7.906   7.800   4.182
10727SOL    HW244213   7.837   7.832   4.327
10728SOL     OW44214   9.041   7.669   4.606
10728SOL    HW144215   8.957   7.668   4.660
10728SOL    HW244216   9.043   7.752   4.550
10729SOL     OW44217   7.673   7.723   6.582
10729SOL    HW144218   7.708   7.706   6.674
10729SOL    HW244219   7.585   7.678   6.570
10730SOL     OW44220   7.467   7.816   6.233
10730SOL    HW144221   7.385   7.859   6.272
10730SOL    HW244222   7.439   7.743   6.170
10731SOL     OW44223   8.583   8.151   6.303
10731SOL    HW144224   8.640   8.229   6.278
10731SOL    HW244225   8.523   8.177   6.379
10732SOL     OW44226   9.203   8.055   5.817
10732SOL    HW144227   9.191   8.042   5.718
10732SOL    HW244228   9.173   7.974   5.866
10733SOL     OW44229   8.216   8.592   6.609
10733SOL    HW144230   8.138   8.609   6.669
10733SOL    HW244231   8.250   8.679   6.573
10734SOL     OW44232   8.133   8.460   6.251
10734SOL    HW144233   8.202   8.444   6.321
10734SOL    HW244234   8.060   8.517   6.289
10735SOL     OW44235   7.886   7.840   7.085
10735SOL    HW144236   7.968   7.784   7.094
10735SOL    HW244237   7.805   7.782   7.089
10736SOL     OW44238   9.051   7.895   6.323
10736SOL    HW144239   8.977   7.941   6.273
10736SOL    HW244240   9.102   7.963   6.376
10737SOL     OW44241   7.688   8.539   6.472
10737SOL    HW144242   7.702   8.455   6.524
10737SOL    HW244243   7.633   8.603   6.527
10738SOL     OW44244   7.570   8.091   6.149
10738SOL    HW144245   7.525   8.003   6.166
10738SOL    HW244246   7.569   8.145   6.233
10739SOL     OW44247   8.257   7.452   6.088
10739SOL    HW144248   8.297   7.543   6.079
10739SOL    HW244249   8.157   7.460   6.094
10740SOL     OW44250   7.645   8.424   6.850
10740SOL    HW144251   7.734   8.379   6.836
10740SOL    HW244252   7.572   8.359   6.831
10741SOL     OW44253   8.973   8.447   5.776
10741SOL    HW144254   8.910   8.371   5.789
10741SOL    HW244255   9.021   8.465   5.862
10742SOL     OW44256   8.046   8.177   5.856
10742SOL    HW144257   8.070   8.246   5.788
10742SOL    HW244258   7.968   8.210   5.910
10743SOL     OW44259   8.729   7.793   6.530
10743SOL    HW144260   8.643   7.743   6.517
10743SOL    HW244261   8.791   7.739   6.586
10744SOL     OW44262   8.255   8.053   7.051
10744SOL    HW144263   8.208   8.050   7.140
10744SOL    HW244264   8.204   7.998   6.985
10745SOL     OW44265   8.439   7.858   6.828
10745SOL    HW144266   8.362   7.892   6.882
10745SOL    HW244267   8.405   7.807   6.749
10746SOL     OW44268   8.489   8.149   6.015
10746SOL    HW144269   8.515   8.145   6.111
10746SOL    HW244270   8.404   8.098   6.001
10747SOL     OW44271   7.524   8.259   6.375
10747SOL    HW144272   7.623   8.247   6.384
10747SOL    HW244273   7.500   8.354   6.396
10748SOL     OW44274   8.313   7.796   5.781
10748SOL    HW144275   8.372   7.859   5.732
10748SOL    HW244276   8.332   7.702   5.752
10749SOL     OW44277   7.998   7.644   6.471
10749SOL    HW144278   7.993   7.639   6.571
10749SOL    HW244279   8.000   7.740   6.442
10750SOL     OW44280   8.906   8.183   6.314
10750SOL    HW144281   8.901   8.118   6.389
10750SOL    HW244282   8.986   8.242   6.327
10751SOL     OW44283   8.848   7.555   6.012
10751SOL    HW144284   8.824   7.518   5.922
10751SOL    HW244285   8.947   7.571   6.016
10752SOL     OW44286   7.830   8.148   6.066
10752SOL    HW144287   7.875   8.058   6.063
10752SOL    HW244288   7.736   8.137   6.099
10753SOL     OW44289   8.062   7.570   5.703
10753SOL    HW144290   8.160   7.548   5.710
10753SOL    HW244291   8.031   7.553   5.610
10754SOL     OW44292   8.370   7.951   6.485
10754SOL    HW144293   8.345   7.942   6.389
10754SOL    HW244294   8.418   7.869   6.516
10755SOL     OW44295   7.987   7.512   6.098
10755SOL    HW144296   7.906   7.513   6.156
10755SOL    HW244297   7.990   7.595   6.043
10756SOL     OW44298   7.745   7.483   5.757
10756SOL    HW144299   7.794   7.567   5.736
10756SOL    HW244300   7.807   7.418   5.802
10757SOL     OW44301   8.383   7.684   6.066
10757SOL    HW144302   8.335   7.725   5.988
10757SOL    HW244303   8.482   7.682   6.047
10758SOL     OW44304   8.480   7.997   5.602
10758SOL    HW144305   8.439   8.079   5.563
10758SOL    HW244306   8.544   8.023   5.675
10759SOL     OW44307   8.009   7.670   6.733
10759SOL    HW144308   8.047   7.586   6.770
10759SOL    HW244309   7.921   7.689   6.777
10760SOL     OW44310   8.314   7.902   6.228
10760SOL    HW144311   8.282   7.974   6.166
10760SOL    HW244312   8.338   7.821   6.175
10761SOL     OW44313   8.465   7.487   6.339
10761SOL    HW144314   8.393   7.492   6.270
10761SOL    HW244315   8.441   7.418   6.408
10762SOL     OW44316   8.914   8.038   6.578
10762SOL    HW144317   8.884   7.943   6.585
10762SOL    HW244318   8.987   8.054   6.644
10763SOL     OW44319   9.305   8.281   5.963
10763SOL    HW144320   9.347   8.217   6.027
10763SOL    HW244321   9.267   8.230   5.885
10764SOL     OW44322   8.838   8.023   5.664
10764SOL    HW144323   8.784   8.002   5.745
10764SOL    HW244324   8.929   7.982   5.673
10765SOL     OW44325   7.975   7.704   5.914
10765SOL    HW144326   8.002   7.645   5.839
10765SOL    HW244327   7.975   7.799   5.883
10766SOL     OW44328   9.202   8.671   7.174
10766SOL    HW144329   9.293   8.632   7.161
10766SOL    HW244330   9.210   8.767   7.198
10767SOL     OW44331   9.086   8.547   6.665
10767SOL    HW144332   9.091   8.628   6.724
10767SOL    HW244333   9.000   8.549   6.614
10768SOL     OW44334   7.858   8.261   6.837
10768SOL    HW144335   7.944   8.273   6.887
10768SOL    HW244336   7.816   8.174   6.864
10769SOL     OW44337   8.722   7.834   6.848
10769SOL    HW144338   8.743   7.908   6.912
10769SOL    HW244339   8.633   7.851   6.805
10770SOL     OW44340   8.014   7.985   6.451
10770SOL    HW144341   8.026   8.051   6.377
10770SOL    HW244342   8.060   8.019   6.534
10771SOL     OW44343   9.030   8.087   6.058
10771SOL    HW144344   8.999   8.148   6.131
10771SOL    HW244345   9.080   8.139   5.989
10772SOL     OW44346   7.952   7.498   7.326
10772SOL    HW144347   7.910   7.441   7.256
10772SOL    HW244348   7.886   7.567   7.358
10773SOL     OW44349   8.021   8.318   6.615
10773SOL    HW144350   8.065   8.407   6.606
10773SOL    HW244351   7.958   8.318   6.692
10774SOL     OW44352   8.808   8.310   6.631
10774SOL    HW144353   8.733   8.310   6.565
10774SOL    HW244354   8.845   8.218   6.640
10775SOL     OW44355   8.657   7.973   5.861
10775SOL    HW144356   8.670   7.889   5.915
10775SOL    HW244357   8.628   8.047   5.921
10776SOL     OW44358   7.755   7.661   6.817
10776SOL    HW144359   7.732   7.698   6.907
10776SOL    HW244360   7.725   7.566   6.811
10777SOL     OW44361   8.180   8.082   6.650
10777SOL    HW144362   8.239   8.056   6.574
10777SOL    HW244363   8.152   8.178   6.639
10778SOL     OW44364   7.755   7.511   6.204
10778SOL    HW144365   7.744   7.605   6.237
10778SOL    HW244366   7.750   7.448   6.281
10779SOL     OW44367   9.070   7.815   5.960
10779SOL    HW144368   9.072   7.739   6.024
10779SOL    HW244369   9.022   7.892   6.000
10780SOL     OW44370   8.471   8.214   6.552
10780SOL    HW144371   8.486   8.235   6.648
10780SOL    HW244372   8.441   8.119   6.543
10781SOL     OW44373   7.798   8.346   7.390
10781SOL    HW144374   7.874   8.390   7.438
10781SOL    HW244375   7.833   8.299   7.308
10782SOL     OW44376   8.988   7.722   5.711
10782SOL    HW144377   8.927   7.647   5.734
10782SOL    HW244378   9.010   7.774   5.794
10783SOL     OW44379   7.767   8.258   6.535
10783SOL    HW144380   7.860   8.294   6.540
10783SOL    HW244381   7.761   8.173   6.587
10784SOL     OW44382   7.787   7.957   6.592
10784SOL    HW144383   7.735   7.874   6.575
10784SOL    HW244384   7.864   7.962   6.528
10785SOL     OW44385   8.608   7.655   7.063
10785SOL    HW144386   8.608   7.719   7.140
10785SOL    HW244387   8.636   7.703   6.980
10786SOL     OW44388   8.450   8.244   6.824
10786SOL    HW144389   8.491   8.212   6.910
10786SOL    HW244390   8.354   8.217   6.821
10787SOL     OW44391   7.488   7.992   6.700
10787SOL    HW144392   7.573   7.959   6.659
10787SOL    HW244393   7.501   8.007   6.798
10788SOL     OW44394   8.263   8.020   5.911
10788SOL    HW144395   8.270   7.931   5.865
10788SOL    HW244396   8.169   8.054   5.903
10789SOL     OW44397   9.105   8.052   6.792
10789SOL    HW144398   9.067   7.983   6.854
10789SOL    HW244399   9.187   8.016   6.748
10790SOL     OW44400   8.119   7.912   6.855
10790SOL    HW144401   8.085   7.823   6.825
10790SOL    HW244402   8.145   7.966   6.775
10791SOL     OW44403   7.607   8.585   7.052
10791SOL    HW144404   7.629   8.524   7.128
10791SOL    HW244405   7.617   8.536   6.966
10792SOL     OW44406   8.795   8.507   6.820
10792SOL    HW144407   8.819   8.444   6.746
10792SOL    HW244408   8.705   8.547   6.802
10793SOL     OW44409   8.750   8.303   5.895
10793SOL    HW144410   8.664   8.272   5.937
10793SOL    HW244411   8.746   8.289   5.796
10794SOL     OW44412   9.174   7.583   6.109
10794SOL    HW144413   9.247   7.566   6.042
10794SOL    HW244414   9.143   7.496   6.147
10795SOL     OW44415   8.728   8.375   6.258
10795SOL    HW144416   8.788   8.294   6.260
10795SOL    HW244417   8.768   8.444   6.198
10796SOL     OW44418   8.278   8.721   7.008
10796SOL    HW144419   8.273   8.754   7.103
10796SOL    HW244420   8.192   8.740   6.962
10797SOL     OW44421   9.289   7.623   6.549
10797SOL    HW144422   9.328   7.538   6.513
10797SOL    HW244423   9.191   7.625   6.530
10798SOL     OW44424   7.711   7.774   6.306
10798SOL    HW144425   7.632   7.825   6.272
10798SOL    HW244426   7.702   7.759   6.404
10799SOL     OW44427   8.270   8.450   6.958
10799SOL    HW144428   8.310   8.449   6.866
10799SOL    HW244429   8.280   8.542   6.998
10800SOL     OW44430   8.364   8.358   5.877
10800SOL    HW144431   8.427   8.396   5.809
10800SOL    HW244432   8.404   8.275   5.916
10801SOL     OW44433   8.462   7.684   6.557
10801SOL    HW144434   8.454   7.648   6.464
10801SOL    HW244435   8.460   7.608   6.622
10802SOL     OW44436   9.157   7.833   6.967
10802SOL    HW144437   9.230   7.902   6.971
10802SOL    HW244438   9.185   7.758   6.908
10803SOL     OW44439   7.553   8.461   7.312
10803SOL    HW144440   7.476   8.428   7.366
10803SOL    HW244441   7.638   8.431   7.354
10804SOL     OW44442   8.120   7.651   7.075
10804SOL    HW144443   8.210   7.635   7.035
10804SOL    HW244444   8.128   7.656   7.174
10805SOL     OW44445   7.523   7.793   5.619
10805SOL    HW144446   7.431   7.765   5.590
10805SOL    HW244447   7.554   7.870   5.563
10806SOL     OW44448   7.520   7.614   5.904
10806SOL    HW144449   7.503   7.697   5.850
10806SOL    HW244450   7.610   7.577   5.882
10807SOL     OW44451   8.061   8.290   7.017
10807SOL    HW144452   8.117   8.371   7.000
10807SOL    HW244453   8.120   8.210   7.020
10808SOL     OW44454   9.122   8.331   6.840
10808SOL    HW144455   9.095   8.242   6.803
10808SOL    HW244456   9.123   8.399   6.767
10809SOL     OW44457   8.673   7.773   6.035
10809SOL    HW144458   8.738   7.699   6.024
10809SOL    HW244459   8.693   7.823   6.119
10810SOL     OW44460   8.042   8.193   6.238
10810SOL    HW144461   8.092   8.278   6.219
10810SOL    HW244462   7.954   8.195   6.190
10811SOL     OW44463   9.178   8.382   7.103
10811SOL    HW144464   9.216   8.473   7.118
10811SOL    HW244465   9.170   8.365   7.004
10812SOL     OW44466   8.531   8.432   5.673
10812SOL    HW144467   8.508   8.485   5.591
10812SOL    HW244468   8.612   8.376   5.654
10813SOL     OW44469   9.272   7.640   6.813
10813SOL    HW144470   9.268   7.550   6.857
10813SOL    HW244471   9.275   7.629   6.714
10814SOL     OW44472   7.876   7.872   6.106
10814SOL    HW144473   7.906   7.800   6.044
10814SOL    HW244474   7.837   7.832   6.189
10815SOL     OW44475   7.765   7.995   6.866
10815SOL    HW144476   7.803   7.936   6.938
10815SOL    HW244477   7.805   7.969   6.778
10816SOL     OW44478   8.872   7.662   6.698
10816SOL    HW144479   8.924   7.597   6.753
10816SOL    HW244480   8.823   7.725   6.759
10817SOL     OW44481   8.449   7.482   6.740
10817SOL    HW144482   8.386   7.410   6.709
10817SOL    HW244483   8.542   7.446   6.740
10818SOL     OW44484   8.800   7.500   5.754
10818SOL    HW144485   8.835   7.459   5.670
10818SOL    HW244486   8.710   7.462   5.774
10819SOL     OW44487   8.748   7.901   6.277
10819SOL    HW144488   8.689   7.981   6.281
10819SOL    HW244489   8.763   7.866   6.370
10820SOL     OW44490   9.041   7.669   6.468
10820SOL    HW144491   8.957   7.668   6.522
10820SOL    HW244492   9.043   7.752   6.412
10821SOL     OW44493   9.541   1.713   0.483
10821SOL    HW144494   9.575   1.790   0.537
10821SOL    HW244495   9.585   1.713   0.393
10822SOL     OW44496   9.432   0.643   0.563
10822SOL    HW144497   9.387   0.555   0.580
10822SOL    HW244498   9.431   0.697   0.647
10823SOL     OW44499   9.337   1.596   0.117
10823SOL    HW144500   9.318   1.500   0.138
10823SOL    HW244501   9.304   1.654   0.192
10824SOL     OW44502   9.617   0.063   0.618
10824SOL    HW144503   9.606   0.157   0.651
10824SOL    HW244504   9.612   0.000   0.695
10825SOL     OW44505   9.469   1.137   1.466
10825SOL    HW144506   9.491   1.076   1.542
10825SOL    HW244507   9.479   1.088   1.380
10826SOL     OW44508   9.541   1.713   2.345
10826SOL    HW144509   9.575   1.790   2.399
10826SOL    HW244510   9.585   1.713   2.255
10827SOL     OW44511   9.432   0.643   2.425
10827SOL    HW144512   9.387   0.555   2.442
10827SOL    HW244513   9.431   0.697   2.509
10828SOL     OW44514   9.617   0.063   2.480
10828SOL    HW144515   9.606   0.157   2.513
10828SOL    HW244516   9.612   0.000   2.557
10829SOL     OW44517   9.617   0.063   4.342
10829SOL    HW144518   9.606   0.157   4.375
10829SOL    HW244519   9.612   0.000   4.419
10830SOL     OW44520   9.562   1.564   5.468
10830SOL    HW144521   9.532   1.621   5.544
10830SOL    HW244522   9.555   1.467   5.494
10831SOL     OW44523   9.541   1.713   6.069
10831SOL    HW144524   9.575   1.790   6.123
10831SOL    HW244525   9.585   1.713   5.979
10832SOL     OW44526   9.432   0.643   6.149
10832SOL    HW144527   9.387   0.555   6.166
10832SOL    HW244528   9.431   0.697   6.233
10833SOL     OW44529   9.337   1.596   5.703
10833SOL    HW144530   9.318   1.500   5.724
10833SOL    HW244531   9.304   1.654   5.778
10834SOL     OW44532   9.423   0.737   7.183
10834SOL    HW144533   9.511   0.724   7.228
10834SOL    HW244534   9.410   0.834   7.161
10835SOL     OW44535   9.388   0.556   6.972
10835SOL    HW144536   9.480   0.555   6.931
10835SOL    HW244537   9.382   0.630   7.039
10836SOL     OW44538   9.617   0.063   6.204
10836SOL    HW144539   9.606   0.157   6.237
10836SOL    HW244540   9.612   0.000   6.281
10837SOL     OW44541   9.499   0.520   7.308
10837SOL    HW144542   9.558   0.480   7.238
10837SOL    HW244543   9.441   0.591   7.267
10838SOL     OW44544   9.469   1.137   7.052
10838SOL    HW144545   9.491   1.076   7.128
10838SOL    HW244546   9.479   1.088   6.966
10839SOL     OW44547   9.541   3.575   0.483
10839SOL    HW144548   9.575   3.652   0.537
10839SOL    HW244549   9.585   3.575   0.393
10840SOL     OW44550   9.432   2.505   0.563
10840SOL    HW144551   9.387   2.417   0.580
10840SOL    HW244552   9.431   2.559   0.647
10841SOL     OW44553   9.337   3.458   0.117
10841SOL    HW144554   9.318   3.362   0.138
10841SOL    HW244555   9.304   3.516   0.192
10842SOL     OW44556   9.617   2.075   1.231
10842SOL    HW144557   9.594   2.112   1.321
10842SOL    HW244558   9.587   1.980   1.225
10843SOL     OW44559   9.617   1.925   0.618
10843SOL    HW144560   9.606   2.019   0.651
10843SOL    HW244561   9.612   1.862   0.695
10844SOL     OW44562   9.562   3.426   1.744
10844SOL    HW144563   9.532   3.483   1.820
10844SOL    HW244564   9.555   3.329   1.770
10845SOL     OW44565   9.337   3.458   1.979
10845SOL    HW144566   9.318   3.362   2.000
10845SOL    HW244567   9.304   3.516   2.054
10846SOL     OW44568   9.562   3.426   3.606
10846SOL    HW144569   9.532   3.483   3.682
10846SOL    HW244570   9.555   3.329   3.632
10847SOL     OW44571   9.469   2.999   3.328
10847SOL    HW144572   9.491   2.938   3.404
10847SOL    HW244573   9.479   2.950   3.242
10848SOL     OW44574   9.617   1.925   4.342
10848SOL    HW144575   9.606   2.019   4.375
10848SOL    HW244576   9.612   1.862   4.419
10849SOL     OW44577   9.432   2.505   6.149
10849SOL    HW144578   9.387   2.417   6.166
10849SOL    HW244579   9.431   2.559   6.233
10850SOL     OW44580   9.337   3.458   5.703
10850SOL    HW144581   9.318   3.362   5.724
10850SOL    HW244582   9.304   3.516   5.778
10851SOL     OW44583   9.423   2.599   7.183
10851SOL    HW144584   9.511   2.586   7.228
10851SOL    HW244585   9.410   2.696   7.161
10852SOL     OW44586   9.388   2.418   6.972
10852SOL    HW144587   9.480   2.417   6.931
10852SOL    HW244588   9.382   2.492   7.039
10853SOL     OW44589   9.617   2.075   6.817
10853SOL    HW144590   9.594   2.112   6.907
10853SOL    HW244591   9.587   1.980   6.811
10854SOL     OW44592   9.617   1.925   6.204
10854SOL    HW144593   9.606   2.019   6.237
10854SOL    HW244594   9.612   1.862   6.281
10855SOL     OW44595   9.499   2.382   7.308
10855SOL    HW144596   9.558   2.342   7.238
10855SOL    HW244597   9.441   2.453   7.267
10856SOL     OW44598   9.469   2.999   7.052
10856SOL    HW144599   9.491   2.938   7.128
10856SOL    HW244600   9.479   2.950   6.966
10857SOL     OW44601   9.541   5.437   0.483
10857SOL    HW144602   9.575   5.514   0.537
10857SOL    HW244603   9.585   5.437   0.393
10858SOL     OW44604   9.432   4.367   0.563
10858SOL    HW144605   9.387   4.279   0.580
10858SOL    HW244606   9.431   4.421   0.647
10859SOL     OW44607   9.337   5.320   0.117
10859SOL    HW144608   9.318   5.224   0.138
10859SOL    HW244609   9.304   5.378   0.192
10860SOL     OW44610   9.617   3.937   1.231
10860SOL    HW144611   9.594   3.974   1.321
10860SOL    HW244612   9.587   3.842   1.225
10861SOL     OW44613   9.617   3.787   0.618
10861SOL    HW144614   9.606   3.881   0.651
10861SOL    HW244615   9.612   3.724   0.695
10862SOL     OW44616   9.562   5.288   1.744
10862SOL    HW144617   9.532   5.345   1.820
10862SOL    HW244618   9.555   5.191   1.770
10863SOL     OW44619   9.541   5.437   2.345
10863SOL    HW144620   9.575   5.514   2.399
10863SOL    HW244621   9.585   5.437   2.255
10864SOL     OW44622   9.617   3.937   3.093
10864SOL    HW144623   9.594   3.974   3.183
10864SOL    HW244624   9.587   3.842   3.087
10865SOL     OW44625   9.617   3.787   2.480
10865SOL    HW144626   9.606   3.881   2.513
10865SOL    HW244627   9.612   3.724   2.557
10866SOL     OW44628   9.562   5.288   3.606
10866SOL    HW144629   9.532   5.345   3.682
10866SOL    HW244630   9.555   5.191   3.632
10867SOL     OW44631   9.469   4.861   3.328
10867SOL    HW144632   9.491   4.800   3.404
10867SOL    HW244633   9.479   4.812   3.242
10868SOL     OW44634   9.432   4.367   4.287
10868SOL    HW144635   9.387   4.279   4.304
10868SOL    HW244636   9.431   4.421   4.371
10869SOL     OW44637   9.337   5.320   3.841
10869SOL    HW144638   9.318   5.224   3.862
10869SOL    HW244639   9.304   5.378   3.916
10870SOL     OW44640   9.617   3.937   4.955
10870SOL    HW144641   9.594   3.974   5.045
10870SOL    HW244642   9.587   3.842   4.949
10871SOL     OW44643   9.562   5.288   5.468
10871SOL    HW144644   9.532   5.345   5.544
10871SOL    HW244645   9.555   5.191   5.494
10872SOL     OW44646   9.469   4.861   5.190
10872SOL    HW144647   9.491   4.800   5.266
10872SOL    HW244648   9.479   4.812   5.104
10873SOL     OW44649   9.541   5.437   6.069
10873SOL    HW144650   9.575   5.514   6.123
10873SOL    HW244651   9.585   5.437   5.979
10874SOL     OW44652   9.432   4.367   6.149
10874SOL    HW144653   9.387   4.279   6.166
10874SOL    HW244654   9.431   4.421   6.233
10875SOL     OW44655   9.337   5.320   5.703
10875SOL    HW144656   9.318   5.224   5.724
10875SOL    HW244657   9.304   5.378   5.778
10876SOL     OW44658   9.423   4.461   7.183
10876SOL    HW144659   9.511   4.448   7.228
10876SOL    HW244660   9.410   4.558   7.161
10877SOL     OW44661   9.388   4.280   6.972
10877SOL    HW144662   9.480   4.279   6.931
10877SOL    HW244663   9.382   4.354   7.039
10878SOL     OW44664   9.617   3.937   6.817
10878SOL    HW144665   9.594   3.974   6.907
10878SOL    HW244666   9.587   3.842   6.811
10879SOL     OW44667   9.617   3.787   6.204
10879SOL    HW144668   9.606   3.881   6.237
10879SOL    HW244669   9.612   3.724   6.281
10880SOL     OW44670   9.499   4.244   7.308
10880SOL    HW144671   9.558   4.204   7.238
10880SOL    HW244672   9.441   4.315   7.267
10881SOL     OW44673   9.469   4.861   7.052
10881SOL    HW144674   9.491   4.800   7.128
10881SOL    HW244675   9.479   4.812   6.966
10882SOL     OW44676   9.541   7.299   0.483
10882SOL    HW144677   9.575   7.376   0.537
10882SOL    HW244678   9.585   7.299   0.393
10883SOL     OW44679   9.337   7.182   0.117
10883SOL    HW144680   9.318   7.086   0.138
10883SOL    HW244681   9.304   7.240   0.192
10884SOL     OW44682   9.617   5.799   1.231
10884SOL    HW144683   9.594   5.836   1.321
10884SOL    HW244684   9.587   5.704   1.225
10885SOL     OW44685   9.617   5.649   0.618
10885SOL    HW144686   9.606   5.743   0.651
10885SOL    HW244687   9.612   5.586   0.695
10886SOL     OW44688   9.469   6.723   1.466
10886SOL    HW144689   9.491   6.662   1.542
10886SOL    HW244690   9.479   6.674   1.380
10887SOL     OW44691   9.541   7.299   2.345
10887SOL    HW144692   9.575   7.376   2.399
10887SOL    HW244693   9.585   7.299   2.255
10888SOL     OW44694   9.617   5.649   2.480
10888SOL    HW144695   9.606   5.743   2.513
10888SOL    HW244696   9.612   5.586   2.557
10889SOL     OW44697   9.617   5.799   4.955
10889SOL    HW144698   9.594   5.836   5.045
10889SOL    HW244699   9.587   5.704   4.949
10890SOL     OW44700   9.562   7.150   5.468
10890SOL    HW144701   9.532   7.207   5.544
10890SOL    HW244702   9.555   7.053   5.494
10891SOL     OW44703   9.469   6.723   5.190
10891SOL    HW144704   9.491   6.662   5.266
10891SOL    HW244705   9.479   6.674   5.104
10892SOL     OW44706   9.541   7.299   6.069
10892SOL    HW144707   9.575   7.376   6.123
10892SOL    HW244708   9.585   7.299   5.979
10893SOL     OW44709   9.432   6.229   6.149
10893SOL    HW144710   9.387   6.141   6.166
10893SOL    HW244711   9.431   6.283   6.233
10894SOL     OW44712   9.337   7.182   5.703
10894SOL    HW144713   9.318   7.086   5.724
10894SOL    HW244714   9.304   7.240   5.778
10895SOL     OW44715   9.423   6.323   7.183
10895SOL    HW144716   9.511   6.310   7.228
10895SOL    HW244717   9.410   6.420   7.161
10896SOL     OW44718   9.388   6.142   6.972
10896SOL    HW144719   9.480   6.141   6.931
10896SOL    HW244720   9.382   6.216   7.039
10897SOL     OW44721   9.617   5.799   6.817
10897SOL    HW144722   9.594   5.836   6.907
10897SOL    HW244723   9.587   5.704   6.811
10898SOL     OW44724   9.617   5.649   6.204
10898SOL    HW144725   9.606   5.743   6.237
10898SOL    HW244726   9.612   5.586   6.281
10899SOL     OW44727   9.499   6.106   7.308
10899SOL    HW144728   9.558   6.066   7.238
10899SOL    HW244729   9.441   6.177   7.267
10900SOL     OW44730   9.469   6.723   7.052
10900SOL    HW144731   9.491   6.662   7.128
10900SOL    HW244732   9.479   6.674   6.966
10901SOL     OW44733   9.432   8.091   0.563
10901SOL    HW144734   9.387   8.003   0.580
10901SOL    HW244735   9.431   8.145   0.647
10902SOL     OW44736   9.617   7.661   1.231
10902SOL    HW144737   9.594   7.698   1.321
10902SOL    HW244738   9.587   7.566   1.225
10903SOL     OW44739   9.617   7.511   0.618
10903SOL    HW144740   9.606   7.605   0.651
10903SOL    HW244741   9.612   7.448   0.695
10904SOL     OW44742   9.469   8.585   1.466
10904SOL    HW144743   9.491   8.524   1.542
10904SOL    HW244744   9.479   8.536   1.380
10905SOL     OW44745   9.617   7.661   3.093
10905SOL    HW144746   9.594   7.698   3.183
10905SOL    HW244747   9.587   7.566   3.087
10906SOL     OW44748   9.617   7.511   2.480
10906SOL    HW144749   9.606   7.605   2.513
10906SOL    HW244750   9.612   7.448   2.557
10907SOL     OW44751   9.432   8.091   4.287
10907SOL    HW144752   9.387   8.003   4.304
10907SOL    HW244753   9.431   8.145   4.371
10908SOL     OW44754   9.617   7.661   4.955
10908SOL    HW144755   9.594   7.698   5.045
10908SOL    HW244756   9.587   7.566   4.949
10909SOL     OW44757   9.318   8.774   3.924
10909SOL    HW144758   9.225   8.795   3.893
10909SOL    HW244759   9.328   8.675   3.937
10910SOL     OW44760   9.469   8.585   5.190
10910SOL    HW144761   9.491   8.524   5.266
10910SOL    HW244762   9.479   8.536   5.104
10911SOL     OW44763   9.432   8.091   6.149
10911SOL    HW144764   9.387   8.003   6.166
10911SOL    HW244765   9.431   8.145   6.233
10912SOL     OW44766   9.423   8.185   7.183
10912SOL    HW144767   9.511   8.172   7.228
10912SOL    HW244768   9.410   8.282   7.161
10913SOL     OW44769   9.388   8.004   6.972
10913SOL    HW144770   9.480   8.003   6.931
10913SOL    HW244771   9.382   8.078   7.039
10914SOL     OW44772   9.617   7.661   6.817
10914SOL    HW144773   9.594   7.698   6.907
10914SOL    HW244774   9.587   7.566   6.811
10915SOL     OW44775   9.617   7.511   6.204
10915SOL    HW144776   9.606   7.605   6.237
10915SOL    HW244777   9.612   7.448   6.281
10916SOL     OW44778   9.318   8.774   5.786
10916SOL    HW144779   9.225   8.795   5.755
10916SOL    HW244780   9.328   8.675   5.799
10917SOL     OW44781   9.499   7.968   7.308
10917SOL    HW144782   9.558   7.928   7.238
10917SOL    HW244783   9.441   8.039   7.267
10918SOL     OW44784   9.469   8.585   7.052
10918SOL    HW144785   9.491   8.524   7.128
10918SOL    HW244786   9.479   8.536   6.966
10919SOL     OW44787   9.349   8.525   5.886
10919SOL    HW144788   9.448   8.514   5.877
10919SOL    HW244789   9.309   8.439   5.918
   9.48825   8.49895   7.06544
