256-Lipid DPPC Bilayer in water
37915
    1DPPC    C1    1   5.861   5.488   5.630
    1DPPC    C2    2   5.873   5.646   5.465
    1DPPC    C3    3   5.735   5.466   5.413
    1DPPC    N4    4   5.779   5.551   5.525
    1DPPC    C5    5   5.672   5.624   5.594
    1DPPC    C6    6   5.583   5.722   5.519
    1DPPC    O7    7   5.638   5.849   5.484
    1DPPC    P8    8   5.515   5.952   5.477
    1DPPC    O9    9   5.600   6.072   5.467
    1DPPC   O10   10   5.442   5.913   5.600
    1DPPC   O11   11   5.432   5.925   5.341
    1DPPC   C12   12   5.458   6.036   5.255
    1DPPC   C13   13   5.414   6.014   5.110
    1DPPC   O14   14   5.279   6.054   5.082
    1DPPC   C15   15   5.261   6.186   5.058
    1DPPC   O16   16   5.348   6.261   5.103
    1DPPC   C17   17   5.125   6.234   5.008
    1DPPC   C18   18   5.129   6.352   4.911
    1DPPC   C19   19   5.014   6.361   4.811
    1DPPC   C20   20   5.016   6.484   4.719
    1DPPC   C21   21   5.131   6.468   4.619
    1DPPC   C22   22   5.126   6.570   4.505
    1DPPC   C23   23   5.236   6.517   4.412
    1DPPC   C24   24   5.228   6.599   4.284
    1DPPC   C25   25   5.310   6.520   4.181
    1DPPC   C26   26   5.294   6.596   4.049
    1DPPC   C27   27   5.353   6.527   3.926
    1DPPC   C28   28   5.320   6.604   3.797
    1DPPC   C29   29   5.378   6.535   3.674
    1DPPC   C30   30   5.328   6.585   3.539
    1DPPC   C31   31   5.355   6.736   3.530
    1DPPC   C32   32   5.461   5.874   5.068
    1DPPC   O33   33   5.555   5.883   4.962
    1DPPC   C34   34   5.644   5.780   4.949
    1DPPC   O35   35   5.644   5.697   5.040
    1DPPC   C36   36   5.735   5.778   4.826
    1DPPC   C37   37   5.717   5.645   4.753
    1DPPC   C38   38   5.804   5.634   4.628
    1DPPC   C39   39   5.948   5.632   4.681
    1DPPC   C40   40   6.054   5.627   4.571
    1DPPC   C41   41   6.047   5.502   4.484
    1DPPC   C42   42   6.100   5.540   4.345
    1DPPC   C43   43   6.085   5.416   4.257
    1DPPC   C44   44   6.140   5.445   4.117
    1DPPC   C45   45   6.117   5.336   4.012
    1DPPC   C46   46   6.158   5.400   3.879
    1DPPC   C47   47   6.070   5.516   3.831
    1DPPC   C48   48   6.134   5.583   3.709
    1DPPC   C49   49   6.043   5.683   3.637
    1DPPC   C50   50   6.018   5.793   3.741
    2DPPC    C1   51   3.525   0.767   1.777
    2DPPC    C2   52   3.681   0.875   1.648
    2DPPC    C3   53   3.476   0.981   1.704
    2DPPC    N4   54   3.586   0.900   1.758
    2DPPC    C5   55   3.635   0.951   1.886
    2DPPC    C6   56   3.699   1.090   1.886
    2DPPC    O7   57   3.720   1.138   2.019
    2DPPC    P8   58   3.814   1.268   2.026
    2DPPC    O9   59   3.750   1.358   1.928
    2DPPC   O10   60   3.957   1.233   2.041
    2DPPC   O11   61   3.763   1.308   2.174
    2DPPC   C12   62   3.833   1.236   2.277
    2DPPC   C13   63   3.815   1.274   2.424
    2DPPC   O14   64   3.920   1.210   2.499
    2DPPC   C15   65   4.044   1.258   2.473
    2DPPC   O16   66   4.059   1.376   2.442
    2DPPC   C17   67   4.158   1.176   2.533
    2DPPC   C18   68   4.125   1.110   2.667
    2DPPC   C19   69   4.226   1.000   2.699
    2DPPC   C20   70   4.204   0.939   2.838
    2DPPC   C21   71   4.326   0.849   2.856
    2DPPC   C22   72   4.302   0.772   2.986
    2DPPC   C23   73   4.257   0.860   3.103
    2DPPC   C24   74   4.233   0.759   3.216
    2DPPC   C25   75   4.205   0.839   3.343
    2DPPC   C26   76   4.102   0.765   3.428
    2DPPC   C27   77   4.047   0.868   3.528
    2DPPC   C28   78   3.966   0.787   3.629
    2DPPC   C29   79   3.959   0.879   3.751
    2DPPC   C30   80   3.879   0.810   3.861
    2DPPC   C31   81   3.735   0.796   3.811
    2DPPC   C32   82   3.671   1.237   2.458
    2DPPC   O33   83   3.646   1.277   2.593
    2DPPC   C34   84   3.519   1.256   2.637
    2DPPC   O35   85   3.425   1.237   2.560
    2DPPC   C36   86   3.490   1.295   2.782
    2DPPC   C37   87   3.358   1.244   2.841
    2DPPC   C38   88   3.348   1.287   2.987
    2DPPC   C39   89   3.476   1.246   3.060
    2DPPC   C40   90   3.469   1.331   3.187
    2DPPC   C41   91   3.467   1.480   3.152
    2DPPC   C42   92   3.503   1.579   3.263
    2DPPC   C43   93   3.460   1.721   3.226
    2DPPC   C44   94   3.308   1.725   3.207
    2DPPC   C45   95   3.259   1.869   3.191
    2DPPC   C46   96   3.123   1.870   3.121
    2DPPC   C47   97   3.088   2.012   3.077
    2DPPC   C48   98   2.962   1.984   2.996
    2DPPC   C49   99   2.837   1.927   3.063
    2DPPC   C50  100   2.735   1.887   2.956
    3DPPC    C1  101   6.493   4.410   5.226
    3DPPC    C2  102   6.517   4.420   5.466
    3DPPC    C3  103   6.587   4.237   5.348
    3DPPC    N4  104   6.582   4.384   5.340
    3DPPC    C5  105   6.703   4.463   5.313
    3DPPC    C6  106   6.704   4.608   5.361
    3DPPC    O7  107   6.616   4.698   5.294
    3DPPC    P8  108   6.629   4.847   5.355
    3DPPC    O9  109   6.678   4.829   5.493
    3DPPC   O10  110   6.512   4.929   5.314
    3DPPC   O11  111   6.763   4.890   5.276
    3DPPC   C12  112   6.719   4.914   5.142
    3DPPC   C13  113   6.831   4.963   5.049
    3DPPC   O14  114   6.777   5.006   4.923
    3DPPC   C15  115   6.842   5.088   4.836
    3DPPC   O16  116   6.926   5.163   4.886
    3DPPC   C17  117   6.778   5.110   4.699
    3DPPC   C18  118   6.864   5.095   4.574
    3DPPC   C19  119   6.799   5.074   4.437
    3DPPC   C20  120   6.879   5.147   4.329
    3DPPC   C21  121   6.850   5.073   4.198
    3DPPC   C22  122   6.917   5.138   4.077
    3DPPC   C23  123   6.882   5.055   3.954
    3DPPC   C24  124   6.929   4.910   3.971
    3DPPC   C25  125   6.876   4.825   3.856
    3DPPC   C26  126   6.942   4.688   3.840
    3DPPC   C27  127   6.885   4.598   3.730
    3DPPC   C28  128   6.930   4.452   3.740
    3DPPC   C29  129   6.890   4.395   3.876
    3DPPC   C30  130   6.939   4.252   3.897
    3DPPC   C31  131   6.862   4.169   3.794
    3DPPC   C32  132   6.926   4.843   5.052
    3DPPC   O33  133   6.869   4.740   4.970
    3DPPC   C34  134   6.941   4.627   4.951
    3DPPC   O35  135   7.055   4.624   4.998
    3DPPC   C36  136   6.904   4.520   4.848
    3DPPC   C37  137   6.803   4.427   4.914
    3DPPC   C38  138   6.764   4.308   4.825
    3DPPC   C39  139   6.718   4.368   4.692
    3DPPC   C40  140   6.703   4.257   4.587
    3DPPC   C41  141   6.699   4.309   4.443
    3DPPC   C42  142   6.828   4.386   4.415
    3DPPC   C43  143   6.850   4.434   4.271
    3DPPC   C44  144   6.905   4.575   4.249
    3DPPC   C45  145   7.056   4.581   4.274
    3DPPC   C46  146   7.110   4.723   4.287
    3DPPC   C47  147   7.251   4.730   4.345
    3DPPC   C48  148   7.254   4.685   4.491
    3DPPC   C49  149   7.215   4.800   4.585
    3DPPC   C50  150   7.218   4.758   4.732
    4DPPC    C1  151   8.584   4.002   1.763
    4DPPC    C2  152   8.492   4.130   1.619
    4DPPC    C3  153   8.399   3.904   1.623
    4DPPC    N4  154   8.451   4.016   1.703
    4DPPC    C5  155   8.355   4.060   1.806
    4DPPC    C6  156   8.217   4.095   1.750
    4DPPC    O7  157   8.196   4.200   1.655
    4DPPC    P8  158   8.044   4.195   1.601
    4DPPC    O9  159   7.994   4.056   1.612
    4DPPC   O10  160   8.037   4.276   1.478
    4DPPC   O11  161   7.958   4.271   1.713
    4DPPC   C12  162   8.021   4.399   1.730
    4DPPC   C13  163   7.935   4.513   1.675
    4DPPC   O14  164   7.992   4.642   1.705
    4DPPC   C15  165   7.923   4.752   1.666
    4DPPC   O16  166   7.838   4.739   1.577
    4DPPC   C17  167   7.979   4.885   1.714
    4DPPC   C18  168   7.896   4.940   1.830
    4DPPC   C19  169   7.871   4.842   1.945
    4DPPC   C20  170   7.998   4.818   2.027
    4DPPC   C21  171   7.953   4.743   2.153
    4DPPC   C22  172   7.874   4.853   2.225
    4DPPC   C23  173   7.817   4.794   2.354
    4DPPC   C24  174   7.751   4.905   2.436
    4DPPC   C25  175   7.673   4.848   2.554
    4DPPC   C26  176   7.550   4.776   2.497
    4DPPC   C27  177   7.464   4.710   2.605
    4DPPC   C28  178   7.394   4.812   2.695
    4DPPC   C29  179   7.327   4.724   2.801
    4DPPC   C30  180   7.228   4.821   2.865
    4DPPC   C31  181   7.109   4.735   2.907
    4DPPC   C32  182   7.796   4.481   1.732
    4DPPC   O33  183   7.782   4.503   1.872
    4DPPC   C34  184   7.671   4.446   1.925
    4DPPC   O35  185   7.619   4.346   1.875
    4DPPC   C36  186   7.630   4.493   2.064
    4DPPC   C37  187   7.577   4.372   2.142
    4DPPC   C38  188   7.593   4.375   2.294
    4DPPC   C39  189   7.548   4.235   2.336
    4DPPC   C40  190   7.558   4.211   2.487
    4DPPC   C41  191   7.478   4.297   2.586
    4DPPC   C42  192   7.498   4.250   2.730
    4DPPC   C43  193   7.400   4.332   2.814
    4DPPC   C44  194   7.406   4.286   2.959
    4DPPC   C45  195   7.374   4.137   2.974
    4DPPC   C46  196   7.357   4.099   3.121
    4DPPC   C47  197   7.467   4.141   3.219
    4DPPC   C48  198   7.467   4.080   3.359
    4DPPC   C49  199   7.326   4.087   3.418
    4DPPC   C50  200   7.331   4.110   3.569
    5DPPC    C1  201   8.717   4.684   5.623
    5DPPC    C2  202   8.894   4.839   5.637
    5DPPC    C3  203   8.875   4.670   5.795
    5DPPC    N4  204   8.861   4.697   5.651
    5DPPC    C5  205   8.946   4.612   5.566
    5DPPC    C6  206   8.893   4.472   5.536
    5DPPC    O7  207   8.877   4.384   5.647
    5DPPC    P8  208   8.803   4.249   5.601
    5DPPC    O9  209   8.765   4.145   5.699
    5DPPC   O10  210   8.830   4.215   5.459
    5DPPC   O11  211   8.667   4.335   5.597
    5DPPC   C12  212   8.582   4.245   5.524
    5DPPC   C13  213   8.451   4.302   5.472
    5DPPC   O14  214   8.371   4.195   5.419
    5DPPC   C15  215   8.242   4.212   5.379
    5DPPC   O16  216   8.191   4.323   5.364
    5DPPC   C17  217   8.170   4.087   5.328
    5DPPC   C18  218   8.204   4.066   5.180
    5DPPC   C19  219   8.131   3.942   5.127
    5DPPC   C20  220   8.168   3.917   4.981
    5DPPC   C21  221   8.315   3.874   4.985
    5DPPC   C22  222   8.365   3.861   4.841
    5DPPC   C23  223   8.356   3.999   4.776
    5DPPC   C24  224   8.351   3.987   4.623
    5DPPC   C25  225   8.495   3.957   4.579
    5DPPC   C26  226   8.481   3.964   4.427
    5DPPC   C27  227   8.608   3.919   4.355
    5DPPC   C28  228   8.576   3.917   4.205
    5DPPC   C29  229   8.690   3.848   4.130
    5DPPC   C30  230   8.651   3.825   3.984
    5DPPC   C31  231   8.736   3.719   3.912
    5DPPC   C32  232   8.501   4.416   5.382
    5DPPC   O33  233   8.565   4.368   5.264
    5DPPC   C34  234   8.648   4.454   5.200
    5DPPC   O35  235   8.696   4.544   5.269
    5DPPC   C36  236   8.709   4.413   5.066
    5DPPC   C37  237   8.858   4.432   5.040
    5DPPC   C38  238   8.897   4.399   4.895
    5DPPC   C39  239   9.049   4.394   4.878
    5DPPC   C40  240   9.101   4.330   4.750
    5DPPC   C41  241   9.072   4.180   4.743
    5DPPC   C42  242   9.175   4.115   4.652
    5DPPC   C43  243   9.179   4.178   4.512
    5DPPC   C44  244   9.073   4.118   4.419
    5DPPC   C45  245   9.073   4.212   4.298
    5DPPC   C46  246   8.950   4.177   4.215
    5DPPC   C47  247   8.966   4.240   4.076
    5DPPC   C48  248   8.961   4.125   3.974
    5DPPC   C49  249   8.944   4.186   3.835
    5DPPC   C50  250   8.940   4.087   3.718
    6DPPC    C1  251   6.251   0.553   5.548
    6DPPC    C2  252   6.255   0.736   5.408
    6DPPC    C3  253   6.446   0.603   5.414
    6DPPC    N4  254   6.299   0.597   5.416
    6DPPC    C5  255   6.257   0.518   5.300
    6DPPC    C6  256   6.223   0.371   5.325
    6DPPC    O7  257   6.342   0.302   5.363
    6DPPC    P8  258   6.303   0.147   5.386
    6DPPC    O9  259   6.229   0.091   5.271
    6DPPC   O10  260   6.236   0.160   5.518
    6DPPC   O11  261   6.445   0.074   5.404
    6DPPC   C12  262   6.474   0.005   5.282
    6DPPC   C13  263   6.614  -0.057   5.284
    6DPPC   O14  264   6.707   0.007   5.196
    6DPPC   C15  265   6.839   0.011   5.227
    6DPPC   O16  266   6.885  -0.027   5.335
    6DPPC   C17  267   6.916   0.109   5.137
    6DPPC   C18  268   7.068   0.092   5.140
    6DPPC   C19  269   7.132   0.178   5.032
    6DPPC   C20  270   7.283   0.187   5.055
    6DPPC   C21  271   7.361   0.262   4.947
    6DPPC   C22  272   7.470   0.349   5.010
    6DPPC   C23  273   7.519   0.450   4.906
    6DPPC   C24  274   7.567   0.387   4.775
    6DPPC   C25  275   7.602   0.507   4.687
    6DPPC   C26  276   7.648   0.470   4.545
    6DPPC   C27  277   7.704   0.589   4.466
    6DPPC   C28  278   7.839   0.631   4.523
    6DPPC   C29  279   7.910   0.748   4.455
    6DPPC   C30  280   8.038   0.770   4.536
    6DPPC   C31  281   8.008   0.836   4.671
    6DPPC   C32  282   6.588  -0.208   5.273
    6DPPC   O33  283   6.513  -0.229   5.153
    6DPPC   C34  284   6.497  -0.359   5.115
    6DPPC   O35  285   6.538  -0.446   5.191
    6DPPC   C36  286   6.413  -0.393   4.992
    6DPPC   C37  287   6.453  -0.340   4.854
    6DPPC   C38  288   6.353  -0.402   4.756
    6DPPC   C39  289   6.379  -0.372   4.609
    6DPPC   C40  290   6.263  -0.405   4.515
    6DPPC   C41  291   6.307  -0.457   4.378
    6DPPC   C42  292   6.395  -0.582   4.372
    6DPPC   C43  293   6.524  -0.559   4.294
    6DPPC   C44  294   6.553  -0.671   4.194
    6DPPC   C45  295   6.654  -0.636   4.085
    6DPPC   C46  296   6.684  -0.771   4.020
    6DPPC   C47  297   6.816  -0.766   3.942
    6DPPC   C48  298   6.815  -0.671   3.822
    6DPPC   C49  299   6.961  -0.651   3.780
    6DPPC   C50  300   6.956  -0.547   3.668
    7DPPC    C1  301   2.983   1.500   5.576
    7DPPC    C2  302   2.791   1.458   5.706
    7DPPC    C3  303   2.805   1.442   5.454
    7DPPC    N4  304   2.865   1.414   5.586
    7DPPC    C5  305   2.910   1.275   5.595
    7DPPC    C6  306   2.806   1.169   5.634
    7DPPC    O7  307   2.726   1.149   5.517
    7DPPC    P8  308   2.603   1.055   5.560
    7DPPC    O9  309   2.513   1.160   5.614
    7DPPC   O10  310   2.668   0.954   5.646
    7DPPC   O11  311   2.581   1.007   5.408
    7DPPC   C12  312   2.531   1.108   5.321
    7DPPC   C13  313   2.541   1.056   5.177
    7DPPC   O14  314   2.432   0.977   5.130
    7DPPC   C15  315   2.310   1.031   5.102
    7DPPC   O16  316   2.268   1.134   5.153
    7DPPC   C17  317   2.210   0.935   5.036
    7DPPC   C18  318   2.258   0.930   4.891
    7DPPC   C19  319   2.199   0.815   4.809
    7DPPC   C20  320   2.050   0.848   4.802
    7DPPC   C21  321   1.976   0.760   4.701
    7DPPC   C22  322   2.044   0.761   4.564
    7DPPC   C23  323   2.054   0.894   4.489
    7DPPC   C24  324   2.124   0.886   4.353
    7DPPC   C25  325   2.141   1.025   4.290
    7DPPC   C26  326   2.003   1.076   4.247
    7DPPC   C27  327   2.013   1.196   4.152
    7DPPC   C28  328   2.092   1.166   4.025
    7DPPC   C29  329   2.018   1.060   3.942
    7DPPC   C30  330   2.099   1.054   3.813
    7DPPC   C31  331   2.068   1.173   3.723
    7DPPC   C32  332   2.678   0.987   5.170
    7DPPC   O33  333   2.774   1.092   5.185
    7DPPC   C34  334   2.902   1.047   5.180
    7DPPC   O35  335   2.940   0.930   5.191
    7DPPC   C36  336   3.011   1.155   5.178
    7DPPC   C37  337   2.995   1.247   5.057
    7DPPC   C38  338   3.096   1.361   5.060
    7DPPC   C39  339   3.079   1.446   4.933
    7DPPC   C40  340   2.937   1.501   4.939
    7DPPC   C41  341   2.903   1.556   4.800
    7DPPC   C42  342   2.916   1.448   4.693
    7DPPC   C43  343   2.885   1.473   4.545
    7DPPC   C44  344   2.893   1.349   4.455
    7DPPC   C45  345   2.854   1.392   4.313
    7DPPC   C46  346   2.877   1.280   4.212
    7DPPC   C47  347   2.834   1.327   4.073
    7DPPC   C48  348   2.858   1.230   3.956
    7DPPC   C49  349   2.822   1.284   3.818
    7DPPC   C50  350   2.826   1.175   3.710
    8DPPC    C1  351   8.534   5.777   4.688
    8DPPC    C2  352   8.723   5.714   4.824
    8DPPC    C3  353   8.575   5.894   4.881
    8DPPC    N4  354   8.583   5.758   4.825
    8DPPC    C5  355   8.492   5.672   4.902
    8DPPC    C6  356   8.501   5.626   5.047
    8DPPC    O7  357   8.620   5.553   5.081
    8DPPC    P8  358   8.605   5.498   5.231
    8DPPC    O9  359   8.546   5.606   5.315
    8DPPC   O10  360   8.726   5.423   5.273
    8DPPC   O11  361   8.483   5.396   5.212
    8DPPC   C12  362   8.520   5.309   5.105
    8DPPC   C13  363   8.428   5.194   5.064
    8DPPC   O14  364   8.489   5.095   4.980
    8DPPC   C15  365   8.533   4.978   5.032
    8DPPC   O16  366   8.555   4.959   5.152
    8DPPC   C17  367   8.564   4.877   4.922
    8DPPC   C18  368   8.444   4.826   4.841
    8DPPC   C19  369   8.367   4.933   4.763
    8DPPC   C20  370   8.292   4.865   4.648
    8DPPC   C21  371   8.146   4.842   4.686
    8DPPC   C22  372   8.074   4.815   4.554
    8DPPC   C23  373   8.113   4.922   4.452
    8DPPC   C24  374   8.041   4.906   4.319
    8DPPC   C25  375   8.077   5.029   4.235
    8DPPC   C26  376   8.025   5.024   4.092
    8DPPC   C27  377   8.074   5.146   4.014
    8DPPC   C28  378   8.225   5.139   3.993
    8DPPC   C29  379   8.263   5.025   3.898
    8DPPC   C30  380   8.402   5.029   3.834
    8DPPC   C31  381   8.455   4.891   3.798
    8DPPC   C32  382   8.302   5.253   5.000
    8DPPC   O33  383   8.307   5.367   4.913
    8DPPC   C34  384   8.185   5.407   4.870
    8DPPC   O35  385   8.077   5.377   4.920
    8DPPC   C36  386   8.193   5.496   4.746
    8DPPC   C37  387   8.263   5.437   4.623
    8DPPC   C38  388   8.295   5.531   4.507
    8DPPC   C39  389   8.193   5.494   4.399
    8DPPC   C40  390   8.244   5.558   4.270
    8DPPC   C41  391   8.147   5.526   4.155
    8DPPC   C42  392   8.214   5.585   4.030
    8DPPC   C43  393   8.130   5.567   3.904
    8DPPC   C44  394   8.198   5.632   3.783
    8DPPC   C45  395   8.117   5.583   3.664
    8DPPC   C46  396   8.067   5.439   3.677
    8DPPC   C47  397   8.023   5.376   3.544
    8DPPC   C48  398   7.950   5.246   3.577
    8DPPC   C49  399   7.923   5.165   3.450
    8DPPC   C50  400   7.895   5.018   3.480
    9DPPC    C1  401   3.202   2.903   6.115
    9DPPC    C2  402   3.066   2.742   6.243
    9DPPC    C3  403   2.995   2.965   6.206
    9DPPC    N4  404   3.067   2.852   6.146
    9DPPC    C5  405   3.002   2.799   6.025
    9DPPC    C6  406   2.943   2.903   5.931
    9DPPC    O7  407   3.033   2.960   5.836
    9DPPC    P8  408   2.947   3.007   5.708
    9DPPC    O9  409   3.018   3.127   5.662
    9DPPC   O10  410   2.808   3.014   5.759
    9DPPC   O11  411   2.949   2.877   5.613
    9DPPC   C12  412   3.072   2.902   5.544
    9DPPC   C13  413   3.134   2.767   5.504
    9DPPC   O14  414   3.260   2.785   5.440
    9DPPC   C15  415   3.345   2.679   5.435
    9DPPC   O16  416   3.356   2.608   5.535
    9DPPC   C17  417   3.458   2.693   5.333
    9DPPC   C18  418   3.422   2.653   5.190
    9DPPC   C19  419   3.545   2.644   5.100
    9DPPC   C20  420   3.508   2.641   4.952
    9DPPC   C21  421   3.630   2.615   4.863
    9DPPC   C22  422   3.604   2.586   4.715
    9DPPC   C23  423   3.737   2.577   4.640
    9DPPC   C24  424   3.729   2.500   4.508
    9DPPC   C25  425   3.867   2.487   4.444
    9DPPC   C26  426   3.847   2.369   4.349
    9DPPC   C27  427   3.964   2.360   4.251
    9DPPC   C28  428   3.950   2.244   4.152
    9DPPC   C29  429   4.079   2.247   4.069
    9DPPC   C30  430   4.206   2.209   4.145
    9DPPC   C31  431   4.310   2.190   4.034
    9DPPC   C32  432   3.025   2.706   5.416
    9DPPC   O33  433   2.999   2.782   5.297
    9DPPC   C34  434   2.903   2.738   5.212
    9DPPC   O35  435   2.817   2.651   5.231
    9DPPC   C36  436   2.914   2.816   5.081
    9DPPC   C37  437   2.897   2.720   4.963
    9DPPC   C38  438   2.904   2.800   4.833
    9DPPC   C39  439   2.799   2.911   4.841
    9DPPC   C40  440   2.802   2.994   4.713
    9DPPC   C41  441   2.682   3.088   4.714
    9DPPC   C42  442   2.669   3.177   4.590
    9DPPC   C43  443   2.558   3.281   4.606
    9DPPC   C44  444   2.539   3.374   4.486
    9DPPC   C45  445   2.440   3.327   4.379
    9DPPC   C46  446   2.297   3.306   4.430
    9DPPC   C47  447   2.216   3.246   4.315
    9DPPC   C48  448   2.273   3.110   4.275
    9DPPC   C49  449   2.161   3.005   4.274
    9DPPC   C50  450   2.210   2.867   4.232
   10DPPC    C1  451   8.413   6.181   5.490
   10DPPC    C2  452   8.522   6.374   5.433
   10DPPC    C3  453   8.520   6.203   5.276
   10DPPC    N4  454   8.435   6.271   5.375
   10DPPC    C5  455   8.315   6.339   5.324
   10DPPC    C6  456   8.206   6.255   5.256
   10DPPC    O7  457   8.095   6.334   5.212
   10DPPC    P8  458   8.001   6.223   5.143
   10DPPC    O9  459   7.909   6.313   5.069
   10DPPC   O10  460   7.961   6.110   5.230
   10DPPC   O11  461   8.109   6.165   5.039
   10DPPC   C12  462   8.104   6.249   4.923
   10DPPC   C13  463   8.232   6.232   4.841
   10DPPC   O14  464   8.261   6.351   4.766
   10DPPC   C15  465   8.383   6.370   4.709
   10DPPC   O16  466   8.479   6.311   4.757
   10DPPC   C17  467   8.388   6.459   4.585
   10DPPC   C18  468   8.398   6.369   4.462
   10DPPC   C19  469   8.524   6.284   4.448
   10DPPC   C20  470   8.494   6.191   4.330
   10DPPC   C21  471   8.442   6.057   4.383
   10DPPC   C22  472   8.440   5.968   4.258
   10DPPC   C23  473   8.581   5.964   4.198
   10DPPC   C24  474   8.574   5.910   4.055
   10DPPC   C25  475   8.709   5.924   3.987
   10DPPC   C26  476   8.711   5.843   3.857
   10DPPC   C27  477   8.848   5.844   3.788
   10DPPC   C28  478   8.953   5.787   3.883
   10DPPC   C29  479   9.094   5.812   3.830
   10DPPC   C30  480   9.146   5.955   3.848
   10DPPC   C31  481   9.292   5.965   3.803
   10DPPC   C32  482   8.233   6.095   4.773
   10DPPC   O33  483   8.114   6.074   4.695
   10DPPC   C34  484   8.114   5.963   4.617
   10DPPC   O35  485   8.216   5.897   4.599
   10DPPC   C36  486   8.009   5.970   4.506
   10DPPC   C37  487   8.001   5.860   4.400
   10DPPC   C38  488   7.885   5.893   4.306
   10DPPC   C39  489   7.887   5.793   4.190
   10DPPC   C40  490   7.807   5.864   4.079
   10DPPC   C41  491   7.812   5.778   3.953
   10DPPC   C42  492   7.714   5.858   3.868
   10DPPC   C43  493   7.703   5.796   3.728
   10DPPC   C44  494   7.759   5.885   3.618
   10DPPC   C45  495   7.739   5.813   3.485
   10DPPC   C46  496   7.786   5.667   3.490
   10DPPC   C47  497   7.767   5.605   3.352
   10DPPC   C48  498   7.863   5.654   3.244
   10DPPC   C49  499   7.822   5.599   3.107
   10DPPC   C50  500   7.933   5.610   3.002
   11DPPC    C1  501   6.458   7.581   5.577
   11DPPC    C2  502   6.540   7.658   5.783
   11DPPC    C3  503   6.578   7.425   5.721
   11DPPC    N4  504   6.568   7.564   5.674
   11DPPC    C5  505   6.684   7.590   5.588
   11DPPC    C6  506   6.768   7.717   5.606
   11DPPC    O7  507   6.697   7.820   5.537
   11DPPC    P8  508   6.754   7.960   5.593
   11DPPC    O9  509   6.804   7.936   5.730
   11DPPC   O10  510   6.649   8.064   5.579
   11DPPC   O11  511   6.868   7.971   5.481
   11DPPC   C12  512   6.809   8.023   5.361
   11DPPC   C13  513   6.912   8.027   5.248
   11DPPC   O14  514   6.889   8.126   5.148
   11DPPC   C15  515   7.001   8.165   5.081
   11DPPC   O16  516   7.109   8.166   5.141
   11DPPC   C17  517   6.971   8.264   4.969
   11DPPC   C18  518   6.844   8.229   4.891
   11DPPC   C19  519   6.827   8.318   4.767
   11DPPC   C20  520   6.832   8.461   4.820
   11DPPC   C21  521   6.866   8.552   4.702
   11DPPC   C22  522   6.830   8.700   4.722
   11DPPC   C23  523   6.848   8.774   4.590
   11DPPC   C24  524   6.808   8.922   4.600
   11DPPC   C25  525   6.794   8.993   4.465
   11DPPC   C26  526   6.698   9.112   4.463
   11DPPC   C27  527   6.561   9.045   4.449
   11DPPC   C28  528   6.525   8.961   4.326
   11DPPC   C29  529   6.381   8.909   4.331
   11DPPC   C30  530   6.357   8.821   4.208
   11DPPC   C31  531   6.211   8.776   4.202
   11DPPC   C32  532   6.938   7.878   5.225
   11DPPC   O33  533   6.815   7.822   5.179
   11DPPC   C34  534   6.827   7.694   5.136
   11DPPC   O35  535   6.919   7.622   5.174
   11DPPC   C36  536   6.716   7.649   5.040
   11DPPC   C37  537   6.721   7.740   4.916
   11DPPC   C38  538   6.603   7.722   4.822
   11DPPC   C39  539   6.626   7.822   4.708
   11DPPC   C40  540   6.771   7.855   4.669
   11DPPC   C41  541   6.763   7.958   4.557
   11DPPC   C42  542   6.904   8.004   4.518
   11DPPC   C43  543   6.946   7.907   4.407
   11DPPC   C44  544   7.090   7.953   4.380
   11DPPC   C45  545   7.088   8.098   4.332
   11DPPC   C46  546   7.013   8.102   4.199
   11DPPC   C47  547   7.025   8.248   4.153
   11DPPC   C48  548   7.170   8.275   4.112
   11DPPC   C49  549   7.173   8.426   4.091
   11DPPC   C50  550   7.314   8.486   4.084
   12DPPC    C1  551   9.341   1.756   5.082
   12DPPC    C2  552   9.556   1.831   5.085
   12DPPC    C3  553   9.450   1.786   5.291
   12DPPC    N4  554   9.468   1.736   5.154
   12DPPC    C5  555   9.517   1.598   5.134
   12DPPC    C6  556   9.453   1.474   5.195
   12DPPC    O7  557   9.476   1.367   5.102
   12DPPC    P8  558   9.423   1.234   5.176
   12DPPC    O9  559   9.429   1.241   5.324
   12DPPC   O10  560   9.476   1.118   5.102
   12DPPC   O11  561   9.266   1.262   5.149
   12DPPC   C12  562   9.229   1.193   5.029
   12DPPC   C13  563   9.080   1.209   4.998
   12DPPC   O14  564   9.030   1.129   4.890
   12DPPC   C15  565   9.001   0.998   4.913
   12DPPC   O16  566   8.996   0.955   5.028
   12DPPC   C17  567   8.937   0.929   4.792
   12DPPC   C18  568   8.894   1.006   4.668
   12DPPC   C19  569   8.787   1.113   4.691
   12DPPC   C20  570   8.766   1.180   4.555
   12DPPC   C21  571   8.665   1.295   4.558
   12DPPC   C22  572   8.643   1.373   4.428
   12DPPC   C23  573   8.580   1.284   4.320
   12DPPC   C24  574   8.525   1.370   4.206
   12DPPC   C25  575   8.415   1.465   4.256
   12DPPC   C26  576   8.385   1.557   4.137
   12DPPC   C27  577   8.297   1.510   4.022
   12DPPC   C28  578   8.153   1.468   4.051
   12DPPC   C29  579   8.074   1.404   3.937
   12DPPC   C30  580   7.933   1.369   3.985
   12DPPC   C31  581   7.944   1.267   4.099
   12DPPC   C32  582   9.051   1.356   4.970
   12DPPC   O33  583   9.127   1.391   4.854
   12DPPC   C34  584   9.109   1.517   4.805
   12DPPC   O35  585   9.057   1.608   4.869
   12DPPC   C36  586   9.200   1.556   4.688
   12DPPC   C37  587   9.147   1.505   4.553
   12DPPC   C38  588   9.029   1.585   4.497
   12DPPC   C39  589   9.024   1.554   4.348
   12DPPC   C40  590   8.908   1.603   4.260
   12DPPC   C41  591   8.919   1.585   4.108
   12DPPC   C42  592   8.823   1.673   4.028
   12DPPC   C43  593   8.815   1.618   3.886
   12DPPC   C44  594   8.704   1.693   3.811
   12DPPC   C45  595   8.740   1.836   3.772
   12DPPC   C46  596   8.627   1.917   3.709
   12DPPC   C47  597   8.500   1.930   3.794
   12DPPC   C48  598   8.420   2.055   3.758
   12DPPC   C49  599   8.286   2.039   3.830
   12DPPC   C50  600   8.213   1.912   3.784
   13DPPC    C1  601   1.648   1.571   5.129
   13DPPC    C2  602   1.780   1.431   5.284
   13DPPC    C3  603   1.617   1.550   5.375
   13DPPC    N4  604   1.647   1.484   5.247
   13DPPC    C5  605   1.568   1.361   5.234
   13DPPC    C6  606   1.418   1.377   5.258
   13DPPC    O7  607   1.323   1.287   5.201
   13DPPC    P8  608   1.175   1.344   5.230
   13DPPC    O9  609   1.166   1.367   5.376
   13DPPC   O10  610   1.085   1.246   5.165
   13DPPC   O11  611   1.178   1.491   5.165
   13DPPC   C12  612   1.084   1.498   5.058
   13DPPC   C13  613   1.083   1.637   4.995
   13DPPC   O14  614   0.996   1.657   4.883
   13DPPC   C15  615   0.862   1.656   4.905
   13DPPC   O16  616   0.818   1.642   5.019
   13DPPC   C17  617   0.771   1.656   4.781
   13DPPC   C18  618   0.753   1.516   4.724
   13DPPC   C19  619   0.660   1.534   4.604
   13DPPC   C20  620   0.610   1.401   4.548
   13DPPC   C21  621   0.500   1.422   4.444
   13DPPC   C22  622   0.357   1.435   4.497
   13DPPC   C23  623   0.253   1.440   4.385
   13DPPC   C24  624   0.114   1.409   4.442
   13DPPC   C25  625   0.020   1.435   4.324
   13DPPC   C26  626   0.038   1.575   4.265
   13DPPC   C27  627  -0.054   1.573   4.142
   13DPPC   C28  628  -0.041   1.697   4.055
   13DPPC   C29  629  -0.175   1.720   3.984
   13DPPC   C30  630  -0.147   1.819   3.871
   13DPPC   C31  631  -0.102   1.956   3.921
   13DPPC   C32  632   1.231   1.655   4.959
   13DPPC   O33  633   1.289   1.547   4.886
   13DPPC   C34  634   1.401   1.582   4.817
   13DPPC   O35  635   1.476   1.669   4.859
   13DPPC   C36  636   1.439   1.487   4.702
   13DPPC   C37  637   1.365   1.527   4.574
   13DPPC   C38  638   1.234   1.449   4.561
   13DPPC   C39  639   1.159   1.481   4.432
   13DPPC   C40  640   1.027   1.403   4.424
   13DPPC   C41  641   0.948   1.441   4.299
   13DPPC   C42  642   0.828   1.346   4.294
   13DPPC   C43  643   0.794   1.334   4.146
   13DPPC   C44  644   0.671   1.244   4.134
   13DPPC   C45  645   0.698   1.105   4.192
   13DPPC   C46  646   0.775   1.015   4.095
   13DPPC   C47  647   0.793   0.880   4.166
   13DPPC   C48  648   0.848   0.775   4.070
   13DPPC   C49  649   0.854   0.630   4.120
   13DPPC   C50  650   0.930   0.617   4.252
   14DPPC    C1  651   8.520   3.350   5.634
   14DPPC    C2  652   8.483   3.518   5.803
   14DPPC    C3  653   8.696   3.445   5.746
   14DPPC    N4  654   8.565   3.479   5.688
   14DPPC    C5  655   8.566   3.594   5.596
   14DPPC    C6  656   8.637   3.581   5.462
   14DPPC    O7  657   8.775   3.545   5.476
   14DPPC    P8  658   8.819   3.452   5.352
   14DPPC    O9  659   8.715   3.346   5.352
   14DPPC   O10  660   8.963   3.419   5.353
   14DPPC   O11  661   8.804   3.574   5.248
   14DPPC   C12  662   8.732   3.526   5.133
   14DPPC   C13  663   8.606   3.610   5.112
   14DPPC   O14  664   8.522   3.550   5.012
   14DPPC   C15  665   8.423   3.469   5.057
   14DPPC   O16  666   8.400   3.461   5.178
   14DPPC   C17  667   8.348   3.392   4.949
   14DPPC   C18  668   8.439   3.286   4.887
   14DPPC   C19  669   8.388   3.219   4.759
   14DPPC   C20  670   8.384   3.315   4.640
   14DPPC   C21  671   8.332   3.261   4.507
   14DPPC   C22  672   8.308   3.372   4.405
   14DPPC   C23  673   8.436   3.452   4.379
   14DPPC   C24  674   8.411   3.561   4.274
   14DPPC   C25  675   8.357   3.494   4.148
   14DPPC   C26  676   8.364   3.599   4.037
   14DPPC   C27  677   8.334   3.546   3.897
   14DPPC   C28  678   8.320   3.651   3.785
   14DPPC   C29  679   8.219   3.758   3.825
   14DPPC   C30  680   8.190   3.829   3.693
   14DPPC   C31  681   8.325   3.879   3.641
   14DPPC   C32  682   8.660   3.742   5.058
   14DPPC   O33  683   8.772   3.737   4.969
   14DPPC   C34  684   8.810   3.861   4.928
   14DPPC   O35  685   8.761   3.960   4.982
   14DPPC   C36  686   8.931   3.860   4.835
   14DPPC   C37  687   8.937   3.744   4.735
   14DPPC   C38  688   8.841   3.780   4.622
   14DPPC   C39  689   8.881   3.699   4.499
   14DPPC   C40  690   8.859   3.548   4.512
   14DPPC   C41  691   8.928   3.478   4.394
   14DPPC   C42  692   8.876   3.335   4.373
   14DPPC   C43  693   8.925   3.272   4.243
   14DPPC   C44  694   8.835   3.163   4.184
   14DPPC   C45  695   8.905   3.034   4.142
   14DPPC   C46  696   8.809   2.957   4.051
   14DPPC   C47  697   8.880   2.825   4.021
   14DPPC   C48  698   8.924   2.818   3.875
   14DPPC   C49  699   9.004   2.690   3.845
   14DPPC   C50  700   9.031   2.659   3.698
   15DPPC    C1  701   5.316   8.107   5.066
   15DPPC    C2  702   5.489   8.220   4.940
   15DPPC    C3  703   5.260   8.300   4.984
   15DPPC    N4  704   5.380   8.236   5.038
   15DPPC    C5  705   5.408   8.296   5.169
   15DPPC    C6  706   5.487   8.211   5.267
   15DPPC    O7  707   5.626   8.201   5.237
   15DPPC    P8  708   5.691   8.067   5.297
   15DPPC    O9  709   5.600   7.961   5.249
   15DPPC   O10  710   5.692   8.110   5.439
   15DPPC   O11  711   5.831   8.080   5.218
   15DPPC   C12  712   5.785   8.066   5.084
   15DPPC   C13  713   5.895   8.122   4.993
   15DPPC   O14  714   5.858   8.139   4.855
   15DPPC   C15  715   5.942   8.203   4.769
   15DPPC   O16  716   6.027   8.275   4.820
   15DPPC   C17  717   5.881   8.231   4.631
   15DPPC   C18  718   5.883   8.380   4.597
   15DPPC   C19  719   5.810   8.461   4.705
   15DPPC   C20  720   5.814   8.610   4.669
   15DPPC   C21  721   5.960   8.654   4.653
   15DPPC   C22  722   5.976   8.801   4.613
   15DPPC   C23  723   5.909   8.822   4.477
   15DPPC   C24  724   5.942   8.966   4.438
   15DPPC   C25  725   5.873   8.998   4.305
   15DPPC   C26  726   5.721   8.999   4.319
   15DPPC   C27  727   5.672   9.041   4.180
   15DPPC   C28  728   5.523   9.074   4.185
   15DPPC   C29  729   5.489   9.153   4.058
   15DPPC   C30  730   5.343   9.192   4.038
   15DPPC   C31  731   5.300   9.277   4.157
   15DPPC   C32  732   6.019   8.036   5.016
   15DPPC   O33  733   6.026   7.916   4.939
   15DPPC   C34  734   6.130   7.831   4.962
   15DPPC   O35  735   6.207   7.855   5.055
   15DPPC   C36  736   6.131   7.706   4.875
   15DPPC   C37  737   6.095   7.577   4.950
   15DPPC   C38  738   6.079   7.455   4.860
   15DPPC   C39  739   5.995   7.492   4.737
   15DPPC   C40  740   5.945   7.374   4.654
   15DPPC   C41  741   6.053   7.271   4.622
   15DPPC   C42  742   5.974   7.160   4.553
   15DPPC   C43  743   6.055   7.078   4.453
   15DPPC   C44  744   5.959   6.981   4.384
   15DPPC   C45  745   6.043   6.885   4.299
   15DPPC   C46  746   6.084   6.962   4.174
   15DPPC   C47  747   5.973   7.023   4.088
   15DPPC   C48  748   6.028   7.093   3.964
   15DPPC   C49  749   5.919   7.158   3.879
   15DPPC   C50  750   5.860   7.274   3.958
   16DPPC    C1  751   9.271   0.832   5.135
   16DPPC    C2  752   9.217   0.835   5.375
   16DPPC    C3  753   9.096   0.692   5.212
   16DPPC    N4  754   9.222   0.756   5.251
   16DPPC    C5  755   9.313   0.642   5.267
   16DPPC    C6  756   9.294   0.550   5.389
   16DPPC    O7  757   9.355   0.421   5.387
   16DPPC    P8  758   9.254   0.314   5.452
   16DPPC    O9  759   9.196   0.396   5.561
   16DPPC   O10  760   9.315   0.183   5.482
   16DPPC   O11  761   9.164   0.291   5.321
   16DPPC   C12  762   9.245   0.223   5.225
   16DPPC   C13  763   9.211   0.263   5.081
   16DPPC   O14  764   9.273   0.384   5.036
   16DPPC   C15  765   9.397   0.372   4.980
   16DPPC   O16  766   9.472   0.285   5.022
   16DPPC   C17  767   9.458   0.483   4.894
   16DPPC   C18  768   9.379   0.613   4.879
   16DPPC   C19  769   9.415   0.685   4.748
   16DPPC   C20  770   9.332   0.625   4.635
   16DPPC   C21  771   9.185   0.642   4.675
   16DPPC   C22  772   9.083   0.584   4.577
   16DPPC   C23  773   9.055   0.670   4.453
   16DPPC   C24  774   8.950   0.594   4.372
   16DPPC   C25  775   8.873   0.652   4.253
   16DPPC   C26  776   8.811   0.541   4.168
   16DPPC   C27  777   8.751   0.608   4.043
   16DPPC   C28  778   8.622   0.530   4.018
   16DPPC   C29  779   8.540   0.559   3.892
   16DPPC   C30  780   8.626   0.507   3.776
   16DPPC   C31  781   8.571   0.533   3.635
   16DPPC   C32  782   9.058   0.270   5.078
   16DPPC   O33  783   8.999   0.140   5.081
   16DPPC   C34  784   8.866   0.133   5.054
   16DPPC   O35  785   8.793   0.208   5.119
   16DPPC   C36  786   8.819  -0.009   5.020
   16DPPC   C37  787   8.768   0.007   4.877
   16DPPC   C38  788   8.793  -0.125   4.804
   16DPPC   C39  789   8.773  -0.118   4.652
   16DPPC   C40  790   8.838  -0.236   4.579
   16DPPC   C41  791   8.819  -0.231   4.427
   16DPPC   C42  792   8.675  -0.264   4.386
   16DPPC   C43  793   8.678  -0.294   4.236
   16DPPC   C44  794   8.549  -0.375   4.221
   16DPPC   C45  795   8.509  -0.401   4.075
   16DPPC   C46  796   8.368  -0.456   4.097
   16DPPC   C47  797   8.290  -0.501   3.973
   16DPPC   C48  798   8.160  -0.549   4.039
   16DPPC   C49  799   8.065  -0.623   3.945
   16DPPC   C50  800   7.946  -0.685   4.018
   17DPPC    C1  801   1.621   0.537   5.420
   17DPPC    C2  802   1.680   0.540   5.197
   17DPPC    C3  803   1.544   0.373   5.270
   17DPPC    N4  804   1.565   0.517   5.285
   17DPPC    C5  805   1.446   0.596   5.251
   17DPPC    C6  806   1.474   0.746   5.240
   17DPPC    O7  807   1.356   0.826   5.237
   17DPPC    P8  808   1.375   0.986   5.233
   17DPPC    O9  809   1.520   1.001   5.255
   17DPPC   O10  810   1.271   1.037   5.325
   17DPPC   O11  811   1.338   0.999   5.077
   17DPPC   C12  812   1.459   1.056   5.026
   17DPPC   C13  813   1.434   1.095   4.880
   17DPPC   O14  814   1.541   1.165   4.815
   17DPPC   C15  815   1.628   1.084   4.749
   17DPPC   O16  816   1.592   0.970   4.721
   17DPPC   C17  817   1.757   1.146   4.693
   17DPPC   C18  818   1.779   1.280   4.764
   17DPPC   C19  819   1.865   1.373   4.678
   17DPPC   C20  820   1.983   1.295   4.620
   17DPPC   C21  821   2.063   1.396   4.538
   17DPPC   C22  822   2.196   1.331   4.500
   17DPPC   C23  823   2.283   1.439   4.436
   17DPPC   C24  824   2.417   1.382   4.389
   17DPPC   C25  825   2.388   1.284   4.275
   17DPPC   C26  826   2.502   1.204   4.212
   17DPPC   C27  827   2.445   1.128   4.092
   17DPPC   C28  828   2.545   1.019   4.053
   17DPPC   C29  829   2.490   0.933   3.939
   17DPPC   C30  830   2.487   1.004   3.803
   17DPPC   C31  831   2.455   0.903   3.693
   17DPPC   C32  832   1.306   1.179   4.878
   17DPPC   O33  833   1.221   1.176   4.762
   17DPPC   C34  834   1.152   1.067   4.720
   17DPPC   O35  835   1.177   0.956   4.767
   17DPPC   C36  836   1.092   1.073   4.580
   17DPPC   C37  837   1.182   1.005   4.477
   17DPPC   C38  838   1.094   0.937   4.373
   17DPPC   C39  839   1.171   0.892   4.248
   17DPPC   C40  840   1.204   1.019   4.170
   17DPPC   C41  841   1.262   0.982   4.033
   17DPPC   C42  842   1.339   1.100   3.973
   17DPPC   C43  843   1.404   1.089   3.835
   17DPPC   C44  844   1.473   1.218   3.790
   17DPPC   C45  845   1.524   1.204   3.646
   17DPPC   C46  846   1.571   1.340   3.592
   17DPPC   C47  847   1.697   1.385   3.665
   17DPPC   C48  848   1.749   1.524   3.627
   17DPPC   C49  849   1.869   1.581   3.703
   17DPPC   C50  850   1.882   1.731   3.674
   18DPPC    C1  851   1.943   7.142   5.547
   18DPPC    C2  852   2.013   6.941   5.622
   18DPPC    C3  853   1.800   6.954   5.506
   18DPPC    N4  854   1.940   7.000   5.509
   18DPPC    C5  855   2.006   6.995   5.378
   18DPPC    C6  856   2.035   6.852   5.332
   18DPPC    O7  857   2.105   6.849   5.208
   18DPPC    P8  858   2.104   6.700   5.146
   18DPPC    O9  859   1.966   6.657   5.177
   18DPPC   O10  860   2.218   6.619   5.194
   18DPPC   O11  861   2.115   6.724   4.987
   18DPPC   C12  862   2.158   6.606   4.920
   18DPPC   C13  863   2.181   6.617   4.769
   18DPPC   O14  864   2.184   6.493   4.697
   18DPPC   C15  865   2.067   6.431   4.667
   18DPPC   O16  866   1.964   6.433   4.734
   18DPPC   C17  867   2.076   6.309   4.576
   18DPPC   C18  868   1.954   6.306   4.483
   18DPPC   C19  869   1.997   6.245   4.349
   18DPPC   C20  870   1.874   6.227   4.260
   18DPPC   C21  871   1.903   6.141   4.136
   18DPPC   C22  872   1.772   6.130   4.059
   18DPPC   C23  873   1.793   6.037   3.939
   18DPPC   C24  874   1.664   6.037   3.857
   18DPPC   C25  875   1.532   6.007   3.930
   18DPPC   C26  876   1.514   5.864   3.981
   18DPPC   C27  877   1.391   5.873   4.072
   18DPPC   C28  878   1.265   5.910   3.994
   18DPPC   C29  879   1.217   5.806   3.893
   18DPPC   C30  880   1.087   5.846   3.824
   18DPPC   C31  881   1.056   5.726   3.733
   18DPPC   C32  882   2.298   6.714   4.753
   18DPPC   O33  883   2.330   6.744   4.616
   18DPPC   C34  884   2.460   6.778   4.595
   18DPPC   O35  885   2.537   6.782   4.690
   18DPPC   C36  886   2.484   6.808   4.446
   18DPPC   C37  887   2.537   6.684   4.373
   18DPPC   C38  888   2.559   6.725   4.227
   18DPPC   C39  889   2.639   6.627   4.140
   18DPPC   C40  890   2.783   6.604   4.184
   18DPPC   C41  891   2.849   6.510   4.083
   18DPPC   C42  892   2.934   6.400   4.146
   18DPPC   C43  893   3.001   6.320   4.034
   18DPPC   C44  894   3.048   6.183   4.082
   18DPPC   C45  895   3.162   6.204   4.181
   18DPPC   C46  896   3.208   6.090   4.272
   18DPPC   C47  897   3.315   6.138   4.370
   18DPPC   C48  898   3.254   6.226   4.480
   18DPPC   C49  899   3.370   6.265   4.572
   18DPPC   C50  900   3.330   6.345   4.696
   19DPPC    C1  901   2.670   5.687   5.682
   19DPPC    C2  902   2.457   5.739   5.624
   19DPPC    C3  903   2.628   5.747   5.453
   19DPPC    N4  904   2.576   5.674   5.570
   19DPPC    C5  905   2.537   5.537   5.533
   19DPPC    C6  906   2.642   5.433   5.495
   19DPPC    O7  907   2.715   5.455   5.374
   19DPPC    P8  908   2.845   5.360   5.372
   19DPPC    O9  909   2.884   5.356   5.515
   19DPPC   O10  910   2.926   5.421   5.264
   19DPPC   O11  911   2.778   5.233   5.300
   19DPPC   C12  912   2.816   5.216   5.163
   19DPPC   C13  913   2.734   5.100   5.106
   19DPPC   O14  914   2.809   5.019   5.015
   19DPPC   C15  915   2.774   4.887   5.016
   19DPPC   O16  916   2.698   4.833   5.096
   19DPPC   C17  917   2.848   4.802   4.912
   19DPPC   C18  918   2.981   4.740   4.956
   19DPPC   C19  919   3.042   4.672   4.834
   19DPPC   C20  920   2.961   4.546   4.805
   19DPPC   C21  921   3.025   4.469   4.689
   19DPPC   C22  922   2.943   4.344   4.655
   19DPPC   C23  923   3.010   4.287   4.530
   19DPPC   C24  924   3.153   4.235   4.544
   19DPPC   C25  925   3.212   4.195   4.409
   19DPPC   C26  926   3.181   4.304   4.306
   19DPPC   C27  927   3.244   4.260   4.173
   19DPPC   C28  928   3.192   4.349   4.061
   19DPPC   C29  929   3.260   4.315   3.928
   19DPPC   C30  930   3.182   4.364   3.807
   19DPPC   C31  931   3.177   4.516   3.820
   19DPPC   C32  932   2.594   5.152   5.071
   19DPPC   O33  933   2.600   5.251   4.969
   19DPPC   C34  934   2.490   5.281   4.894
   19DPPC   O35  935   2.384   5.223   4.917
   19DPPC   C36  936   2.500   5.385   4.782
   19DPPC   C37  937   2.392   5.352   4.679
   19DPPC   C38  938   2.426   5.398   4.537
   19DPPC   C39  939   2.319   5.394   4.428
   19DPPC   C40  940   2.357   5.478   4.306
   19DPPC   C41  941   2.259   5.501   4.191
   19DPPC   C42  942   2.314   5.603   4.091
   19DPPC   C43  943   2.460   5.563   4.067
   19DPPC   C44  944   2.523   5.653   3.961
   19DPPC   C45  945   2.667   5.602   3.947
   19DPPC   C46  946   2.727   5.662   3.820
   19DPPC   C47  947   2.878   5.636   3.809
   19DPPC   C48  948   2.947   5.690   3.934
   19DPPC   C49  949   3.100   5.695   3.918
   19DPPC   C50  950   3.175   5.739   4.044
   20DPPC    C1  951   6.820   5.430   5.105
   20DPPC    C2  952   6.637   5.388   4.964
   20DPPC    C3  953   6.622   5.299   5.173
   20DPPC    N4  954   6.674   5.417   5.103
   20DPPC    C5  955   6.595   5.532   5.152
   20DPPC    C6  956   6.666   5.652   5.213
   20DPPC    O7  957   6.742   5.736   5.125
   20DPPC    P8  958   6.826   5.845   5.206
   20DPPC    O9  959   6.904   5.748   5.286
   20DPPC   O10  960   6.733   5.944   5.265
   20DPPC   O11  961   6.924   5.924   5.105
   20DPPC   C12  962   7.021   5.827   5.066
   20DPPC   C13  963   7.149   5.875   4.996
   20DPPC   O14  964   7.137   5.961   4.882
   20DPPC   C15  965   7.138   6.097   4.870
   20DPPC   O16  966   7.178   6.161   4.966
   20DPPC   C17  967   7.114   6.162   4.733
   20DPPC   C18  968   7.189   6.291   4.697
   20DPPC   C19  969   7.134   6.332   4.560
   20DPPC   C20  970   6.983   6.355   4.573
   20DPPC   C21  971   6.932   6.399   4.436
   20DPPC   C22  972   7.007   6.522   4.384
   20DPPC   C23  973   6.997   6.540   4.232
   20DPPC   C24  974   7.083   6.650   4.170
   20DPPC   C25  975   7.090   6.624   4.019
   20DPPC   C26  976   7.171   6.719   3.930
   20DPPC   C27  977   7.318   6.707   3.972
   20DPPC   C28  978   7.407   6.799   3.890
   20DPPC   C29  979   7.556   6.764   3.891
   20DPPC   C30  980   7.645   6.849   3.800
   20DPPC   C31  981   7.785   6.787   3.800
   20DPPC   C32  982   7.235   5.751   4.974
   20DPPC   O33  983   7.160   5.640   4.926
   20DPPC   C34  984   7.218   5.517   4.926
   20DPPC   O35  985   7.318   5.486   4.991
   20DPPC   C36  986   7.162   5.429   4.814
   20DPPC   C37  987   7.277   5.359   4.742
   20DPPC   C38  988   7.222   5.299   4.612
   20DPPC   C39  989   7.323   5.222   4.526
   20DPPC   C40  990   7.279   5.203   4.381
   20DPPC   C41  991   7.383   5.141   4.287
   20DPPC   C42  992   7.303   5.131   4.157
   20DPPC   C43  993   7.394   5.075   4.047
   20DPPC   C44  994   7.312   5.018   3.931
   20DPPC   C45  995   7.401   4.945   3.831
   20DPPC   C46  996   7.314   4.897   3.715
   20DPPC   C47  997   7.244   5.009   3.638
   20DPPC   C48  998   7.148   4.948   3.536
   20DPPC   C49  999   7.055   5.044   3.462
   20DPPC   C50 1000   7.136   5.132   3.366
   21DPPC    C1 1001   3.275   2.187   6.248
   21DPPC    C2 1002   3.440   2.136   6.081
   21DPPC    C3 1003   3.485   2.081   6.301
   21DPPC    N4 1004   3.375   2.089   6.204
   21DPPC    C5 1005   3.325   1.951   6.194
   21DPPC    C6 1006   3.188   1.925   6.129
   21DPPC    O7 1007   3.184   1.938   5.987
   21DPPC    P8 1008   3.037   1.974   5.930
   21DPPC    O9 1009   2.968   2.065   6.023
   21DPPC   O10 1010   2.996   1.839   5.886
   21DPPC   O11 1011   3.084   2.047   5.794
   21DPPC   C12 1012   3.093   1.943   5.697
   21DPPC   C13 1013   3.091   2.001   5.555
   21DPPC   O14 1014   3.079   1.907   5.447
   21DPPC   C15 1015   2.953   1.871   5.414
   21DPPC   O16 1016   2.863   1.863   5.499
   21DPPC   C17 1017   2.948   1.805   5.276
   21DPPC   C18 1018   3.044   1.882   5.184
   21DPPC   C19 1019   3.013   1.849   5.038
   21DPPC   C20 1020   3.085   1.950   4.949
   21DPPC   C21 1021   3.023   1.930   4.811
   21DPPC   C22 1022   3.081   2.029   4.709
   21DPPC   C23 1023   3.027   2.003   4.568
   21DPPC   C24 1024   3.111   2.065   4.457
   21DPPC   C25 1025   3.024   2.070   4.331
   21DPPC   C26 1026   3.099   2.111   4.204
   21DPPC   C27 1027   3.018   2.099   4.075
   21DPPC   C28 1028   3.107   2.133   3.956
   21DPPC   C29 1029   3.039   2.118   3.820
   21DPPC   C30 1030   3.150   2.081   3.722
   21DPPC   C31 1031   3.116   2.089   3.573
   21DPPC   C32 1032   3.219   2.084   5.550
   21DPPC   O33 1033   3.248   2.167   5.437
   21DPPC   C34 1034   3.180   2.283   5.415
   21DPPC   O35 1035   3.084   2.318   5.484
   21DPPC   C36 1036   3.220   2.359   5.288
   21DPPC   C37 1037   3.138   2.324   5.164
   21DPPC   C38 1038   3.185   2.411   5.048
   21DPPC   C39 1039   3.102   2.374   4.924
   21DPPC   C40 1040   3.133   2.457   4.800
   21DPPC   C41 1041   3.047   2.416   4.680
   21DPPC   C42 1042   3.100   2.474   4.549
   21DPPC   C43 1043   3.252   2.471   4.530
   21DPPC   C44 1044   3.306   2.556   4.415
   21DPPC   C45 1045   3.259   2.503   4.279
   21DPPC   C46 1046   3.289   2.595   4.160
   21DPPC   C47 1047   3.246   2.535   4.027
   21DPPC   C48 1048   3.300   2.622   3.913
   21DPPC   C49 1049   3.229   2.571   3.788
   21DPPC   C50 1050   3.237   2.669   3.671
   22DPPC    C1 1051   1.696   1.982   5.631
   22DPPC    C2 1052   1.880   2.076   5.511
   22DPPC    C3 1053   1.915   1.971   5.730
   22DPPC    N4 1054   1.839   1.969   5.603
   22DPPC    C5 1055   1.855   1.843   5.530
   22DPPC    C6 1056   1.982   1.811   5.450
   22DPPC    O7 1057   1.970   1.692   5.372
   22DPPC    P8 1058   2.117   1.656   5.316
   22DPPC    O9 1059   2.106   1.532   5.236
   22DPPC   O10 1060   2.211   1.668   5.429
   22DPPC   O11 1061   2.121   1.787   5.222
   22DPPC   C12 1062   2.067   1.765   5.091
   22DPPC   C13 1063   2.049   1.900   5.023
   22DPPC   O14 1064   1.989   1.890   4.892
   22DPPC   C15 1065   1.855   1.873   4.885
   22DPPC   O16 1066   1.787   1.859   4.987
   22DPPC   C17 1067   1.795   1.877   4.744
   22DPPC   C18 1068   1.856   1.772   4.652
   22DPPC   C19 1069   1.791   1.776   4.514
   22DPPC   C20 1070   1.833   1.663   4.420
   22DPPC   C21 1071   1.730   1.645   4.308
   22DPPC   C22 1072   1.751   1.516   4.227
   22DPPC   C23 1073   1.622   1.485   4.151
   22DPPC   C24 1074   1.577   1.594   4.053
   22DPPC   C25 1075   1.460   1.522   3.985
   22DPPC   C26 1076   1.410   1.622   3.881
   22DPPC   C27 1077   1.276   1.576   3.823
   22DPPC   C28 1078   1.174   1.546   3.932
   22DPPC   C29 1079   1.047   1.487   3.870
   22DPPC   C30 1080   1.072   1.356   3.795
   22DPPC   C31 1081   0.951   1.293   3.726
   22DPPC   C32 1082   2.181   1.978   5.029
   22DPPC   O33 1083   2.297   1.904   4.993
   22DPPC   C34 1084   2.408   1.981   4.983
   22DPPC   O35 1085   2.391   2.103   4.988
   22DPPC   C36 1086   2.529   1.927   4.907
   22DPPC   C37 1087   2.499   1.812   4.811
   22DPPC   C38 1088   2.602   1.825   4.699
   22DPPC   C39 1089   2.578   1.729   4.582
   22DPPC   C40 1090   2.660   1.772   4.461
   22DPPC   C41 1091   2.632   1.692   4.333
   22DPPC   C42 1092   2.717   1.732   4.213
   22DPPC   C43 1093   2.680   1.660   4.083
   22DPPC   C44 1094   2.779   1.716   3.981
   22DPPC   C45 1095   2.755   1.664   3.839
   22DPPC   C46 1096   2.814   1.748   3.725
   22DPPC   C47 1097   2.776   1.688   3.589
   22DPPC   C48 1098   2.849   1.559   3.550
   22DPPC   C49 1099   2.824   1.504   3.409
   22DPPC   C50 1100   2.860   1.607   3.301
   23DPPC    C1 1101   1.454   7.284   5.113
   23DPPC    C2 1102   1.549   7.086   5.175
   23DPPC    C3 1103   1.400   7.070   5.002
   23DPPC    N4 1104   1.504   7.158   5.055
   23DPPC    C5 1105   1.616   7.170   4.961
   23DPPC    C6 1106   1.612   7.245   4.827
   23DPPC    O7 1107   1.535   7.198   4.716
   23DPPC    P8 1108   1.471   7.320   4.632
   23DPPC    O9 1109   1.516   7.448   4.693
   23DPPC   O10 1110   1.331   7.286   4.603
   23DPPC   O11 1111   1.561   7.294   4.502
   23DPPC   C12 1112   1.515   7.175   4.437
   23DPPC   C13 1113   1.543   7.165   4.287
   23DPPC   O14 1114   1.683   7.168   4.259
   23DPPC   C15 1115   1.728   7.058   4.192
   23DPPC   O16 1116   1.663   6.954   4.196
   23DPPC   C17 1117   1.873   7.082   4.147
   23DPPC   C18 1118   1.889   7.176   4.028
   23DPPC   C19 1119   2.027   7.238   4.011
   23DPPC   C20 1120   2.033   7.354   3.912
   23DPPC   C21 1121   2.015   7.487   3.986
   23DPPC   C22 1122   2.002   7.585   3.870
   23DPPC   C23 1123   1.976   7.729   3.915
   23DPPC   C24 1124   1.953   7.827   3.800
   23DPPC   C25 1125   1.926   7.962   3.866
   23DPPC   C26 1126   1.933   8.077   3.764
   23DPPC   C27 1127   1.888   8.217   3.806
   23DPPC   C28 1128   1.737   8.213   3.827
   23DPPC   C29 1129   1.684   8.197   3.685
   23DPPC   C30 1130   1.533   8.173   3.696
   23DPPC   C31 1131   1.472   8.165   3.555
   23DPPC   C32 1132   1.471   7.290   4.235
   23DPPC   O33 1133   1.501   7.315   4.098
   23DPPC   C34 1134   1.441   7.418   4.033
   23DPPC   O35 1135   1.362   7.487   4.096
   23DPPC   C36 1136   1.493   7.444   3.891
   23DPPC   C37 1137   1.607   7.546   3.888
   23DPPC   C38 1138   1.661   7.567   3.746
   23DPPC   C39 1139   1.718   7.434   3.697
   23DPPC   C40 1140   1.748   7.451   3.548
   23DPPC   C41 1141   1.801   7.325   3.479
   23DPPC   C42 1142   1.685   7.228   3.454
   23DPPC   C43 1143   1.722   7.080   3.463
   23DPPC   C44 1144   1.610   6.996   3.402
   23DPPC   C45 1145   1.583   7.053   3.262
   23DPPC   C46 1146   1.481   6.960   3.197
   23DPPC   C47 1147   1.451   6.998   3.051
   23DPPC   C48 1148   1.362   6.908   2.966
   23DPPC   C49 1149   1.229   6.868   3.030
   23DPPC   C50 1150   1.113   6.915   2.943
   24DPPC    C1 1151   3.259   5.336   5.235
   24DPPC    C2 1152   3.419   5.373   5.404
   24DPPC    C3 1153   3.262   5.539   5.357
   24DPPC    N4 1154   3.277   5.394   5.369
   24DPPC    C5 1155   3.194   5.333   5.474
   24DPPC    C6 1156   3.209   5.183   5.499
   24DPPC    O7 1157   3.111   5.106   5.428
   24DPPC    P8 1158   3.147   4.952   5.457
   24DPPC    O9 1159   3.041   4.874   5.389
   24DPPC   O10 1160   3.181   4.948   5.601
   24DPPC   O11 1161   3.286   4.937   5.378
   24DPPC   C12 1162   3.248   4.916   5.241
   24DPPC   C13 1163   3.367   4.910   5.145
   24DPPC   O14 1164   3.308   4.923   5.015
   24DPPC   C15 1165   3.280   5.044   4.960
   24DPPC   O16 1166   3.338   5.146   4.997
   24DPPC   C17 1167   3.212   5.037   4.823
   24DPPC   C18 1168   3.305   5.080   4.710
   24DPPC   C19 1169   3.402   4.972   4.662
   24DPPC   C20 1170   3.544   5.031   4.670
   24DPPC   C21 1171   3.631   4.934   4.589
   24DPPC   C22 1172   3.773   4.982   4.559
   24DPPC   C23 1173   3.836   4.896   4.450
   24DPPC   C24 1174   3.974   4.943   4.406
   24DPPC   C25 1175   4.031   4.882   4.277
   24DPPC   C26 1176   4.158   4.960   4.244
   24DPPC   C27 1177   4.221   4.914   4.112
   24DPPC   C28 1178   4.328   5.016   4.074
   24DPPC   C29 1179   4.424   4.957   3.970
   24DPPC   C30 1180   4.537   5.054   3.937
   24DPPC   C31 1181   4.638   5.099   4.043
   24DPPC   C32 1182   3.420   4.769   5.166
   24DPPC   O33 1183   3.332   4.657   5.158
   24DPPC   C34 1184   3.385   4.532   5.167
   24DPPC   O35 1185   3.500   4.518   5.208
   24DPPC   C36 1186   3.309   4.412   5.111
   24DPPC   C37 1187   3.365   4.364   4.977
   24DPPC   C38 1188   3.359   4.473   4.870
   24DPPC   C39 1189   3.408   4.423   4.734
   24DPPC   C40 1190   3.446   4.535   4.636
   24DPPC   C41 1191   3.468   4.478   4.496
   24DPPC   C42 1192   3.532   4.585   4.408
   24DPPC   C43 1193   3.585   4.530   4.275
   24DPPC   C44 1194   3.670   4.638   4.209
   24DPPC   C45 1195   3.744   4.606   4.078
   24DPPC   C46 1196   3.840   4.715   4.031
   24DPPC   C47 1197   3.935   4.660   3.924
   24DPPC   C48 1198   3.996   4.764   3.830
   24DPPC   C49 1199   4.069   4.703   3.710
   24DPPC   C50 1200   4.157   4.591   3.765
   25DPPC    C1 1201   3.988   5.365   5.357
   25DPPC    C2 1202   3.941   5.527   5.190
   25DPPC    C3 1203   3.798   5.335   5.245
   25DPPC    N4 1204   3.881   5.445   5.296
   25DPPC    C5 1205   3.826   5.522   5.409
   25DPPC    C6 1206   3.760   5.657   5.378
   25DPPC    O7 1207   3.647   5.636   5.292
   25DPPC    P8 1208   3.551   5.761   5.263
   25DPPC    O9 1209   3.652   5.848   5.198
   25DPPC   O10 1210   3.472   5.810   5.379
   25DPPC   O11 1211   3.462   5.678   5.158
   25DPPC   C12 1212   3.556   5.644   5.056
   25DPPC   C13 1213   3.517   5.584   4.921
   25DPPC   O14 1214   3.622   5.520   4.847
   25DPPC   C15 1215   3.679   5.401   4.880
   25DPPC   O16 1216   3.655   5.352   4.990
   25DPPC   C17 1217   3.769   5.337   4.774
   25DPPC   C18 1218   3.846   5.449   4.705
   25DPPC   C19 1219   3.881   5.390   4.568
   25DPPC   C20 1220   3.994   5.287   4.578
   25DPPC   C21 1221   4.139   5.336   4.587
   25DPPC   C22 1222   4.234   5.228   4.536
   25DPPC   C23 1223   4.368   5.250   4.607
   25DPPC   C24 1224   4.485   5.179   4.540
   25DPPC   C25 1225   4.608   5.155   4.628
   25DPPC   C26 1226   4.726   5.130   4.534
   25DPPC   C27 1227   4.823   5.248   4.528
   25DPPC   C28 1228   4.940   5.202   4.441
   25DPPC   C29 1229   5.023   5.328   4.414
   25DPPC   C30 1230   5.121   5.279   4.307
   25DPPC   C31 1231   5.050   5.210   4.191
   25DPPC   C32 1232   3.456   5.706   4.851
   25DPPC   O33 1233   3.548   5.814   4.834
   25DPPC   C34 1234   3.491   5.928   4.785
   25DPPC   O35 1235   3.377   5.964   4.815
   25DPPC   C36 1236   3.594   6.030   4.738
   25DPPC   C37 1237   3.609   6.015   4.587
   25DPPC   C38 1238   3.707   5.901   4.554
   25DPPC   C39 1239   3.767   5.904   4.413
   25DPPC   C40 1240   3.673   5.843   4.309
   25DPPC   C41 1241   3.730   5.839   4.167
   25DPPC   C42 1242   3.860   5.760   4.159
   25DPPC   C43 1243   3.854   5.612   4.197
   25DPPC   C44 1244   3.973   5.521   4.166
   25DPPC   C45 1245   3.992   5.494   4.017
   25DPPC   C46 1246   4.111   5.408   3.974
   25DPPC   C47 1247   4.096   5.348   3.834
   25DPPC   C48 1248   4.213   5.260   3.789
   25DPPC   C49 1249   4.182   5.176   3.665
   25DPPC   C50 1250   4.313   5.109   3.622
   26DPPC    C1 1251   3.677   2.632   5.894
   26DPPC    C2 1252   3.672   2.483   5.720
   26DPPC    C3 1253   3.671   2.700   5.659
   26DPPC    N4 1254   3.732   2.611   5.758
   26DPPC    C5 1255   3.877   2.602   5.741
   26DPPC    C6 1256   3.953   2.731   5.775
   26DPPC    O7 1257   3.966   2.826   5.668
   26DPPC    P8 1258   4.024   2.961   5.733
   26DPPC    O9 1259   3.994   2.957   5.878
   26DPPC   O10 1260   4.025   3.087   5.655
   26DPPC   O11 1261   4.175   2.904   5.734
   26DPPC   C12 1262   4.262   2.955   5.633
   26DPPC   C13 1263   4.399   2.888   5.635
   26DPPC   O14 1264   4.475   2.923   5.518
   26DPPC   C15 1265   4.542   3.039   5.496
   26DPPC   O16 1266   4.526   3.125   5.582
   26DPPC   C17 1267   4.588   3.069   5.353
   26DPPC   C18 1268   4.738   3.099   5.357
   26DPPC   C19 1269   4.791   3.122   5.215
   26DPPC   C20 1270   4.939   3.159   5.203
   26DPPC   C21 1271   4.966   3.148   5.052
   26DPPC   C22 1272   4.964   3.001   5.010
   26DPPC   C23 1273   4.977   3.000   4.858
   26DPPC   C24 1274   4.947   2.870   4.782
   26DPPC   C25 1275   4.979   2.870   4.632
   26DPPC   C26 1276   4.942   2.738   4.564
   26DPPC   C27 1277   4.956   2.748   4.412
   26DPPC   C28 1278   4.917   2.629   4.324
   26DPPC   C29 1279   4.904   2.675   4.179
   26DPPC   C30 1280   4.879   2.554   4.089
   26DPPC   C31 1281   4.900   2.580   3.940
   26DPPC   C32 1282   4.366   2.739   5.635
   26DPPC   O33 1283   4.279   2.695   5.531
   26DPPC   C34 1284   4.223   2.571   5.543
   26DPPC   O35 1285   4.226   2.528   5.658
   26DPPC   C36 1286   4.147   2.526   5.418
   26DPPC   C37 1287   4.228   2.439   5.321
   26DPPC   C38 1288   4.143   2.414   5.197
   26DPPC   C39 1289   4.097   2.546   5.136
   26DPPC   C40 1290   4.078   2.515   4.987
   26DPPC   C41 1291   4.050   2.643   4.908
   26DPPC   C42 1292   4.053   2.610   4.759
   26DPPC   C43 1293   4.055   2.742   4.683
   26DPPC   C44 1294   4.195   2.802   4.687
   26DPPC   C45 1295   4.193   2.925   4.597
   26DPPC   C46 1296   4.140   2.887   4.458
   26DPPC   C47 1297   4.096   3.001   4.366
   26DPPC   C48 1298   4.044   2.964   4.227
   26DPPC   C49 1299   4.014   3.081   4.132
   26DPPC   C50 1300   3.925   3.190   4.193
   27DPPC    C1 1301   3.775   0.169   5.443
   27DPPC    C2 1302   3.663   0.355   5.372
   27DPPC    C3 1303   3.845   0.285   5.237
   27DPPC    N4 1304   3.734   0.236   5.319
   27DPPC    C5 1305   3.637   0.146   5.256
   27DPPC    C6 1306   3.681   0.007   5.210
   27DPPC    O7 1307   3.793   0.000   5.121
   27DPPC    P8 1308   3.842  -0.153   5.131
   27DPPC    O9 1309   3.732  -0.233   5.190
   27DPPC   O10 1310   3.979  -0.149   5.187
   27DPPC   O11 1311   3.849  -0.196   4.976
   27DPPC   C12 1312   3.958  -0.123   4.919
   27DPPC   C13 1313   3.953  -0.105   4.767
   27DPPC   O14 1314   3.883   0.015   4.732
   27DPPC   C15 1315   3.959   0.107   4.667
   27DPPC   O16 1316   4.073   0.131   4.708
   27DPPC   C17 1317   3.874   0.223   4.614
   27DPPC   C18 1318   3.935   0.291   4.491
   27DPPC   C19 1319   3.850   0.412   4.450
   27DPPC   C20 1320   3.917   0.471   4.326
   27DPPC   C21 1321   3.896   0.378   4.206
   27DPPC   C22 1322   4.005   0.400   4.100
   27DPPC   C23 1323   4.005   0.342   3.959
   27DPPC   C24 1324   4.106   0.412   3.868
   27DPPC   C25 1325   4.107   0.333   3.737
   27DPPC   C26 1326   4.188   0.208   3.770
   27DPPC   C27 1327   4.174   0.104   3.659
   27DPPC   C28 1328   4.245  -0.030   3.677
   27DPPC   C29 1329   4.225  -0.144   3.576
   27DPPC   C30 1330   4.074  -0.145   3.552
   27DPPC   C31 1331   4.017  -0.284   3.581
   27DPPC   C32 1332   3.883  -0.230   4.714
   27DPPC   O33 1333   3.954  -0.353   4.722
   27DPPC   C34 1334   3.884  -0.467   4.697
   27DPPC   O35 1335   3.762  -0.483   4.689
   27DPPC   C36 1336   3.976  -0.589   4.688
   27DPPC   C37 1337   4.024  -0.637   4.551
   27DPPC   C38 1338   4.107  -0.527   4.485
   27DPPC   C39 1339   4.146  -0.574   4.345
   27DPPC   C40 1340   4.255  -0.473   4.306
   27DPPC   C41 1341   4.312  -0.512   4.169
   27DPPC   C42 1342   4.397  -0.396   4.116
   27DPPC   C43 1343   4.469  -0.436   3.987
   27DPPC   C44 1344   4.566  -0.328   3.938
   27DPPC   C45 1345   4.625  -0.383   3.807
   27DPPC   C46 1346   4.523  -0.370   3.694
   27DPPC   C47 1347   4.590  -0.425   3.568
   27DPPC   C48 1348   4.505  -0.424   3.441
   27DPPC   C49 1349   4.613  -0.472   3.345
   27DPPC   C50 1350   4.632  -0.624   3.333
   28DPPC    C1 1351   8.748   2.453   5.523
   28DPPC    C2 1352   8.806   2.455   5.752
   28DPPC    C3 1353   8.754   2.659   5.641
   28DPPC    N4 1354   8.718   2.517   5.652
   28DPPC    C5 1355   8.588   2.463   5.695
   28DPPC    C6 1356   8.463   2.527   5.634
   28DPPC    O7 1357   8.416   2.620   5.732
   28DPPC    P8 1358   8.289   2.708   5.687
   28DPPC    O9 1359   8.300   2.824   5.778
   28DPPC   O10 1360   8.183   2.605   5.693
   28DPPC   O11 1361   8.361   2.736   5.546
   28DPPC   C12 1362   8.265   2.761   5.443
   28DPPC   C13 1363   8.339   2.825   5.325
   28DPPC   O14 1364   8.254   2.884   5.225
   28DPPC   C15 1365   8.292   3.000   5.165
   28DPPC   O16 1366   8.408   3.039   5.180
   28DPPC   C17 1367   8.203   3.048   5.050
   28DPPC   C18 1368   8.063   3.087   5.098
   28DPPC   C19 1369   7.955   3.090   4.990
   28DPPC   C20 1370   7.987   3.188   4.878
   28DPPC   C21 1371   7.899   3.163   4.755
   28DPPC   C22 1372   7.933   3.270   4.652
   28DPPC   C23 1373   7.848   3.231   4.531
   28DPPC   C24 1374   7.842   3.351   4.437
   28DPPC   C25 1375   7.789   3.314   4.298
   28DPPC   C26 1376   7.839   3.423   4.203
   28DPPC   C27 1377   7.772   3.413   4.066
   28DPPC   C28 1378   7.791   3.543   3.987
   28DPPC   C29 1379   7.679   3.556   3.884
   28DPPC   C30 1380   7.702   3.677   3.793
   28DPPC   C31 1381   7.594   3.672   3.684
   28DPPC   C32 1382   8.438   2.720   5.274
   28DPPC   O33 1383   8.374   2.599   5.235
   28DPPC   C34 1384   8.447   2.492   5.191
   28DPPC   O35 1385   8.562   2.477   5.232
   28DPPC   C36 1386   8.368   2.375   5.131
   28DPPC   C37 1387   8.342   2.396   4.982
   28DPPC   C38 1388   8.235   2.501   4.951
   28DPPC   C39 1389   8.218   2.511   4.800
   28DPPC   C40 1390   8.128   2.629   4.762
   28DPPC   C41 1391   8.098   2.635   4.612
   28DPPC   C42 1392   8.028   2.769   4.588
   28DPPC   C43 1393   7.980   2.788   4.444
   28DPPC   C44 1394   8.051   2.907   4.380
   28DPPC   C45 1395   8.021   2.929   4.231
   28DPPC   C46 1396   8.074   3.063   4.178
   28DPPC   C47 1397   8.038   3.052   4.029
   28DPPC   C48 1398   8.069   3.188   3.967
   28DPPC   C49 1399   8.013   3.182   3.825
   28DPPC   C50 1400   8.051   3.299   3.734
   29DPPC    C1 1401   0.549   4.779   5.226
   29DPPC    C2 1402   0.486   4.690   5.026
   29DPPC    C3 1403   0.321   4.783   5.125
   29DPPC    N4 1404   0.465   4.809   5.110
   29DPPC    C5 1405   0.504   4.928   5.033
   29DPPC    C6 1406   0.482   5.061   5.105
   29DPPC    O7 1407   0.549   5.166   5.035
   29DPPC    P8 1408   0.497   5.310   5.086
   29DPPC    O9 1409   0.606   5.355   5.176
   29DPPC   O10 1410   0.367   5.279   5.149
   29DPPC   O11 1411   0.514   5.381   4.943
   29DPPC   C12 1412   0.425   5.329   4.844
   29DPPC   C13 1413   0.448   5.393   4.708
   29DPPC   O14 1414   0.345   5.355   4.615
   29DPPC   C15 1415   0.237   5.435   4.594
   29DPPC   O16 1416   0.215   5.535   4.662
   29DPPC   C17 1417   0.151   5.408   4.470
   29DPPC   C18 1418   0.228   5.447   4.344
   29DPPC   C19 1419   0.157   5.386   4.223
   29DPPC   C20 1420   0.255   5.371   4.106
   29DPPC   C21 1421   0.187   5.348   3.971
   29DPPC   C22 1422   0.071   5.443   3.940
   29DPPC   C23 1423  -0.017   5.417   3.818
   29DPPC   C24 1424  -0.098   5.537   3.769
   29DPPC   C25 1425  -0.159   5.535   3.629
   29DPPC   C26 1426  -0.281   5.444   3.613
   29DPPC   C27 1427  -0.362   5.455   3.484
   29DPPC   C28 1428  -0.486   5.365   3.473
   29DPPC   C29 1429  -0.554   5.385   3.338
   29DPPC   C30 1430  -0.613   5.526   3.348
   29DPPC   C31 1431  -0.694   5.571   3.226
   29DPPC   C32 1432   0.592   5.358   4.670
   29DPPC   O33 1433   0.630   5.220   4.666
   29DPPC   C34 1434   0.757   5.199   4.624
   29DPPC   O35 1435   0.821   5.294   4.577
   29DPPC   C36 1436   0.810   5.057   4.644
   29DPPC   C37 1437   0.894   5.020   4.522
   29DPPC   C38 1438   0.979   4.894   4.533
   29DPPC   C39 1439   1.068   4.876   4.410
   29DPPC   C40 1440   0.995   4.866   4.276
   29DPPC   C41 1441   1.091   4.831   4.162
   29DPPC   C42 1442   1.022   4.855   4.027
   29DPPC   C43 1443   1.112   4.842   3.904
   29DPPC   C44 1444   1.039   4.879   3.775
   29DPPC   C45 1445   1.120   4.855   3.647
   29DPPC   C46 1446   1.049   4.928   3.533
   29DPPC   C47 1447   1.119   4.902   3.400
   29DPPC   C48 1448   1.072   4.992   3.286
   29DPPC   C49 1449   1.166   4.981   3.166
   29DPPC   C50 1450   1.120   5.062   3.045
   30DPPC    C1 1451   6.835   1.892   6.107
   30DPPC    C2 1452   7.019   1.870   5.947
   30DPPC    C3 1453   6.823   1.945   5.864
   30DPPC    N4 1454   6.901   1.947   5.988
   30DPPC    C5 1455   6.955   2.082   6.012
   30DPPC    C6 1456   6.858   2.183   6.073
   30DPPC    O7 1457   6.914   2.315   6.081
   30DPPC    P8 1458   6.816   2.414   6.000
   30DPPC    O9 1459   6.863   2.552   6.023
   30DPPC   O10 1460   6.673   2.385   6.023
   30DPPC   O11 1461   6.845   2.379   5.846
   30DPPC   C12 1462   6.800   2.494   5.774
   30DPPC   C13 1463   6.876   2.499   5.642
   30DPPC   O14 1464   6.831   2.595   5.545
   30DPPC   C15 1465   6.909   2.706   5.534
   30DPPC   O16 1466   6.987   2.743   5.622
   30DPPC   C17 1467   6.882   2.793   5.410
   30DPPC   C18 1468   6.824   2.933   5.433
   30DPPC   C19 1469   6.805   3.019   5.309
   30DPPC   C20 1470   6.939   3.076   5.261
   30DPPC   C21 1471   6.927   3.146   5.125
   30DPPC   C22 1472   7.057   3.220   5.092
   30DPPC   C23 1473   7.030   3.311   4.972
   30DPPC   C24 1474   6.906   3.400   4.987
   30DPPC   C25 1475   6.912   3.486   4.861
   30DPPC   C26 1476   6.980   3.618   4.898
   30DPPC   C27 1477   7.013   3.692   4.768
   30DPPC   C28 1478   6.891   3.724   4.682
   30DPPC   C29 1479   6.812   3.828   4.761
   30DPPC   C30 1480   6.661   3.805   4.747
   30DPPC   C31 1481   6.625   3.821   4.600
   30DPPC   C32 1482   6.870   2.361   5.575
   30DPPC   O33 1483   6.948   2.336   5.458
   30DPPC   C34 1484   6.972   2.208   5.418
   30DPPC   O35 1485   6.881   2.137   5.460
   30DPPC   C36 1486   7.095   2.176   5.333
   30DPPC   C37 1487   7.064   2.150   5.186
   30DPPC   C38 1488   7.040   2.274   5.098
   30DPPC   C39 1489   7.041   2.235   4.950
   30DPPC   C40 1490   7.019   2.362   4.868
   30DPPC   C41 1491   6.985   2.317   4.726
   30DPPC   C42 1492   6.876   2.413   4.677
   30DPPC   C43 1493   6.846   2.421   4.527
   30DPPC   C44 1494   6.728   2.515   4.504
   30DPPC   C45 1495   6.714   2.544   4.354
   30DPPC   C46 1496   6.587   2.622   4.323
   30DPPC   C47 1497   6.572   2.740   4.419
   30DPPC   C48 1498   6.458   2.834   4.380
   30DPPC   C49 1499   6.466   2.957   4.472
   30DPPC   C50 1500   6.357   3.050   4.420
   31DPPC    C1 1501   6.008   7.057   5.235
   31DPPC    C2 1502   6.142   7.053   5.037
   31DPPC    C3 1503   6.227   7.079   5.265
   31DPPC    N4 1504   6.134   7.007   5.177
   31DPPC    C5 1505   6.146   6.864   5.209
   31DPPC    C6 1506   6.082   6.759   5.119
   31DPPC    O7 1507   5.940   6.771   5.125
   31DPPC    P8 1508   5.858   6.693   5.239
   31DPPC    O9 1509   5.847   6.792   5.349
   31DPPC   O10 1510   5.941   6.574   5.269
   31DPPC   O11 1511   5.717   6.664   5.168
   31DPPC   C12 1512   5.746   6.597   5.045
   31DPPC   C13 1513   5.653   6.480   5.012
   31DPPC   O14 1514   5.692   6.397   4.901
   31DPPC   C15 1515   5.683   6.264   4.925
   31DPPC   O16 1516   5.712   6.230   5.040
   31DPPC   C17 1517   5.699   6.175   4.801
   31DPPC   C18 1518   5.563   6.147   4.738
   31DPPC   C19 1519   5.593   6.106   4.593
   31DPPC   C20 1520   5.473   6.099   4.499
   31DPPC   C21 1521   5.516   6.046   4.362
   31DPPC   C22 1522   5.386   6.014   4.288
   31DPPC   C23 1523   5.295   6.137   4.286
   31DPPC   C24 1524   5.184   6.112   4.185
   31DPPC   C25 1525   5.104   6.242   4.171
   31DPPC   C26 1526   5.031   6.233   4.037
   31DPPC   C27 1527   4.986   6.377   4.010
   31DPPC   C28 1528   4.881   6.412   4.116
   31DPPC   C29 1529   4.809   6.541   4.074
   31DPPC   C30 1530   4.693   6.564   4.170
   31DPPC   C31 1531   4.754   6.603   4.305
   31DPPC   C32 1532   5.513   6.541   5.011
   31DPPC   O33 1533   5.495   6.643   4.913
   31DPPC   C34 1534   5.385   6.723   4.917
   31DPPC   O35 1535   5.290   6.692   4.989
   31DPPC   C36 1536   5.393   6.842   4.822
   31DPPC   C37 1537   5.356   6.806   4.678
   31DPPC   C38 1538   5.372   6.932   4.593
   31DPPC   C39 1539   5.335   6.884   4.452
   31DPPC   C40 1540   5.356   6.987   4.341
   31DPPC   C41 1541   5.481   7.069   4.371
   31DPPC   C42 1542   5.503   7.173   4.261
   31DPPC   C43 1543   5.643   7.236   4.257
   31DPPC   C44 1544   5.673   7.335   4.369
   31DPPC   C45 1545   5.575   7.451   4.346
   31DPPC   C46 1546   5.596   7.551   4.460
   31DPPC   C47 1547   5.544   7.497   4.593
   31DPPC   C48 1548   5.399   7.450   4.582
   31DPPC   C49 1549   5.330   7.466   4.717
   31DPPC   C50 1550   5.198   7.388   4.722
   32DPPC    C1 1551   1.144   7.575   4.780
   32DPPC    C2 1552   1.027   7.780   4.762
   32DPPC    C3 1553   1.012   7.601   4.595
   32DPPC    N4 1554   1.017   7.635   4.738
   32DPPC    C5 1555   0.913   7.565   4.815
   32DPPC    C6 1556   0.781   7.636   4.843
   32DPPC    O7 1557   0.707   7.661   4.723
   32DPPC    P8 1558   0.595   7.775   4.744
   32DPPC    O9 1559   0.665   7.905   4.752
   32DPPC   O10 1560   0.493   7.735   4.843
   32DPPC   O11 1561   0.534   7.753   4.596
   32DPPC   C12 1562   0.630   7.792   4.499
   32DPPC   C13 1563   0.596   7.734   4.361
   32DPPC   O14 1564   0.693   7.752   4.256
   32DPPC   C15 1565   0.670   7.669   4.152
   32DPPC   O16 1566   0.615   7.562   4.177
   32DPPC   C17 1567   0.736   7.698   4.017
   32DPPC   C18 1568   0.849   7.600   3.988
   32DPPC   C19 1569   0.930   7.630   3.862
   32DPPC   C20 1570   1.080   7.637   3.890
   32DPPC   C21 1571   1.168   7.651   3.766
   32DPPC   C22 1572   1.146   7.533   3.671
   32DPPC   C23 1573   1.240   7.532   3.551
   32DPPC   C24 1574   1.212   7.425   3.445
   32DPPC   C25 1575   1.217   7.292   3.521
   32DPPC   C26 1576   1.192   7.183   3.417
   32DPPC   C27 1577   1.051   7.202   3.360
   32DPPC   C28 1578   1.013   7.087   3.266
   32DPPC   C29 1579   1.003   6.956   3.345
   32DPPC   C30 1580   0.871   6.951   3.422
   32DPPC   C31 1581   0.862   6.805   3.469
   32DPPC   C32 1582   0.455   7.782   4.326
   32DPPC   O33 1583   0.447   7.920   4.290
   32DPPC   C34 1584   0.320   7.962   4.265
   32DPPC   O35 1585   0.226   7.883   4.254
   32DPPC   C36 1586   0.300   8.113   4.248
   32DPPC   C37 1587   0.196   8.157   4.145
   32DPPC   C38 1588   0.209   8.306   4.115
   32DPPC   C39 1589   0.086   8.339   4.030
   32DPPC   C40 1590   0.093   8.483   3.977
   32DPPC   C41 1591   0.037   8.497   3.835
   32DPPC   C42 1592   0.032   8.641   3.786
   32DPPC   C43 1593   0.013   8.652   3.634
   32DPPC   C44 1594  -0.122   8.603   3.583
   32DPPC   C45 1595  -0.112   8.620   3.432
   32DPPC   C46 1596  -0.242   8.593   3.355
   32DPPC   C47 1597  -0.220   8.608   3.204
   32DPPC   C48 1598  -0.345   8.568   3.124
   32DPPC   C49 1599  -0.327   8.549   2.974
   32DPPC   C50 1600  -0.217   8.443   2.962
   33DPPC    C1 1601   2.357   2.323   5.295
   33DPPC    C2 1602   2.238   2.511   5.252
   33DPPC    C3 1603   2.354   2.418   5.069
   33DPPC    N4 1604   2.276   2.384   5.189
   33DPPC    C5 1605   2.166   2.302   5.135
   33DPPC    C6 1606   2.053   2.254   5.226
   33DPPC    O7 1607   1.938   2.194   5.166
   33DPPC    P8 1608   1.814   2.293   5.138
   33DPPC    O9 1609   1.838   2.398   5.239
   33DPPC   O10 1610   1.696   2.204   5.135
   33DPPC   O11 1611   1.856   2.348   4.993
   33DPPC   C12 1612   1.812   2.260   4.889
   33DPPC   C13 1613   1.824   2.325   4.751
   33DPPC   O14 1614   1.749   2.254   4.650
   33DPPC   C15 1615   1.626   2.309   4.630
   33DPPC   O16 1616   1.603   2.415   4.687
   33DPPC   C17 1617   1.549   2.263   4.506
   33DPPC   C18 1618   1.471   2.374   4.434
   33DPPC   C19 1619   1.413   2.345   4.296
   33DPPC   C20 1620   1.332   2.464   4.245
   33DPPC   C21 1621   1.248   2.430   4.121
   33DPPC   C22 1622   1.147   2.317   4.141
   33DPPC   C23 1623   1.074   2.307   4.007
   33DPPC   C24 1624   1.169   2.262   3.896
   33DPPC   C25 1625   1.084   2.262   3.769
   33DPPC   C26 1626   1.157   2.176   3.666
   33DPPC   C27 1627   1.301   2.225   3.686
   33DPPC   C28 1628   1.393   2.153   3.587
   33DPPC   C29 1629   1.544   2.162   3.607
   33DPPC   C30 1630   1.616   2.078   3.500
   33DPPC   C31 1631   1.701   2.155   3.398
   33DPPC   C32 1632   1.975   2.334   4.729
   33DPPC   O33 1633   2.054   2.215   4.741
   33DPPC   C34 1634   2.189   2.229   4.732
   33DPPC   O35 1635   2.237   2.341   4.750
   33DPPC   C36 1636   2.286   2.122   4.682
   33DPPC   C37 1637   2.214   1.997   4.630
   33DPPC   C38 1638   2.195   2.005   4.478
   33DPPC   C39 1639   2.145   1.871   4.423
   33DPPC   C40 1640   2.140   1.874   4.271
   33DPPC   C41 1641   2.124   1.734   4.211
   33DPPC   C42 1642   2.117   1.751   4.059
   33DPPC   C43 1643   2.244   1.826   4.017
   33DPPC   C44 1644   2.260   1.825   3.864
   33DPPC   C45 1645   2.179   1.947   3.820
   33DPPC   C46 1646   2.213   1.984   3.675
   33DPPC   C47 1647   2.138   2.105   3.618
   33DPPC   C48 1648   2.189   2.143   3.479
   33DPPC   C49 1649   2.091   2.251   3.432
   33DPPC   C50 1650   2.107   2.275   3.281
   34DPPC    C1 1651   2.988   4.358   5.477
   34DPPC    C2 1652   2.910   4.491   5.315
   34DPPC    C3 1653   2.922   4.600   5.527
   34DPPC    N4 1654   2.987   4.500   5.440
   34DPPC    C5 1655   3.120   4.553   5.408
   34DPPC    C6 1656   3.222   4.538   5.521
   34DPPC    O7 1657   3.328   4.630   5.496
   34DPPC    P8 1658   3.431   4.621   5.619
   34DPPC    O9 1659   3.354   4.618   5.746
   34DPPC   O10 1660   3.563   4.687   5.610
   34DPPC   O11 1661   3.455   4.463   5.599
   34DPPC   C12 1662   3.557   4.437   5.501
   34DPPC   C13 1663   3.621   4.299   5.504
   34DPPC   O14 1664   3.716   4.261   5.403
   34DPPC   C15 1665   3.840   4.315   5.409
   34DPPC   O16 1666   3.868   4.410   5.482
   34DPPC   C17 1667   3.951   4.263   5.317
   34DPPC   C18 1668   3.988   4.338   5.188
   34DPPC   C19 1669   3.870   4.355   5.093
   34DPPC   C20 1670   3.896   4.443   4.971
   34DPPC   C21 1671   3.767   4.484   4.900
   34DPPC   C22 1672   3.795   4.550   4.766
   34DPPC   C23 1673   3.847   4.453   4.660
   34DPPC   C24 1674   3.890   4.536   4.539
   34DPPC   C25 1675   3.938   4.446   4.424
   34DPPC   C26 1676   4.074   4.489   4.370
   34DPPC   C27 1677   4.144   4.376   4.294
   34DPPC   C28 1678   4.277   4.431   4.242
   34DPPC   C29 1679   4.350   4.340   4.143
   34DPPC   C30 1680   4.498   4.372   4.116
   34DPPC   C31 1681   4.509   4.511   4.052
   34DPPC   C32 1682   3.503   4.204   5.530
   34DPPC   O33 1683   3.398   4.203   5.432
   34DPPC   C34 1684   3.307   4.103   5.436
   34DPPC   O35 1685   3.273   4.074   5.551
   34DPPC   C36 1686   3.228   4.085   5.306
   34DPPC   C37 1687   3.229   3.938   5.263
   34DPPC   C38 1688   3.169   3.942   5.122
   34DPPC   C39 1689   3.274   3.992   5.023
   34DPPC   C40 1690   3.218   3.982   4.881
   34DPPC   C41 1691   3.302   3.894   4.789
   34DPPC   C42 1692   3.213   3.855   4.671
   34DPPC   C43 1693   3.310   3.804   4.564
   34DPPC   C44 1694   3.252   3.788   4.423
   34DPPC   C45 1695   3.363   3.722   4.342
   34DPPC   C46 1696   3.318   3.715   4.195
   34DPPC   C47 1697   3.335   3.852   4.130
   34DPPC   C48 1698   3.302   3.845   3.981
   34DPPC   C49 1699   3.349   3.977   3.919
   34DPPC   C50 1700   3.339   3.970   3.766
   35DPPC    C1 1701   1.508   2.674   1.430
   35DPPC    C2 1702   1.409   2.877   1.516
   35DPPC    C3 1703   1.472   2.695   1.662
   35DPPC    N4 1704   1.507   2.770   1.541
   35DPPC    C5 1705   1.642   2.827   1.553
   35DPPC    C6 1706   1.700   2.904   1.434
   35DPPC    O7 1707   1.817   2.978   1.469
   35DPPC    P8 1708   1.817   3.112   1.381
   35DPPC    O9 1709   1.737   3.096   1.258
   35DPPC   O10 1710   1.932   3.205   1.391
   35DPPC   O11 1711   1.695   3.174   1.466
   35DPPC   C12 1712   1.750   3.237   1.583
   35DPPC   C13 1713   1.625   3.299   1.645
   35DPPC   O14 1714   1.656   3.415   1.724
   35DPPC   C15 1715   1.723   3.520   1.670
   35DPPC   O16 1716   1.705   3.539   1.550
   35DPPC   C17 1717   1.776   3.624   1.770
   35DPPC   C18 1718   1.664   3.664   1.866
   35DPPC   C19 1719   1.727   3.692   2.003
   35DPPC   C20 1720   1.628   3.741   2.109
   35DPPC   C21 1721   1.707   3.754   2.239
   35DPPC   C22 1722   1.612   3.779   2.357
   35DPPC   C23 1723   1.695   3.807   2.483
   35DPPC   C24 1724   1.598   3.872   2.582
   35DPPC   C25 1725   1.675   3.970   2.671
   35DPPC   C26 1726   1.577   4.059   2.748
   35DPPC   C27 1727   1.517   3.972   2.859
   35DPPC   C28 1728   1.423   4.053   2.949
   35DPPC   C29 1729   1.385   3.965   3.068
   35DPPC   C30 1730   1.314   4.052   3.172
   35DPPC   C31 1731   1.402   4.173   3.203
   35DPPC   C32 1732   1.542   3.198   1.725
   35DPPC   O33 1733   1.622   3.098   1.789
   35DPPC   C34 1734   1.550   3.001   1.850
   35DPPC   O35 1735   1.438   2.971   1.807
   35DPPC   C36 1736   1.623   2.908   1.947
   35DPPC   C37 1737   1.727   2.979   2.034
   35DPPC   C38 1738   1.656   3.084   2.119
   35DPPC   C39 1739   1.759   3.137   2.219
   35DPPC   C40 1740   1.692   3.246   2.304
   35DPPC   C41 1741   1.729   3.252   2.452
   35DPPC   C42 1742   1.638   3.363   2.506
   35DPPC   C43 1743   1.632   3.360   2.658
   35DPPC   C44 1744   1.538   3.460   2.725
   35DPPC   C45 1745   1.539   3.452   2.878
   35DPPC   C46 1746   1.453   3.575   2.910
   35DPPC   C47 1747   1.308   3.532   2.887
   35DPPC   C48 1748   1.214   3.652   2.872
   35DPPC   C49 1749   1.072   3.595   2.867
   35DPPC   C50 1750   1.017   3.546   3.001
   36DPPC    C1 1751   6.184   6.357   1.785
   36DPPC    C2 1752   6.345   6.358   1.945
   36DPPC    C3 1753   6.361   6.520   1.761
   36DPPC    N4 1754   6.273   6.450   1.856
   36DPPC    C5 1755   6.196   6.542   1.942
   36DPPC    C6 1756   6.114   6.658   1.884
   36DPPC    O7 1757   6.187   6.765   1.824
   36DPPC    P8 1758   6.075   6.878   1.799
   36DPPC    O9 1759   5.949   6.806   1.769
   36DPPC   O10 1760   6.132   6.975   1.703
   36DPPC   O11 1761   6.065   6.936   1.949
   36DPPC   C12 1762   6.196   6.957   2.003
   36DPPC   C13 1763   6.211   7.030   2.137
   36DPPC   O14 1764   6.341   7.003   2.191
   36DPPC   C15 1765   6.434   7.100   2.169
   36DPPC   O16 1766   6.431   7.180   2.075
   36DPPC   C17 1767   6.568   7.096   2.242
   36DPPC   C18 1768   6.528   7.090   2.390
   36DPPC   C19 1769   6.653   7.082   2.477
   36DPPC   C20 1770   6.626   7.095   2.627
   36DPPC   C21 1771   6.742   7.092   2.727
   36DPPC   C22 1772   6.690   7.108   2.870
   36DPPC   C23 1773   6.809   7.096   2.964
   36DPPC   C24 1774   6.782   7.153   3.103
   36DPPC   C25 1775   6.906   7.217   3.166
   36DPPC   C26 1776   6.867   7.280   3.300
   36DPPC   C27 1777   6.793   7.177   3.387
   36DPPC   C28 1778   6.725   7.228   3.514
   36DPPC   C29 1779   6.817   7.292   3.618
   36DPPC   C30 1780   6.745   7.337   3.745
   36DPPC   C31 1781   6.857   7.389   3.835
   36DPPC   C32 1782   6.092   6.975   2.215
   36DPPC   O33 1783   6.048   7.056   2.324
   36DPPC   C34 1784   5.969   7.005   2.422
   36DPPC   O35 1785   5.903   6.905   2.394
   36DPPC   C36 1786   5.948   7.083   2.552
   36DPPC   C37 1787   6.069   7.063   2.644
   36DPPC   C38 1788   6.052   7.111   2.788
   36DPPC   C39 1789   5.938   7.033   2.852
   36DPPC   C40 1790   5.989   7.012   2.995
   36DPPC   C41 1791   5.873   6.961   3.080
   36DPPC   C42 1792   5.893   6.959   3.232
   36DPPC   C43 1793   5.805   6.853   3.300
   36DPPC   C44 1794   5.840   6.845   3.449
   36DPPC   C45 1795   5.729   6.783   3.534
   36DPPC   C46 1796   5.787   6.746   3.670
   36DPPC   C47 1797   5.687   6.799   3.774
   36DPPC   C48 1798   5.699   6.717   3.903
   36DPPC   C49 1799   5.616   6.788   4.010
   36DPPC   C50 1800   5.656   6.718   4.139
   37DPPC    C1 1801   8.502   3.015   1.661
   37DPPC    C2 1802   8.581   3.003   1.442
   37DPPC    C3 1803   8.390   3.133   1.471
   37DPPC    N4 1804   8.515   3.093   1.537
   37DPPC    C5 1805   8.609   3.204   1.555
   37DPPC    C6 1806   8.558   3.313   1.649
   37DPPC    O7 1807   8.652   3.421   1.655
   37DPPC    P8 1808   8.579   3.547   1.723
   37DPPC    O9 1809   8.474   3.486   1.807
   37DPPC   O10 1810   8.546   3.613   1.594
   37DPPC   O11 1811   8.707   3.614   1.794
   37DPPC   C12 1812   8.729   3.537   1.912
   37DPPC   C13 1813   8.793   3.612   2.029
   37DPPC   O14 1814   8.850   3.530   2.132
   37DPPC   C15 1815   8.958   3.450   2.109
   37DPPC   O16 1816   9.014   3.454   1.999
   37DPPC   C17 1817   9.009   3.361   2.222
   37DPPC   C18 1818   9.110   3.253   2.183
   37DPPC   C19 1819   9.143   3.176   2.312
   37DPPC   C20 1820   9.221   3.053   2.267
   37DPPC   C21 1821   9.245   2.947   2.375
   37DPPC   C22 1822   9.350   2.850   2.322
   37DPPC   C23 1823   9.378   2.757   2.440
   37DPPC   C24 1824   9.445   2.817   2.564
   37DPPC   C25 1825   9.589   2.860   2.539
   37DPPC   C26 1826   9.661   2.894   2.669
   37DPPC   C27 1827   9.706   2.777   2.756
   37DPPC   C28 1828   9.737   2.827   2.897
   37DPPC   C29 1829   9.754   2.710   2.994
   37DPPC   C30 1830   9.817   2.729   3.133
   37DPPC   C31 1831   9.725   2.814   3.220
   37DPPC   C32 1832   8.686   3.714   2.069
   37DPPC   O33 1833   8.564   3.648   2.103
   37DPPC   C34 1834   8.457   3.702   2.040
   37DPPC   O35 1835   8.464   3.773   1.939
   37DPPC   C36 1836   8.316   3.660   2.082
   37DPPC   C37 1837   8.307   3.657   2.234
   37DPPC   C38 1838   8.358   3.784   2.304
   37DPPC   C39 1839   8.300   3.813   2.442
   37DPPC   C40 1840   8.344   3.703   2.538
   37DPPC   C41 1841   8.256   3.706   2.663
   37DPPC   C42 1842   8.345   3.635   2.767
   37DPPC   C43 1843   8.298   3.652   2.912
   37DPPC   C44 1844   8.416   3.598   2.993
   37DPPC   C45 1845   8.396   3.636   3.140
   37DPPC   C46 1846   8.513   3.579   3.220
   37DPPC   C47 1847   8.514   3.617   3.368
   37DPPC   C48 1848   8.624   3.544   3.445
   37DPPC   C49 1849   8.732   3.648   3.474
   37DPPC   C50 1850   8.856   3.572   3.522
   38DPPC    C1 1851   3.461   4.251   1.483
   38DPPC    C2 1852   3.457   4.485   1.423
   38DPPC    C3 1853   3.277   4.352   1.357
   38DPPC    N4 1854   3.376   4.369   1.464
   38DPPC    C5 1855   3.298   4.412   1.581
   38DPPC    C6 1856   3.205   4.316   1.656
   38DPPC    O7 1857   3.277   4.212   1.723
   38DPPC    P8 1858   3.174   4.098   1.770
   38DPPC    O9 1859   3.243   3.997   1.853
   38DPPC   O10 1860   3.107   4.061   1.643
   38DPPC   O11 1861   3.076   4.192   1.857
   38DPPC   C12 1862   3.115   4.200   1.995
   38DPPC   C13 1863   3.213   4.314   2.019
   38DPPC   O14 1864   3.290   4.287   2.137
   38DPPC   C15 1865   3.381   4.370   2.193
   38DPPC   O16 1866   3.440   4.457   2.128
   38DPPC   C17 1867   3.425   4.320   2.331
   38DPPC   C18 1868   3.422   4.436   2.431
   38DPPC   C19 1869   3.484   4.392   2.563
   38DPPC   C20 1870   3.479   4.513   2.657
   38DPPC   C21 1871   3.542   4.470   2.789
   38DPPC   C22 1872   3.464   4.366   2.870
   38DPPC   C23 1873   3.523   4.312   3.000
   38DPPC   C24 1874   3.568   4.430   3.087
   38DPPC   C25 1875   3.451   4.522   3.122
   38DPPC   C26 1876   3.514   4.628   3.214
   38DPPC   C27 1877   3.409   4.735   3.243
   38DPPC   C28 1878   3.464   4.848   3.331
   38DPPC   C29 1879   3.366   4.965   3.334
   38DPPC   C30 1880   3.415   5.066   3.438
   38DPPC   C31 1881   3.300   5.162   3.469
   38DPPC   C32 1882   3.139   4.448   2.009
   38DPPC   O33 1883   3.028   4.457   2.098
   38DPPC   C34 1884   2.968   4.579   2.107
   38DPPC   O35 1885   3.015   4.688   2.074
   38DPPC   C36 1886   2.844   4.570   2.197
   38DPPC   C37 1887   2.859   4.543   2.347
   38DPPC   C38 1888   2.763   4.433   2.391
   38DPPC   C39 1889   2.815   4.370   2.520
   38DPPC   C40 1890   2.708   4.272   2.571
   38DPPC   C41 1891   2.757   4.179   2.682
   38DPPC   C42 1892   2.820   4.248   2.803
   38DPPC   C43 1893   2.836   4.156   2.924
   38DPPC   C44 1894   2.900   4.246   3.030
   38DPPC   C45 1895   3.053   4.254   3.021
   38DPPC   C46 1896   3.104   4.348   3.130
   38DPPC   C47 1897   3.070   4.295   3.270
   38DPPC   C48 1898   3.136   4.385   3.375
   38DPPC   C49 1899   3.070   4.523   3.365
   38DPPC   C50 1900   3.102   4.616   3.482
   39DPPC    C1 1901   4.261   7.986   1.996
   39DPPC    C2 1902   4.342   8.004   1.764
   39DPPC    C3 1903   4.298   7.792   1.880
   39DPPC    N4 1904   4.256   7.931   1.859
   39DPPC    C5 1905   4.123   7.933   1.799
   39DPPC    C6 1906   4.031   8.054   1.816
   39DPPC    O7 1907   3.902   8.034   1.757
   39DPPC    P8 1908   3.783   8.112   1.832
   39DPPC    O9 1909   3.670   8.127   1.738
   39DPPC   O10 1910   3.830   8.241   1.889
   39DPPC   O11 1911   3.743   7.999   1.940
   39DPPC   C12 1912   3.601   7.994   1.953
   39DPPC   C13 1913   3.546   7.938   2.085
   39DPPC   O14 1914   3.404   7.947   2.101
   39DPPC   C15 1915   3.341   7.828   2.114
   39DPPC   O16 1916   3.384   7.736   2.044
   39DPPC   C17 1917   3.198   7.840   2.166
   39DPPC   C18 1918   3.153   7.705   2.223
   39DPPC   C19 1919   3.002   7.705   2.250
   39DPPC   C20 1920   2.941   7.575   2.303
   39DPPC   C21 1921   2.808   7.602   2.374
   39DPPC   C22 1922   2.767   7.472   2.443
   39DPPC   C23 1923   2.624   7.492   2.495
   39DPPC   C24 1924   2.531   7.532   2.380
   39DPPC   C25 1925   2.395   7.572   2.437
   39DPPC   C26 1926   2.332   7.461   2.521
   39DPPC   C27 1927   2.186   7.444   2.478
   39DPPC   C28 1928   2.105   7.323   2.526
   39DPPC   C29 1929   1.959   7.338   2.481
   39DPPC   C30 1930   1.939   7.349   2.330
   39DPPC   C31 1931   1.792   7.337   2.289
   39DPPC   C32 1932   3.641   8.004   2.186
   39DPPC   O33 1933   3.632   8.146   2.198
   39DPPC   C34 1934   3.693   8.192   2.310
   39DPPC   O35 1935   3.781   8.129   2.368
   39DPPC   C36 1936   3.661   8.330   2.368
   39DPPC   C37 1937   3.534   8.336   2.453
   39DPPC   C38 1938   3.560   8.260   2.584
   39DPPC   C39 1939   3.433   8.253   2.669
   39DPPC   C40 1940   3.438   8.210   2.816
   39DPPC   C41 1941   3.311   8.240   2.896
   39DPPC   C42 1942   3.292   8.164   3.028
   39DPPC   C43 1943   3.156   8.204   3.086
   39DPPC   C44 1944   3.161   8.172   3.235
   39DPPC   C45 1945   3.038   8.236   3.300
   39DPPC   C46 1946   2.992   8.162   3.426
   39DPPC   C47 1947   2.867   8.229   3.484
   39DPPC   C48 1948   2.809   8.147   3.600
   39DPPC   C49 1949   2.884   8.172   3.731
   39DPPC   C50 1950   2.841   8.080   3.846
   40DPPC    C1 1951   3.192   7.147   2.181
   40DPPC    C2 1952   3.311   7.053   2.013
   40DPPC    C3 1953   3.283   6.933   2.224
   40DPPC    N4 1954   3.218   7.016   2.122
   40DPPC    C5 1955   3.095   6.955   2.071
   40DPPC    C6 1956   3.086   6.857   1.953
   40DPPC    O7 1957   3.170   6.743   1.973
   40DPPC    P8 1958   3.144   6.625   1.867
   40DPPC    O9 1959   3.258   6.532   1.881
   40DPPC   O10 1960   3.085   6.654   1.735
   40DPPC   O11 1961   3.026   6.574   1.965
   40DPPC   C12 1962   3.091   6.485   2.057
   40DPPC   C13 1963   3.006   6.453   2.180
   40DPPC   O14 1964   2.900   6.365   2.140
   40DPPC   C15 1965   2.925   6.232   2.122
   40DPPC   O16 1966   3.034   6.175   2.112
   40DPPC   C17 1967   2.793   6.156   2.117
   40DPPC   C18 1968   2.729   6.155   2.256
   40DPPC   C19 1969   2.594   6.084   2.253
   40DPPC   C20 1970   2.547   6.065   2.397
   40DPPC   C21 1971   2.536   6.190   2.485
   40DPPC   C22 1972   2.489   6.149   2.625
   40DPPC   C23 1973   2.488   6.263   2.727
   40DPPC   C24 1974   2.429   6.214   2.859
   40DPPC   C25 1975   2.421   6.334   2.954
   40DPPC   C26 1976   2.314   6.428   2.898
   40DPPC   C27 1977   2.271   6.507   3.022
   40DPPC   C28 1978   2.198   6.421   3.124
   40DPPC   C29 1979   2.250   6.415   3.268
   40DPPC   C30 1980   2.193   6.316   3.369
   40DPPC   C31 1981   2.217   6.355   3.515
   40DPPC   C32 1982   2.958   6.584   2.242
   40DPPC   O33 1983   3.031   6.613   2.362
   40DPPC   C34 1984   3.017   6.743   2.400
   40DPPC   O35 1985   2.985   6.837   2.328
   40DPPC   C36 1986   3.062   6.774   2.543
   40DPPC   C37 1987   3.022   6.914   2.591
   40DPPC   C38 1988   3.056   6.926   2.740
   40DPPC   C39 1989   2.925   6.952   2.815
   40DPPC   C40 1990   2.948   6.967   2.966
   40DPPC   C41 1991   2.802   6.997   3.001
   40DPPC   C42 1992   2.789   7.054   3.143
   40DPPC   C43 1993   2.861   6.958   3.238
   40DPPC   C44 1994   2.855   7.021   3.377
   40DPPC   C45 1995   2.711   7.062   3.411
   40DPPC   C46 1996   2.695   7.112   3.555
   40DPPC   C47 1997   2.559   7.179   3.572
   40DPPC   C48 1998   2.551   7.252   3.707
   40DPPC   C49 1999   2.415   7.316   3.735
   40DPPC   C50 2000   2.375   7.432   3.644
   41DPPC    C1 2001   3.148   5.712   1.854
   41DPPC    C2 2002   3.039   5.905   1.883
   41DPPC    C3 2003   3.267   5.905   1.807
   41DPPC    N4 2004   3.135   5.844   1.790
   41DPPC    C5 2005   3.104   5.832   1.646
   41DPPC    C6 2006   3.002   5.737   1.584
   41DPPC    O7 2007   2.864   5.760   1.615
   41DPPC    P8 2008   2.769   5.687   1.507
   41DPPC    O9 2009   2.851   5.665   1.386
   41DPPC   O10 2010   2.646   5.768   1.504
   41DPPC   O11 2011   2.743   5.544   1.577
   41DPPC   C12 2012   2.650   5.543   1.686
   41DPPC   C13 2013   2.580   5.410   1.713
   41DPPC   O14 2014   2.454   5.409   1.782
   41DPPC   C15 2015   2.335   5.462   1.742
   41DPPC   O16 2016   2.341   5.532   1.641
   41DPPC   C17 2017   2.230   5.472   1.853
   41DPPC   C18 2018   2.223   5.332   1.914
   41DPPC   C19 2019   2.113   5.323   2.019
   41DPPC   C20 2020   2.100   5.194   2.100
   41DPPC   C21 2021   1.965   5.208   2.170
   41DPPC   C22 2022   1.919   5.074   2.228
   41DPPC   C23 2023   1.794   5.106   2.311
   41DPPC   C24 2024   1.724   4.985   2.373
   41DPPC   C25 2025   1.612   5.021   2.471
   41DPPC   C26 2026   1.561   4.888   2.528
   41DPPC   C27 2027   1.470   4.930   2.643
   41DPPC   C28 2028   1.565   5.003   2.738
   41DPPC   C29 2029   1.493   5.038   2.868
   41DPPC   C30 2030   1.592   5.063   2.981
   41DPPC   C31 2031   1.522   5.066   3.117
   41DPPC   C32 2032   2.687   5.327   1.785
   41DPPC   O33 2033   2.765   5.408   1.874
   41DPPC   C34 2034   2.870   5.342   1.928
   41DPPC   O35 2035   2.913   5.230   1.901
   41DPPC   C36 2036   2.941   5.415   2.042
   41DPPC   C37 2037   2.923   5.319   2.160
   41DPPC   C38 2038   2.991   5.372   2.287
   41DPPC   C39 2039   2.970   5.287   2.413
   41DPPC   C40 2040   3.073   5.318   2.522
   41DPPC   C41 2041   3.025   5.222   2.632
   41DPPC   C42 2042   3.113   5.226   2.757
   41DPPC   C43 2043   3.237   5.138   2.745
   41DPPC   C44 2044   3.320   5.162   2.872
   41DPPC   C45 2045   3.432   5.058   2.870
   41DPPC   C46 2046   3.519   5.068   2.744
   41DPPC   C47 2047   3.620   4.953   2.749
   41DPPC   C48 2048   3.742   4.996   2.668
   41DPPC   C49 2049   3.823   5.110   2.731
   41DPPC   C50 2050   3.944   5.132   2.639
   42DPPC    C1 2051   1.991   4.451   1.877
   42DPPC    C2 2052   2.132   4.480   1.675
   42DPPC    C3 2053   2.133   4.283   1.795
   42DPPC    N4 2054   2.044   4.392   1.753
   42DPPC    C5 2055   1.939   4.336   1.666
   42DPPC    C6 2056   1.824   4.430   1.630
   42DPPC    O7 2057   1.852   4.531   1.532
   42DPPC    P8 2058   1.717   4.616   1.514
   42DPPC    O9 2059   1.600   4.527   1.498
   42DPPC   O10 2060   1.751   4.715   1.410
   42DPPC   O11 2061   1.730   4.682   1.661
   42DPPC   C12 2062   1.801   4.806   1.653
   42DPPC   C13 2063   1.840   4.857   1.791
   42DPPC   O14 2064   1.951   4.797   1.860
   42DPPC   C15 2065   2.078   4.828   1.825
   42DPPC   O16 2066   2.107   4.876   1.715
   42DPPC   C17 2067   2.182   4.791   1.931
   42DPPC   C18 2068   2.143   4.821   2.076
   42DPPC   C19 2069   2.056   4.707   2.128
   42DPPC   C20 2070   2.056   4.692   2.281
   42DPPC   C21 2071   1.984   4.560   2.309
   42DPPC   C22 2072   1.986   4.557   2.461
   42DPPC   C23 2073   1.935   4.429   2.526
   42DPPC   C24 2074   1.915   4.464   2.674
   42DPPC   C25 2075   1.871   4.340   2.751
   42DPPC   C26 2076   1.868   4.371   2.901
   42DPPC   C27 2077   1.826   4.258   2.996
   42DPPC   C28 2078   1.817   4.304   3.141
   42DPPC   C29 2079   1.954   4.354   3.188
   42DPPC   C30 2080   1.953   4.399   3.334
   42DPPC   C31 2081   1.897   4.541   3.334
   42DPPC   C32 2082   1.713   4.874   1.875
   42DPPC   O33 2083   1.646   4.998   1.850
   42DPPC   C34 2084   1.546   5.010   1.941
   42DPPC   O35 2085   1.497   4.911   1.995
   42DPPC   C36 2086   1.486   5.148   1.968
   42DPPC   C37 2087   1.426   5.162   2.108
   42DPPC   C38 2088   1.401   5.307   2.150
   42DPPC   C39 2089   1.274   5.360   2.082
   42DPPC   C40 2090   1.226   5.478   2.166
   42DPPC   C41 2091   1.090   5.443   2.228
   42DPPC   C42 2092   1.076   5.534   2.350
   42DPPC   C43 2093   0.964   5.494   2.447
   42DPPC   C44 2094   0.974   5.581   2.573
   42DPPC   C45 2095   0.891   5.513   2.683
   42DPPC   C46 2096   0.881   5.588   2.816
   42DPPC   C47 2097   0.771   5.529   2.904
   42DPPC   C48 2098   0.774   5.610   3.034
   42DPPC   C49 2099   0.658   5.594   3.132
   42DPPC   C50 2100   0.681   5.674   3.260
   43DPPC    C1 2101   1.728   6.462   1.676
   43DPPC    C2 2102   1.505   6.539   1.667
   43DPPC    C3 2103   1.688   6.663   1.769
   43DPPC    N4 2104   1.645   6.581   1.655
   43DPPC    C5 2105   1.699   6.639   1.531
   43DPPC    C6 2106   1.612   6.747   1.466
   43DPPC    O7 2107   1.582   6.851   1.559
   43DPPC    P8 2108   1.449   6.927   1.511
   43DPPC    O9 2109   1.388   6.869   1.389
   43DPPC   O10 2110   1.473   7.073   1.516
   43DPPC   O11 2111   1.368   6.876   1.640
   43DPPC   C12 2112   1.264   6.963   1.686
   43DPPC   C13 2113   1.193   6.905   1.808
   43DPPC   O14 2114   1.137   7.004   1.898
   43DPPC   C15 2115   1.003   7.001   1.917
   43DPPC   O16 2116   0.931   6.964   1.825
   43DPPC   C17 2117   0.960   7.087   2.036
   43DPPC   C18 2118   1.011   7.231   2.026
   43DPPC   C19 2119   0.955   7.310   2.144
   43DPPC   C20 2120   1.035   7.439   2.156
   43DPPC   C21 2121   0.963   7.529   2.256
   43DPPC   C22 2122   0.944   7.452   2.387
   43DPPC   C23 2123   0.863   7.530   2.490
   43DPPC   C24 2124   0.880   7.454   2.621
   43DPPC   C25 2125   1.026   7.448   2.666
   43DPPC   C26 2126   1.014   7.396   2.810
   43DPPC   C27 2127   1.142   7.337   2.869
   43DPPC   C28 2128   1.248   7.434   2.923
   43DPPC   C29 2129   1.359   7.364   3.002
   43DPPC   C30 2130   1.467   7.463   3.046
   43DPPC   C31 2131   1.569   7.400   3.141
   43DPPC   C32 2132   1.296   6.817   1.878
   43DPPC   O33 2133   1.267   6.724   1.983
   43DPPC   C34 2134   1.361   6.656   2.053
   43DPPC   O35 2135   1.464   6.613   2.000
   43DPPC   C36 2136   1.313   6.576   2.174
   43DPPC   C37 2137   1.315   6.657   2.304
   43DPPC   C38 2138   1.232   6.570   2.399
   43DPPC   C39 2139   1.181   6.657   2.514
   43DPPC   C40 2140   1.098   6.771   2.454
   43DPPC   C41 2141   1.027   6.858   2.557
   43DPPC   C42 2142   0.910   6.932   2.492
   43DPPC   C43 2143   0.814   6.995   2.593
   43DPPC   C44 2144   0.768   6.910   2.711
   43DPPC   C45 2145   0.683   7.008   2.792
   43DPPC   C46 2146   0.751   7.081   2.908
   43DPPC   C47 2147   0.648   7.152   2.996
   43DPPC   C48 2148   0.733   7.236   3.092
   43DPPC   C49 2149   0.650   7.354   3.140
   43DPPC   C50 2150   0.620   7.449   3.023
   44DPPC    C1 2151   4.936   1.652   1.487
   44DPPC    C2 2152   4.723   1.735   1.454
   44DPPC    C3 2153   4.810   1.737   1.668
   44DPPC    N4 2154   4.847   1.761   1.528
   44DPPC    C5 2155   4.916   1.890   1.512
   44DPPC    C6 2156   4.836   2.020   1.531
   44DPPC    O7 2157   4.785   2.046   1.662
   44DPPC    P8 2158   4.765   2.206   1.666
   44DPPC    O9 2159   4.656   2.226   1.765
   44DPPC   O10 2160   4.738   2.258   1.530
   44DPPC   O11 2161   4.912   2.244   1.720
   44DPPC   C12 2162   4.924   2.214   1.859
   44DPPC   C13 2163   5.072   2.185   1.882
   44DPPC   O14 2164   5.101   2.104   1.997
   44DPPC   C15 2165   5.222   2.042   2.000
   44DPPC   O16 2166   5.276   2.035   1.890
   44DPPC   C17 2167   5.262   1.958   2.122
   44DPPC   C18 2168   5.414   1.964   2.139
   44DPPC   C19 2169   5.441   1.927   2.285
   44DPPC   C20 2170   5.593   1.928   2.308
   44DPPC   C21 2171   5.635   1.910   2.454
   44DPPC   C22 2172   5.786   1.907   2.482
   44DPPC   C23 2173   5.816   1.888   2.631
   44DPPC   C24 2174   5.757   1.763   2.696
   44DPPC   C25 2175   5.772   1.763   2.848
   44DPPC   C26 2176   5.897   1.693   2.901
   44DPPC   C27 2177   5.881   1.660   3.049
   44DPPC   C28 2178   5.981   1.549   3.085
   44DPPC   C29 2179   5.982   1.508   3.232
   44DPPC   C30 2180   6.099   1.411   3.249
   44DPPC   C31 2181   6.112   1.362   3.393
   44DPPC   C32 2182   5.132   2.326   1.885
   44DPPC   O33 2183   5.067   2.417   1.974
   44DPPC   C34 2184   5.117   2.543   1.981
   44DPPC   O35 2185   5.208   2.584   1.909
   44DPPC   C36 2186   5.047   2.631   2.085
   44DPPC   C37 2187   5.126   2.756   2.123
   44DPPC   C38 2188   5.226   2.708   2.228
   44DPPC   C39 2189   5.154   2.690   2.362
   44DPPC   C40 2190   5.264   2.643   2.457
   44DPPC   C41 2191   5.198   2.609   2.591
   44DPPC   C42 2192   5.312   2.579   2.689
   44DPPC   C43 2193   5.254   2.507   2.811
   44DPPC   C44 2194   5.367   2.481   2.910
   44DPPC   C45 2195   5.314   2.425   3.042
   44DPPC   C46 2196   5.423   2.437   3.149
   44DPPC   C47 2197   5.378   2.351   3.268
   44DPPC   C48 2198   5.489   2.381   3.369
   44DPPC   C49 2199   5.618   2.346   3.295
   44DPPC   C50 2200   5.734   2.332   3.394
   45DPPC    C1 2201   0.267   4.279   1.371
   45DPPC    C2 2202   0.307   4.340   1.146
   45DPPC    C3 2203   0.486   4.314   1.300
   45DPPC    N4 2204   0.357   4.257   1.257
   45DPPC    C5 2205   0.374   4.114   1.226
   45DPPC    C6 2206   0.398   4.021   1.345
   45DPPC    O7 2207   0.535   3.985   1.368
   45DPPC    P8 2208   0.543   3.883   1.492
   45DPPC    O9 2209   0.689   3.860   1.490
   45DPPC   O10 2210   0.441   3.783   1.451
   45DPPC   O11 2211   0.492   3.956   1.625
   45DPPC   C12 2212   0.604   3.976   1.711
   45DPPC   C13 2213   0.581   4.076   1.825
   45DPPC   O14 2214   0.676   4.071   1.932
   45DPPC   C15 2215   0.773   4.167   1.929
   45DPPC   O16 2216   0.837   4.185   1.826
   45DPPC   C17 2217   0.825   4.189   2.071
   45DPPC   C18 2218   0.726   4.282   2.142
   45DPPC   C19 2219   0.755   4.303   2.291
   45DPPC   C20 2220   0.649   4.400   2.343
   45DPPC   C21 2221   0.685   4.495   2.457
   45DPPC   C22 2222   0.570   4.596   2.467
   45DPPC   C23 2223   0.435   4.532   2.497
   45DPPC   C24 2224   0.322   4.635   2.491
   45DPPC   C25 2225   0.216   4.560   2.572
   45DPPC   C26 2226   0.098   4.657   2.579
   45DPPC   C27 2227   0.001   4.604   2.685
   45DPPC   C28 2228   0.077   4.559   2.810
   45DPPC   C29 2229  -0.009   4.515   2.929
   45DPPC   C30 2230   0.073   4.480   3.053
   45DPPC   C31 2231  -0.001   4.388   3.150
   45DPPC   C32 2232   0.437   4.055   1.871
   45DPPC   O33 2233   0.399   4.164   1.956
   45DPPC   C34 2234   0.271   4.159   2.002
   45DPPC   O35 2235   0.190   4.082   1.951
   45DPPC   C36 2236   0.241   4.258   2.115
   45DPPC   C37 2237   0.144   4.195   2.215
   45DPPC   C38 2238   0.159   4.273   2.345
   45DPPC   C39 2239   0.065   4.214   2.451
   45DPPC   C40 2240   0.100   4.073   2.499
   45DPPC   C41 2241  -0.002   4.027   2.603
   45DPPC   C42 2242  -0.027   4.101   2.735
   45DPPC   C43 2243  -0.126   4.011   2.809
   45DPPC   C44 2244  -0.063   3.871   2.808
   45DPPC   C45 2245  -0.172   3.773   2.854
   45DPPC   C46 2246  -0.220   3.812   2.994
   45DPPC   C47 2247  -0.317   3.714   3.061
   45DPPC   C48 2248  -0.458   3.715   3.001
   45DPPC   C49 2249  -0.531   3.584   3.029
   45DPPC   C50 2250  -0.662   3.567   2.951
   46DPPC    C1 2251   9.385   1.702   1.267
   46DPPC    C2 2252   9.390   1.758   1.483
   46DPPC    C3 2253   9.597   1.748   1.345
   46DPPC    N4 2254   9.458   1.792   1.357
   46DPPC    C5 2255   9.444   1.932   1.315
   46DPPC    C6 2256   9.426   2.054   1.406
   46DPPC    O7 2257   9.309   2.062   1.488
   46DPPC    P8 2258   9.302   2.207   1.558
   46DPPC    O9 2259   9.166   2.235   1.611
   46DPPC   O10 2260   9.383   2.303   1.481
   46DPPC   O11 2261   9.397   2.179   1.685
   46DPPC   C12 2262   9.331   2.108   1.790
   46DPPC   C13 2263   9.436   2.090   1.899
   46DPPC   O14 2264   9.422   1.970   1.977
   46DPPC   C15 2265   9.475   1.857   1.923
   46DPPC   O16 2266   9.511   1.848   1.806
   46DPPC   C17 2267   9.475   1.737   2.018
   46DPPC   C18 2268   9.408   1.754   2.155
   46DPPC   C19 2269   9.357   1.623   2.215
   46DPPC   C20 2270   9.305   1.651   2.356
   46DPPC   C21 2271   9.260   1.520   2.422
   46DPPC   C22 2272   9.179   1.536   2.551
   46DPPC   C23 2273   9.139   1.396   2.597
   46DPPC   C24 2274   9.041   1.373   2.712
   46DPPC   C25 2275   9.088   1.431   2.846
   46DPPC   C26 2276   8.998   1.374   2.956
   46DPPC   C27 2277   8.977   1.483   3.060
   46DPPC   C28 2278   9.115   1.503   3.122
   46DPPC   C29 2279   9.099   1.581   3.253
   46DPPC   C30 2280   8.996   1.517   3.346
   46DPPC   C31 2281   8.991   1.589   3.482
   46DPPC   C32 2282   9.443   2.223   1.972
   46DPPC   O33 2283   9.325   2.261   2.043
   46DPPC   C34 2284   9.325   2.385   2.098
   46DPPC   O35 2285   9.424   2.454   2.071
   46DPPC   C36 2286   9.196   2.437   2.162
   46DPPC   C37 2287   9.183   2.381   2.303
   46DPPC   C38 2288   9.107   2.498   2.367
   46DPPC   C39 2289   9.084   2.466   2.514
   46DPPC   C40 2290   8.947   2.402   2.541
   46DPPC   C41 2291   8.926   2.352   2.684
   46DPPC   C42 2292   8.800   2.266   2.696
   46DPPC   C43 2293   8.767   2.221   2.838
   46DPPC   C44 2294   8.640   2.137   2.859
   46DPPC   C45 2295   8.609   2.121   3.008
   46DPPC   C46 2296   8.467   2.129   3.065
   46DPPC   C47 2297   8.454   2.113   3.217
   46DPPC   C48 2298   8.542   2.225   3.274
   46DPPC   C49 2299   8.529   2.218   3.426
   46DPPC   C50 2300   8.643   2.298   3.489
   47DPPC    C1 2301   7.710   2.002   1.300
   47DPPC    C2 2302   7.725   1.833   1.136
   47DPPC    C3 2303   7.776   1.786   1.364
   47DPPC    N4 2304   7.685   1.860   1.275
   47DPPC    C5 2305   7.543   1.822   1.275
   47DPPC    C6 2306   7.484   1.761   1.403
   47DPPC    O7 2307   7.475   1.837   1.524
   47DPPC    P8 2308   7.457   1.753   1.660
   47DPPC    O9 2309   7.409   1.623   1.608
   47DPPC   O10 2310   7.376   1.833   1.754
   47DPPC   O11 2311   7.614   1.750   1.691
   47DPPC   C12 2312   7.654   1.694   1.817
   47DPPC   C13 2313   7.785   1.748   1.875
   47DPPC   O14 2314   7.852   1.659   1.965
   47DPPC   C15 2315   7.913   1.549   1.913
   47DPPC   O16 2316   7.937   1.534   1.794
   47DPPC   C17 2317   7.939   1.436   2.013
   47DPPC   C18 2318   7.845   1.318   1.988
   47DPPC   C19 2319   7.842   1.237   2.118
   47DPPC   C20 2320   7.792   1.318   2.238
   47DPPC   C21 2321   7.654   1.377   2.208
   47DPPC   C22 2322   7.607   1.448   2.334
   47DPPC   C23 2323   7.679   1.580   2.360
   47DPPC   C24 2324   7.589   1.655   2.458
   47DPPC   C25 2325   7.451   1.692   2.402
   47DPPC   C26 2326   7.376   1.766   2.513
   47DPPC   C27 2327   7.380   1.703   2.653
   47DPPC   C28 2328   7.315   1.801   2.751
   47DPPC   C29 2329   7.298   1.727   2.884
   47DPPC   C30 2330   7.207   1.798   2.984
   47DPPC   C31 2331   7.191   1.731   3.121
   47DPPC   C32 2332   7.746   1.885   1.933
   47DPPC   O33 2333   7.617   1.890   1.995
   47DPPC   C34 2334   7.561   2.006   2.037
   47DPPC   O35 2335   7.613   2.118   2.029
   47DPPC   C36 2336   7.435   1.977   2.119
   47DPPC   C37 2337   7.418   2.044   2.255
   47DPPC   C38 2338   7.270   2.055   2.289
   47DPPC   C39 2339   7.242   2.129   2.420
   47DPPC   C40 2340   7.103   2.095   2.473
   47DPPC   C41 2341   7.072   1.948   2.501
   47DPPC   C42 2342   6.940   1.931   2.576
   47DPPC   C43 2343   6.951   1.790   2.636
   47DPPC   C44 2344   6.827   1.786   2.725
   47DPPC   C45 2345   6.819   1.675   2.830
   47DPPC   C46 2346   6.756   1.732   2.956
   47DPPC   C47 2347   6.792   1.641   3.074
   47DPPC   C48 2348   6.749   1.688   3.213
   47DPPC   C49 2349   6.831   1.812   3.247
   47DPPC   C50 2350   6.819   1.834   3.398
   48DPPC    C1 2351   8.631   0.477   0.870
   48DPPC    C2 2352   8.455   0.509   0.720
   48DPPC    C3 2353   8.540   0.287   0.749
   48DPPC    N4 2354   8.509   0.413   0.817
   48DPPC    C5 2355   8.425   0.398   0.936
   48DPPC    C6 2356   8.351   0.271   0.978
   48DPPC    O7 2357   8.317   0.290   1.116
   48DPPC    P8 2358   8.237   0.156   1.156
   48DPPC    O9 2359   8.299   0.039   1.089
   48DPPC   O10 2360   8.095   0.187   1.127
   48DPPC   O11 2361   8.267   0.167   1.314
   48DPPC   C12 2362   8.405   0.165   1.353
   48DPPC   C13 2363   8.407   0.209   1.500
   48DPPC   O14 2364   8.530   0.212   1.574
   48DPPC   C15 2365   8.616   0.317   1.563
   48DPPC   O16 2366   8.593   0.394   1.471
   48DPPC   C17 2367   8.751   0.325   1.635
   48DPPC   C18 2368   8.742   0.246   1.766
   48DPPC   C19 2369   8.881   0.253   1.829
   48DPPC   C20 2370   8.895   0.194   1.969
   48DPPC   C21 2371   8.808   0.267   2.072
   48DPPC   C22 2372   8.833   0.193   2.204
   48DPPC   C23 2373   8.733   0.078   2.188
   48DPPC   C24 2374   8.724  -0.016   2.307
   48DPPC   C25 2375   8.707   0.064   2.436
   48DPPC   C26 2376   8.691  -0.027   2.558
   48DPPC   C27 2377   8.545  -0.072   2.568
   48DPPC   C28 2378   8.497  -0.140   2.696
   48DPPC   C29 2379   8.370  -0.224   2.678
   48DPPC   C30 2380   8.309  -0.280   2.807
   48DPPC   C31 2381   8.208  -0.386   2.761
   48DPPC   C32 2382   8.297   0.128   1.567
   48DPPC   O33 2383   8.273   0.134   1.708
   48DPPC   C34 2384   8.206   0.242   1.753
   48DPPC   O35 2385   8.190   0.335   1.674
   48DPPC   C36 2386   8.161   0.248   1.899
   48DPPC   C37 2387   8.270   0.272   2.004
   48DPPC   C38 2388   8.202   0.285   2.140
   48DPPC   C39 2389   8.315   0.306   2.240
   48DPPC   C40 2390   8.265   0.299   2.385
   48DPPC   C41 2391   8.200   0.429   2.430
   48DPPC   C42 2392   8.166   0.414   2.578
   48DPPC   C43 2393   8.143   0.552   2.640
   48DPPC   C44 2394   8.091   0.555   2.784
   48DPPC   C45 2395   8.086   0.702   2.826
   48DPPC   C46 2396   8.063   0.729   2.975
   48DPPC   C47 2397   8.171   0.657   3.056
   48DPPC   C48 2398   8.177   0.686   3.207
   48DPPC   C49 2399   8.215   0.831   3.234
   48DPPC   C50 2400   8.223   0.848   3.386
   49DPPC    C1 2401   4.320   7.309   2.265
   49DPPC    C2 2402   4.253   7.320   2.503
   49DPPC    C3 2403   4.280   7.509   2.371
   49DPPC    N4 2404   4.233   7.370   2.366
   49DPPC    C5 2405   4.095   7.374   2.314
   49DPPC    C6 2406   4.025   7.241   2.284
   49DPPC    O7 2407   3.896   7.264   2.228
   49DPPC    P8 2408   3.849   7.170   2.106
   49DPPC    O9 2409   3.968   7.176   2.018
   49DPPC   O10 2410   3.724   7.240   2.068
   49DPPC   O11 2411   3.850   7.043   2.204
   49DPPC   C12 2412   3.724   6.975   2.201
   49DPPC   C13 2413   3.720   6.847   2.286
   49DPPC   O14 2414   3.604   6.764   2.275
   49DPPC   C15 2415   3.587   6.689   2.163
   49DPPC   O16 2416   3.665   6.690   2.068
   49DPPC   C17 2417   3.474   6.586   2.174
   49DPPC   C18 2418   3.533   6.464   2.245
   49DPPC   C19 2419   3.427   6.357   2.273
   49DPPC   C20 2420   3.325   6.399   2.379
   49DPPC   C21 2421   3.215   6.293   2.389
   49DPPC   C22 2422   3.120   6.320   2.506
   49DPPC   C23 2423   2.994   6.233   2.497
   49DPPC   C24 2424   3.014   6.081   2.499
   49DPPC   C25 2425   2.885   6.012   2.545
   49DPPC   C26 2426   2.897   5.861   2.525
   49DPPC   C27 2427   2.799   5.773   2.603
   49DPPC   C28 2428   2.829   5.624   2.583
   49DPPC   C29 2429   2.731   5.541   2.667
   49DPPC   C30 2430   2.744   5.540   2.819
   49DPPC   C31 2431   2.754   5.396   2.869
   49DPPC   C32 2432   3.763   6.899   2.423
   49DPPC   O33 2433   3.663   6.985   2.479
   49DPPC   C34 2434   3.690   7.034   2.603
   49DPPC   O35 2435   3.790   7.006   2.669
   49DPPC   C36 2436   3.564   7.093   2.667
   49DPPC   C37 2437   3.561   7.243   2.639
   49DPPC   C38 2438   3.449   7.307   2.722
   49DPPC   C39 2439   3.405   7.440   2.661
   49DPPC   C40 2440   3.297   7.506   2.748
   49DPPC   C41 2441   3.166   7.428   2.741
   49DPPC   C42 2442   3.052   7.479   2.830
   49DPPC   C43 2443   2.931   7.387   2.810
   49DPPC   C44 2444   2.803   7.460   2.851
   49DPPC   C45 2445   2.807   7.500   2.999
   49DPPC   C46 2446   2.671   7.557   3.040
   49DPPC   C47 2447   2.560   7.455   3.015
   49DPPC   C48 2448   2.424   7.511   3.059
   49DPPC   C49 2449   2.298   7.438   3.013
   49DPPC   C50 2450   2.301   7.420   2.862
   50DPPC    C1 2451   5.598   1.896   1.457
   50DPPC    C2 2452   5.647   1.710   1.296
   50DPPC    C3 2453   5.808   1.850   1.379
   50DPPC    N4 2454   5.683   1.783   1.419
   50DPPC    C5 2455   5.715   1.677   1.514
   50DPPC    C6 2456   5.608   1.619   1.607
   50DPPC    O7 2457   5.661   1.513   1.686
   50DPPC    P8 2458   5.538   1.412   1.709
   50DPPC    O9 2459   5.624   1.302   1.756
   50DPPC   O10 2460   5.470   1.401   1.577
   50DPPC   O11 2461   5.467   1.501   1.823
   50DPPC   C12 2462   5.524   1.465   1.949
   50DPPC   C13 2463   5.448   1.524   2.068
   50DPPC   O14 2464   5.497   1.482   2.196
   50DPPC   C15 2465   5.594   1.550   2.263
   50DPPC   O16 2466   5.669   1.628   2.204
   50DPPC   C17 2467   5.652   1.478   2.385
   50DPPC   C18 2468   5.559   1.500   2.504
   50DPPC   C19 2469   5.613   1.414   2.618
   50DPPC   C20 2470   5.529   1.422   2.745
   50DPPC   C21 2471   5.608   1.373   2.866
   50DPPC   C22 2472   5.549   1.402   3.004
   50DPPC   C23 2473   5.635   1.342   3.115
   50DPPC   C24 2474   5.569   1.380   3.248
   50DPPC   C25 2475   5.430   1.315   3.256
   50DPPC   C26 2476   5.346   1.382   3.364
   50DPPC   C27 2477   5.288   1.517   3.323
   50DPPC   C28 2478   5.198   1.594   3.420
   50DPPC   C29 2479   5.198   1.741   3.380
   50DPPC   C30 2480   5.125   1.818   3.490
   50DPPC   C31 2481   5.145   1.968   3.473
   50DPPC   C32 2482   5.298   1.511   2.042
   50DPPC   O33 2483   5.213   1.591   2.126
   50DPPC   C34 2484   5.186   1.549   2.252
   50DPPC   O35 2485   5.157   1.429   2.262
   50DPPC   C36 2486   5.104   1.657   2.323
   50DPPC   C37 2487   5.168   1.707   2.452
   50DPPC   C38 2488   5.101   1.829   2.515
   50DPPC   C39 2489   4.958   1.794   2.557
   50DPPC   C40 2490   4.908   1.933   2.598
   50DPPC   C41 2491   4.759   1.942   2.634
   50DPPC   C42 2492   4.727   1.836   2.740
   50DPPC   C43 2493   4.634   1.872   2.856
   50DPPC   C44 2494   4.617   1.749   2.944
   50DPPC   C45 2495   4.544   1.769   3.077
   50DPPC   C46 2496   4.525   1.632   3.143
   50DPPC   C47 2497   4.423   1.634   3.257
   50DPPC   C48 2498   4.490   1.708   3.373
   50DPPC   C49 2499   4.391   1.732   3.487
   50DPPC   C50 2500   4.445   1.803   3.611
   51DPPC    C1 2501   4.109   5.604   1.912
   51DPPC    C2 2502   4.308   5.720   1.906
   51DPPC    C3 2503   4.144   5.774   1.747
   51DPPC    N4 2504   4.163   5.738   1.889
   51DPPC    C5 2505   4.118   5.835   1.990
   51DPPC    C6 2506   3.972   5.878   1.975
   51DPPC    O7 2507   3.876   5.782   2.020
   51DPPC    P8 2508   3.730   5.830   1.971
   51DPPC    O9 2509   3.643   5.714   1.942
   51DPPC   O10 2510   3.732   5.929   1.861
   51DPPC   O11 2511   3.678   5.907   2.103
   51DPPC   C12 2512   3.688   5.818   2.214
   51DPPC   C13 2513   3.799   5.858   2.312
   51DPPC   O14 2514   3.833   5.751   2.401
   51DPPC   C15 2515   3.954   5.689   2.406
   51DPPC   O16 2516   4.043   5.697   2.322
   51DPPC   C17 2517   3.954   5.574   2.507
   51DPPC   C18 2518   3.995   5.629   2.644
   51DPPC   C19 2519   4.033   5.505   2.725
   51DPPC   C20 2520   4.067   5.569   2.860
   51DPPC   C21 2521   4.046   5.482   2.984
   51DPPC   C22 2522   4.125   5.352   2.964
   51DPPC   C23 2523   4.122   5.263   3.088
   51DPPC   C24 2524   4.183   5.124   3.064
   51DPPC   C25 2525   4.248   5.069   3.191
   51DPPC   C26 2526   4.306   4.928   3.183
   51DPPC   C27 2527   4.404   4.912   3.300
   51DPPC   C28 2528   4.483   4.783   3.276
   51DPPC   C29 2529   4.390   4.662   3.282
   51DPPC   C30 2530   4.471   4.534   3.263
   51DPPC   C31 2531   4.530   4.523   3.122
   51DPPC   C32 2532   3.772   5.997   2.370
   51DPPC   O33 2533   3.644   6.002   2.436
   51DPPC   C34 2534   3.607   6.115   2.501
   51DPPC   O35 2535   3.683   6.210   2.518
   51DPPC   C36 2536   3.468   6.120   2.566
   51DPPC   C37 2537   3.501   6.096   2.714
   51DPPC   C38 2538   3.379   6.073   2.803
   51DPPC   C39 2539   3.275   6.185   2.807
   51DPPC   C40 2540   3.165   6.173   2.913
   51DPPC   C41 2541   3.233   6.143   3.047
   51DPPC   C42 2542   3.135   6.157   3.163
   51DPPC   C43 2543   3.190   6.080   3.283
   51DPPC   C44 2544   3.148   6.139   3.418
   51DPPC   C45 2545   3.202   6.048   3.528
   51DPPC   C46 2546   3.139   6.098   3.658
   51DPPC   C47 2547   2.995   6.051   3.638
   51DPPC   C48 2548   2.909   6.109   3.751
   51DPPC   C49 2549   2.768   6.050   3.749
   51DPPC   C50 2550   2.705   6.109   3.875
   52DPPC    C1 2551   0.844   6.028   1.444
   52DPPC    C2 2552   0.898   6.102   1.654
   52DPPC    C3 2553   1.074   6.060   1.506
   52DPPC    N4 2554   0.939   6.117   1.514
   52DPPC    C5 2555   0.902   6.254   1.474
   52DPPC    C6 2556   0.990   6.366   1.528
   52DPPC    O7 2557   0.960   6.404   1.663
   52DPPC    P8 2558   1.068   6.492   1.743
   52DPPC    O9 2559   0.995   6.525   1.868
   52DPPC   O10 2560   1.118   6.597   1.651
   52DPPC   O11 2561   1.173   6.371   1.746
   52DPPC   C12 2562   1.148   6.293   1.864
   52DPPC   C13 2563   1.221   6.161   1.838
   52DPPC   O14 2564   1.164   6.062   1.924
   52DPPC   C15 2565   1.159   5.928   1.898
   52DPPC   O16 2566   1.210   5.881   1.796
   52DPPC   C17 2567   1.085   5.854   2.009
   52DPPC   C18 2568   0.940   5.816   1.976
   52DPPC   C19 2569   0.886   5.728   2.088
   52DPPC   C20 2570   0.737   5.708   2.064
   52DPPC   C21 2571   0.689   5.571   2.114
   52DPPC   C22 2572   0.681   5.565   2.267
   52DPPC   C23 2573   0.642   5.424   2.310
   52DPPC   C24 2574   0.613   5.408   2.459
   52DPPC   C25 2575   0.498   5.493   2.514
   52DPPC   C26 2576   0.468   5.475   2.662
   52DPPC   C27 2577   0.343   5.559   2.690
   52DPPC   C28 2578   0.297   5.546   2.835
   52DPPC   C29 2579   0.188   5.651   2.860
   52DPPC   C30 2580   0.161   5.643   3.010
   52DPPC   C31 2581   0.046   5.739   3.042
   52DPPC   C32 2582   1.371   6.185   1.853
   52DPPC   O33 2583   1.415   6.229   1.982
   52DPPC   C34 2584   1.545   6.246   2.016
   52DPPC   O35 2585   1.633   6.241   1.930
   52DPPC   C36 2586   1.566   6.309   2.154
   52DPPC   C37 2587   1.683   6.251   2.234
   52DPPC   C38 2588   1.676   6.099   2.218
   52DPPC   C39 2589   1.808   6.034   2.259
   52DPPC   C40 2590   1.827   6.062   2.408
   52DPPC   C41 2591   1.948   5.990   2.467
   52DPPC   C42 2592   2.018   6.079   2.570
   52DPPC   C43 2593   1.940   6.103   2.699
   52DPPC   C44 2594   1.899   5.968   2.758
   52DPPC   C45 2595   1.806   5.986   2.878
   52DPPC   C46 2596   1.769   5.847   2.929
   52DPPC   C47 2597   1.771   5.846   3.082
   52DPPC   C48 2598   1.903   5.905   3.131
   52DPPC   C49 2599   1.922   5.944   3.278
   52DPPC   C50 2600   2.070   5.982   3.282
   53DPPC    C1 2601   4.734   3.245   1.338
   53DPPC    C2 2602   4.517   3.155   1.409
   53DPPC    C3 2603   4.601   3.114   1.194
   53DPPC    N4 2604   4.641   3.131   1.334
   53DPPC    C5 2605   4.707   3.008   1.382
   53DPPC    C6 2606   4.756   3.006   1.527
   53DPPC    O7 2607   4.831   2.886   1.548
   53DPPC    P8 2608   4.788   2.842   1.697
   53DPPC    O9 2609   4.855   2.712   1.722
   53DPPC   O10 2610   4.643   2.865   1.713
   53DPPC   O11 2611   4.861   2.976   1.749
   53DPPC   C12 2612   4.959   2.960   1.852
   53DPPC   C13 2613   5.041   3.084   1.886
   53DPPC   O14 2614   5.158   3.058   1.964
   53DPPC   C15 2615   5.259   3.149   1.967
   53DPPC   O16 2616   5.255   3.251   1.898
   53DPPC   C17 2617   5.353   3.146   2.088
   53DPPC   C18 2618   5.272   3.122   2.215
   53DPPC   C19 2619   5.173   3.235   2.243
   53DPPC   C20 2620   5.081   3.207   2.362
   53DPPC   C21 2621   5.015   3.069   2.350
   53DPPC   C22 2622   4.963   3.020   2.485
   53DPPC   C23 2623   4.883   3.129   2.558
   53DPPC   C24 2624   4.869   3.096   2.707
   53DPPC   C25 2625   4.778   3.195   2.779
   53DPPC   C26 2626   4.783   3.157   2.928
   53DPPC   C27 2627   4.678   3.238   3.004
   53DPPC   C28 2628   4.686   3.199   3.152
   53DPPC   C29 2629   4.676   3.054   3.202
   53DPPC   C30 2630   4.672   3.052   3.355
   53DPPC   C31 2631   4.635   2.914   3.411
   53DPPC   C32 2632   4.946   3.197   1.927
   53DPPC   O33 2633   4.843   3.176   2.024
   53DPPC   C34 2634   4.761   3.283   2.043
   53DPPC   O35 2635   4.793   3.394   2.001
   53DPPC   C36 2636   4.632   3.248   2.117
   53DPPC   C37 2637   4.653   3.224   2.267
   53DPPC   C38 2638   4.513   3.199   2.323
   53DPPC   C39 2639   4.523   3.208   2.475
   53DPPC   C40 2640   4.400   3.160   2.552
   53DPPC   C41 2641   4.422   3.162   2.703
   53DPPC   C42 2642   4.288   3.137   2.771
   53DPPC   C43 2643   4.313   3.160   2.920
   53DPPC   C44 2644   4.190   3.106   2.993
   53DPPC   C45 2645   4.239   3.128   3.137
   53DPPC   C46 2646   4.133   3.095   3.242
   53DPPC   C47 2647   4.210   3.129   3.369
   53DPPC   C48 2648   4.149   3.075   3.499
   53DPPC   C49 2649   4.252   3.089   3.611
   53DPPC   C50 2650   4.200   3.017   3.736
   54DPPC    C1 2651   6.279   0.238   1.816
   54DPPC    C2 2652   6.214   0.168   1.598
   54DPPC    C3 2653   6.384   0.342   1.620
   54DPPC    N4 2654   6.327   0.219   1.678
   54DPPC    C5 2655   6.420   0.106   1.679
   54DPPC    C6 2656   6.559   0.124   1.740
   54DPPC    O7 2657   6.566   0.139   1.882
   54DPPC    P8 2658   6.696   0.220   1.932
   54DPPC    O9 2659   6.665   0.352   1.872
   54DPPC   O10 2660   6.805   0.129   1.892
   54DPPC   O11 2661   6.660   0.209   2.088
   54DPPC   C12 2662   6.537   0.280   2.107
   54DPPC   C13 2663   6.515   0.317   2.254
   54DPPC   O14 2664   6.591   0.436   2.284
   54DPPC   C15 2665   6.548   0.559   2.244
   54DPPC   O16 2666   6.443   0.573   2.182
   54DPPC   C17 2667   6.648   0.668   2.283
   54DPPC   C18 2668   6.709   0.648   2.421
   54DPPC   C19 2669   6.610   0.643   2.538
   54DPPC   C20 2670   6.660   0.616   2.680
   54DPPC   C21 2671   6.552   0.599   2.787
   54DPPC   C22 2672   6.606   0.574   2.927
   54DPPC   C23 2673   6.491   0.572   3.028
   54DPPC   C24 2674   6.525   0.550   3.175
   54DPPC   C25 2675   6.396   0.524   3.252
   54DPPC   C26 2676   6.300   0.643   3.240
   54DPPC   C27 2677   6.353   0.763   3.319
   54DPPC   C28 2678   6.234   0.851   3.358
   54DPPC   C29 2679   6.269   0.954   3.466
   54DPPC   C30 2680   6.168   0.959   3.581
   54DPPC   C31 2681   6.223   1.036   3.701
   54DPPC   C32 2682   6.549   0.187   2.327
   54DPPC   O33 2683   6.533   0.186   2.469
   54DPPC   C34 2684   6.557   0.064   2.524
   54DPPC   O35 2685   6.632  -0.007   2.458
   54DPPC   C36 2686   6.516   0.022   2.666
   54DPPC   C37 2687   6.533   0.130   2.773
   54DPPC   C38 2688   6.578   0.059   2.901
   54DPPC   C39 2689   6.583   0.169   3.008
   54DPPC   C40 2690   6.644   0.115   3.137
   54DPPC   C41 2691   6.655   0.223   3.244
   54DPPC   C42 2692   6.697   0.157   3.376
   54DPPC   C43 2693   6.706   0.258   3.491
   54DPPC   C44 2694   6.728   0.186   3.624
   54DPPC   C45 2695   6.740   0.281   3.744
   54DPPC   C46 2696   6.770   0.203   3.872
   54DPPC   C47 2697   6.753   0.291   3.996
   54DPPC   C48 2698   6.799   0.233   4.129
   54DPPC   C49 2699   6.948   0.199   4.137
   54DPPC   C50 2700   7.010   0.206   4.277
   55DPPC    C1 2701   0.306   7.117   1.763
   55DPPC    C2 2702   0.418   7.313   1.838
   55DPPC    C3 2703   0.451   7.221   1.613
   55DPPC    N4 2704   0.356   7.248   1.722
   55DPPC    C5 2705   0.242   7.334   1.684
   55DPPC    C6 2706   0.162   7.325   1.554
   55DPPC    O7 2707   0.065   7.429   1.542
   55DPPC    P8 2708  -0.012   7.422   1.401
   55DPPC    O9 2709   0.071   7.332   1.318
   55DPPC   O10 2710  -0.063   7.555   1.360
   55DPPC   O11 2711  -0.134   7.341   1.468
   55DPPC   C12 2712  -0.193   7.424   1.569
   55DPPC   C13 2713  -0.276   7.332   1.659
   55DPPC   O14 2714  -0.359   7.394   1.758
   55DPPC   C15 2715  -0.491   7.362   1.749
   55DPPC   O16 2716  -0.544   7.312   1.650
   55DPPC   C17 2717  -0.584   7.398   1.865
   55DPPC   C18 2718  -0.598   7.296   1.978
   55DPPC   C19 2719  -0.628   7.153   1.933
   55DPPC   C20 2720  -0.609   7.066   2.058
   55DPPC   C21 2721  -0.615   6.917   2.024
   55DPPC   C22 2722  -0.590   6.835   2.151
   55DPPC   C23 2723  -0.703   6.868   2.249
   55DPPC   C24 2724  -0.657   6.827   2.389
   55DPPC   C25 2725  -0.540   6.902   2.454
   55DPPC   C26 2726  -0.512   6.852   2.596
   55DPPC   C27 2727  -0.386   6.909   2.661
   55DPPC   C28 2728  -0.397   6.863   2.807
   55DPPC   C29 2729  -0.272   6.874   2.894
   55DPPC   C30 2730  -0.294   6.822   3.037
   55DPPC   C31 2731  -0.394   6.922   3.095
   55DPPC   C32 2732  -0.166   7.244   1.720
   55DPPC   O33 2733  -0.195   7.150   1.824
   55DPPC   C34 2734  -0.087   7.085   1.875
   55DPPC   O35 2735   0.023   7.084   1.821
   55DPPC   C36 2736  -0.116   6.978   1.981
   55DPPC   C37 2737  -0.169   7.040   2.110
   55DPPC   C38 2738  -0.082   7.148   2.175
   55DPPC   C39 2739  -0.143   7.171   2.314
   55DPPC   C40 2740  -0.290   7.214   2.307
   55DPPC   C41 2741  -0.331   7.226   2.454
   55DPPC   C42 2742  -0.226   7.297   2.539
   55DPPC   C43 2743  -0.262   7.315   2.687
   55DPPC   C44 2744  -0.150   7.392   2.756
   55DPPC   C45 2745  -0.156   7.379   2.908
   55DPPC   C46 2746  -0.139   7.232   2.948
   55DPPC   C47 2747  -0.124   7.217   3.099
   55DPPC   C48 2748  -0.253   7.275   3.158
   55DPPC   C49 2749  -0.256   7.233   3.305
   55DPPC   C50 2750  -0.155   7.308   3.392
   56DPPC    C1 2751   4.260   1.850   2.355
   56DPPC    C2 2752   4.311   1.796   2.578
   56DPPC    C3 2753   4.341   1.635   2.400
   56DPPC    N4 2754   4.355   1.776   2.439
   56DPPC    C5 2755   4.491   1.829   2.420
   56DPPC    C6 2756   4.568   1.796   2.292
   56DPPC    O7 2757   4.682   1.882   2.286
   56DPPC    P8 2758   4.736   1.893   2.135
   56DPPC    O9 2759   4.614   1.903   2.052
   56DPPC   O10 2760   4.842   1.793   2.111
   56DPPC   O11 2761   4.808   2.037   2.141
   56DPPC   C12 2762   4.878   2.053   2.264
   56DPPC   C13 2763   4.968   2.176   2.271
   56DPPC   O14 2764   5.063   2.167   2.378
   56DPPC   C15 2765   5.157   2.263   2.400
   56DPPC   O16 2766   5.172   2.355   2.320
   56DPPC   C17 2767   5.221   2.256   2.539
   56DPPC   C18 2768   5.371   2.232   2.517
   56DPPC   C19 2769   5.440   2.223   2.653
   56DPPC   C20 2770   5.418   2.099   2.739
   56DPPC   C21 2771   5.494   2.119   2.870
   56DPPC   C22 2772   5.484   2.006   2.972
   56DPPC   C23 2773   5.567   2.029   3.099
   56DPPC   C24 2774   5.593   1.902   3.179
   56DPPC   C25 2775   5.692   1.944   3.288
   56DPPC   C26 2776   5.709   1.814   3.367
   56DPPC   C27 2777   5.788   1.832   3.497
   56DPPC   C28 2778   5.704   1.917   3.592
   56DPPC   C29 2779   5.768   1.950   3.726
   56DPPC   C30 2780   5.658   1.978   3.829
   56DPPC   C31 2781   5.567   2.074   3.752
   56DPPC   C32 2782   4.878   2.300   2.259
   56DPPC   O33 2783   4.763   2.286   2.342
   56DPPC   C34 2784   4.662   2.375   2.321
   56DPPC   O35 2785   4.680   2.471   2.246
   56DPPC   C36 2786   4.519   2.337   2.361
   56DPPC   C37 2787   4.527   2.264   2.496
   56DPPC   C38 2788   4.394   2.210   2.547
   56DPPC   C39 2789   4.406   2.212   2.699
   56DPPC   C40 2790   4.447   2.354   2.740
   56DPPC   C41 2791   4.428   2.352   2.892
   56DPPC   C42 2792   4.535   2.264   2.956
   56DPPC   C43 2793   4.506   2.264   3.106
   56DPPC   C44 2794   4.587   2.166   3.191
   56DPPC   C45 2795   4.540   2.161   3.336
   56DPPC   C46 2796   4.544   2.303   3.394
   56DPPC   C47 2797   4.520   2.314   3.545
   56DPPC   C48 2798   4.503   2.458   3.593
   56DPPC   C49 2799   4.496   2.436   3.744
   56DPPC   C50 2800   4.618   2.367   3.805
   57DPPC    C1 2801   5.767   7.001   2.044
   57DPPC    C2 2802   5.576   6.883   2.099
   57DPPC    C3 2803   5.661   6.865   1.869
   57DPPC    N4 2804   5.694   6.877   2.012
   57DPPC    C5 2805   5.787   6.769   2.050
   57DPPC    C6 2806   5.738   6.624   2.038
   57DPPC    O7 2807   5.845   6.529   2.027
   57DPPC    P8 2808   5.786   6.388   1.978
   57DPPC    O9 2809   5.902   6.318   1.919
   57DPPC   O10 2810   5.665   6.416   1.899
   57DPPC   O11 2811   5.743   6.329   2.122
   57DPPC   C12 2812   5.867   6.301   2.188
   57DPPC   C13 2813   5.874   6.350   2.332
   57DPPC   O14 2814   6.001   6.304   2.383
   57DPPC   C15 2815   6.080   6.402   2.434
   57DPPC   O16 2816   6.023   6.511   2.429
   57DPPC   C17 2817   6.221   6.366   2.481
   57DPPC   C18 2818   6.226   6.319   2.626
   57DPPC   C19 2819   6.185   6.436   2.715
   57DPPC   C20 2820   6.164   6.398   2.862
   57DPPC   C21 2821   6.081   6.502   2.937
   57DPPC   C22 2822   6.067   6.455   3.082
   57DPPC   C23 2823   5.991   6.545   3.179
   57DPPC   C24 2824   6.020   6.508   3.325
   57DPPC   C25 2825   5.954   6.371   3.339
   57DPPC   C26 2826   5.971   6.304   3.476
   57DPPC   C27 2827   5.896   6.371   3.591
   57DPPC   C28 2828   5.908   6.291   3.720
   57DPPC   C29 2829   5.796   6.311   3.823
   57DPPC   C30 2830   5.816   6.260   3.966
   57DPPC   C31 2831   5.679   6.245   4.032
   57DPPC   C32 2832   5.756   6.293   2.411
   57DPPC   O33 2833   5.767   6.158   2.458
   57DPPC   C34 2834   5.649   6.096   2.483
   57DPPC   O35 2835   5.548   6.144   2.431
   57DPPC   C36 2836   5.655   5.959   2.550
   57DPPC   C37 2837   5.531   5.964   2.640
   57DPPC   C38 2838   5.545   5.868   2.758
   57DPPC   C39 2839   5.419   5.867   2.844
   57DPPC   C40 2840   5.439   5.789   2.973
   57DPPC   C41 2841   5.306   5.798   3.049
   57DPPC   C42 2842   5.317   5.742   3.191
   57DPPC   C43 2843   5.184   5.727   3.266
   57DPPC   C44 2844   5.203   5.644   3.393
   57DPPC   C45 2845   5.066   5.621   3.456
   57DPPC   C46 2846   5.090   5.539   3.583
   57DPPC   C47 2847   5.124   5.393   3.551
   57DPPC   C48 2848   5.227   5.344   3.653
   57DPPC   C49 2849   5.176   5.323   3.795
   57DPPC   C50 2850   5.290   5.322   3.898
   58DPPC    C1 2851   8.521   6.857   1.379
   58DPPC    C2 2852   8.544   7.070   1.273
   58DPPC    C3 2853   8.339   7.021   1.380
   58DPPC    N4 2854   8.484   7.000   1.387
   58DPPC    C5 2855   8.532   7.053   1.516
   58DPPC    C6 2856   8.470   7.181   1.571
   58DPPC    O7 2857   8.513   7.302   1.506
   58DPPC    P8 2858   8.390   7.405   1.507
   58DPPC    O9 2859   8.272   7.327   1.463
   58DPPC   O10 2860   8.427   7.530   1.438
   58DPPC   O11 2861   8.388   7.420   1.668
   58DPPC   C12 2862   8.474   7.527   1.708
   58DPPC   C13 2863   8.491   7.557   1.857
   58DPPC   O14 2864   8.593   7.657   1.864
   58DPPC   C15 2865   8.548   7.785   1.858
   58DPPC   O16 2866   8.432   7.820   1.836
   58DPPC   C17 2867   8.659   7.889   1.872
   58DPPC   C18 2868   8.623   7.975   1.993
   58DPPC   C19 2869   8.723   8.080   2.042
   58DPPC   C20 2870   8.688   8.139   2.178
   58DPPC   C21 2871   8.690   8.033   2.289
   58DPPC   C22 2872   8.667   8.092   2.428
   58DPPC   C23 2873   8.632   7.976   2.521
   58DPPC   C24 2874   8.648   8.008   2.670
   58DPPC   C25 2875   8.572   7.908   2.756
   58DPPC   C26 2876   8.559   7.955   2.901
   58DPPC   C27 2877   8.493   7.850   2.991
   58DPPC   C28 2878   8.515   7.868   3.141
   58DPPC   C29 2879   8.661   7.835   3.173
   58DPPC   C30 2880   8.683   7.828   3.324
   58DPPC   C31 2881   8.833   7.837   3.351
   58DPPC   C32 2882   8.526   7.422   1.919
   58DPPC   O33 2883   8.496   7.413   2.059
   58DPPC   C34 2884   8.495   7.285   2.102
   58DPPC   O35 2885   8.505   7.195   2.019
   58DPPC   C36 2886   8.498   7.267   2.254
   58DPPC   C37 2887   8.644   7.243   2.296
   58DPPC   C38 2888   8.641   7.235   2.449
   58DPPC   C39 2889   8.779   7.197   2.505
   58DPPC   C40 2890   8.803   7.254   2.645
   58DPPC   C41 2891   8.700   7.205   2.746
   58DPPC   C42 2892   8.774   7.217   2.879
   58DPPC   C43 2893   8.716   7.103   2.962
   58DPPC   C44 2894   8.760   6.966   2.910
   58DPPC   C45 2895   8.695   6.858   2.996
   58DPPC   C46 2896   8.708   6.867   3.148
   58DPPC   C47 2897   8.638   6.756   3.227
   58DPPC   C48 2898   8.694   6.734   3.368
   58DPPC   C49 2899   8.640   6.607   3.434
   58DPPC   C50 2900   8.699   6.586   3.574
   59DPPC    C1 2901   0.972   5.270   1.887
   59DPPC    C2 2902   0.798   5.102   1.900
   59DPPC    C3 2903   0.773   5.302   1.774
   59DPPC    N4 2904   0.869   5.197   1.812
   59DPPC    C5 2905   0.933   5.131   1.698
   59DPPC    C6 2906   0.856   5.022   1.624
   59DPPC    O7 2907   0.716   5.040   1.601
   59DPPC    P8 2908   0.656   4.902   1.544
   59DPPC    O9 2909   0.764   4.803   1.522
   59DPPC   O10 2910   0.547   4.927   1.446
   59DPPC   O11 2911   0.579   4.849   1.675
   59DPPC   C12 2912   0.460   4.927   1.686
   59DPPC   C13 2913   0.398   4.945   1.825
   59DPPC   O14 2914   0.462   5.021   1.928
   59DPPC   C15 2915   0.382   5.122   1.970
   59DPPC   O16 2916   0.341   5.213   1.899
   59DPPC   C17 2917   0.423   5.161   2.113
   59DPPC   C18 2918   0.316   5.185   2.219
   59DPPC   C19 2919   0.243   5.053   2.245
   59DPPC   C20 2920   0.172   5.036   2.380
   59DPPC   C21 2921   0.286   5.053   2.480
   59DPPC   C22 2922   0.243   5.044   2.627
   59DPPC   C23 2923   0.363   5.101   2.702
   59DPPC   C24 2924   0.496   5.026   2.693
   59DPPC   C25 2925   0.607   5.122   2.737
   59DPPC   C26 2926   0.743   5.052   2.734
   59DPPC   C27 2927   0.735   4.923   2.817
   59DPPC   C28 2928   0.865   4.846   2.843
   59DPPC   C29 2929   0.917   4.804   2.706
   59DPPC   C30 2930   1.051   4.731   2.709
   59DPPC   C31 2931   1.078   4.659   2.576
   59DPPC   C32 2932   0.391   4.798   1.867
   59DPPC   O33 2933   0.283   4.772   1.957
   59DPPC   C34 2934   0.252   4.640   1.970
   59DPPC   O35 2935   0.296   4.563   1.884
   59DPPC   C36 2936   0.145   4.597   2.070
   59DPPC   C37 2937   0.085   4.722   2.134
   59DPPC   C38 2938  -0.053   4.688   2.191
   59DPPC   C39 2939  -0.127   4.817   2.226
   59DPPC   C40 2940  -0.253   4.803   2.312
   59DPPC   C41 2941  -0.310   4.942   2.337
   59DPPC   C42 2942  -0.431   4.939   2.430
   59DPPC   C43 2943  -0.384   4.881   2.563
   59DPPC   C44 2944  -0.498   4.863   2.663
   59DPPC   C45 2945  -0.443   4.773   2.774
   59DPPC   C46 2946  -0.334   4.843   2.855
   59DPPC   C47 2947  -0.252   4.742   2.937
   59DPPC   C48 2948  -0.353   4.709   3.047
   59DPPC   C49 2949  -0.401   4.829   3.130
   59DPPC   C50 2950  -0.490   4.768   3.238
   60DPPC    C1 2951   6.926   4.769   1.294
   60DPPC    C2 2952   6.716   4.676   1.381
   60DPPC    C3 2953   6.844   4.814   1.509
   60DPPC    N4 2954   6.803   4.794   1.369
   60DPPC    C5 2955   6.748   4.913   1.302
   60DPPC    C6 2956   6.625   4.977   1.367
   60DPPC    O7 2957   6.606   5.113   1.326
   60DPPC    P8 2958   6.550   5.205   1.446
   60DPPC    O9 2959   6.464   5.110   1.519
   60DPPC   O10 2960   6.510   5.326   1.371
   60DPPC   O11 2961   6.690   5.233   1.521
   60DPPC   C12 2962   6.704   5.169   1.648
   60DPPC   C13 2963   6.825   5.204   1.736
   60DPPC   O14 2964   6.837   5.113   1.846
   60DPPC   C15 2965   6.929   5.013   1.833
   60DPPC   O16 2966   6.993   5.001   1.729
   60DPPC   C17 2967   6.939   4.927   1.958
   60DPPC   C18 2968   6.852   4.803   1.937
   60DPPC   C19 2969   6.859   4.705   2.054
   60DPPC   C20 2970   6.753   4.597   2.033
   60DPPC   C21 2971   6.733   4.498   2.148
   60DPPC   C22 2972   6.672   4.573   2.266
   60DPPC   C23 2973   6.667   4.471   2.380
   60DPPC   C24 2974   6.626   4.536   2.512
   60DPPC   C25 2975   6.578   4.432   2.614
   60DPPC   C26 2976   6.565   4.487   2.757
   60DPPC   C27 2977   6.495   4.388   2.851
   60DPPC   C28 2978   6.564   4.252   2.834
   60DPPC   C29 2979   6.517   4.158   2.945
   60DPPC   C30 2980   6.546   4.009   2.927
   60DPPC   C31 2981   6.542   3.934   3.061
   60DPPC   C32 2982   6.815   5.352   1.777
   60DPPC   O33 2983   6.683   5.385   1.822
   60DPPC   C34 2984   6.670   5.516   1.855
   60DPPC   O35 2985   6.750   5.601   1.816
   60DPPC   C36 2986   6.548   5.555   1.939
   60DPPC   C37 2987   6.557   5.538   2.091
   60DPPC   C38 2988   6.424   5.592   2.144
   60DPPC   C39 2989   6.449   5.676   2.270
   60DPPC   C40 2990   6.313   5.725   2.318
   60DPPC   C41 2991   6.316   5.816   2.441
   60DPPC   C42 2992   6.171   5.833   2.484
   60DPPC   C43 2993   6.161   5.925   2.606
   60DPPC   C44 2994   6.016   5.932   2.655
   60DPPC   C45 2995   6.023   6.029   2.774
   60DPPC   C46 2996   6.114   5.979   2.886
   60DPPC   C47 2997   6.115   6.056   3.019
   60DPPC   C48 2998   6.197   5.977   3.121
   60DPPC   C49 2999   6.198   6.082   3.231
   60DPPC   C50 3000   6.259   6.029   3.361
   61DPPC    C1 3001   4.048   0.256   2.213
   61DPPC    C2 3002   4.081   0.149   2.021
   61DPPC    C3 3003   3.853   0.179   2.078
   61DPPC    N4 3004   3.985   0.244   2.081
   61DPPC    C5 3005   3.981   0.371   2.008
   61DPPC    C6 3006   3.890   0.483   2.058
   61DPPC    O7 3007   3.952   0.580   2.144
   61DPPC    P8 3008   3.840   0.691   2.172
   61DPPC    O9 3009   3.714   0.636   2.226
   61DPPC   O10 3010   3.855   0.802   2.076
   61DPPC   O11 3011   3.919   0.751   2.299
   61DPPC   C12 3012   3.939   0.642   2.390
   61DPPC   C13 3013   3.977   0.688   2.530
   61DPPC   O14 3014   4.015   0.579   2.616
   61DPPC   C15 3015   4.148   0.569   2.640
   61DPPC   O16 3016   4.219   0.609   2.548
   61DPPC   C17 3017   4.194   0.460   2.737
   61DPPC   C18 3018   4.110   0.332   2.748
   61DPPC   C19 3019   4.179   0.228   2.836
   61DPPC   C20 3020   4.315   0.171   2.795
   61DPPC   C21 3021   4.324   0.034   2.862
   61DPPC   C22 3022   4.450  -0.043   2.821
   61DPPC   C23 3023   4.577   0.037   2.850
   61DPPC   C24 3024   4.703  -0.036   2.802
   61DPPC   C25 3025   4.825   0.054   2.781
   61DPPC   C26 3026   4.964  -0.001   2.813
   61DPPC   C27 3027   5.070   0.033   2.708
   61DPPC   C28 3028   5.201  -0.041   2.733
   61DPPC   C29 3029   5.187  -0.191   2.760
   61DPPC   C30 3030   5.102  -0.274   2.664
   61DPPC   C31 3031   5.113  -0.419   2.713
   61DPPC   C32 3032   3.863   0.782   2.570
   61DPPC   O33 3033   3.893   0.866   2.682
   61DPPC   C34 3034   3.795   0.949   2.727
   61DPPC   O35 3035   3.695   0.964   2.656
   61DPPC   C36 3036   3.830   1.046   2.840
   61DPPC   C37 3037   3.794   0.987   2.976
   61DPPC   C38 3038   3.821   1.094   3.081
   61DPPC   C39 3039   3.793   1.043   3.223
   61DPPC   C40 3040   3.648   0.996   3.234
   61DPPC   C41 3041   3.642   0.871   3.323
   61DPPC   C42 3042   3.494   0.832   3.328
   61DPPC   C43 3043   3.491   0.718   3.430
   61DPPC   C44 3044   3.358   0.642   3.436
   61DPPC   C45 3045   3.377   0.535   3.543
   61DPPC   C46 3046   3.415   0.589   3.681
   61DPPC   C47 3047   3.316   0.685   3.748
   61DPPC   C48 3048   3.373   0.704   3.889
   61DPPC   C49 3049   3.265   0.772   3.973
   61DPPC   C50 3050   3.295   0.764   4.122
   62DPPC    C1 3051   7.848   4.382   1.101
   62DPPC    C2 3052   7.661   4.228   1.165
   62DPPC    C3 3053   7.787   4.347   1.322
   62DPPC    N4 3054   7.732   4.355   1.186
   62DPPC    C5 3055   7.650   4.475   1.162
   62DPPC    C6 3056   7.504   4.476   1.207
   62DPPC    O7 3057   7.498   4.498   1.348
   62DPPC    P8 3058   7.351   4.481   1.411
   62DPPC    O9 3059   7.362   4.375   1.514
   62DPPC   O10 3060   7.265   4.481   1.290
   62DPPC   O11 3061   7.345   4.630   1.472
   62DPPC   C12 3062   7.437   4.639   1.580
   62DPPC   C13 3063   7.397   4.755   1.673
   62DPPC   O14 3064   7.482   4.778   1.786
   62DPPC   C15 3065   7.474   4.903   1.839
   62DPPC   O16 3066   7.461   4.999   1.763
   62DPPC   C17 3067   7.528   4.914   1.982
   62DPPC   C18 3068   7.431   4.952   2.094
   62DPPC   C19 3069   7.314   4.853   2.100
   62DPPC   C20 3070   7.262   4.878   2.242
   62DPPC   C21 3071   7.116   4.838   2.266
   62DPPC   C22 3072   7.075   4.876   2.409
   62DPPC   C23 3073   6.938   4.824   2.451
   62DPPC   C24 3074   6.895   4.866   2.591
   62DPPC   C25 3075   6.751   4.838   2.632
   62DPPC   C26 3076   6.645   4.889   2.534
   62DPPC   C27 3077   6.501   4.862   2.580
   62DPPC   C28 3078   6.383   4.877   2.483
   62DPPC   C29 3079   6.250   4.854   2.554
   62DPPC   C30 3080   6.263   4.722   2.632
   62DPPC   C31 3081   6.126   4.690   2.692
   62DPPC   C32 3082   7.247   4.746   1.701
   62DPPC   O33 3083   7.225   4.620   1.766
   62DPPC   C34 3084   7.097   4.575   1.772
   62DPPC   O35 3085   7.016   4.610   1.686
   62DPPC   C36 3086   7.082   4.453   1.863
   62DPPC   C37 3087   7.177   4.456   1.983
   62DPPC   C38 3088   7.146   4.348   2.087
   62DPPC   C39 3089   7.232   4.367   2.212
   62DPPC   C40 3090   7.178   4.308   2.343
   62DPPC   C41 3091   7.038   4.362   2.372
   62DPPC   C42 3092   6.986   4.324   2.511
   62DPPC   C43 3093   7.086   4.362   2.621
   62DPPC   C44 3094   7.025   4.336   2.758
   62DPPC   C45 3095   6.989   4.187   2.755
   62DPPC   C46 3096   6.953   4.139   2.896
   62DPPC   C47 3097   6.925   3.991   2.923
   62DPPC   C48 3098   6.886   3.976   3.070
   62DPPC   C49 3099   6.970   4.050   3.174
   62DPPC   C50 3100   6.898   4.053   3.309
   63DPPC    C1 3101   7.864   8.423   1.020
   63DPPC    C2 3102   7.839   8.200   1.004
   63DPPC    C3 3103   8.033   8.274   1.113
   63DPPC    N4 3104   7.889   8.301   1.099
   63DPPC    C5 3105   7.805   8.289   1.219
   63DPPC    C6 3106   7.865   8.341   1.350
   63DPPC    O7 3107   7.875   8.481   1.378
   63DPPC    P8 3108   7.944   8.476   1.524
   63DPPC    O9 3109   7.979   8.617   1.547
   63DPPC   O10 3110   8.048   8.371   1.512
   63DPPC   O11 3111   7.821   8.419   1.611
   63DPPC   C12 3112   7.759   8.530   1.675
   63DPPC   C13 3113   7.635   8.496   1.758
   63DPPC   O14 3114   7.563   8.611   1.803
   63DPPC   C15 3115   7.451   8.639   1.731
   63DPPC   O16 3116   7.424   8.585   1.624
   63DPPC   C17 3117   7.362   8.749   1.789
   63DPPC   C18 3118   7.433   8.823   1.903
   63DPPC   C19 3119   7.329   8.895   1.988
   63DPPC   C20 3120   7.384   8.968   2.111
   63DPPC   C21 3121   7.289   9.010   2.223
   63DPPC   C22 3122   7.352   8.986   2.361
   63DPPC   C23 3123   7.255   9.050   2.460
   63DPPC   C24 3124   7.246   9.000   2.604
   63DPPC   C25 3125   7.140   9.084   2.676
   63DPPC   C26 3126   7.092   9.029   2.810
   63DPPC   C27 3127   7.199   9.034   2.919
   63DPPC   C28 3128   7.153   8.995   3.060
   63DPPC   C29 3129   7.114   8.849   3.082
   63DPPC   C30 3130   7.077   8.823   3.229
   63DPPC   C31 3131   7.192   8.737   3.282
   63DPPC   C32 3132   7.688   8.419   1.879
   63DPPC   O33 3133   7.804   8.477   1.940
   63DPPC   C34 3134   7.853   8.407   2.046
   63DPPC   O35 3135   7.784   8.323   2.104
   63DPPC   C36 3136   7.976   8.476   2.105
   63DPPC   C37 3137   7.958   8.526   2.249
   63DPPC   C38 3138   7.888   8.662   2.254
   63DPPC   C39 3139   7.864   8.701   2.400
   63DPPC   C40 3140   7.795   8.837   2.415
   63DPPC   C41 3141   7.780   8.879   2.561
   63DPPC   C42 3142   7.710   9.015   2.562
   63DPPC   C43 3143   7.672   9.063   2.702
   63DPPC   C44 3144   7.600   9.197   2.713
   63DPPC   C45 3145   7.622   9.269   2.846
   63DPPC   C46 3146   7.550   9.185   2.951
   63DPPC   C47 3147   7.558   9.254   3.088
   63DPPC   C48 3148   7.476   9.188   3.199
   63DPPC   C49 3149   7.487   9.267   3.329
   63DPPC   C50 3150   7.407   9.204   3.443
   64DPPC    C1 3151   3.473  -0.016   1.955
   64DPPC    C2 3152   3.394  -0.083   1.742
   64DPPC    C3 3153   3.270   0.087   1.863
   64DPPC    N4 3154   3.403   0.031   1.835
   64DPPC    C5 3155   3.498   0.119   1.765
   64DPPC    C6 3156   3.565   0.238   1.833
   64DPPC    O7 3157   3.473   0.333   1.886
   64DPPC    P8 3158   3.538   0.452   1.972
   64DPPC    O9 3159   3.429   0.540   2.018
   64DPPC   O10 3160   3.650   0.498   1.886
   64DPPC   O11 3161   3.594   0.367   2.096
   64DPPC   C12 3162   3.476   0.353   2.176
   64DPPC   C13 3163   3.499   0.302   2.318
   64DPPC   O14 3164   3.370   0.285   2.378
   64DPPC   C15 3165   3.288   0.182   2.343
   64DPPC   O16 3166   3.320   0.107   2.251
   64DPPC   C17 3167   3.154   0.175   2.415
   64DPPC   C18 3168   3.178   0.157   2.565
   64DPPC   C19 3169   3.216   0.291   2.628
   64DPPC   C20 3170   3.224   0.277   2.780
   64DPPC   C21 3171   3.095   0.221   2.841
   64DPPC   C22 3172   3.109   0.208   2.993
   64DPPC   C23 3173   3.237   0.138   3.040
   64DPPC   C24 3174   3.287   0.203   3.169
   64DPPC   C25 3175   3.413   0.146   3.233
   64DPPC   C26 3176   3.372   0.027   3.320
   64DPPC   C27 3177   3.499  -0.053   3.351
   64DPPC   C28 3178   3.450  -0.179   3.423
   64DPPC   C29 3179   3.567  -0.278   3.424
   64DPPC   C30 3180   3.596  -0.331   3.283
   64DPPC   C31 3181   3.678  -0.459   3.299
   64DPPC   C32 3182   3.589   0.409   2.381
   64DPPC   O33 3183   3.629   0.367   2.511
   64DPPC   C34 3184   3.722   0.267   2.511
   64DPPC   O35 3185   3.790   0.244   2.412
   64DPPC   C36 3186   3.756   0.203   2.646
   64DPPC   C37 3187   3.645   0.114   2.703
   64DPPC   C38 3188   3.655   0.129   2.855
   64DPPC   C39 3189   3.788   0.086   2.916
   64DPPC   C40 3190   3.793  -0.067   2.903
   64DPPC   C41 3191   3.935  -0.114   2.933
   64DPPC   C42 3192   3.976  -0.059   3.069
   64DPPC   C43 3193   4.095  -0.134   3.130
   64DPPC   C44 3194   4.045  -0.278   3.149
   64DPPC   C45 3195   4.156  -0.368   3.204
   64DPPC   C46 3196   4.097  -0.494   3.269
   64DPPC   C47 3197   4.212  -0.589   3.304
   64DPPC   C48 3198   4.150  -0.721   3.351
   64DPPC   C49 3199   4.264  -0.821   3.371
   64DPPC   C50 3200   4.335  -0.846   3.237
   65DPPC    C1 3201   2.436   5.044   5.672
   65DPPC    C2 3202   2.615   5.015   5.520
   65DPPC    C3 3203   2.600   4.876   5.716
   65DPPC    N4 3204   2.523   4.943   5.610
   65DPPC    C5 3205   2.441   4.836   5.552
   65DPPC    C6 3206   2.493   4.716   5.474
   65DPPC    O7 3207   2.400   4.607   5.464
   65DPPC    P8 3208   2.480   4.474   5.422
   65DPPC    O9 3209   2.364   4.383   5.416
   65DPPC   O10 3210   2.594   4.462   5.516
   65DPPC   O11 3211   2.540   4.519   5.279
   65DPPC   C12 3212   2.463   4.471   5.169
   65DPPC   C13 3213   2.523   4.518   5.037
   65DPPC   O14 3214   2.433   4.514   4.925
   65DPPC   C15 3215   2.339   4.610   4.902
   65DPPC   O16 3216   2.329   4.701   4.984
   65DPPC   C17 3217   2.285   4.622   4.760
   65DPPC   C18 3218   2.323   4.752   4.688
   65DPPC   C19 3219   2.474   4.775   4.675
   65DPPC   C20 3220   2.496   4.896   4.583
   65DPPC   C21 3221   2.643   4.907   4.541
   65DPPC   C22 3222   2.663   5.033   4.457
   65DPPC   C23 3223   2.552   5.026   4.351
   65DPPC   C24 3224   2.592   5.140   4.257
   65DPPC   C25 3225   2.729   5.107   4.197
   65DPPC   C26 3226   2.793   5.222   4.120
   65DPPC   C27 3227   2.937   5.181   4.085
   65DPPC   C28 3228   3.006   5.286   3.998
   65DPPC   C29 3229   3.149   5.236   3.975
   65DPPC   C30 3230   3.233   5.334   3.894
   65DPPC   C31 3231   3.372   5.271   3.883
   65DPPC   C32 3232   2.652   4.436   5.031
   65DPPC   O33 3233   2.649   4.294   5.044
   65DPPC   C34 3234   2.775   4.242   5.036
   65DPPC   O35 3235   2.876   4.310   5.050
   65DPPC   C36 3236   2.770   4.090   5.055
   65DPPC   C37 3237   2.707   3.993   4.955
   65DPPC   C38 3238   2.777   4.017   4.821
   65DPPC   C39 3239   2.722   3.930   4.708
   65DPPC   C40 3240   2.816   3.933   4.587
   65DPPC   C41 3241   2.777   3.865   4.455
   65DPPC   C42 3242   2.873   3.876   4.336
   65DPPC   C43 3243   2.861   4.015   4.272
   65DPPC   C44 3244   2.921   4.001   4.132
   65DPPC   C45 3245   2.877   4.122   4.050
   65DPPC   C46 3246   2.952   4.108   3.917
   65DPPC   C47 3247   2.876   4.038   3.804
   65DPPC   C48 3248   2.959   4.019   3.678
   65DPPC   C49 3249   2.880   3.933   3.580
   65DPPC   C50 3250   2.753   4.011   3.543
   66DPPC    C1 3251   8.161   1.271   1.451
   66DPPC    C2 3252   8.126   1.503   1.457
   66DPPC    C3 3253   8.215   1.401   1.646
   66DPPC    N4 3254   8.219   1.397   1.499
   66DPPC    C5 3255   8.342   1.428   1.425
   66DPPC    C6 3256   8.452   1.322   1.430
   66DPPC    O7 3257   8.566   1.375   1.362
   66DPPC    P8 3258   8.693   1.277   1.346
   66DPPC    O9 3259   8.817   1.329   1.285
   66DPPC   O10 3260   8.637   1.150   1.293
   66DPPC   O11 3261   8.713   1.258   1.504
   66DPPC   C12 3262   8.750   1.372   1.582
   66DPPC   C13 3263   8.705   1.346   1.726
   66DPPC   O14 3264   8.692   1.463   1.809
   66DPPC   C15 3265   8.576   1.533   1.791
   66DPPC   O16 3266   8.513   1.524   1.686
   66DPPC   C17 3267   8.532   1.629   1.902
   66DPPC   C18 3268   8.447   1.561   2.010
   66DPPC   C19 3269   8.396   1.641   2.129
   66DPPC   C20 3270   8.295   1.750   2.093
   66DPPC   C21 3271   8.197   1.781   2.206
   66DPPC   C22 3272   8.107   1.901   2.175
   66DPPC   C23 3273   7.987   1.897   2.271
   66DPPC   C24 3274   7.914   2.030   2.254
   66DPPC   C25 3275   7.785   2.044   2.334
   66DPPC   C26 3276   7.803   2.023   2.484
   66DPPC   C27 3277   7.686   2.042   2.580
   66DPPC   C28 3278   7.724   1.996   2.720
   66DPPC   C29 3279   7.603   2.015   2.813
   66DPPC   C30 3280   7.647   2.006   2.959
   66DPPC   C31 3281   7.536   2.029   3.062
   66DPPC   C32 3282   8.793   1.229   1.771
   66DPPC   O33 3283   8.767   1.175   1.900
   66DPPC   C34 3284   8.648   1.117   1.931
   66DPPC   O35 3285   8.547   1.142   1.866
   66DPPC   C36 3286   8.646   1.032   2.059
   66DPPC   C37 3287   8.680   1.112   2.185
   66DPPC   C38 3288   8.720   1.015   2.296
   66DPPC   C39 3289   8.746   1.079   2.432
   66DPPC   C40 3290   8.766   0.986   2.552
   66DPPC   C41 3291   8.893   0.900   2.544
   66DPPC   C42 3292   8.916   0.830   2.678
   66DPPC   C43 3293   8.933   0.917   2.803
   66DPPC   C44 3294   8.969   0.826   2.921
   66DPPC   C45 3295   8.958   0.910   3.048
   66DPPC   C46 3296   8.934   0.823   3.172
   66DPPC   C47 3297   9.055   0.730   3.183
   66DPPC   C48 3298   9.043   0.648   3.312
   66DPPC   C49 3299   9.154   0.547   3.342
   66DPPC   C50 3300   9.138   0.463   3.469
   67DPPC    C1 3301   4.921   2.950   5.992
   67DPPC    C2 3302   4.726   2.837   5.997
   67DPPC    C3 3303   4.739   3.009   5.842
   67DPPC    N4 3304   4.818   2.899   5.901
   67DPPC    C5 3305   4.874   2.800   5.808
   67DPPC    C6 3306   4.958   2.686   5.868
   67DPPC    O7 3307   5.049   2.624   5.778
   67DPPC    P8 3308   5.113   2.499   5.857
   67DPPC    O9 3309   5.060   2.476   5.994
   67DPPC   O10 3310   5.258   2.500   5.826
   67DPPC   O11 3311   5.045   2.382   5.770
   67DPPC   C12 3312   5.084   2.400   5.634
   67DPPC   C13 3313   5.030   2.292   5.540
   67DPPC   O14 3314   5.102   2.281   5.417
   67DPPC   C15 3315   5.209   2.197   5.418
   67DPPC   O16 3316   5.244   2.143   5.523
   67DPPC   C17 3317   5.293   2.181   5.291
   67DPPC   C18 3318   5.292   2.032   5.256
   67DPPC   C19 3319   5.362   2.029   5.120
   67DPPC   C20 3320   5.493   2.104   5.142
   67DPPC   C21 3321   5.577   2.104   5.015
   67DPPC   C22 3322   5.722   2.150   5.029
   67DPPC   C23 3323   5.801   2.141   4.898
   67DPPC   C24 3324   5.735   2.218   4.783
   67DPPC   C25 3325   5.822   2.221   4.658
   67DPPC   C26 3326   5.753   2.300   4.546
   67DPPC   C27 3327   5.831   2.279   4.416
   67DPPC   C28 3328   5.748   2.316   4.292
   67DPPC   C29 3329   5.814   2.286   4.158
   67DPPC   C30 3330   5.748   2.362   4.043
   67DPPC   C31 3331   5.824   2.324   3.916
   67DPPC   C32 3332   4.880   2.312   5.520
   67DPPC   O33 3333   4.832   2.427   5.450
   67DPPC   C34 3334   4.697   2.440   5.455
   67DPPC   O35 3335   4.634   2.413   5.557
   67DPPC   C36 3336   4.641   2.505   5.329
   67DPPC   C37 3337   4.643   2.658   5.340
   67DPPC   C38 3338   4.576   2.707   5.211
   67DPPC   C39 3339   4.619   2.661   5.072
   67DPPC   C40 3340   4.543   2.729   4.957
   67DPPC   C41 3341   4.604   2.693   4.822
   67DPPC   C42 3342   4.563   2.790   4.711
   67DPPC   C43 3343   4.597   2.935   4.744
   67DPPC   C44 3344   4.539   3.012   4.624
   67DPPC   C45 3345   4.594   2.958   4.492
   67DPPC   C46 3346   4.553   3.042   4.370
   67DPPC   C47 3347   4.618   2.993   4.240
   67DPPC   C48 3348   4.585   3.079   4.118
   67DPPC   C49 3349   4.644   2.999   4.002
   67DPPC   C50 3350   4.667   3.093   3.884
   68DPPC    C1 3351   0.726   3.966   1.108
   68DPPC    C2 3352   0.923   3.868   1.014
   68DPPC    C3 3353   0.965   4.026   1.160
   68DPPC    N4 3354   0.863   3.922   1.137
   68DPPC    C5 3355   0.866   3.824   1.246
   68DPPC    C6 3356   0.805   3.686   1.216
   68DPPC    O7 3357   0.823   3.589   1.319
   68DPPC    P8 3358   0.755   3.446   1.291
   68DPPC    O9 3359   0.849   3.334   1.313
   68DPPC   O10 3360   0.683   3.452   1.161
   68DPPC   O11 3361   0.666   3.473   1.422
   68DPPC   C12 3362   0.754   3.453   1.533
   68DPPC   C13 3363   0.719   3.549   1.647
   68DPPC   O14 3364   0.793   3.509   1.763
   68DPPC   C15 3365   0.903   3.578   1.804
   68DPPC   O16 3366   0.958   3.661   1.732
   68DPPC   C17 3367   0.945   3.542   1.947
   68DPPC   C18 3368   0.865   3.605   2.061
   68DPPC   C19 3369   0.847   3.752   2.025
   68DPPC   C20 3370   0.754   3.812   2.131
   68DPPC   C21 3371   0.820   3.792   2.267
   68DPPC   C22 3372   0.718   3.864   2.355
   68DPPC   C23 3373   0.748   3.858   2.505
   68DPPC   C24 3374   0.639   3.937   2.577
   68DPPC   C25 3375   0.630   4.087   2.546
   68DPPC   C26 3376   0.503   4.150   2.603
   68DPPC   C27 3377   0.500   4.121   2.754
   68DPPC   C28 3378   0.374   4.165   2.829
   68DPPC   C29 3379   0.369   4.144   2.980
   68DPPC   C30 3380   0.368   3.995   3.013
   68DPPC   C31 3381   0.350   3.965   3.162
   68DPPC   C32 3382   0.568   3.535   1.671
   68DPPC   O33 3383   0.512   3.641   1.749
   68DPPC   C34 3384   0.402   3.601   1.818
   68DPPC   O35 3385   0.334   3.510   1.773
   68DPPC   C36 3386   0.331   3.709   1.901
   68DPPC   C37 3387   0.330   3.676   2.051
   68DPPC   C38 3388   0.303   3.787   2.152
   68DPPC   C39 3389   0.155   3.826   2.153
   68DPPC   C40 3390   0.057   3.735   2.227
   68DPPC   C41 3391  -0.086   3.783   2.202
   68DPPC   C42 3392  -0.183   3.685   2.268
   68DPPC   C43 3393  -0.154   3.694   2.418
   68DPPC   C44 3394  -0.257   3.593   2.470
   68DPPC   C45 3395  -0.392   3.661   2.487
   68DPPC   C46 3396  -0.386   3.782   2.581
   68DPPC   C47 3397  -0.527   3.841   2.575
   68DPPC   C48 3398  -0.559   3.967   2.656
   68DPPC   C49 3399  -0.703   4.015   2.635
   68DPPC   C50 3400  -0.789   3.906   2.698
   69DPPC    C1 3401   5.532   2.537   6.355
   69DPPC    C2 3402   5.595   2.542   6.128
   69DPPC    C3 3403   5.538   2.333   6.233
   69DPPC    N4 3404   5.505   2.476   6.224
   69DPPC    C5 3405   5.366   2.509   6.189
   69DPPC    C6 3406   5.311   2.644   6.236
   69DPPC    O7 3407   5.360   2.764   6.174
   69DPPC    P8 3408   5.269   2.896   6.159
   69DPPC    O9 3409   5.354   3.003   6.217
   69DPPC   O10 3410   5.138   2.855   6.213
   69DPPC   O11 3411   5.276   2.877   6.000
   69DPPC   C12 3412   5.403   2.905   5.941
   69DPPC   C13 3413   5.383   2.872   5.793
   69DPPC   O14 3414   5.493   2.916   5.712
   69DPPC   C15 3415   5.521   3.041   5.665
   69DPPC   O16 3416   5.478   3.137   5.728
   69DPPC   C17 3417   5.639   3.056   5.570
   69DPPC   C18 3418   5.571   3.041   5.433
   69DPPC   C19 3419   5.678   3.045   5.323
   69DPPC   C20 3420   5.633   2.996   5.185
   69DPPC   C21 3421   5.749   3.011   5.086
   69DPPC   C22 3422   5.708   2.993   4.940
   69DPPC   C23 3423   5.830   3.041   4.862
   69DPPC   C24 3424   5.788   3.093   4.724
   69DPPC   C25 3425   5.917   3.154   4.671
   69DPPC   C26 3426   5.913   3.224   4.535
   69DPPC   C27 3427   5.868   3.128   4.425
   69DPPC   C28 3428   5.829   3.195   4.293
   69DPPC   C29 3429   5.794   3.085   4.194
   69DPPC   C30 3430   5.775   3.148   4.056
   69DPPC   C31 3431   5.740   3.045   3.948
   69DPPC   C32 3432   5.247   2.928   5.754
   69DPPC   O33 3433   5.216   2.887   5.620
   69DPPC   C34 3434   5.106   2.938   5.558
   69DPPC   O35 3435   5.028   3.014   5.614
   69DPPC   C36 3436   5.107   2.926   5.406
   69DPPC   C37 3437   5.047   2.792   5.363
   69DPPC   C38 3438   5.101   2.748   5.227
   69DPPC   C39 3439   5.044   2.613   5.182
   69DPPC   C40 3440   5.057   2.594   5.030
   69DPPC   C41 3441   5.069   2.446   4.994
   69DPPC   C42 3442   5.124   2.419   4.854
   69DPPC   C43 3443   5.177   2.277   4.831
   69DPPC   C44 3444   5.241   2.256   4.694
   69DPPC   C45 3445   5.300   2.115   4.698
   69DPPC   C46 3446   5.398   2.088   4.584
   69DPPC   C47 3447   5.327   2.116   4.451
   69DPPC   C48 3448   5.426   2.080   4.340
   69DPPC   C49 3449   5.362   2.103   4.203
   69DPPC   C50 3450   5.334   2.253   4.197
   70DPPC    C1 3451   2.744   0.025   5.262
   70DPPC    C2 3452   2.839  -0.086   5.068
   70DPPC    C3 3453   2.969   0.014   5.251
   70DPPC    N4 3454   2.851  -0.064   5.213
   70DPPC    C5 3455   2.829  -0.178   5.304
   70DPPC    C6 3456   2.937  -0.287   5.310
   70DPPC    O7 3457   2.983  -0.341   5.186
   70DPPC    P8 3458   3.038  -0.489   5.215
   70DPPC    O9 3459   2.923  -0.545   5.289
   70DPPC   O10 3460   3.162  -0.447   5.284
   70DPPC   O11 3461   3.043  -0.540   5.062
   70DPPC   C12 3462   2.914  -0.534   5.002
   70DPPC   C13 3463   2.933  -0.559   4.852
   70DPPC   O14 3464   2.954  -0.694   4.811
   70DPPC   C15 3465   2.861  -0.793   4.823
   70DPPC   O16 3466   2.748  -0.766   4.861
   70DPPC   C17 3467   2.897  -0.932   4.771
   70DPPC   C18 3468   2.922  -0.912   4.621
   70DPPC   C19 3469   2.924  -1.042   4.540
   70DPPC   C20 3470   2.980  -1.003   4.403
   70DPPC   C21 3471   3.122  -0.947   4.419
   70DPPC   C22 3472   3.169  -0.903   4.280
   70DPPC   C23 3473   3.320  -0.894   4.254
   70DPPC   C24 3474   3.355  -0.821   4.124
   70DPPC   C25 3475   3.498  -0.765   4.124
   70DPPC   C26 3476   3.511  -0.698   3.987
   70DPPC   C27 3477   3.658  -0.664   3.965
   70DPPC   C28 3478   3.691  -0.585   3.837
   70DPPC   C29 3479   3.839  -0.615   3.813
   70DPPC   C30 3480   3.924  -0.567   3.931
   70DPPC   C31 3481   4.071  -0.595   3.899
   70DPPC   C32 3482   3.045  -0.467   4.802
   70DPPC   O33 3483   3.001  -0.331   4.796
   70DPPC   C34 3484   3.096  -0.243   4.756
   70DPPC   O35 3485   3.208  -0.284   4.726
   70DPPC   C36 3486   3.051  -0.100   4.726
   70DPPC   C37 3487   3.122  -0.037   4.606
   70DPPC   C38 3488   3.049   0.091   4.564
   70DPPC   C39 3489   3.093   0.133   4.423
   70DPPC   C40 3490   3.016   0.036   4.332
   70DPPC   C41 3491   3.059   0.039   4.185
   70DPPC   C42 3492   3.009  -0.087   4.113
   70DPPC   C43 3493   2.857  -0.097   4.122
   70DPPC   C44 3494   2.799   0.017   4.039
   70DPPC   C45 3495   2.744  -0.026   3.903
   70DPPC   C46 3496   2.592  -0.045   3.892
   70DPPC   C47 3497   2.549  -0.107   3.759
   70DPPC   C48 3498   2.400  -0.138   3.741
   70DPPC   C49 3499   2.370  -0.225   3.619
   70DPPC   C50 3500   2.219  -0.242   3.602
   71DPPC    C1 3501   4.036   3.666   5.518
   71DPPC    C2 3502   4.071   3.755   5.743
   71DPPC    C3 3503   4.087   3.521   5.682
   71DPPC    N4 3504   4.116   3.659   5.641
   71DPPC    C5 3505   4.259   3.690   5.624
   71DPPC    C6 3506   4.346   3.697   5.749
   71DPPC    O7 3507   4.361   3.570   5.812
   71DPPC    P8 3508   4.461   3.571   5.938
   71DPPC    O9 3509   4.442   3.452   6.024
   71DPPC   O10 3510   4.459   3.705   6.001
   71DPPC   O11 3511   4.591   3.568   5.843
   71DPPC   C12 3512   4.621   3.435   5.799
   71DPPC   C13 3513   4.697   3.435   5.666
   71DPPC   O14 3514   4.838   3.459   5.666
   71DPPC   C15 3515   4.908   3.347   5.698
   71DPPC   O16 3516   4.871   3.280   5.794
   71DPPC   C17 3517   5.057   3.349   5.662
   71DPPC   C18 3518   5.073   3.327   5.512
   71DPPC   C19 3519   5.213   3.364   5.464
   71DPPC   C20 3520   5.235   3.316   5.320
   71DPPC   C21 3521   5.358   3.376   5.252
   71DPPC   C22 3522   5.334   3.341   5.105
   71DPPC   C23 3523   5.363   3.193   5.076
   71DPPC   C24 3524   5.356   3.171   4.925
   71DPPC   C25 3525   5.430   3.262   4.826
   71DPPC   C26 3526   5.422   3.200   4.687
   71DPPC   C27 3527   5.469   3.291   4.573
   71DPPC   C28 3528   5.429   3.226   4.440
   71DPPC   C29 3529   5.474   3.315   4.324
   71DPPC   C30 3530   5.429   3.260   4.189
   71DPPC   C31 3531   5.468   3.352   4.073
   71DPPC   C32 3532   4.615   3.522   5.570
   71DPPC   O33 3533   4.638   3.494   5.432
   71DPPC   C34 3534   4.559   3.563   5.345
   71DPPC   O35 3535   4.487   3.655   5.382
   71DPPC   C36 3536   4.560   3.527   5.197
   71DPPC   C37 3537   4.467   3.411   5.161
   71DPPC   C38 3538   4.444   3.370   5.016
   71DPPC   C39 3539   4.336   3.261   5.021
   71DPPC   C40 3540   4.279   3.235   4.882
   71DPPC   C41 3541   4.226   3.365   4.821
   71DPPC   C42 3542   4.208   3.344   4.671
   71DPPC   C43 3543   4.157   3.466   4.595
   71DPPC   C44 3544   4.153   3.428   4.447
   71DPPC   C45 3545   4.300   3.404   4.415
   71DPPC   C46 3546   4.327   3.342   4.278
   71DPPC   C47 3547   4.273   3.429   4.163
   71DPPC   C48 3548   4.336   3.391   4.029
   71DPPC   C49 3549   4.324   3.502   3.925
   71DPPC   C50 3550   4.180   3.528   3.880
   72DPPC    C1 3551   0.989   8.398   4.758
   72DPPC    C2 3552   1.147   8.542   4.849
   72DPPC    C3 3553   0.917   8.555   4.914
   72DPPC    N4 3554   1.028   8.463   4.884
   72DPPC    C5 3555   1.046   8.366   4.994
   72DPPC    C6 3556   1.136   8.244   4.978
   72DPPC    O7 3557   1.266   8.279   4.930
   72DPPC    P8 3558   1.373   8.158   4.921
   72DPPC    O9 3559   1.313   8.064   5.018
   72DPPC   O10 3560   1.508   8.217   4.935
   72DPPC   O11 3561   1.347   8.082   4.781
   72DPPC   C12 3562   1.328   8.190   4.689
   72DPPC   C13 3563   1.310   8.159   4.540
   72DPPC   O14 3564   1.326   8.278   4.462
   72DPPC   C15 3565   1.411   8.291   4.357
   72DPPC   O16 3566   1.507   8.217   4.333
   72DPPC   C17 3567   1.377   8.418   4.278
   72DPPC   C18 3568   1.400   8.393   4.129
   72DPPC   C19 3569   1.393   8.511   4.032
   72DPPC   C20 3570   1.389   8.457   3.888
   72DPPC   C21 3571   1.322   8.566   3.803
   72DPPC   C22 3572   1.357   8.555   3.655
   72DPPC   C23 3573   1.312   8.674   3.571
   72DPPC   C24 3574   1.339   8.648   3.423
   72DPPC   C25 3575   1.319   8.770   3.333
   72DPPC   C26 3576   1.325   8.738   3.184
   72DPPC   C27 3577   1.210   8.647   3.140
   72DPPC   C28 3578   1.080   8.722   3.169
   72DPPC   C29 3579   0.959   8.628   3.173
   72DPPC   C30 3580   0.841   8.719   3.207
   72DPPC   C31 3581   0.858   8.754   3.355
   72DPPC   C32 3582   1.181   8.078   4.528
   72DPPC   O33 3583   1.058   8.150   4.531
   72DPPC   C34 3584   0.956   8.072   4.487
   72DPPC   O35 3585   0.936   7.952   4.510
   72DPPC   C36 3586   0.830   8.147   4.444
   72DPPC   C37 3587   0.792   8.121   4.298
   72DPPC   C38 3588   0.672   8.201   4.249
   72DPPC   C39 3589   0.661   8.197   4.097
   72DPPC   C40 3590   0.644   8.049   4.060
   72DPPC   C41 3591   0.618   8.023   3.911
   72DPPC   C42 3592   0.476   8.066   3.875
   72DPPC   C43 3593   0.478   8.048   3.723
   72DPPC   C44 3594   0.360   8.121   3.660
   72DPPC   C45 3595   0.232   8.081   3.733
   72DPPC   C46 3596   0.117   8.150   3.660
   72DPPC   C47 3597  -0.017   8.095   3.709
   72DPPC   C48 3598  -0.115   8.163   3.612
   72DPPC   C49 3599  -0.259   8.126   3.649
   72DPPC   C50 3600  -0.273   7.975   3.633
   73DPPC    C1 3601   8.518   8.206   4.944
   73DPPC    C2 3602   8.429   8.091   4.747
   73DPPC    C3 3603   8.630   8.020   4.847
   73DPPC    N4 3604   8.498   8.077   4.876
   73DPPC    C5 3605   8.433   7.980   4.966
   73DPPC    C6 3606   8.309   8.016   5.049
   73DPPC    O7 3607   8.262   7.894   5.108
   73DPPC    P8 3608   8.111   7.884   5.162
   73DPPC    O9 3609   8.088   8.013   5.231
   73DPPC   O10 3610   8.097   7.751   5.226
   73DPPC   O11 3611   8.045   7.881   5.015
   73DPPC   C12 3612   8.073   7.752   4.961
   73DPPC   C13 3613   8.003   7.712   4.831
   73DPPC   O14 3614   8.048   7.785   4.716
   73DPPC   C15 3615   8.169   7.762   4.660
   73DPPC   O16 3616   8.259   7.715   4.730
   73DPPC   C17 3617   8.207   7.837   4.532
   73DPPC   C18 3618   8.242   7.738   4.421
   73DPPC   C19 3619   8.129   7.653   4.362
   73DPPC   C20 3620   8.198   7.554   4.268
   73DPPC   C21 3621   8.205   7.416   4.333
   73DPPC   C22 3622   8.263   7.313   4.236
   73DPPC   C23 3623   8.396   7.366   4.183
   73DPPC   C24 3624   8.445   7.278   4.068
   73DPPC   C25 3625   8.360   7.287   3.940
   73DPPC   C26 3626   8.433   7.238   3.815
   73DPPC   C27 3627   8.498   7.103   3.849
   73DPPC   C28 3628   8.567   7.066   3.717
   73DPPC   C29 3629   8.682   7.157   3.674
   73DPPC   C30 3630   8.740   7.124   3.536
   73DPPC   C31 3631   8.871   7.195   3.499
   73DPPC   C32 3632   7.853   7.721   4.856
   73DPPC   O33 3633   7.772   7.693   4.742
   73DPPC   C34 3634   7.781   7.566   4.695
   73DPPC   O35 3635   7.840   7.481   4.760
   73DPPC   C36 3636   7.719   7.534   4.559
   73DPPC   C37 3637   7.765   7.399   4.501
   73DPPC   C38 3638   7.692   7.360   4.373
   73DPPC   C39 3639   7.712   7.463   4.262
   73DPPC   C40 3640   7.657   7.413   4.128
   73DPPC   C41 3641   7.698   7.518   4.024
   73DPPC   C42 3642   7.689   7.460   3.882
   73DPPC   C43 3643   7.766   7.561   3.796
   73DPPC   C44 3644   7.825   7.501   3.668
   73DPPC   C45 3645   7.897   7.601   3.578
   73DPPC   C46 3646   7.805   7.719   3.547
   73DPPC   C47 3647   7.870   7.822   3.454
   73DPPC   C48 3648   7.983   7.896   3.525
   73DPPC   C49 3649   7.941   8.039   3.558
   73DPPC   C50 3650   8.072   8.107   3.598
   74DPPC    C1 3651   5.916   4.759   5.783
   74DPPC    C2 3652   5.711   4.868   5.692
   74DPPC    C3 3653   5.920   4.959   5.658
   74DPPC    N4 3654   5.852   4.830   5.672
   74DPPC    C5 3655   5.846   4.745   5.552
   74DPPC    C6 3656   5.968   4.733   5.460
   74DPPC    O7 3657   5.967   4.614   5.380
   74DPPC    P8 3658   6.125   4.597   5.358
   74DPPC    O9 3659   6.155   4.482   5.270
   74DPPC   O10 3660   6.199   4.614   5.486
   74DPPC   O11 3661   6.159   4.729   5.272
   74DPPC   C12 3662   6.267   4.695   5.185
   74DPPC   C13 3663   6.289   4.787   5.065
   74DPPC   O14 3664   6.420   4.787   5.007
   74DPPC   C15 3665   6.453   4.685   4.923
   74DPPC   O16 3666   6.388   4.581   4.932
   74DPPC   C17 3667   6.576   4.715   4.838
   74DPPC   C18 3668   6.538   4.719   4.690
   74DPPC   C19 3669   6.658   4.773   4.612
   74DPPC   C20 3670   6.614   4.779   4.465
   74DPPC   C21 3671   6.497   4.876   4.444
   74DPPC   C22 3672   6.420   4.841   4.316
   74DPPC   C23 3673   6.513   4.850   4.195
   74DPPC   C24 3674   6.431   4.840   4.067
   74DPPC   C25 3675   6.522   4.866   3.946
   74DPPC   C26 3676   6.444   4.832   3.819
   74DPPC   C27 3677   6.545   4.778   3.718
   74DPPC   C28 3678   6.484   4.710   3.595
   74DPPC   C29 3679   6.419   4.581   3.645
   74DPPC   C30 3680   6.506   4.486   3.728
   74DPPC   C31 3681   6.420   4.369   3.775
   74DPPC   C32 3682   6.261   4.926   5.123
   74DPPC   O33 3683   6.221   5.010   5.014
   74DPPC   C34 3684   6.232   5.144   5.032
   74DPPC   O35 3685   6.243   5.190   5.145
   74DPPC   C36 3686   6.227   5.242   4.915
   74DPPC   C37 3687   6.206   5.162   4.786
   74DPPC   C38 3688   6.245   5.253   4.669
   74DPPC   C39 3689   6.392   5.293   4.686
   74DPPC   C40 3690   6.444   5.371   4.565
   74DPPC   C41 3691   6.461   5.276   4.446
   74DPPC   C42 3692   6.536   5.349   4.335
   74DPPC   C43 3693   6.522   5.272   4.204
   74DPPC   C44 3694   6.603   5.331   4.089
   74DPPC   C45 3695   6.556   5.268   3.958
   74DPPC   C46 3696   6.657   5.297   3.846
   74DPPC   C47 3697   6.610   5.227   3.719
   74DPPC   C48 3698   6.726   5.228   3.619
   74DPPC   C49 3699   6.674   5.181   3.483
   74DPPC   C50 3700   6.555   5.253   3.419
   75DPPC    C1 3701   3.800   1.400   5.741
   75DPPC    C2 3702   3.774   1.461   5.503
   75DPPC    C3 3703   3.691   1.266   5.597
   75DPPC    N4 3704   3.711   1.409   5.625
   75DPPC    C5 3705   3.597   1.491   5.667
   75DPPC    C6 3706   3.502   1.565   5.573
   75DPPC    O7 3707   3.566   1.685   5.527
   75DPPC    P8 3708   3.430   1.769   5.509
   75DPPC    O9 3709   3.396   1.801   5.649
   75DPPC   O10 3710   3.350   1.690   5.413
   75DPPC   O11 3711   3.484   1.901   5.434
   75DPPC   C12 3712   3.438   1.910   5.300
   75DPPC   C13 3713   3.496   2.035   5.233
   75DPPC   O14 3714   3.463   2.048   5.094
   75DPPC   C15 3715   3.484   2.166   5.031
   75DPPC   O16 3716   3.517   2.269   5.089
   75DPPC   C17 3717   3.463   2.176   4.880
   75DPPC   C18 3718   3.582   2.230   4.800
   75DPPC   C19 3719   3.701   2.134   4.807
   75DPPC   C20 3720   3.833   2.206   4.783
   75DPPC   C21 3721   3.953   2.112   4.775
   75DPPC   C22 3722   4.072   2.207   4.758
   75DPPC   C23 3723   4.202   2.131   4.732
   75DPPC   C24 3724   4.313   2.231   4.699
   75DPPC   C25 3725   4.278   2.325   4.584
   75DPPC   C26 3726   4.391   2.382   4.499
   75DPPC   C27 3727   4.340   2.477   4.390
   75DPPC   C28 3728   4.443   2.528   4.289
   75DPPC   C29 3729   4.372   2.584   4.165
   75DPPC   C30 3730   4.472   2.655   4.074
   75DPPC   C31 3731   4.393   2.727   3.964
   75DPPC   C32 3732   3.646   2.023   5.264
   75DPPC   O33 3733   3.700   1.894   5.234
   75DPPC   C34 3734   3.835   1.879   5.231
   75DPPC   O35 3735   3.901   1.961   5.294
   75DPPC   C36 3736   3.874   1.740   5.180
   75DPPC   C37 3737   3.905   1.756   5.031
   75DPPC   C38 3738   3.954   1.628   4.963
   75DPPC   C39 3739   3.993   1.644   4.815
   75DPPC   C40 3740   3.885   1.676   4.712
   75DPPC   C41 3741   3.937   1.704   4.571
   75DPPC   C42 3742   3.815   1.739   4.485
   75DPPC   C43 3743   3.881   1.794   4.359
   75DPPC   C44 3744   3.785   1.820   4.242
   75DPPC   C45 3745   3.718   1.688   4.205
   75DPPC   C46 3746   3.630   1.699   4.080
   75DPPC   C47 3747   3.725   1.735   3.966
   75DPPC   C48 3748   3.645   1.766   3.840
   75DPPC   C49 3749   3.749   1.786   3.729
   75DPPC   C50 3750   3.678   1.852   3.611
   76DPPC    C1 3751   5.938  -0.051   5.288
   76DPPC    C2 3752   5.735   0.012   5.368
   76DPPC    C3 3753   5.869   0.181   5.264
   76DPPC    N4 3754   5.827   0.040   5.257
   76DPPC    C5 3755   5.772  -0.005   5.128
   76DPPC    C6 3756   5.644   0.070   5.093
   76DPPC    O7 3757   5.564   0.031   4.981
   76DPPC    P8 3758   5.456   0.150   4.963
   76DPPC    O9 3759   5.535   0.270   4.927
   76DPPC   O10 3760   5.377   0.145   5.087
   76DPPC   O11 3761   5.387   0.065   4.845
   76DPPC   C12 3762   5.433   0.109   4.717
   76DPPC   C13 3763   5.324   0.119   4.609
   76DPPC   O14 3764   5.251   0.241   4.593
   76DPPC   C15 3765   5.320   0.347   4.542
   76DPPC   O16 3766   5.443   0.344   4.551
   76DPPC   C17 3767   5.243   0.478   4.528
   76DPPC   C18 3768   5.224   0.555   4.659
   76DPPC   C19 3769   5.146   0.686   4.641
   76DPPC   C20 3770   5.018   0.663   4.560
   76DPPC   C21 3771   4.932   0.785   4.525
   76DPPC   C22 3772   4.827   0.751   4.420
   76DPPC   C23 3773   4.914   0.705   4.303
   76DPPC   C24 3774   4.837   0.695   4.171
   76DPPC   C25 3775   4.892   0.590   4.075
   76DPPC   C26 3776   4.845   0.597   3.929
   76DPPC   C27 3777   4.913   0.487   3.848
   76DPPC   C28 3778   5.065   0.509   3.845
   76DPPC   C29 3779   5.149   0.382   3.854
   76DPPC   C30 3780   5.129   0.296   3.729
   76DPPC   C31 3781   5.227   0.178   3.730
   76DPPC   C32 3782   5.262  -0.021   4.600
   76DPPC   O33 3783   5.363  -0.115   4.564
   76DPPC   C34 3784   5.326  -0.244   4.587
   76DPPC   O35 3785   5.243  -0.268   4.674
   76DPPC   C36 3786   5.418  -0.355   4.537
   76DPPC   C37 3787   5.438  -0.328   4.387
   76DPPC   C38 3788   5.582  -0.368   4.357
   76DPPC   C39 3789   5.616  -0.343   4.210
   76DPPC   C40 3790   5.710  -0.445   4.145
   76DPPC   C41 3791   5.631  -0.571   4.111
   76DPPC   C42 3792   5.709  -0.676   4.031
   76DPPC   C43 3793   5.625  -0.804   4.033
   76DPPC   C44 3794   5.501  -0.778   3.949
   76DPPC   C45 3795   5.446  -0.912   3.898
   76DPPC   C46 3796   5.330  -0.875   3.806
   76DPPC   C47 3797   5.375  -0.869   3.659
   76DPPC   C48 3798   5.424  -1.004   3.608
   76DPPC   C49 3799   5.511  -0.980   3.485
   76DPPC   C50 3800   5.528  -1.109   3.405
   77DPPC    C1 3801   9.352   5.992   4.771
   77DPPC    C2 3802   9.479   5.810   4.672
   77DPPC    C3 3803   9.445   5.818   4.905
   77DPPC    N4 3804   9.381   5.848   4.775
   77DPPC    C5 3805   9.266   5.760   4.748
   77DPPC    C6 3806   9.131   5.743   4.818
   77DPPC    O7 3807   9.151   5.674   4.941
   77DPPC    P8 3808   9.031   5.695   5.046
   77DPPC    O9 3809   8.949   5.813   5.012
   77DPPC   O10 3810   9.086   5.687   5.183
   77DPPC   O11 3811   8.949   5.558   5.019
   77DPPC   C12 3812   9.013   5.435   5.054
   77DPPC   C13 3813   8.928   5.313   5.016
   77DPPC   O14 3814   9.009   5.202   4.975
   77DPPC   C15 3815   9.026   5.093   5.055
   77DPPC   O16 3816   9.026   5.109   5.177
   77DPPC   C17 3817   9.064   4.956   4.999
   77DPPC   C18 3818   9.012   4.936   4.856
   77DPPC   C19 3819   9.100   4.832   4.788
   77DPPC   C20 3820   9.246   4.879   4.783
   77DPPC   C21 3821   9.336   4.757   4.761
   77DPPC   C22 3822   9.339   4.723   4.612
   77DPPC   C23 3823   9.401   4.841   4.537
   77DPPC   C24 3824   9.401   4.803   4.388
   77DPPC   C25 3825   9.448   4.919   4.301
   77DPPC   C26 3826   9.449   4.882   4.152
   77DPPC   C27 3827   9.518   4.994   4.074
   77DPPC   C28 3828   9.507   4.940   3.931
   77DPPC   C29 3829   9.560   5.037   3.826
   77DPPC   C30 3830   9.597   4.957   3.701
   77DPPC   C31 3831   9.474   4.928   3.614
   77DPPC   C32 3832   8.845   5.360   4.896
   77DPPC   O33 3833   8.777   5.255   4.826
   77DPPC   C34 3834   8.706   5.300   4.720
   77DPPC   O35 3835   8.729   5.411   4.673
   77DPPC   C36 3836   8.635   5.184   4.648
   77DPPC   C37 3837   8.559   5.219   4.520
   77DPPC   C38 3838   8.540   5.087   4.446
   77DPPC   C39 3839   8.557   5.126   4.299
   77DPPC   C40 3840   8.518   5.000   4.222
   77DPPC   C41 3841   8.586   4.865   4.248
   77DPPC   C42 3842   8.509   4.747   4.189
   77DPPC   C43 3843   8.574   4.612   4.220
   77DPPC   C44 3844   8.502   4.491   4.160
   77DPPC   C45 3845   8.549   4.347   4.180
   77DPPC   C46 3846   8.505   4.264   4.059
   77DPPC   C47 3847   8.557   4.326   3.929
   77DPPC   C48 3848   8.536   4.248   3.800
   77DPPC   C49 3849   8.604   4.314   3.680
   77DPPC   C50 3850   8.598   4.228   3.554
   78DPPC    C1 3851   1.095   5.252   5.262
   78DPPC    C2 3852   1.190   5.072   5.174
   78DPPC    C3 3853   1.245   5.303   5.099
   78DPPC    N4 3854   1.227   5.210   5.211
   78DPPC    C5 3855   1.318   5.234   5.324
   78DPPC    C6 3856   1.460   5.177   5.311
   78DPPC    O7 3857   1.473   5.035   5.313
   78DPPC    P8 3858   1.624   4.992   5.276
   78DPPC    O9 3859   1.656   4.865   5.345
   78DPPC   O10 3860   1.697   5.118   5.302
   78DPPC   O11 3861   1.593   4.987   5.118
   78DPPC   C12 3862   1.538   4.859   5.085
   78DPPC   C13 3863   1.454   4.846   4.958
   78DPPC   O14 3864   1.388   4.722   4.930
   78DPPC   C15 3865   1.276   4.685   4.997
   78DPPC   O16 3866   1.195   4.762   5.049
   78DPPC   C17 3867   1.225   4.551   4.944
   78DPPC   C18 3868   1.161   4.557   4.806
   78DPPC   C19 3869   1.109   4.417   4.775
   78DPPC   C20 3870   1.057   4.420   4.631
   78DPPC   C21 3871   1.180   4.453   4.545
   78DPPC   C22 3872   1.163   4.500   4.400
   78DPPC   C23 3873   1.300   4.500   4.332
   78DPPC   C24 3874   1.289   4.527   4.182
   78DPPC   C25 3875   1.208   4.421   4.107
   78DPPC   C26 3876   1.195   4.466   3.962
   78DPPC   C27 3877   1.344   4.477   3.928
   78DPPC   C28 3878   1.353   4.553   3.796
   78DPPC   C29 3879   1.484   4.528   3.720
   78DPPC   C30 3880   1.477   4.387   3.660
   78DPPC   C31 3881   1.606   4.350   3.585
   78DPPC   C32 3882   1.553   4.883   4.847
   78DPPC   O33 3883   1.496   4.900   4.717
   78DPPC   C34 3884   1.591   4.941   4.629
   78DPPC   O35 3885   1.707   4.907   4.648
   78DPPC   C36 3886   1.546   5.031   4.513
   78DPPC   C37 3887   1.437   4.961   4.432
   78DPPC   C38 3888   1.499   4.858   4.337
   78DPPC   C39 3889   1.578   4.949   4.242
   78DPPC   C40 3890   1.672   4.867   4.154
   78DPPC   C41 3891   1.605   4.784   4.044
   78DPPC   C42 3892   1.711   4.712   3.960
   78DPPC   C43 3893   1.794   4.821   3.892
   78DPPC   C44 3894   1.897   4.764   3.794
   78DPPC   C45 3895   1.937   4.869   3.691
   78DPPC   C46 3896   1.991   4.992   3.764
   78DPPC   C47 3897   2.038   5.106   3.674
   78DPPC   C48 3898   2.107   5.217   3.754
   78DPPC   C49 3899   2.253   5.180   3.784
   78DPPC   C50 3900   2.333   5.302   3.829
   79DPPC    C1 3901   0.109   3.525   6.083
   79DPPC    C2 3902   0.130   3.527   5.848
   79DPPC    C3 3903  -0.093   3.499   5.946
   79DPPC    N4 3904   0.040   3.561   5.959
   79DPPC    C5 3905   0.043   3.708   5.954
   79DPPC    C6 3906  -0.057   3.789   5.871
   79DPPC    O7 3907  -0.017   3.787   5.734
   79DPPC    P8 3908  -0.143   3.862   5.668
   79DPPC    O9 3909  -0.155   3.995   5.732
   79DPPC   O10 3910  -0.249   3.759   5.662
   79DPPC   O11 3911  -0.070   3.869   5.524
   79DPPC   C12 3912  -0.015   3.743   5.485
   79DPPC   C13 3913   0.033   3.745   5.340
   79DPPC   O14 3914   0.070   3.611   5.304
   79DPPC   C15 3915  -0.012   3.508   5.271
   79DPPC   O16 3916  -0.122   3.505   5.326
   79DPPC   C17 3917   0.042   3.393   5.187
   79DPPC   C18 3918   0.061   3.437   5.041
   79DPPC   C19 3919   0.071   3.312   4.953
   79DPPC   C20 3920   0.050   3.350   4.806
   79DPPC   C21 3921   0.063   3.226   4.718
   79DPPC   C22 3922   0.027   3.273   4.577
   79DPPC   C23 3923   0.009   3.157   4.478
   79DPPC   C24 3924  -0.041   3.207   4.343
   79DPPC   C25 3925  -0.060   3.094   4.242
   79DPPC   C26 3926  -0.060   3.160   4.104
   79DPPC   C27 3927  -0.085   3.063   3.989
   79DPPC   C28 3928  -0.078   3.149   3.863
   79DPPC   C29 3929  -0.118   3.064   3.742
   79DPPC   C30 3930  -0.029   2.942   3.723
   79DPPC   C31 3931  -0.061   2.872   3.590
   79DPPC   C32 3932   0.150   3.843   5.352
   79DPPC   O33 3933   0.193   3.900   5.228
   79DPPC   C34 3934   0.288   3.996   5.234
   79DPPC   O35 3935   0.317   4.037   5.346
   79DPPC   C36 3936   0.355   4.047   5.106
   79DPPC   C37 3937   0.266   4.053   4.981
   79DPPC   C38 3938   0.355   4.068   4.858
   79DPPC   C39 3939   0.264   4.050   4.737
   79DPPC   C40 3940   0.158   4.158   4.708
   79DPPC   C41 3941   0.064   4.114   4.596
   79DPPC   C42 3942   0.127   4.114   4.457
   79DPPC   C43 3943   0.022   4.056   4.361
   79DPPC   C44 3944   0.078   4.074   4.219
   79DPPC   C45 3945  -0.046   4.046   4.134
   79DPPC   C46 3946  -0.010   4.118   4.004
   79DPPC   C47 3947  -0.119   4.131   3.897
   79DPPC   C48 3948  -0.051   4.182   3.770
   79DPPC   C49 3949  -0.147   4.164   3.652
   79DPPC   C50 3950  -0.080   4.192   3.517
   80DPPC    C1 3951   0.612   4.317   5.679
   80DPPC    C2 3952   0.766   4.396   5.860
   80DPPC    C3 3953   0.638   4.202   5.886
   80DPPC    N4 3954   0.707   4.284   5.785
   80DPPC    C5 3955   0.812   4.205   5.719
   80DPPC    C6 3956   0.907   4.272   5.620
   80DPPC    O7 3957   1.025   4.193   5.601
   80DPPC    P8 3958   1.124   4.296   5.526
   80DPPC    O9 3959   1.259   4.246   5.559
   80DPPC   O10 3960   1.080   4.436   5.547
   80DPPC   O11 3961   1.063   4.236   5.389
   80DPPC   C12 3962   1.091   4.339   5.294
   80DPPC   C13 3963   1.031   4.298   5.159
   80DPPC   O14 3964   0.890   4.277   5.157
   80DPPC   C15 3965   0.802   4.379   5.138
   80DPPC   O16 3966   0.824   4.490   5.187
   80DPPC   C17 3967   0.666   4.329   5.092
   80DPPC   C18 3968   0.664   4.325   4.939
   80DPPC   C19 3969   0.698   4.452   4.861
   80DPPC   C20 3970   0.678   4.457   4.709
   80DPPC   C21 3971   0.723   4.588   4.644
   80DPPC   C22 3972   0.672   4.577   4.500
   80DPPC   C23 3973   0.790   4.539   4.409
   80DPPC   C24 3974   0.736   4.518   4.268
   80DPPC   C25 3975   0.858   4.465   4.192
   80DPPC   C26 3976   0.840   4.408   4.051
   80DPPC   C27 3977   0.800   4.507   3.942
   80DPPC   C28 3978   0.765   4.429   3.815
   80DPPC   C29 3979   0.749   4.511   3.687
   80DPPC   C30 3980   0.700   4.431   3.566
   80DPPC   C31 3981   0.694   4.509   3.435
   80DPPC   C32 3982   1.114   4.179   5.110
   80DPPC   O33 3983   1.229   4.216   5.032
   80DPPC   C34 3984   1.287   4.112   4.967
   80DPPC   O35 3985   1.239   4.001   4.988
   80DPPC   C36 3986   1.395   4.149   4.865
   80DPPC   C37 3987   1.381   4.055   4.745
   80DPPC   C38 3988   1.277   4.090   4.638
   80DPPC   C39 3989   1.262   3.980   4.533
   80DPPC   C40 3990   1.145   4.015   4.440
   80DPPC   C41 3991   1.116   3.899   4.345
   80DPPC   C42 3992   1.040   3.930   4.217
   80DPPC   C43 3993   1.077   4.036   4.113
   80DPPC   C44 3994   1.012   4.018   3.976
   80DPPC   C45 3995   1.069   4.084   3.850
   80DPPC   C46 3996   0.975   4.081   3.729
   80DPPC   C47 3997   1.056   4.028   3.610
   80DPPC   C48 3998   0.962   4.006   3.492
   80DPPC   C49 3999   1.035   3.936   3.378
   80DPPC   C50 4000   0.938   3.889   3.269
   81DPPC    C1 4001   5.965   4.114   5.364
   81DPPC    C2 4002   5.759   4.077   5.483
   81DPPC    C3 4003   5.934   4.188   5.587
   81DPPC    N4 4004   5.867   4.174   5.456
   81DPPC    C5 4005   5.811   4.295   5.395
   81DPPC    C6 4006   5.741   4.398   5.483
   81DPPC    O7 4007   5.642   4.347   5.574
   81DPPC    P8 4008   5.612   4.455   5.689
   81DPPC    O9 4009   5.749   4.503   5.718
   81DPPC   O10 4010   5.517   4.408   5.792
   81DPPC   O11 4011   5.543   4.575   5.606
   81DPPC   C12 4012   5.425   4.528   5.539
   81DPPC   C13 4013   5.341   4.642   5.481
   81DPPC   O14 4014   5.228   4.606   5.400
   81DPPC   C15 4015   5.109   4.593   5.463
   81DPPC   O16 4016   5.098   4.645   5.574
   81DPPC   C17 4017   4.983   4.543   5.392
   81DPPC   C18 4018   4.997   4.534   5.240
   81DPPC   C19 4019   4.870   4.488   5.170
   81DPPC   C20 4020   4.825   4.355   5.232
   81DPPC   C21 4021   4.696   4.303   5.166
   81DPPC   C22 4022   4.723   4.248   5.026
   81DPPC   C23 4023   4.586   4.238   4.959
   81DPPC   C24 4024   4.601   4.238   4.807
   81DPPC   C25 4025   4.461   4.203   4.757
   81DPPC   C26 4026   4.346   4.299   4.787
   81DPPC   C27 4027   4.218   4.228   4.742
   81DPPC   C28 4028   4.225   4.192   4.594
   81DPPC   C29 4029   4.137   4.072   4.556
   81DPPC   C30 4030   4.189   4.028   4.420
   81DPPC   C31 4031   4.108   3.924   4.342
   81DPPC   C32 4032   5.440   4.733   5.408
   81DPPC   O33 4033   5.527   4.686   5.304
   81DPPC   C34 4034   5.640   4.754   5.270
   81DPPC   O35 4035   5.665   4.865   5.316
   81DPPC   C36 4036   5.707   4.704   5.142
   81DPPC   C37 4037   5.681   4.556   5.110
   81DPPC   C38 4038   5.777   4.524   4.995
   81DPPC   C39 4039   5.775   4.375   4.960
   81DPPC   C40 4040   5.918   4.333   4.923
   81DPPC   C41 4041   5.955   4.186   4.902
   81DPPC   C42 4042   5.882   4.119   4.785
   81DPPC   C43 4043   5.923   4.174   4.648
   81DPPC   C44 4044   5.853   4.120   4.523
   81DPPC   C45 4045   5.887   4.170   4.383
   81DPPC   C46 4046   5.790   4.085   4.300
   81DPPC   C47 4047   5.774   4.137   4.157
   81DPPC   C48 4048   5.900   4.096   4.080
   81DPPC   C49 4049   5.897   4.154   3.939
   81DPPC   C50 4050   6.023   4.143   3.851
   82DPPC    C1 4051   9.218   5.560   5.462
   82DPPC    C2 4052   9.425   5.464   5.504
   82DPPC    C3 4053   9.240   5.381   5.607
   82DPPC    N4 4054   9.284   5.430   5.476
   82DPPC    C5 4055   9.259   5.350   5.355
   82DPPC    C6 4056   9.315   5.209   5.336
   82DPPC    O7 4057   9.456   5.217   5.316
   82DPPC    P8 4058   9.505   5.073   5.261
   82DPPC    O9 4059   9.436   4.971   5.343
   82DPPC   O10 4060   9.653   5.073   5.255
   82DPPC   O11 4061   9.443   5.088   5.113
   82DPPC   C12 4062   9.539   5.140   5.020
   82DPPC   C13 4063   9.497   5.109   4.876
   82DPPC   O14 4064   9.612   5.096   4.791
   82DPPC   C15 4065   9.674   4.976   4.776
   82DPPC   O16 4066   9.677   4.900   4.873
   82DPPC   C17 4067   9.804   4.983   4.696
   82DPPC   C18 4068   9.767   4.982   4.547
   82DPPC   C19 4069   9.887   4.996   4.454
   82DPPC   C20 4070   9.838   4.993   4.309
   82DPPC   C21 4071   9.964   4.997   4.223
   82DPPC   C22 4072   9.919   4.934   4.091
   82DPPC   C23 4073  10.012   4.988   3.983
   82DPPC   C24 4074  10.007   4.898   3.859
   82DPPC   C25 4075  10.100   4.954   3.751
   82DPPC   C26 4076  10.085   4.887   3.614
   82DPPC   C27 4077  10.174   4.953   3.507
   82DPPC   C28 4078  10.162   4.885   3.371
   82DPPC   C29 4079  10.209   4.971   3.254
   82DPPC   C30 4080  10.115   5.091   3.255
   82DPPC   C31 4081  10.149   5.184   3.138
   82DPPC   C32 4082   9.403   5.225   4.840
   82DPPC   O33 4083   9.309   5.192   4.738
   82DPPC   C34 4084   9.231   5.301   4.711
   82DPPC   O35 4085   9.258   5.414   4.750
   82DPPC   C36 4086   9.124   5.273   4.605
   82DPPC   C37 4087   9.183   5.278   4.464
   82DPPC   C38 4088   9.076   5.226   4.368
   82DPPC   C39 4089   9.084   5.074   4.372
   82DPPC   C40 4090   8.962   5.001   4.315
   82DPPC   C41 4091   8.918   5.049   4.177
   82DPPC   C42 4092   8.990   4.981   4.060
   82DPPC   C43 4093   8.922   5.027   3.930
   82DPPC   C44 4094   9.000   4.957   3.819
   82DPPC   C45 4095   8.952   4.986   3.677
   82DPPC   C46 4096   9.054   4.934   3.575
   82DPPC   C47 4097   9.125   4.800   3.595
   82DPPC   C48 4098   9.020   4.688   3.591
   82DPPC   C49 4099   9.078   4.547   3.584
   82DPPC   C50 4100   9.189   4.539   3.479
   83DPPC    C1 4101   7.631   5.156   5.824
   83DPPC    C2 4102   7.745   4.952   5.829
   83DPPC    C3 4103   7.519   4.952   5.844
   83DPPC    N4 4104   7.627   5.019   5.772
   83DPPC    C5 4105   7.624   5.028   5.625
   83DPPC    C6 4106   7.588   4.908   5.538
   83DPPC    O7 4107   7.692   4.810   5.532
   83DPPC    P8 4108   7.658   4.703   5.416
   83DPPC    O9 4109   7.512   4.682   5.422
   83DPPC   O10 4110   7.761   4.603   5.452
   83DPPC   O11 4111   7.700   4.785   5.284
   83DPPC   C12 4112   7.828   4.743   5.237
   83DPPC   C13 4113   7.927   4.849   5.188
   83DPPC   O14 4114   7.902   4.912   5.062
   83DPPC   C15 4115   7.961   5.033   5.041
   83DPPC   O16 4116   8.039   5.084   5.121
   83DPPC   C17 4117   7.959   5.081   4.896
   83DPPC   C18 4118   7.823   5.137   4.852
   83DPPC   C19 4119   7.798   5.164   4.704
   83DPPC   C20 4120   7.901   5.257   4.638
   83DPPC   C21 4121   7.907   5.248   4.485
   83DPPC   C22 4122   7.781   5.305   4.419
   83DPPC   C23 4123   7.810   5.313   4.269
   83DPPC   C24 4124   7.695   5.374   4.189
   83DPPC   C25 4125   7.723   5.363   4.039
   83DPPC   C26 4126   7.605   5.405   3.950
   83DPPC   C27 4127   7.630   5.386   3.800
   83DPPC   C28 4128   7.502   5.424   3.724
   83DPPC   C29 4129   7.521   5.416   3.572
   83DPPC   C30 4130   7.506   5.277   3.511
   83DPPC   C31 4131   7.538   5.269   3.362
   83DPPC   C32 4132   8.058   4.770   5.189
   83DPPC   O33 4133   8.059   4.651   5.109
   83DPPC   C34 4134   8.184   4.604   5.082
   83DPPC   O35 4135   8.287   4.660   5.117
   83DPPC   C36 4136   8.191   4.475   5.000
   83DPPC   C37 4137   8.311   4.468   4.905
   83DPPC   C38 4138   8.286   4.375   4.786
   83DPPC   C39 4139   8.419   4.349   4.715
   83DPPC   C40 4140   8.483   4.477   4.663
   83DPPC   C41 4141   8.610   4.428   4.593
   83DPPC   C42 4142   8.711   4.543   4.582
   83DPPC   C43 4143   8.825   4.514   4.485
   83DPPC   C44 4144   8.913   4.633   4.446
   83DPPC   C45 4145   9.048   4.580   4.399
   83DPPC   C46 4146   9.042   4.596   4.247
   83DPPC   C47 4147   9.170   4.548   4.177
   83DPPC   C48 4148   9.177   4.576   4.027
   83DPPC   C49 4149   9.320   4.540   3.986
   83DPPC   C50 4150   9.353   4.567   3.839
   84DPPC    C1 4151   0.894   7.101   4.590
   84DPPC    C2 4152   0.709   7.162   4.464
   84DPPC    C3 4153   0.761   6.928   4.491
   84DPPC    N4 4154   0.756   7.059   4.558
   84DPPC    C5 4155   0.670   7.071   4.676
   84DPPC    C6 4156   0.536   6.998   4.683
   84DPPC    O7 4157   0.422   7.042   4.608
   84DPPC    P8 4158   0.295   6.958   4.661
   84DPPC    O9 4159   0.276   6.980   4.806
   84DPPC   O10 4160   0.332   6.823   4.613
   84DPPC   O11 4161   0.175   7.025   4.578
   84DPPC   C12 4162   0.141   6.929   4.478
   84DPPC   C13 4163   0.021   6.982   4.399
   84DPPC   O14 4164  -0.025   6.890   4.299
   84DPPC   C15 4165  -0.080   6.769   4.328
   84DPPC   O16 4166  -0.042   6.705   4.426
   84DPPC   C17 4167  -0.161   6.710   4.212
   84DPPC   C18 4168  -0.109   6.765   4.079
   84DPPC   C19 4169  -0.216   6.742   3.972
   84DPPC   C20 4170  -0.338   6.812   4.033
   84DPPC   C21 4171  -0.463   6.769   3.956
   84DPPC   C22 4172  -0.581   6.782   4.051
   84DPPC   C23 4173  -0.700   6.707   3.990
   84DPPC   C24 4174  -0.832   6.752   4.054
   84DPPC   C25 4175  -0.956   6.676   4.008
   84DPPC   C26 4176  -1.085   6.718   4.078
   84DPPC   C27 4177  -1.206   6.631   4.044
   84DPPC   C28 4178  -1.324   6.700   4.113
   84DPPC   C29 4179  -1.460   6.631   4.098
   84DPPC   C30 4180  -1.550   6.706   4.196
   84DPPC   C31 4181  -1.701   6.685   4.182
   84DPPC   C32 4182   0.048   7.118   4.336
   84DPPC   O33 4183   0.117   7.129   4.212
   84DPPC   C34 4184   0.139   7.260   4.181
   84DPPC   O35 4185   0.086   7.353   4.241
   84DPPC   C36 4186   0.186   7.280   4.036
   84DPPC   C37 4187   0.329   7.228   4.020
   84DPPC   C38 4188   0.374   7.238   3.874
   84DPPC   C39 4189   0.280   7.156   3.785
   84DPPC   C40 4190   0.280   7.017   3.848
   84DPPC   C41 4191   0.203   6.923   3.757
   84DPPC   C42 4192   0.228   6.776   3.793
   84DPPC   C43 4193   0.379   6.749   3.784
   84DPPC   C44 4194   0.412   6.609   3.835
   84DPPC   C45 4195   0.561   6.607   3.873
   84DPPC   C46 4196   0.594   6.725   3.964
   84DPPC   C47 4197   0.733   6.698   4.022
   84DPPC   C48 4198   0.822   6.681   3.898
   84DPPC   C49 4199   0.951   6.762   3.903
   84DPPC   C50 4200   1.033   6.749   3.774
   85DPPC    C1 4201   8.340   7.349   4.716
   85DPPC    C2 4202   8.269   7.407   4.927
   85DPPC    C3 4203   8.428   7.234   4.889
   85DPPC    N4 4204   8.391   7.371   4.852
   85DPPC    C5 4205   8.492   7.476   4.837
   85DPPC    C6 4206   8.583   7.531   4.948
   85DPPC    O7 4207   8.696   7.449   4.978
   85DPPC    P8 4208   8.836   7.529   4.982
   85DPPC    O9 4209   8.929   7.432   5.042
   85DPPC   O10 4210   8.803   7.662   5.038
   85DPPC   O11 4211   8.850   7.527   4.821
   85DPPC   C12 4212   8.878   7.392   4.784
   85DPPC   C13 4213   8.876   7.363   4.634
   85DPPC   O14 4214   8.847   7.226   4.604
   85DPPC   C15 4215   8.722   7.180   4.579
   85DPPC   O16 4216   8.623   7.240   4.620
   85DPPC   C17 4217   8.715   7.051   4.496
   85DPPC   C18 4218   8.582   7.019   4.428
   85DPPC   C19 4219   8.512   6.912   4.512
   85DPPC   C20 4220   8.375   6.884   4.449
   85DPPC   C21 4221   8.282   6.999   4.487
   85DPPC   C22 4222   8.145   6.983   4.421
   85DPPC   C23 4223   8.024   7.060   4.474
   85DPPC   C24 4224   7.920   7.044   4.363
   85DPPC   C25 4225   7.965   7.084   4.222
   85DPPC   C26 4226   7.853   7.076   4.119
   85DPPC   C27 4227   7.894   7.134   3.984
   85DPPC   C28 4228   8.016   7.070   3.919
   85DPPC   C29 4229   8.029   7.102   3.770
   85DPPC   C30 4230   8.154   7.033   3.714
   85DPPC   C31 4231   8.173   7.071   3.567
   85DPPC   C32 4232   9.007   7.419   4.578
   85DPPC   O33 4233   9.014   7.458   4.441
   85DPPC   C34 4234   9.128   7.521   4.400
   85DPPC   O35 4235   9.214   7.564   4.477
   85DPPC   C36 4236   9.133   7.548   4.250
   85DPPC   C37 4237   9.275   7.574   4.200
   85DPPC   C38 4238   9.283   7.651   4.068
   85DPPC   C39 4239   9.428   7.662   4.018
   85DPPC   C40 4240   9.431   7.725   3.879
   85DPPC   C41 4241   9.541   7.664   3.793
   85DPPC   C42 4242   9.530   7.711   3.648
   85DPPC   C43 4243   9.633   7.624   3.576
   85DPPC   C44 4244   9.646   7.626   3.423
   85DPPC   C45 4245   9.760   7.535   3.377
   85DPPC   C46 4246   9.735   7.387   3.407
   85DPPC   C47 4247   9.826   7.281   3.346
   85DPPC   C48 4248   9.752   7.149   3.368
   85DPPC   C49 4249   9.790   7.036   3.272
   85DPPC   C50 4250   9.938   7.006   3.294
   86DPPC    C1 4251   7.212   7.226   5.515
   86DPPC    C2 4252   7.419   7.192   5.376
   86DPPC    C3 4253   7.388   7.355   5.541
   86DPPC    N4 4254   7.359   7.215   5.508
   86DPPC    C5 4255   7.421   7.131   5.611
   86DPPC    C6 4256   7.412   6.979   5.591
   86DPPC    O7 4257   7.279   6.928   5.575
   86DPPC    P8 4258   7.290   6.770   5.543
   86DPPC    O9 4259   7.189   6.726   5.641
   86DPPC   O10 4260   7.431   6.726   5.542
   86DPPC   O11 4261   7.222   6.791   5.399
   86DPPC   C12 4262   7.308   6.786   5.285
   86DPPC   C13 4263   7.231   6.766   5.155
   86DPPC   O14 4264   7.322   6.771   5.044
   86DPPC   C15 4265   7.286   6.699   4.934
   86DPPC   O16 4266   7.197   6.615   4.945
   86DPPC   C17 4267   7.401   6.691   4.833
   86DPPC   C18 4268   7.362   6.641   4.694
   86DPPC   C19 4269   7.459   6.692   4.587
   86DPPC   C20 4270   7.393   6.663   4.452
   86DPPC   C21 4271   7.478   6.724   4.340
   86DPPC   C22 4272   7.455   6.875   4.332
   86DPPC   C23 4273   7.350   6.938   4.241
   86DPPC   C24 4274   7.354   7.090   4.262
   86DPPC   C25 4275   7.265   7.171   4.168
   86DPPC   C26 4276   7.320   7.164   4.026
   86DPPC   C27 4277   7.232   7.259   3.945
   86DPPC   C28 4278   7.288   7.292   3.806
   86DPPC   C29 4279   7.335   7.180   3.715
   86DPPC   C30 4280   7.407   7.228   3.588
   86DPPC   C31 4281   7.302   7.291   3.496
   86DPPC   C32 4282   7.115   6.865   5.145
   86DPPC   O33 4283   7.147   7.003   5.130
   86DPPC   C34 4284   7.042   7.088   5.150
   86DPPC   O35 4285   6.928   7.046   5.170
   86DPPC   C36 4286   7.085   7.234   5.166
   86DPPC   C37 4287   7.076   7.306   5.031
   86DPPC   C38 4288   6.936   7.347   4.984
   86DPPC   C39 4289   6.941   7.393   4.839
   86DPPC   C40 4290   7.029   7.518   4.841
   86DPPC   C41 4291   7.117   7.516   4.715
   86DPPC   C42 4292   7.194   7.646   4.692
   86DPPC   C43 4293   7.291   7.667   4.809
   86DPPC   C44 4294   7.375   7.793   4.786
   86DPPC   C45 4295   7.270   7.905   4.787
   86DPPC   C46 4296   7.313   8.038   4.723
   86DPPC   C47 4297   7.211   8.152   4.728
   86DPPC   C48 4298   7.291   8.265   4.663
   86DPPC   C49 4299   7.201   8.389   4.667
   86DPPC   C50 4300   7.259   8.486   4.564
   87DPPC    C1 4301   5.237   4.550   5.928
   87DPPC    C2 4302   5.081   4.413   6.037
   87DPPC    C3 4303   5.023   4.573   5.877
   87DPPC    N4 4304   5.119   4.466   5.905
   87DPPC    C5 4305   5.133   4.372   5.793
   87DPPC    C6 4306   5.249   4.273   5.791
   87DPPC    O7 4307   5.214   4.166   5.879
   87DPPC    P8 4308   5.332   4.059   5.903
   87DPPC    O9 4309   5.265   3.927   5.916
   87DPPC   O10 4310   5.409   4.126   6.010
   87DPPC   O11 4311   5.400   4.071   5.758
   87DPPC   C12 4312   5.363   3.959   5.677
   87DPPC   C13 4313   5.295   3.995   5.545
   87DPPC   O14 4314   5.247   3.880   5.474
   87DPPC   C15 4315   5.116   3.846   5.490
   87DPPC   O16 4316   5.044   3.886   5.581
   87DPPC   C17 4317   5.065   3.729   5.406
   87DPPC   C18 4318   4.943   3.754   5.318
   87DPPC   C19 4319   4.902   3.641   5.223
   87DPPC   C20 4320   5.010   3.621   5.116
   87DPPC   C21 4321   4.963   3.511   5.020
   87DPPC   C22 4322   5.079   3.481   4.925
   87DPPC   C23 4323   5.124   3.612   4.861
   87DPPC   C24 4324   5.248   3.590   4.773
   87DPPC   C25 4325   5.220   3.537   4.632
   87DPPC   C26 4326   5.131   3.634   4.554
   87DPPC   C27 4327   5.090   3.567   4.422
   87DPPC   C28 4328   4.972   3.635   4.351
   87DPPC   C29 4329   4.942   3.551   4.226
   87DPPC   C30 4330   4.810   3.606   4.172
   87DPPC   C31 4331   4.779   3.547   4.035
   87DPPC   C32 4332   5.385   4.092   5.469
   87DPPC   O33 4333   5.302   4.173   5.386
   87DPPC   C34 4334   5.372   4.240   5.290
   87DPPC   O35 4335   5.495   4.237   5.286
   87DPPC   C36 4336   5.289   4.286   5.170
   87DPPC   C37 4337   5.272   4.175   5.065
   87DPPC   C38 4338   5.187   4.062   5.123
   87DPPC   C39 4339   5.138   3.962   5.018
   87DPPC   C40 4340   5.033   4.033   4.933
   87DPPC   C41 4341   4.977   3.945   4.821
   87DPPC   C42 4342   4.854   4.000   4.748
   87DPPC   C43 4343   4.842   3.940   4.608
   87DPPC   C44 4344   4.712   3.998   4.553
   87DPPC   C45 4345   4.703   3.957   4.406
   87DPPC   C46 4346   4.601   4.050   4.340
   87DPPC   C47 4347   4.588   4.039   4.188
   87DPPC   C48 4348   4.556   3.893   4.157
   87DPPC   C49 4349   4.527   3.891   4.007
   87DPPC   C50 4350   4.411   3.975   3.954
   88DPPC    C1 4351   7.978   6.601   5.401
   88DPPC    C2 4352   7.845   6.417   5.472
   88DPPC    C3 4353   7.869   6.618   5.606
   88DPPC    N4 4354   7.854   6.564   5.471
   88DPPC    C5 4355   7.736   6.607   5.393
   88DPPC    C6 4356   7.696   6.754   5.386
   88DPPC    O7 4357   7.796   6.839   5.329
   88DPPC    P8 4358   7.752   6.994   5.329
   88DPPC    O9 4359   7.871   7.069   5.284
   88DPPC   O10 4360   7.676   7.026   5.452
   88DPPC   O11 4361   7.648   6.984   5.206
   88DPPC   C12 4362   7.713   6.939   5.087
   88DPPC   C13 4363   7.639   6.905   4.957
   88DPPC   O14 4364   7.728   6.878   4.847
   88DPPC   C15 4365   7.780   6.755   4.823
   88DPPC   O16 4366   7.772   6.678   4.918
   88DPPC   C17 4367   7.833   6.718   4.684
   88DPPC   C18 4368   7.822   6.568   4.654
   88DPPC   C19 4369   7.928   6.541   4.546
   88DPPC   C20 4370   7.925   6.395   4.501
   88DPPC   C21 4371   8.036   6.381   4.397
   88DPPC   C22 4372   7.989   6.311   4.269
   88DPPC   C23 4373   8.114   6.262   4.197
   88DPPC   C24 4374   8.079   6.204   4.059
   88DPPC   C25 4375   8.198   6.142   3.987
   88DPPC   C26 4376   8.169   6.132   3.837
   88DPPC   C27 4377   8.291   6.082   3.759
   88DPPC   C28 4378   8.247   6.013   3.630
   88DPPC   C29 4379   8.182   6.114   3.536
   88DPPC   C30 4380   8.171   6.075   3.389
   88DPPC   C31 4381   8.151   6.188   3.287
   88DPPC   C32 4382   7.552   7.028   4.933
   88DPPC   O33 4383   7.433   7.010   4.855
   88DPPC   C34 4384   7.352   7.120   4.859
   88DPPC   O35 4385   7.394   7.220   4.916
   88DPPC   C36 4386   7.210   7.100   4.807
   88DPPC   C37 4387   7.201   7.121   4.656
   88DPPC   C38 4388   7.066   7.081   4.596
   88DPPC   C39 4389   7.043   6.930   4.605
   88DPPC   C40 4390   6.896   6.900   4.571
   88DPPC   C41 4391   6.878   6.756   4.618
   88DPPC   C42 4392   6.730   6.716   4.622
   88DPPC   C43 4393   6.668   6.714   4.482
   88DPPC   C44 4394   6.532   6.645   4.471
   88DPPC   C45 4395   6.448   6.686   4.349
   88DPPC   C46 4396   6.358   6.569   4.310
   88DPPC   C47 4397   6.294   6.592   4.173
   88DPPC   C48 4398   6.208   6.468   4.144
   88DPPC   C49 4399   6.288   6.343   4.179
   88DPPC   C50 4400   6.226   6.221   4.109
   89DPPC    C1 4401   8.947   1.096   5.614
   89DPPC    C2 4402   9.001   1.318   5.629
   89DPPC    C3 4403   9.072   1.203   5.445
   89DPPC    N4 4404   8.955   1.218   5.532
   89DPPC    C5 4405   8.844   1.256   5.444
   89DPPC    C6 4406   8.704   1.302   5.486
   89DPPC    O7 4407   8.716   1.385   5.602
   89DPPC    P8 4408   8.584   1.477   5.611
   89DPPC    O9 4409   8.614   1.593   5.698
   89DPPC   O10 4410   8.476   1.378   5.628
   89DPPC   O11 4411   8.589   1.524   5.457
   89DPPC   C12 4412   8.484   1.609   5.410
   89DPPC   C13 4413   8.529   1.682   5.284
   89DPPC   O14 4414   8.423   1.770   5.243
   89DPPC   C15 4415   8.425   1.903   5.269
   89DPPC   O16 4416   8.487   1.942   5.368
   89DPPC   C17 4417   8.338   1.994   5.181
   89DPPC   C18 4418   8.319   1.949   5.036
   89DPPC   C19 4419   8.252   2.049   4.942
   89DPPC   C20 4420   8.223   1.987   4.805
   89DPPC   C21 4421   8.157   2.086   4.709
   89DPPC   C22 4422   8.025   2.134   4.770
   89DPPC   C23 4423   7.968   2.220   4.658
   89DPPC   C24 4424   7.837   2.282   4.707
   89DPPC   C25 4425   7.761   2.367   4.605
   89DPPC   C26 4426   7.716   2.279   4.488
   89DPPC   C27 4427   7.618   2.358   4.401
   89DPPC   C28 4428   7.670   2.489   4.341
   89DPPC   C29 4429   7.566   2.541   4.241
   89DPPC   C30 4430   7.624   2.672   4.188
   89DPPC   C31 4431   7.753   2.657   4.108
   89DPPC   C32 4432   8.574   1.583   5.176
   89DPPC   O33 4433   8.643   1.656   5.074
   89DPPC   C34 4434   8.672   1.597   4.955
   89DPPC   O35 4435   8.636   1.480   4.940
   89DPPC   C36 4436   8.750   1.671   4.845
   89DPPC   C37 4437   8.652   1.740   4.750
   89DPPC   C38 4438   8.717   1.865   4.691
   89DPPC   C39 4439   8.729   1.874   4.539
   89DPPC   C40 4440   8.594   1.893   4.469
   89DPPC   C41 4441   8.622   1.933   4.323
   89DPPC   C42 4442   8.499   1.909   4.236
   89DPPC   C43 4443   8.370   1.954   4.306
   89DPPC   C44 4444   8.252   1.897   4.227
   89DPPC   C45 4445   8.132   1.968   4.289
   89DPPC   C46 4446   8.006   1.927   4.211
   89DPPC   C47 4447   7.874   1.960   4.279
   89DPPC   C48 4448   7.765   1.894   4.194
   89DPPC   C49 4449   7.629   1.947   4.242
   89DPPC   C50 4450   7.525   1.910   4.136
   90DPPC    C1 4451   6.130   3.042   6.108
   90DPPC    C2 4452   5.970   3.208   6.015
   90DPPC    C3 4453   6.097   3.256   6.182
   90DPPC    N4 4454   6.108   3.178   6.058
   90DPPC    C5 4455   6.208   3.228   5.963
   90DPPC    C6 4456   6.238   3.378   5.955
   90DPPC    O7 4457   6.143   3.454   5.880
   90DPPC    P8 4458   6.145   3.609   5.922
   90DPPC    O9 4459   6.170   3.605   6.068
   90DPPC   O10 4460   6.045   3.695   5.855
   90DPPC   O11 4461   6.286   3.636   5.849
   90DPPC   C12 4462   6.264   3.643   5.708
   90DPPC   C13 4463   6.391   3.645   5.622
   90DPPC   O14 4464   6.375   3.687   5.486
   90DPPC   C15 4465   6.311   3.803   5.453
   90DPPC   O16 4466   6.299   3.895   5.533
   90DPPC   C17 4467   6.284   3.825   5.304
   90DPPC   C18 4468   6.160   3.747   5.260
   90DPPC   C19 4469   6.104   3.797   5.126
   90DPPC   C20 4470   6.198   3.817   5.007
   90DPPC   C21 4471   6.136   3.858   4.873
   90DPPC   C22 4472   6.243   3.913   4.778
   90DPPC   C23 4473   6.205   3.941   4.633
   90DPPC   C24 4474   6.323   3.985   4.546
   90DPPC   C25 4475   6.279   4.013   4.402
   90DPPC   C26 4476   6.396   3.989   4.306
   90DPPC   C27 4477   6.355   4.025   4.163
   90DPPC   C28 4478   6.477   4.006   4.074
   90DPPC   C29 4479   6.448   3.971   3.927
   90DPPC   C30 4480   6.408   3.825   3.906
   90DPPC   C31 4481   6.540   3.748   3.909
   90DPPC   C32 4482   6.470   3.515   5.634
   90DPPC   O33 4483   6.395   3.396   5.606
   90DPPC   C34 4484   6.460   3.279   5.627
   90DPPC   O35 4485   6.559   3.280   5.700
   90DPPC   C36 4486   6.383   3.147   5.616
   90DPPC   C37 4487   6.406   3.070   5.486
   90DPPC   C38 4488   6.294   2.966   5.477
   90DPPC   C39 4489   6.282   2.902   5.339
   90DPPC   C40 4490   6.171   2.797   5.338
   90DPPC   C41 4491   6.170   2.731   5.199
   90DPPC   C42 4492   6.078   2.614   5.168
   90DPPC   C43 4493   6.070   2.586   5.018
   90DPPC   C44 4494   6.025   2.701   4.927
   90DPPC   C45 4495   6.038   2.645   4.785
   90DPPC   C46 4496   6.013   2.745   4.672
   90DPPC   C47 4497   6.078   2.691   4.545
   90DPPC   C48 4498   5.984   2.710   4.426
   90DPPC   C49 4499   6.016   2.601   4.324
   90DPPC   C50 4500   6.157   2.622   4.269
   91DPPC    C1 4501   4.569   7.048   5.533
   91DPPC    C2 4502   4.513   7.185   5.705
   91DPPC    C3 4503   4.700   7.254   5.586
   91DPPC    N4 4504   4.568   7.190   5.569
   91DPPC    C5 4505   4.467   7.271   5.498
   91DPPC    C6 4506   4.500   7.273   5.349
   91DPPC    O7 4507   4.409   7.366   5.290
   91DPPC    P8 4508   4.363   7.314   5.145
   91DPPC    O9 4509   4.294   7.432   5.088
   91DPPC   O10 4510   4.291   7.188   5.177
   91DPPC   O11 4511   4.504   7.263   5.086
   91DPPC   C12 4512   4.508   7.331   4.960
   91DPPC   C13 4513   4.626   7.281   4.877
   91DPPC   O14 4514   4.669   7.358   4.763
   91DPPC   C15 4515   4.747   7.469   4.774
   91DPPC   O16 4516   4.792   7.516   4.878
   91DPPC   C17 4517   4.812   7.504   4.640
   91DPPC   C18 4518   4.779   7.423   4.514
   91DPPC   C19 4519   4.873   7.456   4.398
   91DPPC   C20 4520   4.815   7.403   4.267
   91DPPC   C21 4521   4.887   7.472   4.151
   91DPPC   C22 4522   4.879   7.390   4.022
   91DPPC   C23 4523   4.946   7.456   3.902
   91DPPC   C24 4524   4.968   7.365   3.781
   91DPPC   C25 4525   5.017   7.450   3.664
   91DPPC   C26 4526   5.031   7.356   3.544
   91DPPC   C27 4527   5.130   7.240   3.561
   91DPPC   C28 4528   5.173   7.192   3.422
   91DPPC   C29 4529   5.280   7.082   3.424
   91DPPC   C30 4530   5.360   7.068   3.295
   91DPPC   C31 4531   5.272   7.019   3.180
   91DPPC   C32 4532   4.609   7.131   4.852
   91DPPC   O33 4533   4.471   7.094   4.842
   91DPPC   C34 4534   4.442   6.967   4.802
   91DPPC   O35 4535   4.526   6.880   4.828
   91DPPC   C36 4536   4.309   6.940   4.733
   91DPPC   C37 4537   4.328   6.838   4.620
   91DPPC   C38 4538   4.185   6.806   4.574
   91DPPC   C39 4539   4.199   6.710   4.456
   91DPPC   C40 4540   4.262   6.803   4.352
   91DPPC   C41 4541   4.304   6.723   4.229
   91DPPC   C42 4542   4.190   6.637   4.174
   91DPPC   C43 4543   4.241   6.547   4.061
   91DPPC   C44 4544   4.365   6.471   4.108
   91DPPC   C45 4545   4.386   6.353   4.012
   91DPPC   C46 4546   4.406   6.395   3.866
   91DPPC   C47 4547   4.427   6.276   3.773
   91DPPC   C48 4548   4.391   6.328   3.634
   91DPPC   C49 4549   4.395   6.205   3.542
   91DPPC   C50 4550   4.364   6.238   3.396
   92DPPC    C1 4551   1.912   5.902   5.397
   92DPPC    C2 4552   1.886   6.131   5.483
   92DPPC    C3 4553   1.854   5.957   5.621
   92DPPC    N4 4554   1.938   5.995   5.507
   92DPPC    C5 4555   2.079   5.994   5.550
   92DPPC    C6 4556   2.178   6.039   5.443
   92DPPC    O7 4557   2.238   5.930   5.373
   92DPPC    P8 4558   2.359   5.975   5.276
   92DPPC    O9 4559   2.372   5.846   5.206
   92DPPC   O10 4560   2.437   6.018   5.394
   92DPPC   O11 4561   2.268   6.078   5.191
   92DPPC   C12 4562   2.229   6.004   5.075
   92DPPC   C13 4563   2.145   6.078   4.971
   92DPPC   O14 4564   2.108   5.993   4.861
   92DPPC   C15 4565   1.976   5.962   4.854
   92DPPC   O16 4566   1.898   6.036   4.914
   92DPPC   C17 4567   1.932   5.848   4.762
   92DPPC   C18 4568   1.921   5.899   4.618
   92DPPC   C19 4569   1.942   5.768   4.543
   92DPPC   C20 4570   1.913   5.807   4.398
   92DPPC   C21 4571   1.892   5.682   4.312
   92DPPC   C22 4572   1.850   5.722   4.170
   92DPPC   C23 4573   1.846   5.599   4.079
   92DPPC   C24 4574   1.747   5.498   4.138
   92DPPC   C25 4575   1.734   5.384   4.037
   92DPPC   C26 4576   1.613   5.300   4.081
   92DPPC   C27 4577   1.588   5.214   3.958
   92DPPC   C28 4578   1.605   5.298   3.831
   92DPPC   C29 4579   1.550   5.209   3.720
   92DPPC   C30 4580   1.571   5.244   3.573
   92DPPC   C31 4581   1.527   5.391   3.564
   92DPPC   C32 4582   2.229   6.202   4.939
   92DPPC   O33 4583   2.365   6.181   4.899
   92DPPC   C34 4584   2.449   6.287   4.886
   92DPPC   O35 4585   2.455   6.390   4.952
   92DPPC   C36 4586   2.580   6.256   4.813
   92DPPC   C37 4587   2.636   6.376   4.737
   92DPPC   C38 4588   2.780   6.350   4.693
   92DPPC   C39 4589   2.794   6.238   4.590
   92DPPC   C40 4590   2.710   6.274   4.467
   92DPPC   C41 4591   2.748   6.180   4.353
   92DPPC   C42 4592   2.729   6.031   4.383
   92DPPC   C43 4593   2.730   5.953   4.251
   92DPPC   C44 4594   2.681   5.812   4.286
   92DPPC   C45 4595   2.781   5.739   4.375
   92DPPC   C46 4596   2.742   5.595   4.412
   92DPPC   C47 4597   2.834   5.529   4.515
   92DPPC   C48 4598   2.793   5.392   4.569
   92DPPC   C49 4599   2.893   5.335   4.670
   92DPPC   C50 4600   2.837   5.202   4.720
   93DPPC    C1 4601   1.392   2.689   5.027
   93DPPC    C2 4602   1.305   2.872   4.908
   93DPPC    C3 4603   1.177   2.666   4.946
   93DPPC    N4 4604   1.268   2.766   5.003
   93DPPC    C5 4605   1.217   2.799   5.137
   93DPPC    C6 4606   1.284   2.916   5.211
   93DPPC    O7 4607   1.215   3.036   5.176
   93DPPC    P8 4608   1.292   3.161   5.242
   93DPPC    O9 4609   1.377   3.108   5.351
   93DPPC   O10 4610   1.181   3.255   5.272
   93DPPC   O11 4611   1.370   3.202   5.107
   93DPPC   C12 4612   1.272   3.245   5.013
   93DPPC   C13 4613   1.308   3.363   4.922
   93DPPC   O14 4614   1.217   3.413   4.823
   93DPPC   C15 4615   1.110   3.490   4.856
   93DPPC   O16 4616   1.075   3.513   4.972
   93DPPC   C17 4617   1.027   3.532   4.735
   93DPPC   C18 4618   0.890   3.463   4.739
   93DPPC   C19 4619   0.797   3.505   4.625
   93DPPC   C20 4620   0.868   3.478   4.492
   93DPPC   C21 4621   0.807   3.512   4.356
   93DPPC   C22 4622   0.781   3.662   4.336
   93DPPC   C23 4623   0.721   3.697   4.200
   93DPPC   C24 4624   0.826   3.682   4.089
   93DPPC   C25 4625   0.772   3.732   3.955
   93DPPC   C26 4626   0.658   3.637   3.917
   93DPPC   C27 4627   0.591   3.658   3.781
   93DPPC   C28 4628   0.682   3.635   3.660
   93DPPC   C29 4629   0.598   3.666   3.535
   93DPPC   C30 4630   0.679   3.604   3.421
   93DPPC   C31 4631   0.611   3.644   3.290
   93DPPC   C32 4632   1.435   3.311   4.854
   93DPPC   O33 4633   1.410   3.208   4.758
   93DPPC   C34 4634   1.505   3.184   4.664
   93DPPC   O35 4635   1.624   3.209   4.684
   93DPPC   C36 4636   1.473   3.085   4.552
   93DPPC   C37 4637   1.331   3.099   4.497
   93DPPC   C38 4638   1.301   2.994   4.390
   93DPPC   C39 4639   1.388   3.007   4.264
   93DPPC   C40 4640   1.351   2.899   4.163
   93DPPC   C41 4641   1.434   2.914   4.035
   93DPPC   C42 4642   1.368   2.826   3.929
   93DPPC   C43 4643   1.439   2.824   3.794
   93DPPC   C44 4644   1.360   2.911   3.695
   93DPPC   C45 4645   1.445   2.939   3.571
   93DPPC   C46 4646   1.357   3.035   3.490
   93DPPC   C47 4647   1.423   3.123   3.385
   93DPPC   C48 4648   1.441   3.054   3.250
   93DPPC   C49 4649   1.472   3.138   3.126
   93DPPC   C50 4650   1.494   3.065   2.993
   94DPPC    C1 4651   3.529   6.440   5.407
   94DPPC    C2 4652   3.623   6.543   5.611
   94DPPC    C3 4653   3.392   6.530   5.585
   94DPPC    N4 4654   3.517   6.460   5.552
   94DPPC    C5 4655   3.503   6.327   5.613
   94DPPC    C6 4656   3.626   6.238   5.635
   94DPPC    O7 4657   3.697   6.205   5.515
   94DPPC    P8 4658   3.816   6.107   5.560
   94DPPC    O9 4659   3.736   6.006   5.632
   94DPPC   O10 4660   3.901   6.206   5.632
   94DPPC   O11 4661   3.852   6.079   5.406
   94DPPC   C12 4662   3.918   6.195   5.355
   94DPPC   C13 4663   3.936   6.188   5.203
   94DPPC   O14 4664   3.821   6.243   5.137
   94DPPC   C15 4665   3.820   6.377   5.113
   94DPPC   O16 4666   3.908   6.450   5.158
   94DPPC   C17 4667   3.692   6.432   5.050
   94DPPC   C18 4668   3.732   6.525   4.935
   94DPPC   C19 4669   3.597   6.558   4.871
   94DPPC   C20 4670   3.618   6.659   4.758
   94DPPC   C21 4671   3.490   6.685   4.679
   94DPPC   C22 4672   3.530   6.792   4.577
   94DPPC   C23 4673   3.647   6.749   4.489
   94DPPC   C24 4674   3.609   6.629   4.402
   94DPPC   C25 4675   3.695   6.614   4.276
   94DPPC   C26 4676   3.699   6.471   4.222
   94DPPC   C27 4677   3.748   6.481   4.078
   94DPPC   C28 4678   3.808   6.345   4.039
   94DPPC   C29 4679   3.705   6.234   4.065
   94DPPC   C30 4680   3.634   6.202   3.934
   94DPPC   C31 4681   3.545   6.079   3.954
   94DPPC   C32 4682   3.967   6.044   5.164
   94DPPC   O33 4683   4.021   6.012   5.035
   94DPPC   C34 4684   4.075   5.888   5.042
   94DPPC   O35 4685   4.065   5.829   5.150
   94DPPC   C36 4686   4.157   5.843   4.921
   94DPPC   C37 4687   4.076   5.737   4.846
   94DPPC   C38 4688   4.117   5.754   4.700
   94DPPC   C39 4689   4.247   5.680   4.668
   94DPPC   C40 4690   4.285   5.744   4.534
   94DPPC   C41 4691   4.177   5.704   4.433
   94DPPC   C42 4692   4.235   5.741   4.296
   94DPPC   C43 4693   4.361   5.664   4.256
   94DPPC   C44 4694   4.367   5.678   4.104
   94DPPC   C45 4695   4.489   5.603   4.049
   94DPPC   C46 4696   4.503   5.609   3.897
   94DPPC   C47 4697   4.600   5.501   3.849
   94DPPC   C48 4698   4.648   5.525   3.705
   94DPPC   C49 4699   4.714   5.397   3.652
   94DPPC   C50 4700   4.748   5.419   3.504
   95DPPC    C1 4701   1.166   1.774   5.566
   95DPPC    C2 4702   1.007   1.692   5.417
   95DPPC    C3 4703   0.946   1.798   5.623
   95DPPC    N4 4704   1.035   1.805   5.507
   95DPPC    C5 4705   1.033   1.930   5.429
   95DPPC    C6 4706   1.041   2.061   5.508
   95DPPC    O7 4707   1.176   2.105   5.528
   95DPPC    P8 4708   1.166   2.250   5.597
   95DPPC    O9 4709   1.309   2.279   5.616
   95DPPC   O10 4710   1.080   2.234   5.716
   95DPPC   O11 4711   1.107   2.327   5.469
   95DPPC   C12 4712   1.209   2.357   5.373
   95DPPC   C13 4713   1.145   2.401   5.242
   95DPPC   O14 4714   1.229   2.413   5.126
   95DPPC   C15 4715   1.256   2.294   5.067
   95DPPC   O16 4716   1.205   2.193   5.115
   95DPPC   C17 4717   1.374   2.283   4.970
   95DPPC   C18 4718   1.375   2.156   4.884
   95DPPC   C19 4719   1.255   2.160   4.789
   95DPPC   C20 4720   1.239   2.021   4.726
   95DPPC   C21 4721   1.123   2.021   4.627
   95DPPC   C22 4722   1.107   1.880   4.569
   95DPPC   C23 4723   0.990   1.883   4.471
   95DPPC   C24 4724   1.031   1.967   4.350
   95DPPC   C25 4725   0.919   1.965   4.245
   95DPPC   C26 4726   0.971   1.920   4.109
   95DPPC   C27 4727   0.854   1.909   4.011
   95DPPC   C28 4728   0.915   1.879   3.874
   95DPPC   C29 4729   0.814   1.842   3.765
   95DPPC   C30 4730   0.902   1.791   3.650
   95DPPC   C31 4731   0.799   1.759   3.541
   95DPPC   C32 4732   1.065   2.517   5.300
   95DPPC   O33 4733   0.991   2.590   5.202
   95DPPC   C34 4734   0.868   2.627   5.247
   95DPPC   O35 4735   0.822   2.554   5.335
   95DPPC   C36 4736   0.792   2.743   5.182
   95DPPC   C37 4737   0.822   2.759   5.033
   95DPPC   C38 4738   0.741   2.877   4.979
   95DPPC   C39 4739   0.798   2.900   4.839
   95DPPC   C40 4740   0.881   3.028   4.829
   95DPPC   C41 4741   0.948   3.035   4.692
   95DPPC   C42 4742   0.855   3.087   4.582
   95DPPC   C43 4743   0.934   3.091   4.451
   95DPPC   C44 4744   0.837   3.125   4.337
   95DPPC   C45 4745   0.921   3.156   4.213
   95DPPC   C46 4746   0.840   3.191   4.088
   95DPPC   C47 4747   0.925   3.229   3.967
   95DPPC   C48 4748   0.846   3.252   3.838
   95DPPC   C49 4749   0.769   3.125   3.799
   95DPPC   C50 4750   0.851   3.001   3.762
   96DPPC    C1 4751   2.055   7.957   4.693
   96DPPC    C2 4752   2.032   7.865   4.916
   96DPPC    C3 4753   2.201   7.783   4.765
   96DPPC    N4 4754   2.126   7.902   4.809
   96DPPC    C5 4755   2.218   8.009   4.849
   96DPPC    C6 4756   2.335   7.978   4.943
   96DPPC    O7 4757   2.389   8.099   4.996
   96DPPC    P8 4758   2.543   8.097   5.041
   96DPPC    O9 4759   2.565   7.960   5.091
   96DPPC   O10 4760   2.559   8.218   5.125
   96DPPC   O11 4761   2.599   8.112   4.891
   96DPPC   C12 4762   2.604   8.252   4.860
   96DPPC   C13 4763   2.681   8.276   4.730
   96DPPC   O14 4764   2.624   8.383   4.653
   96DPPC   C15 4765   2.668   8.510   4.675
   96DPPC   O16 4766   2.711   8.543   4.786
   96DPPC   C17 4767   2.609   8.616   4.582
   96DPPC   C18 4768   2.700   8.625   4.459
   96DPPC   C19 4769   2.619   8.699   4.352
   96DPPC   C20 4770   2.491   8.624   4.318
   96DPPC   C21 4771   2.413   8.693   4.206
   96DPPC   C22 4772   2.297   8.608   4.153
   96DPPC   C23 4773   2.267   8.632   4.004
   96DPPC   C24 4774   2.213   8.769   3.964
   96DPPC   C25 4775   2.183   8.778   3.814
   96DPPC   C26 4776   2.150   8.921   3.769
   96DPPC   C27 4777   2.189   8.932   3.622
   96DPPC   C28 4778   2.143   9.072   3.579
   96DPPC   C29 4779   2.182   9.108   3.436
   96DPPC   C30 4780   2.334   9.090   3.439
   96DPPC   C31 4781   2.385   9.082   3.295
   96DPPC   C32 4782   2.685   8.150   4.644
   96DPPC   O33 4783   2.764   8.152   4.525
   96DPPC   C34 4784   2.723   8.060   4.434
   96DPPC   O35 4785   2.645   7.969   4.459
   96DPPC   C36 4786   2.793   8.065   4.298
   96DPPC   C37 4787   2.941   8.035   4.323
   96DPPC   C38 4788   3.028   8.051   4.198
   96DPPC   C39 4789   3.174   8.018   4.231
   96DPPC   C40 4790   3.210   8.097   4.356
   96DPPC   C41 4791   3.339   8.047   4.421
   96DPPC   C42 4792   3.454   8.057   4.320
   96DPPC   C43 4793   3.582   8.039   4.402
   96DPPC   C44 4794   3.708   8.075   4.323
   96DPPC   C45 4795   3.701   8.220   4.277
   96DPPC   C46 4796   3.813   8.262   4.181
   96DPPC   C47 4797   3.800   8.410   4.143
   96DPPC   C48 4798   3.918   8.460   4.059
   96DPPC   C49 4799   4.041   8.406   4.132
   96DPPC   C50 4800   4.169   8.449   4.059
   97DPPC    C1 4801   9.580   4.339   5.769
   97DPPC    C2 4802   9.539   4.189   5.576
   97DPPC    C3 4803   9.728   4.304   5.593
   97DPPC    N4 4804   9.632   4.235   5.680
   97DPPC    C5 4805   9.666   4.125   5.772
   97DPPC    C6 4806   9.763   4.013   5.734
   97DPPC    O7 4807   9.903   4.036   5.721
   97DPPC    P8 4808   9.966   3.888   5.735
   97DPPC    O9 4809   9.863   3.793   5.688
   97DPPC   O10 4810   9.988   3.882   5.881
   97DPPC   O11 4811  10.098   3.881   5.642
   97DPPC   C12 4812  10.045   3.910   5.513
   97DPPC   C13 4813  10.122   3.837   5.403
   97DPPC   O14 4814  10.134   3.921   5.288
   97DPPC   C15 4815  10.208   3.868   5.187
   97DPPC   O16 4816  10.271   3.764   5.204
   97DPPC   C17 4817  10.251   3.962   5.074
   97DPPC   C18 4818  10.260   3.876   4.948
   97DPPC   C19 4819  10.297   3.970   4.833
   97DPPC   C20 4820  10.299   3.901   4.697
   97DPPC   C21 4821  10.287   3.996   4.577
   97DPPC   C22 4822  10.144   4.047   4.561
   97DPPC   C23 4823  10.140   4.158   4.455
   97DPPC   C24 4824   9.994   4.180   4.416
   97DPPC   C25 4825   9.965   4.269   4.295
   97DPPC   C26 4826  10.019   4.213   4.164
   97DPPC   C27 4827   9.973   4.069   4.140
   97DPPC   C28 4828   9.967   4.031   3.992
   97DPPC   C29 4829   9.868   4.126   3.925
   97DPPC   C30 4830   9.853   4.084   3.778
   97DPPC   C31 4831   9.986   4.082   3.703
   97DPPC   C32 4832  10.064   3.697   5.376
   97DPPC   O33 4833   9.966   3.705   5.272
   97DPPC   C34 4834   9.902   3.592   5.232
   97DPPC   O35 4835   9.918   3.486   5.293
   97DPPC   C36 4836   9.832   3.609   5.097
   97DPPC   C37 4837   9.931   3.623   4.982
   97DPPC   C38 4838   9.860   3.629   4.847
   97DPPC   C39 4839   9.933   3.688   4.726
   97DPPC   C40 4840   9.843   3.703   4.604
   97DPPC   C41 4841   9.925   3.718   4.475
   97DPPC   C42 4842   9.845   3.673   4.352
   97DPPC   C43 4843   9.705   3.732   4.339
   97DPPC   C44 4844   9.630   3.696   4.211
   97DPPC   C45 4845   9.707   3.724   4.082
   97DPPC   C46 4846   9.618   3.686   3.963
   97DPPC   C47 4847   9.695   3.711   3.833
   97DPPC   C48 4848   9.611   3.714   3.705
   97DPPC   C49 4849   9.695   3.719   3.577
   97DPPC   C50 4850   9.622   3.758   3.448
   98DPPC    C1 4851   7.981   4.290   5.700
   98DPPC    C2 4852   7.807   4.141   5.751
   98DPPC    C3 4853   7.829   4.376   5.845
   98DPPC    N4 4854   7.837   4.283   5.732
   98DPPC    C5 4855   7.771   4.343   5.615
   98DPPC    C6 4856   7.618   4.351   5.611
   98DPPC    O7 4857   7.548   4.226   5.612
   98DPPC    P8 4858   7.402   4.279   5.657
   98DPPC    O9 4859   7.434   4.357   5.778
   98DPPC   O10 4860   7.311   4.162   5.656
   98DPPC   O11 4861   7.363   4.366   5.527
   98DPPC   C12 4862   7.336   4.267   5.427
   98DPPC   C13 4863   7.306   4.335   5.293
   98DPPC   O14 4864   7.263   4.241   5.194
   98DPPC   C15 4865   7.133   4.242   5.153
   98DPPC   O16 4866   7.066   4.323   5.218
   98DPPC   C17 4867   7.092   4.168   5.026
   98DPPC   C18 4868   7.211   4.166   4.930
   98DPPC   C19 4869   7.236   4.294   4.850
   98DPPC   C20 4870   7.244   4.275   4.698
   98DPPC   C21 4871   7.351   4.174   4.656
   98DPPC   C22 4872   7.381   4.181   4.506
   98DPPC   C23 4873   7.439   4.315   4.461
   98DPPC   C24 4874   7.475   4.340   4.314
   98DPPC   C25 4875   7.342   4.359   4.241
   98DPPC   C26 4876   7.357   4.338   4.091
   98DPPC   C27 4877   7.458   4.435   4.029
   98DPPC   C28 4878   7.431   4.447   3.879
   98DPPC   C29 4879   7.291   4.507   3.863
   98DPPC   C30 4880   7.249   4.500   3.716
   98DPPC   C31 4881   7.350   4.556   3.616
   98DPPC   C32 4882   7.437   4.405   5.254
   98DPPC   O33 4883   7.435   4.494   5.143
   98DPPC   C34 4884   7.553   4.498   5.074
   98DPPC   O35 4885   7.654   4.442   5.117
   98DPPC   C36 4886   7.547   4.543   4.928
   98DPPC   C37 4887   7.653   4.644   4.883
   98DPPC   C38 4888   7.612   4.700   4.747
   98DPPC   C39 4889   7.709   4.679   4.631
   98DPPC   C40 4890   7.656   4.756   4.510
   98DPPC   C41 4891   7.718   4.703   4.380
   98DPPC   C42 4892   7.679   4.786   4.258
   98DPPC   C43 4893   7.749   4.732   4.133
   98DPPC   C44 4894   7.721   4.806   4.002
   98DPPC   C45 4895   7.757   4.720   3.880
   98DPPC   C46 4896   7.907   4.691   3.879
   98DPPC   C47 4897   7.939   4.618   3.748
   98DPPC   C48 4898   8.087   4.646   3.719
   98DPPC   C49 4899   8.145   4.521   3.653
   98DPPC   C50 4900   8.297   4.533   3.636
   99DPPC    C1 4901   8.390   5.371   1.242
   99DPPC    C2 4902   8.526   5.483   1.413
   99DPPC    C3 4903   8.539   5.520   1.175
   99DPPC    N4 4904   8.448   5.497   1.289
   99DPPC    C5 4905   8.353   5.609   1.295
   99DPPC    C6 4906   8.240   5.612   1.399
   99DPPC    O7 4907   8.106   5.600   1.350
   99DPPC    P8 4908   8.015   5.709   1.425
   99DPPC    O9 4909   7.880   5.724   1.366
   99DPPC   O10 4910   8.090   5.836   1.432
   99DPPC   O11 4911   8.009   5.666   1.580
   99DPPC   C12 4912   7.886   5.713   1.637
   99DPPC   C13 4913   7.885   5.717   1.790
   99DPPC   O14 4914   7.903   5.850   1.840
   99DPPC   C15 4915   7.800   5.939   1.825
   99DPPC   O16 4916   7.706   5.937   1.747
   99DPPC   C17 4917   7.802   6.062   1.917
   99DPPC   C18 4918   7.660   6.097   1.960
   99DPPC   C19 4919   7.666   6.232   2.031
   99DPPC   C20 4920   7.745   6.209   2.160
   99DPPC   C21 4921   7.723   6.337   2.241
   99DPPC   C22 4922   7.574   6.339   2.275
   99DPPC   C23 4923   7.540   6.461   2.361
   99DPPC   C24 4924   7.392   6.500   2.354
   99DPPC   C25 4925   7.372   6.625   2.440
   99DPPC   C26 4926   7.448   6.610   2.572
   99DPPC   C27 4927   7.375   6.555   2.695
   99DPPC   C28 4928   7.465   6.483   2.796
   99DPPC   C29 4929   7.377   6.461   2.919
   99DPPC   C30 4930   7.432   6.341   2.996
   99DPPC   C31 4931   7.341   6.321   3.118
   99DPPC   C32 4932   7.989   5.616   1.838
   99DPPC   O33 4933   7.937   5.493   1.889
   99DPPC   C34 4934   8.035   5.419   1.946
   99DPPC   O35 4935   8.148   5.464   1.960
   99DPPC   C36 4936   7.987   5.303   2.035
   99DPPC   C37 4937   8.047   5.314   2.175
   99DPPC   C38 4938   8.004   5.199   2.267
   99DPPC   C39 4939   8.083   5.225   2.396
   99DPPC   C40 4940   8.047   5.116   2.497
   99DPPC   C41 4941   8.134   5.118   2.623
   99DPPC   C42 4942   8.054   5.060   2.740
   99DPPC   C43 4943   7.931   5.144   2.774
   99DPPC   C44 4944   7.869   5.115   2.911
   99DPPC   C45 4945   7.808   4.976   2.932
   99DPPC   C46 4946   7.768   4.954   3.078
   99DPPC   C47 4947   7.682   4.828   3.088
   99DPPC   C48 4948   7.649   4.772   3.226
   99DPPC   C49 4949   7.538   4.666   3.220
   99DPPC   C50 4950   7.406   4.741   3.205
  100DPPC    C1 4951   4.436   4.475   2.266
  100DPPC    C2 4952   4.304   4.499   2.071
  100DPPC    C3 4953   4.223   4.388   2.267
  100DPPC    N4 4954   4.300   4.503   2.217
  100DPPC    C5 4955   4.246   4.627   2.276
  100DPPC    C6 4956   4.104   4.666   2.234
  100DPPC    O7 4957   4.082   4.806   2.252
  100DPPC    P8 4958   3.983   4.862   2.138
  100DPPC    O9 4959   4.039   4.853   2.001
  100DPPC   O10 4960   3.937   4.992   2.193
  100DPPC   O11 4961   3.853   4.768   2.153
  100DPPC   C12 4962   3.761   4.809   2.255
  100DPPC   C13 4963   3.650   4.711   2.293
  100DPPC   O14 4964   3.536   4.774   2.354
  100DPPC   C15 4965   3.465   4.873   2.295
  100DPPC   O16 4966   3.473   4.889   2.173
  100DPPC   C17 4967   3.348   4.910   2.386
  100DPPC   C18 4968   3.220   4.831   2.357
  100DPPC   C19 4969   3.187   4.724   2.461
  100DPPC   C20 4970   3.173   4.787   2.600
  100DPPC   C21 4971   3.122   4.691   2.709
  100DPPC   C22 4972   3.100   4.768   2.839
  100DPPC   C23 4973   3.036   4.664   2.932
  100DPPC   C24 4974   3.031   4.723   3.073
  100DPPC   C25 4975   2.923   4.831   3.072
  100DPPC   C26 4976   2.906   4.904   3.206
  100DPPC   C27 4977   2.861   5.045   3.166
  100DPPC   C28 4978   2.847   5.135   3.289
  100DPPC   C29 4979   2.839   5.279   3.238
  100DPPC   C30 4980   2.829   5.371   3.360
  100DPPC   C31 4981   2.928   5.332   3.470
  100DPPC   C32 4982   3.717   4.585   2.349
  100DPPC   O33 4983   3.810   4.613   2.454
  100DPPC   C34 4984   3.864   4.498   2.503
  100DPPC   O35 4985   3.839   4.389   2.451
  100DPPC   C36 4986   3.983   4.518   2.597
  100DPPC   C37 4987   3.948   4.493   2.744
  100DPPC   C38 4988   4.071   4.512   2.834
  100DPPC   C39 4989   4.037   4.532   2.982
  100DPPC   C40 4990   3.983   4.673   3.007
  100DPPC   C41 4991   3.966   4.681   3.159
  100DPPC   C42 4992   3.926   4.814   3.222
  100DPPC   C43 4993   3.816   4.895   3.152
  100DPPC   C44 4994   3.781   5.023   3.228
  100DPPC   C45 4995   3.725   5.135   3.141
  100DPPC   C46 4996   3.715   5.264   3.222
  100DPPC   C47 4997   3.646   5.371   3.137
  100DPPC   C48 4998   3.630   5.497   3.222
  100DPPC   C49 4999   3.770   5.531   3.276
  100DPPC   C50 5000   3.748   5.672   3.330
  101DPPC    C1 5001   5.732   0.392   1.938
  101DPPC    C2 5002   5.709   0.185   2.030
  101DPPC    C3 5003   5.718   0.377   2.169
  101DPPC    N4 5004   5.659   0.322   2.046
  101DPPC    C5 5005   5.513   0.340   2.036
  101DPPC    C6 5006   5.427   0.261   1.937
  101DPPC    O7 5007   5.290   0.300   1.945
  101DPPC    P8 5008   5.190   0.183   1.898
  101DPPC    O9 5009   5.266   0.087   1.814
  101DPPC   O10 5010   5.072   0.247   1.836
  101DPPC   O11 5011   5.165   0.127   2.046
  101DPPC   C12 5012   5.090   0.222   2.122
  101DPPC   C13 5013   5.059   0.182   2.266
  101DPPC   O14 5014   5.005   0.304   2.319
  101DPPC   C15 5015   4.878   0.306   2.368
  101DPPC   O16 5016   4.796   0.229   2.318
  101DPPC   C17 5017   4.841   0.404   2.479
  101DPPC   C18 5018   4.918   0.354   2.602
  101DPPC   C19 5019   4.898   0.466   2.704
  101DPPC   C20 5020   4.940   0.440   2.849
  101DPPC   C21 5021   4.919   0.556   2.947
  101DPPC   C22 5022   4.773   0.588   2.979
  101DPPC   C23 5023   4.714   0.451   3.012
  101DPPC   C24 5024   4.564   0.460   3.043
  101DPPC   C25 5025   4.501   0.335   3.103
  101DPPC   C26 5026   4.358   0.366   3.150
  101DPPC   C27 5027   4.338   0.268   3.266
  101DPPC   C28 5028   4.379   0.129   3.216
  101DPPC   C29 5029   4.417   0.044   3.338
  101DPPC   C30 5030   4.480  -0.087   3.290
  101DPPC   C31 5031   4.618  -0.077   3.226
  101DPPC   C32 5032   5.182   0.121   2.333
  101DPPC   O33 5033   5.307   0.190   2.344
  101DPPC   C34 5034   5.407   0.114   2.397
  101DPPC   O35 5035   5.409  -0.006   2.369
  101DPPC   C36 5036   5.534   0.186   2.442
  101DPPC   C37 5037   5.518   0.211   2.592
  101DPPC   C38 5038   5.639   0.267   2.668
  101DPPC   C39 5039   5.614   0.275   2.819
  101DPPC   C40 5040   5.722   0.373   2.867
  101DPPC   C41 5041   5.704   0.400   3.016
  101DPPC   C42 5042   5.814   0.479   3.087
  101DPPC   C43 5043   5.798   0.464   3.239
  101DPPC   C44 5044   5.910   0.526   3.322
  101DPPC   C45 5045   5.892   0.511   3.473
  101DPPC   C46 5046   6.011   0.570   3.550
  101DPPC   C47 5047   5.977   0.557   3.698
  101DPPC   C48 5048   6.082   0.624   3.786
  101DPPC   C49 5049   6.054   0.617   3.937
  101DPPC   C50 5050   6.174   0.628   4.031
  102DPPC    C1 5051   2.447   1.224   1.871
  102DPPC    C2 5052   2.553   1.127   2.054
  102DPPC    C3 5053   2.337   1.076   2.031
  102DPPC    N4 5054   2.455   1.099   1.948
  102DPPC    C5 5055   2.503   0.987   1.867
  102DPPC    C6 5056   2.466   0.980   1.718
  102DPPC    O7 5057   2.324   0.984   1.699
  102DPPC    P8 5058   2.281   0.875   1.589
  102DPPC    O9 5059   2.407   0.831   1.526
  102DPPC   O10 5060   2.150   0.907   1.528
  102DPPC   O11 5061   2.251   0.755   1.692
  102DPPC   C12 5062   2.135   0.798   1.765
  102DPPC   C13 5063   2.064   0.700   1.858
  102DPPC   O14 5064   1.939   0.748   1.912
  102DPPC   C15 5065   1.854   0.658   1.969
  102DPPC   O16 5066   1.870   0.538   1.947
  102DPPC   C17 5067   1.739   0.714   2.052
  102DPPC   C18 5068   1.779   0.683   2.196
  102DPPC   C19 5069   1.693   0.738   2.310
  102DPPC   C20 5070   1.748   0.695   2.446
  102DPPC   C21 5071   1.652   0.747   2.554
  102DPPC   C22 5072   1.718   0.743   2.692
  102DPPC   C23 5073   1.635   0.773   2.817
  102DPPC   C24 5074   1.595   0.920   2.817
  102DPPC   C25 5075   1.479   0.959   2.908
  102DPPC   C26 5076   1.482   1.110   2.930
  102DPPC   C27 5077   1.595   1.141   3.028
  102DPPC   C28 5078   1.640   1.283   2.993
  102DPPC   C29 5079   1.526   1.383   3.014
  102DPPC   C30 5080   1.567   1.524   2.973
  102DPPC   C31 5081   1.598   1.526   2.823
  102DPPC   C32 5082   2.168   0.667   1.965
  102DPPC   O33 5083   2.235   0.761   2.050
  102DPPC   C34 5084   2.299   0.696   2.151
  102DPPC   O35 5085   2.318   0.575   2.163
  102DPPC   C36 5086   2.356   0.777   2.267
  102DPPC   C37 5087   2.261   0.783   2.387
  102DPPC   C38 5088   2.256   0.650   2.462
  102DPPC   C39 5089   2.144   0.640   2.566
  102DPPC   C40 5090   2.176   0.754   2.663
  102DPPC   C41 5091   2.093   0.728   2.789
  102DPPC   C42 5092   2.134   0.593   2.850
  102DPPC   C43 5093   2.064   0.562   2.982
  102DPPC   C44 5094   2.134   0.443   3.047
  102DPPC   C45 5095   2.031   0.382   3.142
  102DPPC   C46 5096   2.077   0.262   3.225
  102DPPC   C47 5097   1.978   0.226   3.336
  102DPPC   C48 5098   1.993   0.075   3.359
  102DPPC   C49 5099   1.922   0.035   3.489
  102DPPC   C50 5100   1.772   0.020   3.461
  103DPPC    C1 5101   2.604   7.288   1.283
  103DPPC    C2 5102   2.555   7.084   1.394
  103DPPC    C3 5103   2.771   7.169   1.397
  103DPPC    N4 5104   2.630   7.210   1.405
  103DPPC    C5 5105   2.595   7.276   1.532
  103DPPC    C6 5106   2.670   7.405   1.563
  103DPPC    O7 5107   2.802   7.380   1.612
  103DPPC    P8 5108   2.891   7.513   1.631
  103DPPC    O9 5109   2.888   7.558   1.491
  103DPPC   O10 5110   3.019   7.477   1.695
  103DPPC   O11 5111   2.801   7.582   1.746
  103DPPC   C12 5112   2.848   7.550   1.878
  103DPPC   C13 5113   2.723   7.564   1.965
  103DPPC   O14 5114   2.628   7.459   1.944
  103DPPC   C15 5115   2.671   7.340   1.994
  103DPPC   O16 5116   2.781   7.323   2.047
  103DPPC   C17 5117   2.576   7.224   1.960
  103DPPC   C18 5118   2.585   7.128   2.079
  103DPPC   C19 5119   2.525   7.183   2.209
  103DPPC   C20 5120   2.549   7.078   2.317
  103DPPC   C21 5121   2.499   7.123   2.455
  103DPPC   C22 5122   2.511   7.017   2.565
  103DPPC   C23 5123   2.443   7.079   2.687
  103DPPC   C24 5124   2.407   6.987   2.804
  103DPPC   C25 5125   2.382   7.046   2.943
  103DPPC   C26 5126   2.339   6.954   3.058
  103DPPC   C27 5127   2.312   7.035   3.184
  103DPPC   C28 5128   2.301   6.924   3.289
  103DPPC   C29 5129   2.424   6.833   3.288
  103DPPC   C30 5130   2.419   6.716   3.386
  103DPPC   C31 5131   2.543   6.630   3.411
  103DPPC   C32 5132   2.674   7.708   1.950
  103DPPC   O33 5133   2.774   7.799   1.995
  103DPPC   C34 5134   2.745   7.931   1.983
  103DPPC   O35 5135   2.633   7.965   1.945
  103DPPC   C36 5136   2.847   8.032   2.037
  103DPPC   C37 5137   2.844   8.033   2.190
  103DPPC   C38 5138   2.920   8.146   2.258
  103DPPC   C39 5139   2.897   8.156   2.409
  103DPPC   C40 5140   3.007   8.249   2.459
  103DPPC   C41 5141   3.018   8.242   2.611
  103DPPC   C42 5142   2.886   8.297   2.666
  103DPPC   C43 5143   2.907   8.327   2.814
  103DPPC   C44 5144   2.786   8.368   2.899
  103DPPC   C45 5145   2.816   8.415   3.041
  103DPPC   C46 5146   2.679   8.462   3.090
  103DPPC   C47 5147   2.700   8.548   3.215
  103DPPC   C48 5148   2.560   8.591   3.260
  103DPPC   C49 5149   2.572   8.700   3.367
  103DPPC   C50 5150   2.631   8.640   3.495
  104DPPC    C1 5151   3.942   3.880   1.586
  104DPPC    C2 5152   4.008   3.653   1.586
  104DPPC    C3 5153   4.143   3.809   1.478
  104DPPC    N4 5154   4.058   3.791   1.597
  104DPPC    C5 5155   4.124   3.823   1.724
  104DPPC    C6 5156   4.229   3.733   1.790
  104DPPC    O7 5157   4.335   3.684   1.707
  104DPPC    P8 5158   4.370   3.536   1.761
  104DPPC    O9 5159   4.490   3.489   1.688
  104DPPC   O10 5160   4.242   3.463   1.751
  104DPPC   O11 5161   4.405   3.579   1.912
  104DPPC   C12 5162   4.543   3.601   1.942
  104DPPC   C13 5163   4.560   3.689   2.066
  104DPPC   O14 5164   4.698   3.705   2.102
  104DPPC   C15 5165   4.729   3.813   2.180
  104DPPC   O16 5166   4.676   3.923   2.169
  104DPPC   C17 5167   4.848   3.787   2.273
  104DPPC   C18 5168   4.868   3.648   2.335
  104DPPC   C19 5169   4.977   3.629   2.441
  104DPPC   C20 5170   4.948   3.519   2.543
  104DPPC   C21 5171   5.072   3.504   2.630
  104DPPC   C22 5172   5.024   3.458   2.768
  104DPPC   C23 5173   5.135   3.420   2.866
  104DPPC   C24 5174   5.077   3.378   3.001
  104DPPC   C25 5175   5.177   3.323   3.103
  104DPPC   C26 5176   5.133   3.329   3.250
  104DPPC   C27 5177   5.089   3.469   3.291
  104DPPC   C28 5178   5.034   3.462   3.434
  104DPPC   C29 5179   4.989   3.582   3.518
  104DPPC   C30 5180   4.896   3.541   3.632
  104DPPC   C31 5181   4.884   3.677   3.701
  104DPPC   C32 5182   4.492   3.602   2.172
  104DPPC   O33 5183   4.462   3.666   2.297
  104DPPC   C34 5184   4.369   3.610   2.379
  104DPPC   O35 5185   4.293   3.522   2.338
  104DPPC   C36 5186   4.353   3.688   2.510
  104DPPC   C37 5187   4.484   3.650   2.580
  104DPPC   C38 5188   4.511   3.763   2.681
  104DPPC   C39 5189   4.635   3.737   2.766
  104DPPC   C40 5190   4.623   3.601   2.836
  104DPPC   C41 5191   4.712   3.599   2.960
  104DPPC   C42 5192   4.694   3.717   3.056
  104DPPC   C43 5193   4.773   3.697   3.185
  104DPPC   C44 5194   4.802   3.828   3.259
  104DPPC   C45 5195   4.672   3.894   3.305
  104DPPC   C46 5196   4.679   3.998   3.418
  104DPPC   C47 5197   4.542   4.009   3.486
  104DPPC   C48 5198   4.535   4.095   3.612
  104DPPC   C49 5199   4.526   4.240   3.565
  104DPPC   C50 5200   4.544   4.332   3.686
  105DPPC    C1 5201   4.517   5.067   1.793
  105DPPC    C2 5202   4.526   4.918   1.613
  105DPPC    C3 5203   4.574   5.160   1.579
  105DPPC    N4 5204   4.586   5.042   1.666
  105DPPC    C5 5205   4.731   5.016   1.665
  105DPPC    C6 5206   4.788   4.936   1.782
  105DPPC    O7 5207   4.837   5.016   1.890
  105DPPC    P8 5208   4.917   4.919   1.991
  105DPPC    O9 5209   4.994   5.021   2.065
  105DPPC   O10 5210   4.989   4.824   1.903
  105DPPC   O11 5211   4.798   4.846   2.071
  105DPPC   C12 5212   4.787   4.900   2.203
  105DPPC   C13 5213   4.664   4.861   2.285
  105DPPC   O14 5214   4.616   4.960   2.377
  105DPPC   C15 5215   4.533   5.049   2.317
  105DPPC   O16 5216   4.460   5.006   2.228
  105DPPC   C17 5217   4.505   5.176   2.399
  105DPPC   C18 5218   4.355   5.194   2.421
  105DPPC   C19 5219   4.342   5.309   2.521
  105DPPC   C20 5220   4.387   5.437   2.449
  105DPPC   C21 5221   4.383   5.557   2.544
  105DPPC   C22 5222   4.440   5.676   2.466
  105DPPC   C23 5223   4.419   5.810   2.538
  105DPPC   C24 5224   4.512   5.815   2.659
  105DPPC   C25 5225   4.480   5.938   2.744
  105DPPC   C26 5226   4.346   5.910   2.812
  105DPPC   C27 5227   4.306   6.041   2.882
  105DPPC   C28 5228   4.160   6.021   2.922
  105DPPC   C29 5229   4.091   6.136   2.997
  105DPPC   C30 5230   4.124   6.271   2.933
  105DPPC   C31 5231   4.015   6.364   2.985
  105DPPC   C32 5232   4.687   4.719   2.336
  105DPPC   O33 5233   4.805   4.714   2.417
  105DPPC   C34 5234   4.834   4.595   2.476
  105DPPC   O35 5235   4.767   4.492   2.460
  105DPPC   C36 5236   4.981   4.587   2.517
  105DPPC   C37 5237   4.985   4.557   2.667
  105DPPC   C38 5238   4.940   4.682   2.745
  105DPPC   C39 5239   4.953   4.662   2.896
  105DPPC   C40 5240   4.879   4.770   2.975
  105DPPC   C41 5241   4.902   4.757   3.126
  105DPPC   C42 5242   4.862   4.890   3.189
  105DPPC   C43 5243   4.869   4.893   3.342
  105DPPC   C44 5244   4.804   5.018   3.402
  105DPPC   C45 5245   4.849   5.020   3.548
  105DPPC   C46 5246   4.799   4.900   3.629
  105DPPC   C47 5247   4.866   4.910   3.766
  105DPPC   C48 5248   4.837   4.791   3.857
  105DPPC   C49 5249   4.909   4.806   3.991
  105DPPC   C50 5250   5.061   4.818   3.982
  106DPPC    C1 5251   9.169   0.492   1.205
  106DPPC    C2 5252   9.015   0.384   1.342
  106DPPC    C3 5253   9.165   0.249   1.228
  106DPPC    N4 5254   9.155   0.378   1.298
  106DPPC    C5 5255   9.257   0.388   1.402
  106DPPC    C6 5256   9.408   0.376   1.379
  106DPPC    O7 5257   9.476   0.449   1.482
  106DPPC    P8 5258   9.635   0.426   1.469
  106DPPC    O9 5259   9.668   0.463   1.330
  106DPPC   O10 5260   9.702   0.310   1.532
  106DPPC   O11 5261   9.671   0.556   1.557
  106DPPC   C12 5262   9.659   0.536   1.698
  106DPPC   C13 5263   9.570   0.641   1.764
  106DPPC   O14 5264   9.629   0.697   1.882
  106DPPC   C15 5265   9.661   0.829   1.878
  106DPPC   O16 5266   9.633   0.891   1.776
  106DPPC   C17 5267   9.725   0.896   1.999
  106DPPC   C18 5268   9.655   0.850   2.127
  106DPPC   C19 5269   9.749   0.855   2.248
  106DPPC   C20 5270   9.691   0.806   2.381
  106DPPC   C21 5271   9.800   0.847   2.480
  106DPPC   C22 5272   9.897   0.731   2.500
  106DPPC   C23 5273  10.011   0.786   2.586
  106DPPC   C24 5274  10.104   0.871   2.499
  106DPPC   C25 5275  10.245   0.858   2.558
  106DPPC   C26 5276  10.359   0.911   2.471
  106DPPC   C27 5277  10.498   0.895   2.533
  106DPPC   C28 5278  10.485   0.945   2.677
  106DPPC   C29 5279  10.618   0.938   2.753
  106DPPC   C30 5280  10.591   0.992   2.894
  106DPPC   C31 5281  10.565   1.143   2.889
  106DPPC   C32 5282   9.432   0.575   1.775
  106DPPC   O33 5283   9.434   0.444   1.832
  106DPPC   C34 5284   9.317   0.377   1.810
  106DPPC   O35 5285   9.221   0.440   1.767
  106DPPC   C36 5286   9.310   0.231   1.857
  106DPPC   C37 5287   9.366   0.206   1.997
  106DPPC   C38 5288   9.286   0.280   2.104
  106DPPC   C39 5289   9.360   0.394   2.174
  106DPPC   C40 5290   9.267   0.451   2.282
  106DPPC   C41 5291   9.206   0.345   2.373
  106DPPC   C42 5292   9.106   0.427   2.455
  106DPPC   C43 5293   9.094   0.361   2.592
  106DPPC   C44 5294   9.015   0.444   2.694
  106DPPC   C45 5295   9.005   0.362   2.822
  106DPPC   C46 5296   8.954   0.455   2.932
  106DPPC   C47 5297   8.921   0.394   3.069
  106DPPC   C48 5298   8.806   0.293   3.069
  106DPPC   C49 5299   8.793   0.243   3.213
  106DPPC   C50 5300   8.787   0.364   3.307
  107DPPC    C1 5301   6.209   7.841   2.060
  107DPPC    C2 5302   6.168   7.937   1.856
  107DPPC    C3 5303   6.085   8.051   2.061
  107DPPC    N4 5304   6.192   7.972   1.996
  107DPPC    C5 5305   6.327   8.028   1.985
  107DPPC    C6 5306   6.370   8.117   2.103
  107DPPC    O7 5307   6.299   8.241   2.105
  107DPPC    P8 5308   6.397   8.350   2.038
  107DPPC    O9 5309   6.323   8.387   1.915
  107DPPC   O10 5310   6.533   8.290   2.040
  107DPPC   O11 5311   6.388   8.468   2.146
  107DPPC   C12 5312   6.247   8.482   2.166
  107DPPC   C13 5313   6.192   8.519   2.304
  107DPPC   O14 5314   6.230   8.653   2.340
  107DPPC   C15 5315   6.137   8.748   2.367
  107DPPC   O16 5316   6.032   8.740   2.304
  107DPPC   C17 5317   6.192   8.881   2.420
  107DPPC   C18 5318   6.269   8.866   2.551
  107DPPC   C19 5319   6.187   8.815   2.670
  107DPPC   C20 5320   6.076   8.912   2.712
  107DPPC   C21 5321   6.140   8.999   2.820
  107DPPC   C22 5322   6.059   9.125   2.856
  107DPPC   C23 5323   6.110   9.235   2.949
  107DPPC   C24 5324   6.223   9.310   2.879
  107DPPC   C25 5325   6.287   9.422   2.961
  107DPPC   C26 5326   6.187   9.534   2.991
  107DPPC   C27 5327   6.158   9.610   2.861
  107DPPC   C28 5328   6.051   9.715   2.891
  107DPPC   C29 5329   6.046   9.837   2.800
  107DPPC   C30 5330   5.996   9.792   2.662
  107DPPC   C31 5331   5.982   9.901   2.556
  107DPPC   C32 5332   6.243   8.405   2.393
  107DPPC   O33 5333   6.175   8.398   2.519
  107DPPC   C34 5334   6.041   8.374   2.526
  107DPPC   O35 5335   5.982   8.343   2.423
  107DPPC   C36 5336   5.975   8.401   2.662
  107DPPC   C37 5337   6.078   8.457   2.761
  107DPPC   C38 5338   6.017   8.502   2.894
  107DPPC   C39 5339   6.124   8.575   2.975
  107DPPC   C40 5340   6.070   8.703   3.038
  107DPPC   C41 5341   6.176   8.779   3.118
  107DPPC   C42 5342   6.215   8.691   3.237
  107DPPC   C43 5343   6.108   8.675   3.346
  107DPPC   C44 5344   6.180   8.637   3.475
  107DPPC   C45 5345   6.081   8.609   3.588
  107DPPC   C46 5346   6.166   8.576   3.712
  107DPPC   C47 5347   6.070   8.586   3.830
  107DPPC   C48 5348   5.994   8.719   3.827
  107DPPC   C49 5349   5.846   8.694   3.853
  107DPPC   C50 5350   5.756   8.815   3.831
  108DPPC    C1 5351   7.190   0.518   1.214
  108DPPC    C2 5352   7.038   0.705   1.239
  108DPPC    C3 5353   7.046   0.580   1.039
  108DPPC    N4 5354   7.055   0.569   1.185
  108DPPC    C5 5355   6.939   0.487   1.220
  108DPPC    C6 5356   6.957   0.379   1.327
  108DPPC    O7 5357   6.942   0.429   1.460
  108DPPC    P8 5358   6.959   0.299   1.553
  108DPPC    O9 5359   7.103   0.267   1.551
  108DPPC   O10 5360   6.854   0.207   1.505
  108DPPC   O11 5361   6.907   0.369   1.688
  108DPPC   C12 5362   7.009   0.451   1.745
  108DPPC   C13 5363   6.964   0.542   1.859
  108DPPC   O14 5364   7.043   0.660   1.880
  108DPPC   C15 5365   6.962   0.769   1.882
  108DPPC   O16 5366   6.849   0.762   1.833
  108DPPC   C17 5367   7.012   0.900   1.942
  108DPPC   C18 5368   6.982   0.918   2.091
  108DPPC   C19 5369   6.999   1.067   2.125
  108DPPC   C20 5370   6.933   1.104   2.257
  108DPPC   C21 5371   7.039   1.055   2.356
  108DPPC   C22 5372   6.999   1.080   2.502
  108DPPC   C23 5373   6.872   1.012   2.555
  108DPPC   C24 5374   6.898   0.927   2.680
  108DPPC   C25 5375   6.964   1.031   2.772
  108DPPC   C26 5376   7.026   0.963   2.893
  108DPPC   C27 5377   6.931   0.880   2.980
  108DPPC   C28 5378   6.985   0.838   3.117
  108DPPC   C29 5379   6.891   0.737   3.183
  108DPPC   C30 5380   6.951   0.727   3.324
  108DPPC   C31 5381   6.872   0.648   3.428
  108DPPC   C32 5382   6.977   0.438   1.970
  108DPPC   O33 5383   6.944   0.468   2.106
  108DPPC   C34 5384   6.957   0.359   2.186
  108DPPC   O35 5385   7.016   0.257   2.152
  108DPPC   C36 5386   6.954   0.384   2.337
  108DPPC   C37 5387   6.914   0.260   2.417
  108DPPC   C38 5388   6.936   0.292   2.565
  108DPPC   C39 5389   6.898   0.170   2.649
  108DPPC   C40 5390   6.986   0.047   2.623
  108DPPC   C41 5391   6.935  -0.079   2.693
  108DPPC   C42 5392   6.938  -0.054   2.844
  108DPPC   C43 5393   6.880  -0.171   2.925
  108DPPC   C44 5394   6.915  -0.169   3.074
  108DPPC   C45 5395   6.868  -0.298   3.142
  108DPPC   C46 5396   6.911  -0.299   3.289
  108DPPC   C47 5397   6.829  -0.201   3.373
  108DPPC   C48 5398   6.870  -0.203   3.521
  108DPPC   C49 5399   7.016  -0.179   3.561
  108DPPC   C50 5400   7.028  -0.100   3.692
  109DPPC    C1 5401   9.377   5.989   0.472
  109DPPC    C2 5402   9.424   5.977   0.700
  109DPPC    C3 5403   9.497   6.161   0.567
  109DPPC    N4 5404   9.384   6.071   0.594
  109DPPC    C5 5405   9.254   6.138   0.609
  109DPPC    C6 5406   9.211   6.165   0.753
  109DPPC    O7 5407   9.139   6.053   0.804
  109DPPC    P8 5408   9.030   6.090   0.916
  109DPPC    O9 5409   8.933   5.981   0.894
  109DPPC   O10 5410   8.994   6.234   0.907
  109DPPC   O11 5411   9.122   6.079   1.047
  109DPPC   C12 5412   9.105   5.948   1.101
  109DPPC   C13 5413   9.218   5.894   1.189
  109DPPC   O14 5414   9.194   5.764   1.245
  109DPPC   C15 5415   9.297   5.692   1.298
  109DPPC   O16 5416   9.414   5.720   1.270
  109DPPC   C17 5417   9.257   5.557   1.357
  109DPPC   C18 5418   9.183   5.579   1.489
  109DPPC   C19 5419   9.269   5.661   1.585
  109DPPC   C20 5420   9.210   5.630   1.723
  109DPPC   C21 5421   9.281   5.690   1.844
  109DPPC   C22 5422   9.207   5.671   1.976
  109DPPC   C23 5423   9.274   5.754   2.086
  109DPPC   C24 5424   9.212   5.729   2.224
  109DPPC   C25 5425   9.284   5.792   2.343
  109DPPC   C26 5426   9.193   5.802   2.466
  109DPPC   C27 5427   9.259   5.826   2.602
  109DPPC   C28 5428   9.142   5.801   2.696
  109DPPC   C29 5429   9.183   5.805   2.844
  109DPPC   C30 5430   9.059   5.793   2.932
  109DPPC   C31 5431   9.101   5.811   3.078
  109DPPC   C32 5432   9.248   6.006   1.289
  109DPPC   O33 5433   9.154   6.023   1.396
  109DPPC   C34 5434   9.148   6.149   1.449
  109DPPC   O35 5435   9.234   6.231   1.417
  109DPPC   C36 5436   9.066   6.153   1.578
  109DPPC   C37 5437   9.156   6.133   1.700
  109DPPC   C38 5438   9.098   6.183   1.832
  109DPPC   C39 5439   9.205   6.185   1.942
  109DPPC   C40 5440   9.145   6.227   2.077
  109DPPC   C41 5441   9.260   6.225   2.178
  109DPPC   C42 5442   9.188   6.256   2.309
  109DPPC   C43 5443   9.284   6.273   2.427
  109DPPC   C44 5444   9.380   6.154   2.438
  109DPPC   C45 5445   9.464   6.183   2.562
  109DPPC   C46 5446   9.566   6.073   2.590
  109DPPC   C47 5447   9.657   6.114   2.706
  109DPPC   C48 5448   9.768   6.010   2.722
  109DPPC   C49 5449   9.840   6.029   2.855
  109DPPC   C50 5450   9.935   5.910   2.840
  110DPPC    C1 5451   1.394   3.395   0.959
  110DPPC    C2 5452   1.607   3.313   1.069
  110DPPC    C3 5453   1.610   3.486   0.909
  110DPPC    N4 5454   1.527   3.423   1.013
  110DPPC    C5 5455   1.512   3.529   1.114
  110DPPC    C6 5456   1.421   3.499   1.233
  110DPPC    O7 5457   1.382   3.610   1.314
  110DPPC    P8 5458   1.245   3.683   1.271
  110DPPC    O9 5459   1.185   3.594   1.169
  110DPPC   O10 5460   1.262   3.828   1.248
  110DPPC   O11 5461   1.184   3.670   1.420
  110DPPC   C12 5462   1.119   3.543   1.429
  110DPPC   C13 5463   1.180   3.440   1.525
  110DPPC   O14 5464   1.105   3.318   1.536
  110DPPC   C15 5465   1.174   3.204   1.562
  110DPPC   O16 5466   1.284   3.176   1.514
  110DPPC   C17 5467   1.080   3.097   1.618
  110DPPC   C18 5468   1.092   3.118   1.769
  110DPPC   C19 5469   1.007   3.015   1.843
  110DPPC   C20 5470   1.023   3.039   1.993
  110DPPC   C21 5471   0.920   2.956   2.071
  110DPPC   C22 5472   0.918   3.001   2.217
  110DPPC   C23 5473   0.819   2.915   2.295
  110DPPC   C24 5474   0.681   2.918   2.229
  110DPPC   C25 5475   0.586   2.861   2.335
  110DPPC   C26 5476   0.613   2.947   2.458
  110DPPC   C27 5477   0.522   2.914   2.577
  110DPPC   C28 5478   0.539   3.020   2.686
  110DPPC   C29 5479   0.678   3.000   2.746
  110DPPC   C30 5480   0.722   3.093   2.860
  110DPPC   C31 5481   0.647   3.077   2.992
  110DPPC   C32 5482   1.215   3.512   1.655
  110DPPC   O33 5483   1.293   3.435   1.747
  110DPPC   C34 5484   1.307   3.498   1.867
  110DPPC   O35 5485   1.300   3.620   1.880
  110DPPC   C36 5486   1.376   3.420   1.979
  110DPPC   C37 5487   1.269   3.358   2.069
  110DPPC   C38 5488   1.334   3.274   2.180
  110DPPC   C39 5489   1.237   3.207   2.277
  110DPPC   C40 5490   1.295   3.144   2.403
  110DPPC   C41 5491   1.186   3.061   2.469
  110DPPC   C42 5492   1.254   2.980   2.580
  110DPPC   C43 5493   1.153   2.915   2.675
  110DPPC   C44 5494   1.240   2.854   2.786
  110DPPC   C45 5495   1.167   2.811   2.913
  110DPPC   C46 5496   1.120   2.934   2.990
  110DPPC   C47 5497   1.038   2.921   3.118
  110DPPC   C48 5498   1.009   3.062   3.170
  110DPPC   C49 5499   0.924   3.028   3.293
  110DPPC   C50 5500   0.845   3.156   3.321
  111DPPC    C1 5501   1.740   1.017   1.684
  111DPPC    C2 5502   1.766   1.079   1.452
  111DPPC    C3 5503   1.754   0.858   1.504
  111DPPC    N4 5504   1.699   0.987   1.546
  111DPPC    C5 5505   1.553   0.987   1.525
  111DPPC    C6 5506   1.462   0.871   1.566
  111DPPC    O7 5507   1.488   0.829   1.700
  111DPPC    P8 5508   1.390   0.704   1.726
  111DPPC    O9 5509   1.477   0.602   1.787
  111DPPC   O10 5510   1.325   0.659   1.600
  111DPPC   O11 5511   1.297   0.781   1.833
  111DPPC   C12 5512   1.383   0.795   1.946
  111DPPC   C13 5513   1.301   0.805   2.075
  111DPPC   O14 5514   1.369   0.872   2.182
  111DPPC   C15 5515   1.297   0.932   2.280
  111DPPC   O16 5516   1.175   0.922   2.272
  111DPPC   C17 5517   1.370   0.981   2.405
  111DPPC   C18 5518   1.427   1.116   2.362
  111DPPC   C19 5519   1.495   1.172   2.487
  111DPPC   C20 5520   1.541   1.316   2.464
  111DPPC   C21 5521   1.438   1.414   2.408
  111DPPC   C22 5522   1.504   1.551   2.396
  111DPPC   C23 5523   1.397   1.653   2.435
  111DPPC   C24 5524   1.322   1.633   2.567
  111DPPC   C25 5525   1.196   1.719   2.560
  111DPPC   C26 5526   1.107   1.708   2.684
  111DPPC   C27 5527   1.008   1.825   2.682
  111DPPC   C28 5528   0.960   1.838   2.827
  111DPPC   C29 5529   0.877   1.966   2.839
  111DPPC   C30 5530   0.822   1.991   2.980
  111DPPC   C31 5531   0.752   1.868   3.037
  111DPPC   C32 5532   1.232   0.669   2.083
  111DPPC   O33 5533   1.319   0.567   2.133
  111DPPC   C34 5534   1.298   0.434   2.112
  111DPPC   O35 5535   1.227   0.405   2.016
  111DPPC   C36 5536   1.365   0.325   2.196
  111DPPC   C37 5537   1.424   0.377   2.328
  111DPPC   C38 5538   1.316   0.443   2.413
  111DPPC   C39 5539   1.363   0.484   2.553
  111DPPC   C40 5540   1.250   0.560   2.624
  111DPPC   C41 5541   1.289   0.609   2.763
  111DPPC   C42 5542   1.313   0.492   2.859
  111DPPC   C43 5543   1.337   0.552   2.998
  111DPPC   C44 5544   1.219   0.617   3.070
  111DPPC   C45 5545   1.264   0.654   3.212
  111DPPC   C46 5546   1.304   0.801   3.221
  111DPPC   C47 5547   1.326   0.847   3.365
  111DPPC   C48 5548   1.348   0.998   3.357
  111DPPC   C49 5549   1.228   1.046   3.274
  111DPPC   C50 5550   1.209   1.196   3.293
  112DPPC    C1 5551   4.942   8.000   1.799
  112DPPC    C2 5552   5.115   8.013   1.954
  112DPPC    C3 5553   4.902   8.020   2.041
  112DPPC    N4 5554   4.981   7.956   1.934
  112DPPC    C5 5555   4.995   7.810   1.941
  112DPPC    C6 5556   4.878   7.711   1.934
  112DPPC    O7 5557   4.772   7.727   2.028
  112DPPC    P8 5558   4.668   7.605   2.021
  112DPPC    O9 5559   4.658   7.551   1.884
  112DPPC   O10 5560   4.547   7.642   2.099
  112DPPC   O11 5561   4.753   7.492   2.098
  112DPPC   C12 5562   4.689   7.470   2.223
  112DPPC   C13 5563   4.761   7.377   2.321
  112DPPC   O14 5564   4.680   7.306   2.416
  112DPPC   C15 5565   4.643   7.185   2.368
  112DPPC   O16 5566   4.665   7.147   2.252
  112DPPC   C17 5567   4.596   7.087   2.475
  112DPPC   C18 5568   4.676   7.096   2.605
  112DPPC   C19 5569   4.627   7.009   2.721
  112DPPC   C20 5570   4.620   6.863   2.677
  112DPPC   C21 5571   4.588   6.785   2.805
  112DPPC   C22 5572   4.448   6.804   2.865
  112DPPC   C23 5573   4.418   6.689   2.962
  112DPPC   C24 5574   4.291   6.725   3.040
  112DPPC   C25 5575   4.171   6.760   2.951
  112DPPC   C26 5576   4.044   6.771   3.036
  112DPPC   C27 5577   3.940   6.842   2.948
  112DPPC   C28 5578   3.831   6.882   3.048
  112DPPC   C29 5579   3.736   6.986   2.989
  112DPPC   C30 5580   3.627   7.034   3.085
  112DPPC   C31 5581   3.514   7.127   3.040
  112DPPC   C32 5582   4.871   7.468   2.376
  112DPPC   O33 5583   4.983   7.404   2.439
  112DPPC   C34 5584   5.096   7.462   2.487
  112DPPC   O35 5585   5.131   7.576   2.460
  112DPPC   C36 5586   5.186   7.369   2.569
  112DPPC   C37 5587   5.231   7.439   2.698
  112DPPC   C38 5588   5.321   7.352   2.786
  112DPPC   C39 5589   5.343   7.428   2.917
  112DPPC   C40 5590   5.426   7.348   3.017
  112DPPC   C41 5591   5.554   7.282   2.966
  112DPPC   C42 5592   5.665   7.387   2.955
  112DPPC   C43 5593   5.762   7.364   3.071
  112DPPC   C44 5594   5.865   7.477   3.063
  112DPPC   C45 5595   5.935   7.476   3.199
  112DPPC   C46 5596   5.996   7.615   3.223
  112DPPC   C47 5597   6.044   7.624   3.368
  112DPPC   C48 5598   5.919   7.613   3.455
  112DPPC   C49 5599   5.968   7.601   3.599
  112DPPC   C50 5600   5.858   7.643   3.696
  113DPPC    C1 5601   0.984   1.497   1.546
  113DPPC    C2 5602   1.046   1.538   1.767
  113DPPC    C3 5603   0.842   1.451   1.721
  113DPPC    N4 5604   0.983   1.438   1.681
  113DPPC    C5 5605   1.032   1.300   1.694
  113DPPC    C6 5606   1.163   1.268   1.621
  113DPPC    O7 5607   1.272   1.349   1.666
  113DPPC    P8 5608   1.413   1.301   1.606
  113DPPC    O9 5609   1.526   1.397   1.608
  113DPPC   O10 5610   1.388   1.225   1.481
  113DPPC   O11 5611   1.433   1.202   1.732
  113DPPC   C12 5612   1.474   1.294   1.833
  113DPPC   C13 5613   1.479   1.234   1.973
  113DPPC   O14 5614   1.585   1.142   2.004
  113DPPC   C15 5615   1.710   1.189   2.029
  113DPPC   O16 5616   1.730   1.304   1.990
  113DPPC   C17 5617   1.809   1.079   2.067
  113DPPC   C18 5618   1.921   1.121   2.163
  113DPPC   C19 5619   1.860   1.127   2.303
  113DPPC   C20 5620   1.972   1.165   2.400
  113DPPC   C21 5621   1.920   1.163   2.543
  113DPPC   C22 5622   2.035   1.170   2.643
  113DPPC   C23 5623   1.979   1.169   2.785
  113DPPC   C24 5624   2.092   1.165   2.889
  113DPPC   C25 5625   2.039   1.152   3.032
  113DPPC   C26 5626   2.131   1.069   3.122
  113DPPC   C27 5627   2.061   1.053   3.257
  113DPPC   C28 5628   1.919   1.000   3.237
  113DPPC   C29 5629   1.903   0.853   3.195
  113DPPC   C30 5630   1.757   0.815   3.222
  113DPPC   C31 5631   1.742   0.665   3.196
  113DPPC   C32 5632   1.345   1.168   2.010
  113DPPC   O33 5633   1.246   1.263   2.049
  113DPPC   C34 5634   1.131   1.195   2.077
  113DPPC   O35 5635   1.099   1.097   2.009
  113DPPC   C36 5636   1.027   1.287   2.140
  113DPPC   C37 5637   0.963   1.224   2.263
  113DPPC   C38 5638   0.850   1.316   2.311
  113DPPC   C39 5639   0.810   1.273   2.452
  113DPPC   C40 5640   0.719   1.380   2.512
  113DPPC   C41 5641   0.650   1.341   2.643
  113DPPC   C42 5642   0.760   1.289   2.737
  113DPPC   C43 5643   0.709   1.290   2.882
  113DPPC   C44 5644   0.581   1.210   2.904
  113DPPC   C45 5645   0.608   1.065   2.945
  113DPPC   C46 5646   0.481   0.987   2.977
  113DPPC   C47 5647   0.521   0.842   3.009
  113DPPC   C48 5648   0.395   0.757   3.026
  113DPPC   C49 5649   0.433   0.614   3.066
  113DPPC   C50 5650   0.297   0.543   3.062
  114DPPC    C1 5651   1.166   3.901   1.770
  114DPPC    C2 5652   1.261   3.966   1.555
  114DPPC    C3 5653   1.207   4.126   1.719
  114DPPC    N4 5654   1.260   3.990   1.700
  114DPPC    C5 5655   1.385   3.967   1.774
  114DPPC    C6 5656   1.517   4.032   1.731
  114DPPC    O7 5657   1.626   3.981   1.808
  114DPPC    P8 5658   1.759   4.049   1.746
  114DPPC    O9 5659   1.723   4.096   1.611
  114DPPC   O10 5660   1.873   3.954   1.754
  114DPPC   O11 5661   1.765   4.167   1.855
  114DPPC   C12 5662   1.804   4.098   1.974
  114DPPC   C13 5663   1.745   4.166   2.097
  114DPPC   O14 5664   1.794   4.106   2.218
  114DPPC   C15 5665   1.908   4.154   2.275
  114DPPC   O16 5666   1.990   4.208   2.201
  114DPPC   C17 5667   1.957   4.091   2.405
  114DPPC   C18 5668   2.042   3.966   2.380
  114DPPC   C19 5669   2.167   3.972   2.468
  114DPPC   C20 5670   2.255   3.848   2.464
  114DPPC   C21 5671   2.354   3.834   2.580
  114DPPC   C22 5672   2.277   3.852   2.711
  114DPPC   C23 5673   2.377   3.887   2.821
  114DPPC   C24 5674   2.299   3.974   2.920
  114DPPC   C25 5675   2.399   4.050   3.007
  114DPPC   C26 5676   2.349   4.127   3.129
  114DPPC   C27 5677   2.459   4.210   3.195
  114DPPC   C28 5678   2.408   4.285   3.318
  114DPPC   C29 5679   2.522   4.359   3.388
  114DPPC   C30 5680   2.599   4.454   3.296
  114DPPC   C31 5681   2.709   4.506   3.388
  114DPPC   C32 5682   1.597   4.138   2.073
  114DPPC   O33 5683   1.505   4.237   2.122
  114DPPC   C34 5684   1.377   4.192   2.127
  114DPPC   O35 5685   1.338   4.123   2.032
  114DPPC   C36 5686   1.275   4.262   2.217
  114DPPC   C37 5687   1.217   4.165   2.321
  114DPPC   C38 5688   1.126   4.238   2.420
  114DPPC   C39 5689   1.068   4.126   2.506
  114DPPC   C40 5690   1.170   4.069   2.605
  114DPPC   C41 5691   1.108   3.966   2.700
  114DPPC   C42 5692   0.995   4.018   2.789
  114DPPC   C43 5693   1.054   4.115   2.892
  114DPPC   C44 5694   0.946   4.192   2.969
  114DPPC   C45 5695   1.011   4.319   3.025
  114DPPC   C46 5696   0.921   4.406   3.112
  114DPPC   C47 5697   0.845   4.501   3.020
  114DPPC   C48 5698   0.692   4.488   3.017
  114DPPC   C49 5699   0.619   4.587   2.926
  114DPPC   C50 5700   0.471   4.548   2.925
  115DPPC    C1 5701   4.051   3.127   2.114
  115DPPC    C2 5702   3.952   3.267   1.953
  115DPPC    C3 5703   3.844   3.239   2.161
  115DPPC    N4 5704   3.976   3.252   2.097
  115DPPC    C5 5705   4.060   3.357   2.156
  115DPPC    C6 5706   4.047   3.498   2.098
  115DPPC    O7 5707   3.927   3.565   2.137
  115DPPC    P8 5708   3.918   3.712   2.073
  115DPPC    O9 5709   3.813   3.677   1.975
  115DPPC   O10 5710   4.063   3.731   2.050
  115DPPC   O11 5711   3.859   3.789   2.201
  115DPPC   C12 5712   3.979   3.810   2.275
  115DPPC   C13 5713   3.974   3.905   2.395
  115DPPC   O14 5714   4.099   3.918   2.465
  115DPPC   C15 5715   4.151   4.043   2.476
  115DPPC   O16 5716   4.103   4.134   2.408
  115DPPC   C17 5717   4.272   4.059   2.568
  115DPPC   C18 5718   4.311   4.207   2.579
  115DPPC   C19 5719   4.454   4.214   2.631
  115DPPC   C20 5720   4.492   4.356   2.671
  115DPPC   C21 5721   4.629   4.368   2.738
  115DPPC   C22 5722   4.629   4.284   2.866
  115DPPC   C23 5723   4.774   4.251   2.903
  115DPPC   C24 5724   4.794   4.238   3.054
  115DPPC   C25 5725   4.934   4.187   3.088
  115DPPC   C26 5726   4.949   4.183   3.240
  115DPPC   C27 5727   5.095   4.163   3.281
  115DPPC   C28 5728   5.118   4.156   3.432
  115DPPC   C29 5729   5.059   4.029   3.493
  115DPPC   C30 5730   5.058   4.035   3.646
  115DPPC   C31 5731   4.934   4.115   3.686
  115DPPC   C32 5732   3.848   3.853   2.464
  115DPPC   O33 5733   3.805   3.930   2.576
  115DPPC   C34 5734   3.749   4.052   2.558
  115DPPC   O35 5735   3.728   4.111   2.452
  115DPPC   C36 5736   3.724   4.123   2.692
  115DPPC   C37 5737   3.832   4.108   2.800
  115DPPC   C38 5738   3.835   3.975   2.875
  115DPPC   C39 5739   3.928   3.996   2.994
  115DPPC   C40 5740   4.063   4.043   2.938
  115DPPC   C41 5741   4.163   4.064   3.052
  115DPPC   C42 5742   4.129   4.187   3.136
  115DPPC   C43 5743   4.213   4.165   3.262
  115DPPC   C44 5744   4.184   4.279   3.360
  115DPPC   C45 5745   4.033   4.293   3.378
  115DPPC   C46 5746   4.001   4.411   3.470
  115DPPC   C47 5747   3.851   4.425   3.493
  115DPPC   C48 5748   3.789   4.546   3.564
  115DPPC   C49 5749   3.638   4.521   3.579
  115DPPC   C50 5750   3.563   4.626   3.660
  116DPPC    C1 5751   6.795   8.431   2.163
  116DPPC    C2 5752   7.017   8.408   2.224
  116DPPC    C3 5753   6.849   8.263   2.306
  116DPPC    N4 5754   6.899   8.329   2.184
  116DPPC    C5 5755   6.927   8.245   2.067
  116DPPC    C6 5756   6.820   8.139   2.041
  116DPPC    O7 5757   6.835   8.019   2.117
  116DPPC    P8 5758   6.715   7.916   2.086
  116DPPC    O9 5759   6.757   7.774   2.090
  116DPPC   O10 5760   6.643   7.970   1.969
  116DPPC   O11 5761   6.630   7.950   2.218
  116DPPC   C12 5762   6.625   7.840   2.310
  116DPPC   C13 5763   6.531   7.863   2.428
  116DPPC   O14 5764   6.395   7.872   2.383
  116DPPC   C15 5765   6.279   7.892   2.450
  116DPPC   O16 5766   6.170   7.887   2.394
  116DPPC   C17 5767   6.294   7.867   2.600
  116DPPC   C18 5768   6.255   7.981   2.695
  116DPPC   C19 5769   6.304   7.938   2.833
  116DPPC   C20 5770   6.272   8.054   2.928
  116DPPC   C21 5771   6.375   8.163   2.899
  116DPPC   C22 5772   6.343   8.283   2.989
  116DPPC   C23 5773   6.334   8.236   3.134
  116DPPC   C24 5774   6.350   8.352   3.233
  116DPPC   C25 5775   6.378   8.316   3.379
  116DPPC   C26 5776   6.269   8.232   3.446
  116DPPC   C27 5777   6.314   8.182   3.583
  116DPPC   C28 5778   6.229   8.062   3.628
  116DPPC   C29 5779   6.262   8.001   3.764
  116DPPC   C30 5780   6.163   7.894   3.809
  116DPPC   C31 5781   6.023   7.949   3.840
  116DPPC   C32 5782   6.585   7.987   2.500
  116DPPC   O33 5783   6.702   7.943   2.569
  116DPPC   C34 5784   6.751   8.044   2.646
  116DPPC   O35 5785   6.681   8.142   2.668
  116DPPC   C36 5786   6.875   8.009   2.729
  116DPPC   C37 5787   6.999   7.982   2.643
  116DPPC   C38 5788   7.118   7.956   2.736
  116DPPC   C39 5789   7.142   8.057   2.848
  116DPPC   C40 5790   7.245   8.018   2.953
  116DPPC   C41 5791   7.374   7.969   2.885
  116DPPC   C42 5792   7.463   8.086   2.841
  116DPPC   C43 5793   7.540   8.162   2.948
  116DPPC   C44 5794   7.677   8.098   2.973
  116DPPC   C45 5795   7.746   8.158   3.096
  116DPPC   C46 5796   7.772   8.307   3.072
  116DPPC   C47 5797   7.874   8.357   3.175
  116DPPC   C48 5798   7.808   8.401   3.306
  116DPPC   C49 5799   7.894   8.503   3.381
  116DPPC   C50 5800   8.028   8.444   3.426
  117DPPC    C1 5801   5.729   4.494   1.893
  117DPPC    C2 5802   5.868   4.533   1.723
  117DPPC    C3 5803   5.915   4.589   1.956
  117DPPC    N4 5804   5.872   4.485   1.862
  117DPPC    C5 5805   5.908   4.344   1.884
  117DPPC    C6 5806   6.035   4.294   1.814
  117DPPC    O7 5807   6.052   4.153   1.826
  117DPPC    P8 5808   6.180   4.115   1.736
  117DPPC    O9 5809   6.167   4.188   1.607
  117DPPC   O10 5810   6.241   3.981   1.744
  117DPPC   O11 5811   6.289   4.202   1.815
  117DPPC   C12 5812   6.342   4.137   1.931
  117DPPC   C13 5813   6.449   4.222   2.001
  117DPPC   O14 5814   6.545   4.149   2.078
  117DPPC   C15 5815   6.643   4.074   2.020
  117DPPC   O16 5816   6.653   4.072   1.898
  117DPPC   C17 5817   6.738   3.991   2.107
  117DPPC   C18 5818   6.697   3.995   2.254
  117DPPC   C19 5819   6.816   3.949   2.338
  117DPPC   C20 5820   6.818   3.983   2.488
  117DPPC   C21 5821   6.883   3.875   2.575
  117DPPC   C22 5822   6.829   3.738   2.537
  117DPPC   C23 5823   6.895   3.625   2.616
  117DPPC   C24 5824   6.876   3.651   2.766
  117DPPC   C25 5825   6.922   3.526   2.840
  117DPPC   C26 5826   6.838   3.405   2.797
  117DPPC   C27 5827   6.751   3.349   2.910
  117DPPC   C28 5828   6.672   3.226   2.865
  117DPPC   C29 5829   6.599   3.172   2.988
  117DPPC   C30 5830   6.478   3.083   2.961
  117DPPC   C31 5831   6.404   3.036   3.086
  117DPPC   C32 5832   6.377   4.338   2.071
  117DPPC   O33 5833   6.281   4.296   2.169
  117DPPC   C34 5834   6.205   4.403   2.207
  117DPPC   O35 5835   6.198   4.496   2.126
  117DPPC   C36 5836   6.106   4.370   2.318
  117DPPC   C37 5837   5.976   4.318   2.257
  117DPPC   C38 5838   5.873   4.301   2.369
  117DPPC   C39 5839   5.869   4.431   2.450
  117DPPC   C40 5840   5.744   4.514   2.424
  117DPPC   C41 5841   5.747   4.626   2.528
  117DPPC   C42 5842   5.752   4.560   2.666
  117DPPC   C43 5843   5.710   4.666   2.769
  117DPPC   C44 5844   5.742   4.618   2.911
  117DPPC   C45 5845   5.733   4.724   3.021
  117DPPC   C46 5846   5.760   4.652   3.153
  117DPPC   C47 5847   5.707   4.749   3.260
  117DPPC   C48 5848   5.755   4.706   3.398
  117DPPC   C49 5849   5.723   4.557   3.398
  117DPPC   C50 5850   5.768   4.503   3.534
  118DPPC    C1 5851   4.689   0.085   1.568
  118DPPC    C2 5852   4.916   0.035   1.595
  118DPPC    C3 5853   4.816   0.265   1.653
  118DPPC    N4 5854   4.807   0.118   1.649
  118DPPC    C5 5855   4.795   0.087   1.792
  118DPPC    C6 5856   4.771  -0.058   1.835
  118DPPC    O7 5857   4.629  -0.077   1.835
  118DPPC    P8 5858   4.599  -0.229   1.879
  118DPPC    O9 5859   4.668  -0.307   1.774
  118DPPC   O10 5860   4.454  -0.245   1.906
  118DPPC   O11 5861   4.680  -0.218   2.017
  118DPPC   C12 5862   4.580  -0.209   2.119
  118DPPC   C13 5863   4.627  -0.194   2.264
  118DPPC   O14 5864   4.643  -0.319   2.332
  118DPPC   C15 5865   4.767  -0.331   2.387
  118DPPC   O16 5866   4.840  -0.232   2.391
  118DPPC   C17 5867   4.799  -0.457   2.468
  118DPPC   C18 5868   4.810  -0.590   2.393
  118DPPC   C19 5869   4.900  -0.680   2.478
  118DPPC   C20 5870   4.833  -0.712   2.612
  118DPPC   C21 5871   4.785  -0.855   2.637
  118DPPC   C22 5872   4.697  -0.876   2.760
  118DPPC   C23 5873   4.620  -1.007   2.778
  118DPPC   C24 5874   4.539  -1.015   2.908
  118DPPC   C25 5875   4.453  -1.140   2.896
  118DPPC   C26 5876   4.347  -1.169   3.002
  118DPPC   C27 5877   4.265  -1.295   2.976
  118DPPC   C28 5878   4.178  -1.330   3.096
  118DPPC   C29 5879   4.254  -1.330   3.229
  118DPPC   C30 5880   4.160  -1.335   3.350
  118DPPC   C31 5881   4.064  -1.452   3.327
  118DPPC   C32 5882   4.530  -0.094   2.327
  118DPPC   O33 5883   4.399  -0.149   2.347
  118DPPC   C34 5884   4.311  -0.051   2.381
  118DPPC   O35 5885   4.341   0.064   2.413
  118DPPC   C36 5886   4.169  -0.101   2.408
  118DPPC   C37 5887   4.185  -0.210   2.514
  118DPPC   C38 5888   4.047  -0.262   2.555
  118DPPC   C39 5889   4.063  -0.369   2.663
  118DPPC   C40 5890   3.920  -0.405   2.703
  118DPPC   C41 5891   3.902  -0.518   2.805
  118DPPC   C42 5892   3.756  -0.515   2.849
  118DPPC   C43 5893   3.719  -0.637   2.933
  118DPPC   C44 5894   3.567  -0.638   2.944
  118DPPC   C45 5895   3.529  -0.754   3.036
  118DPPC   C46 5896   3.376  -0.764   3.036
  118DPPC   C47 5897   3.343  -0.884   3.126
  118DPPC   C48 5898   3.325  -0.835   3.269
  118DPPC   C49 5899   3.215  -0.729   3.283
  118DPPC   C50 5900   3.090  -0.790   3.219
  119DPPC    C1 5901   0.442   6.210   0.592
  119DPPC    C2 5902   0.556   6.115   0.791
  119DPPC    C3 5903   0.619   6.325   0.699
  119DPPC    N4 5904   0.506   6.234   0.722
  119DPPC    C5 5905   0.413   6.300   0.815
  119DPPC    C6 5906   0.270   6.248   0.828
  119DPPC    O7 5907   0.209   6.296   0.948
  119DPPC    P8 5908   0.083   6.199   0.975
  119DPPC    O9 5909   0.129   6.060   0.955
  119DPPC   O10 5910  -0.023   6.266   0.897
  119DPPC   O11 5911   0.063   6.212   1.134
  119DPPC   C12 5912   0.163   6.122   1.182
  119DPPC   C13 5913   0.209   6.155   1.324
  119DPPC   O14 5914   0.123   6.126   1.436
  119DPPC   C15 5915   0.149   6.003   1.487
  119DPPC   O16 5916   0.248   5.943   1.446
  119DPPC   C17 5917   0.052   5.938   1.586
  119DPPC   C18 5918   0.080   5.976   1.732
  119DPPC   C19 5919   0.030   6.111   1.783
  119DPPC   C20 5920   0.114   6.126   1.910
  119DPPC   C21 5921   0.084   6.264   1.969
  119DPPC   C22 5922   0.167   6.270   2.097
  119DPPC   C23 5923   0.125   6.383   2.191
  119DPPC   C24 5924   0.183   6.363   2.331
  119DPPC   C25 5925   0.335   6.376   2.331
  119DPPC   C26 5926   0.378   6.370   2.477
  119DPPC   C27 5927   0.527   6.364   2.511
  119DPPC   C28 5928   0.620   6.457   2.432
  119DPPC   C29 5929   0.752   6.460   2.508
  119DPPC   C30 5930   0.728   6.501   2.654
  119DPPC   C31 5931   0.854   6.480   2.738
  119DPPC   C32 5932   0.256   6.300   1.310
  119DPPC   O33 5933   0.283   6.360   1.437
  119DPPC   C34 5934   0.294   6.495   1.437
  119DPPC   O35 5935   0.284   6.546   1.326
  119DPPC   C36 5936   0.278   6.579   1.564
  119DPPC   C37 5937   0.301   6.505   1.696
  119DPPC   C38 5938   0.273   6.587   1.822
  119DPPC   C39 5939   0.361   6.712   1.831
  119DPPC   C40 5940   0.359   6.790   1.963
  119DPPC   C41 5941   0.409   6.680   2.057
  119DPPC   C42 5942   0.359   6.728   2.193
  119DPPC   C43 5943   0.439   6.854   2.228
  119DPPC   C44 5944   0.385   6.908   2.360
  119DPPC   C45 5945   0.433   7.047   2.401
  119DPPC   C46 5946   0.373   7.087   2.536
  119DPPC   C47 5947   0.243   7.165   2.519
  119DPPC   C48 5948   0.182   7.205   2.654
  119DPPC   C49 5949   0.282   7.276   2.745
  119DPPC   C50 5950   0.243   7.276   2.893
  120DPPC    C1 5951   4.137   6.472   2.068
  120DPPC    C2 5952   3.939   6.563   1.962
  120DPPC    C3 5953   3.910   6.399   2.126
  120DPPC    N4 5954   3.996   6.511   2.087
  120DPPC    C5 5955   3.995   6.614   2.192
  120DPPC    C6 5956   4.088   6.735   2.195
  120DPPC    O7 5957   4.072   6.821   2.308
  120DPPC    P8 5958   4.209   6.903   2.332
  120DPPC    O9 5959   4.191   7.006   2.437
  120DPPC   O10 5960   4.252   6.938   2.195
  120DPPC   O11 5961   4.297   6.784   2.395
  120DPPC   C12 5962   4.254   6.765   2.530
  120DPPC   C13 5963   4.173   6.637   2.546
  120DPPC   O14 5964   4.059   6.653   2.633
  120DPPC   C15 5965   3.937   6.624   2.580
  120DPPC   O16 5966   3.919   6.558   2.478
  120DPPC   C17 5967   3.812   6.635   2.668
  120DPPC   C18 5968   3.789   6.499   2.733
  120DPPC   C19 5969   3.654   6.480   2.804
  120DPPC   C20 5970   3.632   6.586   2.912
  120DPPC   C21 5971   3.487   6.586   2.962
  120DPPC   C22 5972   3.484   6.692   3.073
  120DPPC   C23 5973   3.344   6.689   3.136
  120DPPC   C24 5974   3.331   6.810   3.229
  120DPPC   C25 5975   3.206   6.787   3.314
  120DPPC   C26 5976   3.209   6.651   3.385
  120DPPC   C27 5977   3.070   6.611   3.434
  120DPPC   C28 5978   3.071   6.622   3.586
  120DPPC   C29 5979   2.949   6.564   3.659
  120DPPC   C30 5980   2.847   6.674   3.688
  120DPPC   C31 5981   2.726   6.629   3.771
  120DPPC   C32 5982   4.251   6.506   2.564
  120DPPC   O33 5983   4.368   6.515   2.646
  120DPPC   C34 5984   4.429   6.395   2.661
  120DPPC   O35 5985   4.389   6.297   2.597
  120DPPC   C36 5986   4.549   6.366   2.753
  120DPPC   C37 5987   4.510   6.355   2.900
  120DPPC   C38 5988   4.626   6.327   2.995
  120DPPC   C39 5989   4.718   6.450   2.988
  120DPPC   C40 5990   4.842   6.446   3.077
  120DPPC   C41 5991   4.903   6.586   3.093
  120DPPC   C42 5992   4.933   6.652   2.959
  120DPPC   C43 5993   4.967   6.800   2.975
  120DPPC   C44 5994   4.975   6.866   2.837
  120DPPC   C45 5995   5.012   7.014   2.841
  120DPPC   C46 5996   4.935   7.099   2.943
  120DPPC   C47 5997   5.017   7.225   2.972
  120DPPC   C48 5998   4.940   7.321   3.063
  120DPPC   C49 5999   5.037   7.432   3.102
  120DPPC   C50 6000   4.971   7.534   3.195
  121DPPC    C1 6001   7.243   3.182   2.202
  121DPPC    C2 6002   7.293   2.997   2.333
  121DPPC    C3 6003   7.135   2.972   2.147
  121DPPC    N4 6004   7.258   3.036   2.196
  121DPPC    C5 6005   7.367   2.988   2.110
  121DPPC    C6 6006   7.400   3.060   1.979
  121DPPC    O7 6007   7.528   3.011   1.938
  121DPPC    P8 6008   7.570   3.057   1.790
  121DPPC    O9 6009   7.457   3.108   1.710
  121DPPC   O10 6010   7.665   2.960   1.730
  121DPPC   O11 6011   7.666   3.180   1.834
  121DPPC   C12 6012   7.780   3.134   1.907
  121DPPC   C13 6013   7.819   3.214   2.032
  121DPPC   O14 6014   7.942   3.173   2.094
  121DPPC   C15 6015   8.043   3.264   2.096
  121DPPC   O16 6016   8.048   3.353   2.010
  121DPPC   C17 6017   8.163   3.241   2.187
  121DPPC   C18 6018   8.159   3.335   2.309
  121DPPC   C19 6019   8.054   3.285   2.408
  121DPPC   C20 6020   8.073   3.361   2.540
  121DPPC   C21 6021   8.025   3.284   2.664
  121DPPC   C22 6022   8.058   3.373   2.785
  121DPPC   C23 6023   7.979   3.333   2.910
  121DPPC   C24 6024   7.831   3.363   2.887
  121DPPC   C25 6025   7.749   3.314   3.006
  121DPPC   C26 6026   7.801   3.367   3.140
  121DPPC   C27 6027   7.754   3.509   3.170
  121DPPC   C28 6028   7.831   3.561   3.292
  121DPPC   C29 6029   7.973   3.580   3.239
  121DPPC   C30 6030   8.066   3.624   3.352
  121DPPC   C31 6031   8.071   3.524   3.468
  121DPPC   C32 6032   7.709   3.200   2.138
  121DPPC   O33 6033   7.706   3.312   2.226
  121DPPC   C34 6034   7.623   3.290   2.331
  121DPPC   O35 6035   7.516   3.229   2.318
  121DPPC   C36 6036   7.660   3.355   2.465
  121DPPC   C37 6037   7.674   3.505   2.443
  121DPPC   C38 6038   7.751   3.574   2.556
  121DPPC   C39 6039   7.781   3.723   2.540
  121DPPC   C40 6040   7.864   3.757   2.664
  121DPPC   C41 6041   7.909   3.903   2.652
  121DPPC   C42 6042   7.978   3.940   2.784
  121DPPC   C43 6043   7.882   3.925   2.903
  121DPPC   C44 6044   7.945   3.992   3.025
  121DPPC   C45 6045   7.850   4.006   3.145
  121DPPC   C46 6046   7.935   4.067   3.257
  121DPPC   C47 6047   7.861   4.084   3.390
  121DPPC   C48 6048   7.961   4.113   3.502
  121DPPC   C49 6049   7.894   4.122   3.639
  121DPPC   C50 6050   8.004   4.176   3.731
  122DPPC    C1 6051   6.909   6.523   1.591
  122DPPC    C2 6052   7.142   6.537   1.544
  122DPPC    C3 6053   6.988   6.683   1.447
  122DPPC    N4 6054   7.021   6.616   1.573
  122DPPC    C5 6055   7.025   6.702   1.693
  122DPPC    C6 6056   7.146   6.791   1.720
  122DPPC    O7 6057   7.159   6.905   1.635
  122DPPC    P8 6058   7.319   6.924   1.641
  122DPPC    O9 6059   7.340   7.050   1.566
  122DPPC   O10 6060   7.370   6.790   1.608
  122DPPC   O11 6061   7.338   6.969   1.795
  122DPPC   C12 6062   7.279   7.092   1.839
  122DPPC   C13 6063   7.330   7.133   1.978
  122DPPC   O14 6064   7.468   7.161   2.001
  122DPPC   C15 6065   7.520   7.281   1.964
  122DPPC   O16 6066   7.455   7.363   1.898
  122DPPC   C17 6067   7.647   7.322   2.038
  122DPPC   C18 6068   7.632   7.313   2.190
  122DPPC   C19 6069   7.768   7.362   2.241
  122DPPC   C20 6070   7.761   7.368   2.393
  122DPPC   C21 6071   7.903   7.368   2.452
  122DPPC   C22 6072   7.970   7.231   2.457
  122DPPC   C23 6073   8.107   7.245   2.524
  122DPPC   C24 6074   8.130   7.104   2.579
  122DPPC   C25 6075   8.248   7.091   2.675
  122DPPC   C26 6076   8.249   6.943   2.716
  122DPPC   C27 6077   8.344   6.928   2.835
  122DPPC   C28 6078   8.310   7.034   2.939
  122DPPC   C29 6079   8.383   7.011   3.072
  122DPPC   C30 6080   8.372   7.137   3.157
  122DPPC   C31 6081   8.418   7.118   3.302
  122DPPC   C32 6082   7.290   7.009   2.058
  122DPPC   O33 6083   7.147   7.008   2.065
  122DPPC   C34 6084   7.089   6.910   2.139
  122DPPC   O35 6085   7.143   6.800   2.141
  122DPPC   C36 6086   6.939   6.927   2.166
  122DPPC   C37 6087   6.911   6.901   2.314
  122DPPC   C38 6088   6.894   6.751   2.335
  122DPPC   C39 6089   6.864   6.730   2.484
  122DPPC   C40 6090   6.985   6.763   2.572
  122DPPC   C41 6091   6.946   6.738   2.717
  122DPPC   C42 6092   7.057   6.758   2.821
  122DPPC   C43 6093   7.111   6.900   2.831
  122DPPC   C44 6094   7.247   6.912   2.901
  122DPPC   C45 6095   7.232   6.850   3.041
  122DPPC   C46 6096   7.362   6.862   3.120
  122DPPC   C47 6097   7.388   6.742   3.212
  122DPPC   C48 6098   7.513   6.754   3.301
  122DPPC   C49 6099   7.633   6.704   3.221
  122DPPC   C50 6100   7.757   6.748   3.300
  123DPPC    C1 6101   8.133   8.059   1.829
  123DPPC    C2 6102   7.949   8.164   1.745
  123DPPC    C3 6103   8.064   8.055   1.599
  123DPPC    N4 6104   8.020   8.035   1.738
  123DPPC    C5 6105   7.940   7.914   1.761
  123DPPC    C6 6106   8.010   7.780   1.739
  123DPPC    O7 6107   7.920   7.671   1.718
  123DPPC    P8 6108   8.008   7.555   1.648
  123DPPC    O9 6109   8.070   7.642   1.545
  123DPPC   O10 6110   7.909   7.448   1.623
  123DPPC   O11 6111   8.097   7.527   1.780
  123DPPC   C12 6112   8.046   7.401   1.827
  123DPPC   C13 6113   8.128   7.361   1.950
  123DPPC   O14 6114   8.068   7.241   2.000
  123DPPC   C15 6115   8.131   7.125   1.967
  123DPPC   O16 6116   8.202   7.118   1.868
  123DPPC   C17 6117   8.060   6.997   2.013
  123DPPC   C18 6118   8.158   6.900   2.078
  123DPPC   C19 6119   8.088   6.777   2.137
  123DPPC   C20 6120   8.191   6.704   2.223
  123DPPC   C21 6121   8.184   6.739   2.372
  123DPPC   C22 6122   8.092   6.657   2.463
  123DPPC   C23 6123   8.106   6.506   2.442
  123DPPC   C24 6124   7.989   6.451   2.525
  123DPPC   C25 6125   7.968   6.300   2.514
  123DPPC   C26 6126   7.851   6.253   2.602
  123DPPC   C27 6127   7.807   6.110   2.571
  123DPPC   C28 6128   7.713   6.048   2.674
  123DPPC   C29 6129   7.799   6.045   2.800
  123DPPC   C30 6130   7.746   5.961   2.917
  123DPPC   C31 6131   7.823   5.979   3.048
  123DPPC   C32 6132   8.111   7.480   2.044
  123DPPC   O33 6133   8.234   7.524   2.103
  123DPPC   C34 6134   8.210   7.624   2.192
  123DPPC   O35 6135   8.118   7.625   2.273
  123DPPC   C36 6136   8.342   7.702   2.204
  123DPPC   C37 6137   8.380   7.734   2.348
  123DPPC   C38 6138   8.415   7.610   2.431
  123DPPC   C39 6139   8.425   7.635   2.581
  123DPPC   C40 6140   8.461   7.510   2.661
  123DPPC   C41 6141   8.435   7.528   2.811
  123DPPC   C42 6142   8.299   7.474   2.854
  123DPPC   C43 6143   8.300   7.514   3.001
  123DPPC   C44 6144   8.160   7.494   3.059
  123DPPC   C45 6145   8.161   7.526   3.209
  123DPPC   C46 6146   8.217   7.668   3.215
  123DPPC   C47 6147   8.236   7.688   3.365
  123DPPC   C48 6148   8.302   7.563   3.425
  123DPPC   C49 6149   8.351   7.588   3.568
  123DPPC   C50 6150   8.241   7.604   3.674
  124DPPC    C1 6151   6.370   3.338   2.105
  124DPPC    C2 6152   6.346   3.178   2.269
  124DPPC    C3 6153   6.167   3.216   2.110
  124DPPC    N4 6154   6.312   3.205   2.129
  124DPPC    C5 6155   6.361   3.104   2.034
  124DPPC    C6 6156   6.510   3.104   2.000
  124DPPC    O7 6157   6.605   3.108   2.107
  124DPPC    P8 6158   6.753   3.106   2.044
  124DPPC    O9 6159   6.740   3.172   1.912
  124DPPC   O10 6160   6.837   2.984   2.054
  124DPPC   O11 6161   6.813   3.203   2.157
  124DPPC   C12 6162   6.827   3.141   2.285
  124DPPC   C13 6163   6.863   3.238   2.397
  124DPPC   O14 6164   6.858   3.174   2.526
  124DPPC   C15 6165   6.964   3.095   2.557
  124DPPC   O16 6166   7.053   3.082   2.474
  124DPPC   C17 6167   6.978   3.029   2.695
  124DPPC   C18 6168   7.120   3.034   2.752
  124DPPC   C19 6169   7.121   2.999   2.901
  124DPPC   C20 6170   7.031   3.085   2.990
  124DPPC   C21 6171   7.041   3.040   3.136
  124DPPC   C22 6172   6.961   3.123   3.236
  124DPPC   C23 6173   6.959   3.072   3.380
  124DPPC   C24 6174   6.833   3.134   3.440
  124DPPC   C25 6175   6.712   3.110   3.350
  124DPPC   C26 6176   6.582   3.147   3.421
  124DPPC   C27 6177   6.574   3.299   3.421
  124DPPC   C28 6178   6.457   3.332   3.513
  124DPPC   C29 6179   6.457   3.465   3.590
  124DPPC   C30 6180   6.345   3.463   3.694
  124DPPC   C31 6181   6.390   3.422   3.835
  124DPPC   C32 6182   6.776   3.363   2.388
  124DPPC   O33 6183   6.633   3.367   2.398
  124DPPC   C34 6184   6.594   3.497   2.387
  124DPPC   O35 6185   6.643   3.564   2.297
  124DPPC   C36 6186   6.488   3.546   2.486
  124DPPC   C37 6187   6.479   3.461   2.613
  124DPPC   C38 6188   6.364   3.509   2.702
  124DPPC   C39 6189   6.346   3.414   2.820
  124DPPC   C40 6190   6.208   3.428   2.885
  124DPPC   C41 6191   6.196   3.375   3.028
  124DPPC   C42 6192   6.048   3.359   3.065
  124DPPC   C43 6193   6.021   3.335   3.214
  124DPPC   C44 6194   5.987   3.187   3.231
  124DPPC   C45 6195   5.970   3.169   3.382
  124DPPC   C46 6196   5.983   3.019   3.407
  124DPPC   C47 6197   5.951   2.989   3.553
  124DPPC   C48 6198   5.959   2.838   3.580
  124DPPC   C49 6199   5.866   2.795   3.693
  124DPPC   C50 6200   5.890   2.646   3.718
  125DPPC    C1 6201   2.427   0.014   1.498
  125DPPC    C2 6202   2.299   0.129   1.666
  125DPPC    C3 6203   2.200   0.041   1.478
  125DPPC    N4 6204   2.304   0.012   1.577
  125DPPC    C5 6205   2.287  -0.108   1.662
  125DPPC    C6 6206   2.291  -0.243   1.590
  125DPPC    O7 6207   2.166  -0.278   1.529
  125DPPC    P8 6208   2.187  -0.402   1.430
  125DPPC    O9 6209   2.318  -0.378   1.365
  125DPPC   O10 6210   2.061  -0.415   1.353
  125DPPC   O11 6211   2.189  -0.504   1.555
  125DPPC   C12 6212   2.053  -0.545   1.574
  125DPPC   C13 6213   2.026  -0.607   1.711
  125DPPC   O14 6214   1.949  -0.526   1.800
  125DPPC   C15 6215   1.817  -0.517   1.767
  125DPPC   O16 6216   1.753  -0.600   1.702
  125DPPC   C17 6217   1.751  -0.410   1.854
  125DPPC   C18 6218   1.686  -0.479   1.974
  125DPPC   C19 6219   1.607  -0.373   2.050
  125DPPC   C20 6220   1.686  -0.285   2.147
  125DPPC   C21 6221   1.596  -0.175   2.204
  125DPPC   C22 6222   1.673  -0.106   2.317
  125DPPC   C23 6223   1.570  -0.021   2.393
  125DPPC   C24 6224   1.452  -0.115   2.415
  125DPPC   C25 6225   1.338  -0.049   2.494
  125DPPC   C26 6226   1.379   0.005   2.631
  125DPPC   C27 6227   1.271   0.092   2.694
  125DPPC   C28 6228   1.160  -0.003   2.740
  125DPPC   C29 6229   1.033   0.078   2.764
  125DPPC   C30 6230   0.916  -0.003   2.821
  125DPPC   C31 6231   0.796   0.091   2.835
  125DPPC   C32 6232   2.163  -0.637   1.773
  125DPPC   O33 6233   2.167  -0.711   1.895
  125DPPC   C34 6234   2.291  -0.732   1.949
  125DPPC   O35 6235   2.389  -0.737   1.875
  125DPPC   C36 6236   2.287  -0.785   2.092
  125DPPC   C37 6237   2.198  -0.699   2.182
  125DPPC   C38 6238   2.267  -0.569   2.224
  125DPPC   C39 6239   2.407  -0.604   2.276
  125DPPC   C40 6240   2.485  -0.474   2.300
  125DPPC   C41 6241   2.413  -0.371   2.386
  125DPPC   C42 6242   2.512  -0.269   2.443
  125DPPC   C43 6243   2.422  -0.174   2.523
  125DPPC   C44 6244   2.508  -0.058   2.573
  125DPPC   C45 6245   2.575   0.021   2.461
  125DPPC   C46 6246   2.632   0.151   2.517
  125DPPC   C47 6247   2.512   0.211   2.591
  125DPPC   C48 6248   2.544   0.348   2.650
  125DPPC   C49 6249   2.432   0.382   2.748
  125DPPC   C50 6250   2.484   0.492   2.841
  126DPPC    C1 6251   6.584   3.752   1.742
  126DPPC    C2 6252   6.550   3.911   1.582
  126DPPC    C3 6253   6.607   3.696   1.499
  126DPPC    N4 6254   6.533   3.766   1.605
  126DPPC    C5 6255   6.390   3.738   1.589
  126DPPC    C6 6256   6.334   3.606   1.644
  126DPPC    O7 6257   6.196   3.576   1.626
  126DPPC    P8 6258   6.127   3.442   1.682
  126DPPC    O9 6259   6.234   3.370   1.755
  126DPPC   O10 6260   6.060   3.400   1.557
  126DPPC   O11 6261   6.031   3.515   1.788
  126DPPC   C12 6262   6.083   3.565   1.912
  126DPPC   C13 6263   6.135   3.708   1.904
  126DPPC   O14 6264   6.192   3.754   2.028
  126DPPC   C15 6265   6.320   3.722   2.060
  126DPPC   O16 6266   6.387   3.639   1.998
  126DPPC   C17 6267   6.369   3.799   2.182
  126DPPC   C18 6268   6.248   3.847   2.263
  126DPPC   C19 6269   6.289   3.873   2.408
  126DPPC   C20 6270   6.185   3.944   2.495
  126DPPC   C21 6271   6.224   3.956   2.642
  126DPPC   C22 6272   6.118   4.032   2.722
  126DPPC   C23 6273   6.113   4.180   2.684
  126DPPC   C24 6274   6.022   4.248   2.786
  126DPPC   C25 6275   6.085   4.242   2.926
  126DPPC   C26 6276   6.014   4.335   3.025
  126DPPC   C27 6277   6.088   4.353   3.157
  126DPPC   C28 6278   6.221   4.430   3.156
  126DPPC   C29 6279   6.294   4.404   3.288
  126DPPC   C30 6280   6.307   4.253   3.308
  126DPPC   C31 6281   6.347   4.215   3.451
  126DPPC   C32 6282   6.015   3.787   1.851
  126DPPC   O33 6283   5.905   3.786   1.941
  126DPPC   C34 6284   5.806   3.872   1.904
  126DPPC   O35 6285   5.794   3.911   1.788
  126DPPC   C36 6286   5.695   3.876   2.009
  126DPPC   C37 6287   5.729   3.956   2.135
  126DPPC   C38 6288   5.625   3.965   2.246
  126DPPC   C39 6289   5.695   3.997   2.378
  126DPPC   C40 6290   5.590   4.049   2.476
  126DPPC   C41 6291   5.665   4.072   2.607
  126DPPC   C42 6292   5.576   4.120   2.721
  126DPPC   C43 6293   5.659   4.128   2.850
  126DPPC   C44 6294   5.564   4.182   2.956
  126DPPC   C45 6295   5.624   4.155   3.094
  126DPPC   C46 6296   5.524   4.187   3.206
  126DPPC   C47 6297   5.587   4.169   3.344
  126DPPC   C48 6298   5.481   4.166   3.454
  126DPPC   C49 6299   5.547   4.152   3.591
  126DPPC   C50 6300   5.446   4.123   3.702
  127DPPC    C1 6301   2.239   6.172   1.288
  127DPPC    C2 6302   2.416   6.255   1.420
  127DPPC    C3 6303   2.417   6.241   1.172
  127DPPC    N4 6304   2.343   6.276   1.294
  127DPPC    C5 6305   2.261   6.397   1.288
  127DPPC    C6 6306   2.338   6.527   1.314
  127DPPC    O7 6307   2.241   6.624   1.352
  127DPPC    P8 6308   2.312   6.761   1.399
  127DPPC    O9 6309   2.292   6.851   1.283
  127DPPC   O10 6310   2.448   6.737   1.453
  127DPPC   O11 6311   2.214   6.819   1.513
  127DPPC   C12 6312   2.228   6.747   1.636
  127DPPC   C13 6313   2.181   6.817   1.764
  127DPPC   O14 6314   2.205   6.744   1.885
  127DPPC   C15 6315   2.326   6.727   1.944
  127DPPC   O16 6316   2.424   6.760   1.878
  127DPPC   C17 6317   2.338   6.700   2.095
  127DPPC   C18 6318   2.477   6.645   2.129
  127DPPC   C19 6319   2.490   6.619   2.279
  127DPPC   C20 6320   2.632   6.571   2.310
  127DPPC   C21 6321   2.641   6.555   2.462
  127DPPC   C22 6322   2.636   6.689   2.534
  127DPPC   C23 6323   2.643   6.670   2.686
  127DPPC   C24 6324   2.769   6.606   2.744
  127DPPC   C25 6325   2.763   6.618   2.896
  127DPPC   C26 6326   2.895   6.553   2.938
  127DPPC   C27 6327   2.893   6.527   3.088
  127DPPC   C28 6328   2.787   6.422   3.123
  127DPPC   C29 6329   2.811   6.372   3.265
  127DPPC   C30 6330   2.698   6.271   3.287
  127DPPC   C31 6331   2.706   6.212   3.428
  127DPPC   C32 6332   2.033   6.840   1.732
  127DPPC   O33 6333   1.953   6.939   1.796
  127DPPC   C34 6334   1.862   6.998   1.714
  127DPPC   O35 6335   1.864   6.972   1.593
  127DPPC   C36 6336   1.765   7.098   1.776
  127DPPC   C37 6337   1.718   7.040   1.910
  127DPPC   C38 6338   1.586   7.109   1.947
  127DPPC   C39 6339   1.539   7.074   2.088
  127DPPC   C40 6340   1.408   7.144   2.125
  127DPPC   C41 6341   1.332   7.084   2.243
  127DPPC   C42 6342   1.423   7.101   2.365
  127DPPC   C43 6343   1.359   7.041   2.491
  127DPPC   C44 6344   1.448   7.090   2.606
  127DPPC   C45 6345   1.596   7.055   2.593
  127DPPC   C46 6346   1.655   7.105   2.725
  127DPPC   C47 6347   1.798   7.050   2.727
  127DPPC   C48 6348   1.846   7.057   2.872
  127DPPC   C49 6349   1.839   7.202   2.920
  127DPPC   C50 6350   1.915   7.220   3.051
  128DPPC    C1 6351   2.061   3.988   1.448
  128DPPC    C2 6352   1.856   3.871   1.432
  128DPPC    C3 6353   2.046   3.785   1.317
  128DPPC    N4 6354   2.002   3.854   1.439
  128DPPC    C5 6355   2.035   3.778   1.560
  128DPPC    C6 6356   2.178   3.726   1.575
  128DPPC    O7 6357   2.237   3.766   1.699
  128DPPC    P8 6358   2.395   3.791   1.678
  128DPPC    O9 6359   2.405   3.939   1.685
  128DPPC   O10 6360   2.456   3.709   1.570
  128DPPC   O11 6361   2.445   3.718   1.812
  128DPPC   C12 6362   2.479   3.581   1.793
  128DPPC   C13 6363   2.487   3.498   1.921
  128DPPC   O14 6364   2.393   3.390   1.927
  128DPPC   C15 6365   2.448   3.276   1.975
  128DPPC   O16 6366   2.559   3.245   1.930
  128DPPC   C17 6367   2.353   3.168   2.028
  128DPPC   C18 6368   2.402   3.125   2.166
  128DPPC   C19 6369   2.395   3.237   2.270
  128DPPC   C20 6370   2.389   3.191   2.416
  128DPPC   C21 6371   2.349   3.301   2.515
  128DPPC   C22 6372   2.377   3.259   2.660
  128DPPC   C23 6373   2.363   3.381   2.751
  128DPPC   C24 6374   2.361   3.339   2.898
  128DPPC   C25 6375   2.322   3.464   2.978
  128DPPC   C26 6376   2.437   3.559   3.012
  128DPPC   C27 6377   2.386   3.630   3.137
  128DPPC   C28 6378   2.506   3.693   3.208
  128DPPC   C29 6379   2.606   3.583   3.241
  128DPPC   C30 6380   2.710   3.641   3.337
  128DPPC   C31 6381   2.646   3.686   3.469
  128DPPC   C32 6382   2.472   3.590   2.042
  128DPPC   O33 6383   2.540   3.541   2.158
  128DPPC   C34 6384   2.576   3.643   2.241
  128DPPC   O35 6385   2.562   3.763   2.217
  128DPPC   C36 6386   2.612   3.598   2.383
  128DPPC   C37 6387   2.668   3.708   2.473
  128DPPC   C38 6388   2.685   3.643   2.610
  128DPPC   C39 6389   2.730   3.748   2.711
  128DPPC   C40 6390   2.805   3.678   2.824
  128DPPC   C41 6391   2.871   3.771   2.926
  128DPPC   C42 6392   2.976   3.691   3.003
  128DPPC   C43 6393   3.051   3.795   3.087
  128DPPC   C44 6394   3.074   3.718   3.217
  128DPPC   C45 6395   3.148   3.807   3.318
  128DPPC   C46 6396   3.277   3.861   3.257
  128DPPC   C47 6397   3.357   3.929   3.369
  128DPPC   C48 6398   3.483   3.979   3.298
  128DPPC   C49 6399   3.576   4.049   3.397
  128DPPC   C50 6400   3.697   4.107   3.323
  129DPPC    C1 6401   2.789   2.158   5.638
  129DPPC    C2 6402   2.701   2.132   5.865
  129DPPC    C3 6403   2.740   2.343   5.765
  129DPPC    N4 6404   2.694   2.206   5.738
  129DPPC    C5 6405   2.553   2.203   5.695
  129DPPC    C6 6406   2.496   2.082   5.621
  129DPPC    O7 6407   2.393   2.113   5.527
  129DPPC    P8 6408   2.301   1.984   5.499
  129DPPC    O9 6409   2.207   2.053   5.408
  129DPPC   O10 6410   2.254   1.942   5.632
  129DPPC   O11 6411   2.403   1.878   5.434
  129DPPC   C12 6412   2.439   1.938   5.309
  129DPPC   C13 6413   2.586   1.907   5.281
  129DPPC   O14 6414   2.639   1.989   5.176
  129DPPC   C15 6415   2.695   2.109   5.206
  129DPPC   O16 6416   2.652   2.164   5.307
  129DPPC   C17 6417   2.766   2.195   5.101
  129DPPC   C18 6418   2.693   2.325   5.070
  129DPPC   C19 6419   2.721   2.378   4.929
  129DPPC   C20 6420   2.677   2.265   4.835
  129DPPC   C21 6421   2.705   2.305   4.690
  129DPPC   C22 6422   2.635   2.202   4.601
  129DPPC   C23 6423   2.591   2.270   4.471
  129DPPC   C24 6424   2.552   2.166   4.367
  129DPPC   C25 6425   2.526   2.225   4.228
  129DPPC   C26 6426   2.535   2.118   4.119
  129DPPC   C27 6427   2.538   2.183   3.981
  129DPPC   C28 6428   2.560   2.070   3.880
  129DPPC   C29 6429   2.579   2.130   3.740
  129DPPC   C30 6430   2.558   2.021   3.636
  129DPPC   C31 6431   2.600   2.080   3.501
  129DPPC   C32 6432   2.598   1.757   5.256
  129DPPC   O33 6433   2.487   1.711   5.179
  129DPPC   C34 6434   2.496   1.577   5.154
  129DPPC   O35 6435   2.593   1.518   5.201
  129DPPC   C36 6436   2.390   1.509   5.069
  129DPPC   C37 6437   2.433   1.371   5.018
  129DPPC   C38 6438   2.556   1.394   4.929
  129DPPC   C39 6439   2.595   1.254   4.880
  129DPPC   C40 6440   2.496   1.193   4.781
  129DPPC   C41 6441   2.578   1.083   4.713
  129DPPC   C42 6442   2.508   1.030   4.587
  129DPPC   C43 6443   2.582   0.903   4.544
  129DPPC   C44 6444   2.497   0.825   4.444
  129DPPC   C45 6445   2.585   0.723   4.371
  129DPPC   C46 6446   2.509   0.657   4.255
  129DPPC   C47 6447   2.603   0.561   4.182
  129DPPC   C48 6448   2.544   0.534   4.043
  129DPPC   C49 6449   2.639   0.451   3.957
  129DPPC   C50 6450   2.582   0.385   3.831
  130DPPC    C1 6451   0.679   7.666   1.256
  130DPPC    C2 6452   0.856   7.829   1.254
  130DPPC    C3 6453   0.627   7.893   1.273
  130DPPC    N4 6454   0.727   7.793   1.313
  130DPPC    C5 6455   0.711   7.789   1.459
  130DPPC    C6 6456   0.785   7.680   1.536
  130DPPC    O7 6457   0.695   7.588   1.598
  130DPPC    P8 6458   0.766   7.524   1.727
  130DPPC    O9 6459   0.897   7.589   1.744
  130DPPC   O10 6460   0.747   7.377   1.726
  130DPPC   O11 6461   0.660   7.588   1.830
  130DPPC   C12 6462   0.727   7.693   1.902
  130DPPC   C13 6463   0.641   7.757   2.011
  130DPPC   O14 6464   0.730   7.794   2.117
  130DPPC   C15 6465   0.819   7.897   2.114
  130DPPC   O16 6466   0.805   7.979   2.023
  130DPPC   C17 6467   0.905   7.911   2.240
  130DPPC   C18 6468   0.852   8.010   2.344
  130DPPC   C19 6469   0.864   7.944   2.481
  130DPPC   C20 6470   1.005   7.887   2.501
  130DPPC   C21 6471   1.095   8.009   2.526
  130DPPC   C22 6472   1.243   7.968   2.526
  130DPPC   C23 6473   1.309   8.073   2.615
  130DPPC   C24 6474   1.323   8.030   2.761
  130DPPC   C25 6475   1.440   7.932   2.775
  130DPPC   C26 6476   1.453   7.885   2.920
  130DPPC   C27 6477   1.496   7.989   3.024
  130DPPC   C28 6478   1.504   7.951   3.172
  130DPPC   C29 6479   1.610   7.840   3.171
  130DPPC   C30 6480   1.623   7.780   3.311
  130DPPC   C31 6481   1.492   7.773   3.389
  130DPPC   C32 6482   0.539   7.650   2.051
  130DPPC   O33 6483   0.423   7.705   2.114
  130DPPC   C34 6484   0.350   7.605   2.171
  130DPPC   O35 6485   0.370   7.486   2.148
  130DPPC   C36 6486   0.220   7.651   2.237
  130DPPC   C37 6487   0.166   7.546   2.335
  130DPPC   C38 6488   0.021   7.562   2.380
  130DPPC   C39 6489  -0.012   7.699   2.440
  130DPPC   C40 6490  -0.143   7.716   2.517
  130DPPC   C41 6491  -0.154   7.866   2.540
  130DPPC   C42 6492  -0.299   7.900   2.576
  130DPPC   C43 6493  -0.323   8.047   2.611
  130DPPC   C44 6494  -0.439   8.078   2.705
  130DPPC   C45 6495  -0.460   8.228   2.727
  130DPPC   C46 6496  -0.573   8.269   2.821
  130DPPC   C47 6497  -0.534   8.218   2.960
  130DPPC   C48 6498  -0.657   8.218   3.052
  130DPPC   C49 6499  -0.710   8.362   3.060
  130DPPC   C50 6500  -0.856   8.363   3.107
  131DPPC    C1 6501   1.422   3.985   5.566
  131DPPC    C2 6502   1.447   3.810   5.396
  131DPPC    C3 6503   1.308   3.999   5.365
  131DPPC    N4 6504   1.436   3.954   5.423
  131DPPC    C5 6505   1.536   4.034   5.351
  131DPPC    C6 6506   1.549   4.184   5.380
  131DPPC    O7 6507   1.470   4.264   5.291
  131DPPC    P8 6508   1.489   4.416   5.340
  131DPPC    O9 6509   1.548   4.422   5.476
  131DPPC   O10 6510   1.367   4.493   5.308
  131DPPC   O11 6511   1.602   4.453   5.232
  131DPPC   C12 6512   1.543   4.439   5.103
  131DPPC   C13 6513   1.647   4.435   4.991
  131DPPC   O14 6514   1.582   4.450   4.865
  131DPPC   C15 6515   1.639   4.547   4.787
  131DPPC   O16 6516   1.738   4.611   4.821
  131DPPC   C17 6517   1.591   4.539   4.642
  131DPPC   C18 6518   1.695   4.454   4.568
  131DPPC   C19 6519   1.639   4.423   4.429
  131DPPC   C20 6520   1.757   4.408   4.333
  131DPPC   C21 6521   1.717   4.361   4.193
  131DPPC   C22 6522   1.840   4.384   4.105
  131DPPC   C23 6523   1.818   4.328   3.964
  131DPPC   C24 6524   1.934   4.358   3.869
  131DPPC   C25 6525   2.070   4.311   3.920
  131DPPC   C26 6526   2.177   4.335   3.812
  131DPPC   C27 6527   2.317   4.302   3.865
  131DPPC   C28 6528   2.420   4.306   3.752
  131DPPC   C29 6529   2.563   4.311   3.807
  131DPPC   C30 6530   2.635   4.440   3.767
  131DPPC   C31 6531   2.783   4.441   3.805
  131DPPC   C32 6532   1.729   4.308   5.013
  131DPPC   O33 6533   1.803   4.247   4.907
  131DPPC   C34 6534   1.868   4.128   4.905
  131DPPC   O35 6535   1.837   4.051   4.996
  131DPPC   C36 6536   1.950   4.074   4.788
  131DPPC   C37 6537   1.866   4.080   4.660
  131DPPC   C38 6538   1.939   4.017   4.542
  131DPPC   C39 6539   1.846   4.025   4.420
  131DPPC   C40 6540   1.703   3.970   4.423
  131DPPC   C41 6541   1.662   3.972   4.275
  131DPPC   C42 6542   1.509   3.965   4.272
  131DPPC   C43 6543   1.465   3.959   4.125
  131DPPC   C44 6544   1.521   3.837   4.052
  131DPPC   C45 6545   1.455   3.824   3.915
  131DPPC   C46 6546   1.507   3.920   3.807
  131DPPC   C47 6547   1.506   3.856   3.668
  131DPPC   C48 6548   1.528   3.958   3.556
  131DPPC   C49 6549   1.527   3.892   3.418
  131DPPC   C50 6550   1.631   3.785   3.386
  132DPPC    C1 6551   9.232   6.380   1.140
  132DPPC    C2 6552   9.433   6.490   1.243
  132DPPC    C3 6553   9.290   6.603   1.101
  132DPPC    N4 6554   9.291   6.498   1.204
  132DPPC    C5 6555   9.210   6.534   1.322
  132DPPC    C6 6556   9.058   6.546   1.320
  132DPPC    O7 6557   9.009   6.578   1.451
  132DPPC    P8 6558   8.852   6.552   1.471
  132DPPC    O9 6559   8.833   6.408   1.441
  132DPPC   O10 6560   8.796   6.657   1.384
  132DPPC   O11 6561   8.841   6.568   1.631
  132DPPC   C12 6562   8.954   6.520   1.703
  132DPPC   C13 6563   8.947   6.549   1.853
  132DPPC   O14 6564   9.063   6.506   1.927
  132DPPC   C15 6565   9.176   6.581   1.926
  132DPPC   O16 6566   9.199   6.652   1.828
  132DPPC   C17 6567   9.277   6.569   2.040
  132DPPC   C18 6568   9.249   6.652   2.166
  132DPPC   C19 6569   9.358   6.638   2.273
  132DPPC   C20 6570   9.301   6.692   2.404
  132DPPC   C21 6571   9.370   6.659   2.537
  132DPPC   C22 6572   9.518   6.696   2.543
  132DPPC   C23 6573   9.542   6.728   2.691
  132DPPC   C24 6574   9.679   6.675   2.733
  132DPPC   C25 6575   9.716   6.714   2.877
  132DPPC   C26 6576   9.866   6.684   2.874
  132DPPC   C27 6577   9.907   6.689   3.022
  132DPPC   C28 6578  10.059   6.686   3.042
  132DPPC   C29 6579  10.081   6.638   3.186
  132DPPC   C30 6580  10.070   6.485   3.184
  132DPPC   C31 6581  10.086   6.426   3.324
  132DPPC   C32 6582   8.817   6.486   1.905
  132DPPC   O33 6583   8.798   6.483   2.046
  132DPPC   C34 6584   8.682   6.432   2.098
  132DPPC   O35 6585   8.591   6.406   2.019
  132DPPC   C36 6586   8.670   6.428   2.250
  132DPPC   C37 6587   8.595   6.545   2.315
  132DPPC   C38 6588   8.538   6.507   2.452
  132DPPC   C39 6589   8.494   6.629   2.532
  132DPPC   C40 6590   8.493   6.600   2.682
  132DPPC   C41 6591   8.395   6.486   2.714
  132DPPC   C42 6592   8.404   6.452   2.863
  132DPPC   C43 6593   8.382   6.581   2.943
  132DPPC   C44 6594   8.352   6.537   3.086
  132DPPC   C45 6595   8.294   6.656   3.162
  132DPPC   C46 6596   8.282   6.617   3.310
  132DPPC   C47 6597   8.210   6.734   3.378
  132DPPC   C48 6598   8.202   6.726   3.530
  132DPPC   C49 6599   8.102   6.617   3.568
  132DPPC   C50 6600   8.113   6.594   3.719
  133DPPC    C1 6601   7.295   0.271   5.458
  133DPPC    C2 6602   7.273   0.473   5.549
  133DPPC    C3 6603   7.395   0.286   5.669
  133DPPC    N4 6604   7.370   0.363   5.546
  133DPPC    C5 6605   7.499   0.398   5.484
  133DPPC    C6 6606   7.600   0.498   5.539
  133DPPC    O7 6607   7.720   0.501   5.461
  133DPPC    P8 6608   7.831   0.601   5.520
  133DPPC    O9 6609   7.956   0.602   5.442
  133DPPC   O10 6610   7.813   0.593   5.667
  133DPPC   O11 6611   7.755   0.735   5.472
  133DPPC   C12 6612   7.780   0.757   5.333
  133DPPC   C13 6613   7.691   0.859   5.262
  133DPPC   O14 6614   7.745   0.992   5.248
  133DPPC   C15 6615   7.835   1.008   5.148
  133DPPC   O16 6616   7.870   0.904   5.091
  133DPPC   C17 6617   7.919   1.135   5.137
  133DPPC   C18 6618   7.856   1.259   5.073
  133DPPC   C19 6619   7.864   1.256   4.920
  133DPPC   C20 6620   7.812   1.389   4.865
  133DPPC   C21 6621   7.887   1.512   4.917
  133DPPC   C22 6622   7.806   1.638   4.884
  133DPPC   C23 6623   7.895   1.762   4.898
  133DPPC   C24 6624   7.797   1.881   4.903
  133DPPC   C25 6625   7.719   1.886   4.772
  133DPPC   C26 6626   7.604   1.986   4.765
  133DPPC   C27 6627   7.531   1.970   4.631
  133DPPC   C28 6628   7.420   2.076   4.633
  133DPPC   C29 6629   7.335   2.058   4.507
  133DPPC   C30 6630   7.203   2.135   4.510
  133DPPC   C31 6631   7.115   2.102   4.389
  133DPPC   C32 6632   7.566   0.869   5.350
  133DPPC   O33 6633   7.438   0.862   5.288
  133DPPC   C34 6634   7.391   0.737   5.261
  133DPPC   O35 6635   7.433   0.632   5.311
  133DPPC   C36 6636   7.253   0.735   5.195
  133DPPC   C37 6637   7.270   0.716   5.044
  133DPPC   C38 6638   7.131   0.746   4.988
  133DPPC   C39 6639   7.150   0.768   4.838
  133DPPC   C40 6640   7.206   0.643   4.769
  133DPPC   C41 6641   7.199   0.665   4.618
  133DPPC   C42 6642   7.210   0.533   4.541
  133DPPC   C43 6643   7.186   0.563   4.394
  133DPPC   C44 6644   7.284   0.654   4.319
  133DPPC   C45 6645   7.262   0.650   4.168
  133DPPC   C46 6646   7.275   0.507   4.117
  133DPPC   C47 6647   7.248   0.501   3.966
  133DPPC   C48 6648   7.269   0.361   3.907
  133DPPC   C49 6649   7.263   0.362   3.755
  133DPPC   C50 6650   7.117   0.377   3.709
  134DPPC    C1 6651   0.269   7.732   5.299
  134DPPC    C2 6652   0.209   7.780   5.506
  134DPPC    C3 6653   0.445   7.764   5.456
  134DPPC    N4 6654   0.315   7.816   5.411
  134DPPC    C5 6655   0.315   7.961   5.391
  134DPPC    C6 6656   0.400   8.024   5.281
  134DPPC    O7 6657   0.372   7.991   5.145
  134DPPC    P8 6658   0.478   8.078   5.061
  134DPPC    O9 6659   0.600   7.995   5.074
  134DPPC   O10 6660   0.468   8.213   5.121
  134DPPC   O11 6661   0.427   8.070   4.909
  134DPPC   C12 6662   0.444   8.192   4.835
  134DPPC   C13 6663   0.477   8.172   4.687
  134DPPC   O14 6664   0.476   8.294   4.612
  134DPPC   C15 6665   0.572   8.390   4.614
  134DPPC   O16 6666   0.680   8.358   4.663
  134DPPC   C17 6667   0.555   8.520   4.537
  134DPPC   C18 6668   0.464   8.507   4.414
  134DPPC   C19 6669   0.491   8.623   4.318
  134DPPC   C20 6670   0.419   8.611   4.184
  134DPPC   C21 6671   0.492   8.689   4.075
  134DPPC   C22 6672   0.397   8.796   4.021
  134DPPC   C23 6673   0.451   8.891   3.914
  134DPPC   C24 6674   0.436   9.037   3.957
  134DPPC   C25 6675   0.504   9.129   3.856
  134DPPC   C26 6676   0.485   9.277   3.889
  134DPPC   C27 6677   0.555   9.360   3.781
  134DPPC   C28 6678   0.507   9.505   3.780
  134DPPC   C29 6679   0.615   9.591   3.715
  134DPPC   C30 6680   0.620   9.542   3.571
  134DPPC   C31 6681   0.723   9.630   3.499
  134DPPC   C32 6682   0.368   8.075   4.640
  134DPPC   O33 6683   0.236   8.122   4.666
  134DPPC   C34 6684   0.134   8.031   4.664
  134DPPC   O35 6685   0.155   7.915   4.628
  134DPPC   C36 6686   0.001   8.089   4.710
  134DPPC   C37 6687  -0.082   8.133   4.589
  134DPPC   C38 6688  -0.135   8.023   4.497
  134DPPC   C39 6689  -0.208   8.082   4.376
  134DPPC   C40 6690  -0.259   7.987   4.267
  134DPPC   C41 6691  -0.300   8.053   4.136
  134DPPC   C42 6692  -0.389   8.174   4.166
  134DPPC   C43 6693  -0.445   8.214   4.029
  134DPPC   C44 6694  -0.505   8.089   3.966
  134DPPC   C45 6695  -0.616   8.149   3.879
  134DPPC   C46 6696  -0.694   8.040   3.804
  134DPPC   C47 6697  -0.817   8.093   3.729
  134DPPC   C48 6698  -0.906   7.972   3.699
  134DPPC   C49 6699  -1.023   8.033   3.622
  134DPPC   C50 6700  -0.964   8.112   3.506
  135DPPC    C1 6701   7.881   7.746   5.584
  135DPPC    C2 6702   7.942   7.922   5.718
  135DPPC    C3 6703   8.075   7.897   5.524
  135DPPC    N4 6704   7.939   7.881   5.577
  135DPPC    C5 6705   7.839   7.963   5.505
  135DPPC    C6 6706   7.789   7.917   5.368
  135DPPC    O7 6707   7.665   7.960   5.311
  135DPPC    P8 6708   7.659   7.916   5.157
  135DPPC    O9 6709   7.528   7.959   5.102
  135DPPC   O10 6710   7.714   7.779   5.150
  135DPPC   O11 6711   7.771   8.024   5.115
  135DPPC   C12 6712   7.722   8.142   5.050
  135DPPC   C13 6713   7.829   8.250   5.038
  135DPPC   O14 6714   7.778   8.384   5.025
  135DPPC   C15 6715   7.865   8.489   5.022
  135DPPC   O16 6716   7.970   8.478   5.084
  135DPPC   C17 6717   7.803   8.629   5.013
  135DPPC   C18 6718   7.893   8.729   4.940
  135DPPC   C19 6719   7.935   8.675   4.804
  135DPPC   C20 6720   7.820   8.635   4.712
  135DPPC   C21 6721   7.845   8.506   4.634
  135DPPC   C22 6722   7.703   8.463   4.594
  135DPPC   C23 6723   7.633   8.564   4.504
  135DPPC   C24 6724   7.703   8.567   4.367
  135DPPC   C25 6725   7.631   8.640   4.253
  135DPPC   C26 6726   7.714   8.640   4.124
  135DPPC   C27 6727   7.646   8.730   4.021
  135DPPC   C28 6728   7.753   8.778   3.923
  135DPPC   C29 6729   7.669   8.872   3.836
  135DPPC   C30 6730   7.742   8.927   3.713
  135DPPC   C31 6731   7.706   8.845   3.589
  135DPPC   C32 6732   7.940   8.200   4.944
  135DPPC   O33 6733   7.887   8.142   4.825
  135DPPC   C34 6734   7.984   8.100   4.740
  135DPPC   O35 6735   8.101   8.132   4.763
  135DPPC   C36 6736   7.937   8.073   4.597
  135DPPC   C37 6737   7.808   7.992   4.615
  135DPPC   C38 6738   7.725   7.993   4.487
  135DPPC   C39 6739   7.602   7.903   4.479
  135DPPC   C40 6740   7.527   7.892   4.345
  135DPPC   C41 6741   7.512   8.037   4.298
  135DPPC   C42 6742   7.439   8.027   4.163
  135DPPC   C43 6743   7.531   7.945   4.072
  135DPPC   C44 6744   7.481   7.958   3.928
  135DPPC   C45 6745   7.589   7.913   3.828
  135DPPC   C46 6746   7.555   7.899   3.680
  135DPPC   C47 6747   7.463   7.780   3.650
  135DPPC   C48 6748   7.431   7.779   3.500
  135DPPC   C49 6749   7.340   7.667   3.449
  135DPPC   C50 6750   7.323   7.683   3.298
  136DPPC    C1 6751   7.104   3.180   5.996
  136DPPC    C2 6752   7.315   3.179   5.912
  136DPPC    C3 6753   7.197   3.365   5.883
  136DPPC    N4 6754   7.224   3.265   5.987
  136DPPC    C5 6755   7.280   3.317   6.113
  136DPPC    C6 6756   7.426   3.361   6.109
  136DPPC    O7 6757   7.454   3.480   6.035
  136DPPC    P8 6758   7.607   3.478   5.985
  136DPPC    O9 6759   7.671   3.378   6.074
  136DPPC   O10 6760   7.644   3.621   5.981
  136DPPC   O11 6761   7.574   3.424   5.837
  136DPPC   C12 6762   7.554   3.545   5.763
  136DPPC   C13 6763   7.629   3.538   5.629
  136DPPC   O14 6764   7.593   3.650   5.546
  136DPPC   C15 6765   7.658   3.769   5.559
  136DPPC   O16 6766   7.756   3.781   5.633
  136DPPC   C17 6767   7.597   3.891   5.491
  136DPPC   C18 6768   7.657   3.938   5.358
  136DPPC   C19 6769   7.590   4.057   5.289
  136DPPC   C20 6770   7.662   4.082   5.157
  136DPPC   C21 6771   7.679   3.967   5.058
  136DPPC   C22 6772   7.759   4.016   4.937
  136DPPC   C23 6773   7.689   4.138   4.876
  136DPPC   C24 6774   7.796   4.222   4.807
  136DPPC   C25 6775   7.852   4.176   4.672
  136DPPC   C26 6776   7.970   4.259   4.623
  136DPPC   C27 6777   8.043   4.182   4.513
  136DPPC   C28 6778   8.153   4.261   4.442
  136DPPC   C29 6779   8.101   4.396   4.392
  136DPPC   C30 6780   8.164   4.430   4.256
  136DPPC   C31 6781   8.126   4.569   4.207
  136DPPC   C32 6782   7.562   3.411   5.577
  136DPPC   O33 6783   7.641   3.325   5.494
  136DPPC   C34 6784   7.594   3.212   5.434
  136DPPC   O35 6785   7.477   3.179   5.449
  136DPPC   C36 6786   7.674   3.161   5.314
  136DPPC   C37 6787   7.639   3.259   5.202
  136DPPC   C38 6788   7.587   3.192   5.075
  136DPPC   C39 6789   7.519   3.287   4.976
  136DPPC   C40 6790   7.467   3.217   4.850
  136DPPC   C41 6791   7.384   3.317   4.770
  136DPPC   C42 6792   7.320   3.253   4.646
  136DPPC   C43 6793   7.259   3.364   4.560
  136DPPC   C44 6794   7.219   3.302   4.426
  136DPPC   C45 6795   7.145   3.398   4.333
  136DPPC   C46 6796   7.111   3.318   4.207
  136DPPC   C47 6797   7.057   3.416   4.102
  136DPPC   C48 6798   7.076   3.350   3.965
  136DPPC   C49 6799   6.979   3.232   3.954
  136DPPC   C50 6800   7.006   3.185   3.811
  137DPPC    C1 6801   3.093   6.128   4.980
  137DPPC    C2 6802   3.205   5.955   5.102
  137DPPC    C3 6803   3.310   6.168   5.039
  137DPPC    N4 6804   3.189   6.101   5.088
  137DPPC    C5 6805   3.156   6.173   5.212
  137DPPC    C6 6806   3.021   6.141   5.276
  137DPPC    O7 6807   2.906   6.210   5.227
  137DPPC    P8 6808   2.771   6.125   5.252
  137DPPC    O9 6809   2.658   6.200   5.194
  137DPPC   O10 6810   2.787   6.082   5.393
  137DPPC   O11 6811   2.801   5.998   5.159
  137DPPC   C12 6812   2.701   5.969   5.061
  137DPPC   C13 6813   2.736   5.837   4.993
  137DPPC   O14 6814   2.858   5.843   4.918
  137DPPC   C15 6815   2.928   5.728   4.902
  137DPPC   O16 6816   2.898   5.637   4.979
  137DPPC   C17 6817   3.054   5.721   4.816
  137DPPC   C18 6818   3.030   5.783   4.678
  137DPPC   C19 6819   3.155   5.757   4.594
  137DPPC   C20 6820   3.196   5.610   4.579
  137DPPC   C21 6821   3.302   5.602   4.469
  137DPPC   C22 6822   3.358   5.461   4.449
  137DPPC   C23 6823   3.480   5.444   4.358
  137DPPC   C24 6824   3.524   5.298   4.339
  137DPPC   C25 6825   3.638   5.283   4.238
  137DPPC   C26 6826   3.664   5.134   4.220
  137DPPC   C27 6827   3.785   5.100   4.133
  137DPPC   C28 6828   3.767   5.164   3.995
  137DPPC   C29 6829   3.857   5.100   3.889
  137DPPC   C30 6830   3.771   5.096   3.763
  137DPPC   C31 6831   3.832   5.007   3.654
  137DPPC   C32 6832   2.608   5.798   4.918
  137DPPC   O33 6833   2.544   5.901   4.842
  137DPPC   C34 6834   2.446   5.861   4.756
  137DPPC   O35 6835   2.417   5.742   4.744
  137DPPC   C36 6836   2.389   5.967   4.662
  137DPPC   C37 6837   2.354   5.921   4.520
  137DPPC   C38 6838   2.335   6.026   4.411
  137DPPC   C39 6839   2.304   5.956   4.279
  137DPPC   C40 6840   2.364   6.038   4.165
  137DPPC   C41 6841   2.273   6.155   4.128
  137DPPC   C42 6842   2.300   6.203   3.985
  137DPPC   C43 6843   2.274   6.084   3.893
  137DPPC   C44 6844   2.319   6.095   3.747
  137DPPC   C45 6845   2.266   5.976   3.666
  137DPPC   C46 6846   2.296   5.844   3.737
  137DPPC   C47 6847   2.235   5.729   3.658
  137DPPC   C48 6848   2.083   5.722   3.672
  137DPPC   C49 6849   2.012   5.613   3.592
  137DPPC   C50 6850   1.871   5.585   3.645
  138DPPC    C1 6851   2.074   2.673   5.635
  138DPPC    C2 6852   2.034   2.896   5.707
  138DPPC    C3 6853   2.204   2.763   5.797
  138DPPC    N4 6854   2.139   2.800   5.670
  138DPPC    C5 6855   2.225   2.836   5.557
  138DPPC    C6 6856   2.158   2.890   5.429
  138DPPC    O7 6857   2.079   2.804   5.348
  138DPPC    P8 6858   2.046   2.891   5.217
  138DPPC    O9 6859   1.989   3.011   5.283
  138DPPC   O10 6860   1.970   2.804   5.125
  138DPPC   O11 6861   2.201   2.911   5.177
  138DPPC   C12 6862   2.211   2.998   5.064
  138DPPC   C13 6863   2.349   3.060   5.043
  138DPPC   O14 6864   2.362   3.173   4.956
  138DPPC   C15 6865   2.340   3.299   5.002
  138DPPC   O16 6866   2.317   3.314   5.122
  138DPPC   C17 6867   2.341   3.411   4.897
  138DPPC   C18 6868   2.453   3.512   4.919
  138DPPC   C19 6869   2.452   3.620   4.810
  138DPPC   C20 6870   2.315   3.687   4.794
  138DPPC   C21 6871   2.305   3.777   4.670
  138DPPC   C22 6872   2.264   3.702   4.543
  138DPPC   C23 6873   2.261   3.802   4.427
  138DPPC   C24 6874   2.280   3.714   4.303
  138DPPC   C25 6875   2.301   3.783   4.168
  138DPPC   C26 6876   2.314   3.662   4.075
  138DPPC   C27 6877   2.333   3.705   3.929
  138DPPC   C28 6878   2.215   3.798   3.898
  138DPPC   C29 6879   2.252   3.883   3.776
  138DPPC   C30 6880   2.142   3.977   3.728
  138DPPC   C31 6881   2.033   3.889   3.667
  138DPPC   C32 6882   2.435   2.943   4.995
  138DPPC   O33 6883   2.369   2.876   4.887
  138DPPC   C34 6884   2.410   2.747   4.877
  138DPPC   O35 6885   2.474   2.698   4.970
  138DPPC   C36 6886   2.385   2.659   4.754
  138DPPC   C37 6887   2.447   2.727   4.631
  138DPPC   C38 6888   2.430   2.623   4.520
  138DPPC   C39 6889   2.288   2.589   4.476
  138DPPC   C40 6890   2.281   2.475   4.374
  138DPPC   C41 6891   2.136   2.460   4.326
  138DPPC   C42 6892   2.116   2.328   4.251
  138DPPC   C43 6893   1.971   2.328   4.204
  138DPPC   C44 6894   1.924   2.204   4.126
  138DPPC   C45 6895   1.772   2.206   4.146
  138DPPC   C46 6896   1.714   2.101   4.052
  138DPPC   C47 6897   1.561   2.097   4.063
  138DPPC   C48 6898   1.501   1.971   4.001
  138DPPC   C49 6899   1.354   1.946   4.034
  138DPPC   C50 6900   1.364   1.954   4.186
  139DPPC    C1 6901   9.075   3.794   5.312
  139DPPC    C2 6902   8.900   3.952   5.265
  139DPPC    C3 6903   8.899   3.819   5.461
  139DPPC    N4 6904   8.985   3.895   5.370
  139DPPC    C5 6905   9.054   3.993   5.455
  139DPPC    C6 6906   9.135   4.098   5.378
  139DPPC    O7 6907   9.205   4.182   5.472
  139DPPC    P8 6908   9.242   4.322   5.403
  139DPPC    O9 6909   9.274   4.426   5.504
  139DPPC   O10 6910   9.144   4.350   5.296
  139DPPC   O11 6911   9.371   4.278   5.318
  139DPPC   C12 6912   9.388   4.357   5.201
  139DPPC   C13 6913   9.454   4.282   5.085
  139DPPC   O14 6914   9.501   4.365   4.978
  139DPPC   C15 6915   9.614   4.441   4.988
  139DPPC   O16 6916   9.679   4.439   5.092
  139DPPC   C17 6917   9.627   4.551   4.883
  139DPPC   C18 6918   9.716   4.509   4.766
  139DPPC   C19 6919   9.715   4.604   4.646
  139DPPC   C20 6920   9.752   4.533   4.516
  139DPPC   C21 6921   9.733   4.617   4.389
  139DPPC   C22 6922   9.713   4.515   4.277
  139DPPC   C23 6923   9.722   4.589   4.143
  139DPPC   C24 6924   9.728   4.488   4.029
  139DPPC   C25 6925   9.736   4.557   3.893
  139DPPC   C26 6926   9.740   4.446   3.788
  139DPPC   C27 6927   9.796   4.496   3.655
  139DPPC   C28 6928   9.715   4.604   3.583
  139DPPC   C29 6929   9.794   4.628   3.454
  139DPPC   C30 6930   9.721   4.728   3.364
  139DPPC   C31 6931   9.782   4.743   3.225
  139DPPC   C32 6932   9.355   4.170   5.055
  139DPPC   O33 6933   9.416   4.044   5.027
  139DPPC   C34 6934   9.333   3.936   5.030
  139DPPC   O35 6935   9.220   3.957   5.074
  139DPPC   C36 6936   9.374   3.800   4.975
  139DPPC   C37 6937   9.338   3.802   4.826
  139DPPC   C38 6938   9.386   3.679   4.747
  139DPPC   C39 6939   9.340   3.708   4.604
  139DPPC   C40 6940   9.343   3.597   4.499
  139DPPC   C41 6941   9.286   3.648   4.366
  139DPPC   C42 6942   9.253   3.522   4.286
  139DPPC   C43 6943   9.231   3.555   4.138
  139DPPC   C44 6944   9.114   3.649   4.111
  139DPPC   C45 6945   9.086   3.654   3.961
  139DPPC   C46 6946   9.169   3.747   3.872
  139DPPC   C47 6947   9.149   3.716   3.723
  139DPPC   C48 6948   9.219   3.813   3.628
  139DPPC   C49 6949   9.197   3.755   3.488
  139DPPC   C50 6950   9.270   3.837   3.381
  140DPPC    C1 6951   0.169   2.436   5.325
  140DPPC    C2 6952   0.302   2.562   5.494
  140DPPC    C3 6953   0.145   2.657   5.368
  140DPPC    N4 6954   0.170   2.530   5.438
  140DPPC    C5 6955   0.081   2.508   5.553
  140DPPC    C6 6956  -0.062   2.455   5.535
  140DPPC    O7 6957  -0.136   2.548   5.455
  140DPPC    P8 6958  -0.291   2.516   5.430
  140DPPC    O9 6959  -0.337   2.644   5.371
  140DPPC   O10 6960  -0.353   2.460   5.553
  140DPPC   O11 6961  -0.277   2.408   5.312
  140DPPC   C12 6962  -0.236   2.459   5.185
  140DPPC   C13 6963  -0.243   2.345   5.082
  140DPPC   O14 6964  -0.144   2.340   4.978
  140DPPC   C15 6965  -0.019   2.290   4.992
  140DPPC   O16 6966   0.035   2.247   5.095
  140DPPC   C17 6967   0.044   2.251   4.858
  140DPPC   C18 6968   0.096   2.375   4.785
  140DPPC   C19 6969   0.130   2.337   4.640
  140DPPC   C20 6970   0.262   2.399   4.593
  140DPPC   C21 6971   0.289   2.386   4.443
  140DPPC   C22 6972   0.423   2.451   4.408
  140DPPC   C23 6973   0.501   2.381   4.296
  140DPPC   C24 6974   0.421   2.380   4.166
  140DPPC   C25 6975   0.505   2.349   4.042
  140DPPC   C26 6976   0.442   2.317   3.906
  140DPPC   C27 6977   0.548   2.297   3.797
  140DPPC   C28 6978   0.490   2.254   3.662
  140DPPC   C29 6979   0.380   2.148   3.673
  140DPPC   C30 6980   0.362   2.081   3.536
  140DPPC   C31 6981   0.263   1.965   3.549
  140DPPC   C32 6982  -0.384   2.364   5.025
  140DPPC   O33 6983  -0.409   2.500   4.991
  140DPPC   C34 6984  -0.495   2.535   4.891
  140DPPC   O35 6985  -0.512   2.469   4.788
  140DPPC   C36 6986  -0.559   2.674   4.899
  140DPPC   C37 6987  -0.704   2.625   4.906
  140DPPC   C38 6988  -0.784   2.706   4.805
  140DPPC   C39 6989  -0.935   2.688   4.829
  140DPPC   C40 6990  -0.993   2.805   4.749
  140DPPC   C41 6991  -0.961   2.792   4.600
  140DPPC   C42 6992  -1.004   2.914   4.517
  140DPPC   C43 6993  -0.981   2.892   4.368
  140DPPC   C44 6994  -1.045   3.000   4.281
  140DPPC   C45 6995  -1.020   2.959   4.136
  140DPPC   C46 6996  -1.084   2.822   4.109
  140DPPC   C47 6997  -1.027   2.775   3.976
  140DPPC   C48 6998  -1.126   2.792   3.860
  140DPPC   C49 6999  -1.104   2.685   3.753
  140DPPC   C50 7000  -0.970   2.723   3.688
  141DPPC    C1 7001   5.854   1.746   6.217
  141DPPC    C2 7002   5.700   1.613   6.107
  141DPPC    C3 7003   5.621   1.816   6.174
  141DPPC    N4 7004   5.742   1.753   6.122
  141DPPC    C5 7005   5.771   1.805   5.987
  141DPPC    C6 7006   5.815   1.952   5.983
  141DPPC    O7 7007   5.702   2.040   5.985
  141DPPC    P8 7008   5.747   2.178   5.916
  141DPPC    O9 7009   5.875   2.209   5.983
  141DPPC   O10 7010   5.626   2.264   5.919
  141DPPC   O11 7011   5.765   2.134   5.762
  141DPPC   C12 7012   5.648   2.096   5.690
  141DPPC   C13 7013   5.672   2.087   5.539
  141DPPC   O14 7014   5.754   1.985   5.479
  141DPPC   C15 7015   5.678   1.887   5.424
  141DPPC   O16 7016   5.557   1.874   5.435
  141DPPC   C17 7017   5.763   1.773   5.367
  141DPPC   C18 7018   5.771   1.787   5.215
  141DPPC   C19 7019   5.842   1.669   5.149
  141DPPC   C20 7020   5.776   1.640   5.014
  141DPPC   C21 7021   5.625   1.623   5.037
  141DPPC   C22 7022   5.546   1.569   4.917
  141DPPC   C23 7023   5.555   1.664   4.798
  141DPPC   C24 7024   5.504   1.600   4.669
  141DPPC   C25 7025   5.562   1.461   4.644
  141DPPC   C26 7026   5.521   1.406   4.507
  141DPPC   C27 7027   5.614   1.466   4.401
  141DPPC   C28 7028   5.580   1.412   4.262
  141DPPC   C29 7029   5.439   1.461   4.228
  141DPPC   C30 7030   5.431   1.596   4.157
  141DPPC   C31 7031   5.289   1.652   4.145
  141DPPC   C32 7032   5.729   2.224   5.502
  141DPPC   O33 7033   5.634   2.331   5.507
  141DPPC   C34 7034   5.682   2.457   5.492
  141DPPC   O35 7035   5.803   2.468   5.510
  141DPPC   C36 7036   5.586   2.575   5.472
  141DPPC   C37 7037   5.552   2.607   5.326
  141DPPC   C38 7038   5.493   2.490   5.249
  141DPPC   C39 7039   5.450   2.544   5.112
  141DPPC   C40 7040   5.569   2.577   5.022
  141DPPC   C41 7041   5.523   2.624   4.885
  141DPPC   C42 7042   5.635   2.614   4.781
  141DPPC   C43 7043   5.590   2.651   4.640
  141DPPC   C44 7044   5.470   2.563   4.607
  141DPPC   C45 7045   5.416   2.604   4.470
  141DPPC   C46 7046   5.358   2.745   4.471
  141DPPC   C47 7047   5.320   2.791   4.330
  141DPPC   C48 7048   5.429   2.804   4.224
  141DPPC   C49 7049   5.367   2.843   4.089
  141DPPC   C50 7050   5.262   2.746   4.035
  142DPPC    C1 7051   1.567   6.006   4.918
  142DPPC    C2 7052   1.575   6.237   4.946
  142DPPC    C3 7053   1.622   6.148   4.736
  142DPPC    N4 7054   1.533   6.133   4.851
  142DPPC    C5 7055   1.394   6.120   4.806
  142DPPC    C6 7056   1.311   6.247   4.786
  142DPPC    O7 7057   1.348   6.329   4.675
  142DPPC    P8 7058   1.297   6.481   4.696
  142DPPC    O9 7059   1.385   6.566   4.613
  142DPPC   O10 7060   1.276   6.504   4.841
  142DPPC   O11 7061   1.155   6.471   4.620
  142DPPC   C12 7062   1.172   6.432   4.483
  142DPPC   C13 7063   1.045   6.458   4.401
  142DPPC   O14 7064   1.040   6.373   4.286
  142DPPC   C15 7065   0.923   6.363   4.218
  142DPPC   O16 7066   0.812   6.392   4.262
  142DPPC   C17 7067   0.937   6.285   4.087
  142DPPC   C18 7068   0.831   6.317   3.980
  142DPPC   C19 7069   0.876   6.230   3.862
  142DPPC   C20 7070   0.778   6.206   3.748
  142DPPC   C21 7071   0.649   6.149   3.809
  142DPPC   C22 7072   0.667   6.002   3.846
  142DPPC   C23 7073   0.537   5.961   3.915
  142DPPC   C24 7074   0.541   5.825   3.985
  142DPPC   C25 7075   0.408   5.750   3.993
  142DPPC   C26 7076   0.311   5.848   4.060
  142DPPC   C27 7077   0.174   5.782   4.081
  142DPPC   C28 7078   0.068   5.869   4.147
  142DPPC   C29 7079  -0.065   5.794   4.164
  142DPPC   C30 7080  -0.070   5.659   4.235
  142DPPC   C31 7081  -0.197   5.577   4.213
  142DPPC   C32 7082   1.039   6.607   4.368
  142DPPC   O33 7083   1.149   6.672   4.303
  142DPPC   C34 7084   1.112   6.799   4.271
  142DPPC   O35 7085   1.026   6.863   4.330
  142DPPC   C36 7086   1.223   6.864   4.187
  142DPPC   C37 7087   1.201   7.014   4.173
  142DPPC   C38 7088   1.091   7.050   4.072
  142DPPC   C39 7089   1.086   7.194   4.022
  142DPPC   C40 7090   0.972   7.224   3.924
  142DPPC   C41 7091   0.976   7.131   3.803
  142DPPC   C42 7092   0.906   7.193   3.682
  142DPPC   C43 7093   0.762   7.208   3.732
  142DPPC   C44 7094   0.676   7.294   3.638
  142DPPC   C45 7095   0.742   7.432   3.640
  142DPPC   C46 7096   0.677   7.515   3.529
  142DPPC   C47 7097   0.737   7.655   3.522
  142DPPC   C48 7098   0.686   7.746   3.410
  142DPPC   C49 7099   0.749   7.697   3.280
  142DPPC   C50 7100   0.897   7.733   3.268
  143DPPC    C1 7101   0.317   0.000   5.206
  143DPPC    C2 7102   0.137   0.144   5.290
  143DPPC    C3 7103   0.355   0.161   5.378
  143DPPC    N4 7104   0.279   0.133   5.256
  143DPPC    C5 7105   0.310   0.230   5.150
  143DPPC    C6 7106   0.271   0.378   5.155
  143DPPC    O7 7107   0.383   0.452   5.204
  143DPPC    P8 7108   0.335   0.604   5.228
  143DPPC    O9 7109   0.458   0.679   5.260
  143DPPC   O10 7110   0.225   0.589   5.326
  143DPPC   O11 7111   0.305   0.630   5.072
  143DPPC   C12 7112   0.399   0.721   5.013
  143DPPC   C13 7113   0.382   0.768   4.869
  143DPPC   O14 7114   0.293   0.880   4.861
  143DPPC   C15 7115   0.347   1.004   4.867
  143DPPC   O16 7116   0.453   1.020   4.926
  143DPPC   C17 7117   0.272   1.120   4.799
  143DPPC   C18 7118   0.168   1.069   4.699
  143DPPC   C19 7119   0.030   1.101   4.757
  143DPPC   C20 7120  -0.086   1.066   4.664
  143DPPC   C21 7121  -0.134   1.191   4.590
  143DPPC   C22 7122  -0.264   1.164   4.514
  143DPPC   C23 7123  -0.232   1.043   4.427
  143DPPC   C24 7124  -0.364   1.003   4.360
  143DPPC   C25 7125  -0.410   1.108   4.259
  143DPPC   C26 7126  -0.547   1.084   4.197
  143DPPC   C27 7127  -0.576   1.198   4.099
  143DPPC   C28 7128  -0.489   1.215   3.974
  143DPPC   C29 7129  -0.518   1.091   3.889
  143DPPC   C30 7130  -0.430   1.098   3.764
  143DPPC   C31 7131  -0.484   1.223   3.694
  143DPPC   C32 7132   0.361   0.643   4.783
  143DPPC   O33 7133   0.311   0.665   4.650
  143DPPC   C34 7134   0.277   0.552   4.584
  143DPPC   O35 7135   0.226   0.463   4.652
  143DPPC   C36 7136   0.233   0.573   4.439
  143DPPC   C37 7137   0.165   0.447   4.385
  143DPPC   C38 7138   0.095   0.459   4.249
  143DPPC   C39 7139  -0.021   0.558   4.266
  143DPPC   C40 7140  -0.102   0.580   4.138
  143DPPC   C41 7141  -0.010   0.645   4.034
  143DPPC   C42 7142  -0.037   0.569   3.904
  143DPPC   C43 7143   0.044   0.623   3.786
  143DPPC   C44 7144   0.032   0.772   3.757
  143DPPC   C45 7145   0.123   0.792   3.635
  143DPPC   C46 7146   0.158   0.936   3.598
  143DPPC   C47 7147   0.247   0.929   3.474
  143DPPC   C48 7148   0.293   1.063   3.417
  143DPPC   C49 7149   0.194   1.173   3.379
  143DPPC   C50 7150   0.263   1.295   3.316
  144DPPC    C1 7151   8.715   0.227   5.658
  144DPPC    C2 7152   8.918   0.343   5.709
  144DPPC    C3 7153   8.913   0.112   5.647
  144DPPC    N4 7154   8.855   0.244   5.619
  144DPPC    C5 7155   8.867   0.279   5.477
  144DPPC    C6 7156   8.871   0.428   5.440
  144DPPC    O7 7157   8.760   0.512   5.471
  144DPPC    P8 7158   8.805   0.663   5.438
  144DPPC    O9 7159   8.939   0.660   5.500
  144DPPC   O10 7160   8.694   0.738   5.501
  144DPPC   O11 7161   8.799   0.658   5.277
  144DPPC   C12 7162   8.664   0.675   5.235
  144DPPC   C13 7163   8.648   0.633   5.089
  144DPPC   O14 7164   8.515   0.653   5.037
  144DPPC   C15 7165   8.495   0.776   4.982
  144DPPC   O16 7166   8.541   0.883   5.021
  144DPPC   C17 7167   8.371   0.791   4.893
  144DPPC   C18 7168   8.392   0.837   4.748
  144DPPC   C19 7169   8.488   0.739   4.681
  144DPPC   C20 7170   8.523   0.778   4.537
  144DPPC   C21 7171   8.395   0.760   4.456
  144DPPC   C22 7172   8.432   0.769   4.307
  144DPPC   C23 7173   8.524   0.890   4.290
  144DPPC   C24 7174   8.548   0.933   4.145
  144DPPC   C25 7175   8.430   0.978   4.059
  144DPPC   C26 7176   8.485   1.040   3.931
  144DPPC   C27 7177   8.557   0.943   3.836
  144DPPC   C28 7178   8.628   1.033   3.735
  144DPPC   C29 7179   8.685   0.960   3.613
  144DPPC   C30 7180   8.565   0.885   3.553
  144DPPC   C31 7181   8.610   0.833   3.416
  144DPPC   C32 7182   8.711   0.494   5.078
  144DPPC   O33 7183   8.706   0.439   4.946
  144DPPC   C34 7184   8.820   0.473   4.881
  144DPPC   O35 7185   8.915   0.517   4.946
  144DPPC   C36 7186   8.843   0.411   4.743
  144DPPC   C37 7187   8.714   0.395   4.663
  144DPPC   C38 7188   8.729   0.273   4.573
  144DPPC   C39 7189   8.607   0.280   4.481
  144DPPC   C40 7190   8.608   0.157   4.390
  144DPPC   C41 7191   8.527   0.171   4.260
  144DPPC   C42 7192   8.536   0.040   4.181
  144DPPC   C43 7193   8.419   0.040   4.082
  144DPPC   C44 7194   8.451  -0.053   3.965
  144DPPC   C45 7195   8.315  -0.082   3.900
  144DPPC   C46 7196   8.252   0.048   3.847
  144DPPC   C47 7197   8.115   0.043   3.779
  144DPPC   C48 7198   8.093   0.167   3.691
  144DPPC   C49 7199   8.125   0.294   3.770
  144DPPC   C50 7200   8.099   0.423   3.692
  145DPPC    C1 7201   8.047   5.564   5.547
  145DPPC    C2 7202   8.296   5.580   5.578
  145DPPC    C3 7203   8.214   5.381   5.513
  145DPPC    N4 7204   8.182   5.524   5.504
  145DPPC    C5 7205   8.186   5.552   5.360
  145DPPC    C6 7206   8.208   5.700   5.323
  145DPPC    O7 7207   8.224   5.719   5.183
  145DPPC    P8 7208   8.228   5.877   5.151
  145DPPC    O9 7209   8.291   5.882   5.018
  145DPPC   O10 7210   8.291   5.941   5.269
  145DPPC   O11 7211   8.069   5.861   5.139
  145DPPC   C12 7212   8.043   5.829   5.002
  145DPPC   C13 7213   7.900   5.783   4.970
  145DPPC   O14 7214   7.900   5.718   4.842
  145DPPC   C15 7215   7.803   5.627   4.813
  145DPPC   O16 7216   7.723   5.599   4.902
  145DPPC   C17 7217   7.777   5.600   4.665
  145DPPC   C18 7218   7.668   5.703   4.633
  145DPPC   C19 7219   7.627   5.671   4.489
  145DPPC   C20 7220   7.488   5.609   4.497
  145DPPC   C21 7221   7.450   5.550   4.361
  145DPPC   C22 7222   7.420   5.673   4.275
  145DPPC   C23 7223   7.309   5.764   4.328
  145DPPC   C24 7224   7.319   5.902   4.263
  145DPPC   C25 7225   7.186   5.976   4.248
  145DPPC   C26 7226   7.227   6.115   4.199
  145DPPC   C27 7227   7.274   6.124   4.054
  145DPPC   C28 7228   7.158   6.096   3.958
  145DPPC   C29 7229   7.207   6.070   3.815
  145DPPC   C30 7230   7.289   5.941   3.813
  145DPPC   C31 7231   7.336   5.915   3.670
  145DPPC   C32 7232   7.798   5.892   5.001
  145DPPC   O33 7233   7.804   6.006   4.915
  145DPPC   C34 7234   7.694   6.084   4.932
  145DPPC   O35 7235   7.620   6.073   5.030
  145DPPC   C36 7236   7.650   6.156   4.805
  145DPPC   C37 7237   7.555   6.071   4.719
  145DPPC   C38 7238   7.499   6.148   4.599
  145DPPC   C39 7239   7.594   6.189   4.487
  145DPPC   C40 7240   7.523   6.268   4.376
  145DPPC   C41 7241   7.607   6.323   4.260
  145DPPC   C42 7242   7.657   6.195   4.192
  145DPPC   C43 7243   7.716   6.219   4.053
  145DPPC   C44 7244   7.606   6.279   3.966
  145DPPC   C45 7245   7.657   6.302   3.824
  145DPPC   C46 7246   7.542   6.373   3.752
  145DPPC   C47 7247   7.598   6.409   3.614
  145DPPC   C48 7248   7.627   6.283   3.531
  145DPPC   C49 7249   7.684   6.301   3.390
  145DPPC   C50 7250   7.820   6.368   3.408
  146DPPC    C1 7251   6.914   4.107   5.824
  146DPPC    C2 7252   7.115   4.121   5.956
  146DPPC    C3 7253   6.925   4.062   6.062
  146DPPC    N4 7254   6.992   4.045   5.932
  146DPPC    C5 7255   7.035   3.906   5.909
  146DPPC    C6 7256   6.927   3.812   5.854
  146DPPC    O7 7257   6.970   3.677   5.832
  146DPPC    P8 7258   6.847   3.581   5.795
  146DPPC    O9 7259   6.722   3.628   5.860
  146DPPC   O10 7260   6.892   3.440   5.797
  146DPPC   O11 7261   6.829   3.619   5.639
  146DPPC   C12 7262   6.915   3.538   5.559
  146DPPC   C13 7263   6.937   3.567   5.410
  146DPPC   O14 7264   7.041   3.660   5.377
  146DPPC   C15 7265   7.173   3.632   5.398
  146DPPC   O16 7266   7.210   3.562   5.493
  146DPPC   C17 7267   7.264   3.739   5.339
  146DPPC   C18 7268   7.198   3.824   5.231
  146DPPC   C19 7269   7.222   3.758   5.095
  146DPPC   C20 7270   7.375   3.757   5.087
  146DPPC   C21 7271   7.413   3.708   4.948
  146DPPC   C22 7272   7.354   3.812   4.852
  146DPPC   C23 7273   7.409   3.785   4.712
  146DPPC   C24 7274   7.561   3.805   4.699
  146DPPC   C25 7275   7.589   3.806   4.549
  146DPPC   C26 7276   7.581   3.663   4.496
  146DPPC   C27 7277   7.621   3.678   4.349
  146DPPC   C28 7278   7.553   3.803   4.293
  146DPPC   C29 7279   7.601   3.842   4.153
  146DPPC   C30 7280   7.533   3.974   4.115
  146DPPC   C31 7281   7.517   3.978   3.963
  146DPPC   C32 7282   6.810   3.620   5.342
  146DPPC   O33 7283   6.714   3.521   5.303
  146DPPC   C34 7284   6.611   3.572   5.231
  146DPPC   O35 7285   6.613   3.682   5.178
  146DPPC   C36 7286   6.489   3.479   5.231
  146DPPC   C37 7287   6.422   3.478   5.093
  146DPPC   C38 7288   6.332   3.361   5.055
  146DPPC   C39 7289   6.240   3.418   4.946
  146DPPC   C40 7290   6.308   3.449   4.812
  146DPPC   C41 7291   6.216   3.512   4.707
  146DPPC   C42 7292   6.284   3.531   4.571
  146DPPC   C43 7293   6.186   3.608   4.482
  146DPPC   C44 7294   6.217   3.568   4.337
  146DPPC   C45 7295   6.104   3.626   4.252
  146DPPC   C46 7296   6.117   3.558   4.116
  146DPPC   C47 7297   6.014   3.626   4.024
  146DPPC   C48 7298   6.005   3.573   3.881
  146DPPC   C49 7299   5.887   3.633   3.805
  146DPPC   C50 7300   5.755   3.592   3.871
  147DPPC    C1 7301   8.270   3.054   6.140
  147DPPC    C2 7302   8.124   2.865   6.144
  147DPPC    C3 7303   8.034   3.087   6.177
  147DPPC    N4 7304   8.135   3.007   6.107
  147DPPC    C5 7305   8.113   3.003   5.961
  147DPPC    C6 7306   8.122   3.135   5.885
  147DPPC    O7 7307   8.024   3.238   5.900
  147DPPC    P8 7308   8.101   3.378   5.881
  147DPPC    O9 7309   8.220   3.351   5.965
  147DPPC   O10 7310   8.014   3.496   5.897
  147DPPC   O11 7311   8.135   3.350   5.726
  147DPPC   C12 7312   8.013   3.394   5.665
  147DPPC   C13 7313   8.056   3.384   5.518
  147DPPC   O14 7314   7.963   3.451   5.432
  147DPPC   C15 7315   8.008   3.572   5.388
  147DPPC   O16 7316   8.104   3.622   5.446
  147DPPC   C17 7317   7.910   3.637   5.290
  147DPPC   C18 7318   7.936   3.595   5.145
  147DPPC   C19 7319   7.800   3.607   5.076
  147DPPC   C20 7320   7.821   3.570   4.929
  147DPPC   C21 7321   7.919   3.673   4.870
  147DPPC   C22 7322   7.940   3.640   4.722
  147DPPC   C23 7323   8.022   3.750   4.655
  147DPPC   C24 7324   8.025   3.704   4.509
  147DPPC   C25 7325   8.051   3.827   4.422
  147DPPC   C26 7326   8.063   3.793   4.274
  147DPPC   C27 7327   8.063   3.920   4.189
  147DPPC   C28 7328   7.942   4.008   4.221
  147DPPC   C29 7329   7.950   4.143   4.150
  147DPPC   C30 7330   7.812   4.211   4.158
  147DPPC   C31 7331   7.810   4.332   4.066
  147DPPC   C32 7332   8.088   3.236   5.496
  147DPPC   O33 7333   7.982   3.151   5.540
  147DPPC   C34 7334   8.005   3.018   5.552
  147DPPC   O35 7335   8.109   2.959   5.582
  147DPPC   C36 7336   7.878   2.935   5.580
  147DPPC   C37 7337   7.884   2.795   5.519
  147DPPC   C38 7338   7.885   2.791   5.367
  147DPPC   C39 7339   7.860   2.649   5.316
  147DPPC   C40 7340   7.868   2.656   5.164
  147DPPC   C41 7341   7.765   2.743   5.091
  147DPPC   C42 7342   7.792   2.730   4.940
  147DPPC   C43 7343   7.678   2.809   4.876
  147DPPC   C44 7344   7.688   2.789   4.725
  147DPPC   C45 7345   7.571   2.866   4.664
  147DPPC   C46 7346   7.565   2.866   4.511
  147DPPC   C47 7347   7.434   2.937   4.477
  147DPPC   C48 7348   7.385   2.942   4.332
  147DPPC   C49 7349   7.236   2.970   4.310
  147DPPC   C50 7350   7.195   2.973   4.163
  148DPPC    C1 7351   2.650   6.481   5.426
  148DPPC    C2 7352   2.874   6.505   5.490
  148DPPC    C3 7353   2.806   6.533   5.259
  148DPPC    N4 7354   2.771   6.560   5.400
  148DPPC    C5 7355   2.763   6.703   5.430
  148DPPC    C6 7356   2.845   6.809   5.355
  148DPPC    O7 7357   2.985   6.783   5.347
  148DPPC    P8 7358   3.072   6.917   5.371
  148DPPC    O9 7359   3.213   6.876   5.359
  148DPPC   O10 7360   3.034   6.983   5.498
  148DPPC   O11 7361   3.011   6.993   5.243
  148DPPC   C12 7362   3.070   6.967   5.116
  148DPPC   C13 7363   2.978   7.011   5.002
  148DPPC   O14 7364   3.012   6.943   4.881
  148DPPC   C15 7365   2.990   6.811   4.856
  148DPPC   O16 7366   2.923   6.746   4.937
  148DPPC   C17 7367   3.047   6.747   4.730
  148DPPC   C18 7368   2.952   6.658   4.649
  148DPPC   C19 7369   3.015   6.583   4.531
  148DPPC   C20 7370   3.103   6.692   4.469
  148DPPC   C21 7371   3.199   6.612   4.380
  148DPPC   C22 7372   3.257   6.703   4.272
  148DPPC   C23 7373   3.162   6.786   4.186
  148DPPC   C24 7374   3.241   6.858   4.077
  148DPPC   C25 7375   3.300   6.765   3.971
  148DPPC   C26 7376   3.344   6.844   3.848
  148DPPC   C27 7377   3.456   6.762   3.783
  148DPPC   C28 7378   3.526   6.838   3.670
  148DPPC   C29 7379   3.615   6.744   3.589
  148DPPC   C30 7380   3.668   6.815   3.464
  148DPPC   C31 7381   3.792   6.731   3.429
  148DPPC   C32 7382   2.994   7.163   5.005
  148DPPC   O33 7383   3.126   7.215   5.025
  148DPPC   C34 7384   3.126   7.351   5.039
  148DPPC   O35 7385   3.018   7.409   5.037
  148DPPC   C36 7386   3.254   7.434   5.028
  148DPPC   C37 7387   3.294   7.494   4.893
  148DPPC   C38 7388   3.418   7.582   4.906
  148DPPC   C39 7389   3.491   7.604   4.773
  148DPPC   C40 7390   3.540   7.467   4.725
  148DPPC   C41 7391   3.599   7.484   4.585
  148DPPC   C42 7392   3.707   7.592   4.577
  148DPPC   C43 7393   3.755   7.605   4.433
  148DPPC   C44 7394   3.870   7.514   4.389
  148DPPC   C45 7395   3.916   7.544   4.246
  148DPPC   C46 7396   3.978   7.419   4.183
  148DPPC   C47 7397   4.004   7.456   4.036
  148DPPC   C48 7398   4.085   7.352   3.958
  148DPPC   C49 7399   4.097   7.392   3.811
  148DPPC   C50 7400   4.190   7.295   3.737
  149DPPC    C1 7401   5.213   0.487   5.254
  149DPPC    C2 7402   5.275   0.542   5.029
  149DPPC    C3 7403   5.112   0.660   5.155
  149DPPC    N4 7404   5.245   0.597   5.162
  149DPPC    C5 7405   5.340   0.697   5.211
  149DPPC    C6 7406   5.428   0.676   5.334
  149DPPC    O7 7407   5.522   0.778   5.372
  149DPPC    P8 7408   5.637   0.723   5.470
  149DPPC    O9 7409   5.596   0.591   5.522
  149DPPC   O10 7410   5.707   0.826   5.551
  149DPPC   O11 7411   5.727   0.661   5.352
  149DPPC   C12 7412   5.818   0.760   5.301
  149DPPC   C13 7413   5.843   0.745   5.151
  149DPPC   O14 7414   5.961   0.816   5.109
  149DPPC   C15 7415   6.070   0.765   5.047
  149DPPC   O16 7416   6.098   0.646   5.060
  149DPPC   C17 7417   6.168   0.871   4.997
  149DPPC   C18 7418   6.152   0.879   4.845
  149DPPC   C19 7419   6.263   0.958   4.776
  149DPPC   C20 7420   6.258   0.939   4.624
  149DPPC   C21 7421   6.343   1.033   4.539
  149DPPC   C22 7422   6.354   0.965   4.402
  149DPPC   C23 7423   6.433   1.062   4.315
  149DPPC   C24 7424   6.463   1.010   4.174
  149DPPC   C25 7425   6.567   1.114   4.131
  149DPPC   C26 7426   6.555   1.176   3.992
  149DPPC   C27 7427   6.676   1.269   3.984
  149DPPC   C28 7428   6.672   1.339   3.848
  149DPPC   C29 7429   6.771   1.457   3.846
  149DPPC   C30 7430   6.754   1.545   3.723
  149DPPC   C31 7431   6.625   1.628   3.718
  149DPPC   C32 7432   5.708   0.769   5.083
  149DPPC   O33 7433   5.707   0.758   4.941
  149DPPC   C34 7434   5.587   0.804   4.897
  149DPPC   O35 7435   5.483   0.807   4.962
  149DPPC   C36 7436   5.574   0.812   4.744
  149DPPC   C37 7437   5.587   0.955   4.692
  149DPPC   C38 7438   5.586   0.972   4.540
  149DPPC   C39 7439   5.706   0.934   4.452
  149DPPC   C40 7440   5.704   0.979   4.306
  149DPPC   C41 7441   5.823   0.925   4.227
  149DPPC   C42 7442   5.935   1.022   4.189
  149DPPC   C43 7443   5.859   1.136   4.122
  149DPPC   C44 7444   5.932   1.184   3.997
  149DPPC   C45 7445   5.856   1.304   3.940
  149DPPC   C46 7446   5.901   1.361   3.806
  149DPPC   C47 7447   5.818   1.481   3.759
  149DPPC   C48 7448   5.668   1.458   3.739
  149DPPC   C49 7449   5.594   1.591   3.723
  149DPPC   C50 7450   5.441   1.586   3.717
  150DPPC    C1 7451   4.700   0.892   5.861
  150DPPC    C2 7452   4.833   0.718   5.789
  150DPPC    C3 7453   4.742   0.878   5.630
  150DPPC    N4 7454   4.803   0.860   5.762
  150DPPC    C5 7455   4.912   0.957   5.778
  150DPPC    C6 7456   5.040   0.942   5.695
  150DPPC    O7 7457   5.032   0.973   5.556
  150DPPC    P8 7458   5.165   0.947   5.468
  150DPPC    O9 7459   5.192   0.808   5.512
  150DPPC   O10 7460   5.266   1.052   5.493
  150DPPC   O11 7461   5.099   0.944   5.322
  150DPPC   C12 7462   5.054   1.078   5.303
  150DPPC   C13 7463   4.925   1.111   5.227
  150DPPC   O14 7464   4.799   1.074   5.286
  150DPPC   C15 7465   4.714   1.176   5.313
  150DPPC   O16 7466   4.742   1.292   5.284
  150DPPC   C17 7467   4.572   1.141   5.358
  150DPPC   C18 7468   4.472   1.237   5.295
  150DPPC   C19 7469   4.392   1.153   5.195
  150DPPC   C20 7470   4.284   1.240   5.131
  150DPPC   C21 7471   4.188   1.169   5.036
  150DPPC   C22 7472   4.094   1.273   4.975
  150DPPC   C23 7473   3.962   1.196   4.958
  150DPPC   C24 7474   3.852   1.276   4.888
  150DPPC   C25 7475   3.739   1.185   4.839
  150DPPC   C26 7476   3.641   1.269   4.757
  150DPPC   C27 7477   3.523   1.175   4.728
  150DPPC   C28 7478   3.406   1.271   4.708
  150DPPC   C29 7479   3.285   1.206   4.641
  150DPPC   C30 7480   3.332   1.170   4.500
  150DPPC   C31 7481   3.219   1.088   4.436
  150DPPC   C32 7482   4.941   1.050   5.087
  150DPPC   O33 7483   5.059   1.087   5.015
  150DPPC   C34 7484   5.110   1.008   4.917
  150DPPC   O35 7485   5.072   0.891   4.913
  150DPPC   C36 7486   5.210   1.071   4.820
  150DPPC   C37 7487   5.142   1.106   4.687
  150DPPC   C38 7488   5.228   1.193   4.595
  150DPPC   C39 7489   5.159   1.225   4.462
  150DPPC   C40 7490   5.144   1.104   4.370
  150DPPC   C41 7491   5.063   1.153   4.250
  150DPPC   C42 7492   5.020   1.044   4.152
  150DPPC   C43 7493   4.888   1.076   4.080
  150DPPC   C44 7494   4.775   1.105   4.179
  150DPPC   C45 7495   4.641   1.113   4.106
  150DPPC   C46 7496   4.544   1.193   4.194
  150DPPC   C47 7497   4.403   1.162   4.145
  150DPPC   C48 7498   4.406   1.195   3.996
  150DPPC   C49 7499   4.264   1.199   3.939
  150DPPC   C50 7500   4.264   1.245   3.793
  151DPPC    C1 7501   0.996   0.898   5.139
  151DPPC    C2 7502   1.124   0.739   5.023
  151DPPC    C3 7503   1.016   0.681   5.230
  151DPPC    N4 7504   1.003   0.756   5.104
  151DPPC    C5 7505   0.892   0.725   5.012
  151DPPC    C6 7506   0.805   0.605   5.051
  151DPPC    O7 7507   0.712   0.563   4.951
  151DPPC    P8 7508   0.682   0.406   4.966
  151DPPC    O9 7509   0.546   0.360   4.929
  151DPPC   O10 7510   0.754   0.358   5.086
  151DPPC   O11 7511   0.764   0.383   4.829
  151DPPC   C12 7512   0.670   0.399   4.722
  151DPPC   C13 7513   0.723   0.427   4.581
  151DPPC   O14 7514   0.761   0.313   4.502
  151DPPC   C15 7515   0.877   0.246   4.522
  151DPPC   O16 7516   0.954   0.270   4.616
  151DPPC   C17 7517   0.898   0.131   4.424
  151DPPC   C18 7518   0.935   0.175   4.282
  151DPPC   C19 7519   0.962   0.053   4.192
  151DPPC   C20 7520   1.044   0.090   4.069
  151DPPC   C21 7521   0.967   0.180   3.972
  151DPPC   C22 7522   0.858   0.106   3.895
  151DPPC   C23 7523   0.918   0.009   3.793
  151DPPC   C24 7524   0.812  -0.071   3.717
  151DPPC   C25 7525   0.719   0.021   3.638
  151DPPC   C26 7526   0.621  -0.047   3.542
  151DPPC   C27 7527   0.558   0.054   3.446
  151DPPC   C28 7528   0.481   0.161   3.524
  151DPPC   C29 7529   0.390   0.260   3.451
  151DPPC   C30 7530   0.350   0.381   3.535
  151DPPC   C31 7531   0.278   0.495   3.462
  151DPPC   C32 7532   0.824   0.542   4.592
  151DPPC   O33 7533   0.755   0.656   4.646
  151DPPC   C34 7534   0.825   0.770   4.669
  151DPPC   O35 7535   0.947   0.764   4.658
  151DPPC   C36 7536   0.749   0.902   4.680
  151DPPC   C37 7537   0.678   0.927   4.547
  151DPPC   C38 7538   0.529   0.960   4.546
  151DPPC   C39 7539   0.468   0.940   4.407
  151DPPC   C40 7540   0.317   0.955   4.393
  151DPPC   C41 7541   0.278   0.942   4.245
  151DPPC   C42 7542   0.131   0.983   4.236
  151DPPC   C43 7543   0.080   0.991   4.092
  151DPPC   C44 7544   0.176   1.094   4.032
  151DPPC   C45 7545   0.150   1.245   4.044
  151DPPC   C46 7546   0.232   1.331   3.948
  151DPPC   C47 7547   0.182   1.323   3.804
  151DPPC   C48 7548   0.050   1.399   3.785
  151DPPC   C49 7549   0.012   1.414   3.637
  151DPPC   C50 7550  -0.134   1.456   3.620
  152DPPC    C1 7551   4.871   1.806   6.010
  152DPPC    C2 7552   5.083   1.819   5.888
  152DPPC    C3 7553   5.017   1.615   5.968
  152DPPC    N4 7554   4.962   1.740   5.915
  152DPPC    C5 7555   4.895   1.720   5.785
  152DPPC    C6 7556   4.785   1.619   5.754
  152DPPC    O7 7557   4.654   1.656   5.709
  152DPPC    P8 7558   4.550   1.533   5.699
  152DPPC    O9 7559   4.452   1.530   5.809
  152DPPC   O10 7560   4.621   1.414   5.647
  152DPPC   O11 7561   4.465   1.618   5.592
  152DPPC   C12 7562   4.539   1.629   5.470
  152DPPC   C13 7563   4.462   1.707   5.364
  152DPPC   O14 7564   4.467   1.644   5.235
  152DPPC   C15 7565   4.340   1.637   5.186
  152DPPC   O16 7566   4.246   1.614   5.261
  152DPPC   C17 7567   4.331   1.613   5.035
  152DPPC   C18 7568   4.366   1.741   4.959
  152DPPC   C19 7569   4.514   1.778   4.938
  152DPPC   C20 7570   4.514   1.909   4.860
  152DPPC   C21 7571   4.653   1.973   4.853
  152DPPC   C22 7572   4.694   2.005   4.709
  152DPPC   C23 7573   4.828   2.078   4.716
  152DPPC   C24 7574   4.875   2.106   4.573
  152DPPC   C25 7575   4.797   2.230   4.530
  152DPPC   C26 7576   4.827   2.255   4.382
  152DPPC   C27 7577   4.799   2.131   4.296
  152DPPC   C28 7578   4.919   2.097   4.207
  152DPPC   C29 7579   4.899   1.972   4.121
  152DPPC   C30 7580   4.988   1.960   3.997
  152DPPC   C31 7581   4.907   2.044   3.898
  152DPPC   C32 7582   4.483   1.859   5.369
  152DPPC   O33 7583   4.623   1.885   5.357
  152DPPC   C34 7584   4.665   2.009   5.319
  152DPPC   O35 7585   4.589   2.102   5.296
  152DPPC   C36 7586   4.808   2.014   5.265
  152DPPC   C37 7587   4.833   1.889   5.181
  152DPPC   C38 7588   4.971   1.891   5.113
  152DPPC   C39 7589   4.976   1.769   5.020
  152DPPC   C40 7590   5.101   1.798   4.938
  152DPPC   C41 7591   5.126   1.693   4.829
  152DPPC   C42 7592   5.013   1.710   4.726
  152DPPC   C43 7593   5.037   1.630   4.598
  152DPPC   C44 7594   4.946   1.675   4.484
  152DPPC   C45 7595   4.958   1.580   4.366
  152DPPC   C46 7596   4.887   1.635   4.241
  152DPPC   C47 7597   4.907   1.547   4.118
  152DPPC   C48 7598   4.802   1.580   4.012
  152DPPC   C49 7599   4.818   1.485   3.894
  152DPPC   C50 7600   4.699   1.487   3.799
  153DPPC    C1 7601   2.037   1.283   5.563
  153DPPC    C2 7602   2.198   1.151   5.673
  153DPPC    C3 7603   1.966   1.093   5.660
  153DPPC    N4 7604   2.081   1.144   5.584
  153DPPC    C5 7605   2.085   1.077   5.453
  153DPPC    C6 7606   2.125   0.929   5.457
  153DPPC    O7 7607   2.262   0.908   5.492
  153DPPC    P8 7608   2.269   0.760   5.556
  153DPPC    O9 7609   2.131   0.725   5.597
  153DPPC   O10 7610   2.389   0.752   5.641
  153DPPC   O11 7611   2.301   0.687   5.416
  153DPPC   C12 7612   2.428   0.727   5.364
  153DPPC   C13 7613   2.497   0.627   5.270
  153DPPC   O14 7614   2.617   0.675   5.209
  153DPPC   C15 7615   2.703   0.588   5.149
  153DPPC   O16 7616   2.700   0.469   5.179
  153DPPC   C17 7617   2.796   0.635   5.036
  153DPPC   C18 7618   2.746   0.582   4.902
  153DPPC   C19 7619   2.837   0.616   4.783
  153DPPC   C20 7620   2.775   0.562   4.654
  153DPPC   C21 7621   2.903   0.548   4.570
  153DPPC   C22 7622   2.888   0.462   4.444
  153DPPC   C23 7623   3.008   0.468   4.350
  153DPPC   C24 7624   2.969   0.386   4.227
  153DPPC   C25 7625   3.036   0.425   4.096
  153DPPC   C26 7626   2.994   0.355   3.966
  153DPPC   C27 7627   3.062   0.420   3.846
  153DPPC   C28 7628   3.024   0.358   3.711
  153DPPC   C29 7629   3.040   0.432   3.577
  153DPPC   C30 7630   2.956   0.365   3.468
  153DPPC   C31 7631   3.022   0.232   3.429
  153DPPC   C32 7632   2.387   0.595   5.169
  153DPPC   O33 7633   2.417   0.502   5.064
  153DPPC   C34 7634   2.314   0.448   4.993
  153DPPC   O35 7635   2.200   0.479   5.027
  153DPPC   C36 7636   2.339   0.379   4.859
  153DPPC   C37 7637   2.248   0.405   4.739
  153DPPC   C38 7638   2.306   0.343   4.612
  153DPPC   C39 7639   2.201   0.341   4.501
  153DPPC   C40 7640   2.212   0.457   4.402
  153DPPC   C41 7641   2.099   0.449   4.300
  153DPPC   C42 7642   2.102   0.569   4.206
  153DPPC   C43 7643   1.957   0.573   4.156
  153DPPC   C44 7644   1.854   0.605   4.264
  153DPPC   C45 7645   1.718   0.585   4.198
  153DPPC   C46 7646   1.615   0.662   4.281
  153DPPC   C47 7647   1.650   0.811   4.272
  153DPPC   C48 7648   1.562   0.906   4.353
  153DPPC   C49 7649   1.594   1.044   4.295
  153DPPC   C50 7650   1.499   1.142   4.364
  154DPPC    C1 7651   9.107   7.594   5.461
  154DPPC    C2 7652   9.195   7.807   5.427
  154DPPC    C3 7653   9.053   7.710   5.262
  154DPPC    N4 7654   9.074   7.727   5.407
  154DPPC    C5 7655   8.956   7.775   5.480
  154DPPC    C6 7656   8.900   7.917   5.468
  154DPPC    O7 7657   8.821   7.932   5.349
  154DPPC    P8 7658   8.797   8.087   5.314
  154DPPC    O9 7659   8.774   8.162   5.440
  154DPPC   O10 7660   8.708   8.110   5.197
  154DPPC   O11 7661   8.948   8.111   5.264
  154DPPC   C12 7662   8.953   8.164   5.131
  154DPPC   C13 7663   9.089   8.222   5.089
  154DPPC   O14 7664   9.084   8.301   4.969
  154DPPC   C15 7665   9.190   8.374   4.925
  154DPPC   O16 7666   9.292   8.399   4.990
  154DPPC   C17 7667   9.163   8.435   4.788
  154DPPC   C18 7668   9.251   8.552   4.744
  154DPPC   C19 7669   9.198   8.627   4.622
  154DPPC   C20 7670   9.300   8.725   4.564
  154DPPC   C21 7671   9.306   8.696   4.414
  154DPPC   C22 7672   9.163   8.733   4.372
  154DPPC   C23 7673   9.152   8.726   4.219
  154DPPC   C24 7674   9.011   8.741   4.161
  154DPPC   C25 7675   9.012   8.681   4.021
  154DPPC   C26 7676   8.875   8.713   3.960
  154DPPC   C27 7677   8.838   8.638   3.831
  154DPPC   C28 7678   8.927   8.685   3.716
  154DPPC   C29 7679   8.895   8.610   3.587
  154DPPC   C30 7680   8.912   8.462   3.621
  154DPPC   C31 7681   8.893   8.372   3.499
  154DPPC   C32 7682   9.166   8.092   5.065
  154DPPC   O33 7683   9.105   7.997   4.977
  154DPPC   C34 7684   9.168   7.887   4.929
  154DPPC   O35 7685   9.284   7.854   4.954
  154DPPC   C36 7686   9.087   7.802   4.830
  154DPPC   C37 7687   9.013   7.885   4.725
  154DPPC   C38 7688   8.944   7.798   4.620
  154DPPC   C39 7689   8.856   7.869   4.517
  154DPPC   C40 7690   8.785   7.769   4.426
  154DPPC   C41 7691   8.658   7.823   4.360
  154DPPC   C42 7692   8.605   7.758   4.232
  154DPPC   C43 7693   8.712   7.731   4.126
  154DPPC   C44 7694   8.668   7.658   3.999
  154DPPC   C45 7695   8.799   7.633   3.923
  154DPPC   C46 7696   8.800   7.493   3.862
  154DPPC   C47 7697   8.930   7.477   3.782
  154DPPC   C48 7698   8.933   7.570   3.660
  154DPPC   C49 7699   9.078   7.572   3.610
  154DPPC   C50 7700   9.106   7.656   3.485
  155DPPC    C1 7701   3.699   4.114   6.467
  155DPPC    C2 7702   3.659   3.875   6.460
  155DPPC    C3 7703   3.501   4.027   6.545
  155DPPC    N4 7704   3.600   4.008   6.439
  155DPPC    C5 7705   3.562   4.042   6.301
  155DPPC    C6 7706   3.449   3.966   6.233
  155DPPC    O7 7707   3.420   4.029   6.108
  155DPPC    P8 7708   3.284   3.978   6.039
  155DPPC    O9 7709   3.230   4.095   5.967
  155DPPC   O10 7710   3.215   3.891   6.138
  155DPPC   O11 7711   3.363   3.880   5.939
  155DPPC   C12 7712   3.456   3.942   5.850
  155DPPC   C13 7713   3.504   3.848   5.739
  155DPPC   O14 7714   3.589   3.923   5.651
  155DPPC   C15 7715   3.704   3.869   5.601
  155DPPC   O16 7716   3.779   3.812   5.679
  155DPPC   C17 7717   3.750   3.927   5.467
  155DPPC   C18 7718   3.663   3.894   5.346
  155DPPC   C19 7719   3.730   3.954   5.222
  155DPPC   C20 7720   3.661   3.916   5.091
  155DPPC   C21 7721   3.724   4.008   4.986
  155DPPC   C22 7722   3.618   4.017   4.876
  155DPPC   C23 7723   3.685   4.097   4.765
  155DPPC   C24 7724   3.610   4.098   4.632
  155DPPC   C25 7725   3.713   4.147   4.530
  155DPPC   C26 7726   3.680   4.134   4.381
  155DPPC   C27 7727   3.809   4.128   4.299
  155DPPC   C28 7728   3.783   4.104   4.150
  155DPPC   C29 7729   3.741   4.212   4.050
  155DPPC   C30 7730   3.729   4.150   3.910
  155DPPC   C31 7731   3.712   4.271   3.818
  155DPPC   C32 7732   3.383   3.788   5.668
  155DPPC   O33 7733   3.407   3.684   5.573
  155DPPC   C34 7734   3.298   3.630   5.511
  155DPPC   O35 7735   3.186   3.652   5.556
  155DPPC   C36 7736   3.329   3.527   5.402
  155DPPC   C37 7737   3.379   3.583   5.269
  155DPPC   C38 7738   3.386   3.468   5.168
  155DPPC   C39 7739   3.400   3.523   5.026
  155DPPC   C40 7740   3.409   3.408   4.925
  155DPPC   C41 7741   3.382   3.459   4.783
  155DPPC   C42 7742   3.404   3.333   4.698
  155DPPC   C43 7743   3.434   3.382   4.556
  155DPPC   C44 7744   3.454   3.277   4.447
  155DPPC   C45 7745   3.505   3.327   4.312
  155DPPC   C46 7746   3.530   3.211   4.216
  155DPPC   C47 7747   3.581   3.251   4.077
  155DPPC   C48 7748   3.626   3.123   4.007
  155DPPC   C49 7749   3.655   3.159   3.861
  155DPPC   C50 7750   3.538   3.189   3.768
  156DPPC    C1 7751   7.390   2.631   6.082
  156DPPC    C2 7752   7.169   2.622   6.179
  156DPPC    C3 7753   7.234   2.799   6.036
  156DPPC    N4 7754   7.247   2.655   6.059
  156DPPC    C5 7755   7.214   2.581   5.935
  156DPPC    C6 7756   7.233   2.430   5.932
  156DPPC    O7 7757   7.154   2.380   5.823
  156DPPC    P8 7758   7.207   2.232   5.790
  156DPPC    O9 7759   7.120   2.169   5.687
  156DPPC   O10 7760   7.253   2.169   5.916
  156DPPC   O11 7761   7.334   2.273   5.701
  156DPPC   C12 7762   7.293   2.368   5.602
  156DPPC   C13 7763   7.402   2.408   5.502
  156DPPC   O14 7764   7.357   2.494   5.396
  156DPPC   C15 7765   7.351   2.626   5.426
  156DPPC   O16 7766   7.369   2.650   5.546
  156DPPC   C17 7767   7.313   2.726   5.317
  156DPPC   C18 7768   7.410   2.740   5.199
  156DPPC   C19 7769   7.326   2.823   5.100
  156DPPC   C20 7770   7.200   2.746   5.060
  156DPPC   C21 7771   7.096   2.822   4.978
  156DPPC   C22 7772   7.001   2.718   4.918
  156DPPC   C23 7773   6.899   2.790   4.830
  156DPPC   C24 7774   6.983   2.865   4.727
  156DPPC   C25 7775   6.915   2.945   4.616
  156DPPC   C26 7776   6.818   3.050   4.669
  156DPPC   C27 7777   6.831   3.192   4.613
  156DPPC   C28 7778   6.718   3.216   4.512
  156DPPC   C29 7779   6.748   3.341   4.429
  156DPPC   C30 7780   6.637   3.363   4.326
  156DPPC   C31 7781   6.660   3.488   4.239
  156DPPC   C32 7782   7.492   2.287   5.475
  156DPPC   O33 7783   7.431   2.166   5.431
  156DPPC   C34 7784   7.517   2.063   5.411
  156DPPC   O35 7785   7.629   2.063   5.463
  156DPPC   C36 7786   7.471   1.943   5.328
  156DPPC   C37 7787   7.590   1.890   5.248
  156DPPC   C38 7788   7.552   1.768   5.163
  156DPPC   C39 7789   7.463   1.808   5.045
  156DPPC   C40 7790   7.412   1.690   4.962
  156DPPC   C41 7791   7.317   1.735   4.852
  156DPPC   C42 7792   7.182   1.779   4.910
  156DPPC   C43 7793   7.091   1.848   4.809
  156DPPC   C44 7794   6.941   1.863   4.837
  156DPPC   C45 7795   6.886   1.949   4.723
  156DPPC   C46 7796   6.734   1.934   4.725
  156DPPC   C47 7797   6.672   1.981   4.593
  156DPPC   C48 7798   6.697   1.869   4.492
  156DPPC   C49 7799   6.650   1.908   4.351
  156DPPC   C50 7800   6.687   2.049   4.306
  157DPPC    C1 7801   0.283   0.959   5.333
  157DPPC    C2 7802   0.198   1.133   5.449
  157DPPC    C3 7803   0.438   1.102   5.443
  157DPPC    N4 7804   0.313   1.099   5.365
  157DPPC    C5 7805   0.330   1.170   5.237
  157DPPC    C6 7806   0.366   1.318   5.244
  157DPPC    O7 7807   0.275   1.411   5.304
  157DPPC    P8 7808   0.362   1.521   5.383
  157DPPC    O9 7809   0.441   1.438   5.476
  157DPPC   O10 7810   0.258   1.623   5.415
  157DPPC   O11 7811   0.458   1.583   5.270
  157DPPC   C12 7812   0.390   1.692   5.209
  157DPPC   C13 7813   0.466   1.750   5.090
  157DPPC   O14 7814   0.411   1.867   5.027
  157DPPC   C15 7815   0.407   1.984   5.097
  157DPPC   O16 7816   0.439   1.995   5.215
  157DPPC   C17 7817   0.359   2.104   5.015
  157DPPC   C18 7818   0.381   2.095   4.864
  157DPPC   C19 7819   0.523   2.135   4.820
  157DPPC   C20 7820   0.528   2.121   4.668
  157DPPC   C21 7821   0.535   1.973   4.630
  157DPPC   C22 7822   0.560   1.961   4.479
  157DPPC   C23 7823   0.561   1.817   4.426
  157DPPC   C24 7824   0.561   1.828   4.273
  157DPPC   C25 7825   0.455   1.927   4.223
  157DPPC   C26 7826   0.443   1.918   4.071
  157DPPC   C27 7827   0.444   1.773   4.023
  157DPPC   C28 7828   0.443   1.779   3.870
  157DPPC   C29 7829   0.425   1.634   3.823
  157DPPC   C30 7830   0.410   1.619   3.671
  157DPPC   C31 7831   0.415   1.475   3.622
  157DPPC   C32 7832   0.474   1.632   4.993
  157DPPC   O33 7833   0.342   1.587   4.960
  157DPPC   C34 7834   0.329   1.481   4.875
  157DPPC   O35 7835   0.419   1.399   4.860
  157DPPC   C36 7836   0.188   1.459   4.820
  157DPPC   C37 7837   0.106   1.585   4.793
  157DPPC   C38 7838   0.177   1.687   4.703
  157DPPC   C39 7839   0.086   1.811   4.699
  157DPPC   C40 7840   0.139   1.924   4.611
  157DPPC   C41 7841   0.027   2.013   4.556
  157DPPC   C42 7842  -0.072   1.933   4.472
  157DPPC   C43 7843  -0.178   2.015   4.398
  157DPPC   C44 7844  -0.277   1.936   4.312
  157DPPC   C45 7845  -0.359   2.036   4.231
  157DPPC   C46 7846  -0.449   1.962   4.132
  157DPPC   C47 7847  -0.534   2.069   4.063
  157DPPC   C48 7848  -0.459   2.164   3.968
  157DPPC   C49 7849  -0.555   2.267   3.908
  157DPPC   C50 7850  -0.649   2.190   3.815
  158DPPC    C1 7851   2.882   0.780   5.452
  158DPPC    C2 7852   2.971   0.555   5.505
  158DPPC    C3 7853   3.046   0.661   5.326
  158DPPC    N4 7854   2.999   0.692   5.462
  158DPPC    C5 7855   3.095   0.750   5.558
  158DPPC    C6 7856   3.194   0.862   5.524
  158DPPC    O7 7857   3.146   0.995   5.541
  158DPPC    P8 7858   3.266   1.079   5.609
  158DPPC    O9 7859   3.328   0.990   5.710
  158DPPC   O10 7860   3.237   1.222   5.634
  158DPPC   O11 7861   3.371   1.072   5.487
  158DPPC   C12 7862   3.328   1.163   5.386
  158DPPC   C13 7863   3.439   1.200   5.287
  158DPPC   O14 7864   3.425   1.329   5.227
  158DPPC   C15 7865   3.539   1.397   5.201
  158DPPC   O16 7866   3.653   1.353   5.217
  158DPPC   C17 7867   3.525   1.482   5.075
  158DPPC   C18 7868   3.465   1.620   5.106
  158DPPC   C19 7869   3.457   1.714   4.985
  158DPPC   C20 7870   3.386   1.650   4.866
  158DPPC   C21 7871   3.392   1.739   4.742
  158DPPC   C22 7872   3.290   1.677   4.645
  158DPPC   C23 7873   3.314   1.713   4.499
  158DPPC   C24 7874   3.215   1.645   4.404
  158DPPC   C25 7875   3.243   1.684   4.259
  158DPPC   C26 7876   3.151   1.607   4.164
  158DPPC   C27 7877   3.201   1.635   4.022
  158DPPC   C28 7878   3.116   1.569   3.914
  158DPPC   C29 7879   3.160   1.603   3.771
  158DPPC   C30 7880   3.305   1.568   3.737
  158DPPC   C31 7881   3.348   1.648   3.614
  158DPPC   C32 7882   3.462   1.082   5.192
  158DPPC   O33 7883   3.346   1.029   5.126
  158DPPC   C34 7884   3.380   0.931   5.037
  158DPPC   O35 7885   3.492   0.884   5.023
  158DPPC   C36 7886   3.256   0.903   4.951
  158DPPC   C37 7887   3.196   0.767   4.986
  158DPPC   C38 7888   3.263   0.645   4.923
  158DPPC   C39 7889   3.175   0.521   4.910
  158DPPC   C40 7890   3.246   0.436   4.804
  158DPPC   C41 7891   3.269   0.515   4.675
  158DPPC   C42 7892   3.343   0.419   4.582
  158DPPC   C43 7893   3.381   0.488   4.451
  158DPPC   C44 7894   3.486   0.595   4.482
  158DPPC   C45 7895   3.570   0.638   4.362
  158DPPC   C46 7896   3.652   0.758   4.411
  158DPPC   C47 7897   3.744   0.813   4.302
  158DPPC   C48 7898   3.828   0.932   4.348
  158DPPC   C49 7899   3.928   0.977   4.241
  158DPPC   C50 7900   4.023   0.861   4.211
  159DPPC    C1 7901   3.531   8.224   4.856
  159DPPC    C2 7902   3.449   7.998   4.842
  159DPPC    C3 7903   3.610   8.053   5.001
  159DPPC    N4 7904   3.490   8.106   4.934
  159DPPC    C5 7905   3.372   8.130   5.018
  159DPPC    C6 7906   3.340   8.260   5.092
  159DPPC    O7 7907   3.277   8.361   5.012
  159DPPC    P8 7908   3.283   8.502   5.089
  159DPPC    O9 7909   3.282   8.465   5.232
  159DPPC   O10 7910   3.178   8.584   5.025
  159DPPC   O11 7911   3.429   8.540   5.031
  159DPPC   C12 7912   3.436   8.653   4.943
  159DPPC   C13 7913   3.577   8.685   4.891
  159DPPC   O14 7914   3.604   8.822   4.860
  159DPPC   C15 7915   3.617   8.923   4.951
  159DPPC   O16 7916   3.597   8.898   5.070
  159DPPC   C17 7917   3.637   9.064   4.897
  159DPPC   C18 7918   3.760   9.083   4.808
  159DPPC   C19 7919   3.781   9.227   4.763
  159DPPC   C20 7920   3.927   9.257   4.730
  159DPPC   C21 7921   3.946   9.402   4.686
  159DPPC   C22 7922   4.097   9.430   4.690
  159DPPC   C23 7923   4.176   9.413   4.559
  159DPPC   C24 7924   4.324   9.438   4.585
  159DPPC   C25 7925   4.403   9.439   4.454
  159DPPC   C26 7926   4.400   9.299   4.392
  159DPPC   C27 7927   4.450   9.306   4.248
  159DPPC   C28 7928   4.416   9.169   4.189
  159DPPC   C29 7929   4.498   9.130   4.066
  159DPPC   C30 7930   4.485   9.231   3.951
  159DPPC   C31 7931   4.351   9.245   3.879
  159DPPC   C32 7932   3.603   8.588   4.775
  159DPPC   O33 7933   3.513   8.600   4.665
  159DPPC   C34 7934   3.548   8.520   4.561
  159DPPC   O35 7935   3.644   8.443   4.562
  159DPPC   C36 7936   3.455   8.541   4.441
  159DPPC   C37 7937   3.536   8.592   4.322
  159DPPC   C38 7938   3.438   8.673   4.237
  159DPPC   C39 7939   3.511   8.728   4.114
  159DPPC   C40 7940   3.420   8.735   3.991
  159DPPC   C41 7941   3.502   8.798   3.878
  159DPPC   C42 7942   3.604   8.704   3.815
  159DPPC   C43 7943   3.664   8.784   3.699
  159DPPC   C44 7944   3.766   8.699   3.624
  159DPPC   C45 7945   3.813   8.763   3.493
  159DPPC   C46 7946   3.697   8.813   3.408
  159DPPC   C47 7947   3.762   8.924   3.325
  159DPPC   C48 7948   3.895   8.869   3.272
  159DPPC   C49 7949   3.963   8.990   3.209
  159DPPC   C50 7950   3.883   9.050   3.093
  160DPPC    C1 7951   1.026   3.457   5.735
  160DPPC    C2 7952   0.931   3.359   5.542
  160DPPC    C3 7953   1.029   3.562   5.516
  160DPPC    N4 7954   1.046   3.436   5.591
  160DPPC    C5 7955   1.170   3.361   5.564
  160DPPC    C6 7956   1.305   3.418   5.608
  160DPPC    O7 7957   1.420   3.349   5.560
  160DPPC    P8 7958   1.559   3.426   5.587
  160DPPC    O9 7959   1.662   3.326   5.626
  160DPPC   O10 7960   1.516   3.540   5.671
  160DPPC   O11 7961   1.572   3.471   5.433
  160DPPC   C12 7962   1.614   3.356   5.359
  160DPPC   C13 7963   1.635   3.372   5.208
  160DPPC   O14 7964   1.767   3.335   5.167
  160DPPC   C15 7965   1.782   3.215   5.104
  160DPPC   O16 7966   1.719   3.122   5.154
  160DPPC   C17 7967   1.912   3.203   5.024
  160DPPC   C18 7968   1.884   3.139   4.888
  160DPPC   C19 7969   2.018   3.141   4.815
  160DPPC   C20 7970   2.024   3.048   4.694
  160DPPC   C21 7971   2.033   2.900   4.731
  160DPPC   C22 7972   2.024   2.815   4.603
  160DPPC   C23 7973   1.895   2.844   4.525
  160DPPC   C24 7974   1.857   2.722   4.441
  160DPPC   C25 7975   1.726   2.742   4.366
  160DPPC   C26 7976   1.690   2.640   4.257
  160DPPC   C27 7977   1.785   2.637   4.137
  160DPPC   C28 7978   1.725   2.548   4.028
  160DPPC   C29 7979   1.826   2.562   3.914
  160DPPC   C30 7980   1.766   2.481   3.799
  160DPPC   C31 7981   1.846   2.458   3.670
  160DPPC   C32 7982   1.590   3.517   5.184
  160DPPC   O33 7983   1.570   3.559   5.049
  160DPPC   C34 7984   1.587   3.694   5.048
  160DPPC   O35 7985   1.622   3.753   5.150
  160DPPC   C36 7986   1.554   3.765   4.916
  160DPPC   C37 7987   1.543   3.658   4.808
  160DPPC   C38 7988   1.521   3.714   4.667
  160DPPC   C39 7989   1.467   3.601   4.579
  160DPPC   C40 7990   1.457   3.633   4.430
  160DPPC   C41 7991   1.372   3.528   4.358
  160DPPC   C42 7992   1.328   3.575   4.219
  160DPPC   C43 7993   1.242   3.472   4.147
  160DPPC   C44 7994   1.164   3.532   4.029
  160DPPC   C45 7995   1.214   3.487   3.891
  160DPPC   C46 7996   1.136   3.536   3.769
  160DPPC   C47 7997   1.196   3.467   3.647
  160DPPC   C48 7998   1.130   3.524   3.522
  160DPPC   C49 7999   1.180   3.466   3.389
  160DPPC   C50 8000   1.332   3.480   3.376
  161DPPC    C1 8001   4.675   5.647   5.737
  161DPPC    C2 8002   4.452   5.588   5.764
  161DPPC    C3 8003   4.546   5.783   5.886
  161DPPC    N4 8004   4.542   5.704   5.762
  161DPPC    C5 8005   4.528   5.783   5.639
  161DPPC    C6 8006   4.422   5.894   5.641
  161DPPC    O7 8007   4.429   5.963   5.516
  161DPPC    P8 8008   4.287   6.033   5.486
  161DPPC    O9 8009   4.293   6.180   5.489
  161DPPC   O10 8010   4.182   5.949   5.548
  161DPPC   O11 8011   4.304   6.005   5.329
  161DPPC   C12 8012   4.397   6.092   5.263
  161DPPC   C13 8013   4.431   6.041   5.123
  161DPPC   O14 8014   4.344   6.071   5.013
  161DPPC   C15 8015   4.313   6.199   4.981
  161DPPC   O16 8016   4.335   6.297   5.053
  161DPPC   C17 8017   4.227   6.229   4.858
  161DPPC   C18 8018   4.204   6.379   4.834
  161DPPC   C19 8019   4.132   6.396   4.700
  161DPPC   C20 8020   4.003   6.315   4.707
  161DPPC   C21 8021   3.948   6.316   4.564
  161DPPC   C22 8022   4.059   6.262   4.474
  161DPPC   C23 8023   4.012   6.198   4.344
  161DPPC   C24 8024   4.116   6.108   4.277
  161DPPC   C25 8025   4.069   6.072   4.136
  161DPPC   C26 8026   4.175   5.991   4.060
  161DPPC   C27 8027   4.106   5.936   3.935
  161DPPC   C28 8028   4.096   6.027   3.812
  161DPPC   C29 8029   4.066   5.946   3.686
  161DPPC   C30 8030   3.939   5.866   3.715
  161DPPC   C31 8031   3.815   5.952   3.688
  161DPPC   C32 8032   4.465   5.894   5.150
  161DPPC   O33 8033   4.557   5.824   5.066
  161DPPC   C34 8034   4.564   5.690   5.089
  161DPPC   O35 8035   4.499   5.638   5.180
  161DPPC   C36 8036   4.637   5.604   4.985
  161DPPC   C37 8037   4.594   5.646   4.844
  161DPPC   C38 8038   4.702   5.600   4.746
  161DPPC   C39 8039   4.673   5.669   4.613
  161DPPC   C40 8040   4.758   5.616   4.498
  161DPPC   C41 8041   4.750   5.694   4.366
  161DPPC   C42 8042   4.860   5.636   4.276
  161DPPC   C43 8043   4.858   5.697   4.136
  161DPPC   C44 8044   4.973   5.643   4.050
  161DPPC   C45 8045   5.101   5.720   4.080
  161DPPC   C46 8046   5.205   5.676   3.978
  161DPPC   C47 8047   5.340   5.747   3.996
  161DPPC   C48 8048   5.441   5.681   3.903
  161DPPC   C49 8049   5.583   5.731   3.933
  161DPPC   C50 8050   5.579   5.883   3.930
  162DPPC    C1 8051   6.206   6.092   5.160
  162DPPC    C2 8052   6.439   6.054   5.189
  162DPPC    C3 8053   6.318   6.150   5.370
  162DPPC    N4 8054   6.310   6.056   5.258
  162DPPC    C5 8055   6.299   5.922   5.318
  162DPPC    C6 8056   6.248   5.808   5.230
  162DPPC    O7 8057   6.324   5.777   5.113
  162DPPC    P8 8058   6.252   5.659   5.029
  162DPPC    O9 8059   6.138   5.747   4.994
  162DPPC   O10 8060   6.250   5.545   5.123
  162DPPC   O11 8061   6.371   5.654   4.920
  162DPPC   C12 8062   6.344   5.766   4.835
  162DPPC   C13 8063   6.456   5.810   4.741
  162DPPC   O14 8064   6.433   5.763   4.608
  162DPPC   C15 8065   6.343   5.836   4.536
  162DPPC   O16 8066   6.262   5.910   4.590
  162DPPC   C17 8067   6.356   5.838   4.384
  162DPPC   C18 8068   6.474   5.751   4.339
  162DPPC   C19 8069   6.503   5.772   4.190
  162DPPC   C20 8070   6.384   5.747   4.097
  162DPPC   C21 8071   6.423   5.757   3.950
  162DPPC   C22 8072   6.450   5.903   3.912
  162DPPC   C23 8073   6.495   5.904   3.766
  162DPPC   C24 8074   6.500   6.045   3.707
  162DPPC   C25 8075   6.583   6.055   3.579
  162DPPC   C26 8076   6.718   5.985   3.601
  162DPPC   C27 8077   6.787   6.009   3.466
  162DPPC   C28 8078   6.714   5.934   3.355
  162DPPC   C29 8079   6.686   5.784   3.372
  162DPPC   C30 8080   6.547   5.756   3.315
  162DPPC   C31 8081   6.542   5.761   3.162
  162DPPC   C32 8082   6.583   5.756   4.807
  162DPPC   O33 8083   6.703   5.810   4.751
  162DPPC   C34 8084   6.819   5.740   4.771
  162DPPC   O35 8085   6.813   5.646   4.850
  162DPPC   C36 8086   6.942   5.794   4.699
  162DPPC   C37 8087   6.982   5.710   4.577
  162DPPC   C38 8088   6.896   5.740   4.454
  162DPPC   C39 8089   6.961   5.678   4.330
  162DPPC   C40 8090   6.880   5.693   4.201
  162DPPC   C41 8091   6.960   5.642   4.081
  162DPPC   C42 8092   6.871   5.647   3.956
  162DPPC   C43 8093   6.941   5.594   3.831
  162DPPC   C44 8094   6.875   5.610   3.694
  162DPPC   C45 8095   6.964   5.563   3.578
  162DPPC   C46 8096   7.075   5.662   3.540
  162DPPC   C47 8097   7.159   5.604   3.427
  162DPPC   C48 8098   7.275   5.699   3.398
  162DPPC   C49 8099   7.227   5.790   3.284
  162DPPC   C50 8100   7.342   5.889   3.264
  163DPPC    C1 8101   6.183   5.054   1.317
  163DPPC    C2 8102   6.166   5.124   1.545
  163DPPC    C3 8103   6.012   4.966   1.444
  163DPPC    N4 8104   6.152   5.009   1.454
  163DPPC    C5 8105   6.247   4.906   1.496
  163DPPC    C6 8106   6.229   4.821   1.622
  163DPPC    O7 8107   6.343   4.741   1.655
  163DPPC    P8 8108   6.294   4.624   1.755
  163DPPC    O9 8109   6.407   4.540   1.801
  163DPPC   O10 8110   6.176   4.554   1.700
  163DPPC   O11 8111   6.230   4.714   1.872
  163DPPC   C12 8112   6.330   4.740   1.971
  163DPPC   C13 8113   6.282   4.857   2.056
  163DPPC   O14 8114   6.388   4.912   2.136
  163DPPC   C15 8115   6.487   4.983   2.076
  163DPPC   O16 8116   6.498   4.981   1.954
  163DPPC   C17 8117   6.605   5.032   2.161
  163DPPC   C18 8118   6.566   5.164   2.227
  163DPPC   C19 8119   6.685   5.213   2.310
  163DPPC   C20 8120   6.655   5.343   2.386
  163DPPC   C21 8121   6.760   5.348   2.497
  163DPPC   C22 8122   6.756   5.487   2.561
  163DPPC   C23 8123   6.619   5.537   2.606
  163DPPC   C24 8124   6.646   5.668   2.679
  163DPPC   C25 8125   6.694   5.778   2.584
  163DPPC   C26 8126   6.711   5.907   2.666
  163DPPC   C27 8127   6.802   5.878   2.785
  163DPPC   C28 8128   6.805   5.997   2.881
  163DPPC   C29 8129   6.914   5.989   2.988
  163DPPC   C30 8130   6.954   6.126   3.044
  163DPPC   C31 8131   7.059   6.126   3.155
  163DPPC   C32 8132   6.163   4.802   2.134
  163DPPC   O33 8133   6.088   4.915   2.180
  163DPPC   C34 8134   5.978   4.873   2.248
  163DPPC   O35 8135   5.956   4.752   2.247
  163DPPC   C36 8136   5.896   4.971   2.332
  163DPPC   C37 8137   5.919   4.971   2.483
  163DPPC   C38 8138   5.827   5.075   2.546
  163DPPC   C39 8139   5.853   5.084   2.697
  163DPPC   C40 8140   5.745   5.171   2.761
  163DPPC   C41 8141   5.744   5.149   2.912
  163DPPC   C42 8142   5.644   5.248   2.972
  163DPPC   C43 8143   5.642   5.255   3.124
  163DPPC   C44 8144   5.597   5.390   3.183
  163DPPC   C45 8145   5.632   5.396   3.331
  163DPPC   C46 8146   5.606   5.541   3.372
  163DPPC   C47 8147   5.631   5.569   3.520
  163DPPC   C48 8148   5.637   5.720   3.542
  163DPPC   C49 8149   5.734   5.773   3.436
  163DPPC   C50 8150   5.750   5.923   3.411
  164DPPC    C1 8151   2.594   2.173   2.303
  164DPPC    C2 8152   2.787   2.169   2.445
  164DPPC    C3 8153   2.699   1.966   2.372
  164DPPC    N4 8154   2.722   2.105   2.330
  164DPPC    C5 8155   2.806   2.099   2.210
  164DPPC    C6 8156   2.846   2.213   2.116
  164DPPC    O7 8157   2.936   2.299   2.185
  164DPPC    P8 8158   2.967   2.417   2.079
  164DPPC    O9 8159   2.831   2.451   2.032
  164DPPC   O10 8160   3.071   2.348   2.000
  164DPPC   O11 8161   3.037   2.520   2.181
  164DPPC   C12 8162   2.950   2.540   2.293
  164DPPC   C13 8163   3.033   2.607   2.403
  164DPPC   O14 8164   2.968   2.632   2.528
  164DPPC   C15 8165   2.973   2.526   2.613
  164DPPC   O16 8166   3.011   2.412   2.585
  164DPPC   C17 8167   2.899   2.533   2.747
  164DPPC   C18 8168   2.956   2.443   2.857
  164DPPC   C19 8169   2.881   2.451   2.990
  164DPPC   C20 8170   2.759   2.359   2.988
  164DPPC   C21 8171   2.661   2.397   3.099
  164DPPC   C22 8172   2.615   2.543   3.097
  164DPPC   C23 8173   2.474   2.538   3.154
  164DPPC   C24 8174   2.508   2.529   3.302
  164DPPC   C25 8175   2.382   2.542   3.389
  164DPPC   C26 8176   2.402   2.533   3.541
  164DPPC   C27 8177   2.272   2.537   3.621
  164DPPC   C28 8178   2.281   2.516   3.772
  164DPPC   C29 8179   2.371   2.620   3.838
  164DPPC   C30 8180   2.303   2.756   3.826
  164DPPC   C31 8181   2.389   2.871   3.879
  164DPPC   C32 8182   3.097   2.727   2.333
  164DPPC   O33 8183   3.005   2.832   2.301
  164DPPC   C34 8184   3.054   2.935   2.227
  164DPPC   O35 8185   3.172   2.936   2.192
  164DPPC   C36 8186   2.971   3.063   2.220
  164DPPC   C37 8187   2.974   3.127   2.359
  164DPPC   C38 8188   2.839   3.197   2.373
  164DPPC   C39 8189   2.823   3.286   2.497
  164DPPC   C40 8190   2.803   3.181   2.607
  164DPPC   C41 8191   2.778   3.255   2.738
  164DPPC   C42 8192   2.800   3.158   2.854
  164DPPC   C43 8193   2.775   3.222   2.990
  164DPPC   C44 8194   2.797   3.115   3.098
  164DPPC   C45 8195   2.793   3.175   3.239
  164DPPC   C46 8196   2.839   3.065   3.334
  164DPPC   C47 8197   2.870   3.130   3.469
  164DPPC   C48 8198   2.901   3.030   3.580
  164DPPC   C49 8199   2.793   2.939   3.638
  164DPPC   C50 8200   2.846   2.903   3.777
  165DPPC    C1 8201   0.161   3.305   1.313
  165DPPC    C2 8202   0.342   3.427   1.438
  165DPPC    C3 8203   0.128   3.514   1.415
  165DPPC    N4 8204   0.201   3.387   1.428
  165DPPC    C5 8205   0.152   3.312   1.545
  165DPPC    C6 8206   0.215   3.175   1.571
  165DPPC    O7 8207   0.136   3.065   1.524
  165DPPC    P8 8208   0.220   2.930   1.500
  165DPPC    O9 8209   0.324   2.986   1.410
  165DPPC   O10 8210   0.117   2.828   1.468
  165DPPC   O11 8211   0.272   2.915   1.651
  165DPPC   C12 8212   0.160   2.872   1.730
  165DPPC   C13 8213   0.163   2.924   1.874
  165DPPC   O14 8214   0.159   3.066   1.895
  165DPPC   C15 8215   0.038   3.121   1.925
  165DPPC   O16 8216  -0.069   3.066   1.900
  165DPPC   C17 8217   0.045   3.271   1.953
  165DPPC   C18 8218   0.116   3.308   2.083
  165DPPC   C19 8219   0.034   3.277   2.209
  165DPPC   C20 8220   0.092   3.325   2.342
  165DPPC   C21 8221  -0.009   3.316   2.456
  165DPPC   C22 8222   0.045   3.321   2.599
  165DPPC   C23 8223  -0.071   3.303   2.697
  165DPPC   C24 8224   0.006   3.304   2.829
  165DPPC   C25 8225  -0.083   3.242   2.936
  165DPPC   C26 8226  -0.033   3.310   3.064
  165DPPC   C27 8227  -0.095   3.230   3.179
  165DPPC   C28 8228  -0.248   3.221   3.169
  165DPPC   C29 8229  -0.311   3.165   3.297
  165DPPC   C30 8230  -0.375   3.273   3.384
  165DPPC   C31 8231  -0.433   3.202   3.507
  165DPPC   C32 8232   0.292   2.865   1.933
  165DPPC   O33 8233   0.288   2.812   2.066
  165DPPC   C34 8234   0.244   2.685   2.082
  165DPPC   O35 8235   0.262   2.605   1.990
  165DPPC   C36 8236   0.253   2.640   2.228
  165DPPC   C37 8237   0.200   2.499   2.253
  165DPPC   C38 8238   0.241   2.476   2.399
  165DPPC   C39 8239   0.113   2.437   2.474
  165DPPC   C40 8240   0.131   2.450   2.625
  165DPPC   C41 8241   0.008   2.409   2.706
  165DPPC   C42 8242   0.025   2.440   2.855
  165DPPC   C43 8243  -0.093   2.410   2.947
  165DPPC   C44 8244  -0.081   2.504   3.067
  165DPPC   C45 8245  -0.194   2.466   3.163
  165DPPC   C46 8246  -0.185   2.555   3.287
  165DPPC   C47 8247  -0.291   2.503   3.383
  165DPPC   C48 8248  -0.269   2.361   3.436
  165DPPC   C49 8249  -0.375   2.300   3.528
  165DPPC   C50 8250  -0.320   2.172   3.591
  166DPPC    C1 8251   2.324   3.359   1.317
  166DPPC    C2 8252   2.547   3.385   1.416
  166DPPC    C3 8253   2.369   3.287   1.539
  166DPPC    N4 8254   2.426   3.301   1.404
  166DPPC    C5 8255   2.482   3.173   1.356
  166DPPC    C6 8256   2.422   3.037   1.390
  166DPPC    O7 8257   2.294   3.031   1.326
  166DPPC    P8 8258   2.214   2.897   1.364
  166DPPC    O9 8259   2.306   2.782   1.346
  166DPPC   O10 8260   2.082   2.899   1.298
  166DPPC   O11 8261   2.184   2.940   1.517
  166DPPC   C12 8262   2.090   2.843   1.564
  166DPPC   C13 8263   2.030   2.875   1.701
  166DPPC   O14 8264   1.913   2.799   1.735
  166DPPC   C15 8265   1.922   2.669   1.772
  166DPPC   O16 8266   2.028   2.607   1.784
  166DPPC   C17 8267   1.794   2.618   1.839
  166DPPC   C18 8268   1.824   2.581   1.984
  166DPPC   C19 8269   1.707   2.507   2.048
  166DPPC   C20 8270   1.721   2.526   2.199
  166DPPC   C21 8271   1.650   2.423   2.287
  166DPPC   C22 8272   1.679   2.448   2.435
  166DPPC   C23 8273   1.653   2.591   2.485
  166DPPC   C24 8274   1.651   2.592   2.638
  166DPPC   C25 8275   1.697   2.731   2.682
  166DPPC   C26 8276   1.717   2.736   2.834
  166DPPC   C27 8277   1.586   2.691   2.899
  166DPPC   C28 8278   1.608   2.683   3.050
  166DPPC   C29 8279   1.492   2.598   3.100
  166DPPC   C30 8280   1.475   2.600   3.252
  166DPPC   C31 8281   1.363   2.499   3.280
  166DPPC   C32 8282   2.018   3.028   1.697
  166DPPC   O33 8283   1.984   3.097   1.817
  166DPPC   C34 8284   1.992   3.233   1.808
  166DPPC   O35 8285   2.062   3.292   1.726
  166DPPC   C36 8286   1.915   3.317   1.910
  166DPPC   C37 8287   2.008   3.351   2.027
  166DPPC   C38 8288   1.948   3.441   2.134
  166DPPC   C39 8289   2.056   3.447   2.243
  166DPPC   C40 8290   1.995   3.545   2.344
  166DPPC   C41 8291   2.079   3.543   2.472
  166DPPC   C42 8292   1.978   3.527   2.586
  166DPPC   C43 8293   2.035   3.532   2.728
  166DPPC   C44 8294   1.927   3.485   2.826
  166DPPC   C45 8295   1.895   3.595   2.928
  166DPPC   C46 8296   1.869   3.732   2.866
  166DPPC   C47 8297   1.849   3.833   2.979
  166DPPC   C48 8298   1.970   3.855   3.071
  166DPPC   C49 8299   1.937   3.955   3.183
  166DPPC   C50 8300   2.055   3.966   3.279
  167DPPC    C1 8301   2.293   2.255   1.452
  167DPPC    C2 8302   2.469   2.113   1.530
  167DPPC    C3 8303   2.445   2.337   1.604
  167DPPC    N4 8304   2.370   2.215   1.570
  167DPPC    C5 8305   2.287   2.172   1.684
  167DPPC    C6 8306   2.185   2.059   1.671
  167DPPC    O7 8307   2.254   1.936   1.692
  167DPPC    P8 8308   2.147   1.822   1.654
  167DPPC    O9 8309   2.232   1.704   1.628
  167DPPC   O10 8310   2.067   1.888   1.548
  167DPPC   O11 8311   2.085   1.851   1.800
  167DPPC   C12 8312   2.157   1.801   1.913
  167DPPC   C13 8313   2.085   1.836   2.043
  167DPPC   O14 8314   1.970   1.756   2.072
  167DPPC   C15 8315   1.990   1.628   2.114
  167DPPC   O16 8316   2.085   1.562   2.074
  167DPPC   C17 8317   1.887   1.580   2.216
  167DPPC   C18 8318   1.941   1.597   2.358
  167DPPC   C19 8319   1.858   1.542   2.475
  167DPPC   C20 8320   1.909   1.583   2.613
  167DPPC   C21 8321   2.057   1.550   2.632
  167DPPC   C22 8322   2.114   1.636   2.745
  167DPPC   C23 8323   2.252   1.568   2.742
  167DPPC   C24 8324   2.331   1.665   2.829
  167DPPC   C25 8325   2.447   1.597   2.902
  167DPPC   C26 8326   2.388   1.513   3.015
  167DPPC   C27 8327   2.487   1.437   3.104
  167DPPC   C28 8328   2.443   1.302   3.161
  167DPPC   C29 8329   2.563   1.248   3.239
  167DPPC   C30 8330   2.523   1.127   3.323
  167DPPC   C31 8331   2.404   1.170   3.408
  167DPPC   C32 8332   2.072   1.988   2.028
  167DPPC   O33 8333   2.074   2.059   2.152
  167DPPC   C34 8334   2.007   2.178   2.154
  167DPPC   O35 8335   1.932   2.219   2.066
  167DPPC   C36 8336   2.006   2.255   2.286
  167DPPC   C37 8337   2.120   2.356   2.296
  167DPPC   C38 8338   2.086   2.456   2.406
  167DPPC   C39 8339   2.070   2.387   2.541
  167DPPC   C40 8340   2.068   2.502   2.642
  167DPPC   C41 8341   2.072   2.466   2.791
  167DPPC   C42 8342   2.068   2.593   2.877
  167DPPC   C43 8343   2.027   2.559   3.021
  167DPPC   C44 8344   2.004   2.681   3.111
  167DPPC   C45 8345   1.974   2.645   3.257
  167DPPC   C46 8346   1.973   2.776   3.335
  167DPPC   C47 8347   1.906   2.764   3.472
  167DPPC   C48 8348   1.942   2.891   3.550
  167DPPC   C49 8349   1.869   2.884   3.684
  167DPPC   C50 8350   1.928   2.978   3.788
  168DPPC    C1 8351   2.802   7.968   1.410
  168DPPC    C2 8352   2.581   7.929   1.332
  168DPPC    C3 8353   2.643   7.874   1.555
  168DPPC    N4 8354   2.660   7.973   1.448
  168DPPC    C5 8355   2.627   8.109   1.490
  168DPPC    C6 8356   2.692   8.183   1.607
  168DPPC    O7 8357   2.661   8.323   1.614
  168DPPC    P8 8358   2.749   8.392   1.729
  168DPPC    O9 8359   2.732   8.539   1.731
  168DPPC   O10 8360   2.878   8.324   1.703
  168DPPC   O11 8361   2.706   8.311   1.862
  168DPPC   C12 8362   2.584   8.364   1.916
  168DPPC   C13 8363   2.553   8.317   2.058
  168DPPC   O14 8364   2.426   8.368   2.102
  168DPPC   C15 8365   2.317   8.289   2.088
  168DPPC   O16 8366   2.303   8.228   1.982
  168DPPC   C17 8367   2.198   8.305   2.182
  168DPPC   C18 8368   2.184   8.452   2.222
  168DPPC   C19 8369   2.113   8.462   2.358
  168DPPC   C20 8370   2.090   8.611   2.383
  168DPPC   C21 8371   2.029   8.651   2.518
  168DPPC   C22 8372   1.947   8.779   2.499
  168DPPC   C23 8373   1.894   8.832   2.632
  168DPPC   C24 8374   1.777   8.752   2.690
  168DPPC   C25 8375   1.727   8.818   2.818
  168DPPC   C26 8376   1.649   8.721   2.907
  168DPPC   C27 8377   1.733   8.595   2.930
  168DPPC   C28 8378   1.683   8.481   3.020
  168DPPC   C29 8379   1.533   8.455   3.017
  168DPPC   C30 8380   1.511   8.348   3.124
  168DPPC   C31 8381   1.361   8.321   3.132
  168DPPC   C32 8382   2.674   8.365   2.137
  168DPPC   O33 8383   2.700   8.506   2.127
  168DPPC   C34 8384   2.829   8.548   2.136
  168DPPC   O35 8385   2.918   8.472   2.172
  168DPPC   C36 8386   2.841   8.699   2.118
  168DPPC   C37 8387   2.803   8.780   2.242
  168DPPC   C38 8388   2.807   8.923   2.188
  168DPPC   C39 8389   2.778   9.027   2.296
  168DPPC   C40 8390   2.862   9.004   2.421
  168DPPC   C41 8391   2.831   9.109   2.529
  168DPPC   C42 8392   2.915   9.081   2.653
  168DPPC   C43 8393   2.912   9.200   2.749
  168DPPC   C44 8394   2.998   9.179   2.874
  168DPPC   C45 8395   3.146   9.150   2.852
  168DPPC   C46 8396   3.220   9.156   2.986
  168DPPC   C47 8397   3.365   9.108   2.979
  168DPPC   C48 8398   3.431   9.208   2.884
  168DPPC   C49 8399   3.581   9.178   2.881
  168DPPC   C50 8400   3.625   9.075   2.777
  169DPPC    C1 8401   0.143   2.495   1.692
  169DPPC    C2 8402   0.361   2.437   1.676
  169DPPC    C3 8403   0.203   2.283   1.577
  169DPPC    N4 8404   0.235   2.425   1.601
  169DPPC    C5 8405   0.237   2.507   1.479
  169DPPC    C6 8406   0.331   2.482   1.361
  169DPPC    O7 8407   0.463   2.536   1.374
  169DPPC    P8 8408   0.484   2.682   1.309
  169DPPC    O9 8409   0.371   2.726   1.225
  169DPPC   O10 8410   0.618   2.661   1.249
  169DPPC   O11 8411   0.504   2.743   1.457
  169DPPC   C12 8412   0.632   2.714   1.515
  169DPPC   C13 8413   0.654   2.787   1.648
  169DPPC   O14 8414   0.602   2.726   1.766
  169DPPC   C15 8415   0.689   2.667   1.853
  169DPPC   O16 8416   0.792   2.615   1.811
  169DPPC   C17 8417   0.633   2.620   1.987
  169DPPC   C18 8418   0.700   2.492   2.037
  169DPPC   C19 8419   0.696   2.478   2.190
  169DPPC   C20 8420   0.769   2.353   2.237
  169DPPC   C21 8421   0.681   2.228   2.224
  169DPPC   C22 8422   0.566   2.247   2.323
  169DPPC   C23 8423   0.624   2.237   2.465
  169DPPC   C24 8424   0.514   2.264   2.568
  169DPPC   C25 8425   0.567   2.257   2.711
  169DPPC   C26 8426   0.460   2.272   2.819
  169DPPC   C27 8427   0.402   2.131   2.828
  169DPPC   C28 8428   0.289   2.130   2.930
  169DPPC   C29 8429   0.334   2.138   3.076
  169DPPC   C30 8430   0.213   2.138   3.169
  169DPPC   C31 8431   0.132   2.017   3.120
  169DPPC   C32 8432   0.616   2.933   1.619
  169DPPC   O33 8433   0.639   3.022   1.728
  169DPPC   C34 8434   0.596   3.151   1.717
  169DPPC   O35 8435   0.562   3.204   1.611
  169DPPC   C36 8436   0.617   3.231   1.845
  169DPPC   C37 8437   0.539   3.182   1.967
  169DPPC   C38 8438   0.540   3.301   2.063
  169DPPC   C39 8439   0.466   3.259   2.190
  169DPPC   C40 8440   0.445   3.378   2.283
  169DPPC   C41 8441   0.575   3.457   2.300
  169DPPC   C42 8442   0.656   3.406   2.419
  169DPPC   C43 8443   0.803   3.445   2.410
  169DPPC   C44 8444   0.884   3.417   2.537
  169DPPC   C45 8445   1.034   3.415   2.508
  169DPPC   C46 8446   1.083   3.553   2.464
  169DPPC   C47 8447   1.233   3.579   2.471
  169DPPC   C48 8448   1.272   3.716   2.417
  169DPPC   C49 8449   1.237   3.707   2.268
  169DPPC   C50 8450   1.217   3.836   2.188
  170DPPC    C1 8451   6.889   8.361   1.508
  170DPPC    C2 8452   7.065   8.248   1.442
  170DPPC    C3 8453   7.080   8.408   1.629
  170DPPC    N4 8454   7.006   8.296   1.568
  170DPPC    C5 8455   6.956   8.185   1.650
  170DPPC    C6 8456   7.054   8.095   1.726
  170DPPC    O7 8457   6.980   7.985   1.779
  170DPPC    P8 8458   7.067   7.850   1.768
  170DPPC    O9 8459   7.157   7.866   1.652
  170DPPC   O10 8460   6.977   7.733   1.779
  170DPPC   O11 8461   7.169   7.860   1.892
  170DPPC   C12 8462   7.082   7.829   2.001
  170DPPC   C13 8463   7.155   7.821   2.135
  170DPPC   O14 8464   7.084   7.745   2.235
  170DPPC   C15 8465   7.091   7.609   2.235
  170DPPC   O16 8466   7.127   7.547   2.135
  170DPPC   C17 8467   7.016   7.535   2.346
  170DPPC   C18 8468   6.983   7.613   2.473
  170DPPC   C19 8469   6.933   7.523   2.586
  170DPPC   C20 8470   6.874   7.606   2.701
  170DPPC   C21 8471   6.803   7.521   2.807
  170DPPC   C22 8472   6.754   7.602   2.927
  170DPPC   C23 8473   6.867   7.690   2.981
  170DPPC   C24 8474   6.810   7.783   3.088
  170DPPC   C25 8475   6.688   7.862   3.039
  170DPPC   C26 8476   6.624   7.944   3.152
  170DPPC   C27 8477   6.581   7.833   3.247
  170DPPC   C28 8478   6.505   7.890   3.367
  170DPPC   C29 8479   6.441   7.773   3.443
  170DPPC   C30 8480   6.549   7.675   3.487
  170DPPC   C31 8481   6.469   7.551   3.529
  170DPPC   C32 8482   7.194   7.961   2.182
  170DPPC   O33 8483   7.280   7.968   2.296
  170DPPC   C34 8484   7.306   8.090   2.349
  170DPPC   O35 8485   7.234   8.187   2.321
  170DPPC   C36 8486   7.426   8.104   2.442
  170DPPC   C37 8487   7.542   8.146   2.351
  170DPPC   C38 8488   7.674   8.148   2.427
  170DPPC   C39 8489   7.669   8.255   2.537
  170DPPC   C40 8490   7.803   8.276   2.608
  170DPPC   C41 8491   7.798   8.402   2.693
  170DPPC   C42 8492   7.945   8.429   2.725
  170DPPC   C43 8493   7.973   8.543   2.824
  170DPPC   C44 8494   8.118   8.530   2.870
  170DPPC   C45 8495   8.136   8.625   2.988
  170DPPC   C46 8496   8.269   8.615   3.063
  170DPPC   C47 8497   8.265   8.683   3.200
  170DPPC   C48 8498   8.388   8.630   3.274
  170DPPC   C49 8499   8.377   8.686   3.416
  170DPPC   C50 8500   8.494   8.659   3.511
  171DPPC    C1 8501   5.826   7.355   1.412
  171DPPC    C2 8502   5.762   7.150   1.341
  171DPPC    C3 8503   5.985   7.180   1.447
  171DPPC    N4 8504   5.842   7.213   1.448
  171DPPC    C5 8505   5.790   7.170   1.578
  171DPPC    C6 8506   5.670   7.247   1.633
  171DPPC    O7 8507   5.624   7.179   1.750
  171DPPC    P8 8508   5.497   7.229   1.835
  171DPPC    O9 8509   5.470   7.123   1.934
  171DPPC   O10 8510   5.395   7.248   1.729
  171DPPC   O11 8511   5.569   7.367   1.875
  171DPPC   C12 8512   5.634   7.343   2.000
  171DPPC   C13 8513   5.747   7.442   2.026
  171DPPC   O14 8514   5.841   7.402   2.127
  171DPPC   C15 8515   5.960   7.460   2.157
  171DPPC   O16 8516   6.014   7.545   2.087
  171DPPC   C17 8517   6.053   7.384   2.252
  171DPPC   C18 8518   6.181   7.464   2.275
  171DPPC   C19 8519   6.288   7.406   2.367
  171DPPC   C20 8520   6.247   7.452   2.507
  171DPPC   C21 8521   6.348   7.423   2.618
  171DPPC   C22 8522   6.304   7.501   2.742
  171DPPC   C23 8523   6.377   7.447   2.865
  171DPPC   C24 8524   6.354   7.299   2.894
  171DPPC   C25 8525   6.390   7.258   3.037
  171DPPC   C26 8526   6.280   7.284   3.140
  171DPPC   C27 8527   6.345   7.251   3.275
  171DPPC   C28 8528   6.242   7.253   3.388
  171DPPC   C29 8529   6.279   7.143   3.488
  171DPPC   C30 8530   6.153   7.091   3.556
  171DPPC   C31 8531   6.176   6.984   3.664
  171DPPC   C32 8532   5.690   7.578   2.067
  171DPPC   O33 8533   5.597   7.570   2.175
  171DPPC   C34 8534   5.544   7.688   2.217
  171DPPC   O35 8535   5.576   7.797   2.171
  171DPPC   C36 8536   5.459   7.693   2.344
  171DPPC   C37 8537   5.517   7.784   2.453
  171DPPC   C38 8538   5.426   7.786   2.576
  171DPPC   C39 8539   5.488   7.874   2.684
  171DPPC   C40 8540   5.504   8.017   2.634
  171DPPC   C41 8541   5.587   8.110   2.723
  171DPPC   C42 8542   5.572   8.252   2.670
  171DPPC   C43 8543   5.549   8.351   2.784
  171DPPC   C44 8544   5.672   8.354   2.876
  171DPPC   C45 8545   5.625   8.393   3.016
  171DPPC   C46 8546   5.509   8.301   3.057
  171DPPC   C47 8547   5.443   8.348   3.186
  171DPPC   C48 8548   5.301   8.294   3.206
  171DPPC   C49 8549   5.237   8.380   3.315
  171DPPC   C50 8550   5.087   8.362   3.294
  172DPPC    C1 8551   3.036   4.968   1.696
  172DPPC    C2 8552   3.023   4.961   1.949
  172DPPC    C3 8553   3.136   4.813   1.826
  172DPPC    N4 8554   3.104   4.956   1.826
  172DPPC    C5 8555   3.233   5.023   1.846
  172DPPC    C6 8556   3.230   5.175   1.837
  172DPPC    O7 8557   3.354   5.246   1.841
  172DPPC    P8 8558   3.325   5.394   1.784
  172DPPC    O9 8559   3.183   5.410   1.747
  172DPPC   O10 8560   3.434   5.464   1.712
  172DPPC   O11 8561   3.313   5.471   1.924
  172DPPC   C12 8562   3.447   5.444   1.967
  172DPPC   C13 8563   3.480   5.476   2.113
  172DPPC   O14 8564   3.456   5.365   2.200
  172DPPC   C15 8565   3.566   5.342   2.277
  172DPPC   O16 8566   3.675   5.336   2.220
  172DPPC   C17 8567   3.545   5.244   2.393
  172DPPC   C18 8568   3.500   5.313   2.521
  172DPPC   C19 8569   3.596   5.421   2.572
  172DPPC   C20 8570   3.555   5.472   2.710
  172DPPC   C21 8571   3.642   5.589   2.754
  172DPPC   C22 8572   3.598   5.651   2.887
  172DPPC   C23 8573   3.677   5.778   2.917
  172DPPC   C24 8574   3.599   5.861   3.019
  172DPPC   C25 8575   3.689   5.983   3.042
  172DPPC   C26 8576   3.634   6.069   3.155
  172DPPC   C27 8577   3.689   6.211   3.140
  172DPPC   C28 8578   3.642   6.293   3.261
  172DPPC   C29 8579   3.656   6.213   3.391
  172DPPC   C30 8580   3.672   6.292   3.521
  172DPPC   C31 8581   3.549   6.384   3.529
  172DPPC   C32 8582   3.404   5.606   2.143
  172DPPC   O33 8583   3.406   5.643   2.281
  172DPPC   C34 8584   3.327   5.741   2.332
  172DPPC   O35 8585   3.285   5.826   2.254
  172DPPC   C36 8586   3.325   5.773   2.482
  172DPPC   C37 8587   3.263   5.665   2.571
  172DPPC   C38 8588   3.244   5.715   2.715
  172DPPC   C39 8589   3.157   5.629   2.806
  172DPPC   C40 8590   3.159   5.682   2.949
  172DPPC   C41 8591   3.085   5.590   3.046
  172DPPC   C42 8592   3.105   5.628   3.193
  172DPPC   C43 8593   3.250   5.589   3.223
  172DPPC   C44 8594   3.298   5.656   3.352
  172DPPC   C45 8595   3.265   5.576   3.478
  172DPPC   C46 8596   3.311   5.652   3.603
  172DPPC   C47 8597   3.460   5.684   3.590
  172DPPC   C48 8598   3.515   5.761   3.710
  172DPPC   C49 8599   3.525   5.672   3.834
  172DPPC   C50 8600   3.616   5.549   3.818
  173DPPC    C1 8601   6.108   1.966   2.263
  173DPPC    C2 8602   5.975   1.981   2.072
  173DPPC    C3 8603   5.983   2.173   2.223
  173DPPC    N4 8604   6.059   2.062   2.163
  173DPPC    C5 8605   6.184   2.113   2.106
  173DPPC    C6 8606   6.187   2.219   1.995
  173DPPC    O7 8607   6.309   2.273   1.944
  173DPPC    P8 8608   6.300   2.418   1.875
  173DPPC    O9 8609   6.178   2.394   1.794
  173DPPC   O10 8610   6.426   2.474   1.822
  173DPPC   O11 8611   6.257   2.497   2.009
  173DPPC   C12 8612   6.376   2.556   2.062
  173DPPC   C13 8613   6.355   2.631   2.194
  173DPPC   O14 8614   6.476   2.677   2.256
  173DPPC   C15 8615   6.456   2.790   2.329
  173DPPC   O16 8616   6.369   2.865   2.286
  173DPPC   C17 8617   6.582   2.851   2.392
  173DPPC   C18 8618   6.553   2.937   2.515
  173DPPC   C19 8619   6.643   2.906   2.634
  173DPPC   C20 8620   6.628   2.768   2.698
  173DPPC   C21 8621   6.723   2.756   2.818
  173DPPC   C22 8622   6.694   2.625   2.891
  173DPPC   C23 8623   6.781   2.588   3.012
  173DPPC   C24 8624   6.726   2.681   3.120
  173DPPC   C25 8625   6.797   2.658   3.254
  173DPPC   C26 8626   6.706   2.735   3.350
  173DPPC   C27 8627   6.775   2.755   3.485
  173DPPC   C28 8628   6.804   2.627   3.564
  173DPPC   C29 8629   6.855   2.674   3.701
  173DPPC   C30 8630   6.745   2.758   3.765
  173DPPC   C31 8631   6.781   2.814   3.903
  173DPPC   C32 8632   6.300   2.512   2.273
  173DPPC   O33 8633   6.263   2.526   2.411
  173DPPC   C34 8634   6.241   2.415   2.486
  173DPPC   O35 8635   6.216   2.309   2.429
  173DPPC   C36 8636   6.207   2.436   2.634
  173DPPC   C37 8637   6.315   2.453   2.741
  173DPPC   C38 8638   6.259   2.527   2.863
  173DPPC   C39 8639   6.343   2.533   2.991
  173DPPC   C40 8640   6.296   2.637   3.092
  173DPPC   C41 8641   6.340   2.606   3.236
  173DPPC   C42 8642   6.275   2.707   3.330
  173DPPC   C43 8643   6.339   2.711   3.469
  173DPPC   C44 8644   6.326   2.568   3.522
  173DPPC   C45 8645   6.372   2.574   3.668
  173DPPC   C46 8646   6.294   2.679   3.747
  173DPPC   C47 8647   6.339   2.688   3.893
  173DPPC   C48 8648   6.292   2.822   3.951
  173DPPC   C49 8649   6.382   2.944   3.931
  173DPPC   C50 8650   6.311   3.078   3.945
  174DPPC    C1 8651   9.027   4.871   1.180
  174DPPC    C2 8652   9.173   4.813   1.340
  174DPPC    C3 8653   9.034   4.634   1.262
  174DPPC    N4 8654   9.107   4.756   1.222
  174DPPC    C5 8655   9.192   4.742   1.103
  174DPPC    C6 8656   9.280   4.617   1.102
  174DPPC    O7 8657   9.355   4.606   1.224
  174DPPC    P8 8658   9.425   4.462   1.204
  174DPPC    O9 8659   9.511   4.467   1.083
  174DPPC   O10 8660   9.310   4.369   1.205
  174DPPC   O11 8661   9.511   4.470   1.340
  174DPPC   C12 8662   9.427   4.433   1.450
  174DPPC   C13 8663   9.497   4.450   1.584
  174DPPC   O14 8664   9.417   4.416   1.698
  174DPPC   C15 8665   9.428   4.284   1.730
  174DPPC   O16 8666   9.477   4.201   1.653
  174DPPC   C17 8667   9.367   4.234   1.861
  174DPPC   C18 8668   9.361   4.340   1.971
  174DPPC   C19 8669   9.302   4.278   2.098
  174DPPC   C20 8670   9.294   4.374   2.217
  174DPPC   C21 8671   9.210   4.328   2.336
  174DPPC   C22 8672   9.211   4.418   2.460
  174DPPC   C23 8673   9.150   4.335   2.573
  174DPPC   C24 8674   9.151   4.400   2.712
  174DPPC   C25 8675   9.139   4.293   2.821
  174DPPC   C26 8676   9.113   4.347   2.962
  174DPPC   C27 8677   9.074   4.236   3.060
  174DPPC   C28 8678   8.945   4.167   3.015
  174DPPC   C29 8679   8.911   4.073   3.131
  174DPPC   C30 8680   8.792   3.982   3.098
  174DPPC   C31 8681   8.708   3.950   3.221
  174DPPC   C32 8682   9.566   4.587   1.585
  174DPPC   O33 8683   9.479   4.697   1.558
  174DPPC   C34 8684   9.541   4.818   1.564
  174DPPC   O35 8685   9.664   4.823   1.558
  174DPPC   C36 8686   9.445   4.937   1.559
  174DPPC   C37 8687   9.485   5.037   1.667
  174DPPC   C38 8688   9.391   5.158   1.664
  174DPPC   C39 8689   9.402   5.260   1.777
  174DPPC   C40 8690   9.393   5.198   1.917
  174DPPC   C41 8691   9.376   5.308   2.023
  174DPPC   C42 8692   9.358   5.239   2.158
  174DPPC   C43 8693   9.388   5.338   2.271
  174DPPC   C44 8694   9.352   5.275   2.406
  174DPPC   C45 8695   9.391   5.371   2.519
  174DPPC   C46 8696   9.333   5.327   2.654
  174DPPC   C47 8697   9.375   5.436   2.753
  174DPPC   C48 8698   9.303   5.403   2.884
  174DPPC   C49 8699   9.153   5.414   2.854
  174DPPC   C50 8700   9.060   5.367   2.966
  175DPPC    C1 8701   3.796   1.703   1.963
  175DPPC    C2 8702   3.986   1.819   2.040
  175DPPC    C3 8703   3.780   1.913   2.079
  175DPPC    N4 8704   3.848   1.783   2.075
  175DPPC    C5 8705   3.856   1.718   2.207
  175DPPC    C6 8706   3.725   1.649   2.249
  175DPPC    O7 8707   3.612   1.734   2.267
  175DPPC    P8 8708   3.474   1.653   2.286
  175DPPC    O9 8709   3.514   1.513   2.312
  175DPPC   O10 8710   3.374   1.705   2.189
  175DPPC   O11 8711   3.453   1.724   2.429
  175DPPC   C12 8712   3.486   1.629   2.531
  175DPPC   C13 8713   3.510   1.695   2.667
  175DPPC   O14 8714   3.593   1.627   2.762
  175DPPC   C15 8715   3.726   1.612   2.739
  175DPPC   O16 8716   3.786   1.680   2.656
  175DPPC   C17 8717   3.796   1.533   2.850
  175DPPC   C18 8718   3.780   1.617   2.977
  175DPPC   C19 8719   3.829   1.561   3.111
  175DPPC   C20 8720   3.842   1.671   3.217
  175DPPC   C21 8721   3.880   1.620   3.356
  175DPPC   C22 8722   4.012   1.545   3.374
  175DPPC   C23 8723   4.039   1.512   3.521
  175DPPC   C24 8724   4.051   1.626   3.622
  175DPPC   C25 8725   4.071   1.582   3.767
  175DPPC   C26 8726   4.099   1.708   3.850
  175DPPC   C27 8727   4.142   1.667   3.991
  175DPPC   C28 8728   4.211   1.781   4.067
  175DPPC   C29 8729   4.230   1.756   4.217
  175DPPC   C30 8730   4.322   1.634   4.220
  175DPPC   C31 8731   4.460   1.657   4.159
  175DPPC   C32 8732   3.375   1.752   2.712
  175DPPC   O33 8733   3.281   1.645   2.723
  175DPPC   C34 8734   3.165   1.664   2.792
  175DPPC   O35 8735   3.092   1.750   2.742
  175DPPC   C36 8736   3.110   1.526   2.829
  175DPPC   C37 8737   2.970   1.549   2.886
  175DPPC   C38 8738   2.905   1.414   2.919
  175DPPC   C39 8739   2.990   1.323   3.008
  175DPPC   C40 8740   2.913   1.192   3.022
  175DPPC   C41 8741   2.994   1.098   3.112
  175DPPC   C42 8742   3.019   1.163   3.248
  175DPPC   C43 8743   3.131   1.096   3.327
  175DPPC   C44 8744   3.188   1.173   3.446
  175DPPC   C45 8745   3.302   1.077   3.480
  175DPPC   C46 8746   3.390   1.133   3.591
  175DPPC   C47 8747   3.324   1.170   3.724
  175DPPC   C48 8748   3.440   1.170   3.824
  175DPPC   C49 8749   3.391   1.218   3.961
  175DPPC   C50 8750   3.485   1.190   4.078
  176DPPC    C1 8751   8.368   4.696   1.240
  176DPPC    C2 8752   8.437   4.723   1.009
  176DPPC    C3 8753   8.204   4.702   1.073
  176DPPC    N4 8754   8.336   4.757   1.110
  176DPPC    C5 8755   8.321   4.903   1.121
  176DPPC    C6 8756   8.451   4.984   1.133
  176DPPC    O7 8757   8.495   4.999   1.268
  176DPPC    P8 8758   8.651   5.038   1.277
  176DPPC    O9 8759   8.660   5.170   1.342
  176DPPC   O10 8760   8.707   5.030   1.140
  176DPPC   O11 8761   8.702   4.911   1.362
  176DPPC   C12 8762   8.631   4.889   1.485
  176DPPC   C13 8763   8.695   4.785   1.577
  176DPPC   O14 8764   8.613   4.752   1.690
  176DPPC   C15 8765   8.639   4.630   1.746
  176DPPC   O16 8766   8.698   4.545   1.681
  176DPPC   C17 8767   8.562   4.596   1.874
  176DPPC   C18 8768   8.421   4.538   1.858
  176DPPC   C19 8769   8.357   4.514   1.995
  176DPPC   C20 8770   8.212   4.465   2.005
  176DPPC   C21 8771   8.187   4.405   2.144
  176DPPC   C22 8772   8.044   4.353   2.153
  176DPPC   C23 8773   8.008   4.293   2.290
  176DPPC   C24 8774   7.975   4.405   2.389
  176DPPC   C25 8775   7.949   4.356   2.532
  176DPPC   C26 8776   7.877   4.457   2.621
  176DPPC   C27 8777   7.857   4.411   2.766
  176DPPC   C28 8778   7.778   4.516   2.844
  176DPPC   C29 8779   7.795   4.486   2.993
  176DPPC   C30 8780   7.946   4.506   3.004
  176DPPC   C31 8781   8.000   4.433   3.128
  176DPPC   C32 8782   8.838   4.830   1.605
  176DPPC   O33 8783   8.842   4.961   1.664
  176DPPC   C34 8784   8.966   5.011   1.691
  176DPPC   O35 8785   9.065   4.945   1.660
  176DPPC   C36 8786   8.956   5.134   1.781
  176DPPC   C37 8787   8.952   5.103   1.931
  176DPPC   C38 8788   8.966   5.238   2.000
  176DPPC   C39 8789   8.936   5.222   2.149
  176DPPC   C40 8790   8.970   5.345   2.234
  176DPPC   C41 8791   8.918   5.332   2.377
  176DPPC   C42 8792   8.905   5.463   2.454
  176DPPC   C43 8793   8.850   5.428   2.592
  176DPPC   C44 8794   8.814   5.565   2.650
  176DPPC   C45 8795   8.753   5.555   2.790
  176DPPC   C46 8796   8.627   5.468   2.796
  176DPPC   C47 8797   8.501   5.545   2.758
  176DPPC   C48 8798   8.378   5.454   2.748
  176DPPC   C49 8799   8.280   5.532   2.660
  176DPPC   C50 8800   8.240   5.652   2.746
  177DPPC    C1 8801   9.210   2.550   1.672
  177DPPC    C2 8802   9.021   2.555   1.519
  177DPPC    C3 8803   9.015   2.632   1.741
  177DPPC    N4 8804   9.098   2.629   1.619
  177DPPC    C5 8805   9.152   2.759   1.577
  177DPPC    C6 8806   9.090   2.831   1.458
  177DPPC    O7 8807   8.958   2.878   1.489
  177DPPC    P8 8808   8.970   3.035   1.523
  177DPPC    O9 8809   8.890   3.122   1.434
  177DPPC   O10 8810   9.107   3.064   1.571
  177DPPC   O11 8811   8.886   3.029   1.660
  177DPPC   C12 8812   8.970   3.034   1.776
  177DPPC   C13 8813   8.907   3.065   1.912
  177DPPC   O14 8814   8.852   2.949   1.975
  177DPPC   C15 8815   8.924   2.862   2.051
  177DPPC   O16 8816   9.047   2.855   2.049
  177DPPC   C17 8817   8.844   2.754   2.124
  177DPPC   C18 8818   8.824   2.789   2.272
  177DPPC   C19 8819   8.741   2.692   2.357
  177DPPC   C20 8820   8.714   2.749   2.496
  177DPPC   C21 8821   8.622   2.651   2.570
  177DPPC   C22 8822   8.635   2.656   2.722
  177DPPC   C23 8823   8.547   2.552   2.791
  177DPPC   C24 8824   8.534   2.557   2.944
  177DPPC   C25 8825   8.485   2.692   2.996
  177DPPC   C26 8826   8.450   2.683   3.145
  177DPPC   C27 8827   8.347   2.576   3.180
  177DPPC   C28 8828   8.326   2.558   3.330
  177DPPC   C29 8829   8.208   2.462   3.345
  177DPPC   C30 8830   8.193   2.436   3.495
  177DPPC   C31 8831   8.063   2.370   3.543
  177DPPC   C32 8832   8.802   3.175   1.895
  177DPPC   O33 8833   8.720   3.205   2.008
  177DPPC   C34 8834   8.617   3.129   2.052
  177DPPC   O35 8835   8.573   3.032   1.989
  177DPPC   C36 8836   8.540   3.174   2.176
  177DPPC   C37 8837   8.637   3.233   2.279
  177DPPC   C38 8838   8.559   3.287   2.400
  177DPPC   C39 8839   8.664   3.344   2.496
  177DPPC   C40 8840   8.757   3.231   2.540
  177DPPC   C41 8841   8.848   3.285   2.651
  177DPPC   C42 8842   8.957   3.178   2.660
  177DPPC   C43 8843   8.898   3.055   2.730
  177DPPC   C44 8844   8.998   2.949   2.773
  177DPPC   C45 8845   8.946   2.827   2.850
  177DPPC   C46 8846   9.054   2.755   2.930
  177DPPC   C47 8847   9.013   2.662   3.045
  177DPPC   C48 8848   8.911   2.555   3.007
  177DPPC   C49 8849   8.837   2.486   3.121
  177DPPC   C50 8850   8.922   2.382   3.194
  178DPPC    C1 8851   8.061   2.189   1.823
  178DPPC    C2 8852   8.163   2.402   1.884
  178DPPC    C3 8853   8.239   2.189   1.973
  178DPPC    N4 8854   8.185   2.259   1.856
  178DPPC    C5 8855   8.272   2.245   1.738
  178DPPC    C6 8856   8.423   2.254   1.762
  178DPPC    O7 8857   8.469   2.386   1.788
  178DPPC    P8 8858   8.618   2.388   1.849
  178DPPC    O9 8859   8.656   2.530   1.870
  178DPPC   O10 8860   8.707   2.312   1.759
  178DPPC   O11 8861   8.573   2.312   1.984
  178DPPC   C12 8862   8.536   2.398   2.092
  178DPPC   C13 8863   8.501   2.317   2.217
  178DPPC   O14 8864   8.472   2.396   2.333
  178DPPC   C15 8865   8.339   2.417   2.355
  178DPPC   O16 8866   8.262   2.417   2.259
  178DPPC   C17 8867   8.289   2.442   2.497
  178DPPC   C18 8868   8.137   2.433   2.510
  178DPPC   C19 8869   8.114   2.468   2.658
  178DPPC   C20 8870   8.155   2.613   2.687
  178DPPC   C21 8871   8.116   2.625   2.835
  178DPPC   C22 8872   8.094   2.773   2.867
  178DPPC   C23 8873   8.067   2.781   3.018
  178DPPC   C24 8874   8.055   2.930   3.052
  178DPPC   C25 8875   8.118   2.962   3.187
  178DPPC   C26 8876   8.151   3.110   3.205
  178DPPC   C27 8877   8.178   3.159   3.347
  178DPPC   C28 8878   8.311   3.096   3.390
  178DPPC   C29 8879   8.355   3.146   3.527
  178DPPC   C30 8880   8.493   3.085   3.551
  178DPPC   C31 8881   8.550   3.128   3.687
  178DPPC   C32 8882   8.624   2.229   2.238
  178DPPC   O33 8883   8.615   2.116   2.326
  178DPPC   C34 8884   8.544   2.002   2.308
  178DPPC   O35 8885   8.495   1.976   2.199
  178DPPC   C36 8886   8.538   1.912   2.432
  178DPPC   C37 8887   8.429   1.959   2.529
  178DPPC   C38 8888   8.435   1.888   2.665
  178DPPC   C39 8889   8.310   1.937   2.738
  178DPPC   C40 8890   8.291   1.866   2.872
  178DPPC   C41 8891   8.170   1.929   2.941
  178DPPC   C42 8892   8.153   1.851   3.071
  178DPPC   C43 8893   8.026   1.908   3.133
  178DPPC   C44 8894   7.996   1.854   3.273
  178DPPC   C45 8895   7.892   1.951   3.329
  178DPPC   C46 8896   7.809   1.894   3.445
  178DPPC   C47 8897   7.722   1.777   3.397
  178DPPC   C48 8898   7.640   1.717   3.511
  178DPPC   C49 8899   7.536   1.813   3.569
  178DPPC   C50 8900   7.401   1.741   3.580
  179DPPC    C1 8901   5.328   6.370   1.989
  179DPPC    C2 8902   5.445   6.270   2.171
  179DPPC    C3 8903   5.217   6.265   2.165
  179DPPC    N4 8904   5.334   6.252   2.076
  179DPPC    C5 8905   5.357   6.118   2.021
  179DPPC    C6 8906   5.237   6.061   1.944
  179DPPC    O7 8907   5.204   6.116   1.816
  179DPPC    P8 8908   5.045   6.110   1.794
  179DPPC    O9 8909   4.991   5.976   1.828
  179DPPC   O10 8910   5.002   6.191   1.678
  179DPPC   O11 8911   5.003   6.196   1.924
  179DPPC   C12 8912   4.887   6.279   1.916
  179DPPC   C13 8913   4.832   6.343   2.044
  179DPPC   O14 8914   4.922   6.441   2.098
  179DPPC   C15 8915   4.868   6.530   2.185
  179DPPC   O16 8916   4.760   6.583   2.157
  179DPPC   C17 8917   4.951   6.574   2.305
  179DPPC   C18 8918   4.919   6.493   2.430
  179DPPC   C19 8919   5.010   6.515   2.552
  179DPPC   C20 8920   5.156   6.503   2.508
  179DPPC   C21 8921   5.258   6.504   2.622
  179DPPC   C22 8922   5.239   6.365   2.684
  179DPPC   C23 8923   5.321   6.348   2.812
  179DPPC   C24 8924   5.257   6.439   2.917
  179DPPC   C25 8925   5.329   6.428   3.051
  179DPPC   C26 8926   5.321   6.285   3.107
  179DPPC   C27 8927   5.399   6.289   3.239
  179DPPC   C28 8928   5.367   6.171   3.331
  179DPPC   C29 8929   5.420   6.203   3.471
  179DPPC   C30 8930   5.419   6.081   3.564
  179DPPC   C31 8931   5.280   6.064   3.625
  179DPPC   C32 8932   4.802   6.213   2.119
  179DPPC   O33 8933   4.794   6.214   2.261
  179DPPC   C34 8934   4.764   6.101   2.331
  179DPPC   O35 8935   4.753   5.997   2.267
  179DPPC   C36 8936   4.773   6.101   2.484
  179DPPC   C37 8937   4.906   6.100   2.560
  179DPPC   C38 8938   4.882   6.092   2.711
  179DPPC   C39 8939   5.012   6.060   2.785
  179DPPC   C40 8940   5.003   6.082   2.936
  179DPPC   C41 8941   4.881   5.997   2.970
  179DPPC   C42 8942   4.861   5.969   3.119
  179DPPC   C43 8943   4.738   5.885   3.152
  179DPPC   C44 8944   4.694   5.905   3.297
  179DPPC   C45 8945   4.577   5.812   3.331
  179DPPC   C46 8946   4.524   5.827   3.474
  179DPPC   C47 8947   4.387   5.760   3.479
  179DPPC   C48 8948   4.396   5.608   3.459
  179DPPC   C49 8949   4.293   5.529   3.539
  179DPPC   C50 8950   4.146   5.570   3.530
  180DPPC    C1 8951   6.028   2.595   1.355
  180DPPC    C2 8952   6.251   2.578   1.424
  180DPPC    C3 8953   6.140   2.791   1.421
  180DPPC    N4 8954   6.125   2.648   1.452
  180DPPC    C5 8955   6.072   2.643   1.589
  180DPPC    C6 8956   6.150   2.716   1.697
  180DPPC    O7 8957   6.066   2.732   1.812
  180DPPC    P8 8958   6.139   2.827   1.920
  180DPPC    O9 8959   6.058   2.951   1.921
  180DPPC   O10 8960   6.286   2.828   1.903
  180DPPC   O11 8961   6.104   2.740   2.051
  180DPPC   C12 8962   6.000   2.809   2.121
  180DPPC   C13 8963   5.984   2.740   2.256
  180DPPC   O14 8964   5.848   2.708   2.287
  180DPPC   C15 8965   5.817   2.588   2.345
  180DPPC   O16 8966   5.840   2.487   2.278
  180DPPC   C17 8967   5.734   2.577   2.473
  180DPPC   C18 8968   5.807   2.476   2.562
  180DPPC   C19 8969   5.783   2.474   2.713
  180DPPC   C20 8970   5.848   2.349   2.772
  180DPPC   C21 8971   5.825   2.329   2.922
  180DPPC   C22 8972   5.884   2.192   2.958
  180DPPC   C23 8973   6.037   2.191   2.943
  180DPPC   C24 8974   6.083   2.047   2.965
  180DPPC   C25 8975   6.215   2.024   2.892
  180DPPC   C26 8976   6.310   2.128   2.951
  180DPPC   C27 8977   6.449   2.111   2.889
  180DPPC   C28 8978   6.555   2.204   2.951
  180DPPC   C29 8979   6.547   2.193   3.103
  180DPPC   C30 8980   6.630   2.301   3.172
  180DPPC   C31 8981   6.633   2.273   3.323
  180DPPC   C32 8982   6.077   2.818   2.349
  180DPPC   O33 8983   6.037   2.833   2.486
  180DPPC   C34 8984   6.104   2.924   2.563
  180DPPC   O35 8985   6.160   3.018   2.509
  180DPPC   C36 8986   6.065   2.932   2.711
  180DPPC   C37 8987   5.918   2.902   2.740
  180DPPC   C38 8988   5.887   2.927   2.887
  180DPPC   C39 8989   5.751   2.874   2.930
  180DPPC   C40 8990   5.727   2.888   3.080
  180DPPC   C41 8991   5.607   2.819   3.146
  180DPPC   C42 8992   5.616   2.820   3.299
  180DPPC   C43 8993   5.483   2.764   3.349
  180DPPC   C44 8994   5.463   2.770   3.501
  180DPPC   C45 8995   5.328   2.709   3.534
  180DPPC   C46 8996   5.227   2.797   3.461
  180DPPC   C47 8997   5.202   2.919   3.550
  180DPPC   C48 8998   5.084   3.001   3.498
  180DPPC   C49 8999   5.003   3.059   3.614
  180DPPC   C50 9000   5.093   3.118   3.723
  181DPPC    C1 9001   5.691   5.828   1.542
  181DPPC    C2 9002   5.851   5.792   1.727
  181DPPC    C3 9003   5.638   5.897   1.750
  181DPPC    N4 9004   5.712   5.790   1.682
  181DPPC    C5 9005   5.649   5.662   1.720
  181DPPC    C6 9006   5.670   5.529   1.649
  181DPPC    O7 9007   5.640   5.414   1.729
  181DPPC    P8 9008   5.722   5.282   1.688
  181DPPC    O9 9009   5.802   5.326   1.572
  181DPPC   O10 9010   5.622   5.175   1.666
  181DPPC   O11 9011   5.801   5.264   1.828
  181DPPC   C12 9012   5.704   5.268   1.933
  181DPPC   C13 9013   5.761   5.246   2.074
  181DPPC   O14 9014   5.671   5.297   2.174
  181DPPC   C15 9015   5.581   5.210   2.227
  181DPPC   O16 9016   5.573   5.091   2.200
  181DPPC   C17 9017   5.537   5.269   2.361
  181DPPC   C18 9018   5.402   5.337   2.341
  181DPPC   C19 9019   5.364   5.425   2.460
  181DPPC   C20 9020   5.304   5.342   2.574
  181DPPC   C21 9021   5.320   5.416   2.707
  181DPPC   C22 9022   5.252   5.349   2.826
  181DPPC   C23 9023   5.258   5.443   2.947
  181DPPC   C24 9024   5.224   5.376   3.081
  181DPPC   C25 9025   5.085   5.312   3.081
  181DPPC   C26 9026   4.974   5.416   3.094
  181DPPC   C27 9027   4.842   5.362   3.041
  181DPPC   C28 9028   4.721   5.436   3.100
  181DPPC   C29 9029   4.597   5.391   3.024
  181DPPC   C30 9030   4.476   5.479   3.058
  181DPPC   C31 9031   4.493   5.616   2.990
  181DPPC   C32 9032   5.902   5.305   2.084
  181DPPC   O33 9033   5.979   5.246   2.189
  181DPPC   C34 9034   6.113   5.267   2.191
  181DPPC   O35 9035   6.161   5.355   2.119
  181DPPC   C36 9036   6.194   5.187   2.293
  181DPPC   C37 9037   6.213   5.281   2.412
  181DPPC   C38 9038   6.267   5.221   2.542
  181DPPC   C39 9039   6.259   5.320   2.659
  181DPPC   C40 9040   6.324   5.258   2.783
  181DPPC   C41 9041   6.475   5.231   2.775
  181DPPC   C42 9042   6.522   5.169   2.907
  181DPPC   C43 9043   6.669   5.125   2.912
  181DPPC   C44 9044   6.686   5.017   3.019
  181DPPC   C45 9045   6.593   4.896   3.005
  181DPPC   C46 9046   6.649   4.770   3.071
  181DPPC   C47 9047   6.672   4.805   3.218
  181DPPC   C48 9048   6.750   4.702   3.300
  181DPPC   C49 9049   6.698   4.559   3.294
  181DPPC   C50 9050   6.784   4.452   3.360
  182DPPC    C1 9051   8.130   0.538   1.455
  182DPPC    C2 9052   8.351   0.631   1.432
  182DPPC    C3 9053   8.227   0.592   1.240
  182DPPC    N4 9054   8.214   0.633   1.380
  182DPPC    C5 9055   8.165   0.772   1.390
  182DPPC    C6 9056   8.021   0.805   1.351
  182DPPC    O7 9057   8.002   0.946   1.335
  182DPPC    P8 9058   7.861   0.958   1.258
  182DPPC    O9 9059   7.854   0.839   1.171
  182DPPC   O10 9060   7.846   1.099   1.216
  182DPPC   O11 9061   7.790   0.917   1.396
  182DPPC   C12 9062   7.777   1.036   1.474
  182DPPC   C13 9063   7.715   0.993   1.608
  182DPPC   O14 9064   7.685   1.109   1.686
  182DPPC   C15 9065   7.569   1.179   1.671
  182DPPC   O16 9066   7.481   1.150   1.591
  182DPPC   C17 9067   7.549   1.304   1.758
  182DPPC   C18 9068   7.432   1.288   1.855
  182DPPC   C19 9069   7.401   1.426   1.913
  182DPPC   C20 9070   7.296   1.417   2.023
  182DPPC   C21 9071   7.245   1.554   2.070
  182DPPC   C22 9072   7.146   1.533   2.185
  182DPPC   C23 9073   7.205   1.470   2.311
  182DPPC   C24 9074   7.097   1.446   2.416
  182DPPC   C25 9075   7.164   1.409   2.549
  182DPPC   C26 9076   7.067   1.396   2.667
  182DPPC   C27 9077   7.133   1.392   2.805
  182DPPC   C28 9078   7.048   1.333   2.917
  182DPPC   C29 9079   7.126   1.344   3.048
  182DPPC   C30 9080   7.042   1.266   3.150
  182DPPC   C31 9081   7.095   1.265   3.293
  182DPPC   C32 9082   7.814   0.889   1.662
  182DPPC   O33 9083   7.934   0.959   1.694
  182DPPC   C34 9084   8.038   0.884   1.739
  182DPPC   O35 9085   8.045   0.762   1.728
  182DPPC   C36 9086   8.135   0.970   1.820
  182DPPC   C37 9087   8.091   1.007   1.962
  182DPPC   C38 9088   8.193   1.097   2.032
  182DPPC   C39 9089   8.163   1.111   2.181
  182DPPC   C40 9090   8.274   1.195   2.244
  182DPPC   C41 9091   8.241   1.234   2.388
  182DPPC   C42 9092   8.146   1.354   2.382
  182DPPC   C43 9093   8.119   1.427   2.514
  182DPPC   C44 9094   8.054   1.560   2.475
  182DPPC   C45 9095   8.014   1.639   2.600
  182DPPC   C46 9096   7.888   1.566   2.646
  182DPPC   C47 9097   7.833   1.636   2.770
  182DPPC   C48 9098   7.700   1.574   2.816
  182DPPC   C49 9099   7.654   1.622   2.954
  182DPPC   C50 9100   7.752   1.597   3.068
  183DPPC    C1 9101   7.579   3.472   1.814
  183DPPC    C2 9102   7.612   3.663   1.691
  183DPPC    C3 9103   7.517   3.464   1.585
  183DPPC    N4 9104   7.519   3.550   1.705
  183DPPC    C5 9105   7.388   3.609   1.734
  183DPPC    C6 9106   7.259   3.527   1.738
  183DPPC    O7 9107   7.246   3.418   1.829
  183DPPC    P8 9108   7.106   3.339   1.827
  183DPPC    O9 9109   7.117   3.234   1.931
  183DPPC   O10 9110   7.072   3.314   1.686
  183DPPC   O11 9111   7.022   3.461   1.890
  183DPPC   C12 9112   6.995   3.433   2.028
  183DPPC   C13 9113   7.072   3.532   2.116
  183DPPC   O14 9114   7.088   3.477   2.247
  183DPPC   C15 9115   7.192   3.539   2.311
  183DPPC   O16 9116   7.296   3.573   2.255
  183DPPC   C17 9117   7.189   3.520   2.462
  183DPPC   C18 9118   7.300   3.429   2.516
  183DPPC   C19 9119   7.274   3.409   2.665
  183DPPC   C20 9120   7.370   3.323   2.748
  183DPPC   C21 9121   7.309   3.328   2.889
  183DPPC   C22 9122   7.406   3.252   2.980
  183DPPC   C23 9123   7.350   3.268   3.121
  183DPPC   C24 9124   7.440   3.222   3.236
  183DPPC   C25 9125   7.361   3.208   3.366
  183DPPC   C26 9126   7.432   3.158   3.492
  183DPPC   C27 9127   7.561   3.235   3.524
  183DPPC   C28 9128   7.619   3.202   3.662
  183DPPC   C29 9129   7.519   3.193   3.777
  183DPPC   C30 9130   7.591   3.139   3.901
  183DPPC   C31 9131   7.656   3.002   3.883
  183DPPC   C32 9132   6.997   3.664   2.102
  183DPPC   O33 9133   7.061   3.776   2.165
  183DPPC   C34 9134   7.169   3.831   2.104
  183DPPC   O35 9135   7.227   3.777   2.010
  183DPPC   C36 9136   7.230   3.954   2.171
  183DPPC   C37 9137   7.321   3.916   2.288
  183DPPC   C38 9138   7.233   3.903   2.412
  183DPPC   C39 9139   7.326   3.885   2.532
  183DPPC   C40 9140   7.235   3.873   2.655
  183DPPC   C41 9141   7.284   3.768   2.755
  183DPPC   C42 9142   7.418   3.824   2.805
  183DPPC   C43 9143   7.477   3.749   2.924
  183DPPC   C44 9144   7.377   3.757   3.040
  183DPPC   C45 9145   7.427   3.707   3.176
  183DPPC   C46 9146   7.326   3.743   3.285
  183DPPC   C47 9147   7.201   3.661   3.254
  183DPPC   C48 9148   7.091   3.673   3.359
  183DPPC   C49 9149   6.998   3.553   3.340
  183DPPC   C50 9150   6.917   3.568   3.211
  184DPPC    C1 9151   1.702   1.705   1.658
  184DPPC    C2 9152   1.492   1.732   1.766
  184DPPC    C3 9153   1.686   1.702   1.888
  184DPPC    N4 9154   1.634   1.772   1.769
  184DPPC    C5 9155   1.660   1.915   1.788
  184DPPC    C6 9156   1.604   2.001   1.674
  184DPPC    O7 9157   1.650   2.136   1.686
  184DPPC    P8 9158   1.577   2.201   1.559
  184DPPC    O9 9159   1.540   2.109   1.449
  184DPPC   O10 9160   1.628   2.340   1.551
  184DPPC   O11 9161   1.448   2.222   1.653
  184DPPC   C12 9162   1.471   2.322   1.753
  184DPPC   C13 9163   1.360   2.335   1.858
  184DPPC   O14 9164   1.378   2.455   1.935
  184DPPC   C15 9165   1.267   2.531   1.958
  184DPPC   O16 9166   1.173   2.509   1.882
  184DPPC   C17 9167   1.287   2.653   2.048
  184DPPC   C18 9168   1.318   2.600   2.188
  184DPPC   C19 9169   1.187   2.549   2.248
  184DPPC   C20 9170   1.204   2.528   2.399
  184DPPC   C21 9171   1.075   2.490   2.472
  184DPPC   C22 9172   1.097   2.505   2.622
  184DPPC   C23 9173   0.972   2.437   2.679
  184DPPC   C24 9174   0.952   2.485   2.823
  184DPPC   C25 9175   0.842   2.427   2.911
  184DPPC   C26 9176   0.829   2.483   3.053
  184DPPC   C27 9177   0.700   2.420   3.105
  184DPPC   C28 9178   0.668   2.446   3.253
  184DPPC   C29 9179   0.774   2.373   3.336
  184DPPC   C30 9180   0.748   2.222   3.330
  184DPPC   C31 9181   0.853   2.159   3.421
  184DPPC   C32 9182   1.349   2.199   1.927
  184DPPC   O33 9183   1.472   2.170   1.993
  184DPPC   C34 9184   1.481   2.051   2.059
  184DPPC   O35 9185   1.443   1.951   1.998
  184DPPC   C36 9186   1.606   2.039   2.147
  184DPPC   C37 9187   1.596   1.944   2.267
  184DPPC   C38 9188   1.722   1.958   2.353
  184DPPC   C39 9189   1.698   1.890   2.488
  184DPPC   C40 9190   1.828   1.919   2.563
  184DPPC   C41 9191   1.845   2.071   2.556
  184DPPC   C42 9192   1.762   2.139   2.665
  184DPPC   C43 9193   1.801   2.071   2.797
  184DPPC   C44 9194   1.763   2.151   2.922
  184DPPC   C45 9195   1.828   2.080   3.041
  184DPPC   C46 9196   1.807   1.930   3.019
  184DPPC   C47 9197   1.886   1.840   3.113
  184DPPC   C48 9198   1.860   1.691   3.093
  184DPPC   C49 9199   1.923   1.612   3.208
  184DPPC   C50 9200   1.874   1.467   3.211
  185DPPC    C1 9201   6.658   7.194   1.561
  185DPPC    C2 9202   6.608   7.281   1.796
  185DPPC    C3 9203   6.482   7.340   1.606
  185DPPC    N4 9204   6.562   7.233   1.666
  185DPPC    C5 9205   6.462   7.128   1.689
  185DPPC    C6 9206   6.495   6.982   1.719
  185DPPC    O7 9207   6.603   6.976   1.812
  185DPPC    P8 9208   6.709   6.862   1.771
  185DPPC    O9 9209   6.834   6.904   1.839
  185DPPC   O10 9210   6.705   6.848   1.624
  185DPPC   O11 9211   6.648   6.745   1.864
  185DPPC   C12 9212   6.663   6.786   2.000
  185DPPC   C13 9213   6.567   6.702   2.085
  185DPPC   O14 9214   6.558   6.727   2.226
  185DPPC   C15 9215   6.446   6.680   2.287
  185DPPC   O16 9216   6.355   6.628   2.222
  185DPPC   C17 9217   6.431   6.715   2.435
  185DPPC   C18 9218   6.296   6.781   2.462
  185DPPC   C19 9219   6.247   6.755   2.605
  185DPPC   C20 9220   6.329   6.820   2.717
  185DPPC   C21 9221   6.280   6.791   2.859
  185DPPC   C22 9222   6.375   6.862   2.955
  185DPPC   C23 9223   6.349   6.826   3.102
  185DPPC   C24 9224   6.446   6.890   3.202
  185DPPC   C25 9225   6.435   6.822   3.339
  185DPPC   C26 9226   6.518   6.910   3.433
  185DPPC   C27 9227   6.556   6.837   3.563
  185DPPC   C28 9228   6.636   6.915   3.667
  185DPPC   C29 9229   6.690   6.817   3.772
  185DPPC   C30 9230   6.585   6.788   3.879
  185DPPC   C31 9231   6.640   6.696   3.988
  185DPPC   C32 9232   6.632   6.565   2.062
  185DPPC   O33 9233   6.774   6.558   2.075
  185DPPC   C34 9234   6.826   6.447   2.016
  185DPPC   O35 9235   6.756   6.369   1.952
  185DPPC   C36 9236   6.977   6.446   2.044
  185DPPC   C37 9237   7.027   6.343   2.145
  185DPPC   C38 9238   7.030   6.395   2.288
  185DPPC   C39 9239   7.064   6.282   2.386
  185DPPC   C40 9240   7.075   6.334   2.529
  185DPPC   C41 9241   7.113   6.227   2.631
  185DPPC   C42 9242   7.243   6.147   2.614
  185DPPC   C43 9243   7.239   6.024   2.706
  185DPPC   C44 9244   7.360   5.935   2.678
  185DPPC   C45 9245   7.364   5.820   2.778
  185DPPC   C46 9246   7.490   5.733   2.781
  185DPPC   C47 9247   7.482   5.636   2.663
  185DPPC   C48 9248   7.602   5.542   2.655
  185DPPC   C49 9249   7.738   5.612   2.651
  185DPPC   C50 9250   7.847   5.510   2.619
  186DPPC    C1 9251   6.811   2.122   1.826
  186DPPC    C2 9252   6.808   2.351   1.820
  186DPPC    C3 9253   6.615   2.234   1.736
  186DPPC    N4 9254   6.719   2.236   1.840
  186DPPC    C5 9255   6.657   2.253   1.972
  186DPPC    C6 9256   6.557   2.147   2.018
  186DPPC    O7 9257   6.611   2.015   2.032
  186DPPC    P8 9258   6.502   1.898   2.044
  186DPPC    O9 9259   6.583   1.775   2.058
  186DPPC   O10 9260   6.418   1.921   1.924
  186DPPC   O11 9261   6.447   1.947   2.187
  186DPPC   C12 9262   6.532   1.872   2.274
  186DPPC   C13 9263   6.497   1.899   2.421
  186DPPC   O14 9264   6.381   1.831   2.469
  186DPPC   C15 9265   6.388   1.695   2.476
  186DPPC   O16 9266   6.478   1.640   2.414
  186DPPC   C17 9267   6.284   1.618   2.559
  186DPPC   C18 9268   6.333   1.556   2.690
  186DPPC   C19 9269   6.338   1.646   2.813
  186DPPC   C20 9270   6.354   1.560   2.939
  186DPPC   C21 9271   6.398   1.656   3.049
  186DPPC   C22 9272   6.382   1.606   3.192
  186DPPC   C23 9273   6.413   1.706   3.304
  186DPPC   C24 9274   6.309   1.818   3.314
  186DPPC   C25 9275   6.342   1.941   3.397
  186DPPC   C26 9276   6.265   2.066   3.355
  186DPPC   C27 9277   6.297   2.174   3.458
  186DPPC   C28 9278   6.221   2.143   3.587
  186DPPC   C29 9279   6.276   2.227   3.703
  186DPPC   C30 9280   6.204   2.192   3.833
  186DPPC   C31 9281   6.263   2.267   3.953
  186DPPC   C32 9282   6.499   2.050   2.443
  186DPPC   O33 9283   6.628   2.096   2.484
  186DPPC   C34 9284   6.638   2.231   2.496
  186DPPC   O35 9285   6.538   2.302   2.498
  186DPPC   C36 9286   6.771   2.289   2.545
  186DPPC   C37 9287   6.789   2.254   2.693
  186DPPC   C38 9288   6.929   2.281   2.747
  186DPPC   C39 9289   6.931   2.213   2.884
  186DPPC   C40 9290   7.079   2.205   2.923
  186DPPC   C41 9291   7.097   2.145   3.063
  186DPPC   C42 9292   7.057   2.238   3.177
  186DPPC   C43 9293   7.059   2.173   3.315
  186DPPC   C44 9294   7.060   2.277   3.427
  186DPPC   C45 9295   7.071   2.219   3.567
  186DPPC   C46 9296   7.018   2.325   3.664
  186DPPC   C47 9297   6.979   2.281   3.805
  186DPPC   C48 9298   6.869   2.174   3.807
  186DPPC   C49 9299   6.731   2.220   3.761
  186DPPC   C50 9300   6.630   2.130   3.833
  187DPPC    C1 9301   9.261   1.212   0.693
  187DPPC    C2 9302   9.038   1.183   0.713
  187DPPC    C3 9303   9.181   1.004   0.629
  187DPPC    N4 9304   9.164   1.109   0.731
  187DPPC    C5 9305   9.191   1.074   0.871
  187DPPC    C6 9306   9.112   0.956   0.927
  187DPPC    O7 9307   8.987   1.001   0.980
  187DPPC    P8 9308   8.935   0.869   1.057
  187DPPC    O9 9309   9.022   0.752   1.035
  187DPPC   O10 9310   8.789   0.845   1.050
  187DPPC   O11 9311   8.988   0.913   1.203
  187DPPC   C12 9312   8.888   0.927   1.304
  187DPPC   C13 9313   8.928   0.951   1.449
  187DPPC   O14 9314   8.836   0.930   1.558
  187DPPC   C15 9315   8.795   0.805   1.594
  187DPPC   O16 9316   8.852   0.710   1.542
  187DPPC   C17 9317   8.690   0.786   1.704
  187DPPC   C18 9318   8.707   0.665   1.795
  187DPPC   C19 9319   8.597   0.646   1.899
  187DPPC   C20 9320   8.459   0.620   1.837
  187DPPC   C21 9321   8.370   0.592   1.958
  187DPPC   C22 9322   8.363   0.726   2.031
  187DPPC   C23 9323   8.348   0.671   2.174
  187DPPC   C24 9324   8.350   0.799   2.258
  187DPPC   C25 9325   8.359   0.779   2.410
  187DPPC   C26 9326   8.375   0.917   2.472
  187DPPC   C27 9327   8.394   0.909   2.624
  187DPPC   C28 9328   8.371   1.041   2.698
  187DPPC   C29 9329   8.390   1.009   2.846
  187DPPC   C30 9330   8.541   0.999   2.871
  187DPPC   C31 9331   8.562   0.996   3.023
  187DPPC   C32 9332   8.975   1.096   1.445
  187DPPC   O33 9333   9.053   1.148   1.553
  187DPPC   C34 9334   9.178   1.094   1.560
  187DPPC   O35 9335   9.231   1.049   1.459
  187DPPC   C36 9336   9.243   1.096   1.699
  187DPPC   C37 9337   9.288   0.958   1.748
  187DPPC   C38 9338   9.176   0.884   1.819
  187DPPC   C39 9339   9.136   0.945   1.954
  187DPPC   C40 9340   9.025   0.857   2.011
  187DPPC   C41 9341   9.075   0.713   2.016
  187DPPC   C42 9342   8.965   0.615   2.057
  187DPPC   C43 9343   8.897   0.661   2.186
  187DPPC   C44 9344   8.795   0.560   2.239
  187DPPC   C45 9345   8.725   0.619   2.361
  187DPPC   C46 9346   8.670   0.517   2.461
  187DPPC   C47 9347   8.619   0.599   2.579
  187DPPC   C48 9348   8.603   0.511   2.703
  187DPPC   C49 9349   8.551   0.601   2.815
  187DPPC   C50 9350   8.479   0.529   2.929
  188DPPC    C1 9351   7.474   2.328   1.757
  188DPPC    C2 9352   7.578   2.122   1.691
  188DPPC    C3 9353   7.348   2.166   1.633
  188DPPC    N4 9354   7.481   2.226   1.651
  188DPPC    C5 9355   7.518   2.291   1.525
  188DPPC    C6 9356   7.654   2.350   1.486
  188DPPC    O7 9357   7.766   2.263   1.500
  188DPPC    P8 9358   7.895   2.359   1.489
  188DPPC    O9 9359   7.868   2.459   1.383
  188DPPC   O10 9360   8.020   2.280   1.496
  188DPPC   O11 9361   7.878   2.440   1.628
  188DPPC   C12 9362   7.897   2.578   1.595
  188DPPC   C13 9363   7.931   2.667   1.715
  188DPPC   O14 9364   8.073   2.674   1.733
  188DPPC   C15 9365   8.122   2.797   1.764
  188DPPC   O16 9366   8.093   2.894   1.695
  188DPPC   C17 9367   8.257   2.787   1.836
  188DPPC   C18 9368   8.255   2.740   1.982
  188DPPC   C19 9369   8.183   2.835   2.079
  188DPPC   C20 9370   8.233   2.815   2.223
  188DPPC   C21 9371   8.209   2.932   2.319
  188DPPC   C22 9372   8.286   2.886   2.442
  188DPPC   C23 9373   8.267   3.001   2.541
  188DPPC   C24 9374   8.353   2.964   2.662
  188DPPC   C25 9375   8.373   3.088   2.748
  188DPPC   C26 9376   8.451   3.063   2.877
  188DPPC   C27 9377   8.454   3.194   2.957
  188DPPC   C28 9378   8.524   3.162   3.089
  188DPPC   C29 9379   8.663   3.103   3.068
  188DPPC   C30 9380   8.714   3.071   3.209
  188DPPC   C31 9381   8.726   2.919   3.224
  188DPPC   C32 9382   7.844   2.609   1.827
  188DPPC   O33 9383   7.828   2.690   1.944
  188DPPC   C34 9384   7.723   2.655   2.023
  188DPPC   O35 9385   7.639   2.576   1.979
  188DPPC   C36 9386   7.693   2.739   2.147
  188DPPC   C37 9387   7.817   2.764   2.232
  188DPPC   C38 9388   7.820   2.867   2.346
  188DPPC   C39 9389   7.713   2.821   2.446
  188DPPC   C40 9390   7.719   2.922   2.560
  188DPPC   C41 9391   7.620   2.894   2.674
  188DPPC   C42 9392   7.678   2.929   2.811
  188DPPC   C43 9393   7.586   2.892   2.928
  188DPPC   C44 9394   7.675   2.915   3.050
  188DPPC   C45 9395   7.634   2.842   3.178
  188DPPC   C46 9396   7.739   2.872   3.285
  188DPPC   C47 9397   7.720   2.800   3.418
  188DPPC   C48 9398   7.851   2.809   3.495
  188DPPC   C49 9399   7.836   2.748   3.635
  188DPPC   C50 9400   7.951   2.776   3.731
  189DPPC    C1 9401   9.015   3.657   1.338
  189DPPC    C2 9402   8.894   3.467   1.428
  189DPPC    C3 9403   8.934   3.667   1.561
  189DPPC    N4 9404   8.906   3.614   1.427
  189DPPC    C5 9405   8.773   3.653   1.380
  189DPPC    C6 9406   8.725   3.797   1.400
  189DPPC    O7 9407   8.826   3.891   1.362
  189DPPC    P8 9408   8.785   4.046   1.351
  189DPPC    O9 9409   8.640   4.046   1.322
  189DPPC   O10 9410   8.882   4.114   1.262
  189DPPC   O11 9411   8.806   4.079   1.507
  189DPPC   C12 9412   8.947   4.071   1.531
  189DPPC   C13 9413   9.004   4.147   1.650
  189DPPC   O14 9414   8.977   4.096   1.781
  189DPPC   C15 9415   9.037   3.981   1.823
  189DPPC   O16 9416   9.092   3.908   1.741
  189DPPC   C17 9417   9.001   3.939   1.965
  189DPPC   C18 9418   9.042   4.045   2.068
  189DPPC   C19 9419   8.953   4.035   2.192
  189DPPC   C20 9420   8.808   4.068   2.158
  189DPPC   C21 9421   8.740   4.123   2.284
  189DPPC   C22 9422   8.591   4.147   2.261
  189DPPC   C23 9423   8.541   4.182   2.402
  189DPPC   C24 9424   8.400   4.240   2.388
  189DPPC   C25 9425   8.350   4.301   2.519
  189DPPC   C26 9426   8.348   4.215   2.646
  189DPPC   C27 9427   8.296   4.286   2.771
  189DPPC   C28 9428   8.275   4.197   2.894
  189DPPC   C29 9429   8.405   4.180   2.971
  189DPPC   C30 9430   8.403   4.214   3.120
  189DPPC   C31 9431   8.298   4.131   3.196
  189DPPC   C32 9432   8.980   4.297   1.629
  189DPPC   O33 9433   9.065   4.383   1.705
  189DPPC   C34 9434   9.082   4.511   1.664
  189DPPC   O35 9435   9.053   4.547   1.549
  189DPPC   C36 9436   9.163   4.603   1.756
  189DPPC   C37 9437   9.071   4.675   1.855
  189DPPC   C38 9438   9.027   4.594   1.978
  189DPPC   C39 9439   8.904   4.663   2.036
  189DPPC   C40 9440   8.881   4.634   2.184
  189DPPC   C41 9441   8.761   4.704   2.249
  189DPPC   C42 9442   8.790   4.697   2.398
  189DPPC   C43 9443   8.771   4.553   2.444
  189DPPC   C44 9444   8.748   4.552   2.595
  189DPPC   C45 9445   8.720   4.415   2.658
  189DPPC   C46 9446   8.673   4.449   2.800
  189DPPC   C47 9447   8.777   4.543   2.862
  189DPPC   C48 9448   8.714   4.601   2.988
  189DPPC   C49 9449   8.647   4.491   3.070
  189DPPC   C50 9450   8.585   4.561   3.191
  190DPPC    C1 9451   5.095   7.117   1.755
  190DPPC    C2 9452   4.862   7.184   1.714
  190DPPC    C3 9453   4.965   7.220   1.928
  190DPPC    N4 9454   4.988   7.213   1.783
  190DPPC    C5 9455   5.026   7.353   1.754
  190DPPC    C6 9456   5.157   7.404   1.814
  190DPPC    O7 9457   5.135   7.498   1.919
  190DPPC    P8 9458   5.281   7.552   1.958
  190DPPC    O9 9459   5.240   7.641   2.068
  190DPPC   O10 9460   5.358   7.590   1.837
  190DPPC   O11 9461   5.322   7.409   2.018
  190DPPC   C12 9462   5.261   7.397   2.146
  190DPPC   C13 9463   5.244   7.248   2.177
  190DPPC   O14 9464   5.127   7.202   2.247
  190DPPC   C15 9465   5.098   7.071   2.228
  190DPPC   O16 9466   5.148   6.993   2.147
  190DPPC   C17 9467   4.984   7.027   2.320
  190DPPC   C18 9468   5.042   6.934   2.426
  190DPPC   C19 9469   5.156   7.002   2.502
  190DPPC   C20 9470   5.241   6.886   2.552
  190DPPC   C21 9471   5.393   6.907   2.554
  190DPPC   C22 9472   5.452   6.828   2.671
  190DPPC   C23 9473   5.600   6.863   2.693
  190DPPC   C24 9474   5.635   6.819   2.835
  190DPPC   C25 9475   5.630   6.666   2.844
  190DPPC   C26 9476   5.728   6.589   2.755
  190DPPC   C27 9477   5.683   6.443   2.759
  190DPPC   C28 9478   5.714   6.381   2.895
  190DPPC   C29 9479   5.700   6.228   2.897
  190DPPC   C30 9480   5.760   6.179   3.029
  190DPPC   C31 9481   5.719   6.036   3.062
  190DPPC   C32 9482   5.381   7.212   2.234
  190DPPC   O33 9483   5.424   7.280   2.353
  190DPPC   C34 9484   5.556   7.245   2.359
  190DPPC   O35 9485   5.585   7.134   2.317
  190DPPC   C36 9486   5.652   7.356   2.403
  190DPPC   C37 9487   5.649   7.372   2.555
  190DPPC   C38 9488   5.717   7.502   2.598
  190DPPC   C39 9489   5.868   7.483   2.613
  190DPPC   C40 9490   5.932   7.600   2.688
  190DPPC   C41 9491   5.908   7.729   2.610
  190DPPC   C42 9492   5.953   7.853   2.688
  190DPPC   C43 9493   5.868   7.865   2.815
  190DPPC   C44 9494   5.919   7.971   2.913
  190DPPC   C45 9495   5.837   7.990   3.041
  190DPPC   C46 9496   5.903   8.090   3.136
  190DPPC   C47 9497   5.826   8.115   3.266
  190DPPC   C48 9498   5.905   8.205   3.361
  190DPPC   C49 9499   5.829   8.219   3.493
  190DPPC   C50 9500   5.906   8.265   3.617
  191DPPC    C1 9501   1.046   2.206   1.379
  191DPPC    C2 9502   1.231   2.086   1.273
  191DPPC    C3 9503   1.189   2.067   1.511
  191DPPC    N4 9504   1.128   2.084   1.378
  191DPPC    C5 9505   1.048   1.969   1.333
  191DPPC    C6 9506   0.955   1.899   1.432
  191DPPC    O7 9507   0.857   1.980   1.497
  191DPPC    P8 9508   0.762   1.891   1.592
  191DPPC    O9 9509   0.866   1.811   1.662
  191DPPC   O10 9510   0.682   1.841   1.479
  191DPPC   O11 9511   0.696   2.023   1.655
  191DPPC   C12 9512   0.757   2.027   1.784
  191DPPC   C13 9513   0.771   2.169   1.838
  191DPPC   O14 9514   0.852   2.195   1.954
  191DPPC   C15 9515   0.980   2.152   1.971
  191DPPC   O16 9516   1.051   2.135   1.872
  191DPPC   C17 9517   1.040   2.164   2.112
  191DPPC   C18 9518   1.050   2.026   2.176
  191DPPC   C19 9519   1.102   2.051   2.318
  191DPPC   C20 9520   1.232   2.132   2.325
  191DPPC   C21 9521   1.287   2.090   2.462
  191DPPC   C22 9522   1.346   2.207   2.539
  191DPPC   C23 9523   1.356   2.170   2.687
  191DPPC   C24 9524   1.416   2.283   2.770
  191DPPC   C25 9525   1.379   2.257   2.916
  191DPPC   C26 9526   1.228   2.242   2.939
  191DPPC   C27 9527   1.197   2.191   3.080
  191DPPC   C28 9528   1.282   2.067   3.109
  191DPPC   C29 9529   1.236   2.014   3.245
  191DPPC   C30 9530   1.300   1.882   3.291
  191DPPC   C31 9531   1.246   1.833   3.425
  191DPPC   C32 9532   0.624   2.208   1.857
  191DPPC   O33 9533   0.548   2.127   1.947
  191DPPC   C34 9534   0.412   2.130   1.940
  191DPPC   O35 9535   0.351   2.198   1.858
  191DPPC   C36 9536   0.344   2.018   2.019
  191DPPC   C37 9537   0.268   2.061   2.144
  191DPPC   C38 9538   0.230   1.933   2.219
  191DPPC   C39 9539   0.190   1.971   2.362
  191DPPC   C40 9540   0.064   2.057   2.359
  191DPPC   C41 9541   0.017   2.054   2.504
  191DPPC   C42 9542  -0.003   1.906   2.535
  191DPPC   C43 9543  -0.024   1.882   2.685
  191DPPC   C44 9544  -0.136   1.965   2.747
  191DPPC   C45 9545  -0.170   1.874   2.865
  191DPPC   C46 9546  -0.285   1.943   2.939
  191DPPC   C47 9547  -0.255   2.063   3.029
  191DPPC   C48 9548  -0.382   2.109   3.101
  191DPPC   C49 9549  -0.434   1.984   3.172
  191DPPC   C50 9550  -0.564   1.983   3.252
  192DPPC    C1 9551   4.861   1.008   1.765
  192DPPC    C2 9552   4.851   0.769   1.772
  192DPPC    C3 9553   5.063   0.877   1.749
  192DPPC    N4 9554   4.930   0.887   1.811
  192DPPC    C5 9555   4.944   0.873   1.957
  192DPPC    C6 9556   4.997   0.977   2.055
  192DPPC    O7 9557   4.931   1.103   2.043
  192DPPC    P8 9558   5.017   1.211   2.126
  192DPPC    O9 9559   4.955   1.340   2.090
  192DPPC   O10 9560   5.157   1.178   2.092
  192DPPC   O11 9561   4.980   1.186   2.280
  192DPPC   C12 9562   4.864   1.251   2.332
  192DPPC   C13 9563   4.870   1.243   2.484
  192DPPC   O14 9564   4.749   1.288   2.546
  192DPPC   C15 9565   4.642   1.205   2.532
  192DPPC   O16 9566   4.641   1.101   2.465
  192DPPC   C17 9567   4.510   1.258   2.589
  192DPPC   C18 9568   4.526   1.382   2.677
  192DPPC   C19 9569   4.396   1.434   2.738
  192DPPC   C20 9570   4.346   1.355   2.859
  192DPPC   C21 9571   4.226   1.421   2.928
  192DPPC   C22 9572   4.172   1.324   3.033
  192DPPC   C23 9573   4.255   1.314   3.161
  192DPPC   C24 9574   4.191   1.223   3.265
  192DPPC   C25 9575   4.289   1.204   3.380
  192DPPC   C26 9576   4.424   1.176   3.312
  192DPPC   C27 9577   4.500   1.089   3.413
  192DPPC   C28 9578   4.596   1.008   3.326
  192DPPC   C29 9579   4.672   0.908   3.414
  192DPPC   C30 9580   4.762   0.825   3.321
  192DPPC   C31 9581   4.897   0.888   3.288
  192DPPC   C32 9582   5.000   1.309   2.532
  192DPPC   O33 9583   5.039   1.263   2.661
  192DPPC   C34 9584   5.167   1.290   2.699
  192DPPC   O35 9585   5.259   1.280   2.618
  192DPPC   C36 9586   5.183   1.261   2.849
  192DPPC   C37 9587   5.241   1.120   2.858
  192DPPC   C38 9588   5.256   1.110   3.010
  192DPPC   C39 9589   5.221   0.968   3.055
  192DPPC   C40 9590   5.289   0.947   3.191
  192DPPC   C41 9591   5.325   0.803   3.225
  192DPPC   C42 9592   5.382   0.796   3.367
  192DPPC   C43 9593   5.421   0.655   3.411
  192DPPC   C44 9594   5.460   0.635   3.558
  192DPPC   C45 9595   5.447   0.489   3.601
  192DPPC   C46 9596   5.525   0.407   3.497
  192DPPC   C47 9597   5.524   0.261   3.542
  192DPPC   C48 9598   5.604   0.179   3.442
  192DPPC   C49 9599   5.638   0.039   3.493
  192DPPC   C50 9600   5.517  -0.037   3.547
  193DPPC    C1 9601   5.484   5.665   6.126
  193DPPC    C2 9602   5.349   5.477   6.121
  193DPPC    C3 9603   5.307   5.666   5.987
  193DPPC    N4 9604   5.413   5.576   6.034
  193DPPC    C5 9605   5.506   5.517   5.936
  193DPPC    C6 9606   5.459   5.391   5.864
  193DPPC    O7 9607   5.527   5.373   5.739
  193DPPC    P8 9608   5.496   5.217   5.710
  193DPPC    O9 9609   5.462   5.153   5.839
  193DPPC   O10 9610   5.603   5.158   5.627
  193DPPC   O11 9611   5.368   5.229   5.613
  193DPPC   C12 9612   5.392   5.192   5.477
  193DPPC   C13 9613   5.279   5.238   5.384
  193DPPC   O14 9614   5.270   5.143   5.277
  193DPPC   C15 9615   5.185   5.037   5.290
  193DPPC   O16 9616   5.096   5.044   5.374
  193DPPC   C17 9617   5.181   4.945   5.168
  193DPPC   C18 9618   5.321   4.929   5.109
  193DPPC   C19 9619   5.315   4.814   5.010
  193DPPC   C20 9620   5.415   4.835   4.896
  193DPPC   C21 9621   5.413   4.710   4.807
  193DPPC   C22 9622   5.529   4.722   4.708
  193DPPC   C23 9623   5.531   4.594   4.623
  193DPPC   C24 9624   5.616   4.639   4.504
  193DPPC   C25 9625   5.630   4.527   4.400
  193DPPC   C26 9626   5.690   4.591   4.274
  193DPPC   C27 9627   5.833   4.638   4.301
  193DPPC   C28 9628   5.886   4.721   4.183
  193DPPC   C29 9629   5.890   4.639   4.054
  193DPPC   C30 9630   5.962   4.723   3.949
  193DPPC   C31 9631   5.870   4.826   3.883
  193DPPC   C32 9632   5.300   5.384   5.344
  193DPPC   O33 9633   5.416   5.409   5.264
  193DPPC   C34 9634   5.369   5.432   5.139
  193DPPC   O35 9635   5.260   5.483   5.117
  193DPPC   C36 9636   5.481   5.424   5.034
  193DPPC   C37 9637   5.520   5.277   5.017
  193DPPC   C38 9638   5.662   5.267   4.960
  193DPPC   C39 9639   5.667   5.118   4.929
  193DPPC   C40 9640   5.805   5.070   4.882
  193DPPC   C41 9641   5.817   4.917   4.875
  193DPPC   C42 9642   5.946   4.869   4.809
  193DPPC   C43 9643   5.981   4.725   4.847
  193DPPC   C44 9644   6.099   4.690   4.756
  193DPPC   C45 9645   6.066   4.719   4.609
  193DPPC   C46 9646   6.176   4.668   4.515
  193DPPC   C47 9647   6.193   4.516   4.528
  193DPPC   C48 9648   6.308   4.467   4.441
  193DPPC   C49 9649   6.268   4.475   4.294
  193DPPC   C50 9650   6.379   4.401   4.218
  194DPPC    C1 9651   8.056   5.452   0.998
  194DPPC    C2 9652   7.893   5.626   1.037
  194DPPC    C3 9653   7.880   5.478   0.848
  194DPPC    N4 9654   7.914   5.488   0.991
  194DPPC    C5 9655   7.813   5.404   1.057
  194DPPC    C6 9656   7.822   5.251   1.059
  194DPPC    O7 9657   7.912   5.208   1.161
  194DPPC    P8 9658   7.909   5.048   1.177
  194DPPC    O9 9659   7.935   5.005   1.037
  194DPPC   O10 9660   7.776   5.020   1.236
  194DPPC   O11 9661   8.031   5.019   1.278
  194DPPC   C12 9662   7.999   5.074   1.406
  194DPPC   C13 9663   8.076   5.197   1.455
  194DPPC   O14 9664   8.167   5.166   1.561
  194DPPC   C15 9665   8.251   5.251   1.625
  194DPPC   O16 9666   8.264   5.365   1.581
  194DPPC   C17 9667   8.342   5.204   1.739
  194DPPC   C18 9668   8.287   5.097   1.833
  194DPPC   C19 9669   8.400   5.000   1.868
  194DPPC   C20 9670   8.457   4.984   2.009
  194DPPC   C21 9671   8.350   4.913   2.091
  194DPPC   C22 9672   8.391   4.896   2.237
  194DPPC   C23 9673   8.326   4.773   2.301
  194DPPC   C24 9674   8.294   4.810   2.445
  194DPPC   C25 9675   8.212   4.699   2.510
  194DPPC   C26 9676   8.215   4.727   2.661
  194DPPC   C27 9677   8.354   4.713   2.723
  194DPPC   C28 9678   8.334   4.716   2.874
  194DPPC   C29 9679   8.243   4.823   2.936
  194DPPC   C30 9680   8.260   4.834   3.088
  194DPPC   C31 9681   8.178   4.955   3.134
  194DPPC   C32 9682   7.965   5.290   1.503
  194DPPC   O33 9683   7.881   5.250   1.612
  194DPPC   C34 9684   7.768   5.323   1.629
  194DPPC   O35 9685   7.749   5.417   1.551
  194DPPC   C36 9686   7.686   5.287   1.752
  194DPPC   C37 9687   7.550   5.356   1.754
  194DPPC   C38 9688   7.476   5.335   1.886
  194DPPC   C39 9689   7.347   5.417   1.889
  194DPPC   C40 9690   7.252   5.392   2.006
  194DPPC   C41 9691   7.187   5.253   2.003
  194DPPC   C42 9692   7.109   5.235   2.133
  194DPPC   C43 9693   7.203   5.242   2.254
  194DPPC   C44 9694   7.130   5.246   2.389
  194DPPC   C45 9695   7.241   5.280   2.488
  194DPPC   C46 9696   7.194   5.254   2.631
  194DPPC   C47 9697   7.293   5.289   2.742
  194DPPC   C48 9698   7.228   5.253   2.875
  194DPPC   C49 9699   7.329   5.281   2.986
  194DPPC   C50 9700   7.454   5.196   2.964
  195DPPC    C1 9701   2.562   3.494   5.534
  195DPPC    C2 9702   2.352   3.555   5.479
  195DPPC    C3 9703   2.484   3.508   5.298
  195DPPC    N4 9704   2.458   3.462   5.435
  195DPPC    C5 9705   2.402   3.327   5.450
  195DPPC    C6 9706   2.463   3.208   5.376
  195DPPC    O7 9707   2.588   3.165   5.431
  195DPPC    P8 9708   2.632   3.019   5.379
  195DPPC    O9 9709   2.597   3.020   5.235
  195DPPC   O10 9710   2.578   2.921   5.477
  195DPPC   O11 9711   2.792   3.031   5.386
  195DPPC   C12 9712   2.823   3.138   5.297
  195DPPC   C13 9713   2.895   3.267   5.340
  195DPPC   O14 9714   2.875   3.365   5.237
  195DPPC   C15 9715   2.906   3.497   5.252
  195DPPC   O16 9716   2.888   3.542   5.365
  195DPPC   C17 9717   2.904   3.586   5.128
  195DPPC   C18 9718   3.011   3.544   5.028
  195DPPC   C19 9719   2.997   3.635   4.906
  195DPPC   C20 9720   3.061   3.573   4.782
  195DPPC   C21 9721   2.979   3.449   4.746
  195DPPC   C22 9722   3.010   3.393   4.608
  195DPPC   C23 9723   2.962   3.503   4.513
  195DPPC   C24 9724   2.992   3.483   4.364
  195DPPC   C25 9725   2.946   3.349   4.306
  195DPPC   C26 9726   2.981   3.330   4.158
  195DPPC   C27 9727   3.132   3.346   4.141
  195DPPC   C28 9728   3.154   3.354   3.990
  195DPPC   C29 9729   3.124   3.216   3.930
  195DPPC   C30 9730   3.218   3.121   4.004
  195DPPC   C31 9731   3.210   2.978   3.950
  195DPPC   C32 9732   3.041   3.229   5.364
  195DPPC   O33 9733   3.094   3.137   5.268
  195DPPC   C34 9734   3.225   3.105   5.286
  195DPPC   O35 9735   3.284   3.152   5.382
  195DPPC   C36 9736   3.292   3.007   5.190
  195DPPC   C37 9737   3.359   3.093   5.083
  195DPPC   C38 9738   3.377   3.011   4.954
  195DPPC   C39 9739   3.242   3.000   4.883
  195DPPC   C40 9740   3.276   2.944   4.744
  195DPPC   C41 9741   3.171   2.977   4.637
  195DPPC   C42 9742   3.233   2.935   4.504
  195DPPC   C43 9743   3.139   2.952   4.384
  195DPPC   C44 9744   2.997   2.898   4.397
  195DPPC   C45 9745   2.920   2.916   4.266
  195DPPC   C46 9746   2.772   2.879   4.281
  195DPPC   C47 9747   2.673   2.933   4.178
  195DPPC   C48 9748   2.673   3.085   4.160
  195DPPC   C49 9749   2.640   3.138   4.021
  195DPPC   C50 9750   2.642   3.289   4.046
  196DPPC    C1 9751   0.696   0.069   1.585
  196DPPC    C2 9752   0.557   0.223   1.486
  196DPPC    C3 9753   0.526   0.179   1.721
  196DPPC    N4 9754   0.625   0.194   1.613
  196DPPC    C5 9755   0.728   0.298   1.627
  196DPPC    C6 9756   0.689   0.446   1.633
  196DPPC    O7 9757   0.576   0.489   1.710
  196DPPC    P8 9758   0.574   0.650   1.705
  196DPPC    O9 9759   0.439   0.701   1.672
  196DPPC   O10 9760   0.689   0.697   1.623
  196DPPC   O11 9761   0.636   0.689   1.848
  196DPPC   C12 9762   0.523   0.674   1.933
  196DPPC   C13 9763   0.558   0.648   2.080
  196DPPC   O14 9764   0.446   0.604   2.158
  196DPPC   C15 9765   0.400   0.478   2.136
  196DPPC   O16 9766   0.465   0.396   2.072
  196DPPC   C17 9767   0.264   0.433   2.191
  196DPPC   C18 9768   0.274   0.414   2.343
  196DPPC   C19 9769   0.151   0.362   2.418
  196DPPC   C20 9770   0.194   0.359   2.565
  196DPPC   C21 9771   0.097   0.297   2.665
  196DPPC   C22 9772   0.198   0.230   2.759
  196DPPC   C23 9773   0.115   0.186   2.879
  196DPPC   C24 9774   0.207   0.132   2.988
  196DPPC   C25 9775   0.114   0.072   3.094
  196DPPC   C26 9776   0.183  -0.026   3.189
  196DPPC   C27 9777   0.216  -0.162   3.126
  196DPPC   C28 9778   0.269  -0.260   3.231
  196DPPC   C29 9779   0.315  -0.395   3.174
  196DPPC   C30 9780   0.330  -0.525   3.253
  196DPPC   C31 9781   0.361  -0.642   3.160
  196DPPC   C32 9782   0.644   0.766   2.125
  196DPPC   O33 9783   0.580   0.890   2.092
  196DPPC   C34 9784   0.648   1.008   2.090
  196DPPC   O35 9785   0.765   1.000   2.125
  196DPPC   C36 9786   0.568   1.133   2.054
  196DPPC   C37 9787   0.497   1.211   2.165
  196DPPC   C38 9788   0.400   1.314   2.108
  196DPPC   C39 9789   0.322   1.375   2.225
  196DPPC   C40 9790   0.252   1.268   2.308
  196DPPC   C41 9791   0.175   1.335   2.422
  196DPPC   C42 9792   0.110   1.229   2.511
  196DPPC   C43 9793   0.037   1.298   2.627
  196DPPC   C44 9794  -0.020   1.193   2.723
  196DPPC   C45 9795  -0.046   1.242   2.866
  196DPPC   C46 9796  -0.120   1.142   2.955
  196DPPC   C47 9797  -0.166   1.205   3.087
  196DPPC   C48 9798  -0.230   1.101   3.179
  196DPPC   C49 9799  -0.131   1.053   3.285
  196DPPC   C50 9800  -0.199   0.982   3.402
  197DPPC    C1 9801   8.881   1.989   5.736
  197DPPC    C2 9802   8.930   1.753   5.752
  197DPPC    C3 9803   8.770   1.839   5.602
  197DPPC    N4 9804   8.902   1.865   5.660
  197DPPC    C5 9805   9.016   1.880   5.569
  197DPPC    C6 9806   9.056   1.761   5.480
  197DPPC    O7 9807   8.956   1.706   5.394
  197DPPC    P8 9808   9.027   1.612   5.284
  197DPPC    O9 9809   8.928   1.521   5.221
  197DPPC   O10 9810   9.161   1.570   5.332
  197DPPC   O11 9811   9.056   1.732   5.182
  197DPPC   C12 9812   8.930   1.780   5.134
  197DPPC   C13 9813   8.931   1.925   5.083
  197DPPC   O14 9814   8.804   1.981   5.048
  197DPPC   C15 9815   8.786   2.114   5.071
  197DPPC   O16 9816   8.839   2.163   5.170
  197DPPC   C17 9817   8.674   2.184   4.995
  197DPPC   C18 9818   8.723   2.218   4.854
  197DPPC   C19 9819   8.598   2.234   4.767
  197DPPC   C20 9820   8.642   2.289   4.632
  197DPPC   C21 9821   8.524   2.320   4.540
  197DPPC   C22 9822   8.565   2.343   4.394
  197DPPC   C23 9823   8.440   2.383   4.316
  197DPPC   C24 9824   8.346   2.469   4.401
  197DPPC   C25 9825   8.233   2.516   4.309
  197DPPC   C26 9826   8.200   2.390   4.227
  197DPPC   C27 9827   8.082   2.434   4.140
  197DPPC   C28 9828   8.035   2.306   4.071
  197DPPC   C29 9829   7.909   2.349   3.996
  197DPPC   C30 9830   7.837   2.222   3.949
  197DPPC   C31 9831   7.918   2.124   3.864
  197DPPC   C32 9832   9.030   1.914   4.967
  197DPPC   O33 9833   9.065   2.035   4.900
  197DPPC   C34 9834   9.163   2.030   4.805
  197DPPC   O35 9835   9.246   1.939   4.801
  197DPPC   C36 9836   9.179   2.154   4.718
  197DPPC   C37 9837   9.057   2.171   4.626
  197DPPC   C38 9838   9.066   2.277   4.516
  197DPPC   C39 9839   8.951   2.285   4.416
  197DPPC   C40 9840   8.982   2.424   4.361
  197DPPC   C41 9841   8.952   2.538   4.458
  197DPPC   C42 9842   9.001   2.675   4.410
  197DPPC   C43 9843   8.965   2.785   4.509
  197DPPC   C44 9844   9.045   2.914   4.484
  197DPPC   C45 9845   9.018   3.016   4.594
  197DPPC   C46 9846   9.132   3.117   4.611
  197DPPC   C47 9847   9.067   3.216   4.707
  197DPPC   C48 9848   9.158   3.332   4.751
  197DPPC   C49 9849   9.099   3.415   4.865
  197DPPC   C50 9850   9.081   3.331   4.991
  198DPPC    C1 9851   4.009   4.782   5.322
  198DPPC    C2 9852   3.799   4.719   5.402
  198DPPC    C3 9853   3.983   4.710   5.550
  198DPPC    N4 9854   3.923   4.788   5.441
  198DPPC    C5 9855   3.893   4.925   5.486
  198DPPC    C6 9856   3.996   5.007   5.565
  198DPPC    O7 9857   4.097   5.059   5.479
  198DPPC    P8 9858   4.234   5.053   5.565
  198DPPC    O9 9859   4.259   4.908   5.544
  198DPPC   O10 9860   4.218   5.119   5.696
  198DPPC   O11 9861   4.320   5.138   5.459
  198DPPC   C12 9862   4.372   5.049   5.360
  198DPPC   C13 9863   4.447   5.110   5.241
  198DPPC   O14 9864   4.570   5.182   5.253
  198DPPC   C15 9865   4.677   5.099   5.270
  198DPPC   O16 9866   4.672   4.986   5.317
  198DPPC   C17 9867   4.818   5.152   5.244
  198DPPC   C18 9868   4.820   5.224   5.109
  198DPPC   C19 9869   4.949   5.273   5.043
  198DPPC   C20 9870   4.925   5.321   4.899
  198DPPC   C21 9871   5.060   5.350   4.834
  198DPPC   C22 9872   5.135   5.221   4.801
  198DPPC   C23 9873   5.249   5.263   4.708
  198DPPC   C24 9874   5.327   5.152   4.638
  198DPPC   C25 9875   5.471   5.192   4.605
  198DPPC   C26 9876   5.537   5.085   4.518
  198DPPC   C27 9877   5.682   5.114   4.480
  198DPPC   C28 9878   5.715   5.037   4.352
  198DPPC   C29 9879   5.857   5.074   4.311
  198DPPC   C30 9880   5.951   5.041   4.427
  198DPPC   C31 9881   6.104   5.040   4.418
  198DPPC   C32 9882   4.334   5.180   5.165
  198DPPC   O33 9883   4.230   5.095   5.118
  198DPPC   C34 9884   4.126   5.158   5.056
  198DPPC   O35 9885   4.129   5.278   5.029
  198DPPC   C36 9886   3.999   5.081   5.022
  198DPPC   C37 9887   4.057   4.948   4.973
  198DPPC   C38 9888   4.117   4.948   4.832
  198DPPC   C39 9889   4.179   4.811   4.806
  198DPPC   C40 9890   4.238   4.811   4.665
  198DPPC   C41 9891   4.295   4.674   4.630
  198DPPC   C42 9892   4.403   4.690   4.523
  198DPPC   C43 9893   4.500   4.573   4.510
  198DPPC   C44 9894   4.601   4.597   4.398
  198DPPC   C45 9895   4.719   4.500   4.387
  198DPPC   C46 9896   4.819   4.533   4.276
  198DPPC   C47 9897   4.936   4.435   4.267
  198DPPC   C48 9898   4.897   4.290   4.240
  198DPPC   C49 9899   5.018   4.204   4.203
  198DPPC   C50 9900   4.967   4.068   4.155
  199DPPC    C1 9901   6.997   6.245   5.364
  199DPPC    C2 9902   6.950   6.468   5.299
  199DPPC    C3 9903   6.863   6.294   5.176
  199DPPC    N4 9904   6.891   6.334   5.315
  199DPPC    C5 9905   6.774   6.324   5.404
  199DPPC    C6 9906   6.665   6.430   5.393
  199DPPC    O7 9907   6.581   6.405   5.280
  199DPPC    P8 9908   6.459   6.510   5.277
  199DPPC    O9 9909   6.532   6.639   5.265
  199DPPC   O10 9910   6.366   6.472   5.385
  199DPPC   O11 9911   6.392   6.455   5.142
  199DPPC   C12 9912   6.491   6.398   5.055
  199DPPC   C13 9913   6.459   6.421   4.907
  199DPPC   O14 9914   6.548   6.361   4.812
  199DPPC   C15 9915   6.532   6.230   4.780
  199DPPC   O16 9916   6.462   6.162   4.855
  199DPPC   C17 9917   6.599   6.170   4.657
  199DPPC   C18 9918   6.555   6.221   4.519
  199DPPC   C19 9919   6.642   6.146   4.418
  199DPPC   C20 9920   6.610   6.211   4.284
  199DPPC   C21 9921   6.692   6.128   4.185
  199DPPC   C22 9922   6.687   6.188   4.045
  199DPPC   C23 9923   6.786   6.304   4.036
  199DPPC   C24 9924   6.780   6.352   3.891
  199DPPC   C25 9925   6.868   6.278   3.792
  199DPPC   C26 9926   6.867   6.359   3.662
  199DPPC   C27 9927   6.922   6.500   3.686
  199DPPC   C28 9928   6.922   6.581   3.556
  199DPPC   C29 9929   7.005   6.708   3.573
  199DPPC   C30 9930   7.035   6.789   3.446
  199DPPC   C31 9931   7.109   6.917   3.483
  199DPPC   C32 9932   6.444   6.573   4.902
  199DPPC   O33 9933   6.549   6.660   4.946
  199DPPC   C34 9934   6.515   6.792   4.939
  199DPPC   O35 9935   6.401   6.825   4.910
  199DPPC   C36 9936   6.620   6.889   4.992
  199DPPC   C37 9937   6.620   7.019   4.911
  199DPPC   C38 9938   6.535   7.130   4.972
  199DPPC   C39 9939   6.507   7.249   4.879
  199DPPC   C40 9940   6.440   7.201   4.751
  199DPPC   C41 9941   6.421   7.323   4.661
  199DPPC   C42 9942   6.559   7.379   4.625
  199DPPC   C43 9943   6.635   7.293   4.524
  199DPPC   C44 9944   6.767   7.364   4.495
  199DPPC   C45 9945   6.755   7.504   4.434
  199DPPC   C46 9946   6.891   7.546   4.379
  199DPPC   C47 9947   6.949   7.447   4.277
  199DPPC   C48 9948   7.089   7.489   4.230
  199DPPC   C49 9949   7.179   7.500   4.353
  199DPPC   C50 9950   7.324   7.538   4.319
  200DPPC    C1 9951   2.695   7.506   5.089
  200DPPC    C2 9952   2.777   7.374   5.282
  200DPPC    C3 9953   2.827   7.594   5.246
  200DPPC    N4 9954   2.716   7.499   5.234
  200DPPC    C5 9955   2.612   7.562   5.318
  200DPPC    C6 9956   2.471   7.506   5.305
  200DPPC    O7 9957   2.450   7.366   5.328
  200DPPC    P8 9958   2.300   7.314   5.306
  200DPPC    O9 9959   2.204   7.421   5.340
  200DPPC   O10 9960   2.307   7.190   5.386
  200DPPC   O11 9961   2.308   7.297   5.146
  200DPPC   C12 9962   2.389   7.180   5.128
  200DPPC   C13 9963   2.370   7.121   4.988
  200DPPC   O14 9964   2.452   7.168   4.879
  200DPPC   C15 9965   2.587   7.152   4.880
  200DPPC   O16 9966   2.657   7.146   4.981
  200DPPC   C17 9967   2.638   7.177   4.738
  200DPPC   C18 9968   2.734   7.065   4.697
  200DPPC   C19 9969   2.783   7.104   4.557
  200DPPC   C20 9970   2.892   7.008   4.510
  200DPPC   C21 9971   2.943   7.029   4.368
  200DPPC   C22 9972   2.837   7.016   4.257
  200DPPC   C23 9973   2.912   7.022   4.124
  200DPPC   C24 9974   2.827   7.019   3.996
  200DPPC   C25 9975   2.903   7.032   3.865
  200DPPC   C26 9976   2.978   7.164   3.847
  200DPPC   C27 9977   3.053   7.174   3.713
  200DPPC   C28 9978   3.152   7.290   3.706
  200DPPC   C29 9979   3.219   7.291   3.569
  200DPPC   C30 9980   3.300   7.162   3.551
  200DPPC   C31 9981   3.398   7.151   3.434
  200DPPC   C32 9982   2.218   7.109   4.980
  200DPPC   O33 9983   2.170   7.028   4.873
  200DPPC   C34 9984   2.035   7.016   4.881
  200DPPC   O35 9985   1.968   7.032   4.983
  200DPPC   C36 9986   1.980   6.943   4.758
  200DPPC   C37 9987   1.940   7.028   4.638
  200DPPC   C38 9988   1.903   6.938   4.519
  200DPPC   C39 9989   2.031   6.884   4.455
  200DPPC   C40 9990   2.012   6.772   4.352
  200DPPC   C41 9991   2.140   6.722   4.285
  200DPPC   C42 9992   2.095   6.615   4.186
  200DPPC   C43 9993   1.976   6.669   4.106
  200DPPC   C44 9994   1.904   6.558   4.030
  200DPPC   C45 9995   1.756   6.593   4.009
  200DPPC   C46 9996   1.727   6.728   3.943
  200DPPC   C47 9997   1.583   6.741   3.892
  200DPPC   C48 9998   1.552   6.888   3.866
  200DPPC   C49 9999   1.410   6.924   3.821
  200DPPC   C5010000   1.391   7.075   3.803
  201DPPC    C110001   7.846   1.443   5.716
  201DPPC    C210002   7.856   1.510   5.949
  201DPPC    C310003   7.880   1.286   5.895
  201DPPC    N410004   7.911   1.421   5.846
  201DPPC    C510005   8.057   1.433   5.859
  201DPPC    C610006   8.131   1.544   5.783
  201DPPC    O710007   8.086   1.668   5.839
  201DPPC    P810008   8.139   1.791   5.750
  201DPPC    O910009   8.281   1.758   5.723
  201DPPC   O1010010   8.105   1.928   5.794
  201DPPC   O1110011   8.052   1.756   5.619
  201DPPC   C1210012   8.122   1.815   5.509
  201DPPC   C1310013   8.047   1.842   5.378
  201DPPC   O1410014   7.948   1.946   5.375
  201DPPC   C1510015   7.987   2.076   5.388
  201DPPC   O1610016   8.079   2.105   5.463
  201DPPC   C1710017   7.895   2.176   5.318
  201DPPC   C1810018   7.917   2.175   5.166
  201DPPC   C1910019   7.835   2.287   5.101
  201DPPC   C2010020   7.687   2.251   5.116
  201DPPC   C2110021   7.597   2.357   5.052
  201DPPC   C2210022   7.453   2.311   5.031
  201DPPC   C2310023   7.372   2.423   4.967
  201DPPC   C2410024   7.410   2.437   4.819
  201DPPC   C2510025   7.318   2.540   4.753
  201DPPC   C2610026   7.341   2.541   4.602
  201DPPC   C2710027   7.225   2.604   4.524
  201DPPC   C2810028   7.228   2.564   4.376
  201DPPC   C2910029   7.102   2.585   4.292
  201DPPC   C3010030   7.110   2.528   4.150
  201DPPC   C3110031   6.993   2.431   4.133
  201DPPC   C3210032   7.993   1.702   5.346
  201DPPC   O3310033   8.103   1.613   5.327
  201DPPC   C3410034   8.069   1.484   5.350
  201DPPC   O3510035   7.955   1.457   5.389
  201DPPC   C3610036   8.177   1.380   5.321
  201DPPC   C3710037   8.233   1.396   5.179
  201DPPC   C3810038   8.313   1.275   5.131
  201DPPC   C3910039   8.372   1.296   4.991
  201DPPC   C4010040   8.261   1.345   4.899
  201DPPC   C4110041   8.312   1.394   4.763
  201DPPC   C4210042   8.198   1.479   4.705
  201DPPC   C4310043   8.221   1.552   4.573
  201DPPC   C4410044   8.089   1.614   4.527
  201DPPC   C4510045   7.971   1.519   4.504
  201DPPC   C4610046   7.848   1.597   4.458
  201DPPC   C4710047   7.722   1.510   4.455
  201DPPC   C4810048   7.605   1.605   4.428
  201DPPC   C4910049   7.476   1.541   4.479
  201DPPC   C5010050   7.487   1.509   4.628
  202DPPC    C110051   0.722   2.537   5.631
  202DPPC    C210052   0.937   2.551   5.730
  202DPPC    C310053   0.735   2.622   5.833
  202DPPC    N410054   0.797   2.514   5.755
  202DPPC    C510055   0.775   2.384   5.820
  202DPPC    C610056   0.754   2.256   5.739
  202DPPC    O710057   0.626   2.249   5.676
  202DPPC    P810058   0.597   2.110   5.601
  202DPPC    O910059   0.453   2.078   5.607
  202DPPC   O1010060   0.710   2.030   5.654
  202DPPC   O1110061   0.642   2.168   5.457
  202DPPC   C1210062   0.541   2.236   5.382
  202DPPC   C1310063   0.600   2.341   5.288
  202DPPC   O1410064   0.499   2.383   5.196
  202DPPC   C1510065   0.495   2.510   5.148
  202DPPC   O1610066   0.487   2.603   5.229
  202DPPC   C1710067   0.440   2.529   5.007
  202DPPC   C1810068   0.403   2.668   4.954
  202DPPC   C1910069   0.377   2.662   4.803
  202DPPC   C2010070   0.318   2.801   4.779
  202DPPC   C2110071   0.261   2.826   4.639
  202DPPC   C2210072   0.371   2.825   4.532
  202DPPC   C2310073   0.305   2.865   4.400
  202DPPC   C2410074   0.400   2.824   4.288
  202DPPC   C2510075   0.340   2.833   4.147
  202DPPC   C2610076   0.436   2.768   4.048
  202DPPC   C2710077   0.393   2.787   3.902
  202DPPC   C2810078   0.506   2.734   3.814
  202DPPC   C2910079   0.483   2.759   3.664
  202DPPC   C3010080   0.608   2.738   3.579
  202DPPC   C3110081   0.602   2.807   3.443
  202DPPC   C3210082   0.713   2.257   5.228
  202DPPC   O3310083   0.768   2.288   5.099
  202DPPC   C3410084   0.855   2.199   5.045
  202DPPC   O3510085   0.872   2.093   5.104
  202DPPC   C3610086   0.886   2.216   4.896
  202DPPC   C3710087   0.836   2.352   4.849
  202DPPC   C3810088   0.830   2.368   4.697
  202DPPC   C3910089   0.820   2.520   4.685
  202DPPC   C4010090   0.775   2.570   4.547
  202DPPC   C4110091   0.746   2.721   4.550
  202DPPC   C4210092   0.736   2.764   4.404
  202DPPC   C4310093   0.863   2.725   4.329
  202DPPC   C4410094   0.838   2.725   4.178
  202DPPC   C4510095   0.959   2.691   4.090
  202DPPC   C4610096   0.914   2.676   3.945
  202DPPC   C4710097   1.039   2.683   3.856
  202DPPC   C4810098   0.994   2.654   3.712
  202DPPC   C4910099   1.097   2.665   3.599
  202DPPC   C5010100   1.030   2.613   3.471
  203DPPC    C110101   1.989   7.562   4.425
  203DPPC    C210102   1.778   7.507   4.320
  203DPPC    C310103   1.895   7.349   4.459
  203DPPC    N410104   1.861   7.491   4.440
  203DPPC    C510105   1.786   7.541   4.556
  203DPPC    C610106   1.810   7.503   4.702
  203DPPC    O710107   1.932   7.556   4.755
  203DPPC    P810108   2.001   7.441   4.844
  203DPPC    O910109   1.908   7.330   4.875
  203DPPC   O1010110   2.087   7.514   4.940
  203DPPC   O1110111   2.097   7.371   4.736
  203DPPC   C1210112   2.236   7.402   4.749
  203DPPC   C1310113   2.296   7.355   4.616
  203DPPC   O1410114   2.285   7.452   4.511
  203DPPC   C1510115   2.392   7.529   4.478
  203DPPC   O1610116   2.433   7.595   4.573
  203DPPC   C1710117   2.401   7.571   4.331
  203DPPC   C1810118   2.541   7.561   4.270
  203DPPC   C1910119   2.537   7.561   4.117
  203DPPC   C2010120   2.671   7.569   4.044
  203DPPC   C2110121   2.778   7.470   4.090
  203DPPC   C2210122   2.905   7.480   4.005
  203DPPC   C2310123   2.928   7.625   3.964
  203DPPC   C2410124   3.053   7.649   3.878
  203DPPC   C2510125   3.074   7.798   3.854
  203DPPC   C2610126   3.178   7.822   3.743
  203DPPC   C2710127   3.213   7.967   3.712
  203DPPC   C2810128   3.258   8.034   3.842
  203DPPC   C2910129   3.314   8.174   3.821
  203DPPC   C3010130   3.324   8.233   3.962
  203DPPC   C3110131   3.423   8.350   3.956
  203DPPC   C3210132   2.261   7.209   4.588
  203DPPC   O3310133   2.317   7.150   4.470
  203DPPC   C3410134   2.270   7.191   4.350
  203DPPC   O3510135   2.165   7.255   4.343
  203DPPC   C3610136   2.365   7.185   4.230
  203DPPC   C3710137   2.327   7.072   4.133
  203DPPC   C3810138   2.437   7.064   4.026
  203DPPC   C3910139   2.425   6.934   3.946
  203DPPC   C4010140   2.317   6.948   3.838
  203DPPC   C4110141   2.265   6.810   3.800
  203DPPC   C4210142   2.134   6.817   3.721
  203DPPC   C4310143   2.073   6.679   3.693
  203DPPC   C4410144   1.946   6.704   3.613
  203DPPC   C4510145   1.873   6.582   3.556
  203DPPC   C4610146   1.743   6.631   3.493
  203DPPC   C4710147   1.636   6.523   3.511
  203DPPC   C4810148   1.509   6.573   3.442
  203DPPC   C4910149   1.433   6.677   3.524
  203DPPC   C5010150   1.298   6.722   3.466
  204DPPC    C110151   9.476   7.629   4.671
  204DPPC    C210152   9.666   7.607   4.522
  204DPPC    C310153   9.679   7.533   4.744
  204DPPC    N410154   9.588   7.543   4.629
  204DPPC    C510155   9.551   7.410   4.579
  204DPPC    C610156   9.431   7.347   4.650
  204DPPC    O710157   9.380   7.235   4.578
  204DPPC    P810158   9.288   7.166   4.690
  204DPPC    O910159   9.249   7.262   4.795
  204DPPC   O1010160   9.354   7.036   4.719
  204DPPC   O1110161   9.164   7.149   4.588
  204DPPC   C1210162   9.181   7.021   4.525
  204DPPC   C1310163   9.059   6.976   4.445
  204DPPC   O1410164   9.046   6.839   4.403
  204DPPC   C1510165   9.018   6.743   4.495
  204DPPC   O1610166   8.999   6.773   4.613
  204DPPC   C1710167   9.004   6.601   4.439
  204DPPC   C1810168   8.866   6.559   4.390
  204DPPC   C1910169   8.867   6.421   4.324
  204DPPC   C2010170   8.959   6.420   4.202
  204DPPC   C2110171   8.921   6.299   4.115
  204DPPC   C2210172   8.982   6.333   3.979
  204DPPC   C2310173   8.886   6.296   3.865
  204DPPC   C2410174   8.954   6.349   3.738
  204DPPC   C2510175   9.088   6.277   3.723
  204DPPC   C2610176   9.155   6.323   3.594
  204DPPC   C2710177   9.054   6.337   3.479
  204DPPC   C2810178   9.114   6.400   3.353
  204DPPC   C2910179   8.996   6.465   3.280
  204DPPC   C3010180   8.932   6.369   3.179
  204DPPC   C3110181   8.822   6.441   3.101
  204DPPC   C3210182   9.034   7.085   4.342
  204DPPC   O3310183   9.139   7.119   4.251
  204DPPC   C3410184   9.102   7.211   4.159
  204DPPC   O3510185   8.991   7.263   4.153
  204DPPC   C3610186   9.217   7.250   4.065
  204DPPC   C3710187   9.172   7.294   3.925
  204DPPC   C3810188   9.288   7.311   3.827
  204DPPC   C3910189   9.341   7.171   3.794
  204DPPC   C4010190   9.229   7.098   3.720
  204DPPC   C4110191   9.288   6.969   3.664
  204DPPC   C4210192   9.186   6.894   3.577
  204DPPC   C4310193   9.264   6.780   3.511
  204DPPC   C4410194   9.382   6.828   3.427
  204DPPC   C4510195   9.468   6.711   3.379
  204DPPC   C4610196   9.511   6.618   3.492
  204DPPC   C4710197   9.590   6.505   3.428
  204DPPC   C4810198   9.508   6.459   3.307
  204DPPC   C4910199   9.581   6.358   3.219
  204DPPC   C5010200   9.654   6.248   3.297
  205DPPC    C110201   2.213   8.064   5.576
  205DPPC    C210202   2.433   7.960   5.570
  205DPPC    C310203   2.249   7.852   5.484
  205DPPC    N410204   2.309   7.986   5.496
  205DPPC    C510205   2.331   8.060   5.371
  205DPPC    C610206   2.219   8.063   5.266
  205DPPC    O710207   2.110   8.148   5.303
  205DPPC    P810208   1.972   8.093   5.240
  205DPPC    O910209   1.858   8.173   5.290
  205DPPC   O1010210   1.975   7.947   5.265
  205DPPC   O1110211   2.005   8.123   5.085
  205DPPC   C1210212   1.945   8.249   5.056
  205DPPC   C1310213   2.028   8.377   5.068
  205DPPC   O1410214   1.946   8.490   5.036
  205DPPC   C1510215   1.989   8.615   5.068
  205DPPC   O1610216   2.069   8.628   5.160
  205DPPC   C1710217   1.893   8.723   5.018
  205DPPC   C1810218   1.902   8.739   4.866
  205DPPC   C1910219   1.833   8.873   4.842
  205DPPC   C2010220   1.803   8.901   4.695
  205DPPC   C2110221   1.700   8.796   4.650
  205DPPC   C2210222   1.661   8.804   4.503
  205DPPC   C2310223   1.553   8.697   4.483
  205DPPC   C2410224   1.419   8.748   4.430
  205DPPC   C2510225   1.437   8.819   4.296
  205DPPC   C2610226   1.311   8.876   4.230
  205DPPC   C2710227   1.347   8.919   4.087
  205DPPC   C2810228   1.218   8.984   4.036
  205DPPC   C2910229   1.258   9.039   3.899
  205DPPC   C3010230   1.142   9.084   3.809
  205DPPC   C3110231   1.196   9.152   3.683
  205DPPC   C3210232   2.154   8.367   4.981
  205DPPC   O3310233   2.136   8.351   4.840
  205DPPC   C3410234   2.216   8.423   4.758
  205DPPC   O3510235   2.293   8.512   4.792
  205DPPC   C3610236   2.212   8.392   4.608
  205DPPC   C3710237   2.301   8.276   4.563
  205DPPC   C3810238   2.281   8.258   4.412
  205DPPC   C3910239   2.358   8.136   4.364
  205DPPC   C4010240   2.342   8.121   4.212
  205DPPC   C4110241   2.397   7.990   4.155
  205DPPC   C4210242   2.375   8.002   4.004
  205DPPC   C4310243   2.398   7.867   3.936
  205DPPC   C4410244   2.433   7.911   3.794
  205DPPC   C4510245   2.476   7.800   3.699
  205DPPC   C4610246   2.504   7.852   3.558
  205DPPC   C4710247   2.579   7.754   3.467
  205DPPC   C4810248   2.700   7.703   3.546
  205DPPC   C4910249   2.796   7.623   3.457
  205DPPC   C5010250   2.913   7.561   3.533
  206DPPC    C110251   2.057   5.309   4.924
  206DPPC    C210252   1.984   5.138   4.777
  206DPPC    C310253   2.097   5.072   4.982
  206DPPC    N410254   2.008   5.170   4.919
  206DPPC    C510255   1.893   5.139   5.005
  206DPPC    C610256   1.770   5.230   4.997
  206DPPC    O710257   1.702   5.239   4.872
  206DPPC    P810258   1.557   5.308   4.882
  206DPPC    O910259   1.575   5.384   5.007
  206DPPC   O1010260   1.439   5.218   4.874
  206DPPC   O1110261   1.570   5.412   4.760
  206DPPC   C1210262   1.526   5.341   4.643
  206DPPC   C1310263   1.548   5.416   4.512
  206DPPC   O1410264   1.480   5.359   4.399
  206DPPC   C1510265   1.344   5.369   4.390
  206DPPC   O1610266   1.276   5.433   4.469
  206DPPC   C1710267   1.276   5.293   4.276
  206DPPC   C1810268   1.228   5.381   4.161
  206DPPC   C1910269   1.200   5.279   4.050
  206DPPC   C2010270   1.162   5.355   3.922
  206DPPC   C2110271   1.135   5.258   3.807
  206DPPC   C2210272   1.100   5.347   3.687
  206DPPC   C2310273   1.066   5.270   3.560
  206DPPC   C2410274   1.040   5.366   3.444
  206DPPC   C2510275   1.167   5.449   3.421
  206DPPC   C2610276   1.152   5.556   3.313
  206DPPC   C2710277   1.274   5.639   3.275
  206DPPC   C2810278   1.307   5.757   3.366
  206DPPC   C2910279   1.443   5.821   3.335
  206DPPC   C3010280   1.492   5.911   3.449
  206DPPC   C3110281   1.535   5.830   3.571
  206DPPC   C3210282   1.700   5.400   4.502
  206DPPC   O3310283   1.748   5.281   4.438
  206DPPC   C3410284   1.884   5.273   4.435
  206DPPC   O3510285   1.962   5.333   4.510
  206DPPC   C3610286   1.935   5.146   4.368
  206DPPC   C3710287   1.983   5.179   4.227
  206DPPC   C3810288   2.036   5.051   4.162
  206DPPC   C3910289   2.135   4.981   4.255
  206DPPC   C4010290   2.166   4.860   4.166
  206DPPC   C4110291   2.269   4.762   4.223
  206DPPC   C4210292   2.295   4.665   4.107
  206DPPC   C4310293   2.363   4.736   3.990
  206DPPC   C4410294   2.504   4.783   4.027
  206DPPC   C4510295   2.598   4.803   3.909
  206DPPC   C4610296   2.744   4.837   3.942
  206DPPC   C4710297   2.838   4.832   3.822
  206DPPC   C4810298   2.975   4.885   3.863
  206DPPC   C4910299   3.066   4.898   3.741
  206DPPC   C5010300   3.211   4.918   3.786
  207DPPC    C110301   6.535   0.253   6.025
  207DPPC    C210302   6.742   0.275   5.916
  207DPPC    C310303   6.572   0.148   5.812
  207DPPC    N410304   6.597   0.268   5.893
  207DPPC    C510305   6.538   0.379   5.816
  207DPPC    C610306   6.584   0.524   5.839
  207DPPC    O710307   6.502   0.613   5.762
  207DPPC    P810308   6.562   0.762   5.772
  207DPPC    O910309   6.580   0.794   5.915
  207DPPC   O1010310   6.479   0.851   5.688
  207DPPC   O1110311   6.696   0.717   5.695
  207DPPC   C1210312   6.726   0.778   5.569
  207DPPC   C1310313   6.868   0.825   5.536
  207DPPC   O1410314   6.881   0.938   5.449
  207DPPC   C1510315   6.998   1.008   5.448
  207DPPC   O1610316   7.076   0.991   5.541
  207DPPC   C1710317   7.026   1.099   5.328
  207DPPC   C1810318   6.966   1.238   5.348
  207DPPC   C1910319   6.964   1.327   5.223
  207DPPC   C2010320   6.882   1.274   5.106
  207DPPC   C2110321   6.879   1.365   4.983
  207DPPC   C2210322   7.007   1.344   4.902
  207DPPC   C2310323   6.980   1.439   4.785
  207DPPC   C2410324   7.081   1.415   4.673
  207DPPC   C2510325   7.032   1.491   4.549
  207DPPC   C2610326   7.142   1.479   4.443
  207DPPC   C2710327   7.106   1.522   4.301
  207DPPC   C2810328   7.062   1.669   4.293
  207DPPC   C2910329   6.989   1.688   4.160
  207DPPC   C3010330   7.024   1.830   4.113
  207DPPC   C3110331   6.974   1.859   3.972
  207DPPC   C3210332   6.934   0.699   5.480
  207DPPC   O3310333   6.859   0.633   5.378
  207DPPC   C3410334   6.930   0.537   5.313
  207DPPC   O3510335   7.041   0.498   5.347
  207DPPC   C3610336   6.853   0.468   5.200
  207DPPC   C3710337   6.737   0.548   5.141
  207DPPC   C3810338   6.659   0.473   5.033
  207DPPC   C3910339   6.566   0.562   4.951
  207DPPC   C4010340   6.524   0.479   4.829
  207DPPC   C4110341   6.434   0.365   4.877
  207DPPC   C4210342   6.392   0.277   4.759
  207DPPC   C4310343   6.348   0.135   4.792
  207DPPC   C4410344   6.339   0.047   4.667
  207DPPC   C4510345   6.471   0.050   4.588
  207DPPC   C4610346   6.437  -0.013   4.453
  207DPPC   C4710347   6.555  -0.056   4.366
  207DPPC   C4810348   6.512  -0.094   4.224
  207DPPC   C4910349   6.642  -0.123   4.147
  207DPPC   C5010350   6.585  -0.190   4.022
  208DPPC    C110351   5.239   1.436   5.505
  208DPPC    C210352   5.386   1.337   5.351
  208DPPC    C310353   5.284   1.561   5.313
  208DPPC    N410354   5.344   1.466   5.407
  208DPPC    C510355   5.463   1.540   5.452
  208DPPC    C610356   5.551   1.482   5.563
  208DPPC    O710357   5.688   1.519   5.544
  208DPPC    P810358   5.796   1.480   5.656
  208DPPC    O910359   5.720   1.481   5.783
  208DPPC   O1010360   5.927   1.540   5.622
  208DPPC   O1110361   5.811   1.324   5.618
  208DPPC   C1210362   5.866   1.317   5.486
  208DPPC   C1310363   5.883   1.176   5.431
  208DPPC   O1410364   5.983   1.175   5.329
  208DPPC   C1510365   6.092   1.095   5.346
  208DPPC   O1610366   6.095   1.007   5.432
  208DPPC   C1710367   6.211   1.136   5.259
  208DPPC   C1810368   6.173   1.236   5.149
  208DPPC   C1910369   6.299   1.313   5.108
  208DPPC   C2010370   6.265   1.365   4.968
  208DPPC   C2110371   6.368   1.458   4.904
  208DPPC   C2210372   6.292   1.513   4.783
  208DPPC   C2310373   6.215   1.637   4.830
  208DPPC   C2410374   6.154   1.708   4.709
  208DPPC   C2510375   6.072   1.831   4.750
  208DPPC   C2610376   6.007   1.886   4.623
  208DPPC   C2710377   5.890   1.802   4.572
  208DPPC   C2810378   5.852   1.863   4.437
  208DPPC   C2910379   5.979   1.850   4.352
  208DPPC   C3010380   5.935   1.893   4.212
  208DPPC   C3110381   6.032   1.845   4.104
  208DPPC   C3210382   5.739   1.132   5.405
  208DPPC   O3310383   5.705   1.107   5.268
  208DPPC   C3410384   5.713   1.210   5.180
  208DPPC   O3510385   5.684   1.323   5.220
  208DPPC   C3610386   5.707   1.175   5.031
  208DPPC   C3710387   5.829   1.229   4.957
  208DPPC   C3810388   5.824   1.210   4.805
  208DPPC   C3910389   5.950   1.268   4.740
  208DPPC   C4010390   5.940   1.269   4.587
  208DPPC   C4110391   6.036   1.375   4.532
  208DPPC   C4210392   6.034   1.350   4.381
  208DPPC   C4310393   6.120   1.444   4.296
  208DPPC   C4410394   6.271   1.434   4.320
  208DPPC   C4510395   6.327   1.542   4.229
  208DPPC   C4610396   6.464   1.566   4.293
  208DPPC   C4710397   6.531   1.429   4.295
  208DPPC   C4810398   6.677   1.424   4.341
  208DPPC   C4910399   6.684   1.461   4.489
  208DPPC   C5010400   6.652   1.332   4.565
  209DPPC    C110401   4.796   3.790   6.023
  209DPPC    C210402   4.935   3.954   5.906
  209DPPC    C310403   4.929   3.716   5.850
  209DPPC    N410404   4.852   3.834   5.894
  209DPPC    C510405   4.746   3.842   5.793
  209DPPC    C610406   4.643   3.949   5.831
  209DPPC    O710407   4.524   3.958   5.752
  209DPPC    P810408   4.432   4.079   5.805
  209DPPC    O910409   4.483   4.106   5.942
  209DPPC   O1010410   4.292   4.040   5.777
  209DPPC   O1110411   4.494   4.200   5.718
  209DPPC   C1210412   4.511   4.162   5.582
  209DPPC   C1310413   4.379   4.141   5.508
  209DPPC   O1410414   4.390   4.080   5.378
  209DPPC   C1510415   4.277   4.022   5.328
  209DPPC   O1610416   4.188   3.992   5.407
  209DPPC   C1710417   4.288   3.958   5.190
  209DPPC   C1810418   4.151   3.926   5.131
  209DPPC   C1910419   4.169   3.932   4.979
  209DPPC   C2010420   4.277   3.831   4.940
  209DPPC   C2110421   4.291   3.823   4.788
  209DPPC   C2210422   4.400   3.722   4.752
  209DPPC   C2310423   4.433   3.704   4.604
  209DPPC   C2410424   4.555   3.612   4.605
  209DPPC   C2510425   4.550   3.476   4.674
  209DPPC   C2610426   4.675   3.387   4.674
  209DPPC   C2710427   4.721   3.350   4.532
  209DPPC   C2810428   4.847   3.265   4.540
  209DPPC   C2910429   4.889   3.230   4.397
  209DPPC   C3010430   5.027   3.165   4.379
  209DPPC   C3110431   5.068   3.124   4.237
  209DPPC   C3210432   4.297   4.269   5.520
  209DPPC   O3310433   4.346   4.389   5.459
  209DPPC   C3410434   4.289   4.510   5.486
  209DPPC   O3510435   4.251   4.539   5.599
  209DPPC   C3610436   4.336   4.622   5.393
  209DPPC   C3710437   4.360   4.564   5.254
  209DPPC   C3810438   4.443   4.659   5.168
  209DPPC   C3910439   4.453   4.600   5.027
  209DPPC   C4010440   4.575   4.650   4.949
  209DPPC   C4110441   4.541   4.799   4.939
  209DPPC   C4210442   4.656   4.861   4.860
  209DPPC   C4310443   4.787   4.851   4.938
  209DPPC   C4410444   4.914   4.887   4.860
  209DPPC   C4510445   4.915   4.810   4.728
  209DPPC   C4610446   5.016   4.871   4.630
  209DPPC   C4710447   4.987   4.807   4.494
  209DPPC   C4810448   5.063   4.865   4.375
  209DPPC   C4910449   5.212   4.833   4.384
  209DPPC   C5010450   5.232   4.681   4.386
  210DPPC    C110451   6.468   1.354   5.874
  210DPPC    C210452   6.427   1.397   6.111
  210DPPC    C310453   6.309   1.224   5.998
  210DPPC    N410454   6.438   1.295   6.006
  210DPPC    C510455   6.540   1.198   6.049
  210DPPC    C610456   6.615   1.129   5.935
  210DPPC    O710457   6.729   1.204   5.892
  210DPPC    P810458   6.815   1.133   5.776
  210DPPC    O910459   6.869   1.005   5.829
  210DPPC   O1010460   6.891   1.250   5.726
  210DPPC   O1110461   6.695   1.106   5.672
  210DPPC   C1210462   6.684   1.224   5.592
  210DPPC   C1310463   6.575   1.228   5.484
  210DPPC   O1410464   6.455   1.289   5.533
  210DPPC   C1510465   6.450   1.421   5.499
  210DPPC   O1610466   6.555   1.484   5.504
  210DPPC   C1710467   6.318   1.499   5.507
  210DPPC   C1810468   6.342   1.632   5.436
  210DPPC   C1910469   6.213   1.714   5.435
  210DPPC   C2010470   6.231   1.838   5.347
  210DPPC   C2110471   6.132   1.942   5.402
  210DPPC   C2210472   6.166   2.079   5.345
  210DPPC   C2310473   6.176   2.076   5.192
  210DPPC   C2410474   6.220   2.209   5.130
  210DPPC   C2510475   6.222   2.186   4.979
  210DPPC   C2610476   6.291   2.294   4.896
  210DPPC   C2710477   6.289   2.266   4.745
  210DPPC   C2810478   6.341   2.389   4.670
  210DPPC   C2910479   6.365   2.318   4.537
  210DPPC   C3010480   6.234   2.281   4.467
  210DPPC   C3110481   6.242   2.181   4.352
  210DPPC   C3210482   6.576   1.084   5.433
  210DPPC   O3310483   6.603   1.069   5.293
  210DPPC   C3410484   6.590   0.945   5.239
  210DPPC   O3510485   6.503   0.872   5.287
  210DPPC   C3610486   6.636   0.933   5.094
  210DPPC   C3710487   6.546   1.006   4.994
  210DPPC   C3810488   6.608   1.039   4.859
  210DPPC   C3910489   6.675   0.907   4.819
  210DPPC   C4010490   6.745   0.917   4.682
  210DPPC   C4110491   6.864   1.012   4.695
  210DPPC   C4210492   6.941   1.026   4.564
  210DPPC   C4310493   6.855   1.060   4.442
  210DPPC   C4410494   6.947   1.091   4.324
  210DPPC   C4510495   6.978   0.960   4.251
  210DPPC   C4610496   6.857   0.898   4.180
  210DPPC   C4710497   6.887   0.779   4.089
  210DPPC   C4810498   6.759   0.747   4.011
  210DPPC   C4910499   6.723   0.861   3.915
  210DPPC   C5010500   6.599   0.828   3.831
  211DPPC    C110501   1.418   7.912   5.283
  211DPPC    C210502   1.555   8.109   5.276
  211DPPC    C310503   1.599   7.922   5.433
  211DPPC    N410504   1.555   7.963   5.299
  211DPPC    C510505   1.648   7.921   5.193
  211DPPC    C610506   1.654   7.778   5.140
  211DPPC    O710507   1.552   7.752   5.044
  211DPPC    P810508   1.574   7.617   4.960
  211DPPC    O910509   1.436   7.566   4.975
  211DPPC   O1010510   1.693   7.554   5.022
  211DPPC   O1110511   1.612   7.715   4.838
  211DPPC   C1210512   1.492   7.769   4.782
  211DPPC   C1310513   1.519   7.872   4.672
  211DPPC   O1410514   1.537   7.819   4.540
  211DPPC   C1510515   1.425   7.787   4.471
  211DPPC   O1610516   1.318   7.780   4.532
  211DPPC   C1710517   1.450   7.714   4.339
  211DPPC   C1810518   1.434   7.823   4.233
  211DPPC   C1910519   1.286   7.860   4.220
  211DPPC   C2010520   1.251   7.933   4.090
  211DPPC   C2110521   1.111   7.992   4.106
  211DPPC   C2210522   1.073   8.089   3.993
  211DPPC   C2310523   1.114   8.021   3.862
  211DPPC   C2410524   1.091   8.123   3.751
  211DPPC   C2510525   1.105   8.066   3.610
  211DPPC   C2610526   0.984   7.986   3.561
  211DPPC   C2710527   0.892   8.075   3.476
  211DPPC   C2810528   0.971   8.145   3.365
  211DPPC   C2910529   0.867   8.205   3.271
  211DPPC   C3010530   0.917   8.301   3.163
  211DPPC   C3110531   1.014   8.238   3.063
  211DPPC   C3210532   1.630   7.962   4.726
  211DPPC   O3310533   1.651   8.077   4.645
  211DPPC   C3410534   1.719   8.166   4.722
  211DPPC   O3510535   1.767   8.131   4.830
  211DPPC   C3610536   1.733   8.309   4.668
  211DPPC   C3710537   1.852   8.318   4.572
  211DPPC   C3810538   1.836   8.447   4.491
  211DPPC   C3910539   1.935   8.450   4.374
  211DPPC   C4010540   1.895   8.581   4.307
  211DPPC   C4110541   1.860   8.555   4.160
  211DPPC   C4210542   1.812   8.682   4.091
  211DPPC   C4310543   1.777   8.657   3.945
  211DPPC   C4410544   1.759   8.779   3.854
  211DPPC   C4510545   1.619   8.838   3.874
  211DPPC   C4610546   1.598   8.969   3.798
  211DPPC   C4710547   1.640   8.946   3.653
  211DPPC   C4810548   1.621   9.081   3.584
  211DPPC   C4910549   1.718   9.193   3.625
  211DPPC   C5010550   1.653   9.313   3.555
  212DPPC    C110551   4.695   8.170   5.671
  212DPPC    C210552   4.749   8.385   5.592
  212DPPC    C310553   4.904   8.213   5.549
  212DPPC    N410554   4.761   8.242   5.561
  212DPPC    C510555   4.682   8.205   5.442
  212DPPC    C610556   4.690   8.286   5.313
  212DPPC    O710557   4.821   8.307   5.259
  212DPPC    P810558   4.807   8.453   5.191
  212DPPC    O910559   4.928   8.481   5.111
  212DPPC   O1010560   4.749   8.537   5.298
  212DPPC   O1110561   4.696   8.435   5.076
  212DPPC   C1210562   4.749   8.328   4.996
  212DPPC   C1310563   4.658   8.273   4.886
  212DPPC   O1410564   4.711   8.160   4.815
  212DPPC   C1510565   4.726   8.038   4.873
  212DPPC   O1610566   4.676   8.021   4.984
  212DPPC   C1710567   4.781   7.931   4.778
  212DPPC   C1810568   4.715   7.951   4.642
  212DPPC   C1910569   4.765   7.860   4.529
  212DPPC   C2010570   4.667   7.900   4.419
  212DPPC   C2110571   4.711   7.829   4.290
  212DPPC   C2210572   4.582   7.764   4.239
  212DPPC   C2310573   4.592   7.677   4.113
  212DPPC   C2410574   4.465   7.595   4.091
  212DPPC   C2510575   4.485   7.510   3.965
  212DPPC   C2610576   4.495   7.586   3.833
  212DPPC   C2710577   4.537   7.469   3.742
  212DPPC   C2810578   4.584   7.503   3.601
  212DPPC   C2910579   4.623   7.381   3.518
  212DPPC   C3010580   4.656   7.409   3.371
  212DPPC   C3110581   4.700   7.271   3.322
  212DPPC   C3210582   4.610   8.396   4.810
  212DPPC   O3310583   4.722   8.461   4.749
  212DPPC   C3410584   4.701   8.577   4.682
  212DPPC   O3510585   4.595   8.639   4.687
  212DPPC   C3610586   4.834   8.637   4.635
  212DPPC   C3710587   4.830   8.643   4.482
  212DPPC   C3810588   4.964   8.650   4.409
  212DPPC   C3910589   4.927   8.677   4.263
  212DPPC   C4010590   5.053   8.691   4.176
  212DPPC   C4110591   5.165   8.590   4.204
  212DPPC   C4210592   5.287   8.612   4.114
  212DPPC   C4310593   5.420   8.546   4.150
  212DPPC   C4410594   5.475   8.605   4.279
  212DPPC   C4510595   5.597   8.521   4.320
  212DPPC   C4610596   5.697   8.522   4.205
  212DPPC   C4710597   5.829   8.470   4.262
  212DPPC   C4810598   5.936   8.440   4.157
  212DPPC   C4910599   6.045   8.370   4.238
  212DPPC   C5010600   6.138   8.324   4.126
  213DPPC    C110601   7.701   1.896   5.948
  213DPPC    C210602   7.764   2.103   5.871
  213DPPC    C310603   7.786   1.934   5.716
  213DPPC    N410604   7.700   1.978   5.827
  213DPPC    C510605   7.568   2.007   5.768
  213DPPC    C610606   7.463   1.897   5.763
  213DPPC    O710607   7.511   1.777   5.701
  213DPPC    P810608   7.443   1.653   5.776
  213DPPC    O910609   7.363   1.700   5.892
  213DPPC   O1010610   7.548   1.550   5.792
  213DPPC   O1110611   7.346   1.598   5.659
  213DPPC   C1210612   7.412   1.580   5.533
  213DPPC   C1310613   7.323   1.554   5.411
  213DPPC   O1410614   7.393   1.499   5.299
  213DPPC   C1510615   7.429   1.368   5.311
  213DPPC   O1610616   7.406   1.302   5.412
  213DPPC   C1710617   7.490   1.302   5.187
  213DPPC   C1810618   7.392   1.281   5.072
  213DPPC   C1910619   7.442   1.190   4.959
  213DPPC   C2010620   7.333   1.164   4.855
  213DPPC   C2110621   7.374   1.068   4.743
  213DPPC   C2210622   7.495   1.120   4.665
  213DPPC   C2310623   7.560   1.001   4.594
  213DPPC   C2410624   7.471   0.985   4.471
  213DPPC   C2510625   7.453   1.114   4.391
  213DPPC   C2610626   7.574   1.115   4.297
  213DPPC   C2710627   7.565   1.241   4.211
  213DPPC   C2810628   7.447   1.221   4.116
  213DPPC   C2910629   7.428   1.329   4.008
  213DPPC   C3010630   7.286   1.335   3.952
  213DPPC   C3110631   7.295   1.432   3.835
  213DPPC   C3210632   7.229   1.675   5.401
  213DPPC   O3310633   7.115   1.656   5.318
  213DPPC   C3410634   7.027   1.758   5.296
  213DPPC   O3510635   7.027   1.857   5.370
  213DPPC   C3610636   6.914   1.737   5.196
  213DPPC   C3710637   6.789   1.700   5.276
  213DPPC   C3810638   6.666   1.715   5.185
  213DPPC   C3910639   6.658   1.849   5.113
  213DPPC   C4010640   6.622   1.953   5.219
  213DPPC   C4110641   6.621   2.098   5.171
  213DPPC   C4210642   6.598   2.204   5.279
  213DPPC   C4310643   6.592   2.345   5.220
  213DPPC   C4410644   6.711   2.400   5.140
  213DPPC   C4510645   6.697   2.547   5.101
  213DPPC   C4610646   6.565   2.564   5.026
  213DPPC   C4710647   6.552   2.705   4.968
  213DPPC   C4810648   6.425   2.733   4.886
  213DPPC   C4910649   6.426   2.879   4.840
  213DPPC   C5010650   6.377   2.965   4.956
  214DPPC    C110651   5.543   7.852   5.585
  214DPPC    C210652   5.559   7.674   5.737
  214DPPC    C310653   5.511   7.615   5.509
  214DPPC    N410654   5.581   7.710   5.596
  214DPPC    C510655   5.727   7.699   5.591
  214DPPC    C610656   5.807   7.741   5.467
  214DPPC    O710657   5.804   7.637   5.369
  214DPPC    P810658   5.890   7.682   5.240
  214DPPC    O910659   5.963   7.554   5.226
  214DPPC   O1010660   5.955   7.809   5.278
  214DPPC   O1110661   5.759   7.689   5.147
  214DPPC   C1210662   5.751   7.579   5.056
  214DPPC   C1310663   5.605   7.564   5.014
  214DPPC   O1410664   5.578   7.449   4.933
  214DPPC   C1510665   5.596   7.327   4.992
  214DPPC   O1610666   5.617   7.305   5.111
  214DPPC   C1710667   5.602   7.224   4.880
  214DPPC   C1810668   5.684   7.100   4.918
  214DPPC   C1910669   5.730   7.021   4.796
  214DPPC   C2010670   5.812   6.893   4.816
  214DPPC   C2110671   5.804   6.801   4.694
  214DPPC   C2210672   5.898   6.682   4.714
  214DPPC   C2310673   6.038   6.745   4.712
  214DPPC   C2410674   6.140   6.631   4.719
  214DPPC   C2510675   6.113   6.524   4.613
  214DPPC   C2610676   6.201   6.399   4.620
  214DPPC   C2710677   6.149   6.296   4.520
  214DPPC   C2810678   5.996   6.301   4.517
  214DPPC   C2910679   5.947   6.214   4.401
  214DPPC   C3010680   5.946   6.063   4.427
  214DPPC   C3110681   5.935   5.973   4.305
  214DPPC   C3210682   5.585   7.695   4.937
  214DPPC   O3310683   5.676   7.744   4.839
  214DPPC   C3410684   5.636   7.866   4.794
  214DPPC   O3510685   5.554   7.930   4.861
  214DPPC   C3610686   5.697   7.931   4.670
  214DPPC   C3710687   5.754   7.829   4.572
  214DPPC   C3810688   5.849   7.887   4.467
  214DPPC   C3910689   5.925   7.768   4.407
  214DPPC   C4010690   5.989   7.799   4.272
  214DPPC   C4110691   6.081   7.678   4.255
  214DPPC   C4210692   6.068   7.633   4.110
  214DPPC   C4310693   6.161   7.515   4.081
  214DPPC   C4410694   6.303   7.541   4.132
  214DPPC   C4510695   6.404   7.441   4.075
  214DPPC   C4610696   6.355   7.301   4.112
  214DPPC   C4710697   6.443   7.183   4.069
  214DPPC   C4810698   6.582   7.198   4.131
  214DPPC   C4910699   6.665   7.074   4.094
  214DPPC   C5010700   6.800   7.080   4.165
  215DPPC    C110701   8.108   0.239   5.224
  215DPPC    C210702   8.191   0.370   5.413
  215DPPC    C310703   8.002   0.244   5.423
  215DPPC    N410704   8.138   0.240   5.368
  215DPPC    C510705   8.200   0.119   5.425
  215DPPC    C610706   8.351   0.110   5.403
  215DPPC    O710707   8.394   0.042   5.285
  215DPPC    P810708   8.536   0.090   5.227
  215DPPC    O910709   8.635   0.003   5.294
  215DPPC   O1010710   8.527   0.232   5.268
  215DPPC   O1110711   8.503   0.059   5.072
  215DPPC   C1210712   8.443   0.174   5.014
  215DPPC   C1310713   8.424   0.149   4.864
  215DPPC   O1410714   8.393   0.267   4.788
  215DPPC   C1510715   8.287   0.348   4.813
  215DPPC   O1610716   8.234   0.352   4.923
  215DPPC   C1710717   8.260   0.451   4.703
  215DPPC   C1810718   8.221   0.366   4.582
  215DPPC   C1910719   8.199   0.439   4.449
  215DPPC   C2010720   8.161   0.334   4.345
  215DPPC   C2110721   8.121   0.392   4.209
  215DPPC   C2210722   8.240   0.472   4.158
  215DPPC   C2310723   8.195   0.539   4.027
  215DPPC   C2410724   8.131   0.672   4.066
  215DPPC   C2510725   8.079   0.746   3.942
  215DPPC   C2610726   8.014   0.877   3.987
  215DPPC   C2710727   7.953   0.928   3.856
  215DPPC   C2810728   7.875   0.816   3.786
  215DPPC   C2910729   7.792   0.852   3.663
  215DPPC   C3010730   7.665   0.920   3.712
  215DPPC   C3110731   7.598   0.851   3.831
  215DPPC   C3210732   8.311   0.046   4.857
  215DPPC   O3310733   8.266   0.027   4.723
  215DPPC   C3410734   8.342  -0.012   4.616
  215DPPC   O3510735   8.440  -0.080   4.647
  215DPPC   C3610736   8.279   0.005   4.478
  215DPPC   C3710737   8.201  -0.118   4.431
  215DPPC   C3810738   8.131  -0.071   4.303
  215DPPC   C3910739   8.027  -0.178   4.269
  215DPPC   C4010740   7.933  -0.142   4.154
  215DPPC   C4110741   7.855  -0.266   4.111
  215DPPC   C4210742   7.753  -0.228   4.003
  215DPPC   C4310743   7.827  -0.185   3.876
  215DPPC   C4410744   7.727  -0.178   3.760
  215DPPC   C4510745   7.620  -0.069   3.766
  215DPPC   C4610746   7.522  -0.075   3.648
  215DPPC   C4710747   7.449  -0.209   3.642
  215DPPC   C4810748   7.385  -0.212   3.503
  215DPPC   C4910749   7.322  -0.348   3.469
  215DPPC   C5010750   7.339  -0.380   3.320
  216DPPC    C110751   4.479   0.182   5.108
  216DPPC    C210752   4.544   0.377   4.966
  216DPPC    C310753   4.384   0.404   5.133
  216DPPC    N410754   4.504   0.326   5.098
  216DPPC    C510755   4.602   0.363   5.202
  216DPPC    C610756   4.663   0.503   5.210
  216DPPC    O710757   4.583   0.604   5.272
  216DPPC    P810758   4.667   0.740   5.255
  216DPPC    O910759   4.812   0.710   5.271
  216DPPC   O1010760   4.582   0.808   5.355
  216DPPC   O1110761   4.621   0.779   5.106
  216DPPC   C1210762   4.483   0.817   5.099
  216DPPC   C1310763   4.432   0.856   4.960
  216DPPC   O1410764   4.371   0.740   4.902
  216DPPC   C1510765   4.238   0.711   4.909
  216DPPC   O1610766   4.183   0.746   5.013
  216DPPC   C1710767   4.215   0.576   4.840
  216DPPC   C1810768   4.288   0.554   4.707
  216DPPC   C1910769   4.270   0.416   4.644
  216DPPC   C2010770   4.307   0.415   4.496
  216DPPC   C2110771   4.276   0.286   4.419
  216DPPC   C2210772   4.335   0.275   4.279
  216DPPC   C2310773   4.487   0.273   4.259
  216DPPC   C2410774   4.536   0.282   4.114
  216DPPC   C2510775   4.583   0.141   4.078
  216DPPC   C2610776   4.704   0.146   3.984
  216DPPC   C2710777   4.770   0.018   3.933
  216DPPC   C2810778   4.883   0.049   3.835
  216DPPC   C2910779   4.949  -0.078   3.779
  216DPPC   C3010780   4.862  -0.152   3.678
  216DPPC   C3110781   4.808  -0.066   3.563
  216DPPC   C3210782   4.537   0.929   4.877
  216DPPC   O3310783   4.555   1.070   4.895
  216DPPC   C3410784   4.656   1.122   4.820
  216DPPC   O3510785   4.746   1.051   4.776
  216DPPC   C3610786   4.635   1.266   4.772
  216DPPC   C3710787   4.544   1.280   4.650
  216DPPC   C3810788   4.479   1.419   4.660
  216DPPC   C3910789   4.360   1.436   4.566
  216DPPC   C4010790   4.268   1.323   4.612
  216DPPC   C4110791   4.166   1.280   4.506
  216DPPC   C4210792   4.055   1.385   4.494
  216DPPC   C4310793   3.949   1.331   4.397
  216DPPC   C4410794   3.997   1.305   4.254
  216DPPC   C4510795   3.884   1.343   4.158
  216DPPC   C4610796   3.908   1.300   4.013
  216DPPC   C4710797   3.809   1.360   3.913
  216DPPC   C4810798   3.826   1.277   3.785
  216DPPC   C4910799   3.738   1.329   3.671
  216DPPC   C5010800   3.747   1.239   3.547
  217DPPC    C110801   5.551   6.813   5.491
  217DPPC    C210802   5.570   6.982   5.333
  217DPPC    C310803   5.432   6.800   5.288
  217DPPC    N410804   5.472   6.892   5.396
  217DPPC    C510805   5.350   6.945   5.460
  217DPPC    C610806   5.362   7.086   5.518
  217DPPC    O710807   5.240   7.160   5.512
  217DPPC    P810808   5.256   7.298   5.593
  217DPPC    O910809   5.378   7.312   5.675
  217DPPC   O1010810   5.135   7.368   5.642
  217DPPC   O1110811   5.306   7.376   5.461
  217DPPC   C1210812   5.201   7.394   5.366
  217DPPC   C1310813   5.241   7.452   5.230
  217DPPC   O1410814   5.148   7.547   5.175
  217DPPC   C1510815   5.176   7.632   5.073
  217DPPC   O1610816   5.290   7.672   5.051
  217DPPC   C1710817   5.056   7.691   4.997
  217DPPC   C1810818   5.089   7.712   4.849
  217DPPC   C1910819   5.136   7.855   4.820
  217DPPC   C2010820   5.122   7.892   4.673
  217DPPC   C2110821   5.191   7.799   4.573
  217DPPC   C2210822   5.173   7.845   4.428
  217DPPC   C2310823   5.250   7.746   4.340
  217DPPC   C2410824   5.228   7.796   4.197
  217DPPC   C2510825   5.078   7.781   4.170
  217DPPC   C2610826   5.062   7.805   4.019
  217DPPC   C2710827   4.918   7.829   3.975
  217DPPC   C2810828   4.913   7.915   3.849
  217DPPC   C2910829   4.968   7.834   3.732
  217DPPC   C3010830   4.993   7.933   3.618
  217DPPC   C3110831   5.066   7.859   3.505
  217DPPC   C3210832   5.284   7.334   5.142
  217DPPC   O3310833   5.174   7.242   5.142
  217DPPC   C3410834   5.215   7.122   5.091
  217DPPC   O3510835   5.330   7.093   5.060
  217DPPC   C3610836   5.101   7.021   5.081
  217DPPC   C3710837   5.000   7.059   4.973
  217DPPC   C3810838   5.062   7.031   4.835
  217DPPC   C3910839   4.954   6.971   4.745
  217DPPC   C4010840   4.944   7.022   4.601
  217DPPC   C4110841   4.821   6.968   4.527
  217DPPC   C4210842   4.840   6.991   4.377
  217DPPC   C4310843   4.969   6.939   4.313
  217DPPC   C4410844   4.949   6.988   4.169
  217DPPC   C4510845   5.072   6.954   4.084
  217DPPC   C4610846   5.041   6.976   3.936
  217DPPC   C4710847   5.166   6.952   3.851
  217DPPC   C4810848   5.247   7.065   3.917
  217DPPC   C4910849   5.368   7.098   3.829
  217DPPC   C5010850   5.473   7.194   3.884
  218DPPC    C110851   2.049   4.227   5.822
  218DPPC    C210852   2.230   4.338   5.741
  218DPPC    C310853   2.253   4.202   5.939
  218DPPC    N410854   2.194   4.210   5.804
  218DPPC    C510855   2.211   4.097   5.712
  218DPPC    C610856   2.351   4.075   5.654
  218DPPC    O710857   2.361   3.968   5.560
  218DPPC    P810858   2.510   3.958   5.501
  218DPPC    O910859   2.535   3.813   5.485
  218DPPC   O1010860   2.611   4.034   5.578
  218DPPC   O1110861   2.479   3.998   5.348
  218DPPC   C1210862   2.432   3.889   5.268
  218DPPC   C1310863   2.279   3.896   5.258
  218DPPC   O1410864   2.237   3.778   5.189
  218DPPC   C1510865   2.107   3.739   5.199
  218DPPC   O1610866   2.032   3.798   5.277
  218DPPC   C1710867   2.058   3.624   5.110
  218DPPC   C1810868   1.988   3.680   4.987
  218DPPC   C1910869   1.942   3.561   4.902
  218DPPC   C2010870   1.886   3.598   4.764
  218DPPC   C2110871   1.901   3.479   4.668
  218DPPC   C2210872   1.854   3.528   4.531
  218DPPC   C2310873   1.799   3.410   4.450
  218DPPC   C2410874   1.775   3.454   4.305
  218DPPC   C2510875   1.690   3.355   4.226
  218DPPC   C2610876   1.674   3.410   4.084
  218DPPC   C2710877   1.612   3.305   3.992
  218DPPC   C2810878   1.580   3.366   3.856
  218DPPC   C2910879   1.702   3.438   3.798
  218DPPC   C3010880   1.688   3.466   3.648
  218DPPC   C3110881   1.815   3.538   3.602
  218DPPC   C3210882   2.251   4.030   5.189
  218DPPC   O3310883   2.323   4.043   5.066
  218DPPC   C3410884   2.306   4.161   5.000
  218DPPC   O3510885   2.201   4.223   5.003
  218DPPC   C3610886   2.390   4.170   4.872
  218DPPC   C3710887   2.299   4.194   4.752
  218DPPC   C3810888   2.373   4.179   4.619
  218DPPC   C3910889   2.492   4.272   4.591
  218DPPC   C4010890   2.533   4.252   4.445
  218DPPC   C4110891   2.646   4.349   4.410
  218DPPC   C4210892   2.657   4.381   4.261
  218DPPC   C4310893   2.789   4.456   4.240
  218DPPC   C4410894   2.790   4.582   4.328
  218DPPC   C4510895   2.930   4.642   4.310
  218DPPC   C4610896   2.943   4.776   4.384
  218DPPC   C4710897   3.088   4.825   4.381
  218DPPC   C4810898   3.144   4.830   4.238
  218DPPC   C4910899   3.294   4.861   4.245
  218DPPC   C5010900   3.358   4.846   4.106
  219DPPC    C110901   8.982   6.739   5.042
  219DPPC    C210902   9.160   6.845   4.956
  219DPPC    C310903   9.192   6.734   5.161
  219DPPC    N410904   9.127   6.722   5.030
  219DPPC    C510905   9.171   6.623   4.930
  219DPPC    C610906   9.099   6.497   4.880
  219DPPC    O710907   9.186   6.419   4.797
  219DPPC    P810908   9.088   6.299   4.756
  219DPPC    O910909   8.976   6.368   4.688
  219DPPC   O1010910   9.057   6.216   4.875
  219DPPC   O1110911   9.173   6.197   4.665
  219DPPC   C1210912   9.181   6.269   4.542
  219DPPC   C1310913   9.267   6.211   4.429
  219DPPC   O1410914   9.255   6.284   4.306
  219DPPC   C1510915   9.348   6.272   4.207
  219DPPC   O1610916   9.449   6.207   4.234
  219DPPC   C1710917   9.339   6.357   4.080
  219DPPC   C1810918   9.409   6.299   3.957
  219DPPC   C1910919   9.431   6.408   3.853
  219DPPC   C2010920   9.554   6.383   3.765
  219DPPC   C2110921   9.535   6.250   3.692
  219DPPC   C2210922   9.678   6.195   3.689
  219DPPC   C2310923   9.681   6.049   3.645
  219DPPC   C2410924   9.827   6.017   3.616
  219DPPC   C2510925   9.822   5.876   3.556
  219DPPC   C2610926   9.732   5.789   3.643
  219DPPC   C2710927   9.671   5.671   3.566
  219DPPC   C2810928   9.590   5.732   3.452
  219DPPC   C2910929   9.470   5.815   3.497
  219DPPC   C3010930   9.452   5.923   3.390
  219DPPC   C3110931   9.318   5.995   3.414
  219DPPC   C3210932   9.237   6.062   4.411
  219DPPC   O3310933   9.103   6.017   4.394
  219DPPC   C3410934   9.092   5.882   4.394
  219DPPC   O3510935   9.179   5.820   4.457
  219DPPC   C3610936   8.970   5.815   4.332
  219DPPC   C3710937   8.945   5.683   4.406
  219DPPC   C3810938   8.808   5.633   4.360
  219DPPC   C3910939   8.807   5.593   4.213
  219DPPC   C4010940   8.676   5.535   4.159
  219DPPC   C4110941   8.675   5.514   4.008
  219DPPC   C4210942   8.541   5.448   3.973
  219DPPC   C4310943   8.534   5.411   3.825
  219DPPC   C4410944   8.564   5.534   3.739
  219DPPC   C4510945   8.581   5.498   3.592
  219DPPC   C4610946   8.447   5.446   3.540
  219DPPC   C4710947   8.450   5.466   3.388
  219DPPC   C4810948   8.317   5.452   3.314
  219DPPC   C4910949   8.342   5.419   3.167
  219DPPC   C5010950   8.204   5.405   3.101
  220DPPC    C110951   4.611   6.660   5.277
  220DPPC    C210952   4.452   6.497   5.288
  220DPPC    C310953   4.464   6.641   5.104
  220DPPC    N410954   4.546   6.558   5.194
  220DPPC    C510955   4.625   6.457   5.121
  220DPPC    C610956   4.736   6.390   5.202
  220DPPC    O710957   4.685   6.298   5.298
  220DPPC    P810958   4.779   6.175   5.343
  220DPPC    O910959   4.706   6.125   5.462
  220DPPC   O1010960   4.916   6.230   5.335
  220DPPC   O1110961   4.730   6.088   5.217
  220DPPC   C1210962   4.837   6.050   5.129
  220DPPC   C1310963   4.798   6.012   4.986
  220DPPC   O1410964   4.915   5.986   4.906
  220DPPC   C1510965   4.954   5.855   4.907
  220DPPC   O1610966   4.906   5.774   4.985
  220DPPC   C1710967   5.081   5.833   4.824
  220DPPC   C1810968   5.066   5.839   4.672
  220DPPC   C1910969   5.192   5.829   4.586
  220DPPC   C2010970   5.262   5.694   4.600
  220DPPC   C2110971   5.373   5.654   4.503
  220DPPC   C2210972   5.317   5.615   4.366
  220DPPC   C2310973   5.439   5.597   4.276
  220DPPC   C2410974   5.549   5.502   4.322
  220DPPC   C2510975   5.649   5.463   4.213
  220DPPC   C2610976   5.601   5.353   4.119
  220DPPC   C2710977   5.713   5.313   4.023
  220DPPC   C2810978   5.652   5.220   3.918
  220DPPC   C2910979   5.760   5.178   3.818
  220DPPC   C3010980   5.723   5.223   3.677
  220DPPC   C3110981   5.851   5.229   3.593
  220DPPC   C3210982   4.721   6.131   4.930
  220DPPC   O3310983   4.668   6.127   4.797
  220DPPC   C3410984   4.603   6.238   4.753
  220DPPC   O3510985   4.600   6.344   4.814
  220DPPC   C3610986   4.530   6.215   4.620
  220DPPC   C3710987   4.636   6.233   4.511
  220DPPC   C3810988   4.691   6.095   4.475
  220DPPC   C3910989   4.791   6.114   4.361
  220DPPC   C4010990   4.758   6.049   4.226
  220DPPC   C4110991   4.617   6.084   4.178
  220DPPC   C4210992   4.590   5.993   4.058
  220DPPC   C4310993   4.700   6.004   3.952
  220DPPC   C4410994   4.667   5.918   3.829
  220DPPC   C4510995   4.794   5.897   3.747
  220DPPC   C4610996   4.866   6.029   3.720
  220DPPC   C4710997   4.788   6.126   3.631
  220DPPC   C4810998   4.868   6.255   3.614
  220DPPC   C4910999   4.801   6.353   3.518
  220DPPC   C5011000   4.884   6.481   3.533
  221DPPC    C111001   0.434   6.168   4.549
  221DPPC    C211002   0.383   5.974   4.430
  221DPPC    C311003   0.516   6.134   4.319
  221DPPC    N411004   0.489   6.074   4.451
  221DPPC    C511005   0.610   6.011   4.505
  221DPPC    C611006   0.735   6.089   4.547
  221DPPC    O711007   0.831   6.035   4.638
  221DPPC    P811008   0.940   6.151   4.663
  221DPPC    O911009   1.025   6.109   4.776
  221DPPC   O1011010   0.867   6.280   4.662
  221DPPC   O1111011   1.012   6.136   4.520
  221DPPC   C1211012   1.132   6.061   4.531
  221DPPC   C1311013   1.202   6.028   4.399
  221DPPC   O1411014   1.298   6.113   4.335
  221DPPC   C1511015   1.423   6.132   4.386
  221DPPC   O1611016   1.464   6.054   4.471
  221DPPC   C1711017   1.506   6.220   4.293
  221DPPC   C1811018   1.451   6.363   4.283
  221DPPC   C1911019   1.347   6.388   4.174
  221DPPC   C2011020   1.401   6.352   4.035
  221DPPC   C2111021   1.295   6.351   3.925
  221DPPC   C2211022   1.366   6.298   3.801
  221DPPC   C2311023   1.274   6.301   3.679
  221DPPC   C2411024   1.349   6.235   3.562
  221DPPC   C2511025   1.262   6.248   3.436
  221DPPC   C2611026   1.131   6.170   3.450
  221DPPC   C2711027   1.041   6.173   3.327
  221DPPC   C2811028   0.977   6.310   3.300
  221DPPC   C2911029   0.939   6.341   3.155
  221DPPC   C3011030   1.040   6.439   3.096
  221DPPC   C3111031   1.043   6.555   3.196
  221DPPC   C3211032   1.086   5.995   4.305
  221DPPC   O3311033   1.048   5.859   4.332
  221DPPC   C3411034   0.929   5.839   4.270
  221DPPC   O3511035   0.852   5.932   4.245
  221DPPC   C3611036   0.878   5.697   4.290
  221DPPC   C3711037   0.851   5.630   4.155
  221DPPC   C3811038   0.778   5.496   4.170
  221DPPC   C3911039   0.782   5.387   4.064
  221DPPC   C4011040   0.710   5.432   3.936
  221DPPC   C4111041   0.761   5.332   3.832
  221DPPC   C4211042   0.703   5.373   3.697
  221DPPC   C4311043   0.550   5.361   3.690
  221DPPC   C4411044   0.490   5.359   3.549
  221DPPC   C4511045   0.342   5.319   3.547
  221DPPC   C4611046   0.278   5.362   3.414
  221DPPC   C4711047   0.145   5.291   3.390
  221DPPC   C4811048   0.087   5.322   3.251
  221DPPC   C4911049  -0.043   5.244   3.228
  221DPPC   C5011050  -0.021   5.094   3.247
  222DPPC    C111051   5.898   4.042   6.397
  222DPPC    C211052   5.716   3.911   6.406
  222DPPC    C311053   5.757   4.030   6.199
  222DPPC    N411054   5.819   3.954   6.310
  222DPPC    C511055   5.923   3.866   6.257
  222DPPC    C611056   5.904   3.718   6.222
  222DPPC    O711057   5.787   3.693   6.144
  222DPPC    P811058   5.760   3.534   6.152
  222DPPC    O911059   5.613   3.528   6.169
  222DPPC   O1011060   5.851   3.463   6.244
  222DPPC   O1111061   5.817   3.502   6.005
  222DPPC   C1211062   5.725   3.551   5.907
  222DPPC   C1311063   5.763   3.548   5.759
  222DPPC   O1411064   5.648   3.563   5.673
  222DPPC   C1511065   5.612   3.678   5.609
  222DPPC   O1611066   5.676   3.779   5.637
  222DPPC   C1711067   5.537   3.649   5.479
  222DPPC   C1811068   5.555   3.740   5.357
  222DPPC   C1911069   5.691   3.750   5.288
  222DPPC   C2011070   5.676   3.856   5.180
  222DPPC   C2111071   5.565   3.823   5.080
  222DPPC   C2211072   5.603   3.891   4.948
  222DPPC   C2311073   5.493   3.890   4.842
  222DPPC   C2411074   5.535   3.983   4.728
  222DPPC   C2511075   5.425   3.998   4.624
  222DPPC   C2611076   5.355   4.134   4.627
  222DPPC   C2711077   5.282   4.155   4.494
  222DPPC   C2811078   5.210   4.290   4.497
  222DPPC   C2911079   5.136   4.294   4.631
  222DPPC   C3011080   5.063   4.423   4.667
  222DPPC   C3111081   5.065   4.422   4.820
  222DPPC   C3211082   5.844   3.419   5.741
  222DPPC   O3311083   5.939   3.423   5.634
  222DPPC   C3411084   5.981   3.307   5.578
  222DPPC   O3511085   5.927   3.198   5.591
  222DPPC   C3611086   6.098   3.323   5.479
  222DPPC   C3711087   6.046   3.321   5.336
  222DPPC   C3811088   5.930   3.410   5.292
  222DPPC   C3911089   5.904   3.384   5.143
  222DPPC   C4011090   5.805   3.478   5.075
  222DPPC   C4111091   5.812   3.459   4.924
  222DPPC   C4211092   5.720   3.555   4.848
  222DPPC   C4311093   5.726   3.532   4.697
  222DPPC   C4411094   5.635   3.641   4.640
  222DPPC   C4511095   5.634   3.632   4.488
  222DPPC   C4611096   5.533   3.719   4.413
  222DPPC   C4711097   5.568   3.723   4.264
  222DPPC   C4811098   5.475   3.813   4.182
  222DPPC   C4911099   5.323   3.796   4.194
  222DPPC   C5011100   5.249   3.858   4.076
  223DPPC    C111101   3.492   7.360   5.882
  223DPPC    C211102   3.574   7.138   5.903
  223DPPC    C311103   3.345   7.177   5.849
  223DPPC    N411104   3.483   7.224   5.827
  223DPPC    C511105   3.544   7.218   5.693
  223DPPC    C611106   3.489   7.310   5.583
  223DPPC    O711107   3.531   7.275   5.451
  223DPPC    P811108   3.448   7.357   5.341
  223DPPC    O911109   3.526   7.479   5.313
  223DPPC   O1011110   3.312   7.355   5.398
  223DPPC   O1111111   3.473   7.237   5.236
  223DPPC   C1211112   3.593   7.263   5.163
  223DPPC   C1311113   3.657   7.144   5.090
  223DPPC   O1411114   3.765   7.196   5.012
  223DPPC   C1511115   3.880   7.123   5.011
  223DPPC   O1611116   3.887   7.020   5.077
  223DPPC   C1711117   3.999   7.173   4.929
  223DPPC   C1811118   3.954   7.233   4.796
  223DPPC   C1911119   3.896   7.126   4.703
  223DPPC   C2011120   3.871   7.178   4.561
  223DPPC   C2111121   3.832   7.081   4.450
  223DPPC   C2211122   3.961   7.032   4.384
  223DPPC   C2311123   3.946   6.945   4.259
  223DPPC   C2411124   3.914   7.040   4.143
  223DPPC   C2511125   3.929   6.973   4.007
  223DPPC   C2611126   4.074   6.956   3.959
  223DPPC   C2711127   4.074   6.899   3.817
  223DPPC   C2811128   4.026   6.753   3.817
  223DPPC   C2911129   4.068   6.682   3.688
  223DPPC   C3011130   3.995   6.548   3.679
  223DPPC   C3111131   4.043   6.478   3.551
  223DPPC   C3211132   3.542   7.074   5.017
  223DPPC   O3311133   3.468   7.140   4.914
  223DPPC   C3411134   3.366   7.071   4.855
  223DPPC   O3511135   3.333   6.965   4.908
  223DPPC   C3611136   3.302   7.126   4.727
  223DPPC   C3711137   3.400   7.131   4.610
  223DPPC   C3811138   3.336   7.162   4.474
  223DPPC   C3911139   3.439   7.192   4.366
  223DPPC   C4011140   3.391   7.221   4.223
  223DPPC   C4111141   3.513   7.252   4.136
  223DPPC   C4211142   3.468   7.316   4.004
  223DPPC   C4311143   3.596   7.334   3.922
  223DPPC   C4411144   3.557   7.371   3.779
  223DPPC   C4511145   3.674   7.397   3.684
  223DPPC   C4611146   3.625   7.414   3.540
  223DPPC   C4711147   3.743   7.455   3.452
  223DPPC   C4811148   3.698   7.469   3.307
  223DPPC   C4911149   3.821   7.442   3.219
  223DPPC   C5011150   3.787   7.467   3.072
  224DPPC    C111151   3.596   3.406   6.068
  224DPPC    C211152   3.379   3.321   5.995
  224DPPC    C311153   3.394   3.534   6.081
  224DPPC    N411154   3.469   3.437   6.000
  224DPPC    C511155   3.489   3.506   5.872
  224DPPC    C611156   3.595   3.453   5.775
  224DPPC    O711157   3.582   3.317   5.735
  224DPPC    P811158   3.723   3.255   5.687
  224DPPC    O911159   3.670   3.117   5.690
  224DPPC   O1011160   3.821   3.311   5.782
  224DPPC   O1111161   3.721   3.322   5.541
  224DPPC   C1211162   3.709   3.215   5.447
  224DPPC   C1311163   3.708   3.255   5.299
  224DPPC   O1411164   3.700   3.145   5.208
  224DPPC   C1511165   3.792   3.045   5.200
  224DPPC   O1611166   3.890   3.047   5.274
  224DPPC   C1711167   3.800   2.972   5.066
  224DPPC   C1811168   3.784   3.071   4.951
  224DPPC   C1911169   3.787   2.994   4.818
  224DPPC   C2011170   3.781   3.088   4.697
  224DPPC   C2111171   3.784   3.034   4.554
  224DPPC   C2211172   3.668   2.941   4.516
  224DPPC   C2311173   3.689   2.895   4.372
  224DPPC   C2411174   3.575   2.811   4.315
  224DPPC   C2511175   3.593   2.796   4.164
  224DPPC   C2611176   3.720   2.717   4.132
  224DPPC   C2711177   3.708   2.637   4.002
  224DPPC   C2811178   3.683   2.721   3.876
  224DPPC   C2911179   3.700   2.643   3.746
  224DPPC   C3011180   3.683   2.731   3.622
  224DPPC   C3111181   3.699   2.652   3.492
  224DPPC   C3211182   3.836   3.338   5.287
  224DPPC   O3311183   3.822   3.439   5.187
  224DPPC   C3411184   3.938   3.503   5.155
  224DPPC   O3511185   4.040   3.495   5.223
  224DPPC   C3611186   3.928   3.592   5.031
  224DPPC   C3711187   3.845   3.538   4.913
  224DPPC   C3811188   3.859   3.638   4.798
  224DPPC   C3911189   3.792   3.586   4.670
  224DPPC   C4011190   3.801   3.685   4.554
  224DPPC   C4111191   3.757   3.618   4.423
  224DPPC   C4211192   3.803   3.684   4.293
  224DPPC   C4311193   3.724   3.624   4.177
  224DPPC   C4411194   3.755   3.705   4.051
  224DPPC   C4511195   3.700   3.629   3.930
  224DPPC   C4611196   3.687   3.725   3.812
  224DPPC   C4711197   3.687   3.646   3.681
  224DPPC   C4811198   3.806   3.551   3.671
  224DPPC   C4911199   3.778   3.473   3.543
  224DPPC   C5011200   3.871   3.355   3.511
  225DPPC    C111201   9.003   3.050   5.316
  225DPPC    C211202   9.191   3.181   5.316
  225DPPC    C311203   9.089   3.114   5.524
  225DPPC    N411204   9.129   3.070   5.390
  225DPPC    C511205   9.213   2.950   5.397
  225DPPC    C611206   9.343   2.954   5.478
  225DPPC    O711207   9.437   3.058   5.449
  225DPPC    P811208   9.563   3.031   5.545
  225DPPC    O911209   9.529   2.928   5.646
  225DPPC   O1011210   9.623   3.164   5.572
  225DPPC   O1111211   9.648   2.954   5.432
  225DPPC   C1211212   9.724   3.044   5.351
  225DPPC   C1311213   9.710   3.022   5.201
  225DPPC   O1411214   9.790   3.121   5.134
  225DPPC   C1511215   9.924   3.112   5.112
  225DPPC   O1611216   9.994   3.079   5.207
  225DPPC   C1711217   9.971   3.218   5.013
  225DPPC   C1811218   9.967   3.153   4.874
  225DPPC   C1911219  10.004   3.255   4.767
  225DPPC   C2011220   9.964   3.199   4.630
  225DPPC   C2111221  10.016   3.283   4.513
  225DPPC   C2211222   9.939   3.239   4.389
  225DPPC   C2311223   9.989   3.301   4.258
  225DPPC   C2411224   9.893   3.266   4.144
  225DPPC   C2511225   9.944   3.315   4.008
  225DPPC   C2611226   9.845   3.295   3.893
  225DPPC   C2711227   9.899   3.351   3.762
  225DPPC   C2811228   9.822   3.289   3.645
  225DPPC   C2911229   9.910   3.300   3.521
  225DPPC   C3011230   9.841   3.241   3.398
  225DPPC   C3111231   9.922   3.272   3.272
  225DPPC   C3211232   9.560   3.024   5.175
  225DPPC   O3311233   9.523   2.925   5.078
  225DPPC   C3411234   9.402   2.938   5.017
  225DPPC   O3511235   9.326   3.027   5.055
  225DPPC   C3611236   9.368   2.821   4.925
  225DPPC   C3711237   9.405   2.867   4.784
  225DPPC   C3811238   9.360   2.742   4.707
  225DPPC   C3911239   9.395   2.756   4.559
  225DPPC   C4011240   9.402   2.620   4.489
  225DPPC   C4111241   9.425   2.633   4.339
  225DPPC   C4211242   9.442   2.495   4.275
  225DPPC   C4311243   9.424   2.520   4.125
  225DPPC   C4411244   9.463   2.395   4.045
  225DPPC   C4511245   9.452   2.415   3.893
  225DPPC   C4611246   9.574   2.498   3.853
  225DPPC   C4711247   9.568   2.531   3.703
  225DPPC   C4811248   9.573   2.406   3.615
  225DPPC   C4911249   9.593   2.431   3.465
  225DPPC   C5011250   9.725   2.508   3.451
  226DPPC    C111251   3.875   7.888   5.578
  226DPPC    C211252   3.846   8.118   5.555
  226DPPC    C311253   4.063   8.044   5.537
  226DPPC    N411254   3.925   8.005   5.505
  226DPPC    C511255   3.891   7.986   5.363
  226DPPC    C611256   3.974   7.891   5.275
  226DPPC    O711257   4.081   7.960   5.210
  226DPPC    P811258   4.170   7.846   5.140
  226DPPC    O911259   4.063   7.791   5.055
  226DPPC   O1011260   4.215   7.777   5.264
  226DPPC   O1111261   4.256   7.973   5.093
  226DPPC   C1211262   4.215   8.039   4.973
  226DPPC   C1311263   4.315   8.053   4.858
  226DPPC   O1411264   4.270   8.127   4.743
  226DPPC   C1511265   4.293   8.261   4.734
  226DPPC   O1611266   4.327   8.322   4.835
  226DPPC   C1711267   4.246   8.327   4.605
  226DPPC   C1811268   4.355   8.396   4.522
  226DPPC   C1911269   4.483   8.314   4.500
  226DPPC   C2011270   4.573   8.356   4.384
  226DPPC   C2111271   4.712   8.292   4.396
  226DPPC   C2211272   4.786   8.308   4.263
  226DPPC   C2311273   4.928   8.254   4.276
  226DPPC   C2411274   4.988   8.243   4.136
  226DPPC   C2511275   5.133   8.196   4.129
  226DPPC   C2611276   5.193   8.197   3.988
  226DPPC   C2711277   5.332   8.135   3.998
  226DPPC   C2811278   5.410   8.160   3.870
  226DPPC   C2911279   5.337   8.093   3.753
  226DPPC   C3011280   5.437   8.071   3.640
  226DPPC   C3111281   5.546   7.974   3.684
  226DPPC   C3211282   4.378   7.917   4.829
  226DPPC   O3311283   4.281   7.813   4.818
  226DPPC   C3411284   4.334   7.688   4.819
  226DPPC   O3511285   4.452   7.663   4.841
  226DPPC   C3611286   4.238   7.571   4.793
  226DPPC   C3711287   4.208   7.545   4.645
  226DPPC   C3811288   4.319   7.479   4.564
  226DPPC   C3911289   4.267   7.353   4.495
  226DPPC   C4011290   4.387   7.310   4.411
  226DPPC   C4111291   4.352   7.219   4.293
  226DPPC   C4211292   4.474   7.199   4.204
  226DPPC   C4311293   4.429   7.132   4.074
  226DPPC   C4411294   4.548   7.126   3.979
  226DPPC   C4511295   4.493   7.089   3.841
  226DPPC   C4611296   4.606   7.025   3.761
  226DPPC   C4711297   4.564   6.978   3.621
  226DPPC   C4811298   4.688   6.921   3.552
  226DPPC   C4911299   4.663   6.882   3.407
  226DPPC   C5011300   4.793   6.850   3.331
  227DPPC    C111301   4.746   4.066   1.537
  227DPPC    C211302   4.802   4.281   1.491
  227DPPC    C311303   4.573   4.229   1.475
  227DPPC    N411304   4.694   4.202   1.553
  227DPPC    C511305   4.676   4.245   1.693
  227DPPC    C611306   4.659   4.395   1.719
  227DPPC    O711307   4.632   4.423   1.856
  227DPPC    P811308   4.691   4.565   1.904
  227DPPC    O911309   4.619   4.607   2.026
  227DPPC   O1011310   4.706   4.650   1.783
  227DPPC   O1111311   4.843   4.527   1.942
  227DPPC   C1211312   4.848   4.517   2.084
  227DPPC   C1311313   4.984   4.460   2.123
  227DPPC   O1411314   4.993   4.385   2.244
  227DPPC   C1511315   4.926   4.267   2.258
  227DPPC   O1611316   4.867   4.223   2.160
  227DPPC   C1711317   4.918   4.203   2.397
  227DPPC   C1811318   5.034   4.109   2.431
  227DPPC   C1911319   5.034   4.086   2.583
  227DPPC   C2011320   5.138   3.990   2.640
  227DPPC   C2111321   5.111   3.964   2.788
  227DPPC   C2211322   5.219   3.885   2.862
  227DPPC   C2311323   5.191   3.837   3.004
  227DPPC   C2411324   5.328   3.844   3.071
  227DPPC   C2511325   5.279   3.791   3.206
  227DPPC   C2611326   5.388   3.771   3.312
  227DPPC   C2711327   5.320   3.750   3.447
  227DPPC   C2811328   5.418   3.739   3.565
  227DPPC   C2911329   5.356   3.691   3.696
  227DPPC   C3011330   5.306   3.548   3.677
  227DPPC   C3111331   5.256   3.508   3.816
  227DPPC   C3211332   5.087   4.571   2.100
  227DPPC   O3311333   5.077   4.666   2.207
  227DPPC   C3411334   5.187   4.745   2.220
  227DPPC   O3511335   5.260   4.763   2.123
  227DPPC   C3611336   5.203   4.839   2.340
  227DPPC   C3711337   5.327   4.798   2.419
  227DPPC   C3811338   5.362   4.886   2.540
  227DPPC   C3911339   5.282   4.857   2.667
  227DPPC   C4011340   5.323   4.949   2.782
  227DPPC   C4111341   5.264   4.926   2.921
  227DPPC   C4211342   5.360   4.987   3.023
  227DPPC   C4311343   5.284   4.984   3.156
  227DPPC   C4411344   5.352   5.047   3.278
  227DPPC   C4511345   5.288   4.989   3.405
  227DPPC   C4611346   5.386   5.022   3.518
  227DPPC   C4711347   5.350   4.934   3.638
  227DPPC   C4811348   5.456   4.961   3.746
  227DPPC   C4911349   5.409   4.867   3.856
  227DPPC   C5011350   5.492   4.878   3.984
  228DPPC    C111351   5.577   2.685   2.065
  228DPPC    C211352   5.739   2.608   1.895
  228DPPC    C311353   5.543   2.502   1.911
  228DPPC    N411354   5.599   2.637   1.928
  228DPPC    C511355   5.522   2.712   1.828
  228DPPC    C611356   5.527   2.865   1.829
  228DPPC    O711357   5.651   2.909   1.774
  228DPPC    P811358   5.639   3.065   1.738
  228DPPC    O911359   5.503   3.086   1.685
  228DPPC   O1011360   5.758   3.099   1.656
  228DPPC   O1111361   5.640   3.138   1.881
  228DPPC   C1211362   5.765   3.108   1.943
  228DPPC   C1311363   5.771   3.126   2.095
  228DPPC   O1411364   5.700   3.025   2.167
  228DPPC   C1511365   5.718   3.031   2.302
  228DPPC   O1611366   5.816   3.078   2.359
  228DPPC   C1711367   5.624   2.935   2.376
  228DPPC   C1811368   5.573   3.009   2.500
  228DPPC   C1911369   5.492   2.912   2.585
  228DPPC   C2011370   5.440   2.997   2.700
  228DPPC   C2111371   5.353   2.917   2.798
  228DPPC   C2211372   5.309   3.026   2.896
  228DPPC   C2311373   5.246   2.969   3.024
  228DPPC   C2411374   5.113   2.904   2.984
  228DPPC   C2511375   5.020   2.885   3.104
  228DPPC   C2611376   4.906   2.786   3.077
  228DPPC   C2711377   4.869   2.705   3.202
  228DPPC   C2811378   4.987   2.621   3.251
  228DPPC   C2911379   4.935   2.554   3.378
  228DPPC   C3011380   5.045   2.456   3.421
  228DPPC   C3111381   4.996   2.352   3.522
  228DPPC   C3211382   5.730   3.269   2.130
  228DPPC   O3311383   5.835   3.366   2.132
  228DPPC   C3411384   5.794   3.493   2.159
  228DPPC   O3511385   5.681   3.527   2.123
  228DPPC   C3611386   5.911   3.579   2.206
  228DPPC   C3711387   5.889   3.671   2.326
  228DPPC   C3811388   5.912   3.600   2.460
  228DPPC   C3911389   5.906   3.713   2.563
  228DPPC   C4011390   5.904   3.653   2.703
  228DPPC   C4111391   5.899   3.770   2.801
  228DPPC   C4211392   5.896   3.690   2.932
  228DPPC   C4311393   5.877   3.788   3.048
  228DPPC   C4411394   5.857   3.706   3.175
  228DPPC   C4511395   5.808   3.806   3.281
  228DPPC   C4611396   5.842   3.768   3.425
  228DPPC   C4711397   5.977   3.831   3.458
  228DPPC   C4811398   6.098   3.759   3.397
  228DPPC   C4911399   6.218   3.840   3.447
  228DPPC   C5011400   6.347   3.792   3.381
  229DPPC    C111401   3.327   3.881   2.131
  229DPPC    C211402   3.559   3.922   2.120
  229DPPC    C311403   3.466   3.797   2.309
  229DPPC    N411404   3.458   3.825   2.164
  229DPPC    C511405   3.484   3.698   2.095
  229DPPC    C611406   3.383   3.585   2.119
  229DPPC    O711407   3.440   3.458   2.084
  229DPPC    P811408   3.353   3.327   2.117
  229DPPC    O911409   3.439   3.229   2.046
  229DPPC   O1011410   3.214   3.358   2.076
  229DPPC   O1111411   3.385   3.337   2.275
  229DPPC   C1211412   3.407   3.207   2.330
  229DPPC   C1311413   3.436   3.203   2.480
  229DPPC   O1411414   3.318   3.176   2.557
  229DPPC   C1511415   3.288   3.046   2.586
  229DPPC   O1611416   3.346   2.955   2.527
  229DPPC   C1711417   3.174   3.015   2.683
  229DPPC   C1811418   3.226   2.915   2.787
  229DPPC   C1911419   3.127   2.891   2.901
  229DPPC   C2011420   3.183   2.793   3.004
  229DPPC   C2111421   3.123   2.816   3.143
  229DPPC   C2211422   3.077   2.683   3.204
  229DPPC   C2311423   3.008   2.711   3.337
  229DPPC   C2411424   2.932   2.586   3.381
  229DPPC   C2511425   2.897   2.579   3.530
  229DPPC   C2611426   2.813   2.455   3.559
  229DPPC   C2711427   2.818   2.402   3.702
  229DPPC   C2811428   2.797   2.519   3.799
  229DPPC   C2911429   2.801   2.459   3.940
  229DPPC   C3011430   2.853   2.534   4.062
  229DPPC   C3111431   2.857   2.436   4.180
  229DPPC   C3211432   3.505   3.330   2.529
  229DPPC   O3311433   3.627   3.362   2.460
  229DPPC   C3411434   3.682   3.484   2.480
  229DPPC   O3511435   3.623   3.585   2.518
  229DPPC   C3611436   3.823   3.490   2.419
  229DPPC   C3711437   3.941   3.465   2.513
  229DPPC   C3811438   3.918   3.543   2.643
  229DPPC   C3911439   4.046   3.532   2.727
  229DPPC   C4011440   4.036   3.618   2.853
  229DPPC   C4111441   4.161   3.596   2.939
  229DPPC   C4211442   4.125   3.644   3.080
  229DPPC   C4311443   4.240   3.676   3.176
  229DPPC   C4411444   4.177   3.711   3.311
  229DPPC   C4511445   4.285   3.743   3.414
  229DPPC   C4611446   4.232   3.769   3.555
  229DPPC   C4711447   4.180   3.913   3.565
  229DPPC   C4811448   4.141   3.944   3.709
  229DPPC   C4911449   4.125   4.095   3.724
  229DPPC   C5011450   4.077   4.120   3.867
  230DPPC    C111451   5.581   1.045   2.276
  230DPPC    C211452   5.420   1.033   2.461
  230DPPC    C311453   5.402   1.190   2.280
  230DPPC    N411454   5.440   1.053   2.316
  230DPPC    C511455   5.368   0.941   2.254
  230DPPC    C611456   5.391   0.891   2.111
  230DPPC    O711457   5.280   0.836   2.041
  230DPPC    P811458   5.315   0.689   1.987
  230DPPC    O911459   5.443   0.706   1.916
  230DPPC   O1011460   5.202   0.640   1.904
  230DPPC   O1111461   5.330   0.624   2.133
  230DPPC   C1211462   5.200   0.577   2.171
  230DPPC   C1311463   5.163   0.592   2.319
  230DPPC   O1411464   5.122   0.721   2.365
  230DPPC   C1511465   4.997   0.770   2.340
  230DPPC   O1611466   4.923   0.731   2.250
  230DPPC   C1711467   4.942   0.879   2.432
  230DPPC   C1811468   4.927   0.823   2.574
  230DPPC   C1911469   4.885   0.943   2.658
  230DPPC   C2011470   4.885   0.903   2.806
  230DPPC   C2111471   4.849   1.030   2.884
  230DPPC   C2211472   4.699   1.060   2.889
  230DPPC   C2311473   4.690   1.172   2.993
  230DPPC   C2411474   4.791   1.282   2.960
  230DPPC   C2511475   4.770   1.389   3.067
  230DPPC   C2611476   4.817   1.332   3.202
  230DPPC   C2711477   4.799   1.416   3.328
  230DPPC   C2811478   4.832   1.318   3.441
  230DPPC   C2911479   4.966   1.246   3.430
  230DPPC   C3011480   4.981   1.173   3.563
  230DPPC   C3111481   5.100   1.078   3.576
  230DPPC   C3211482   5.284   0.534   2.393
  230DPPC   O3311483   5.289   0.517   2.534
  230DPPC   C3411484   5.335   0.630   2.593
  230DPPC   O3511485   5.386   0.724   2.532
  230DPPC   C3611486   5.322   0.639   2.745
  230DPPC   C3711487   5.330   0.500   2.808
  230DPPC   C3811488   5.353   0.511   2.959
  230DPPC   C3911489   5.326   0.376   3.024
  230DPPC   C4011490   5.346   0.375   3.176
  230DPPC   C4111491   5.310   0.232   3.219
  230DPPC   C4211492   5.163   0.195   3.205
  230DPPC   C4311493   5.092   0.264   3.322
  230DPPC   C4411494   4.941   0.242   3.321
  230DPPC   C4511495   4.863   0.313   3.433
  230DPPC   C4611496   4.711   0.300   3.426
  230DPPC   C4711497   4.644   0.382   3.537
  230DPPC   C4811498   4.652   0.530   3.502
  230DPPC   C4911499   4.513   0.583   3.465
  230DPPC   C5011500   4.406   0.552   3.570
  231DPPC    C111501   1.124   0.155   1.763
  231DPPC    C211502   1.205   0.335   1.665
  231DPPC    C311503   1.374   0.207   1.778
  231DPPC    N411504   1.249   0.199   1.700
  231DPPC    C511505   1.276   0.124   1.577
  231DPPC    C611506   1.358  -0.005   1.574
  231DPPC    O711507   1.292  -0.112   1.643
  231DPPC    P811508   1.398  -0.229   1.676
  231DPPC    O911509   1.493  -0.186   1.781
  231DPPC   O1011510   1.420  -0.310   1.554
  231DPPC   O1111511   1.282  -0.309   1.753
  231DPPC   C1211512   1.271  -0.254   1.885
  231DPPC   C1311513   1.135  -0.276   1.951
  231DPPC   O1411514   1.115  -0.206   2.075
  231DPPC   C1511515   1.014  -0.115   2.079
  231DPPC   O1611516   0.939  -0.102   1.982
  231DPPC   C1711517   1.004  -0.021   2.200
  231DPPC   C1811518   1.040   0.123   2.164
  231DPPC   C1911519   0.991   0.226   2.267
  231DPPC   C2011520   0.839   0.243   2.265
  231DPPC   C2111521   0.802   0.360   2.356
  231DPPC   C2211522   0.855   0.343   2.498
  231DPPC   C2311523   0.822   0.462   2.587
  231DPPC   C2411524   0.855   0.423   2.731
  231DPPC   C2511525   0.814   0.546   2.812
  231DPPC   C2611526   0.850   0.532   2.960
  231DPPC   C2711527   0.810   0.654   3.044
  231DPPC   C2811528   0.816   0.616   3.192
  231DPPC   C2911529   0.819   0.744   3.277
  231DPPC   C3011530   0.835   0.714   3.426
  231DPPC   C3111531   0.717   0.635   3.482
  231DPPC   C3211532   1.116  -0.428   1.946
  231DPPC   O3311533   1.237  -0.496   1.980
  231DPPC   C3411534   1.221  -0.629   2.005
  231DPPC   O3511535   1.155  -0.696   1.926
  231DPPC   C3611536   1.326  -0.687   2.100
  231DPPC   C3711537   1.255  -0.724   2.230
  231DPPC   C3811538   1.370  -0.793   2.302
  231DPPC   C3911539   1.342  -0.868   2.433
  231DPPC   C4011540   1.475  -0.925   2.483
  231DPPC   C4111541   1.459  -1.006   2.612
  231DPPC   C4211542   1.600  -1.046   2.655
  231DPPC   C4311543   1.670  -0.914   2.689
  231DPPC   C4411544   1.792  -0.924   2.780
  231DPPC   C4511545   1.856  -0.785   2.783
  231DPPC   C4611546   1.998  -0.798   2.727
  231DPPC   C4711547   2.081  -0.670   2.742
  231DPPC   C4811548   2.215  -0.707   2.806
  231DPPC   C4911549   2.335  -0.646   2.734
  231DPPC   C5011550   2.459  -0.722   2.783
  232DPPC    C111551   7.754   6.832   1.244
  232DPPC    C211552   7.858   6.959   1.425
  232DPPC    C311553   7.635   6.993   1.369
  232DPPC    N411554   7.738   6.888   1.379
  232DPPC    C511555   7.706   6.777   1.470
  232DPPC    C611556   7.817   6.676   1.502
  232DPPC    O711557   7.767   6.557   1.564
  232DPPC    P811558   7.839   6.421   1.516
  232DPPC    O911559   7.885   6.435   1.376
  232DPPC   O1011560   7.750   6.311   1.559
  232DPPC   O1111561   7.962   6.423   1.620
  232DPPC   C1211562   7.921   6.383   1.751
  232DPPC   C1311563   8.002   6.449   1.863
  232DPPC   O1411564   8.005   6.372   1.984
  232DPPC   C1511565   8.113   6.291   2.001
  232DPPC   O1611566   8.204   6.295   1.919
  232DPPC   C1711567   8.118   6.210   2.131
  232DPPC   C1811568   8.246   6.234   2.211
  232DPPC   C1911569   8.236   6.145   2.335
  232DPPC   C2011570   8.343   6.170   2.443
  232DPPC   C2111571   8.310   6.081   2.563
  232DPPC   C2211572   8.410   6.085   2.679
  232DPPC   C2311573   8.360   6.005   2.799
  232DPPC   C2411574   8.447   6.040   2.920
  232DPPC   C2511575   8.598   6.037   2.899
  232DPPC   C2611576   8.667   6.068   3.032
  232DPPC   C2711577   8.666   5.943   3.120
  232DPPC   C2811578   8.729   5.970   3.258
  232DPPC   C2911579   8.657   6.084   3.330
  232DPPC   C3011580   8.706   6.104   3.474
  232DPPC   C3111581   8.626   6.215   3.543
  232DPPC   C3211582   7.952   6.594   1.867
  232DPPC   O3311583   7.812   6.611   1.891
  232DPPC   C3411584   7.771   6.740   1.880
  232DPPC   O3511585   7.835   6.820   1.811
  232DPPC   C3611586   7.633   6.768   1.939
  232DPPC   C3711587   7.641   6.863   2.059
  232DPPC   C3811588   7.673   6.778   2.182
  232DPPC   C3911589   7.682   6.881   2.295
  232DPPC   C4011590   7.547   6.951   2.313
  232DPPC   C4111591   7.552   7.047   2.432
  232DPPC   C4211592   7.602   6.966   2.551
  232DPPC   C4311593   7.608   7.047   2.681
  232DPPC   C4411594   7.654   6.966   2.802
  232DPPC   C4511595   7.781   6.885   2.776
  232DPPC   C4611596   7.783   6.765   2.871
  232DPPC   C4711597   7.927   6.714   2.876
  232DPPC   C4811598   7.945   6.589   2.963
  232DPPC   C4911599   7.838   6.490   2.916
  232DPPC   C5011600   7.833   6.373   3.015
  233DPPC    C111601   0.465   5.309   1.210
  233DPPC    C211602   0.637   5.145   1.213
  233DPPC    C311603   0.673   5.362   1.152
  233DPPC    N411604   0.603   5.282   1.254
  233DPPC    C511605   0.638   5.305   1.395
  233DPPC    C611606   0.624   5.449   1.443
  233DPPC    O711607   0.746   5.504   1.494
  233DPPC    P811608   0.719   5.657   1.535
  233DPPC    O911609   0.630   5.702   1.425
  233DPPC   O1011610   0.844   5.730   1.565
  233DPPC   O1111611   0.629   5.634   1.667
  233DPPC   C1211612   0.584   5.751   1.736
  233DPPC   C1311613   0.464   5.834   1.689
  233DPPC   O1411614   0.446   5.954   1.766
  233DPPC   C1511615   0.510   6.068   1.729
  233DPPC   O1611616   0.590   6.060   1.636
  233DPPC   C1711617   0.504   6.186   1.826
  233DPPC   C1811618   0.639   6.226   1.885
  233DPPC   C1911619   0.607   6.331   1.991
  233DPPC   C2011620   0.738   6.383   2.052
  233DPPC   C2111621   0.815   6.274   2.126
  233DPPC   C2211622   0.942   6.325   2.195
  233DPPC   C2311623   1.008   6.204   2.261
  233DPPC   C2411624   1.154   6.234   2.293
  233DPPC   C2511625   1.214   6.124   2.381
  233DPPC   C2611626   1.212   5.991   2.305
  233DPPC   C2711627   1.309   5.890   2.367
  233DPPC   C2811628   1.301   5.903   2.519
  233DPPC   C2911629   1.405   5.810   2.583
  233DPPC   C3011630   1.383   5.804   2.735
  233DPPC   C3111631   1.459   5.688   2.800
  233DPPC   C3211632   0.345   5.740   1.712
  233DPPC   O3311633   0.359   5.662   1.831
  233DPPC   C3411634   0.250   5.585   1.857
  233DPPC   O3511635   0.159   5.583   1.774
  233DPPC   C3611636   0.245   5.509   1.990
  233DPPC   C3711637   0.177   5.590   2.101
  233DPPC   C3811638   0.246   5.723   2.131
  233DPPC   C3911639   0.172   5.811   2.231
  233DPPC   C4011640   0.257   5.933   2.269
  233DPPC   C4111641   0.392   5.887   2.324
  233DPPC   C4211642   0.483   6.005   2.360
  233DPPC   C4311643   0.615   5.948   2.410
  233DPPC   C4411644   0.713   6.042   2.481
  233DPPC   C4511645   0.811   5.965   2.570
  233DPPC   C4611646   0.862   6.054   2.683
  233DPPC   C4711647   0.986   5.992   2.748
  233DPPC   C4811648   1.042   6.081   2.860
  233DPPC   C4911649   1.133   5.998   2.951
  233DPPC   C5011650   1.038   5.888   3.000
  234DPPC    C111651   8.587   1.828   1.082
  234DPPC    C211652   8.516   1.607   1.131
  234DPPC    C311653   8.726   1.634   1.061
  234DPPC    N411654   8.627   1.702   1.146
  234DPPC    C511655   8.676   1.714   1.284
  234DPPC    C611656   8.785   1.807   1.338
  234DPPC    O711657   8.914   1.791   1.278
  234DPPC    P811658   9.010   1.916   1.309
  234DPPC    O911659   8.913   2.024   1.280
  234DPPC   O1011660   9.128   1.886   1.224
  234DPPC   O1111661   9.031   1.867   1.461
  234DPPC   C1211662   8.985   1.965   1.555
  234DPPC   C1311663   8.956   1.891   1.686
  234DPPC   O1411664   8.932   1.983   1.793
  234DPPC   C1511665   8.832   1.945   1.878
  234DPPC   O1611666   8.723   1.908   1.835
  234DPPC   C1711667   8.843   2.003   2.019
  234DPPC   C1811668   8.990   2.020   2.057
  234DPPC   C1911669   9.018   2.032   2.207
  234DPPC   C2011670   8.974   1.909   2.288
  234DPPC   C2111671   9.004   1.923   2.437
  234DPPC   C2211672   8.946   1.798   2.504
  234DPPC   C2311673   8.938   1.831   2.654
  234DPPC   C2411674   8.826   1.753   2.722
  234DPPC   C2511675   8.823   1.787   2.872
  234DPPC   C2611676   8.700   1.733   2.944
  234DPPC   C2711677   8.695   1.758   3.095
  234DPPC   C2811678   8.568   1.701   3.159
  234DPPC   C2911679   8.573   1.698   3.312
  234DPPC   C3011680   8.437   1.648   3.360
  234DPPC   C3111681   8.434   1.649   3.513
  234DPPC   C3211682   9.087   1.819   1.717
  234DPPC   O3311683   9.092   1.715   1.815
  234DPPC   C3411684   9.034   1.592   1.807
  234DPPC   O3511685   9.013   1.550   1.694
  234DPPC   C3611686   9.040   1.500   1.929
  234DPPC   C3711687   8.929   1.560   2.017
  234DPPC   C3811688   8.929   1.480   2.148
  234DPPC   C3911689   8.805   1.519   2.228
  234DPPC   C4011690   8.787   1.456   2.366
  234DPPC   C4111691   8.641   1.488   2.398
  234DPPC   C4211692   8.597   1.428   2.531
  234DPPC   C4311693   8.464   1.485   2.580
  234DPPC   C4411694   8.435   1.413   2.712
  234DPPC   C4511695   8.331   1.501   2.782
  234DPPC   C4611696   8.305   1.433   2.917
  234DPPC   C4711697   8.427   1.397   3.002
  234DPPC   C4811698   8.394   1.333   3.136
  234DPPC   C4911699   8.517   1.293   3.218
  234DPPC   C5011700   8.477   1.196   3.330
  235DPPC    C111701   2.648   3.995   1.969
  235DPPC    C211702   2.462   4.143   1.947
  235DPPC    C311703   2.552   4.093   2.160
  235DPPC    N411704   2.587   4.119   2.020
  235DPPC    C511705   2.681   4.232   2.025
  235DPPC    C611706   2.729   4.282   1.889
  235DPPC    O711707   2.806   4.401   1.902
  235DPPC    P811708   2.848   4.447   1.753
  235DPPC    O911709   2.824   4.336   1.658
  235DPPC   O1011710   2.981   4.510   1.740
  235DPPC   O1111711   2.729   4.553   1.728
  235DPPC   C1211712   2.752   4.654   1.826
  235DPPC   C1311713   2.635   4.746   1.863
  235DPPC   O1411714   2.680   4.860   1.938
  235DPPC   C1511715   2.593   4.963   1.944
  235DPPC   O1611716   2.500   4.971   1.863
  235DPPC   C1711717   2.609   5.061   2.061
  235DPPC   C1811718   2.641   4.976   2.184
  235DPPC   C1911719   2.527   4.893   2.242
  235DPPC   C2011720   2.591   4.835   2.369
  235DPPC   C2111721   2.500   4.743   2.451
  235DPPC   C2211722   2.560   4.741   2.592
  235DPPC   C2311723   2.523   4.866   2.671
  235DPPC   C2411724   2.597   4.858   2.804
  235DPPC   C2511725   2.582   4.997   2.865
  235DPPC   C2611726   2.434   5.037   2.875
  235DPPC   C2711727   2.407   5.176   2.932
  235DPPC   C2811728   2.436   5.162   3.082
  235DPPC   C2911729   2.409   5.284   3.169
  235DPPC   C3011730   2.421   5.241   3.316
  235DPPC   C3111731   2.361   5.338   3.417
  235DPPC   C3211732   2.522   4.655   1.912
  235DPPC   O3311733   2.525   4.577   2.031
  235DPPC   C3411734   2.411   4.513   2.068
  235DPPC   O3511735   2.334   4.488   1.976
  235DPPC   C3611736   2.417   4.447   2.206
  235DPPC   C3711737   2.285   4.377   2.239
  235DPPC   C3811738   2.293   4.295   2.368
  235DPPC   C3911739   2.341   4.366   2.494
  235DPPC   C4011740   2.327   4.281   2.621
  235DPPC   C4111741   2.374   4.345   2.752
  235DPPC   C4211742   2.280   4.451   2.809
  235DPPC   C4311743   2.360   4.513   2.924
  235DPPC   C4411744   2.254   4.599   2.992
  235DPPC   C4511745   2.304   4.655   3.126
  235DPPC   C4611746   2.238   4.786   3.171
  235DPPC   C4711747   2.300   4.840   3.300
  235DPPC   C4811748   2.285   4.736   3.412
  235DPPC   C4911749   2.347   4.797   3.538
  235DPPC   C5011750   2.493   4.836   3.513
  236DPPC    C111751   0.326   1.077   1.189
  236DPPC    C211752   0.193   1.203   1.031
  236DPPC    C311753   0.091   1.037   1.170
  236DPPC    N411754   0.196   1.141   1.165
  236DPPC    C511755   0.170   1.233   1.276
  236DPPC    C611756   0.236   1.371   1.283
  236DPPC    O711757   0.379   1.365   1.294
  236DPPC    P811758   0.445   1.512   1.291
  236DPPC    O911759   0.367   1.587   1.190
  236DPPC   O1011760   0.591   1.488   1.286
  236DPPC   O1111761   0.384   1.561   1.432
  236DPPC   C1211762   0.453   1.502   1.542
  236DPPC   C1311763   0.430   1.587   1.667
  236DPPC   O1411764   0.527   1.570   1.772
  236DPPC   C1511765   0.561   1.671   1.857
  236DPPC   O1611766   0.536   1.786   1.823
  236DPPC   C1711767   0.674   1.651   1.958
  236DPPC   C1811768   0.644   1.745   2.075
  236DPPC   C1911769   0.752   1.725   2.181
  236DPPC   C2011770   0.730   1.822   2.297
  236DPPC   C2111771   0.620   1.767   2.388
  236DPPC   C2211772   0.630   1.821   2.530
  236DPPC   C2311773   0.533   1.741   2.618
  236DPPC   C2411774   0.391   1.740   2.562
  236DPPC   C2511775   0.296   1.713   2.679
  236DPPC   C2611776   0.344   1.578   2.733
  236DPPC   C2711777   0.259   1.533   2.852
  236DPPC   C2811778   0.246   1.631   2.970
  236DPPC   C2911779   0.139   1.575   3.063
  236DPPC   C3011780   0.138   1.651   3.196
  236DPPC   C3111781   0.016   1.625   3.285
  236DPPC   C3211782   0.285   1.552   1.700
  236DPPC   O3311783   0.272   1.411   1.718
  236DPPC   C3411784   0.145   1.362   1.711
  236DPPC   O3511785   0.054   1.430   1.662
  236DPPC   C3611786   0.116   1.222   1.764
  236DPPC   C3711787   0.107   1.219   1.917
  236DPPC   C3811788  -0.040   1.242   1.955
  236DPPC   C3911789  -0.076   1.192   2.095
  236DPPC   C4011790  -0.219   1.215   2.144
  236DPPC   C4111791  -0.227   1.172   2.290
  236DPPC   C4211792  -0.207   1.021   2.305
  236DPPC   C4311793  -0.212   0.978   2.452
  236DPPC   C4411794  -0.202   0.827   2.470
  236DPPC   C4511795  -0.201   0.811   2.623
  236DPPC   C4611796  -0.168   0.670   2.671
  236DPPC   C4711797  -0.176   0.659   2.824
  236DPPC   C4811798  -0.049   0.720   2.885
  236DPPC   C4911799  -0.060   0.732   3.037
  236DPPC   C5011800   0.064   0.802   3.093
  237DPPC    C111801   7.419   7.677   1.707
  237DPPC    C211802   7.631   7.565   1.732
  237DPPC    C311803   7.476   7.494   1.585
  237DPPC    N411804   7.534   7.619   1.635
  237DPPC    C511805   7.604   7.689   1.526
  237DPPC    C611806   7.646   7.835   1.546
  237DPPC    O711807   7.537   7.928   1.549
  237DPPC    P811808   7.593   8.077   1.576
  237DPPC    O911809   7.496   8.178   1.530
  237DPPC   O1011810   7.736   8.076   1.540
  237DPPC   O1111811   7.573   8.061   1.735
  237DPPC   C1211812   7.438   8.065   1.782
  237DPPC   C1311813   7.433   8.081   1.935
  237DPPC   O1411814   7.433   8.215   1.985
  237DPPC   C1511815   7.322   8.293   1.970
  237DPPC   O1611816   7.222   8.241   1.920
  237DPPC   C1711817   7.333   8.439   2.014
  237DPPC   C1811818   7.425   8.440   2.136
  237DPPC   C1911819   7.434   8.579   2.200
  237DPPC   C2011820   7.498   8.568   2.338
  237DPPC   C2111821   7.391   8.538   2.443
  237DPPC   C2211822   7.457   8.554   2.580
  237DPPC   C2311823   7.361   8.539   2.698
  237DPPC   C2411824   7.423   8.598   2.824
  237DPPC   C2511825   7.439   8.749   2.805
  237DPPC   C2611826   7.535   8.797   2.914
  237DPPC   C2711827   7.526   8.736   3.055
  237DPPC   C2811828   7.632   8.788   3.152
  237DPPC   C2911829   7.777   8.772   3.105
  237DPPC   C3011830   7.865   8.837   3.212
  237DPPC   C3111831   7.835   8.986   3.224
  237DPPC   C3211832   7.528   7.974   1.989
  237DPPC   O3311833   7.454   7.855   2.013
  237DPPC   C3411834   7.533   7.759   2.068
  237DPPC   O3511835   7.651   7.742   2.036
  237DPPC   C3611836   7.472   7.647   2.152
  237DPPC   C3711837   7.469   7.683   2.301
  237DPPC   C3811838   7.437   7.566   2.395
  237DPPC   C3911839   7.418   7.609   2.540
  237DPPC   C4011840   7.369   7.493   2.628
  237DPPC   C4111841   7.307   7.557   2.752
  237DPPC   C4211842   7.248   7.446   2.839
  237DPPC   C4311843   7.348   7.337   2.879
  237DPPC   C4411844   7.458   7.405   2.961
  237DPPC   C4511845   7.558   7.301   3.013
  237DPPC   C4611846   7.651   7.370   3.113
  237DPPC   C4711847   7.770   7.276   3.136
  237DPPC   C4811848   7.730   7.136   3.183
  237DPPC   C4911849   7.858   7.062   3.145
  237DPPC   C5011850   7.970   7.108   3.239
  238DPPC    C111851   3.319   2.018   2.419
  238DPPC    C211852   3.396   2.076   2.203
  238DPPC    C311853   3.164   2.029   2.230
  238DPPC    N411854   3.282   2.088   2.295
  238DPPC    C511855   3.227   2.222   2.317
  238DPPC    C611856   3.303   2.316   2.410
  238DPPC    O711857   3.403   2.392   2.340
  238DPPC    P811858   3.476   2.498   2.437
  238DPPC    O911859   3.401   2.519   2.563
  238DPPC   O1011860   3.542   2.609   2.365
  238DPPC   O1111861   3.592   2.389   2.464
  238DPPC   C1211862   3.587   2.368   2.606
  238DPPC   C1311863   3.637   2.238   2.668
  238DPPC   O1411864   3.588   2.224   2.802
  238DPPC   C1511865   3.576   2.100   2.857
  238DPPC   O1611866   3.573   1.999   2.786
  238DPPC   C1711867   3.541   2.088   3.005
  238DPPC   C1811868   3.661   2.064   3.097
  238DPPC   C1911869   3.638   2.068   3.248
  238DPPC   C2011870   3.581   2.198   3.304
  238DPPC   C2111871   3.559   2.177   3.454
  238DPPC   C2211872   3.501   2.307   3.511
  238DPPC   C2311873   3.508   2.300   3.664
  238DPPC   C2411874   3.648   2.272   3.721
  238DPPC   C2511875   3.632   2.256   3.872
  238DPPC   C2611876   3.578   2.130   3.940
  238DPPC   C2711877   3.608   2.132   4.090
  238DPPC   C2811878   3.513   2.223   4.168
  238DPPC   C2911879   3.537   2.204   4.317
  238DPPC   C3011880   3.496   2.063   4.358
  238DPPC   C3111881   3.502   2.023   4.506
  238DPPC   C3211882   3.789   2.243   2.653
  238DPPC   O3311883   3.855   2.369   2.668
  238DPPC   C3411884   3.989   2.375   2.650
  238DPPC   O3511885   4.052   2.272   2.626
  238DPPC   C3611886   4.056   2.513   2.652
  238DPPC   C3711887   4.129   2.547   2.782
  238DPPC   C3811888   4.216   2.673   2.772
  238DPPC   C3911889   4.301   2.688   2.898
  238DPPC   C4011890   4.208   2.681   3.019
  238DPPC   C4111891   4.275   2.686   3.157
  238DPPC   C4211892   4.171   2.656   3.265
  238DPPC   C4311893   4.215   2.652   3.411
  238DPPC   C4411894   4.112   2.643   3.525
  238DPPC   C4511895   4.034   2.512   3.520
  238DPPC   C4611896   4.097   2.394   3.595
  238DPPC   C4711897   4.008   2.270   3.582
  238DPPC   C4811898   4.037   2.151   3.673
  238DPPC   C4911899   4.145   2.063   3.610
  238DPPC   C5011900   4.090   2.029   3.471
  239DPPC    C111901   3.349   2.578   2.082
  239DPPC    C211902   3.529   2.675   1.950
  239DPPC    C311903   3.363   2.531   1.855
  239DPPC    N411904   3.386   2.638   1.953
  239DPPC    C511905   3.318   2.763   1.917
  239DPPC    C611906   3.166   2.747   1.902
  239DPPC    O711907   3.098   2.841   1.819
  239DPPC    P811908   2.949   2.787   1.791
  239DPPC    O911909   2.980   2.648   1.753
  239DPPC   O1011910   2.898   2.885   1.692
  239DPPC   O1111911   2.900   2.810   1.943
  239DPPC   C1211912   2.778   2.885   1.946
  239DPPC   C1311913   2.665   2.783   1.958
  239DPPC   O1411914   2.530   2.823   1.930
  239DPPC   C1511915   2.426   2.736   1.930
  239DPPC   O1611916   2.431   2.614   1.917
  239DPPC   C1711917   2.288   2.800   1.950
  239DPPC   C1811918   2.234   2.769   2.090
  239DPPC   C1911919   2.110   2.855   2.114
  239DPPC   C2011920   2.043   2.841   2.250
  239DPPC   C2111921   2.135   2.901   2.357
  239DPPC   C2211922   2.050   2.895   2.484
  239DPPC   C2311923   2.112   2.989   2.588
  239DPPC   C2411924   2.039   2.988   2.722
  239DPPC   C2511925   1.912   3.073   2.720
  239DPPC   C2611926   1.847   3.097   2.857
  239DPPC   C2711927   1.944   3.157   2.959
  239DPPC   C2811928   1.861   3.168   3.087
  239DPPC   C2911929   1.938   3.268   3.174
  239DPPC   C3011930   1.847   3.306   3.290
  239DPPC   C3111931   1.745   3.409   3.239
  239DPPC   C3211932   2.694   2.749   2.104
  239DPPC   O3311933   2.663   2.847   2.203
  239DPPC   C3411934   2.657   2.800   2.331
  239DPPC   O3511935   2.673   2.682   2.360
  239DPPC   C3611936   2.616   2.905   2.435
  239DPPC   C3711937   2.603   2.835   2.571
  239DPPC   C3811938   2.505   2.913   2.658
  239DPPC   C3911939   2.504   2.853   2.799
  239DPPC   C4011940   2.428   2.942   2.898
  239DPPC   C4111941   2.484   2.911   3.037
  239DPPC   C4211942   2.402   2.985   3.142
  239DPPC   C4311943   2.441   2.964   3.288
  239DPPC   C4411944   2.348   3.020   3.397
  239DPPC   C4511945   2.379   3.163   3.441
  239DPPC   C4611946   2.260   3.235   3.504
  239DPPC   C4711947   2.273   3.277   3.651
  239DPPC   C4811948   2.139   3.314   3.714
  239DPPC   C4911949   2.166   3.369   3.854
  239DPPC   C5011950   2.211   3.255   3.945
  240DPPC    C111951   1.312   4.651   1.291
  240DPPC    C211952   1.514   4.665   1.177
  240DPPC    C311953   1.296   4.704   1.069
  240DPPC    N411954   1.382   4.727   1.187
  240DPPC    C511955   1.393   4.872   1.209
  240DPPC    C611956   1.453   4.908   1.345
  240DPPC    O711957   1.358   4.948   1.444
  240DPPC    P811958   1.448   4.975   1.575
  240DPPC    O911959   1.357   5.052   1.663
  240DPPC   O1011960   1.569   5.040   1.519
  240DPPC   O1111961   1.462   4.818   1.606
  240DPPC   C1211962   1.353   4.775   1.688
  240DPPC   C1311963   1.313   4.628   1.700
  240DPPC   O1411964   1.192   4.604   1.773
  240DPPC   C1511965   1.079   4.572   1.705
  240DPPC   O1611966   1.093   4.560   1.583
  240DPPC   C1711967   0.945   4.548   1.775
  240DPPC   C1811968   0.888   4.667   1.852
  240DPPC   C1911969   0.743   4.633   1.887
  240DPPC   C2011970   0.704   4.753   1.973
  240DPPC   C2111971   0.632   4.695   2.095
  240DPPC   C2211972   0.592   4.811   2.186
  240DPPC   C2311973   0.730   4.866   2.224
  240DPPC   C2411974   0.709   4.971   2.334
  240DPPC   C2511975   0.853   5.006   2.375
  240DPPC   C2611976   0.937   5.087   2.276
  240DPPC   C2711977   1.072   5.095   2.348
  240DPPC   C2811978   1.038   5.146   2.488
  240DPPC   C2911979   1.162   5.198   2.562
  240DPPC   C3011980   1.130   5.234   2.707
  240DPPC   C3111981   1.218   5.346   2.763
  240DPPC   C3211982   1.441   4.563   1.752
  240DPPC   O3311983   1.483   4.604   1.883
  240DPPC   C3411984   1.564   4.514   1.943
  240DPPC   O3511985   1.614   4.422   1.878
  240DPPC   C3611986   1.593   4.531   2.093
  240DPPC   C3711987   1.493   4.628   2.157
  240DPPC   C3811988   1.521   4.609   2.306
  240DPPC   C3911989   1.551   4.464   2.344
  240DPPC   C4011990   1.559   4.434   2.494
  240DPPC   C4111991   1.429   4.449   2.574
  240DPPC   C4211992   1.463   4.438   2.723
  240DPPC   C4311993   1.343   4.491   2.801
  240DPPC   C4411994   1.359   4.500   2.953
  240DPPC   C4511995   1.253   4.592   3.014
  240DPPC   C4611996   1.285   4.597   3.163
  240DPPC   C4711997   1.413   4.674   3.198
  240DPPC   C4811998   1.428   4.682   3.350
  240DPPC   C4911999   1.538   4.781   3.384
  240DPPC   C5012000   1.535   4.831   3.529
  241DPPC    C112001   3.086   3.173   1.819
  241DPPC    C212002   3.290   3.213   1.725
  241DPPC    C312003   3.093   3.232   1.593
  241DPPC    N412004   3.152   3.264   1.724
  241DPPC    C512005   3.150   3.409   1.744
  241DPPC    C612006   3.009   3.459   1.775
  241DPPC    O712007   3.012   3.602   1.778
  241DPPC    P812008   2.860   3.639   1.817
  241DPPC    O912009   2.775   3.538   1.752
  241DPPC   O1012010   2.826   3.782   1.798
  241DPPC   O1112011   2.864   3.604   1.974
  241DPPC   C1212012   2.945   3.712   2.021
  241DPPC   C1312013   2.943   3.720   2.174
  241DPPC   O1412014   3.024   3.830   2.217
  241DPPC   C1512015   2.964   3.949   2.245
  241DPPC   O1612016   2.889   3.996   2.160
  241DPPC   C1712017   3.036   4.034   2.349
  241DPPC   C1812018   3.125   3.969   2.456
  241DPPC   C1912019   3.182   4.083   2.540
  241DPPC   C2012020   3.300   4.041   2.627
  241DPPC   C2112021   3.262   3.946   2.741
  241DPPC   C2212022   3.383   3.937   2.835
  241DPPC   C2312023   3.409   3.791   2.872
  241DPPC   C2412024   3.528   3.797   2.968
  241DPPC   C2512025   3.573   3.663   3.027
  241DPPC   C2612026   3.693   3.683   3.119
  241DPPC   C2712027   3.740   3.545   3.166
  241DPPC   C2812028   3.752   3.444   3.052
  241DPPC   C2912029   3.809   3.316   3.114
  241DPPC   C3012030   3.833   3.213   3.003
  241DPPC   C3112031   3.706   3.206   2.918
  241DPPC   C3212032   3.005   3.587   2.218
  241DPPC   O3312033   3.002   3.554   2.357
  241DPPC   C3412034   3.105   3.595   2.435
  241DPPC   O3512035   3.217   3.633   2.400
  241DPPC   C3612036   3.073   3.558   2.580
  241DPPC   C3712037   3.183   3.476   2.647
  241DPPC   C3812038   3.145   3.438   2.790
  241DPPC   C3912039   3.247   3.348   2.860
  241DPPC   C4012040   3.192   3.322   3.000
  241DPPC   C4112041   3.283   3.242   3.094
  241DPPC   C4212042   3.209   3.214   3.224
  241DPPC   C4312043   3.299   3.132   3.317
  241DPPC   C4412044   3.254   3.172   3.457
  241DPPC   C4512045   3.240   3.324   3.467
  241DPPC   C4612046   3.143   3.345   3.583
  241DPPC   C4712047   3.103   3.485   3.631
  241DPPC   C4812048   2.978   3.480   3.719
  241DPPC   C4912049   2.941   3.621   3.766
  241DPPC   C5012050   2.813   3.622   3.849
  242DPPC    C112051   5.274   5.121   1.913
  242DPPC    C212052   5.269   5.104   1.683
  242DPPC    C312053   5.095   5.223   1.789
  242DPPC    N412054   5.239   5.198   1.792
  242DPPC    C512055   5.321   5.319   1.787
  242DPPC    C612056   5.293   5.426   1.893
  242DPPC    O712057   5.388   5.533   1.902
  242DPPC    P812058   5.316   5.677   1.902
  242DPPC    O912059   5.184   5.640   1.957
  242DPPC   O1012060   5.328   5.747   1.773
  242DPPC   O1112061   5.420   5.752   2.000
  242DPPC   C1212062   5.485   5.665   2.093
  242DPPC   C1312063   5.580   5.750   2.178
  242DPPC   O1412064   5.670   5.689   2.272
  242DPPC   C1512065   5.777   5.619   2.225
  242DPPC   O1612066   5.812   5.624   2.108
  242DPPC   C1712067   5.851   5.532   2.327
  242DPPC   C1812068   5.782   5.522   2.463
  242DPPC   C1912069   5.865   5.587   2.575
  242DPPC   C2012070   5.805   5.566   2.714
  242DPPC   C2112071   5.916   5.590   2.816
  242DPPC   C2212072   5.861   5.619   2.956
  242DPPC   C2312073   5.957   5.640   3.074
  242DPPC   C2412074   6.043   5.514   3.090
  242DPPC   C2512075   6.103   5.513   3.231
  242DPPC   C2612076   6.196   5.394   3.251
  242DPPC   C2712077   6.119   5.262   3.251
  242DPPC   C2812078   6.213   5.147   3.290
  242DPPC   C2912079   6.137   5.014   3.295
  242DPPC   C3012080   6.234   4.901   3.332
  242DPPC   C3112081   6.154   4.770   3.339
  242DPPC   C3212082   5.478   5.852   2.229
  242DPPC   O3312083   5.372   5.797   2.308
  242DPPC   C3412084   5.279   5.889   2.346
  242DPPC   O3512085   5.306   6.004   2.310
  242DPPC   C3612086   5.175   5.855   2.453
  242DPPC   C3712087   5.044   5.805   2.392
  242DPPC   C3812088   4.945   5.736   2.486
  242DPPC   C3912089   5.002   5.609   2.550
  242DPPC   C4012090   4.883   5.535   2.611
  242DPPC   C4112091   4.940   5.402   2.662
  242DPPC   C4212092   4.823   5.304   2.667
  242DPPC   C4312093   4.877   5.170   2.717
  242DPPC   C4412094   4.774   5.058   2.728
  242DPPC   C4512095   4.651   5.106   2.806
  242DPPC   C4612096   4.580   4.983   2.861
  242DPPC   C4712097   4.519   4.904   2.744
  242DPPC   C4812098   4.463   4.765   2.776
  242DPPC   C4912099   4.372   4.728   2.658
  242DPPC   C5012100   4.261   4.832   2.642
  243DPPC    C112101   8.294   6.144   1.599
  243DPPC    C212102   8.449   6.065   1.771
  243DPPC    C312103   8.224   5.970   1.727
  243DPPC    N412104   8.347   6.028   1.671
  243DPPC    C512105   8.396   5.916   1.589
  243DPPC    C612106   8.509   5.947   1.490
  243DPPC    O712107   8.565   5.832   1.426
  243DPPC    P812108   8.703   5.878   1.358
  243DPPC    O912109   8.710   6.014   1.300
  243DPPC   O1012110   8.752   5.758   1.286
  243DPPC   O1112111   8.787   5.904   1.493
  243DPPC   C1212112   8.847   5.781   1.535
  243DPPC   C1312113   8.852   5.750   1.685
  243DPPC   O1412114   8.753   5.657   1.729
  243DPPC   C1512115   8.763   5.522   1.710
  243DPPC   O1612116   8.831   5.479   1.617
  243DPPC   C1712117   8.651   5.450   1.785
  243DPPC   C1812118   8.700   5.433   1.928
  243DPPC   C1912119   8.597   5.382   2.029
  243DPPC   C2012120   8.478   5.478   2.044
  243DPPC   C2112121   8.409   5.409   2.162
  243DPPC   C2212122   8.503   5.388   2.281
  243DPPC   C2312123   8.484   5.253   2.349
  243DPPC   C2412124   8.557   5.229   2.482
  243DPPC   C2512125   8.550   5.077   2.492
  243DPPC   C2612126   8.628   5.030   2.615
  243DPPC   C2712127   8.562   5.093   2.738
  243DPPC   C2812128   8.629   5.058   2.872
  243DPPC   C2912129   8.573   5.123   2.998
  243DPPC   C3012130   8.659   5.075   3.115
  243DPPC   C3112131   8.614   5.141   3.246
  243DPPC   C3212132   8.847   5.888   1.752
  243DPPC   O3312133   8.839   5.890   1.894
  243DPPC   C3412134   8.801   6.011   1.946
  243DPPC   O3512135   8.773   6.105   1.873
  243DPPC   C3612136   8.770   6.003   2.096
  243DPPC   C3712137   8.856   5.899   2.168
  243DPPC   C3812138   8.814   5.880   2.314
  243DPPC   C3912139   8.841   6.010   2.389
  243DPPC   C4012140   8.821   5.980   2.538
  243DPPC   C4112141   8.856   6.101   2.624
  243DPPC   C4212142   8.775   6.221   2.573
  243DPPC   C4312143   8.798   6.326   2.682
  243DPPC   C4412144   8.946   6.364   2.670
  243DPPC   C4512145   8.981   6.476   2.769
  243DPPC   C4612146   9.130   6.496   2.796
  243DPPC   C4712147   9.169   6.351   2.828
  243DPPC   C4812148   9.294   6.343   2.917
  243DPPC   C4912149   9.363   6.208   2.938
  243DPPC   C5012150   9.297   6.122   3.046
  244DPPC    C112151   6.736   2.991   1.627
  244DPPC    C212152   6.860   2.807   1.543
  244DPPC    C312153   6.913   3.026   1.464
  244DPPC    N412154   6.869   2.948   1.581
  244DPPC    C512155   6.964   2.978   1.689
  244DPPC    C612156   7.103   2.915   1.699
  244DPPC    O712157   7.100   2.792   1.772
  244DPPC    P812158   7.238   2.712   1.755
  244DPPC    O912159   7.342   2.796   1.691
  244DPPC   O1012160   7.186   2.594   1.682
  244DPPC   O1112161   7.261   2.674   1.910
  244DPPC   C1212162   7.163   2.579   1.952
  244DPPC   C1312163   7.174   2.549   2.101
  244DPPC   O1412164   7.116   2.657   2.175
  244DPPC   C1512165   6.997   2.628   2.234
  244DPPC   O1612166   6.925   2.541   2.186
  244DPPC   C1712167   6.938   2.733   2.329
  244DPPC   C1812168   6.912   2.688   2.472
  244DPPC   C1912169   7.046   2.668   2.542
  244DPPC   C2012170   7.031   2.627   2.688
  244DPPC   C2112171   7.164   2.619   2.764
  244DPPC   C2212172   7.136   2.580   2.909
  244DPPC   C2312173   7.268   2.548   2.980
  244DPPC   C2412174   7.255   2.561   3.131
  244DPPC   C2512175   7.182   2.691   3.166
  244DPPC   C2612176   7.161   2.712   3.317
  244DPPC   C2712177   7.291   2.714   3.398
  244DPPC   C2812178   7.267   2.723   3.549
  244DPPC   C2912179   7.396   2.715   3.631
  244DPPC   C3012180   7.368   2.704   3.781
  244DPPC   C3112181   7.292   2.824   3.838
  244DPPC   C3212182   7.321   2.523   2.134
  244DPPC   O3312183   7.357   2.471   2.262
  244DPPC   C3412184   7.406   2.567   2.344
  244DPPC   O3512185   7.415   2.686   2.311
  244DPPC   C3612186   7.449   2.513   2.481
  244DPPC   C3712187   7.594   2.467   2.465
  244DPPC   C3812188   7.648   2.384   2.582
  244DPPC   C3912189   7.659   2.448   2.721
  244DPPC   C4012190   7.766   2.375   2.802
  244DPPC   C4112191   7.812   2.454   2.924
  244DPPC   C4212192   7.762   2.394   3.055
  244DPPC   C4312193   7.826   2.473   3.170
  244DPPC   C4412194   7.764   2.426   3.302
  244DPPC   C4512195   7.612   2.446   3.298
  244DPPC   C4612196   7.531   2.400   3.420
  244DPPC   C4712197   7.561   2.259   3.470
  244DPPC   C4812198   7.495   2.230   3.605
  244DPPC   C4912199   7.561   2.320   3.710
  244DPPC   C5012200   7.471   2.294   3.832
  245DPPC    C112201   5.442   3.533   1.591
  245DPPC    C212202   5.507   3.425   1.791
  245DPPC    C312203   5.646   3.594   1.710
  245DPPC    N412204   5.504   3.555   1.723
  245DPPC    C512205   5.441   3.659   1.806
  245DPPC    C612206   5.393   3.788   1.740
  245DPPC    O712207   5.491   3.891   1.731
  245DPPC    P812208   5.403   4.022   1.694
  245DPPC    O912209   5.321   3.983   1.577
  245DPPC   O1012210   5.483   4.145   1.679
  245DPPC   O1112211   5.310   4.030   1.826
  245DPPC   C1212212   5.382   4.076   1.941
  245DPPC   C1312213   5.291   4.116   2.057
  245DPPC   O1412214   5.354   4.185   2.166
  245DPPC   C1512215   5.364   4.321   2.167
  245DPPC   O1612216   5.353   4.386   2.063
  245DPPC   C1712217   5.439   4.366   2.292
  245DPPC   C1812218   5.348   4.354   2.415
  245DPPC   C1912219   5.412   4.432   2.529
  245DPPC   C2012220   5.334   4.428   2.661
  245DPPC   C2112221   5.398   4.513   2.771
  245DPPC   C2212222   5.294   4.512   2.882
  245DPPC   C2312223   5.366   4.573   3.003
  245DPPC   C2412224   5.264   4.564   3.117
  245DPPC   C2512225   5.327   4.609   3.249
  245DPPC   C2612226   5.245   4.553   3.365
  245DPPC   C2712227   5.330   4.542   3.492
  245DPPC   C2812228   5.250   4.504   3.617
  245DPPC   C2912229   5.331   4.505   3.747
  245DPPC   C3012230   5.255   4.452   3.869
  245DPPC   C3112231   5.353   4.447   3.987
  245DPPC   C3212232   5.210   3.991   2.088
  245DPPC   O3312233   5.296   3.890   2.142
  245DPPC   C3412234   5.233   3.769   2.145
  245DPPC   O3512235   5.120   3.762   2.099
  245DPPC   C3612236   5.322   3.651   2.185
  245DPPC   C3712237   5.316   3.601   2.329
  245DPPC   C3812238   5.436   3.512   2.362
  245DPPC   C3912239   5.444   3.476   2.510
  245DPPC   C4012240   5.565   3.389   2.547
  245DPPC   C4112241   5.553   3.331   2.688
  245DPPC   C4212242   5.690   3.290   2.742
  245DPPC   C4312243   5.670   3.277   2.893
  245DPPC   C4412244   5.625   3.416   2.940
  245DPPC   C4512245   5.633   3.419   3.093
  245DPPC   C4612246   5.557   3.306   3.162
  245DPPC   C4712247   5.565   3.315   3.315
  245DPPC   C4812248   5.480   3.212   3.389
  245DPPC   C4912249   5.499   3.237   3.539
  245DPPC   C5012250   5.646   3.241   3.580
  246DPPC    C112251   9.296   7.897   1.436
  246DPPC    C212252   9.466   8.024   1.523
  246DPPC    C312253   9.297   7.936   1.668
  246DPPC    N412254   9.384   7.906   1.553
  246DPPC    C512255   9.474   7.790   1.550
  246DPPC    C612256   9.547   7.735   1.672
  246DPPC    O712257   9.645   7.834   1.705
  246DPPC    P812258   9.738   7.770   1.819
  246DPPC    O912259   9.855   7.860   1.834
  246DPPC   O1012260   9.747   7.623   1.813
  246DPPC   O1112261   9.625   7.808   1.927
  246DPPC   C1212262   9.635   7.945   1.966
  246DPPC   C1312263   9.504   8.023   1.977
  246DPPC   O1412264   9.534   8.160   2.009
  246DPPC   C1512265   9.578   8.252   1.920
  246DPPC   O1612266   9.565   8.219   1.802
  246DPPC   C1712267   9.654   8.376   1.969
  246DPPC   C1812268   9.602   8.453   2.090
  246DPPC   C1912269   9.688   8.575   2.126
  246DPPC   C2012270   9.837   8.548   2.145
  246DPPC   C2112271   9.892   8.506   2.282
  246DPPC   C2212272  10.045   8.503   2.283
  246DPPC   C2312273  10.106   8.492   2.423
  246DPPC   C2412274  10.037   8.373   2.490
  246DPPC   C2512275  10.046   8.376   2.643
  246DPPC   C2612276   9.960   8.267   2.707
  246DPPC   C2712277   9.979   8.262   2.859
  246DPPC   C2812278  10.114   8.210   2.907
  246DPPC   C2912279  10.121   8.071   2.843
  246DPPC   C3012280  10.243   8.000   2.902
  246DPPC   C3112281  10.243   7.865   2.830
  246DPPC   C3212282   9.394   7.974   2.071
  246DPPC   O3312283   9.316   7.868   2.016
  246DPPC   C3412284   9.232   7.816   2.110
  246DPPC   O3512285   9.248   7.843   2.229
  246DPPC   C3612286   9.149   7.703   2.049
  246DPPC   C3712287   9.001   7.703   2.089
  246DPPC   C3812288   8.980   7.630   2.222
  246DPPC   C3912289   8.835   7.632   2.272
  246DPPC   C4012290   8.824   7.567   2.410
  246DPPC   C4112291   8.874   7.668   2.514
  246DPPC   C4212292   8.842   7.619   2.656
  246DPPC   C4312293   8.926   7.694   2.759
  246DPPC   C4412294   8.884   7.651   2.900
  246DPPC   C4512295   9.005   7.623   2.989
  246DPPC   C4612296   9.079   7.754   3.016
  246DPPC   C4712297   9.197   7.746   3.114
  246DPPC   C4812298   9.277   7.875   3.126
  246DPPC   C4912299   9.327   7.926   2.991
  246DPPC   C5012300   9.421   8.047   2.991
  247DPPC    C112301   7.079   1.211   1.056
  247DPPC    C212302   7.321   1.229   1.073
  247DPPC    C312303   7.206   1.093   1.229
  247DPPC    N412304   7.205   1.141   1.090
  247DPPC    C512305   7.194   1.026   0.999
  247DPPC    C612306   7.310   0.927   0.990
  247DPPC    O712307   7.343   0.862   1.113
  247DPPC    P812308   7.503   0.873   1.123
  247DPPC    O912309   7.521   0.978   1.226
  247DPPC   O1012310   7.570   0.884   0.992
  247DPPC   O1112311   7.529   0.729   1.190
  247DPPC   C1212312   7.518   0.753   1.331
  247DPPC   C1312313   7.526   0.630   1.421
  247DPPC   O1412314   7.489   0.661   1.557
  247DPPC   C1512315   7.358   0.652   1.591
  247DPPC   O1612316   7.261   0.646   1.516
  247DPPC   C1712317   7.336   0.682   1.740
  247DPPC   C1812318   7.418   0.805   1.777
  247DPPC   C1912319   7.403   0.833   1.927
  247DPPC   C2012320   7.488   0.945   1.988
  247DPPC   C2112321   7.441   0.989   2.127
  247DPPC   C2212322   7.436   0.871   2.224
  247DPPC   C2312323   7.356   0.903   2.351
  247DPPC   C2412324   7.414   1.033   2.407
  247DPPC   C2512325   7.414   1.030   2.560
  247DPPC   C2612326   7.481   1.141   2.641
  247DPPC   C2712327   7.474   1.110   2.791
  247DPPC   C2812328   7.555   1.211   2.873
  247DPPC   C2912329   7.520   1.212   3.022
  247DPPC   C3012330   7.589   1.104   3.105
  247DPPC   C3112331   7.564   1.119   3.255
  247DPPC   C3212332   7.673   0.599   1.393
  247DPPC   O3312333   7.763   0.561   1.497
  247DPPC   C3412334   7.736   0.438   1.548
  247DPPC   O3512335   7.678   0.352   1.482
  247DPPC   C3612336   7.798   0.407   1.684
  247DPPC   C3712337   7.758   0.518   1.782
  247DPPC   C3812338   7.857   0.542   1.896
  247DPPC   C3912339   7.800   0.652   1.986
  247DPPC   C4012340   7.876   0.668   2.118
  247DPPC   C4112341   7.830   0.773   2.219
  247DPPC   C4212342   7.911   0.788   2.348
  247DPPC   C4312343   7.875   0.922   2.412
  247DPPC   C4412344   7.937   0.936   2.551
  247DPPC   C4512345   7.921   1.080   2.600
  247DPPC   C4612346   7.975   1.082   2.743
  247DPPC   C4712347   7.955   1.211   2.822
  247DPPC   C4812348   7.987   1.192   2.971
  247DPPC   C4912349   7.941   1.305   3.063
  247DPPC   C5012350   7.981   1.279   3.208
  248DPPC    C112351   6.352   1.213   1.751
  248DPPC    C212352   6.490   1.384   1.862
  248DPPC    C312353   6.263   1.395   1.867
  248DPPC    N412354   6.372   1.296   1.871
  248DPPC    C512355   6.380   1.224   1.999
  248DPPC    C612356   6.274   1.117   2.023
  248DPPC    O712357   6.142   1.161   2.053
  248DPPC    P812358   6.030   1.052   2.013
  248DPPC    O912359   6.050   1.010   1.873
  248DPPC   O1012360   5.903   1.117   2.051
  248DPPC   O1112361   6.064   0.934   2.118
  248DPPC   C1212362   6.040   0.981   2.251
  248DPPC   C1312363   6.091   0.882   2.355
  248DPPC   O1412364   6.013   0.876   2.475
  248DPPC   C1512365   5.888   0.823   2.474
  248DPPC   O1612366   5.834   0.784   2.371
  248DPPC   C1712367   5.819   0.807   2.610
  248DPPC   C1812368   5.740   0.937   2.633
  248DPPC   C1912369   5.658   0.933   2.762
  248DPPC   C2012370   5.741   0.910   2.887
  248DPPC   C2112371   5.668   0.923   3.021
  248DPPC   C2212372   5.757   0.968   3.137
  248DPPC   C2312373   5.701   0.914   3.268
  248DPPC   C2412374   5.784   0.938   3.394
  248DPPC   C2512375   5.706   0.882   3.513
  248DPPC   C2612376   5.792   0.907   3.637
  248DPPC   C2712377   5.707   0.892   3.764
  248DPPC   C2812378   5.592   0.992   3.750
  248DPPC   C2912379   5.503   1.007   3.873
  248DPPC   C3012380   5.445   1.145   3.908
  248DPPC   C3112381   5.356   1.202   3.798
  248DPPC   C3212382   6.242   0.886   2.380
  248DPPC   O3312383   6.282   1.022   2.401
  248DPPC   C3412384   6.409   1.054   2.439
  248DPPC   O3512385   6.512   0.990   2.422
  248DPPC   C3612386   6.406   1.202   2.478
  248DPPC   C3712387   6.527   1.240   2.564
  248DPPC   C3812388   6.539   1.163   2.696
  248DPPC   C3912389   6.576   1.256   2.811
  248DPPC   C4012390   6.575   1.154   2.924
  248DPPC   C4112391   6.638   1.230   3.042
  248DPPC   C4212392   6.605   1.148   3.166
  248DPPC   C4312393   6.665   1.200   3.297
  248DPPC   C4412394   6.708   1.092   3.396
  248DPPC   C4512395   6.811   1.149   3.494
  248DPPC   C4612396   6.853   1.067   3.616
  248DPPC   C4712397   6.974   1.133   3.682
  248DPPC   C4812398   7.057   1.054   3.784
  248DPPC   C4912399   7.135   0.932   3.734
  248DPPC   C5012400   7.198   0.846   3.844
  249DPPC    C112401   1.877   5.538   1.647
  249DPPC    C212402   2.049   5.653   1.524
  249DPPC    C312403   2.039   5.418   1.525
  249DPPC    N412404   1.956   5.539   1.523
  249DPPC    C512405   1.880   5.551   1.397
  249DPPC    C612406   1.821   5.685   1.356
  249DPPC    O712407   1.708   5.732   1.431
  249DPPC    P812408   1.693   5.890   1.402
  249DPPC    O912409   1.552   5.928   1.426
  249DPPC   O1012410   1.790   5.937   1.301
  249DPPC   O1112411   1.765   5.913   1.544
  249DPPC   C1212412   1.682   5.870   1.652
  249DPPC   C1312413   1.757   5.849   1.784
  249DPPC   O1412414   1.668   5.840   1.897
  249DPPC   C1512415   1.603   5.722   1.913
  249DPPC   O1612416   1.624   5.631   1.833
  249DPPC   C1712417   1.515   5.696   2.036
  249DPPC   C1812418   1.594   5.691   2.167
  249DPPC   C1912419   1.666   5.556   2.179
  249DPPC   C2012420   1.748   5.567   2.307
  249DPPC   C2112421   1.651   5.592   2.424
  249DPPC   C2212422   1.715   5.600   2.563
  249DPPC   C2312423   1.777   5.469   2.613
  249DPPC   C2412424   1.848   5.504   2.744
  249DPPC   C2512425   1.943   5.394   2.791
  249DPPC   C2612426   1.985   5.428   2.934
  249DPPC   C2712427   2.011   5.304   3.020
  249DPPC   C2812428   2.018   5.349   3.167
  249DPPC   C2912429   2.006   5.222   3.251
  249DPPC   C3012430   1.869   5.155   3.261
  249DPPC   C3112431   1.872   5.009   3.308
  249DPPC   C3212432   1.852   5.969   1.792
  249DPPC   O3312433   1.953   5.976   1.893
  249DPPC   C3412434   2.045   5.876   1.898
  249DPPC   O3512435   2.056   5.788   1.812
  249DPPC   C3612436   2.148   5.885   2.011
  249DPPC   C3712437   2.109   5.785   2.120
  249DPPC   C3812438   2.214   5.750   2.224
  249DPPC   C3912439   2.158   5.677   2.347
  249DPPC   C4012440   2.263   5.688   2.458
  249DPPC   C4112441   2.201   5.616   2.578
  249DPPC   C4212442   2.308   5.602   2.687
  249DPPC   C4312443   2.360   5.739   2.729
  249DPPC   C4412444   2.265   5.812   2.825
  249DPPC   C4512445   2.302   5.776   2.969
  249DPPC   C4612446   2.445   5.792   3.022
  249DPPC   C4712447   2.448   5.809   3.174
  249DPPC   C4812448   2.594   5.818   3.217
  249DPPC   C4912449   2.621   5.850   3.364
  249DPPC   C5012450   2.522   5.765   3.443
  250DPPC    C112451   8.739   8.062   1.143
  250DPPC    C212452   8.927   8.116   1.274
  250DPPC    C312453   8.969   8.087   1.046
  250DPPC    N412454   8.867   8.135   1.141
  250DPPC    C512455   8.858   8.276   1.101
  250DPPC    C612456   8.843   8.392   1.199
  250DPPC    O712457   8.962   8.413   1.276
  250DPPC    P812458   8.931   8.504   1.405
  250DPPC    O912459   8.867   8.625   1.349
  250DPPC   O1012460   9.068   8.510   1.462
  250DPPC   O1112461   8.829   8.388   1.450
  250DPPC   C1212462   8.765   8.422   1.573
  250DPPC   C1312463   8.706   8.308   1.656
  250DPPC   O1412464   8.620   8.351   1.762
  250DPPC   C1512465   8.490   8.310   1.761
  250DPPC   O1612466   8.444   8.240   1.671
  250DPPC   C1712467   8.398   8.364   1.870
  250DPPC   C1812468   8.394   8.276   1.995
  250DPPC   C1912469   8.343   8.365   2.109
  250DPPC   C2012470   8.333   8.285   2.239
  250DPPC   C2112471   8.221   8.183   2.227
  250DPPC   C2212472   8.194   8.135   2.370
  250DPPC   C2312473   8.087   8.027   2.354
  250DPPC   C2412474   8.063   7.944   2.479
  250DPPC   C2512475   7.936   7.858   2.472
  250DPPC   C2612476   7.901   7.797   2.607
  250DPPC   C2712477   7.766   7.724   2.602
  250DPPC   C2812478   7.763   7.653   2.738
  250DPPC   C2912479   7.801   7.745   2.854
  250DPPC   C3012480   7.814   7.653   2.976
  250DPPC   C3112481   7.855   7.751   3.086
  250DPPC   C3212482   8.823   8.213   1.686
  250DPPC   O3312483   8.925   8.285   1.755
  250DPPC   C3412484   9.030   8.207   1.794
  250DPPC   O3512485   9.035   8.088   1.763
  250DPPC   C3612486   9.139   8.264   1.885
  250DPPC   C3712487   9.081   8.282   2.026
  250DPPC   C3812488   9.173   8.371   2.109
  250DPPC   C3912489   9.113   8.388   2.249
  250DPPC   C4012490   9.216   8.456   2.338
  250DPPC   C4112491   9.172   8.458   2.485
  250DPPC   C4212492   9.275   8.526   2.575
  250DPPC   C4312493   9.405   8.446   2.577
  250DPPC   C4412494   9.403   8.305   2.638
  250DPPC   C4512495   9.546   8.250   2.637
  250DPPC   C4612496   9.569   8.184   2.502
  250DPPC   C4712497   9.708   8.121   2.500
  250DPPC   C4812498   9.739   8.059   2.363
  250DPPC   C4912499   9.885   8.013   2.354
  250DPPC   C5012500   9.922   7.916   2.466
  251DPPC    C112501   6.564   5.633   1.518
  251DPPC    C212502   6.783   5.620   1.431
  251DPPC    C312503   6.630   5.775   1.340
  251DPPC    N412504   6.675   5.714   1.465
  251DPPC    C512505   6.718   5.815   1.563
  251DPPC    C612506   6.634   5.938   1.598
  251DPPC    O712507   6.518   5.911   1.678
  251DPPC    P812508   6.439   6.028   1.756
  251DPPC    O912509   6.334   5.946   1.820
  251DPPC   O1012510   6.403   6.137   1.663
  251DPPC   O1112511   6.543   6.087   1.864
  251DPPC   C1212512   6.590   5.968   1.927
  251DPPC   C1312513   6.682   5.998   2.046
  251DPPC   O1412514   6.742   5.877   2.093
  251DPPC   C1512515   6.877   5.866   2.088
  251DPPC   O1612516   6.946   5.915   1.998
  251DPPC   C1712517   6.932   5.762   2.186
  251DPPC   C1812518   6.978   5.833   2.313
  251DPPC   C1912519   7.033   5.733   2.415
  251DPPC   C2012520   7.155   5.659   2.359
  251DPPC   C2112521   7.268   5.757   2.331
  251DPPC   C2212522   7.388   5.681   2.273
  251DPPC   C2312523   7.519   5.755   2.246
  251DPPC   C2412524   7.620   5.655   2.189
  251DPPC   C2512525   7.757   5.723   2.190
  251DPPC   C2612526   7.836   5.654   2.301
  251DPPC   C2712527   7.962   5.741   2.311
  251DPPC   C2812528   8.052   5.747   2.188
  251DPPC   C2912529   8.182   5.818   2.225
  251DPPC   C3012530   8.282   5.827   2.110
  251DPPC   C3112531   8.419   5.864   2.167
  251DPPC   C3212532   6.604   6.089   2.141
  251DPPC   O3312533   6.690   6.179   2.211
  251DPPC   C3412534   6.616   6.264   2.288
  251DPPC   O3512535   6.494   6.267   2.275
  251DPPC   C3612536   6.681   6.360   2.387
  251DPPC   C3712537   6.585   6.367   2.506
  251DPPC   C3812538   6.659   6.441   2.619
  251DPPC   C3912539   6.605   6.406   2.758
  251DPPC   C4012540   6.646   6.502   2.870
  251DPPC   C4112541   6.607   6.435   3.002
  251DPPC   C4212542   6.649   6.528   3.117
  251DPPC   C4312543   6.635   6.469   3.257
  251DPPC   C4412544   6.496   6.410   3.280
  251DPPC   C4512545   6.475   6.360   3.424
  251DPPC   C4612546   6.492   6.490   3.503
  251DPPC   C4712547   6.494   6.463   3.654
  251DPPC   C4812548   6.355   6.449   3.715
  251DPPC   C4912549   6.282   6.584   3.712
  251DPPC   C5012550   6.138   6.580   3.763
  252DPPC    C112551   4.473   2.536   1.758
  252DPPC    C212552   4.670   2.561   1.905
  252DPPC    C312553   4.478   2.675   1.942
  252DPPC    N412554   4.524   2.544   1.895
  252DPPC    C512555   4.474   2.420   1.957
  252DPPC    C612556   4.328   2.381   1.981
  252DPPC    O712557   4.256   2.482   2.051
  252DPPC    P812558   4.122   2.415   2.111
  252DPPC    O912559   4.164   2.299   2.193
  252DPPC   O1012560   4.032   2.397   1.995
  252DPPC   O1112561   4.084   2.541   2.202
  252DPPC   C1212562   4.184   2.559   2.303
  252DPPC   C1312563   4.245   2.699   2.305
  252DPPC   O1412564   4.355   2.718   2.396
  252DPPC   C1512565   4.466   2.793   2.375
  252DPPC   O1612566   4.484   2.861   2.274
  252DPPC   C1712567   4.557   2.797   2.498
  252DPPC   C1812568   4.646   2.673   2.505
  252DPPC   C1912569   4.701   2.662   2.647
  252DPPC   C2012570   4.807   2.553   2.667
  252DPPC   C2112571   4.830   2.516   2.814
  252DPPC   C2212572   4.872   2.371   2.837
  252DPPC   C2312573   4.872   2.343   2.988
  252DPPC   C2412574   4.917   2.199   3.009
  252DPPC   C2512575   4.964   2.162   3.150
  252DPPC   C2612576   5.018   2.020   3.163
  252DPPC   C2712577   4.903   1.928   3.124
  252DPPC   C2812578   4.948   1.790   3.074
  252DPPC   C2912579   5.063   1.801   2.974
  252DPPC   C3012580   5.151   1.676   2.960
  252DPPC   C3112581   5.281   1.708   2.886
  252DPPC   C3212582   4.131   2.799   2.328
  252DPPC   O3312583   4.049   2.779   2.443
  252DPPC   C3412584   3.941   2.861   2.439
  252DPPC   O3512585   3.918   2.924   2.336
  252DPPC   C3612586   3.857   2.871   2.567
  252DPPC   C3712587   3.744   2.769   2.550
  252DPPC   C3812588   3.643   2.764   2.665
  252DPPC   C3912589   3.722   2.722   2.789
  252DPPC   C4012590   3.637   2.716   2.916
  252DPPC   C4112591   3.714   2.650   3.030
  252DPPC   C4212592   3.761   2.506   3.006
  252DPPC   C4312593   3.845   2.455   3.124
  252DPPC   C4412594   3.895   2.315   3.087
  252DPPC   C4512595   4.040   2.302   3.134
  252DPPC   C4612596   4.105   2.165   3.116
  252DPPC   C4712597   4.110   2.130   2.967
  252DPPC   C4812598   4.192   2.001   2.964
  252DPPC   C4912599   4.116   1.904   3.056
  252DPPC   C5012600   4.168   1.760   3.050
  253DPPC    C112601   3.820   7.474   1.804
  253DPPC    C212602   3.791   7.706   1.752
  253DPPC    C312603   3.613   7.544   1.705
  253DPPC    N412604   3.722   7.583   1.795
  253DPPC    C512605   3.663   7.597   1.929
  253DPPC    C612606   3.743   7.612   2.059
  253DPPC    O712607   3.800   7.738   2.097
  253DPPC    P812608   3.957   7.726   2.130
  253DPPC    O912609   4.028   7.855   2.120
  253DPPC   O1012610   4.009   7.622   2.038
  253DPPC   O1112611   3.950   7.679   2.284
  253DPPC   C1212612   3.876   7.774   2.361
  253DPPC   C1312613   3.799   7.705   2.474
  253DPPC   O1412614   3.703   7.782   2.548
  253DPPC   C1512615   3.572   7.783   2.509
  253DPPC   O1612616   3.536   7.723   2.408
  253DPPC   C1712617   3.474   7.858   2.599
  253DPPC   C1812618   3.330   7.818   2.568
  253DPPC   C1912619   3.243   7.902   2.663
  253DPPC   C2012620   3.099   7.854   2.681
  253DPPC   C2112621   3.056   7.916   2.813
  253DPPC   C2212622   2.917   7.861   2.848
  253DPPC   C2312623   2.868   7.943   2.967
  253DPPC   C2412624   2.717   7.945   2.990
  253DPPC   C2512625   2.674   8.000   3.126
  253DPPC   C2612626   2.529   7.965   3.163
  253DPPC   C2712627   2.432   8.035   3.067
  253DPPC   C2812628   2.379   8.174   3.103
  253DPPC   C2912629   2.308   8.236   2.982
  253DPPC   C3012630   2.263   8.372   3.036
  253DPPC   C3112631   2.182   8.466   2.948
  253DPPC   C3212632   3.906   7.643   2.563
  253DPPC   O3312633   4.009   7.718   2.628
  253DPPC   C3412634   4.108   7.652   2.693
  253DPPC   O3512635   4.104   7.529   2.702
  253DPPC   C3612636   4.228   7.732   2.745
  253DPPC   C3712637   4.217   7.794   2.885
  253DPPC   C3812638   4.346   7.872   2.905
  253DPPC   C3912639   4.358   8.009   2.837
  253DPPC   C4012640   4.486   8.081   2.882
  253DPPC   C4112641   4.612   7.995   2.870
  253DPPC   C4212642   4.719   8.051   2.964
  253DPPC   C4312643   4.822   7.939   2.975
  253DPPC   C4412644   4.935   7.990   3.066
  253DPPC   C4512645   5.062   7.910   3.037
  253DPPC   C4612646   5.176   7.956   3.127
  253DPPC   C4712647   5.295   7.865   3.096
  253DPPC   C4812648   5.404   7.893   3.199
  253DPPC   C4912649   5.521   7.795   3.219
  253DPPC   C5012650   5.610   7.822   3.340
  254DPPC    C112651   3.123   1.394   2.449
  254DPPC    C212652   3.030   1.614   2.430
  254DPPC    C312653   3.145   1.511   2.253
  254DPPC    N412654   3.048   1.486   2.360
  254DPPC    C512655   2.925   1.424   2.308
  254DPPC    C612656   2.848   1.480   2.188
  254DPPC    O712657   2.713   1.514   2.219
  254DPPC    P812658   2.663   1.584   2.083
  254DPPC    O912659   2.720   1.505   1.972
  254DPPC   O1012660   2.689   1.727   2.113
  254DPPC   O1112661   2.515   1.550   2.135
  254DPPC   C1212662   2.470   1.644   2.234
  254DPPC   C1312663   2.324   1.642   2.279
  254DPPC   O1412664   2.280   1.726   2.386
  254DPPC   C1512665   2.300   1.860   2.377
  254DPPC   O1612666   2.349   1.925   2.285
  254DPPC   C1712667   2.240   1.937   2.495
  254DPPC   C1812668   2.346   2.001   2.585
  254DPPC   C1912669   2.282   2.044   2.717
  254DPPC   C2012670   2.397   2.077   2.811
  254DPPC   C2112671   2.342   2.157   2.929
  254DPPC   C2212672   2.421   2.123   3.055
  254DPPC   C2312673   2.430   1.979   3.105
  254DPPC   C2412674   2.320   1.939   3.204
  254DPPC   C2512675   2.345   1.797   3.256
  254DPPC   C2612676   2.237   1.769   3.360
  254DPPC   C2712677   2.244   1.638   3.438
  254DPPC   C2812678   2.381   1.648   3.507
  254DPPC   C2912679   2.414   1.524   3.591
  254DPPC   C3012680   2.300   1.487   3.687
  254DPPC   C3112681   2.356   1.378   3.778
  254DPPC   C3212682   2.308   1.491   2.303
  254DPPC   O3312683   2.378   1.440   2.417
  254DPPC   C3412684   2.404   1.307   2.409
  254DPPC   O3512685   2.366   1.240   2.313
  254DPPC   C3612686   2.489   1.252   2.524
  254DPPC   C3712687   2.408   1.155   2.610
  254DPPC   C3812688   2.502   1.096   2.715
  254DPPC   C3912689   2.435   0.994   2.806
  254DPPC   C4012690   2.538   0.943   2.907
  254DPPC   C4112691   2.485   0.829   2.994
  254DPPC   C4212692   2.610   0.759   3.046
  254DPPC   C4312693   2.694   0.825   3.155
  254DPPC   C4412694   2.797   0.721   3.199
  254DPPC   C4512695   2.871   0.754   3.329
  254DPPC   C4612696   2.784   0.763   3.455
  254DPPC   C4712697   2.877   0.753   3.577
  254DPPC   C4812698   2.806   0.740   3.712
  254DPPC   C4912699   2.908   0.729   3.825
  254DPPC   C5012700   2.860   0.790   3.957
  255DPPC    C112701   1.551   7.628   1.768
  255DPPC    C212702   1.559   7.399   1.693
  255DPPC    C312703   1.395   7.536   1.612
  255DPPC    N412704   1.536   7.538   1.653
  255DPPC    C512705   1.618   7.588   1.542
  255DPPC    C612706   1.770   7.602   1.545
  255DPPC    O712707   1.860   7.491   1.542
  255DPPC    P812708   2.015   7.529   1.522
  255DPPC    O912709   2.019   7.650   1.438
  255DPPC   O1012710   2.084   7.402   1.489
  255DPPC   O1112711   2.024   7.556   1.681
  255DPPC   C1212712   2.008   7.429   1.746
  255DPPC   C1312713   2.027   7.431   1.897
  255DPPC   O1412714   2.035   7.301   1.956
  255DPPC   C1512715   2.160   7.248   1.970
  255DPPC   O1612716   2.260   7.292   1.915
  255DPPC   C1712717   2.169   7.115   2.046
  255DPPC   C1812718   2.054   7.074   2.137
  255DPPC   C1912719   2.094   6.960   2.231
  255DPPC   C2012720   1.971   6.896   2.296
  255DPPC   C2112721   1.900   6.802   2.198
  255DPPC   C2212722   1.771   6.745   2.256
  255DPPC   C2312723   1.792   6.643   2.369
  255DPPC   C2412724   1.662   6.619   2.447
  255DPPC   C2512725   1.693   6.495   2.531
  255DPPC   C2612726   1.584   6.467   2.634
  255DPPC   C2712727   1.593   6.319   2.673
  255DPPC   C2812728   1.475   6.279   2.762
  255DPPC   C2912729   1.481   6.362   2.890
  255DPPC   C3012730   1.406   6.270   2.986
  255DPPC   C3112731   1.471   6.136   3.020
  255DPPC   C3212732   1.921   7.531   1.945
  255DPPC   O3312733   1.929   7.597   2.072
  255DPPC   C3412734   1.807   7.646   2.107
  255DPPC   O3512735   1.712   7.629   2.031
  255DPPC   C3612736   1.774   7.697   2.247
  255DPPC   C3712737   1.846   7.829   2.272
  255DPPC   C3812738   1.802   7.887   2.406
  255DPPC   C3912739   1.872   8.020   2.435
  255DPPC   C4012740   1.836   8.054   2.580
  255DPPC   C4112741   1.893   8.194   2.603
  255DPPC   C4212742   1.870   8.246   2.745
  255DPPC   C4312743   1.961   8.164   2.837
  255DPPC   C4412744   1.886   8.098   2.953
  255DPPC   C4512745   1.995   8.017   3.024
  255DPPC   C4612746   1.945   7.955   3.154
  255DPPC   C4712747   2.046   7.862   3.221
  255DPPC   C4812748   2.012   7.715   3.196
  255DPPC   C4912749   2.121   7.630   3.261
  255DPPC   C5012750   2.116   7.659   3.411
  256DPPC    C112751   2.747   6.670   1.800
  256DPPC    C212752   2.709   6.444   1.850
  256DPPC    C312753   2.598   6.558   1.662
  256DPPC    N412754   2.722   6.539   1.739
  256DPPC    C512755   2.833   6.512   1.647
  256DPPC    C612756   2.874   6.365   1.637
  256DPPC    O712757   2.774   6.293   1.564
  256DPPC    P812758   2.820   6.140   1.549
  256DPPC    O912759   2.967   6.147   1.534
  256DPPC   O1012760   2.722   6.097   1.447
  256DPPC   O1112761   2.767   6.104   1.697
  256DPPC   C1212762   2.627   6.097   1.671
  256DPPC   C1312763   2.549   6.044   1.792
  256DPPC   O1412764   2.503   6.147   1.881
  256DPPC   C1512765   2.378   6.198   1.869
  256DPPC   O1612766   2.311   6.191   1.766
  256DPPC   C1712767   2.345   6.302   1.976
  256DPPC   C1812768   2.270   6.229   2.088
  256DPPC   C1912769   2.224   6.344   2.178
  256DPPC   C2012770   2.140   6.278   2.288
  256DPPC   C2112771   2.117   6.383   2.396
  256DPPC   C2212772   2.235   6.443   2.473
  256DPPC   C2312773   2.184   6.527   2.590
  256DPPC   C2412774   2.145   6.664   2.533
  256DPPC   C2512775   2.099   6.742   2.657
  256DPPC   C2612776   1.991   6.674   2.741
  256DPPC   C2712777   1.961   6.732   2.879
  256DPPC   C2812778   1.833   6.674   2.938
  256DPPC   C2912779   1.860   6.529   2.980
  256DPPC   C3012780   1.761   6.488   3.089
  256DPPC   C3112781   1.816   6.359   3.151
  256DPPC   C3212782   2.633   5.928   1.845
  256DPPC   O3312783   2.576   5.844   1.945
  256DPPC   C3412784   2.650   5.739   1.991
  256DPPC   O3512785   2.769   5.727   1.964
  256DPPC   C3612786   2.561   5.635   2.060
  256DPPC   C3712787   2.632   5.572   2.181
  256DPPC   C3812788   2.538   5.509   2.283
  256DPPC   C3912789   2.491   5.373   2.230
  256DPPC   C4012790   2.384   5.319   2.325
  256DPPC   C4112791   2.452   5.301   2.461
  256DPPC   C4212792   2.338   5.270   2.559
  256DPPC   C4312793   2.269   5.141   2.515
  256DPPC   C4412794   2.165   5.086   2.612
  256DPPC   C4512795   2.115   4.948   2.566
  256DPPC   C4612796   2.001   4.908   2.659
  256DPPC   C4712797   2.049   4.898   2.804
  256DPPC   C4812798   1.927   4.894   2.897
  256DPPC   C4912799   1.916   4.748   2.942
  256DPPC   C5012800   1.792   4.740   3.031
  257SOL     OW12801   9.589   0.674   5.921
  257SOL    HW112802   9.520   0.631   5.862
  257SOL    HW212803   9.550   0.690   6.011
  258SOL     OW12804   7.562   3.014   6.766
  258SOL    HW112805   7.506   2.946   6.719
  258SOL    HW212806   7.659   2.989   6.757
  259SOL     OW12807   3.773   2.382   0.740
  259SOL    HW112808   3.743   2.446   0.811
  259SOL    HW212809   3.871   2.368   0.748
  260SOL     OW12810   6.349   1.305   0.691
  260SOL    HW112811   6.375   1.355   0.774
  260SOL    HW212812   6.276   1.354   0.645
  261SOL     OW12813   2.918   0.358   6.461
  261SOL    HW112814   2.995   0.422   6.450
  261SOL    HW212815   2.840   0.407   6.500
  262SOL     OW12816   1.010   5.497   4.506
  262SOL    HW112817   0.944   5.428   4.478
  262SOL    HW212818   1.102   5.457   4.510
  263SOL     OW12819   0.726   3.949   6.644
  263SOL    HW112820   0.729   3.850   6.655
  263SOL    HW212821   0.783   3.976   6.565
  264SOL     OW12822   4.092   1.902   0.932
  264SOL    HW112823   4.117   1.894   0.836
  264SOL    HW212824   4.121   1.992   0.966
  265SOL     OW12825   4.311   5.130   2.043
  265SOL    HW112826   4.348   5.091   2.128
  265SOL    HW212827   4.212   5.119   2.041
  266SOL     OW12828   3.498   1.439   1.942
  266SOL    HW112829   3.443   1.417   2.022
  266SOL    HW212830   3.580   1.383   1.940
  267SOL     OW12831   4.147   7.382   1.993
  267SOL    HW112832   4.106   7.474   1.990
  267SOL    HW212833   4.075   7.314   2.006
  268SOL     OW12834   8.385   3.099   5.558
  268SOL    HW112835   8.386   3.160   5.479
  268SOL    HW212836   8.303   3.043   5.556
  269SOL     OW12837   6.597   0.376   1.139
  269SOL    HW112838   6.604   0.286   1.096
  269SOL    HW212839   6.525   0.429   1.095
  270SOL     OW12840   4.544   2.606   1.381
  270SOL    HW112841   4.498   2.679   1.432
  270SOL    HW212842   4.629   2.582   1.428
  271SOL     OW12843   9.271   1.054   6.358
  271SOL    HW112844   9.257   1.153   6.347
  271SOL    HW212845   9.368   1.036   6.371
  272SOL     OW12846   7.586   7.602   4.985
  272SOL    HW112847   7.644   7.655   5.047
  272SOL    HW212848   7.592   7.641   4.893
  273SOL     OW12849   2.522   6.580   6.902
  273SOL    HW112850   2.584   6.625   6.837
  273SOL    HW212851   2.468   6.649   6.950
  274SOL     OW12852   9.373   0.662   6.479
  274SOL    HW112853   9.307   0.706   6.418
  274SOL    HW212854   9.331   0.650   6.569
  275SOL     OW12855   1.348   4.366   6.583
  275SOL    HW112856   1.415   4.291   6.576
  275SOL    HW212857   1.333   4.388   6.679
  276SOL     OW12858   5.900   3.019   1.377
  276SOL    HW112859   5.903   3.118   1.395
  276SOL    HW212860   5.960   2.998   1.300
  277SOL     OW12861   9.446   7.088   6.829
  277SOL    HW112862   9.454   7.152   6.906
  277SOL    HW212863   9.379   7.124   6.763
  278SOL     OW12864   1.125   6.706   6.340
  278SOL    HW112865   1.044   6.754   6.304
  278SOL    HW212866   1.183   6.771   6.389
  279SOL     OW12867   5.767   5.710   5.933
  279SOL    HW112868   5.841   5.750   5.987
  279SOL    HW212869   5.703   5.782   5.906
  280SOL     OW12870   5.662   7.302   6.290
  280SOL    HW112871   5.707   7.223   6.331
  280SOL    HW212872   5.669   7.297   6.190
  281SOL     OW12873   6.054   0.482   1.789
  281SOL    HW112874   6.066   0.581   1.790
  281SOL    HW212875   6.040   0.449   1.882
  282SOL     OW12876   3.885   2.772   5.416
  282SOL    HW112877   3.921   2.821   5.495
  282SOL    HW212878   3.946   2.784   5.338
  283SOL     OW12879   3.095   6.532   4.996
  283SOL    HW112880   3.174   6.590   5.018
  283SOL    HW212881   3.012   6.588   4.995
  284SOL     OW12882   1.773   3.678   6.770
  284SOL    HW112883   1.676   3.662   6.785
  284SOL    HW212884   1.795   3.660   6.674
  285SOL     OW12885   8.251   8.025   5.916
  285SOL    HW112886   8.301   8.085   5.980
  285SOL    HW212887   8.206   8.081   5.846
  286SOL     OW12888   2.496   1.408   6.904
  286SOL    HW112889   2.537   1.441   6.990
  286SOL    HW212890   2.475   1.486   6.845
  287SOL     OW12891   4.141   0.977   1.161
  287SOL    HW112892   4.095   0.924   1.090
  287SOL    HW212893   4.178   1.061   1.121
  288SOL     OW12894   6.971   7.096   1.632
  288SOL    HW112895   7.046   7.031   1.623
  288SOL    HW212896   6.938   7.096   1.726
  289SOL     OW12897   3.098   6.891   0.492
  289SOL    HW112898   3.065   6.897   0.397
  289SOL    HW212899   3.195   6.867   0.492
  290SOL     OW12900   8.903   6.443   0.791
  290SOL    HW112901   8.832   6.489   0.844
  290SOL    HW212902   8.925   6.355   0.834
  291SOL     OW12903   6.639   6.385   6.462
  291SOL    HW112904   6.603   6.376   6.369
  291SOL    HW212905   6.728   6.431   6.459
  292SOL     OW12906   0.820   2.499   0.944
  292SOL    HW112907   0.847   2.567   0.876
  292SOL    HW212908   0.842   2.532   1.036
  293SOL     OW12909   7.299   6.410   6.228
  293SOL    HW112910   7.212   6.365   6.207
  293SOL    HW212911   7.370   6.341   6.243
  294SOL     OW12912   7.729   2.394   6.705
  294SOL    HW112913   7.783   2.347   6.775
  294SOL    HW212914   7.690   2.477   6.743
  295SOL     OW12915   6.674   6.842   5.662
  295SOL    HW112916   6.734   6.835   5.743
  295SOL    HW212917   6.730   6.834   5.579
  296SOL     OW12918   5.629   0.885   0.341
  296SOL    HW112919   5.717   0.841   0.324
  296SOL    HW212920   5.557   0.833   0.295
  297SOL     OW12921   1.153   0.848   6.322
  297SOL    HW112922   1.111   0.893   6.400
  297SOL    HW212923   1.229   0.905   6.288
  298SOL     OW12924   4.603   4.249   2.068
  298SOL    HW112925   4.591   4.304   1.985
  298SOL    HW212926   4.700   4.245   2.091
  299SOL     OW12927   8.718   6.009   6.435
  299SOL    HW112928   8.761   6.033   6.348
  299SOL    HW212929   8.626   5.974   6.417
  300SOL     OW12930   6.910   1.032   6.877
  300SOL    HW112931   6.931   0.985   6.792
  300SOL    HW212932   6.985   1.020   6.942
  301SOL     OW12933   4.327   0.333   5.825
  301SOL    HW112934   4.421   0.310   5.849
  301SOL    HW212935   4.319   0.431   5.808
  302SOL     OW12936   1.013   8.245   6.891
  302SOL    HW112937   0.977   8.155   6.914
  302SOL    HW212938   0.986   8.311   6.961
  303SOL     OW12939   3.514   5.988   6.218
  303SOL    HW112940   3.415   5.992   6.221
  303SOL    HW212941   3.551   6.008   6.309
  304SOL     OW12942   3.222   0.357   5.232
  304SOL    HW112943   3.130   0.368   5.195
  304SOL    HW212944   3.218   0.307   5.318
  305SOL     OW12945   4.294   6.936   5.772
  305SOL    HW112946   4.262   6.848   5.806
  305SOL    HW212947   4.230   6.971   5.704
  306SOL     OW12948   2.588   3.521   1.098
  306SOL    HW112949   2.681   3.504   1.128
  306SOL    HW212950   2.559   3.612   1.129
  307SOL     OW12951   4.733   1.387   1.553
  307SOL    HW112952   4.783   1.303   1.533
  307SOL    HW212953   4.720   1.395   1.651
  308SOL     OW12954   6.979   4.697   6.197
  308SOL    HW112955   6.978   4.668   6.102
  308SOL    HW212956   6.924   4.780   6.207
  309SOL     OW12957   6.477   3.298   0.413
  309SOL    HW112958   6.565   3.309   0.366
  309SOL    HW212959   6.487   3.329   0.508
  310SOL     OW12960   8.048   4.539   5.424
  310SOL    HW112961   7.949   4.528   5.433
  310SOL    HW212962   8.086   4.461   5.373
  311SOL     OW12963   1.551   0.874   5.589
  311SOL    HW112964   1.456   0.848   5.604
  311SOL    HW212965   1.609   0.793   5.591
  312SOL     OW12966   3.072   6.196   6.395
  312SOL    HW112967   3.106   6.276   6.444
  312SOL    HW212968   3.011   6.224   6.321
  313SOL     OW12969   1.748   4.204   0.791
  313SOL    HW112970   1.669   4.215   0.731
  313SOL    HW212971   1.718   4.168   0.880
  314SOL     OW12972   4.417   0.051   6.711
  314SOL    HW112973   4.472   0.134   6.700
  314SOL    HW212974   4.353   0.043   6.635
  315SOL     OW12975   6.886   2.724   1.910
  315SOL    HW112976   6.861   2.799   1.970
  315SOL    HW212977   6.966   2.750   1.855
  316SOL     OW12978   7.632   7.564   1.203
  316SOL    HW112979   7.707   7.563   1.137
  316SOL    HW212980   7.545   7.547   1.155
  317SOL     OW12981   7.991   8.056   0.687
  317SOL    HW112982   8.080   8.101   0.682
  317SOL    HW212983   7.978   8.000   0.605
  318SOL     OW12984   1.039  -0.023   1.209
  318SOL    HW112985   1.035  -0.106   1.265
  318SOL    HW212986   1.017  -0.046   1.114
  319SOL     OW12987   3.188   8.403   2.135
  319SOL    HW112988   3.227   8.490   2.163
  319SOL    HW212989   3.090   8.402   2.153
  320SOL     OW12990   0.381   3.647   1.227
  320SOL    HW112991   0.409   3.689   1.314
  320SOL    HW212992   0.458   3.647   1.163
  321SOL     OW12993   7.148   3.155   0.524
  321SOL    HW112994   7.155   3.072   0.579
  321SOL    HW212995   7.103   3.227   0.577
  322SOL     OW12996   1.885   0.510   1.103
  322SOL    HW112997   1.936   0.587   1.064
  322SOL    HW212998   1.880   0.435   1.037
  323SOL     OW12999   0.245   3.053   0.494
  323SOL    HW113000   0.260   2.954   0.500
  323SOL    HW213001   0.147   3.073   0.494
  324SOL     OW13002   4.037   6.083   6.128
  324SOL    HW113003   4.000   6.006   6.181
  324SOL    HW213004   3.961   6.136   6.090
  325SOL     OW13005   1.569   4.104   0.395
  325SOL    HW113006   1.611   4.183   0.350
  325SOL    HW213007   1.638   4.032   0.407
  326SOL     OW13008   7.816   3.255   6.277
  326SOL    HW113009   7.768   3.312   6.211
  326SOL    HW213010   7.837   3.310   6.359
  327SOL     OW13011   7.838   5.994   6.430
  327SOL    HW113012   7.768   5.996   6.501
  327SOL    HW213013   7.904   5.922   6.451
  328SOL     OW13014   7.286   1.471   1.406
  328SOL    HW113015   7.292   1.373   1.389
  328SOL    HW213016   7.330   1.493   1.493
  329SOL     OW13017   6.536   3.357   1.410
  329SOL    HW113018   6.615   3.311   1.449
  329SOL    HW213019   6.480   3.291   1.360
  330SOL     OW13020   7.408   2.910   6.292
  330SOL    HW113021   7.436   2.826   6.338
  330SOL    HW213022   7.470   2.984   6.318
  331SOL     OW13023   4.229   8.321   6.322
  331SOL    HW113024   4.291   8.245   6.303
  331SOL    HW213025   4.139   8.302   6.283
  332SOL     OW13026   3.039   6.203   6.828
  332SOL    HW113027   2.984   6.184   6.747
  332SOL    HW213028   3.131   6.228   6.800
  333SOL     OW13029   0.615   4.532   6.834
  333SOL    HW113030   0.595   4.438   6.864
  333SOL    HW213031   0.703   4.534   6.787
  334SOL     OW13032   2.630   3.206   5.715
  334SOL    HW113033   2.689   3.136   5.756
  334SOL    HW213034   2.635   3.201   5.616
  335SOL     OW13035   5.435   2.507   1.551
  335SOL    HW113036   5.476   2.417   1.537
  335SOL    HW213037   5.358   2.518   1.488
  336SOL     OW13038   9.120   3.903   1.126
  336SOL    HW113039   9.215   3.875   1.112
  336SOL    HW213040   9.117   3.994   1.168
  337SOL     OW13041   0.381   3.145   5.653
  337SOL    HW113042   0.436   3.145   5.569
  337SOL    HW213043   0.298   3.200   5.638
  338SOL     OW13044   7.151   4.407   6.504
  338SOL    HW113045   7.065   4.359   6.518
  338SOL    HW213046   7.219   4.344   6.466
  339SOL     OW13047   1.072   7.974   1.619
  339SOL    HW113048   1.115   8.063   1.632
  339SOL    HW213049   0.978   7.977   1.653
  340SOL     OW13050   0.634   1.236   4.860
  340SOL    HW113051   0.575   1.317   4.855
  340SOL    HW213052   0.579   1.155   4.879
  341SOL     OW13053   4.661   5.820   6.831
  341SOL    HW113054   4.748   5.869   6.824
  341SOL    HW213055   4.678   5.728   6.866
  342SOL     OW13056   0.286   4.107   6.725
  342SOL    HW113057   0.258   4.014   6.749
  342SOL    HW213058   0.212   4.153   6.676
  343SOL     OW13059   7.614   6.261   6.899
  343SOL    HW113060   7.570   6.351   6.898
  343SOL    HW213061   7.693   6.262   6.837
  344SOL     OW13062   3.475   6.284   6.587
  344SOL    HW113063   3.531   6.226   6.527
  344SOL    HW213064   3.421   6.347   6.531
  345SOL     OW13065   6.531   3.675   6.781
  345SOL    HW113066   6.467   3.751   6.772
  345SOL    HW213067   6.624   3.707   6.761
  346SOL     OW13068   7.778   0.615   5.962
  346SOL    HW113069   7.852   0.574   5.909
  346SOL    HW213070   7.712   0.657   5.899
  347SOL     OW13071   7.927   7.401   5.097
  347SOL    HW113072   7.966   7.414   5.188
  347SOL    HW213073   7.827   7.408   5.102
  348SOL     OW13074   2.508   1.374   0.555
  348SOL    HW113075   2.504   1.470   0.582
  348SOL    HW213076   2.437   1.322   0.603
  349SOL     OW13077   6.528   1.810   5.918
  349SOL    HW113078   6.533   1.895   5.865
  349SOL    HW213079   6.455   1.753   5.880
  350SOL     OW13080   5.223   0.353   6.468
  350SOL    HW113081   5.316   0.377   6.441
  350SOL    HW213082   5.198   0.404   6.551
  351SOL     OW13083   7.529   3.522   0.977
  351SOL    HW113084   7.523   3.620   0.990
  351SOL    HW213085   7.563   3.478   1.060
  352SOL     OW13086   0.389   3.205   6.384
  352SOL    HW113087   0.332   3.123   6.376
  352SOL    HW213088   0.338   3.283   6.348
  353SOL     OW13089   3.386   3.477   0.331
  353SOL    HW113090   3.362   3.543   0.261
  353SOL    HW213091   3.486   3.468   0.336
  354SOL     OW13092   2.312   5.009   6.907
  354SOL    HW113093   2.371   5.086   6.886
  354SOL    HW213094   2.221   5.025   6.867
  355SOL     OW13095   2.750   3.260   6.790
  355SOL    HW113096   2.674   3.223   6.845
  355SOL    HW213097   2.756   3.359   6.805
  356SOL     OW13098   7.337   5.890   5.681
  356SOL    HW113099   7.343   5.812   5.619
  356SOL    HW213100   7.256   5.945   5.658
  357SOL     OW13101   7.610   3.730   6.533
  357SOL    HW113102   7.683   3.708   6.598
  357SOL    HW213103   7.627   3.684   6.446
  358SOL     OW13104   1.195   7.146   5.775
  358SOL    HW113105   1.216   7.085   5.851
  358SOL    HW213106   1.158   7.232   5.811
  359SOL     OW13107   8.113   6.146   0.224
  359SOL    HW113108   8.158   6.057   0.216
  359SOL    HW213109   8.121   6.196   0.138
  360SOL     OW13110   4.805   7.392   6.528
  360SOL    HW113111   4.862   7.337   6.589
  360SOL    HW213112   4.726   7.427   6.578
  361SOL     OW13113   4.853   0.495   0.571
  361SOL    HW113114   4.788   0.516   0.644
  361SOL    HW213115   4.831   0.407   0.530
  362SOL     OW13116   2.241   0.412   0.963
  362SOL    HW113117   2.234   0.360   1.049
  362SOL    HW213118   2.187   0.368   0.892
  363SOL     OW13119   0.475   0.254   5.811
  363SOL    HW113120   0.573   0.235   5.817
  363SOL    HW213121   0.456   0.346   5.846
  364SOL     OW13122   8.843   1.832   0.345
  364SOL    HW113123   8.802   1.796   0.261
  364SOL    HW213124   8.892   1.917   0.325
  365SOL     OW13125   3.926   4.257   0.782
  365SOL    HW113126   3.949   4.320   0.708
  365SOL    HW213127   4.009   4.237   0.835
  366SOL     OW13128   8.872   4.224   6.560
  366SOL    HW113129   8.845   4.293   6.626
  366SOL    HW213130   8.869   4.263   6.468
  367SOL     OW13131   8.102   1.072   6.105
  367SOL    HW113132   8.128   1.116   6.019
  367SOL    HW213133   8.093   0.973   6.090
  368SOL     OW13134   0.832   4.861   0.379
  368SOL    HW113135   0.769   4.919   0.326
  368SOL    HW213136   0.893   4.813   0.316
  369SOL     OW13137   7.050   5.446   5.955
  369SOL    HW113138   7.039   5.543   5.935
  369SOL    HW213139   7.121   5.408   5.896
  370SOL     OW13140   5.752   1.473   0.555
  370SOL    HW113141   5.777   1.401   0.620
  370SOL    HW213142   5.804   1.461   0.470
  371SOL     OW13143   5.133   7.403   6.466
  371SOL    HW113144   5.125   7.422   6.368
  371SOL    HW213145   5.124   7.305   6.482
  372SOL     OW13146   0.448   3.334   1.135
  372SOL    HW113147   0.532   3.386   1.118
  372SOL    HW213148   0.467   3.262   1.201
  373SOL     OW13149   6.525   4.903   1.050
  373SOL    HW113150   6.545   4.992   1.009
  373SOL    HW213151   6.600   4.839   1.031
  374SOL     OW13152   2.433   5.606   6.665
  374SOL    HW113153   2.528   5.612   6.696
  374SOL    HW213154   2.372   5.613   6.744
  375SOL     OW13155   8.473   3.915   5.446
  375SOL    HW113156   8.399   3.853   5.421
  375SOL    HW213157   8.495   3.974   5.368
  376SOL     OW13158   3.528   2.322   5.374
  376SOL    HW113159   3.465   2.399   5.388
  376SOL    HW213160   3.543   2.309   5.276
  377SOL     OW13161   8.456   1.808   0.604
  377SOL    HW113162   8.554   1.803   0.586
  377SOL    HW213163   8.414   1.873   0.542
  378SOL     OW13164   3.998   5.174   1.907
  378SOL    HW113165   3.934   5.249   1.923
  378SOL    HW213166   3.957   5.109   1.843
  379SOL     OW13167   6.173   0.950   1.519
  379SOL    HW113168   6.127   1.020   1.574
  379SOL    HW213169   6.108   0.912   1.453
  380SOL     OW13170   5.890   0.434   5.425
  380SOL    HW113171   5.843   0.521   5.435
  380SOL    HW213172   5.939   0.413   5.510
  381SOL     OW13173   8.380   0.031   6.378
  381SOL    HW113174   8.359  -0.063   6.351
  381SOL    HW213175   8.303   0.069   6.429
  382SOL     OW13176   0.354   8.287   1.646
  382SOL    HW113177   0.426   8.314   1.710
  382SOL    HW213178   0.270   8.266   1.697
  383SOL     OW13179   6.637   1.063   0.783
  383SOL    HW113180   6.595   0.973   0.791
  383SOL    HW213181   6.567   1.133   0.783
  384SOL     OW13182   6.586   7.512   0.598
  384SOL    HW113183   6.626   7.597   0.632
  384SOL    HW213184   6.489   7.526   0.579
  385SOL     OW13185   6.540   2.701   1.189
  385SOL    HW113186   6.640   2.700   1.181
  385SOL    HW213187   6.513   2.770   1.256
  386SOL     OW13188   6.078   6.701   6.490
  386SOL    HW113189   6.036   6.704   6.399
  386SOL    HW213190   6.059   6.612   6.532
  387SOL     OW13191   5.709   7.235   6.022
  387SOL    HW113192   5.800   7.277   6.018
  387SOL    HW213193   5.668   7.236   5.931
  388SOL     OW13194   5.100   3.998   1.374
  388SOL    HW113195   5.053   4.086   1.362
  388SOL    HW213196   5.186   4.013   1.422
  389SOL     OW13197   6.485   3.368   0.681
  389SOL    HW113198   6.421   3.318   0.739
  389SOL    HW213199   6.567   3.391   0.734
  390SOL     OW13200   0.658   5.094   5.587
  390SOL    HW113201   0.663   5.032   5.509
  390SOL    HW213202   0.597   5.170   5.566
  391SOL     OW13203   8.360   4.966   6.418
  391SOL    HW113204   8.360   5.017   6.504
  391SOL    HW213205   8.391   5.025   6.343
  392SOL     OW13206   8.534   2.861   6.393
  392SOL    HW113207   8.579   2.866   6.483
  392SOL    HW213208   8.516   2.766   6.370
  393SOL     OW13209   6.860   5.855   5.559
  393SOL    HW113210   6.872   5.806   5.473
  393SOL    HW213211   6.910   5.808   5.632
  394SOL     OW13212   8.607   7.743   5.972
  394SOL    HW113213   8.617   7.644   5.980
  394SOL    HW213214   8.540   7.764   5.900
  395SOL     OW13215   3.156   3.150   6.645
  395SOL    HW113216   3.150   3.154   6.546
  395SOL    HW213217   3.224   3.082   6.672
  396SOL     OW13218   1.632   5.700   5.609
  396SOL    HW113219   1.708   5.636   5.595
  396SOL    HW213220   1.548   5.660   5.574
  397SOL     OW13221   8.749   4.732   0.449
  397SOL    HW113222   8.656   4.750   0.483
  397SOL    HW213223   8.751   4.644   0.402
  398SOL     OW13224   5.697   3.998   5.810
  398SOL    HW113225   5.659   3.955   5.892
  398SOL    HW213226   5.680   3.939   5.731
  399SOL     OW13227   6.464   2.424   0.792
  399SOL    HW113228   6.420   2.346   0.747
  399SOL    HW213229   6.486   2.493   0.723
  400SOL     OW13230   3.500   1.724   6.443
  400SOL    HW113231   3.490   1.699   6.540
  400SOL    HW213232   3.416   1.698   6.394
  401SOL     OW13233   0.235   1.304   6.353
  401SOL    HW113234   0.177   1.385   6.346
  401SOL    HW213235   0.217   1.243   6.276
  402SOL     OW13236   0.341   4.640   1.462
  402SOL    HW113237   0.398   4.683   1.391
  402SOL    HW213238   0.284   4.710   1.505
  403SOL     OW13239   8.627   6.893   0.635
  403SOL    HW113240   8.653   6.810   0.585
  403SOL    HW213241   8.622   6.970   0.571
  404SOL     OW13242   2.681   7.952   6.741
  404SOL    HW113243   2.631   8.038   6.747
  404SOL    HW213244   2.617   7.876   6.754
  405SOL     OW13245   1.580   7.201   0.413
  405SOL    HW113246   1.605   7.260   0.336
  405SOL    HW213247   1.649   7.210   0.485
  406SOL     OW13248   9.583   0.073   1.290
  406SOL    HW113249   9.484   0.066   1.306
  406SOL    HW213250   9.609   0.011   1.216
  407SOL     OW13251   8.642   2.034   0.704
  407SOL    HW113252   8.689   1.950   0.678
  407SOL    HW213253   8.703   2.112   0.686
  408SOL     OW13254   6.903   7.901   0.934
  408SOL    HW113255   6.965   7.826   0.911
  408SOL    HW213256   6.918   7.929   1.029
  409SOL     OW13257   1.257   0.003   5.288
  409SOL    HW113258   1.192   0.078   5.303
  409SOL    HW213259   1.220  -0.081   5.328
  410SOL     OW13260   3.146   0.968   6.712
  410SOL    HW113261   3.156   0.897   6.781
  410SOL    HW213262   3.072   1.030   6.737
  411SOL     OW13263   5.806   4.371   6.312
  411SOL    HW113264   5.842   4.440   6.375
  411SOL    HW213265   5.862   4.369   6.229
  412SOL     OW13266   2.055   0.643   5.176
  412SOL    HW113267   2.111   0.606   5.102
  412SOL    HW213268   2.050   0.576   5.250
  413SOL     OW13269   0.539   6.909   1.217
  413SOL    HW113270   0.466   6.842   1.200
  413SOL    HW213271   0.570   6.900   1.312
  414SOL     OW13272   1.928   7.879   4.294
  414SOL    HW113273   1.841   7.917   4.323
  414SOL    HW213274   1.974   7.943   4.233
  415SOL     OW13275   7.670   6.464   6.595
  415SOL    HW113276   7.632   6.485   6.685
  415SOL    HW213277   7.738   6.533   6.571
  416SOL     OW13278   6.588   3.113   0.896
  416SOL    HW113279   6.574   3.035   0.834
  416SOL    HW213280   6.647   3.084   0.972
  417SOL     OW13281   0.711   3.360   5.315
  417SOL    HW113282   0.616   3.381   5.335
  417SOL    HW213283   0.743   3.417   5.239
  418SOL     OW13284   1.276   2.767   1.231
  418SOL    HW113285   1.188   2.743   1.272
  418SOL    HW213286   1.285   2.866   1.228
  419SOL     OW13287   5.636  -0.048   1.332
  419SOL    HW113288   5.681  -0.091   1.253
  419SOL    HW213289   5.702   0.008   1.381
  420SOL     OW13290   3.208   6.361   5.838
  420SOL    HW113291   3.222   6.284   5.776
  420SOL    HW213292   3.119   6.403   5.821
  421SOL     OW13293   0.348   0.469   5.947
  421SOL    HW113294   0.271   0.526   5.917
  421SOL    HW213295   0.330   0.435   6.039
  422SOL     OW13296   2.859   7.818   0.973
  422SOL    HW113297   2.901   7.738   0.930
  422SOL    HW213298   2.761   7.803   0.983
  423SOL     OW13299   7.721   6.469   6.043
  423SOL    HW113300   7.719   6.568   6.054
  423SOL    HW213301   7.691   6.445   5.951
  424SOL     OW13302   1.352   5.074   5.877
  424SOL    HW113303   1.318   5.087   5.784
  424SOL    HW213304   1.282   5.100   5.942
  425SOL     OW13305   7.174   2.976   1.243
  425SOL    HW113306   7.216   2.952   1.331
  425SOL    HW213307   7.157   3.074   1.241
  426SOL     OW13308   2.169   6.473   5.590
  426SOL    HW113309   2.187   6.482   5.492
  426SOL    HW213310   2.089   6.526   5.615
  427SOL     OW13311   9.403   2.999   1.184
  427SOL    HW113312   9.382   3.036   1.275
  427SOL    HW213313   9.490   2.950   1.188
  428SOL     OW13314   0.503   1.750   0.862
  428SOL    HW113315   0.595   1.750   0.901
  428SOL    HW213316   0.449   1.823   0.905
  429SOL     OW13317   4.647   4.650   5.620
  429SOL    HW113318   4.702   4.689   5.546
  429SOL    HW213319   4.672   4.554   5.634
  430SOL     OW13320   0.452   7.252   6.448
  430SOL    HW113321   0.436   7.349   6.465
  430SOL    HW213322   0.485   7.239   6.354
  431SOL     OW13323   9.368   2.695   6.154
  431SOL    HW113324   9.332   2.721   6.244
  431SOL    HW213325   9.309   2.624   6.115
  432SOL     OW13326   4.484   6.444   0.294
  432SOL    HW113327   4.568   6.409   0.335
  432SOL    HW213328   4.506   6.525   0.239
  433SOL     OW13329   3.934   1.837   0.595
  433SOL    HW113330   3.909   1.796   0.508
  433SOL    HW213331   3.862   1.900   0.624
  434SOL     OW13332   7.908   0.277   0.961
  434SOL    HW113333   7.859   0.343   1.018
  434SOL    HW213334   7.977   0.229   1.016
  435SOL     OW13335   3.592   6.106   0.343
  435SOL    HW113336   3.639   6.114   0.430
  435SOL    HW213337   3.524   6.180   0.335
  436SOL     OW13338   7.468   5.232   5.407
  436SOL    HW113339   7.425   5.300   5.348
  436SOL    HW213340   7.537   5.181   5.355
  437SOL     OW13341   4.275   6.381   0.558
  437SOL    HW113342   4.206   6.361   0.488
  437SOL    HW213343   4.290   6.300   0.615
  438SOL     OW13344   9.576   5.362   0.467
  438SOL    HW113345   9.520   5.293   0.421
  438SOL    HW213346   9.559   5.358   0.566
  439SOL     OW13347   6.814   3.183   5.747
  439SOL    HW113348   6.871   3.265   5.747
  439SOL    HW213349   6.723   3.207   5.713
  440SOL     OW13350   3.646   4.911   5.683
  440SOL    HW113351   3.655   4.932   5.780
  440SOL    HW213352   3.616   4.817   5.671
  441SOL     OW13353   0.215   1.877   5.798
  441SOL    HW113354   0.170   1.852   5.713
  441SOL    HW213355   0.165   1.837   5.875
  442SOL     OW13356   3.652   3.602   0.827
  442SOL    HW113357   3.647   3.651   0.914
  442SOL    HW213358   3.658   3.667   0.752
  443SOL     OW13359   1.916   7.239   6.570
  443SOL    HW113360   1.893   7.275   6.660
  443SOL    HW213361   1.970   7.307   6.520
  444SOL     OW13362   9.219   2.868   5.935
  444SOL    HW113363   9.193   2.957   5.970
  444SOL    HW213364   9.283   2.825   5.999
  445SOL     OW13365   2.033   1.432   6.693
  445SOL    HW113366   1.944   1.477   6.706
  445SOL    HW213367   2.099   1.473   6.756
  446SOL     OW13368   6.619   2.958   0.675
  446SOL    HW113369   6.553   2.963   0.600
  446SOL    HW213370   6.709   2.990   0.643
  447SOL     OW13371   2.422   5.699   1.332
  447SOL    HW113372   2.419   5.757   1.413
  447SOL    HW213373   2.516   5.694   1.298
  448SOL     OW13374   9.263   2.834   6.403
  448SOL    HW113375   9.205   2.902   6.358
  448SOL    HW213376   9.224   2.810   6.492
  449SOL     OW13377   6.370   7.610   0.271
  449SOL    HW113378   6.373   7.557   0.355
  449SOL    HW213379   6.342   7.551   0.195
  450SOL     OW13380   5.279   5.286   0.490
  450SOL    HW113381   5.204   5.231   0.528
  450SOL    HW213382   5.271   5.288   0.390
  451SOL     OW13383   9.280   5.340   6.285
  451SOL    HW113384   9.324   5.257   6.253
  451SOL    HW213385   9.250   5.328   6.380
  452SOL     OW13386   9.135   3.068   6.415
  452SOL    HW113387   9.170   3.153   6.376
  452SOL    HW213388   9.045   3.085   6.457
  453SOL     OW13389   1.137   0.362   6.558
  453SOL    HW113390   1.171   0.337   6.649
  453SOL    HW213391   1.132   0.462   6.552
  454SOL     OW13392   3.066   6.446   6.495
  454SOL    HW113393   2.993   6.484   6.438
  454SOL    HW213394   3.065   6.490   6.585
  455SOL     OW13395   4.413   0.523   5.504
  455SOL    HW113396   4.363   0.442   5.472
  455SOL    HW213397   4.461   0.565   5.427
  456SOL     OW13398   7.470   3.584   6.868
  456SOL    HW113399   7.427   3.507   6.821
  456SOL    HW213400   7.479   3.562   6.965
  457SOL     OW13401   9.423   4.818   0.748
  457SOL    HW113402   9.473   4.759   0.812
  457SOL    HW213403   9.405   4.767   0.664
  458SOL     OW13404   6.394   6.638   0.324
  458SOL    HW113405   6.449   6.554   0.326
  458SOL    HW213406   6.452   6.715   0.300
  459SOL     OW13407   8.965   4.726   6.873
  459SOL    HW113408   9.041   4.668   6.902
  459SOL    HW213409   8.955   4.803   6.937
  460SOL     OW13410   3.138   7.599   6.355
  460SOL    HW113411   3.061   7.632   6.410
  460SOL    HW213412   3.146   7.654   6.272
  461SOL     OW13413   0.968   6.530   5.002
  461SOL    HW113414   1.059   6.490   5.001
  461SOL    HW213415   0.942   6.551   5.097
  462SOL     OW13416   5.418   5.458   0.629
  462SOL    HW113417   5.363   5.392   0.578
  462SOL    HW213418   5.362   5.537   0.654
  463SOL     OW13419   0.263   7.587   6.879
  463SOL    HW113420   0.299   7.580   6.972
  463SOL    HW213421   0.212   7.504   6.857
  464SOL     OW13422   5.004   7.906   5.647
  464SOL    HW113423   5.024   7.832   5.711
  464SOL    HW213424   5.030   7.878   5.555
  465SOL     OW13425   1.978   4.482   4.824
  465SOL    HW113426   1.958   4.385   4.834
  465SOL    HW213427   1.894   4.532   4.806
  466SOL     OW13428   8.233   2.446   5.912
  466SOL    HW113429   8.233   2.494   5.824
  466SOL    HW213430   8.235   2.347   5.896
  467SOL     OW13431   4.427   5.727   0.317
  467SOL    HW113432   4.426   5.632   0.349
  467SOL    HW213433   4.521   5.759   0.310
  468SOL     OW13434   8.153   2.399   0.460
  468SOL    HW113435   8.079   2.356   0.512
  468SOL    HW213436   8.119   2.483   0.417
  469SOL     OW13437   0.664   4.675   5.579
  469SOL    HW113438   0.735   4.625   5.530
  469SOL    HW213439   0.707   4.733   5.649
  470SOL     OW13440   2.146   4.422   1.041
  470SOL    HW113441   2.205   4.397   1.118
  470SOL    HW213442   2.056   4.447   1.075
  471SOL     OW13443   5.979   7.795   2.258
  471SOL    HW113444   6.050   7.820   2.324
  471SOL    HW213445   5.999   7.705   2.220
  472SOL     OW13446   2.605   1.172   5.964
  472SOL    HW113447   2.565   1.252   5.919
  472SOL    HW213448   2.655   1.203   6.046
  473SOL     OW13449   5.850   1.924   1.745
  473SOL    HW113450   5.846   1.845   1.805
  473SOL    HW213451   5.945   1.940   1.717
  474SOL     OW13452   8.124   6.141   5.750
  474SOL    HW113453   8.027   6.162   5.760
  474SOL    HW213454   8.179   6.211   5.795
  475SOL     OW13455   0.950   6.784   5.851
  475SOL    HW113456   1.018   6.794   5.778
  475SOL    HW213457   0.859   6.775   5.809
  476SOL     OW13458   1.895   3.729   0.514
  476SOL    HW113459   1.814   3.762   0.562
  476SOL    HW213460   1.914   3.635   0.542
  477SOL     OW13461   1.448   7.073   0.965
  477SOL    HW113462   1.380   7.139   0.996
  477SOL    HW213463   1.443   6.990   1.022
  478SOL     OW13464   5.642   1.901   0.224
  478SOL    HW113465   5.620   1.830   0.291
  478SOL    HW213466   5.599   1.880   0.137
  479SOL     OW13467   5.005   5.586   5.155
  479SOL    HW113468   4.965   5.648   5.087
  479SOL    HW213469   5.088   5.546   5.118
  480SOL     OW13470   9.106   4.648   5.245
  480SOL    HW113471   9.043   4.709   5.293
  480SOL    HW213472   9.080   4.553   5.261
  481SOL     OW13473   5.947   5.439   0.493
  481SOL    HW113474   5.862   5.468   0.538
  481SOL    HW213475   6.025   5.488   0.534
  482SOL     OW13476   1.725   1.173   1.095
  482SOL    HW113477   1.746   1.220   1.181
  482SOL    HW213478   1.630   1.144   1.094
  483SOL     OW13479   7.935   0.465   6.650
  483SOL    HW113480   7.862   0.415   6.697
  483SOL    HW213481   7.951   0.424   6.560
  484SOL     OW13482   4.711   7.794   6.291
  484SOL    HW113483   4.803   7.820   6.260
  484SOL    HW213484   4.701   7.694   6.285
  485SOL     OW13485   1.851   1.438   1.796
  485SOL    HW113486   1.946   1.417   1.821
  485SOL    HW213487   1.788   1.388   1.855
  486SOL     OW13488   8.557   2.563   6.662
  486SOL    HW113489   8.596   2.536   6.750
  486SOL    HW213490   8.495   2.491   6.629
  487SOL     OW13491   8.466   7.214   0.808
  487SOL    HW113492   8.485   7.137   0.869
  487SOL    HW213493   8.548   7.271   0.800
  488SOL     OW13494   1.299   4.242   1.349
  488SOL    HW113495   1.380   4.250   1.408
  488SOL    HW213496   1.222   4.290   1.392
  489SOL     OW13497   6.694   7.105   1.089
  489SOL    HW113498   6.685   7.178   1.157
  489SOL    HW213499   6.734   7.024   1.132
  490SOL     OW13500   2.042   7.538   6.850
  490SOL    HW113501   2.132   7.560   6.811
  490SOL    HW213502   2.028   7.590   6.933
  491SOL     OW13503   1.323   4.136   0.243
  491SOL    HW113504   1.311   4.043   0.207
  491SOL    HW213505   1.395   4.135   0.313
  492SOL     OW13506   4.542   3.578   1.444
  492SOL    HW113507   4.531   3.544   1.538
  492SOL    HW213508   4.472   3.537   1.385
  493SOL     OW13509   3.691   1.971   0.255
  493SOL    HW113510   3.763   1.980   0.185
  493SOL    HW213511   3.603   1.959   0.210
  494SOL     OW13512   1.059   6.577   5.327
  494SOL    HW113513   1.008   6.622   5.400
  494SOL    HW213514   1.114   6.503   5.366
  495SOL     OW13515   2.255   1.786   6.597
  495SOL    HW113516   2.270   1.742   6.508
  495SOL    HW213517   2.339   1.782   6.651
  496SOL     OW13518   2.910   4.169   6.264
  496SOL    HW113519   2.950   4.259   6.246
  496SOL    HW213520   2.839   4.149   6.196
  497SOL     OW13521   8.800   2.586   0.986
  497SOL    HW113522   8.872   2.563   1.051
  497SOL    HW213523   8.771   2.681   0.999
  498SOL     OW13524   8.633   0.505   5.840
  498SOL    HW113525   8.656   0.603   5.840
  498SOL    HW213526   8.692   0.457   5.905
  499SOL     OW13527   3.000   6.954   0.965
  499SOL    HW113528   3.058   6.919   1.039
  499SOL    HW213529   2.904   6.950   0.994
  500SOL     OW13530   3.332   7.944   0.312
  500SOL    HW113531   3.419   7.963   0.359
  500SOL    HW213532   3.324   8.006   0.234
  501SOL     OW13533   1.044   0.968   6.572
  501SOL    HW113534   1.069   0.959   6.668
  501SOL    HW213535   0.995   1.054   6.558
  502SOL     OW13536   1.628   1.716   0.431
  502SOL    HW113537   1.614   1.737   0.528
  502SOL    HW213538   1.725   1.706   0.413
  503SOL     OW13539   0.593   2.337   1.500
  503SOL    HW113540   0.570   2.414   1.440
  503SOL    HW213541   0.662   2.367   1.566
  504SOL     OW13542   5.678   7.584   1.100
  504SOL    HW113543   5.743   7.652   1.066
  504SOL    HW213544   5.637   7.617   1.185
  505SOL     OW13545   3.653   5.445   5.797
  505SOL    HW113546   3.648   5.452   5.896
  505SOL    HW213547   3.564   5.415   5.762
  506SOL     OW13548   4.182   3.308   6.587
  506SOL    HW113549   4.093   3.269   6.612
  506SOL    HW213550   4.244   3.234   6.561
  507SOL     OW13551   2.555   0.013   5.580
  507SOL    HW113552   2.652   0.024   5.600
  507SOL    HW213553   2.520   0.095   5.535
  508SOL     OW13554   5.652   3.203   0.697
  508SOL    HW113555   5.705   3.177   0.778
  508SOL    HW213556   5.627   3.120   0.646
  509SOL     OW13557   7.256   1.878   6.234
  509SOL    HW113558   7.289   1.868   6.140
  509SOL    HW213559   7.300   1.809   6.291
  510SOL     OW13560   2.702   1.456   6.242
  510SOL    HW113561   2.757   1.373   6.242
  510SOL    HW213562   2.642   1.456   6.161
  511SOL     OW13563   4.692   7.348   0.277
  511SOL    HW113564   4.783   7.356   0.317
  511SOL    HW213565   4.660   7.439   0.250
  512SOL     OW13566   7.867   4.198   0.749
  512SOL    HW113567   7.887   4.279   0.804
  512SOL    HW213568   7.953   4.158   0.716
  513SOL     OW13569   0.189   3.198   5.866
  513SOL    HW113570   0.233   3.190   5.955
  513SOL    HW213571   0.259   3.207   5.795
  514SOL     OW13572   2.930   7.918   1.694
  514SOL    HW113573   2.970   8.000   1.735
  514SOL    HW213574   3.001   7.849   1.681
  515SOL     OW13575   1.039   5.382   1.557
  515SOL    HW113576   0.992   5.469   1.574
  515SOL    HW213577   1.131   5.386   1.594
  516SOL     OW13578   1.587   4.184   6.766
  516SOL    HW113579   1.620   4.091   6.778
  516SOL    HW213580   1.543   4.216   6.850
  517SOL     OW13581   1.143   2.042   0.966
  517SOL    HW113582   1.079   1.965   0.966
  517SOL    HW213583   1.226   2.016   0.917
  518SOL     OW13584   3.662   6.091   6.423
  518SOL    HW113585   3.743   6.112   6.477
  518SOL    HW213586   3.667   6.139   6.335
  519SOL     OW13587   1.129   7.711   6.125
  519SOL    HW113588   1.173   7.795   6.095
  519SOL    HW213589   1.128   7.707   6.225
  520SOL     OW13590   7.319   7.103   1.301
  520SOL    HW113591   7.316   7.098   1.401
  520SOL    HW213592   7.336   7.198   1.273
  521SOL     OW13593   3.476   2.726   6.574
  521SOL    HW113594   3.565   2.726   6.528
  521SOL    HW213595   3.486   2.689   6.667
  522SOL     OW13596   2.792   6.997   1.719
  522SOL    HW113597   2.836   7.073   1.766
  522SOL    HW213598   2.695   6.994   1.743
  523SOL     OW13599   8.190   7.650   6.567
  523SOL    HW113600   8.177   7.601   6.481
  523SOL    HW213601   8.121   7.722   6.576
  524SOL     OW13602   6.942   3.511   6.543
  524SOL    HW113603   6.909   3.604   6.527
  524SOL    HW213604   6.863   3.452   6.562
  525SOL     OW13605   8.306   6.767   6.150
  525SOL    HW113606   8.345   6.794   6.062
  525SOL    HW213607   8.354   6.815   6.224
  526SOL     OW13608   0.784   6.001   1.130
  526SOL    HW113609   0.833   6.002   1.043
  526SOL    HW213610   0.700   6.054   1.121
  527SOL     OW13611   8.523   7.986   5.619
  527SOL    HW113612   8.510   8.081   5.648
  527SOL    HW213613   8.497   7.977   5.522
  528SOL     OW13614   5.441   0.993   1.812
  528SOL    HW113615   5.481   0.910   1.772
  528SOL    HW213616   5.507   1.035   1.874
  529SOL     OW13617   0.759   2.944   5.519
  529SOL    HW113618   0.675   2.896   5.493
  529SOL    HW213619   0.801   2.983   5.437
  530SOL     OW13620   1.792   1.958   5.232
  530SOL    HW113621   1.767   1.906   5.150
  530SOL    HW213622   1.814   2.052   5.206
  531SOL     OW13623   9.232   1.321   6.273
  531SOL    HW113624   9.157   1.357   6.218
  531SOL    HW213625   9.295   1.395   6.296
  532SOL     OW13626   6.175   0.901   5.796
  532SOL    HW113627   6.249   0.950   5.750
  532SOL    HW213628   6.109   0.870   5.729
  533SOL     OW13629   6.054   3.246   1.208
  533SOL    HW113630   6.013   3.302   1.136
  533SOL    HW213631   6.059   3.300   1.292
  534SOL     OW13632   3.507   4.499   6.307
  534SOL    HW113633   3.602   4.527   6.295
  534SOL    HW213634   3.463   4.494   6.217
  535SOL     OW13635   0.247   7.289   0.463
  535SOL    HW113636   0.243   7.379   0.507
  535SOL    HW213637   0.313   7.292   0.387
  536SOL     OW13638   2.623   1.486   0.950
  536SOL    HW113639   2.664   1.485   0.859
  536SOL    HW213640   2.694   1.468   1.019
  537SOL     OW13641   3.400   6.526   0.969
  537SOL    HW113642   3.394   6.621   0.999
  537SOL    HW213643   3.435   6.469   1.043
  538SOL     OW13644   7.799   1.997   0.535
  538SOL    HW113645   7.720   2.059   0.525
  538SOL    HW213646   7.772   1.917   0.590
  539SOL     OW13647   0.805   4.870   5.725
  539SOL    HW113648   0.896   4.830   5.729
  539SOL    HW213649   0.808   4.954   5.669
  540SOL     OW13650   9.458   7.547   5.608
  540SOL    HW113651   9.551   7.512   5.594
  540SOL    HW213652   9.446   7.569   5.705
  541SOL     OW13653   8.669   3.560   0.793
  541SOL    HW113654   8.588   3.510   0.763
  541SOL    HW213655   8.737   3.559   0.719
  542SOL     OW13656   8.684   6.818   5.958
  542SOL    HW113657   8.605   6.788   5.906
  542SOL    HW213658   8.767   6.808   5.902
  543SOL     OW13659   5.668   5.055   1.118
  543SOL    HW113660   5.764   5.072   1.139
  543SOL    HW213661   5.617   5.141   1.126
  544SOL     OW13662   0.221   5.812   0.944
  544SOL    HW113663   0.320   5.802   0.957
  544SOL    HW213664   0.197   5.909   0.945
  545SOL     OW13665   1.034   8.191   0.773
  545SOL    HW113666   1.102   8.118   0.764
  545SOL    HW213667   1.018   8.210   0.870
  546SOL     OW13668   6.809   7.100   5.555
  546SOL    HW113669   6.866   7.055   5.624
  546SOL    HW213670   6.712   7.080   5.574
  547SOL     OW13671   9.523   0.971   6.448
  547SOL    HW113672   9.528   1.032   6.527
  547SOL    HW213673   9.601   0.909   6.448
  548SOL     OW13674   0.734   0.418   0.989
  548SOL    HW113675   0.736   0.485   1.062
  548SOL    HW213676   0.823   0.371   0.984
  549SOL     OW13677   4.519   7.758   0.773
  549SOL    HW113678   4.572   7.729   0.853
  549SOL    HW213679   4.575   7.748   0.691
  550SOL     OW13680   7.208   0.895   6.177
  550SOL    HW113681   7.218   0.990   6.204
  550SOL    HW213682   7.281   0.871   6.112
  551SOL     OW13683   8.805   5.520   5.645
  551SOL    HW113684   8.844   5.538   5.555
  551SOL    HW213685   8.875   5.536   5.715
  552SOL     OW13686   3.010   1.975   2.595
  552SOL    HW113687   3.044   1.903   2.656
  552SOL    HW213688   3.049   2.063   2.623
  553SOL     OW13689   1.146   3.723   0.207
  553SOL    HW113690   1.182   3.732   0.300
  553SOL    HW213691   1.159   3.809   0.157
  554SOL     OW13692   6.372   7.958   5.539
  554SOL    HW113693   6.465   7.973   5.572
  554SOL    HW213694   6.363   7.993   5.446
  555SOL     OW13695   4.051   8.077   6.474
  555SOL    HW113696   4.042   8.035   6.384
  555SOL    HW213697   4.017   8.014   6.544
  556SOL     OW13698   6.550   6.700   0.785
  556SOL    HW113699   6.513   6.611   0.811
  556SOL    HW213700   6.599   6.692   0.699
  557SOL     OW13701   5.985   6.080   1.513
  557SOL    HW113702   6.030   6.166   1.491
  557SOL    HW213703   5.992   6.063   1.612
  558SOL     OW13704   3.313   6.001   5.460
  558SOL    HW113705   3.334   5.903   5.450
  558SOL    HW213706   3.387   6.055   5.421
  559SOL     OW13707   8.262   1.997   6.054
  559SOL    HW113708   8.229   2.054   5.978
  559SOL    HW213709   8.217   1.908   6.051
  560SOL     OW13710   5.040   5.278   6.190
  560SOL    HW113711   5.080   5.289   6.100
  560SOL    HW213712   5.027   5.181   6.209
  561SOL     OW13713   0.808   8.377   5.971
  561SOL    HW113714   0.719   8.345   5.939
  561SOL    HW213715   0.810   8.378   6.071
  562SOL     OW13716   0.529   8.179   6.418
  562SOL    HW113717   0.609   8.160   6.361
  562SOL    HW213718   0.525   8.111   6.492
  563SOL     OW13719   4.547   7.893   1.094
  563SOL    HW113720   4.473   7.825   1.097
  563SOL    HW213721   4.598   7.882   1.009
  564SOL     OW13722   5.217   5.619   0.976
  564SOL    HW113723   5.289   5.645   1.041
  564SOL    HW213724   5.196   5.697   0.917
  565SOL     OW13725   0.267   1.112   5.787
  565SOL    HW113726   0.225   1.085   5.873
  565SOL    HW213727   0.343   1.051   5.765
  566SOL     OW13728   7.433   2.438   1.070
  566SOL    HW113729   7.506   2.474   1.128
  566SOL    HW213730   7.367   2.511   1.050
  567SOL     OW13731   0.682   0.582   1.267
  567SOL    HW113732   0.734   0.650   1.319
  567SOL    HW213733   0.587   0.582   1.298
  568SOL     OW13734   8.009   5.866   0.765
  568SOL    HW113735   7.954   5.949   0.769
  568SOL    HW213736   8.077   5.868   0.839
  569SOL     OW13737   3.744   6.749   0.523
  569SOL    HW113738   3.776   6.703   0.606
  569SOL    HW213739   3.739   6.847   0.539
  570SOL     OW13740   4.115   2.888   0.903
  570SOL    HW113741   4.134   2.947   0.824
  570SOL    HW213742   4.016   2.873   0.910
  571SOL     OW13743   8.476   6.263   5.815
  571SOL    HW113744   8.495   6.197   5.888
  571SOL    HW213745   8.562   6.297   5.777
  572SOL     OW13746   5.055   7.244   0.906
  572SOL    HW113747   5.106   7.325   0.936
  572SOL    HW213748   4.993   7.215   0.978
  573SOL     OW13749   8.616   2.136   6.317
  573SOL    HW113750   8.570   2.156   6.231
  573SOL    HW213751   8.635   2.038   6.323
  574SOL     OW13752   3.686   0.752   0.899
  574SOL    HW113753   3.613   0.701   0.946
  574SOL    HW213754   3.650   0.792   0.815
  575SOL     OW13755   4.541   3.906   0.878
  575SOL    HW113756   4.491   3.880   0.961
  575SOL    HW213757   4.540   3.829   0.814
  576SOL     OW13758   0.586   1.036   0.415
  576SOL    HW113759   0.663   0.972   0.415
  576SOL    HW213760   0.537   1.030   0.328
  577SOL     OW13761   7.194   5.048   5.725
  577SOL    HW113762   7.239   5.020   5.641
  577SOL    HW213763   7.140   4.972   5.761
  578SOL     OW13764   5.294   6.940   1.928
  578SOL    HW113765   5.351   7.022   1.923
  578SOL    HW213766   5.246   6.938   2.016
  579SOL     OW13767   5.224   8.349   5.655
  579SOL    HW113768   5.211   8.405   5.573
  579SOL    HW213769   5.154   8.373   5.723
  580SOL     OW13770   3.734   6.469   6.551
  580SOL    HW113771   3.810   6.405   6.543
  580SOL    HW213772   3.735   6.512   6.642
  581SOL     OW13773   3.188   6.684   6.138
  581SOL    HW113774   3.258   6.720   6.200
  581SOL    HW213775   3.193   6.585   6.136
  582SOL     OW13776   8.032   0.282   6.452
  582SOL    HW113777   8.118   0.333   6.459
  582SOL    HW213778   7.999   0.286   6.358
  583SOL     OW13779   9.221   3.704   0.352
  583SOL    HW113780   9.225   3.643   0.273
  583SOL    HW213781   9.313   3.739   0.372
  584SOL     OW13782   7.468   6.211   5.609
  584SOL    HW113783   7.374   6.246   5.608
  584SOL    HW213784   7.502   6.204   5.516
  585SOL     OW13785   8.876   6.056   6.236
  585SOL    HW113786   8.912   6.144   6.266
  585SOL    HW213787   8.937   6.017   6.166
  586SOL     OW13788   2.414   7.662   1.638
  586SOL    HW113789   2.407   7.566   1.665
  586SOL    HW213790   2.408   7.720   1.719
  587SOL     OW13791   4.549   7.571   6.914
  587SOL    HW113792   4.453   7.573   6.939
  587SOL    HW213793   4.558   7.569   6.814
  588SOL     OW13794   8.621   5.361   0.891
  588SOL    HW113795   8.655   5.268   0.876
  588SOL    HW213796   8.696   5.426   0.876
  589SOL     OW13797   6.274   0.656   5.899
  589SOL    HW113798   6.267   0.756   5.893
  589SOL    HW213799   6.330   0.622   5.824
  590SOL     OW13800   9.032   6.258   5.143
  590SOL    HW113801   9.018   6.227   5.048
  590SOL    HW213802   8.996   6.189   5.206
  591SOL     OW13803   0.655   7.412   5.672
  591SOL    HW113804   0.649   7.327   5.725
  591SOL    HW213805   0.564   7.437   5.639
  592SOL     OW13806   5.877   2.670   6.368
  592SOL    HW113807   5.867   2.618   6.454
  592SOL    HW213808   5.967   2.651   6.329
  593SOL     OW13809   9.362   5.743   6.363
  593SOL    HW113810   9.364   5.816   6.431
  593SOL    HW213811   9.270   5.706   6.355
  594SOL     OW13812   7.207   3.225   6.865
  594SOL    HW113813   7.272   3.153   6.838
  594SOL    HW213814   7.128   3.183   6.910
  595SOL     OW13815   1.924   3.629   1.002
  595SOL    HW113816   1.908   3.547   1.057
  595SOL    HW213817   1.959   3.602   0.912
  596SOL     OW13818   2.051   4.764   5.036
  596SOL    HW113819   2.141   4.733   5.006
  596SOL    HW213820   1.989   4.768   4.958
  597SOL     OW13821   4.702   4.787   0.324
  597SOL    HW113822   4.704   4.794   0.424
  597SOL    HW213823   4.656   4.702   0.298
  598SOL     OW13824   2.746   3.913   6.741
  598SOL    HW113825   2.715   3.906   6.646
  598SOL    HW213826   2.690   3.980   6.789
  599SOL     OW13827   4.942   5.722   6.731
  599SOL    HW113828   4.928   5.630   6.769
  599SOL    HW213829   4.942   5.789   6.806
  600SOL     OW13830   1.833   0.700   0.276
  600SOL    HW113831   1.763   0.769   0.295
  600SOL    HW213832   1.795   0.630   0.216
  601SOL     OW13833   2.601   3.524   6.898
  601SOL    HW113834   2.512   3.517   6.854
  601SOL    HW213835   2.601   3.472   6.983
  602SOL     OW13836   7.041   4.965   0.900
  602SOL    HW113837   6.956   5.014   0.922
  602SOL    HW213838   7.027   4.867   0.912
  603SOL     OW13839   4.572   1.904   6.779
  603SOL    HW113840   4.479   1.869   6.787
  603SOL    HW213841   4.570   2.000   6.751
  604SOL     OW13842   5.096   4.961   0.302
  604SOL    HW113843   5.174   5.011   0.264
  604SOL    HW213844   5.042   4.922   0.228
  605SOL     OW13845   6.454   6.772   6.541
  605SOL    HW113846   6.362   6.807   6.558
  605SOL    HW213847   6.456   6.674   6.560
  606SOL     OW13848   7.658   7.415   0.341
  606SOL    HW113849   7.698   7.332   0.381
  606SOL    HW213850   7.660   7.408   0.241
  607SOL     OW13851   7.756   2.401   0.438
  607SOL    HW113852   7.792   2.359   0.355
  607SOL    HW213853   7.732   2.496   0.419
  608SOL     OW13854   4.354   4.911   0.385
  608SOL    HW113855   4.313   4.829   0.347
  608SOL    HW213856   4.454   4.899   0.392
  609SOL     OW13857   1.482   0.394   1.452
  609SOL    HW113858   1.535   0.477   1.469
  609SOL    HW213859   1.535   0.332   1.394
  610SOL     OW13860   5.941   4.978   6.046
  610SOL    HW113861   5.872   4.906   6.047
  610SOL    HW213862   6.031   4.938   6.032
  611SOL     OW13863   3.558   4.840   1.216
  611SOL    HW113864   3.551   4.902   1.294
  611SOL    HW213865   3.641   4.862   1.164
  612SOL     OW13866   3.444   3.370   1.197
  612SOL    HW113867   3.490   3.309   1.261
  612SOL    HW213868   3.347   3.375   1.220
  613SOL     OW13869   0.376   5.733   6.074
  613SOL    HW113870   0.351   5.769   5.984
  613SOL    HW213871   0.469   5.697   6.070
  614SOL     OW13872   6.226   5.679   6.367
  614SOL    HW113873   6.210   5.724   6.455
  614SOL    HW213874   6.195   5.584   6.371
  615SOL     OW13875   6.831   1.980   1.266
  615SOL    HW113876   6.890   2.055   1.296
  615SOL    HW213877   6.794   2.001   1.176
  616SOL     OW13878   5.868   6.377   1.171
  616SOL    HW113879   5.849   6.314   1.095
  616SOL    HW213880   5.781   6.407   1.211
  617SOL     OW13881   4.042   7.512   5.066
  617SOL    HW113882   4.136   7.488   5.091
  617SOL    HW213883   4.041   7.602   5.023
  618SOL     OW13884   9.248   3.528   6.861
  618SOL    HW113885   9.287   3.455   6.917
  618SOL    HW213886   9.300   3.537   6.777
  619SOL     OW13887   6.042   0.534   5.853
  619SOL    HW113888   6.003   0.606   5.796
  619SOL    HW213889   6.133   0.561   5.884
  620SOL     OW13890   0.468   0.036   4.875
  620SOL    HW113891   0.376   0.010   4.846
  620SOL    HW213892   0.492   0.124   4.835
  621SOL     OW13893   6.367   0.986   1.106
  621SOL    HW113894   6.327   1.024   1.190
  621SOL    HW213895   6.462   1.015   1.099
  622SOL     OW13896   6.637   5.648   5.574
  622SOL    HW113897   6.545   5.660   5.537
  622SOL    HW213898   6.681   5.737   5.582
  623SOL     OW13899   4.931   5.120   1.212
  623SOL    HW113900   4.914   5.163   1.124
  623SOL    HW213901   5.004   5.052   1.203
  624SOL     OW13902   2.559   1.851   6.737
  624SOL    HW113903   2.567   1.946   6.705
  624SOL    HW213904   2.513   1.849   6.825
  625SOL     OW13905   5.345   6.341   0.372
  625SOL    HW113906   5.255   6.313   0.407
  625SOL    HW213907   5.351   6.441   0.371
  626SOL     OW13908   3.655   1.139   1.315
  626SOL    HW113909   3.695   1.128   1.406
  626SOL    HW213910   3.726   1.160   1.249
  627SOL     OW13911   1.713   6.525   4.763
  627SOL    HW113912   1.785   6.457   4.750
  627SOL    HW213913   1.685   6.563   4.675
  628SOL     OW13914   1.926   4.988   5.501
  628SOL    HW113915   1.920   4.940   5.414
  628SOL    HW213916   1.987   5.066   5.493
  629SOL     OW13917   6.664   7.619   1.892
  629SOL    HW113918   6.738   7.552   1.885
  629SOL    HW213919   6.689   7.690   1.959
  630SOL     OW13920   5.675   0.217   6.055
  630SOL    HW113921   5.588   0.219   6.005
  630SOL    HW213922   5.751   0.217   5.990
  631SOL     OW13923   1.972   6.169   1.072
  631SOL    HW113924   1.885   6.137   1.034
  631SOL    HW213925   2.032   6.198   0.997
  632SOL     OW13926   3.988   6.758   0.380
  632SOL    HW113927   3.905   6.743   0.435
  632SOL    HW213928   4.012   6.673   0.333
  633SOL     OW13929   5.200   2.419   1.418
  633SOL    HW113930   5.151   2.392   1.335
  633SOL    HW213931   5.151   2.493   1.463
  634SOL     OW13932   8.071   4.126   1.098
  634SOL    HW113933   8.126   4.044   1.079
  634SOL    HW213934   8.132   4.200   1.125
  635SOL     OW13935   7.151   7.658   6.254
  635SOL    HW113936   7.219   7.615   6.194
  635SOL    HW213937   7.129   7.749   6.218
  636SOL     OW13938   6.564   4.208   0.673
  636SOL    HW113939   6.654   4.166   0.683
  636SOL    HW213940   6.502   4.143   0.628
  637SOL     OW13941   5.722   6.263   0.585
  637SOL    HW113942   5.815   6.233   0.607
  637SOL    HW213943   5.690   6.216   0.503
  638SOL     OW13944   3.530   7.273   1.868
  638SOL    HW113945   3.598   7.255   1.939
  638SOL    HW213946   3.463   7.339   1.903
  639SOL     OW13947   1.980   1.707   6.371
  639SOL    HW113948   1.890   1.693   6.329
  639SOL    HW213949   1.973   1.694   6.470
  640SOL     OW13950   1.577   8.216   6.216
  640SOL    HW113951   1.655   8.178   6.168
  640SOL    HW213952   1.536   8.288   6.159
  641SOL     OW13953   1.824   1.644   5.806
  641SOL    HW113954   1.731   1.672   5.830
  641SOL    HW213955   1.889   1.682   5.871
  642SOL     OW13956   4.838   5.338   1.555
  642SOL    HW113957   4.912   5.287   1.514
  642SOL    HW213958   4.852   5.345   1.654
  643SOL     OW13959   3.713   8.286   5.845
  643SOL    HW113960   3.730   8.189   5.829
  643SOL    HW213961   3.640   8.297   5.912
  644SOL     OW13962   0.737   5.318   5.970
  644SOL    HW113963   0.647   5.276   5.957
  644SOL    HW213964   0.730   5.391   6.038
  645SOL     OW13965   8.344   7.219   1.051
  645SOL    HW113966   8.373   7.216   0.955
  645SOL    HW213967   8.399   7.287   1.100
  646SOL     OW13968   3.663   7.002   1.000
  646SOL    HW113969   3.729   6.987   0.927
  646SOL    HW213970   3.709   7.039   1.081
  647SOL     OW13971   9.312   1.311   6.604
  647SOL    HW113972   9.216   1.305   6.576
  647SOL    HW213973   9.324   1.264   6.691
  648SOL     OW13974   0.916   6.826   5.025
  648SOL    HW113975   0.830   6.832   4.975
  648SOL    HW213976   0.964   6.743   4.999
  649SOL     OW13977   6.685   8.118   6.247
  649SOL    HW113978   6.612   8.076   6.194
  649SOL    HW213979   6.707   8.208   6.209
  650SOL     OW13980   5.948   5.707   1.094
  650SOL    HW113981   5.892   5.750   1.024
  650SOL    HW213982   6.045   5.723   1.074
  651SOL     OW13983   8.366   3.352   1.079
  651SOL    HW113984   8.299   3.331   1.150
  651SOL    HW213985   8.332   3.429   1.024
  652SOL     OW13986   4.103   0.209   0.307
  652SOL    HW113987   4.092   0.113   0.278
  652SOL    HW213988   4.199   0.227   0.326
  653SOL     OW13989   6.998   7.367   1.247
  653SOL    HW113990   7.058   7.395   1.322
  653SOL    HW213991   6.980   7.269   1.254
  654SOL     OW13992   8.593   6.057   6.003
  654SOL    HW113993   8.548   5.989   6.061
  654SOL    HW213994   8.680   6.020   5.970
  655SOL     OW13995   5.875   6.684   6.267
  655SOL    HW113996   5.828   6.622   6.204
  655SOL    HW213997   5.949   6.731   6.219
  656SOL     OW13998   4.207   2.927   1.627
  656SOL    HW113999   4.180   2.902   1.719
  656SOL    HW214000   4.129   2.966   1.578
  657SOL     OW14001   1.845   0.075   6.227
  657SOL    HW114002   1.893   0.041   6.308
  657SOL    HW214003   1.847   0.175   6.226
  658SOL     OW14004   8.096   1.539   6.624
  658SOL    HW114005   8.049   1.456   6.653
  658SOL    HW214006   8.136   1.525   6.533
  659SOL     OW14007   0.250   5.940   0.637
  659SOL    HW114008   0.281   5.924   0.544
  659SOL    HW214009   0.260   5.857   0.691
  660SOL     OW14010   7.448   2.679   6.456
  660SOL    HW114011   7.393   2.716   6.530
  660SOL    HW214012   7.421   2.584   6.437
  661SOL     OW14013   5.013   7.541   1.152
  661SOL    HW114014   4.959   7.605   1.097
  661SOL    HW214015   4.967   7.453   1.154
  662SOL     OW14016   8.130   4.988   0.373
  662SOL    HW114017   8.180   5.046   0.309
  662SOL    HW214018   8.143   5.022   0.466
  663SOL     OW14019   4.690   6.360   1.146
  663SOL    HW114020   4.616   6.305   1.107
  663SOL    HW214021   4.729   6.418   1.074
  664SOL     OW14022   6.973   6.704   0.525
  664SOL    HW114023   6.912   6.706   0.446
  664SOL    HW214024   7.066   6.681   0.494
  665SOL     OW14025   3.738   6.596   5.944
  665SOL    HW114026   3.788   6.585   6.029
  665SOL    HW214027   3.678   6.517   5.930
  666SOL     OW14028   4.493   3.091   1.843
  666SOL    HW114029   4.554   3.159   1.804
  666SOL    HW214030   4.509   3.002   1.800
  667SOL     OW14031   0.144   3.709   1.121
  667SOL    HW114032   0.227   3.678   1.168
  667SOL    HW214033   0.159   3.801   1.085
  668SOL     OW14034   4.348   3.502   6.688
  668SOL    HW114035   4.265   3.448   6.671
  668SOL    HW214036   4.422   3.467   6.632
  669SOL     OW14037   3.087   2.390   0.272
  669SOL    HW114038   3.080   2.293   0.294
  669SOL    HW214039   2.995   2.428   0.261
  670SOL     OW14040   1.908   3.151   5.478
  670SOL    HW114041   1.930   3.101   5.394
  670SOL    HW214042   1.808   3.156   5.488
  671SOL     OW14043   4.093   2.554   0.352
  671SOL    HW114044   3.999   2.520   0.355
  671SOL    HW214045   4.103   2.616   0.274
  672SOL     OW14046   1.772   7.342   5.803
  672SOL    HW114047   1.694   7.376   5.854
  672SOL    HW214048   1.789   7.401   5.724
  673SOL     OW14049   4.695   5.106   6.371
  673SOL    HW114050   4.666   5.189   6.323
  673SOL    HW214051   4.615   5.052   6.395
  674SOL     OW14052   0.869   1.599   6.537
  674SOL    HW114053   0.841   1.647   6.454
  674SOL    HW214054   0.791   1.548   6.574
  675SOL     OW14055   4.646   3.291   1.732
  675SOL    HW114056   4.581   3.363   1.709
  675SOL    HW214057   4.737   3.318   1.702
  676SOL     OW14058   8.424   5.089   6.071
  676SOL    HW114059   8.516   5.102   6.108
  676SOL    HW214060   8.421   5.123   5.977
  677SOL     OW14061   0.193   0.462   0.577
  677SOL    HW114062   0.213   0.365   0.590
  677SOL    HW214063   0.185   0.482   0.480
  678SOL     OW14064   0.281   1.330   6.632
  678SOL    HW114065   0.272   1.424   6.665
  678SOL    HW214066   0.250   1.325   6.537
  679SOL     OW14067   0.744   1.492   5.251
  679SOL    HW114068   0.661   1.543   5.274
  679SOL    HW214069   0.775   1.519   5.160
  680SOL     OW14070   9.131   8.201   5.497
  680SOL    HW114071   9.035   8.204   5.524
  680SOL    HW214072   9.157   8.288   5.454
  681SOL     OW14073   5.666   5.330   6.903
  681SOL    HW114074   5.624   5.409   6.948
  681SOL    HW214075   5.648   5.248   6.958
  682SOL     OW14076   8.719   2.615   6.088
  682SOL    HW114077   8.720   2.689   6.022
  682SOL    HW214078   8.703   2.652   6.180
  683SOL     OW14079   1.571   0.744   0.587
  683SOL    HW114080   1.529   0.795   0.512
  683SOL    HW214081   1.658   0.704   0.556
  684SOL     OW14082   7.111   0.653   0.391
  684SOL    HW114083   7.017   0.669   0.361
  684SOL    HW214084   7.172   0.719   0.346
  685SOL     OW14085   2.671   6.713   1.260
  685SOL    HW114086   2.599   6.741   1.323
  685SOL    HW214087   2.725   6.640   1.301
  686SOL     OW14088   2.327   3.573   6.782
  686SOL    HW114089   2.329   3.516   6.700
  686SOL    HW214090   2.306   3.668   6.757
  687SOL     OW14091   6.280   4.155   5.501
  687SOL    HW114092   6.301   4.198   5.589
  687SOL    HW214093   6.302   4.058   5.505
  688SOL     OW14094   3.930   5.571   6.365
  688SOL    HW114095   3.875   5.495   6.399
  688SOL    HW214096   3.871   5.639   6.321
  689SOL     OW14097   7.782   6.752   6.184
  689SOL    HW114098   7.708   6.772   6.120
  689SOL    HW214099   7.835   6.836   6.201
  690SOL     OW14100   1.843   4.592   5.743
  690SOL    HW114101   1.941   4.598   5.727
  690SOL    HW214102   1.793   4.630   5.665
  691SOL     OW14103   4.698   1.524   5.171
  691SOL    HW114104   4.693   1.440   5.224
  691SOL    HW214105   4.609   1.569   5.169
  692SOL     OW14106   3.661   0.500   0.621
  692SOL    HW114107   3.579   0.470   0.671
  692SOL    HW214108   3.730   0.428   0.623
  693SOL     OW14109   4.192   3.338   5.392
  693SOL    HW114110   4.167   3.242   5.403
  693SOL    HW214111   4.133   3.381   5.324
  694SOL     OW14112   5.308   2.152   1.459
  694SOL    HW114113   5.282   2.109   1.373
  694SOL    HW214114   5.275   2.247   1.461
  695SOL     OW14115   4.208   2.623   0.726
  695SOL    HW114116   4.214   2.640   0.824
  695SOL    HW214117   4.153   2.695   0.683
  696SOL     OW14118   5.445   8.120   2.051
  696SOL    HW114119   5.544   8.130   2.057
  696SOL    HW214120   5.406   8.114   2.142
  697SOL     OW14121   5.769   2.187   1.355
  697SOL    HW114122   5.681   2.214   1.393
  697SOL    HW214123   5.759   2.167   1.257
  698SOL     OW14124   2.710   0.519   6.636
  698SOL    HW114125   2.688   0.489   6.729
  698SOL    HW214126   2.625   0.538   6.586
  699SOL     OW14127   8.305   4.308   6.201
  699SOL    HW114128   8.335   4.394   6.160
  699SOL    HW214129   8.365   4.285   6.278
  700SOL     OW14130   1.949   0.086   5.592
  700SOL    HW114131   1.914   0.000   5.555
  700SOL    HW214132   1.961   0.152   5.518
  701SOL     OW14133   5.701   5.500   1.152
  701SOL    HW114134   5.647   5.580   1.176
  701SOL    HW214135   5.640   5.424   1.126
  702SOL     OW14136   6.441   1.008   1.438
  702SOL    HW114137   6.497   0.935   1.399
  702SOL    HW214138   6.347   0.978   1.447
  703SOL     OW14139   1.544   6.104   5.615
  703SOL    HW114140   1.510   6.042   5.544
  703SOL    HW214141   1.550   6.054   5.702
  704SOL     OW14142   3.919   5.293   6.614
  704SOL    HW114143   3.848   5.316   6.546
  704SOL    HW214144   4.007   5.287   6.568
  705SOL     OW14145   2.428   0.954   0.490
  705SOL    HW114146   2.427   1.006   0.576
  705SOL    HW214147   2.522   0.944   0.459
  706SOL     OW14148   5.876   0.086   5.681
  706SOL    HW114149   5.866   0.023   5.758
  706SOL    HW214150   5.789   0.135   5.666
  707SOL     OW14151   1.010   0.145   5.228
  707SOL    HW114152   1.086   0.207   5.206
  707SOL    HW214153   0.938   0.196   5.274
  708SOL     OW14154   6.460   3.197   1.708
  708SOL    HW114155   6.392   3.269   1.724
  708SOL    HW214156   6.530   3.231   1.645
  709SOL     OW14157   7.188   0.179   1.213
  709SOL    HW114158   7.265   0.182   1.277
  709SOL    HW214159   7.222   0.186   1.120
  710SOL     OW14160   3.043   4.424   6.370
  710SOL    HW114161   3.068   4.490   6.299
  710SOL    HW214162   3.126   4.390   6.414
  711SOL     OW14163   8.997   2.520   6.434
  711SOL    HW114164   9.092   2.492   6.445
  711SOL    HW214165   8.947   2.452   6.381
  712SOL     OW14166   4.667   6.041   1.113
  712SOL    HW114167   4.592   6.060   1.050
  712SOL    HW214168   4.634   6.051   1.208
  713SOL     OW14169   4.800   6.927   0.256
  713SOL    HW114170   4.712   6.920   0.208
  713SOL    HW214171   4.784   6.934   0.354
  714SOL     OW14172   5.061   7.453   6.767
  714SOL    HW114173   5.094   7.395   6.692
  714SOL    HW214174   4.998   7.521   6.730
  715SOL     OW14175   5.230   2.262   6.462
  715SOL    HW114176   5.260   2.338   6.519
  715SOL    HW214177   5.172   2.296   6.388
  716SOL     OW14178   2.723   4.078   6.104
  716SOL    HW114179   2.663   3.998   6.120
  716SOL    HW214180   2.788   4.057   6.031
  717SOL     OW14181   4.452   7.070   2.054
  717SOL    HW114182   4.530   7.111   2.102
  717SOL    HW214183   4.389   7.031   2.121
  718SOL     OW14184   2.908   7.537   6.524
  718SOL    HW114185   2.906   7.560   6.621
  718SOL    HW214186   2.835   7.585   6.476
  719SOL     OW14187   5.559   4.380   0.629
  719SOL    HW114188   5.647   4.347   0.593
  719SOL    HW214189   5.495   4.303   0.632
  720SOL     OW14190   2.522   6.971   1.745
  720SOL    HW114191   2.450   7.038   1.730
  720SOL    HW214192   2.482   6.886   1.779
  721SOL     OW14193   3.189   6.775   1.523
  721SOL    HW114194   3.160   6.713   1.596
  721SOL    HW214195   3.271   6.824   1.552
  722SOL     OW14196   3.220   3.819   6.443
  722SOL    HW114197   3.150   3.854   6.380
  722SOL    HW214198   3.233   3.721   6.428
  723SOL     OW14199   5.181   8.150   0.251
  723SOL    HW114200   5.233   8.122   0.170
  723SOL    HW214201   5.203   8.245   0.273
  724SOL     OW14202   8.373   2.911   0.982
  724SOL    HW114203   8.338   2.835   1.037
  724SOL    HW214204   8.414   2.979   1.043
  725SOL     OW14205   5.116   5.352   6.608
  725SOL    HW114206   5.206   5.392   6.619
  725SOL    HW214207   5.050   5.398   6.668
  726SOL     OW14208   4.026   8.089   2.223
  726SOL    HW114209   3.960   8.092   2.298
  726SOL    HW214210   4.023   7.999   2.180
  727SOL     OW14211   3.975   0.903   6.259
  727SOL    HW114212   3.935   0.887   6.349
  727SOL    HW214213   4.072   0.925   6.269
  728SOL     OW14214   8.234   6.312   5.937
  728SOL    HW114215   8.321   6.285   5.894
  728SOL    HW214216   8.232   6.280   6.031
  729SOL     OW14217   9.043   7.298   0.483
  729SOL    HW114218   9.135   7.289   0.521
  729SOL    HW214219   8.997   7.209   0.486
  730SOL     OW14220   2.307   6.754   1.026
  730SOL    HW114221   2.316   6.801   1.113
  730SOL    HW214222   2.385   6.693   1.012
  731SOL     OW14223   6.352   7.319   6.919
  731SOL    HW114224   6.312   7.284   6.834
  731SOL    HW214225   6.346   7.249   6.990
  732SOL     OW14226   1.715   2.401   0.963
  732SOL    HW114227   1.747   2.496   0.953
  732SOL    HW214228   1.793   2.341   0.980
  733SOL     OW14229   2.838   5.851   1.163
  733SOL    HW114230   2.840   5.763   1.211
  733SOL    HW214231   2.778   5.914   1.212
  734SOL     OW14232   3.237   5.094   0.328
  734SOL    HW114233   3.164   5.140   0.378
  734SOL    HW214234   3.210   5.001   0.305
  735SOL     OW14235   3.514   1.794   1.091
  735SOL    HW114236   3.444   1.787   1.019
  735SOL    HW214237   3.554   1.885   1.090
  736SOL     OW14238   9.530   6.627   6.647
  736SOL    HW114239   9.472   6.706   6.627
  736SOL    HW214240   9.597   6.614   6.573
  737SOL     OW14241   1.710   4.303   0.291
  737SOL    HW114242   1.786   4.261   0.241
  737SOL    HW214243   1.726   4.401   0.301
  738SOL     OW14244   3.893   4.974   6.524
  738SOL    HW114245   3.794   4.967   6.512
  738SOL    HW214246   3.916   5.066   6.557
  739SOL     OW14247   2.788   3.213   6.503
  739SOL    HW114248   2.866   3.266   6.469
  739SOL    HW214249   2.773   3.233   6.600
  740SOL     OW14250   3.551   7.822   5.784
  740SOL    HW114251   3.561   7.763   5.704
  740SOL    HW214252   3.638   7.865   5.805
  741SOL     OW14253   9.182  -0.042   5.436
  741SOL    HW114254   9.084  -0.021   5.430
  741SOL    HW214255   9.233   0.044   5.443
  742SOL     OW14256   7.141   7.575   5.302
  742SOL    HW114257   7.214   7.545   5.239
  742SOL    HW214258   7.061   7.601   5.249
  743SOL     OW14259   6.374   5.728   0.499
  743SOL    HW114260   6.473   5.733   0.513
  743SOL    HW214261   6.351   5.766   0.409
  744SOL     OW14262   8.570   4.074   5.215
  744SOL    HW114263   8.548   4.171   5.216
  744SOL    HW214264   8.624   4.052   5.134
  745SOL     OW14265   4.463   6.502   2.167
  745SOL    HW114266   4.418   6.585   2.135
  745SOL    HW214267   4.562   6.513   2.159
  746SOL     OW14268   4.179   3.419   6.109
  746SOL    HW114269   4.271   3.405   6.073
  746SOL    HW214270   4.122   3.340   6.087
  747SOL     OW14271   3.766   2.127   5.749
  747SOL    HW114272   3.810   2.041   5.725
  747SOL    HW214273   3.687   2.142   5.690
  748SOL     OW14274   0.496   5.188   0.340
  748SOL    HW114275   0.466   5.145   0.425
  748SOL    HW214276   0.557   5.265   0.361
  749SOL     OW14277   2.144   3.416   5.877
  749SOL    HW114278   2.195   3.500   5.862
  749SOL    HW214279   2.077   3.404   5.804
  750SOL     OW14280   0.537   4.780   5.870
  750SOL    HW114281   0.450   4.752   5.912
  750SOL    HW214282   0.534   4.762   5.772
  751SOL     OW14283   4.430   8.126   6.279
  751SOL    HW114284   4.423   8.029   6.254
  751SOL    HW214285   4.525   8.148   6.299
  752SOL     OW14286   1.558   8.272   6.524
  752SOL    HW114287   1.632   8.219   6.481
  752SOL    HW214288   1.470   8.242   6.487
  753SOL     OW14289   6.571   0.263   0.449
  753SOL    HW114290   6.621   0.331   0.503
  753SOL    HW214291   6.635   0.208   0.396
  754SOL     OW14292   5.676   1.045   6.305
  754SOL    HW114293   5.702   1.057   6.209
  754SOL    HW214294   5.734   0.975   6.347
  755SOL     OW14295   7.953   4.742   6.334
  755SOL    HW114296   7.905   4.728   6.247
  755SOL    HW214297   8.051   4.729   6.320
  756SOL     OW14298   4.155   8.185   0.716
  756SOL    HW114299   4.239   8.139   0.745
  756SOL    HW214300   4.129   8.153   0.625
  757SOL     OW14301   3.833   4.238   1.627
  757SOL    HW114302   3.890   4.185   1.690
  757SOL    HW214303   3.764   4.289   1.679
  758SOL     OW14304   0.352   6.724   1.152
  758SOL    HW114305   0.329   6.647   1.212
  758SOL    HW214306   0.393   6.690   1.067
  759SOL     OW14307   6.339   1.668   0.704
  759SOL    HW114308   6.261   1.611   0.679
  759SOL    HW214309   6.386   1.628   0.782
  760SOL     OW14310   7.880   8.426   5.361
  760SOL    HW114311   7.909   8.431   5.266
  760SOL    HW214312   7.792   8.473   5.371
  761SOL     OW14313   3.814   4.207   1.359
  761SOL    HW114314   3.832   4.220   1.457
  761SOL    HW214315   3.760   4.123   1.346
  762SOL     OW14316   4.357   6.782   5.455
  762SOL    HW114317   4.269   6.739   5.474
  762SOL    HW214318   4.347   6.846   5.379
  763SOL     OW14319   9.082   4.515   5.991
  763SOL    HW114320   9.064   4.431   6.043
  763SOL    HW214321   9.130   4.492   5.907
  764SOL     OW14322   4.286   1.429   0.623
  764SOL    HW114323   4.310   1.513   0.672
  764SOL    HW214324   4.207   1.446   0.565
  765SOL     OW14325   3.802   2.075   1.731
  765SOL    HW114326   3.754   2.160   1.709
  765SOL    HW214327   3.896   2.095   1.756
  766SOL     OW14328   5.537   0.798   1.565
  766SOL    HW114329   5.527   0.853   1.482
  766SOL    HW214330   5.613   0.734   1.554
  767SOL     OW14331   8.481   5.317   6.329
  767SOL    HW114332   8.532   5.381   6.387
  767SOL    HW214333   8.544   5.273   6.265
  768SOL     OW14334   4.526   5.088   5.949
  768SOL    HW114335   4.560   5.026   5.878
  768SOL    HW214336   4.602   5.123   6.003
  769SOL     OW14337   7.889   3.730   5.852
  769SOL    HW114338   7.926   3.639   5.872
  769SOL    HW214339   7.817   3.723   5.783
  770SOL     OW14340   1.579   2.302   5.664
  770SOL    HW114341   1.627   2.352   5.592
  770SOL    HW214342   1.486   2.282   5.634
  771SOL     OW14343   7.675   6.015   6.644
  771SOL    HW114344   7.586   6.024   6.598
  771SOL    HW214345   7.714   6.106   6.657
  772SOL     OW14346   7.180   6.487   5.988
  772SOL    HW114347   7.179   6.581   5.953
  772SOL    HW214348   7.235   6.483   6.071
  773SOL     OW14349   2.173   1.095   0.854
  773SOL    HW114350   2.193   1.113   0.950
  773SOL    HW214351   2.074   1.095   0.840
  774SOL     OW14352   8.465   2.296   6.829
  774SOL    HW114353   8.370   2.273   6.850
  774SOL    HW214354   8.505   2.225   6.770
  775SOL     OW14355   1.679   4.837   0.963
  775SOL    HW114356   1.759   4.804   0.913
  775SOL    HW214357   1.619   4.887   0.901
  776SOL     OW14358   3.581   5.942   1.648
  776SOL    HW114359   3.641   5.966   1.724
  776SOL    HW214360   3.636   5.915   1.569
  777SOL     OW14361   3.515   5.194   1.173
  777SOL    HW114362   3.518   5.170   1.075
  777SOL    HW214363   3.475   5.286   1.183
  778SOL     OW14364   4.631   7.637   5.038
  778SOL    HW114365   4.550   7.620   4.983
  778SOL    HW214366   4.713   7.624   4.982
  779SOL     OW14367   6.376   1.096   5.709
  779SOL    HW114368   6.381   1.171   5.643
  779SOL    HW214369   6.439   1.023   5.682
  780SOL     OW14370   7.309   8.297   0.557
  780SOL    HW114371   7.251   8.217   0.545
  780SOL    HW214372   7.253   8.374   0.589
  781SOL     OW14373   7.654   3.997   0.758
  781SOL    HW114374   7.717   4.064   0.720
  781SOL    HW214375   7.560   4.029   0.746
  782SOL     OW14376   3.714   6.194   6.162
  782SOL    HW114377   3.645   6.134   6.122
  782SOL    HW214378   3.777   6.224   6.090
  783SOL     OW14379   0.119   5.385   6.550
  783SOL    HW114380   0.127   5.328   6.469
  783SOL    HW214381   0.129   5.329   6.632
  784SOL     OW14382   6.826   7.886   6.330
  784SOL    HW114383   6.778   7.973   6.321
  784SOL    HW214384   6.763   7.812   6.306
  785SOL     OW14385   6.885   7.417   1.872
  785SOL    HW114386   6.976   7.456   1.860
  785SOL    HW214387   6.893   7.320   1.894
  786SOL     OW14388   8.112   3.314   0.732
  786SOL    HW114389   8.044   3.382   0.759
  786SOL    HW214390   8.140   3.330   0.638
  787SOL     OW14391   1.215   2.994   6.784
  787SOL    HW114392   1.184   3.034   6.870
  787SOL    HW214393   1.136   2.963   6.731
  788SOL     OW14394   1.187   8.102   0.500
  788SOL    HW114395   1.239   8.170   0.551
  788SOL    HW214396   1.249   8.051   0.440
  789SOL     OW14397   7.218   4.945   1.373
  789SOL    HW114398   7.301   4.973   1.422
  789SOL    HW214399   7.237   4.862   1.321
  790SOL     OW14400   0.870   2.435   6.255
  790SOL    HW114401   0.914   2.456   6.343
  790SOL    HW214402   0.774   2.412   6.271
  791SOL     OW14403   8.033   2.400   5.527
  791SOL    HW114404   8.120   2.399   5.576
  791SOL    HW214405   8.050   2.396   5.429
  792SOL     OW14406   7.083   0.713   6.373
  792SOL    HW114407   6.995   0.755   6.392
  792SOL    HW214408   7.141   0.776   6.322
  793SOL     OW14409   4.502   2.655   6.845
  793SOL    HW114410   4.483   2.596   6.766
  793SOL    HW214411   4.597   2.641   6.875
  794SOL     OW14412   2.383   8.389   5.217
  794SOL    HW114413   2.416   8.469   5.167
  794SOL    HW214414   2.429   8.307   5.182
  795SOL     OW14415   4.924   1.585   0.333
  795SOL    HW114416   5.015   1.627   0.338
  795SOL    HW214417   4.857   1.655   0.310
  796SOL     OW14418   0.153   5.564   1.316
  796SOL    HW114419   0.067   5.606   1.286
  796SOL    HW214420   0.223   5.634   1.324
  797SOL     OW14421   4.287   0.127   6.121
  797SOL    HW114422   4.330   0.188   6.054
  797SOL    HW214423   4.212   0.078   6.078
  798SOL     OW14424   3.030   1.857   1.654
  798SOL    HW114425   3.129   1.843   1.646
  798SOL    HW214426   2.994   1.891   1.567
  799SOL     OW14427   6.716   3.127   6.380
  799SOL    HW114428   6.747   3.117   6.285
  799SOL    HW214429   6.729   3.040   6.428
  800SOL     OW14430   8.855   3.835   0.616
  800SOL    HW114431   8.865   3.736   0.611
  800SOL    HW214432   8.777   3.863   0.560
  801SOL     OW14433   1.925  -0.003   6.843
  801SOL    HW114434   1.891  -0.030   6.934
  801SOL    HW214435   2.025   0.002   6.844
  802SOL     OW14436   4.563   0.793   1.898
  802SOL    HW114437   4.523   0.714   1.851
  802SOL    HW214438   4.607   0.763   1.983
  803SOL     OW14439   3.609   5.387   6.683
  803SOL    HW114440   3.584   5.429   6.596
  803SOL    HW214441   3.689   5.434   6.721
  804SOL     OW14442   7.394   3.445   6.418
  804SOL    HW114443   7.479   3.484   6.382
  804SOL    HW214444   7.316   3.485   6.370
  805SOL     OW14445   0.158   2.030   0.652
  805SOL    HW114446   0.128   2.041   0.747
  805SOL    HW214447   0.225   2.101   0.629
  806SOL     OW14448   3.292   1.899   1.660
  806SOL    HW114449   3.290   1.884   1.759
  806SOL    HW214450   3.299   1.996   1.641
  807SOL     OW14451   7.789   6.526   1.035
  807SOL    HW114452   7.780   6.437   1.079
  807SOL    HW214453   7.707   6.581   1.052
  808SOL     OW14454   3.455   1.638   1.289
  808SOL    HW114455   3.465   1.669   1.384
  808SOL    HW214456   3.488   1.709   1.227
  809SOL     OW14457   0.435   7.624   1.591
  809SOL    HW114458   0.396   7.592   1.678
  809SOL    HW214459   0.535   7.618   1.595
  810SOL     OW14460   6.402   4.646   6.663
  810SOL    HW114461   6.359   4.595   6.588
  810SOL    HW214462   6.497   4.665   6.640
  811SOL     OW14463   8.372   1.330   0.752
  811SOL    HW114464   8.470   1.321   0.734
  811SOL    HW214465   8.336   1.408   0.703
  812SOL     OW14466   1.672   1.716   0.711
  812SOL    HW114467   1.667   1.777   0.791
  812SOL    HW214468   1.621   1.632   0.731
  813SOL     OW14469   8.572   1.515   0.491
  813SOL    HW114470   8.625   1.561   0.563
  813SOL    HW214471   8.534   1.584   0.429
  814SOL     OW14472   9.068   3.087   0.915
  814SOL    HW114473   9.088   2.991   0.936
  814SOL    HW214474   9.098   3.107   0.821
  815SOL     OW14475   1.764   3.548   1.299
  815SOL    HW114476   1.757   3.564   1.397
  815SOL    HW214477   1.818   3.466   1.282
  816SOL     OW14478   0.828   6.723   1.801
  816SOL    HW114479   0.875   6.657   1.859
  816SOL    HW214480   0.882   6.808   1.798
  817SOL     OW14481   0.892   7.429   6.888
  817SOL    HW114482   0.951   7.365   6.841
  817SOL    HW214483   0.876   7.398   6.982
  818SOL     OW14484   6.118   8.237   6.572
  818SOL    HW114485   6.092   8.320   6.621
  818SOL    HW214486   6.143   8.166   6.637
  819SOL     OW14487   3.989   2.090   6.446
  819SOL    HW114488   3.954   2.002   6.416
  819SOL    HW214489   4.018   2.084   6.541
  820SOL     OW14490   1.181   1.441   5.818
  820SOL    HW114491   1.224   1.368   5.870
  820SOL    HW214492   1.083   1.420   5.806
  821SOL     OW14493   1.831   1.794   0.227
  821SOL    HW114494   1.875   1.883   0.232
  821SOL    HW214495   1.733   1.806   0.213
  822SOL     OW14496   4.554   1.355   0.932
  822SOL    HW114497   4.575   1.372   1.028
  822SOL    HW214498   4.523   1.261   0.921
  823SOL     OW14499   5.739   7.030   6.289
  823SOL    HW114500   5.700   7.028   6.197
  823SOL    HW214501   5.832   6.992   6.287
  824SOL     OW14502   8.008   1.104   0.834
  824SOL    HW114503   7.947   1.035   0.873
  824SOL    HW214504   8.004   1.100   0.735
  825SOL     OW14505   3.506   0.506   6.540
  825SOL    HW114506   3.550   0.594   6.555
  825SOL    HW214507   3.426   0.497   6.600
  826SOL     OW14508   0.313   5.651   0.662
  826SOL    HW114509   0.222   5.640   0.702
  826SOL    HW214510   0.316   5.603   0.574
  827SOL     OW14511   5.011   1.551   1.100
  827SOL    HW114512   4.949   1.619   1.138
  827SOL    HW214513   5.028   1.571   1.004
  828SOL     OW14514   3.572   2.233   0.603
  828SOL    HW114515   3.478   2.255   0.628
  828SOL    HW214516   3.635   2.291   0.655
  829SOL     OW14517   5.310   1.210   1.838
  829SOL    HW114518   5.341   1.117   1.822
  829SOL    HW214519   5.257   1.215   1.923
  830SOL     OW14520   1.702   2.413   1.278
  830SOL    HW114521   1.619   2.387   1.327
  830SOL    HW214522   1.687   2.403   1.179
  831SOL     OW14523   5.996   6.416   0.879
  831SOL    HW114524   5.943   6.366   0.948
  831SOL    HW214525   5.939   6.485   0.835
  832SOL     OW14526   7.654   6.367   5.763
  832SOL    HW114527   7.622   6.282   5.721
  832SOL    HW214528   7.581   6.434   5.763
  833SOL     OW14529   1.173   0.308   6.818
  833SOL    HW114530   1.238   0.275   6.886
  833SOL    HW214531   1.081   0.307   6.856
  834SOL     OW14532   3.873   3.509   5.963
  834SOL    HW114533   3.937   3.487   6.036
  834SOL    HW214534   3.861   3.430   5.903
  835SOL     OW14535   0.386   8.428   1.408
  835SOL    HW114536   0.338   8.515   1.405
  835SOL    HW214537   0.358   8.377   1.489
  836SOL     OW14538   9.320   6.561   5.884
  836SOL    HW114539   9.388   6.556   5.812
  836SOL    HW214540   9.359   6.606   5.964
  837SOL     OW14541   5.940   6.298   6.136
  837SOL    HW114542   6.006   6.283   6.209
  837SOL    HW214543   5.913   6.211   6.095
  838SOL     OW14544   0.997   7.734   6.598
  838SOL    HW114545   0.975   7.752   6.694
  838SOL    HW214546   0.966   7.642   6.573
  839SOL     OW14547   2.682   1.797   5.683
  839SOL    HW114548   2.749   1.836   5.620
  839SOL    HW214549   2.611   1.749   5.632
  840SOL     OW14550   4.895   3.529   1.486
  840SOL    HW114551   4.831   3.594   1.526
  840SOL    HW214552   4.948   3.574   1.414
  841SOL     OW14553   6.089   6.458   6.667
  841SOL    HW114554   6.033   6.509   6.733
  841SOL    HW214555   6.181   6.447   6.703
  842SOL     OW14556   2.176   0.911   5.888
  842SOL    HW114557   2.151   0.908   5.985
  842SOL    HW214558   2.275   0.901   5.879
  843SOL     OW14559   1.448   1.120   5.708
  843SOL    HW114560   1.481   1.034   5.668
  843SOL    HW214561   1.359   1.143   5.668
  844SOL     OW14562   4.092   3.892   1.087
  844SOL    HW114563   4.087   3.911   0.989
  844SOL    HW214564   4.086   3.978   1.138
  845SOL     OW14565   7.917   8.390   6.656
  845SOL    HW114566   7.879   8.456   6.721
  845SOL    HW214567   7.923   8.300   6.699
  846SOL     OW14568   1.622   0.640   1.227
  846SOL    HW114569   1.716   0.628   1.194
  846SOL    HW214570   1.561   0.576   1.181
  847SOL     OW14571   7.570   5.504   6.394
  847SOL    HW114572   7.597   5.425   6.449
  847SOL    HW214573   7.597   5.588   6.440
  848SOL     OW14574   6.558   6.067   0.991
  848SOL    HW114575   6.486   6.046   1.057
  848SOL    HW214576   6.647   6.054   1.034
  849SOL     OW14577   5.186   1.822   1.759
  849SOL    HW114578   5.149   1.758   1.826
  849SOL    HW214579   5.208   1.908   1.804
  850SOL     OW14580   1.735   5.265   5.557
  850SOL    HW114581   1.738   5.228   5.464
  850SOL    HW214582   1.644   5.252   5.596
  851SOL     OW14583   4.212   0.637   2.259
  851SOL    HW114584   4.129   0.616   2.208
  851SOL    HW214585   4.193   0.633   2.357
  852SOL     OW14586   7.905   0.337   0.406
  852SOL    HW114587   7.965   0.389   0.466
  852SOL    HW214588   7.951   0.253   0.377
  853SOL     OW14589   9.527   6.913   4.903
  853SOL    HW114590   9.617   6.919   4.860
  853SOL    HW214591   9.460   6.959   4.846
  854SOL     OW14592   2.790   3.106   1.531
  854SOL    HW114593   2.733   3.166   1.586
  854SOL    HW214594   2.812   3.024   1.583
  855SOL     OW14595   4.812   0.615   6.101
  855SOL    HW114596   4.909   0.621   6.077
  855SOL    HW214597   4.794   0.671   6.182
  856SOL     OW14598   9.019   4.510   0.526
  856SOL    HW114599   8.944   4.452   0.555
  856SOL    HW214600   9.006   4.603   0.561
  857SOL     OW14601   4.157   4.052   5.993
  857SOL    HW114602   4.062   4.036   5.966
  857SOL    HW214603   4.213   4.063   5.911
  858SOL     OW14604   2.933   5.653   0.719
  858SOL    HW114605   2.868   5.579   0.699
  858SOL    HW214606   3.023   5.614   0.737
  859SOL     OW14607   5.521   4.443   1.627
  859SOL    HW114608   5.491   4.358   1.669
  859SOL    HW214609   5.443   4.504   1.615
  860SOL     OW14610   0.714   6.082   0.464
  860SOL    HW114611   0.801   6.132   0.470
  860SOL    HW214612   0.718   6.020   0.386
  861SOL     OW14613   5.615   5.976   6.268
  861SOL    HW114614   5.561   5.940   6.345
  861SOL    HW214615   5.598   6.074   6.259
  862SOL     OW14616   8.810   5.823   6.813
  862SOL    HW114617   8.753   5.793   6.737
  862SOL    HW214618   8.799   5.921   6.827
  863SOL     OW14619   9.228   4.964   0.864
  863SOL    HW114620   9.253   5.004   0.952
  863SOL    HW214621   9.309   4.924   0.820
  864SOL     OW14622   4.313   0.652   0.236
  864SOL    HW114623   4.236   0.713   0.216
  864SOL    HW214624   4.316   0.578   0.169
  865SOL     OW14625   6.117   5.444   0.867
  865SOL    HW114626   6.164   5.518   0.916
  865SOL    HW214627   6.021   5.442   0.893
  866SOL     OW14628   1.234   1.905   5.127
  866SOL    HW114629   1.330   1.898   5.099
  866SOL    HW214630   1.209   2.001   5.138
  867SOL     OW14631   2.783   0.193   1.351
  867SOL    HW114632   2.687   0.220   1.356
  867SOL    HW214633   2.820   0.215   1.261
  868SOL     OW14634   8.722   6.370   5.793
  868SOL    HW114635   8.772   6.376   5.707
  868SOL    HW214636   8.786   6.376   5.870
  869SOL     OW14637   0.752   6.411   6.395
  869SOL    HW114638   0.678   6.355   6.356
  869SOL    HW214639   0.713   6.487   6.446
  870SOL     OW14640   5.971   6.859   0.649
  870SOL    HW114641   6.049   6.808   0.613
  870SOL    HW214642   5.897   6.858   0.581
  871SOL     OW14643   3.514   5.004   5.462
  871SOL    HW114644   3.566   4.956   5.533
  871SOL    HW214645   3.425   4.959   5.449
  872SOL     OW14646   1.227   0.840   1.266
  872SOL    HW114647   1.182   0.784   1.335
  872SOL    HW214648   1.184   0.824   1.177
  873SOL     OW14649   1.140   2.321   0.957
  873SOL    HW114650   1.199   2.354   0.883
  873SOL    HW214651   1.138   2.221   0.957
  874SOL     OW14652   8.395   4.004   0.947
  874SOL    HW114653   8.459   3.930   0.931
  874SOL    HW214654   8.333   3.979   1.022
  875SOL     OW14655   2.250   8.111   6.313
  875SOL    HW114656   2.215   8.142   6.401
  875SOL    HW214657   2.350   8.114   6.314
  876SOL     OW14658   0.415   2.581   6.425
  876SOL    HW114659   0.343   2.511   6.430
  876SOL    HW214660   0.390   2.650   6.357
  877SOL     OW14661   5.216   8.145   1.634
  877SOL    HW114662   5.204   8.085   1.555
  877SOL    HW214663   5.295   8.114   1.688
  878SOL     OW14664   4.908   1.334   0.444
  878SOL    HW114665   4.900   1.423   0.400
  878SOL    HW214666   4.930   1.265   0.375
  879SOL     OW14667   8.392   5.038   6.689
  879SOL    HW114668   8.457   5.056   6.763
  879SOL    HW214669   8.355   5.125   6.656
  880SOL     OW14670   1.993   2.354   1.029
  880SOL    HW114671   1.984   2.261   0.993
  880SOL    HW214672   2.077   2.395   0.995
  881SOL     OW14673   1.940   1.656   0.966
  881SOL    HW114674   1.848   1.646   1.003
  881SOL    HW214675   2.003   1.597   1.017
  882SOL     OW14676   0.901   7.988   0.956
  882SOL    HW114677   0.862   7.907   0.911
  882SOL    HW214678   0.982   7.961   1.009
  883SOL     OW14679   6.301   4.714   0.705
  883SOL    HW114680   6.361   4.635   0.690
  883SOL    HW214681   6.206   4.688   0.689
  884SOL     OW14682   8.832   0.872   5.960
  884SOL    HW114683   8.890   0.953   5.953
  884SOL    HW214684   8.769   0.869   5.882
  885SOL     OW14685   4.703   4.805   0.584
  885SOL    HW114686   4.738   4.850   0.666
  885SOL    HW214687   4.646   4.727   0.609
  886SOL     OW14688   1.252   6.189   5.284
  886SOL    HW114689   1.213   6.228   5.367
  886SOL    HW214690   1.255   6.260   5.213
  887SOL     OW14691   4.273   5.125   6.231
  887SOL    HW114692   4.255   5.105   6.134
  887SOL    HW214693   4.365   5.161   6.241
  888SOL     OW14694   5.220   7.567   0.635
  888SOL    HW114695   5.211   7.470   0.660
  888SOL    HW214696   5.287   7.575   0.561
  889SOL     OW14697   9.455   4.801   5.990
  889SOL    HW114698   9.442   4.870   5.919
  889SOL    HW214699   9.537   4.821   6.043
  890SOL     OW14700   3.640   0.196   5.947
  890SOL    HW114701   3.676   0.212   6.039
  890SOL    HW214702   3.541   0.212   5.946
  891SOL     OW14703   8.306   7.692   6.156
  891SOL    HW114704   8.342   7.622   6.094
  891SOL    HW214705   8.359   7.691   6.241
  892SOL     OW14706   2.449   3.305   5.919
  892SOL    HW114707   2.516   3.257   5.863
  892SOL    HW214708   2.468   3.403   5.918
  893SOL     OW14709   1.017   6.320   5.985
  893SOL    HW114710   0.946   6.363   6.040
  893SOL    HW214711   1.035   6.376   5.904
  894SOL     OW14712   1.955   5.415   1.106
  894SOL    HW114713   2.009   5.344   1.151
  894SOL    HW214714   1.860   5.385   1.097
  895SOL     OW14715   8.742   4.832   5.292
  895SOL    HW114716   8.666   4.873   5.241
  895SOL    HW214717   8.738   4.732   5.283
  896SOL     OW14718   0.398   5.039   0.535
  896SOL    HW114719   0.350   5.037   0.623
  896SOL    HW214720   0.352   4.979   0.471
  897SOL     OW14721   6.928   7.587   1.100
  897SOL    HW114722   6.930   7.498   1.147
  897SOL    HW214723   6.903   7.573   1.004
  898SOL     OW14724   9.387   6.715   4.706
  898SOL    HW114725   9.389   6.812   4.730
  898SOL    HW214726   9.413   6.704   4.610
  899SOL     OW14727   1.782   2.378   0.655
  899SOL    HW114728   1.880   2.394   0.666
  899SOL    HW214729   1.737   2.385   0.744
  900SOL     OW14730   6.093   1.127   1.009
  900SOL    HW114731   6.169   1.102   0.949
  900SOL    HW214732   6.130   1.167   1.093
  901SOL     OW14733   6.195   4.598   6.476
  901SOL    HW114734   6.258   4.609   6.399
  901SOL    HW214735   6.176   4.687   6.516
  902SOL     OW14736   4.421   7.622   5.307
  902SOL    HW114737   4.338   7.677   5.294
  902SOL    HW214738   4.396   7.526   5.315
  903SOL     OW14739   4.297   4.744   1.842
  903SOL    HW114740   4.217   4.801   1.821
  903SOL    HW214741   4.331   4.767   1.933
  904SOL     OW14742   9.071   6.380   5.807
  904SOL    HW114743   9.145   6.442   5.829
  904SOL    HW214744   9.028   6.347   5.892
  905SOL     OW14745   0.631   7.951   5.696
  905SOL    HW114746   0.593   7.880   5.756
  905SOL    HW214747   0.560   7.981   5.632
  906SOL     OW14748   2.922   3.111   1.304
  906SOL    HW114749   2.887   3.125   1.396
  906SOL    HW214750   2.865   3.044   1.256
  907SOL     OW14751   8.933   4.951   0.813
  907SOL    HW114752   8.927   5.004   0.897
  907SOL    HW214753   9.026   4.916   0.803
  908SOL     OW14754   4.875   0.002   6.025
  908SOL    HW114755   4.871  -0.071   6.093
  908SOL    HW214756   4.892   0.089   6.070
  909SOL     OW14757   1.103   1.894   1.767
  909SOL    HW114758   1.091   1.971   1.830
  909SOL    HW214759   1.014   1.869   1.728
  910SOL     OW14760   5.217   7.297   0.698
  910SOL    HW114761   5.154   7.262   0.766
  910SOL    HW214762   5.279   7.224   0.668
  911SOL     OW14763   4.510   7.378   0.500
  911SOL    HW114764   4.561   7.338   0.424
  911SOL    HW214765   4.545   7.469   0.520
  912SOL     OW14766   8.128   5.683   0.261
  912SOL    HW114767   8.197   5.751   0.286
  912SOL    HW214768   8.047   5.730   0.225
  913SOL     OW14769   7.292   5.021   5.479
  913SOL    HW114770   7.245   4.961   5.414
  913SOL    HW214771   7.340   5.093   5.429
  914SOL     OW14772   6.229   4.231   6.897
  914SOL    HW114773   6.179   4.304   6.851
  914SOL    HW214774   6.243   4.256   6.993
  915SOL     OW14775   5.490  -0.026   1.714
  915SOL    HW114776   5.399  -0.006   1.752
  915SOL    HW214777   5.536   0.060   1.693
  916SOL     OW14778   2.585   3.803   5.772
  916SOL    HW114779   2.668   3.851   5.743
  916SOL    HW214780   2.533   3.774   5.691
  917SOL     OW14781   0.410   0.798   1.074
  917SOL    HW114782   0.430   0.749   1.159
  917SOL    HW214783   0.485   0.785   1.009
  918SOL     OW14784   1.668   1.344   6.414
  918SOL    HW114785   1.763   1.317   6.398
  918SOL    HW214786   1.659   1.443   6.404
  919SOL     OW14787   3.884   0.976   5.471
  919SOL    HW114788   3.823   1.026   5.410
  919SOL    HW214789   3.895   1.027   5.557
  920SOL     OW14790   4.781   1.475   6.808
  920SOL    HW114791   4.735   1.390   6.833
  920SOL    HW214792   4.832   1.509   6.887
  921SOL     OW14793   7.246   1.917   1.165
  921SOL    HW114794   7.223   1.960   1.252
  921SOL    HW214795   7.239   1.984   1.091
  922SOL     OW14796   2.156   0.935   6.144
  922SOL    HW114797   2.221   1.011   6.134
  922SOL    HW214798   2.140   0.917   6.241
  923SOL     OW14799   5.787   1.042   5.750
  923SOL    HW114800   5.707   0.982   5.755
  923SOL    HW214801   5.762   1.127   5.704
  924SOL     OW14802   8.513   1.604   0.800
  924SOL    HW114803   8.497   1.671   0.727
  924SOL    HW214804   8.601   1.560   0.784
  925SOL     OW14805   4.448   2.492   6.641
  925SOL    HW114806   4.358   2.483   6.599
  925SOL    HW214807   4.507   2.548   6.582
  926SOL     OW14808   5.605   0.198   0.551
  926SOL    HW114809   5.545   0.278   0.563
  926SOL    HW214810   5.555   0.115   0.577
  927SOL     OW14811   1.506   7.413   5.826
  927SOL    HW114812   1.451   7.414   5.909
  927SOL    HW214813   1.476   7.488   5.765
  928SOL     OW14814   0.177   2.196   1.212
  928SOL    HW114815   0.222   2.118   1.255
  928SOL    HW214816   0.225   2.221   1.128
  929SOL     OW14817   2.167   5.668   5.471
  929SOL    HW114818   2.137   5.599   5.404
  929SOL    HW214819   2.201   5.748   5.422
  930SOL     OW14820   6.802   1.659   0.870
  930SOL    HW114821   6.813   1.641   0.968
  930SOL    HW214822   6.825   1.576   0.819
  931SOL     OW14823   0.252   8.419   4.708
  931SOL    HW114824   0.296   8.330   4.697
  931SOL    HW214825   0.218   8.450   4.620
  932SOL     OW14826   4.303   1.457   1.310
  932SOL    HW114827   4.371   1.427   1.377
  932SOL    HW214828   4.320   1.411   1.223
  933SOL     OW14829   4.622   7.890   1.721
  933SOL    HW114830   4.648   7.972   1.773
  933SOL    HW214831   4.694   7.868   1.656
  934SOL     OW14832   1.456   6.325   6.142
  934SOL    HW114833   1.379   6.389   6.147
  934SOL    HW214834   1.491   6.308   6.234
  935SOL     OW14835   1.049   0.257   5.566
  935SOL    HW114836   1.061   0.262   5.665
  935SOL    HW214837   0.975   0.318   5.538
  936SOL     OW14838   6.531   5.427   5.843
  936SOL    HW114839   6.628   5.409   5.823
  936SOL    HW214840   6.480   5.431   5.757
  937SOL     OW14841   4.447   7.190   1.793
  937SOL    HW114842   4.383   7.137   1.738
  937SOL    HW214843   4.448   7.155   1.887
  938SOL     OW14844   0.468   4.797   1.216
  938SOL    HW114845   0.543   4.797   1.149
  938SOL    HW214846   0.497   4.845   1.298
  939SOL     OW14847   4.760   7.743   5.833
  939SOL    HW114848   4.841   7.801   5.843
  939SOL    HW214849   4.760   7.703   5.741
  940SOL     OW14850   5.612   6.506   1.244
  940SOL    HW114851   5.630   6.581   1.181
  940SOL    HW214852   5.531   6.528   1.300
  941SOL     OW14853   7.116   6.270   1.735
  941SOL    HW114854   7.172   6.236   1.811
  941SOL    HW214855   7.050   6.200   1.708
  942SOL     OW14856   0.834   7.905   5.014
  942SOL    HW114857   0.887   7.989   5.005
  942SOL    HW214858   0.739   7.929   5.035
  943SOL     OW14859   7.336   1.553   1.162
  943SOL    HW114860   7.284   1.538   1.246
  943SOL    HW214861   7.277   1.597   1.094
  944SOL     OW14862   6.017   2.091   1.377
  944SOL    HW114863   5.920   2.110   1.357
  944SOL    HW214864   6.050   2.158   1.444
  945SOL     OW14865   0.435   3.523   5.665
  945SOL    HW114866   0.359   3.492   5.608
  945SOL    HW214867   0.416   3.615   5.700
  946SOL     OW14868   1.073   5.539   5.583
  946SOL    HW114869   1.069   5.547   5.682
  946SOL    HW214870   1.091   5.444   5.558
  947SOL     OW14871   4.426   6.017   1.645
  947SOL    HW114872   4.463   5.941   1.591
  947SOL    HW214873   4.496   6.051   1.707
  948SOL     OW14874   0.946   4.666   6.539
  948SOL    HW114875   0.860   4.714   6.556
  948SOL    HW214876   1.006   4.723   6.483
  949SOL     OW14877   3.753   1.846   5.642
  949SOL    HW114878   3.677   1.818   5.584
  949SOL    HW214879   3.839   1.809   5.607
  950SOL     OW14880   1.479   3.793   0.458
  950SOL    HW114881   1.523   3.821   0.543
  950SOL    HW214882   1.531   3.719   0.416
  951SOL     OW14883   0.496   1.527   6.366
  951SOL    HW114884   0.527   1.540   6.272
  951SOL    HW214885   0.494   1.429   6.387
  952SOL     OW14886   7.592   3.797   0.953
  952SOL    HW114887   7.680   3.802   1.000
  952SOL    HW214888   7.592   3.861   0.876
  953SOL     OW14889   0.950   0.050   0.920
  953SOL    HW114890   0.979   0.005   0.836
  953SOL    HW214891   0.853   0.033   0.936
  954SOL     OW14892   1.344   8.292   6.910
  954SOL    HW114893   1.279   8.272   6.983
  954SOL    HW214894   1.318   8.242   6.827
  955SOL     OW14895   3.432   4.814   0.630
  955SOL    HW114896   3.459   4.907   0.655
  955SOL    HW214897   3.452   4.752   0.705
  956SOL     OW14898   5.985   5.962   4.946
  956SOL    HW114899   6.047   5.888   4.972
  956SOL    HW214900   6.020   6.008   4.865
  957SOL     OW14901   1.568   7.955   0.767
  957SOL    HW114902   1.533   7.956   0.861
  957SOL    HW214903   1.668   7.956   0.769
  958SOL     OW14904   5.083   8.252   1.206
  958SOL    HW114905   5.059   8.219   1.298
  958SOL    HW214906   5.086   8.175   1.143
  959SOL     OW14907   4.109   7.746   0.958
  959SOL    HW114908   4.096   7.837   0.918
  959SOL    HW214909   4.029   7.690   0.941
  960SOL     OW14910   4.397   2.801   1.225
  960SOL    HW114911   4.434   2.731   1.286
  960SOL    HW214912   4.339   2.758   1.156
  961SOL     OW14913   9.094   6.923   6.594
  961SOL    HW114914   9.011   6.947   6.645
  961SOL    HW214915   9.113   6.995   6.527
  962SOL     OW14916   6.991   8.424   6.452
  962SOL    HW114917   7.077   8.405   6.499
  962SOL    HW214918   6.961   8.517   6.473
  963SOL     OW14919   4.013   4.061   0.523
  963SOL    HW114920   3.924   4.074   0.481
  963SOL    HW214921   4.079   4.126   0.484
  964SOL     OW14922   1.451   5.337   6.759
  964SOL    HW114923   1.502   5.423   6.769
  964SOL    HW214924   1.429   5.300   6.849
  965SOL     OW14925   6.368   2.482   5.805
  965SOL    HW114926   6.407   2.422   5.736
  965SOL    HW214927   6.305   2.429   5.862
  966SOL     OW14928   1.122   7.551   1.343
  966SOL    HW114929   1.113   7.603   1.428
  966SOL    HW214930   1.131   7.453   1.364
  967SOL     OW14931   2.770   0.145   0.892
  967SOL    HW114932   2.679   0.154   0.933
  967SOL    HW214933   2.839   0.155   0.964
  968SOL     OW14934   5.382   8.150   1.334
  968SOL    HW114935   5.295   8.104   1.353
  968SOL    HW214936   5.376   8.196   1.246
  969SOL     OW14937   5.826   7.946   1.900
  969SOL    HW114938   5.805   8.013   1.829
  969SOL    HW214939   5.766   7.960   1.978
  970SOL     OW14940   6.576   6.255   0.781
  970SOL    HW114941   6.551   6.186   0.849
  970SOL    HW214942   6.654   6.308   0.815
  971SOL     OW14943   8.166   5.102   0.628
  971SOL    HW114944   8.099   5.062   0.691
  971SOL    HW214945   8.249   5.125   0.678
  972SOL     OW14946   0.284   5.227   1.636
  972SOL    HW114947   0.228   5.306   1.611
  972SOL    HW214948   0.292   5.223   1.736
  973SOL     OW14949   2.651   0.076   0.257
  973SOL    HW114950   2.632   0.158   0.310
  973SOL    HW214951   2.585   0.004   0.280
  974SOL     OW14952   6.105   6.389   0.287
  974SOL    HW114953   6.141   6.375   0.380
  974SOL    HW214954   6.165   6.344   0.221
  975SOL     OW14955   4.263   3.586   0.949
  975SOL    HW114956   4.168   3.615   0.958
  975SOL    HW214957   4.319   3.634   1.017
  976SOL     OW14958   0.360   8.139   1.302
  976SOL    HW114959   0.335   8.090   1.386
  976SOL    HW214960   0.357   8.238   1.320
  977SOL     OW14961   8.685   4.977   6.431
  977SOL    HW114962   8.631   4.893   6.429
  977SOL    HW214963   8.694   5.009   6.526
  978SOL     OW14964   6.256   0.031   5.968
  978SOL    HW114965   6.198  -0.008   5.896
  978SOL    HW214966   6.308  -0.043   6.012
  979SOL     OW14967   9.197   2.808   6.675
  979SOL    HW114968   9.173   2.900   6.707
  979SOL    HW214969   9.117   2.749   6.681
  980SOL     OW14970   4.491   4.236   0.934
  980SOL    HW114971   4.583   4.208   0.906
  980SOL    HW214972   4.425   4.211   0.863
  981SOL     OW14973   1.500   0.187   6.407
  981SOL    HW114974   1.484   0.122   6.333
  981SOL    HW214975   1.559   0.145   6.476
  982SOL     OW14976   7.227   3.922   6.539
  982SOL    HW114977   7.243   3.860   6.616
  982SOL    HW214978   7.308   3.979   6.526
  983SOL     OW14979   7.105   0.124   5.797
  983SOL    HW114980   7.057   0.090   5.715
  983SOL    HW214981   7.086   0.221   5.808
  984SOL     OW14982   1.365   7.749   1.268
  984SOL    HW114983   1.366   7.649   1.258
  984SOL    HW214984   1.458   7.782   1.282
  985SOL     OW14985   9.375   1.569   6.290
  985SOL    HW114986   9.310   1.601   6.221
  985SOL    HW214987   9.421   1.648   6.332
  986SOL     OW14988   7.569   2.358   6.096
  986SOL    HW114989   7.601   2.357   6.001
  986SOL    HW214990   7.648   2.369   6.158
  987SOL     OW14991   0.844   4.742   5.083
  987SOL    HW114992   0.855   4.647   5.112
  987SOL    HW214993   0.926   4.772   5.033
  988SOL     OW14994   3.495   7.489   2.319
  988SOL    HW114995   3.576   7.433   2.340
  988SOL    HW214996   3.514   7.584   2.342
  989SOL     OW14997   6.351   0.943   6.478
  989SOL    HW114998   6.388   1.018   6.423
  989SOL    HW214999   6.290   0.888   6.422
  990SOL     OW15000   5.317   3.781   1.376
  990SOL    HW115001   5.325   3.848   1.450
  990SOL    HW215002   5.287   3.826   1.292
  991SOL     OW15003   8.708   3.103   6.631
  991SOL    HW115004   8.629   3.146   6.588
  991SOL    HW215005   8.686   3.008   6.654
  992SOL     OW15006   4.075   7.952   6.205
  992SOL    HW115007   4.109   7.878   6.263
  992SOL    HW215008   3.976   7.944   6.193
  993SOL     OW15009   0.835   7.505   5.480
  993SOL    HW115010   0.926   7.486   5.518
  993SOL    HW215011   0.765   7.477   5.545
  994SOL     OW15012   0.985   5.701   0.417
  994SOL    HW115013   1.003   5.782   0.473
  994SOL    HW215014   0.971   5.621   0.477
  995SOL     OW15015   3.858   0.365   0.521
  995SOL    HW115016   3.925   0.331   0.587
  995SOL    HW215017   3.895   0.446   0.474
  996SOL     OW15018   0.883   8.166   1.386
  996SOL    HW115019   0.845   8.212   1.306
  996SOL    HW215020   0.933   8.232   1.442
  997SOL     OW15021   0.337   3.470   0.911
  997SOL    HW115022   0.240   3.445   0.911
  997SOL    HW215023   0.382   3.429   0.990
  998SOL     OW15024   1.570   6.078   6.779
  998SOL    HW115025   1.514   6.161   6.778
  998SOL    HW215026   1.620   6.070   6.693
  999SOL     OW15027   6.861   6.550   6.779
  999SOL    HW115028   6.899   6.567   6.688
  999SOL    HW215029   6.764   6.576   6.781
 1000SOL     OW15030   7.521   6.733   0.991
 1000SOL    HW115031   7.457   6.800   1.028
 1000SOL    HW215032   7.558   6.765   0.904
 1001SOL     OW15033   5.429   0.105   1.314
 1001SOL    HW115034   5.413   0.132   1.408
 1001SOL    HW215035   5.502   0.037   1.310
 1002SOL     OW15036   4.992   7.282   5.886
 1002SOL    HW115037   5.019   7.323   5.799
 1002SOL    HW215038   4.912   7.224   5.872
 1003SOL     OW15039   6.472   3.016   0.423
 1003SOL    HW115040   6.426   3.098   0.457
 1003SOL    HW215041   6.511   3.034   0.333
 1004SOL     OW15042   5.404   8.065   0.801
 1004SOL    HW115043   5.384   7.988   0.861
 1004SOL    HW215044   5.320   8.116   0.783
 1005SOL     OW15045   3.966   5.616   1.392
 1005SOL    HW115046   4.020   5.542   1.432
 1005SOL    HW215047   3.972   5.611   1.292
 1006SOL     OW15048   4.483   0.783   6.712
 1006SOL    HW115049   4.493   0.779   6.811
 1006SOL    HW215050   4.431   0.865   6.687
 1007SOL     OW15051   1.296   5.956   5.176
 1007SOL    HW115052   1.254   5.939   5.087
 1007SOL    HW215053   1.282   6.051   5.203
 1008SOL     OW15054   6.992   1.751   1.759
 1008SOL    HW115055   6.892   1.758   1.755
 1008SOL    HW215056   7.031   1.793   1.678
 1009SOL     OW15057   1.187   5.358   6.617
 1009SOL    HW115058   1.187   5.405   6.529
 1009SOL    HW215059   1.275   5.374   6.663
 1010SOL     OW15060   0.555   3.358   5.879
 1010SOL    HW115061   0.527   3.394   5.790
 1010SOL    HW215062   0.653   3.337   5.876
 1011SOL     OW15063   3.750   1.436   0.895
 1011SOL    HW115064   3.817   1.497   0.852
 1011SOL    HW215065   3.692   1.489   0.957
 1012SOL     OW15066   8.662   7.864   1.499
 1012SOL    HW115067   8.565   7.889   1.494
 1012SOL    HW215068   8.674   7.773   1.458
 1013SOL     OW15069   2.654   7.725   0.337
 1013SOL    HW115070   2.659   7.697   0.241
 1013SOL    HW215071   2.737   7.695   0.385
 1014SOL     OW15072   2.952   6.672   6.030
 1014SOL    HW115073   2.918   6.763   6.009
 1014SOL    HW215074   3.049   6.678   6.055
 1015SOL     OW15075   8.273   2.809   1.459
 1015SOL    HW115076   8.178   2.829   1.480
 1015SOL    HW215077   8.300   2.723   1.503
 1016SOL     OW15078   4.404   8.429   5.337
 1016SOL    HW115079   4.308   8.421   5.363
 1016SOL    HW215080   4.414   8.403   5.241
 1017SOL     OW15081   5.092   4.675   1.716
 1017SOL    HW115082   5.085   4.580   1.747
 1017SOL    HW215083   5.041   4.734   1.778
 1018SOL     OW15084   3.769   4.560   0.937
 1018SOL    HW115085   3.729   4.470   0.954
 1018SOL    HW215086   3.829   4.585   1.013
 1019SOL     OW15087   1.962   1.089   6.048
 1019SOL    HW115088   1.915   1.049   5.969
 1019SOL    HW215089   2.027   1.023   6.085
 1020SOL     OW15090   8.911   7.443   0.672
 1020SOL    HW115091   8.949   7.375   0.609
 1020SOL    HW215092   8.843   7.399   0.731
 1021SOL     OW15093   5.720   1.369   1.217
 1021SOL    HW115094   5.758   1.277   1.215
 1021SOL    HW215095   5.642   1.371   1.279
 1022SOL     OW15096   7.183   6.150   6.099
 1022SOL    HW115097   7.251   6.131   6.028
 1022SOL    HW215098   7.193   6.083   6.173
 1023SOL     OW15099   5.083   7.161   6.136
 1023SOL    HW115100   5.083   7.198   6.043
 1023SOL    HW215101   5.146   7.084   6.141
 1024SOL     OW15102   2.613   0.593   5.618
 1024SOL    HW115103   2.519   0.616   5.640
 1024SOL    HW215104   2.619   0.498   5.588
 1025SOL     OW15105   0.894   7.023   1.228
 1025SOL    HW115106   0.952   7.022   1.310
 1025SOL    HW215107   0.861   7.117   1.213
 1026SOL     OW15108   8.607   0.739   1.182
 1026SOL    HW115109   8.661   0.677   1.239
 1026SOL    HW215110   8.666   0.781   1.113
 1027SOL     OW15111   8.048   3.883   5.611
 1027SOL    HW115112   7.968   3.832   5.643
 1027SOL    HW215113   8.069   3.857   5.517
 1028SOL     OW15114   7.896   3.448   1.568
 1028SOL    HW115115   7.937   3.360   1.590
 1028SOL    HW215116   7.963   3.521   1.585
 1029SOL     OW15117   3.699   5.115   2.051
 1029SOL    HW115118   3.649   5.176   2.112
 1029SOL    HW215119   3.761   5.058   2.105
 1030SOL     OW15120   2.056   4.838   5.294
 1030SOL    HW115121   2.065   4.750   5.341
 1030SOL    HW215122   2.053   4.823   5.195
 1031SOL     OW15123   0.625   5.439   5.669
 1031SOL    HW115124   0.573   5.428   5.584
 1031SOL    HW215125   0.705   5.379   5.667
 1032SOL     OW15126   2.600   4.376   0.728
 1032SOL    HW115127   2.672   4.315   0.761
 1032SOL    HW215128   2.612   4.467   0.767
 1033SOL     OW15129   5.030   0.011   6.297
 1033SOL    HW115130   4.960  -0.048   6.338
 1033SOL    HW215131   4.997   0.105   6.295
 1034SOL     OW15132   6.868   5.453   6.209
 1034SOL    HW115133   6.908   5.426   6.121
 1034SOL    HW215134   6.788   5.510   6.193
 1035SOL     OW15135   4.303   4.293   1.119
 1035SOL    HW115136   4.322   4.364   1.187
 1035SOL    HW215137   4.386   4.275   1.067
 1036SOL     OW15138   6.465   4.483   0.656
 1036SOL    HW115139   6.537   4.546   0.629
 1036SOL    HW215140   6.504   4.393   0.673
 1037SOL     OW15141   0.216   5.451   1.026
 1037SOL    HW115142   0.196   5.472   1.122
 1037SOL    HW215143   0.218   5.535   0.973
 1038SOL     OW15144   1.002   3.266   1.094
 1038SOL    HW115145   0.947   3.273   1.011
 1038SOL    HW215146   0.943   3.281   1.174
 1039SOL     OW15147   4.790   2.938   6.937
 1039SOL    HW115148   4.809   2.965   6.842
 1039SOL    HW215149   4.781   3.020   6.994
 1040SOL     OW15150   8.020   2.736   0.372
 1040SOL    HW115151   8.029   2.731   0.471
 1040SOL    HW215152   7.999   2.830   0.344
 1041SOL     OW15153   8.281   8.010   6.287
 1041SOL    HW115154   8.195   8.010   6.339
 1041SOL    HW215155   8.275   7.942   6.213
 1042SOL     OW15156   0.490   7.968   6.884
 1042SOL    HW115157   0.406   7.939   6.930
 1042SOL    HW215158   0.476   7.968   6.785
 1043SOL     OW15159   3.220   0.740   6.895
 1043SOL    HW115160   3.301   0.762   6.949
 1043SOL    HW215161   3.144   0.799   6.923
 1044SOL     OW15162   6.949  -0.026   5.979
 1044SOL    HW115163   7.027   0.035   5.964
 1044SOL    HW215164   6.981  -0.120   5.987
 1045SOL     OW15165   9.531   5.678   0.425
 1045SOL    HW115166   9.477   5.697   0.507
 1045SOL    HW215167   9.539   5.580   0.412
 1046SOL     OW15168   0.759   1.302   0.803
 1046SOL    HW115169   0.734   1.351   0.886
 1046SOL    HW215170   0.738   1.359   0.723
 1047SOL     OW15171   8.341   4.792   5.770
 1047SOL    HW115172   8.321   4.743   5.685
 1047SOL    HW215173   8.387   4.731   5.834
 1048SOL     OW15174   0.185   6.467   5.031
 1048SOL    HW115175   0.098   6.451   4.984
 1048SOL    HW215176   0.260   6.465   4.964
 1049SOL     OW15177   3.696   6.829   5.776
 1049SOL    HW115178   3.666   6.771   5.852
 1049SOL    HW215179   3.617   6.856   5.722
 1050SOL     OW15180   2.010   4.941   5.757
 1050SOL    HW115181   1.995   4.967   5.662
 1050SOL    HW215182   2.044   4.847   5.761
 1051SOL     OW15183   6.009   1.791   1.068
 1051SOL    HW115184   5.974   1.699   1.085
 1051SOL    HW215185   6.055   1.825   1.150
 1052SOL     OW15186   5.192   3.546   1.304
 1052SOL    HW115187   5.217   3.626   1.359
 1052SOL    HW215188   5.242   3.548   1.217
 1053SOL     OW15189   9.241   4.281   0.655
 1053SOL    HW115190   9.270   4.347   0.586
 1053SOL    HW215191   9.262   4.189   0.624
 1054SOL     OW15192   2.106   4.765   0.384
 1054SOL    HW115193   2.097   4.726   0.293
 1054SOL    HW215194   2.191   4.732   0.426
 1055SOL     OW15195   3.341   2.419   2.800
 1055SOL    HW115196   3.364   2.477   2.722
 1055SOL    HW215197   3.394   2.449   2.880
 1056SOL     OW15198   2.366   3.906   6.652
 1056SOL    HW115199   2.315   3.872   6.731
 1056SOL    HW215200   2.394   4.001   6.668
 1057SOL     OW15201   8.800   3.390   6.404
 1057SOL    HW115202   8.771   3.474   6.359
 1057SOL    HW215203   8.772   3.392   6.500
 1058SOL     OW15204   9.220   6.018   6.278
 1058SOL    HW115205   9.210   5.925   6.242
 1058SOL    HW215206   9.284   6.017   6.355
 1059SOL     OW15207   9.484   7.938   1.134
 1059SOL    HW115208   9.447   7.923   1.043
 1059SOL    HW215209   9.483   8.036   1.155
 1060SOL     OW15210   8.694   6.238   1.024
 1060SOL    HW115211   8.661   6.154   0.981
 1060SOL    HW215212   8.754   6.214   1.101
 1061SOL     OW15213   9.495   2.439   0.921
 1061SOL    HW115214   9.595   2.431   0.921
 1061SOL    HW215215   9.469   2.534   0.905
 1062SOL     OW15216   4.778   4.809   5.455
 1062SOL    HW115217   4.861   4.852   5.491
 1062SOL    HW215218   4.728   4.876   5.401
 1063SOL     OW15219   4.333   1.499   6.049
 1063SOL    HW115220   4.279   1.417   6.030
 1063SOL    HW215221   4.396   1.516   5.973
 1064SOL     OW15222   1.655   8.403   5.075
 1064SOL    HW115223   1.745   8.415   5.035
 1064SOL    HW215224   1.603   8.337   5.020
 1065SOL     OW15225   3.066   1.924   1.924
 1065SOL    HW115226   3.044   1.900   1.829
 1065SOL    HW215227   3.135   1.997   1.925
 1066SOL     OW15228   6.942   0.845   0.771
 1066SOL    HW115229   6.912   0.754   0.744
 1066SOL    HW215230   6.955   0.901   0.689
 1067SOL     OW15231   9.423   5.229   5.951
 1067SOL    HW115232   9.431   5.327   5.970
 1067SOL    HW215233   9.410   5.180   6.037
 1068SOL     OW15234   7.824   3.566   6.596
 1068SOL    HW115235   7.784   3.486   6.641
 1068SOL    HW215236   7.888   3.537   6.526
 1069SOL     OW15237   6.727   1.465   0.356
 1069SOL    HW115238   6.668   1.423   0.426
 1069SOL    HW215239   6.769   1.394   0.300
 1070SOL     OW15240   4.513   7.765   5.946
 1070SOL    HW115241   4.598   7.755   5.895
 1070SOL    HW215242   4.464   7.678   5.945
 1071SOL     OW15243   2.592   5.332   6.069
 1071SOL    HW115244   2.562   5.417   6.113
 1071SOL    HW215245   2.688   5.341   6.043
 1072SOL     OW15246   2.837   3.506   6.743
 1072SOL    HW115247   2.756   3.545   6.788
 1072SOL    HW215248   2.842   3.539   6.649
 1073SOL     OW15249   0.864   5.624   6.417
 1073SOL    HW115250   0.962   5.637   6.405
 1073SOL    HW215251   0.848   5.555   6.488
 1074SOL     OW15252   3.147   1.657   1.971
 1074SOL    HW115253   3.121   1.753   1.962
 1074SOL    HW215254   3.234   1.641   1.924
 1075SOL     OW15255   9.524   5.632   0.706
 1075SOL    HW115256   9.511   5.534   0.722
 1075SOL    HW215257   9.450   5.683   0.748
 1076SOL     OW15258   0.751   6.213   5.227
 1076SOL    HW115259   0.808   6.197   5.307
 1076SOL    HW215260   0.803   6.194   5.144
 1077SOL     OW15261   2.521   4.325   1.414
 1077SOL    HW115262   2.605   4.351   1.365
 1077SOL    HW215263   2.542   4.255   1.482
 1078SOL     OW15264   9.026   5.194   6.887
 1078SOL    HW115265   9.003   5.234   6.798
 1078SOL    HW215266   8.957   5.219   6.954
 1079SOL     OW15267   4.848   6.032   6.354
 1079SOL    HW115268   4.882   6.018   6.261
 1079SOL    HW215269   4.821   5.945   6.394
 1080SOL     OW15270   5.750   7.478   0.318
 1080SOL    HW115271   5.697   7.462   0.234
 1080SOL    HW215272   5.688   7.475   0.397
 1081SOL     OW15273   0.630  -0.055   0.612
 1081SOL    HW115274   0.724  -0.065   0.645
 1081SOL    HW215275   0.575  -0.131   0.645
 1082SOL     OW15276   1.297   2.933   5.980
 1082SOL    HW115277   1.356   2.960   5.904
 1082SOL    HW215278   1.232   3.007   5.999
 1083SOL     OW15279   1.640   6.585   5.754
 1083SOL    HW115280   1.603   6.667   5.710
 1083SOL    HW215281   1.633   6.595   5.853
 1084SOL     OW15282   4.671   5.446   0.664
 1084SOL    HW115283   4.690   5.537   0.702
 1084SOL    HW215284   4.734   5.380   0.705
 1085SOL     OW15285   6.147   1.818   6.046
 1085SOL    HW115286   6.148   1.827   5.946
 1085SOL    HW215287   6.228   1.863   6.083
 1086SOL     OW15288   0.837   0.996   5.960
 1086SOL    HW115289   0.845   1.076   5.900
 1086SOL    HW215290   0.909   1.000   6.029
 1087SOL     OW15291   4.479   2.864   6.623
 1087SOL    HW115292   4.461   2.809   6.704
 1087SOL    HW215293   4.509   2.804   6.548
 1088SOL     OW15294   1.550   7.716   6.525
 1088SOL    HW115295   1.497   7.637   6.494
 1088SOL    HW215296   1.596   7.759   6.447
 1089SOL     OW15297   5.523   8.311   6.786
 1089SOL    HW115298   5.548   8.365   6.867
 1089SOL    HW215299   5.522   8.371   6.706
 1090SOL     OW15300   7.186   7.179   0.810
 1090SOL    HW115301   7.167   7.095   0.760
 1090SOL    HW215302   7.128   7.253   0.775
 1091SOL     OW15303   6.668   4.405   6.085
 1091SOL    HW115304   6.753   4.360   6.113
 1091SOL    HW215305   6.681   4.504   6.083
 1092SOL     OW15306   0.618   6.907   5.934
 1092SOL    HW115307   0.627   6.846   5.855
 1092SOL    HW215308   0.679   6.874   6.007
 1093SOL     OW15309   0.640   7.652   0.464
 1093SOL    HW115310   0.739   7.643   0.452
 1093SOL    HW215311   0.613   7.747   0.449
 1094SOL     OW15312   8.427   6.991   1.866
 1094SOL    HW115313   8.339   7.036   1.848
 1094SOL    HW215314   8.459   7.017   1.957
 1095SOL     OW15315   4.731   6.089   1.558
 1095SOL    HW115316   4.695   6.031   1.484
 1095SOL    HW215317   4.716   6.185   1.534
 1096SOL     OW15318   2.581   0.772   6.338
 1096SOL    HW115319   2.579   0.672   6.339
 1096SOL    HW215320   2.649   0.805   6.403
 1097SOL     OW15321   4.056   0.410   6.879
 1097SOL    HW115322   4.072   0.334   6.942
 1097SOL    HW215323   4.138   0.424   6.823
 1098SOL     OW15324   5.354   6.616   1.084
 1098SOL    HW115325   5.323   6.629   1.178
 1098SOL    HW215326   5.318   6.690   1.027
 1099SOL     OW15327   7.714   8.127   0.662
 1099SOL    HW115328   7.804   8.084   0.649
 1099SOL    HW215329   7.727   8.223   0.689
 1100SOL     OW15330   2.309   4.329   1.243
 1100SOL    HW115331   2.233   4.320   1.307
 1100SOL    HW215332   2.395   4.332   1.293
 1101SOL     OW15333   4.003   7.805   0.622
 1101SOL    HW115334   4.038   7.730   0.677
 1101SOL    HW215335   3.922   7.844   0.666
 1102SOL     OW15336   6.203   1.931   0.694
 1102SOL    HW115337   6.145   1.923   0.613
 1102SOL    HW215338   6.270   1.857   0.694
 1103SOL     OW15339   1.229   2.167   6.251
 1103SOL    HW115340   1.287   2.236   6.208
 1103SOL    HW215341   1.134   2.200   6.254
 1104SOL     OW15342   6.432   6.097   6.550
 1104SOL    HW115343   6.475   6.027   6.607
 1104SOL    HW215344   6.462   6.188   6.580
 1105SOL     OW15345   4.286   3.949   2.131
 1105SOL    HW115346   4.293   3.870   2.191
 1105SOL    HW215347   4.375   3.994   2.125
 1106SOL     OW15348   0.146   0.521   0.301
 1106SOL    HW115349   0.125   0.615   0.272
 1106SOL    HW215350   0.177   0.468   0.223
 1107SOL     OW15351   7.859   5.808   5.313
 1107SOL    HW115352   7.929   5.852   5.257
 1107SOL    HW215353   7.788   5.875   5.335
 1108SOL     OW15354   8.766   7.376   1.473
 1108SOL    HW115355   8.819   7.351   1.554
 1108SOL    HW215356   8.673   7.340   1.483
 1109SOL     OW15357   5.150   7.647   1.367
 1109SOL    HW115358   5.091   7.610   1.296
 1109SOL    HW215359   5.211   7.575   1.401
 1110SOL     OW15360   8.618   6.231   4.965
 1110SOL    HW115361   8.555   6.254   4.890
 1110SOL    HW215362   8.702   6.193   4.927
 1111SOL     OW15363   4.740   4.281   0.241
 1111SOL    HW115364   4.838   4.271   0.227
 1111SOL    HW215365   4.714   4.235   0.326
 1112SOL     OW15366   7.642   4.854   1.423
 1112SOL    HW115367   7.697   4.803   1.489
 1112SOL    HW215368   7.703   4.907   1.363
 1113SOL     OW15369   5.836   5.415   0.897
 1113SOL    HW115370   5.750   5.438   0.942
 1113SOL    HW215371   5.871   5.329   0.935
 1114SOL     OW15372   3.522   3.126   0.750
 1114SOL    HW115373   3.449   3.179   0.707
 1114SOL    HW215374   3.551   3.171   0.834
 1115SOL     OW15375   2.693   5.227   5.783
 1115SOL    HW115376   2.789   5.202   5.771
 1115SOL    HW215377   2.661   5.194   5.872
 1116SOL     OW15378   0.187   6.797   4.162
 1116SOL    HW115379   0.148   6.749   4.083
 1116SOL    HW215380   0.117   6.853   4.206
 1117SOL     OW15381   6.813   1.049   1.404
 1117SOL    HW115382   6.836   0.957   1.435
 1117SOL    HW215383   6.887   1.112   1.426
 1118SOL     OW15384   7.819   3.114   1.320
 1118SOL    HW115385   7.893   3.078   1.265
 1118SOL    HW215386   7.822   3.073   1.412
 1119SOL     OW15387   4.634   1.196   6.368
 1119SOL    HW115388   4.656   1.200   6.465
 1119SOL    HW215389   4.718   1.177   6.316
 1120SOL     OW15390   6.926   2.722   6.680
 1120SOL    HW115391   6.992   2.767   6.740
 1120SOL    HW215392   6.919   2.626   6.705
 1121SOL     OW15393   4.281   6.990   1.655
 1121SOL    HW115394   4.337   6.907   1.652
 1121SOL    HW215395   4.225   6.996   1.572
 1122SOL     OW15396   2.959   0.941   1.157
 1122SOL    HW115397   2.920   0.902   1.074
 1122SOL    HW215398   2.894   1.005   1.198
 1123SOL     OW15399   3.859   3.161   6.167
 1123SOL    HW115400   3.776   3.107   6.152
 1123SOL    HW215401   3.934   3.124   6.113
 1124SOL     OW15402   5.524   4.369   6.040
 1124SOL    HW115403   5.484   4.278   6.028
 1124SOL    HW215404   5.540   4.410   5.951
 1125SOL     OW15405   5.286   7.644   0.897
 1125SOL    HW115406   5.248   7.640   0.804
 1125SOL    HW215407   5.362   7.709   0.898
 1126SOL     OW15408   5.700   6.170   1.536
 1126SOL    HW115409   5.637   6.185   1.461
 1126SOL    HW215410   5.786   6.133   1.500
 1127SOL     OW15411   4.899   0.872   1.426
 1127SOL    HW115412   4.817   0.815   1.434
 1127SOL    HW215413   4.976   0.814   1.398
 1128SOL     OW15414   0.197   8.138   6.913
 1128SOL    HW115415   0.119   8.107   6.967
 1128SOL    HW215416   0.270   8.168   6.974
 1129SOL     OW15417   4.616   0.189   6.192
 1129SOL    HW115418   4.630   0.211   6.095
 1129SOL    HW215419   4.572   0.099   6.199
 1130SOL     OW15420   9.290   4.651   5.673
 1130SOL    HW115421   9.295   4.613   5.580
 1130SOL    HW215422   9.382   4.673   5.704
 1131SOL     OW15423   4.776   1.534   2.136
 1131SOL    HW115424   4.816   1.623   2.157
 1131SOL    HW215425   4.848   1.466   2.128
 1132SOL     OW15426   0.691   7.647   5.790
 1132SOL    HW115427   0.701   7.564   5.736
 1132SOL    HW215428   0.606   7.642   5.843
 1133SOL     OW15429   0.222   0.231   0.890
 1133SOL    HW115430   0.283   0.240   0.969
 1133SOL    HW215431   0.277   0.228   0.807
 1134SOL     OW15432   8.596   0.981   5.458
 1134SOL    HW115433   8.648   0.896   5.467
 1134SOL    HW215434   8.553   0.984   5.368
 1135SOL     OW15435   6.878   4.968   5.853
 1135SOL    HW115436   6.900   4.896   5.787
 1135SOL    HW215437   6.918   5.054   5.823
 1136SOL     OW15438   1.269   1.249   6.006
 1136SOL    HW115439   1.201   1.233   6.078
 1136SOL    HW215440   1.355   1.204   6.031
 1137SOL     OW15441   3.026   0.620   1.825
 1137SOL    HW115442   3.016   0.643   1.922
 1137SOL    HW215443   3.116   0.579   1.810
 1138SOL     OW15444   7.382   2.459   6.919
 1138SOL    HW115445   7.407   2.441   7.014
 1138SOL    HW215446   7.424   2.390   6.860
 1139SOL     OW15447   5.264   5.010   6.096
 1139SOL    HW115448   5.238   5.071   6.022
 1139SOL    HW215449   5.364   5.003   6.101
 1140SOL     OW15450   1.336   3.210   0.519
 1140SOL    HW115451   1.369   3.128   0.471
 1140SOL    HW215452   1.412   3.253   0.568
 1141SOL     OW15453   2.489   1.589   6.691
 1141SOL    HW115454   2.415   1.582   6.624
 1141SOL    HW215455   2.526   1.682   6.692
 1142SOL     OW15456   9.013   5.163   5.589
 1142SOL    HW115457   8.949   5.172   5.512
 1142SOL    HW215458   8.962   5.172   5.675
 1143SOL     OW15459   9.237   6.863   5.509
 1143SOL    HW115460   9.329   6.851   5.472
 1143SOL    HW215461   9.219   6.792   5.578
 1144SOL     OW15462   1.865   6.249   0.600
 1144SOL    HW115463   1.936   6.287   0.660
 1144SOL    HW215464   1.908   6.202   0.524
 1145SOL     OW15465   5.710   0.429   5.067
 1145SOL    HW115466   5.772   0.479   5.006
 1145SOL    HW215467   5.644   0.378   5.012
 1146SOL     OW15468   8.757   7.640   1.160
 1146SOL    HW115469   8.735   7.632   1.257
 1146SOL    HW215470   8.674   7.660   1.108
 1147SOL     OW15471   2.985   0.676   6.416
 1147SOL    HW115472   2.940   0.613   6.354
 1147SOL    HW215473   2.917   0.737   6.458
 1148SOL     OW15474   9.303   8.302   5.707
 1148SOL    HW115475   9.272   8.228   5.646
 1148SOL    HW215476   9.231   8.321   5.775
 1149SOL     OW15477   8.456   2.332   6.459
 1149SOL    HW115478   8.495   2.250   6.417
 1149SOL    HW215479   8.377   2.307   6.515
 1150SOL     OW15480   9.289   0.526   6.250
 1150SOL    HW115481   9.337   0.508   6.165
 1150SOL    HW215482   9.354   0.561   6.318
 1151SOL     OW15483   0.731   1.303   1.437
 1151SOL    HW115484   0.668   1.253   1.495
 1151SOL    HW215485   0.680   1.358   1.371
 1152SOL     OW15486   6.186   5.777   0.995
 1152SOL    HW115487   6.273   5.731   1.011
 1152SOL    HW215488   6.204   5.868   0.957
 1153SOL     OW15489   6.356   0.076   0.455
 1153SOL    HW115490   6.279   0.113   0.507
 1153SOL    HW215491   6.438   0.130   0.474
 1154SOL     OW15492   7.687   0.860   6.273
 1154SOL    HW115493   7.703   0.905   6.184
 1154SOL    HW215494   7.600   0.811   6.270
 1155SOL     OW15495   0.124   1.596   1.065
 1155SOL    HW115496   0.216   1.606   1.105
 1155SOL    HW215497   0.120   1.645   0.978
 1156SOL     OW15498   3.954   2.620   1.101
 1156SOL    HW115499   3.927   2.546   1.163
 1156SOL    HW215500   3.889   2.626   1.025
 1157SOL     OW15501   4.818   5.772   6.501
 1157SOL    HW115502   4.885   5.766   6.575
 1157SOL    HW215503   4.733   5.730   6.531
 1158SOL     OW15504   4.164   8.231   1.514
 1158SOL    HW115505   4.195   8.253   1.606
 1158SOL    HW215506   4.093   8.295   1.486
 1159SOL     OW15507   8.550   1.761   5.895
 1159SOL    HW115508   8.560   1.697   5.818
 1159SOL    HW215509   8.459   1.803   5.892
 1160SOL     OW15510   8.405   0.406   5.729
 1160SOL    HW115511   8.478   0.456   5.775
 1160SOL    HW215512   8.413   0.419   5.630
 1161SOL     OW15513   8.178   4.543   5.969
 1161SOL    HW115514   8.193   4.466   5.908
 1161SOL    HW215515   8.253   4.550   6.034
 1162SOL     OW15516   1.928   5.507   5.812
 1162SOL    HW115517   1.895   5.416   5.837
 1162SOL    HW215518   1.919   5.521   5.714
 1163SOL     OW15519   7.492   6.077   1.096
 1163SOL    HW115520   7.480   6.164   1.144
 1163SOL    HW215521   7.403   6.034   1.083
 1164SOL     OW15522   4.472   2.094   1.923
 1164SOL    HW115523   4.516   2.022   1.977
 1164SOL    HW215524   4.541   2.145   1.873
 1165SOL     OW15525   3.710   1.969   2.437
 1165SOL    HW115526   3.671   1.885   2.398
 1165SOL    HW215527   3.748   1.949   2.528
 1166SOL     OW15528   1.406   0.184   5.585
 1166SOL    HW115529   1.361   0.095   5.578
 1166SOL    HW215530   1.345   0.247   5.633
 1167SOL     OW15531   3.399   7.570   1.247
 1167SOL    HW115532   3.491   7.532   1.242
 1167SOL    HW215533   3.349   7.548   1.164
 1168SOL     OW15534   2.092   7.561   0.686
 1168SOL    HW115535   2.123   7.472   0.652
 1168SOL    HW215536   2.101   7.629   0.614
 1169SOL     OW15537   4.881   1.292   1.201
 1169SOL    HW115538   4.957   1.352   1.179
 1169SOL    HW215539   4.885   1.266   1.298
 1170SOL     OW15540   7.882   0.698   6.418
 1170SOL    HW115541   7.808   0.744   6.369
 1170SOL    HW215542   7.910   0.616   6.367
 1171SOL     OW15543   1.875   4.965   1.398
 1171SOL    HW115544   1.857   5.006   1.309
 1171SOL    HW215545   1.863   4.866   1.392
 1172SOL     OW15546   6.075   2.240   1.607
 1172SOL    HW115547   6.138   2.301   1.655
 1172SOL    HW215548   5.986   2.284   1.597
 1173SOL     OW15549   0.709   5.889   6.106
 1173SOL    HW115550   0.655   5.971   6.126
 1173SOL    HW215551   0.649   5.810   6.096
 1174SOL     OW15552   6.331   1.995   0.998
 1174SOL    HW115553   6.231   2.000   0.991
 1174SOL    HW215554   6.371   2.018   0.909
 1175SOL     OW15555   2.546   1.769   0.298
 1175SOL    HW115556   2.623   1.831   0.311
 1175SOL    HW215557   2.577   1.674   0.306
 1176SOL     OW15558   4.503   3.271   6.199
 1176SOL    HW115559   4.511   3.315   6.110
 1176SOL    HW215560   4.438   3.322   6.256
 1177SOL     OW15561   5.983   6.202   6.650
 1177SOL    HW115562   6.033   6.288   6.649
 1177SOL    HW215563   5.961   6.174   6.557
 1178SOL     OW15564   6.303   7.412   1.166
 1178SOL    HW115565   6.211   7.372   1.164
 1178SOL    HW215566   6.343   7.407   1.075
 1179SOL     OW15567   1.306   5.801   0.681
 1179SOL    HW115568   1.319   5.886   0.630
 1179SOL    HW215569   1.253   5.820   0.764
 1180SOL     OW15570   8.417   4.507   6.072
 1180SOL    HW115571   8.462   4.579   6.126
 1180SOL    HW215572   8.487   4.455   6.023
 1181SOL     OW15573   1.628   3.540   6.173
 1181SOL    HW115574   1.585   3.588   6.096
 1181SOL    HW215575   1.726   3.556   6.171
 1182SOL     OW15576   2.583   0.234   1.815
 1182SOL    HW115577   2.636   0.156   1.782
 1182SOL    HW215578   2.519   0.204   1.886
 1183SOL     OW15579   7.088   6.006   5.585
 1183SOL    HW115580   7.152   6.006   5.507
 1183SOL    HW215581   7.007   5.952   5.562
 1184SOL     OW15582   7.476   7.784   6.258
 1184SOL    HW115583   7.518   7.873   6.239
 1184SOL    HW215584   7.434   7.748   6.175
 1185SOL     OW15585   2.317   0.312   2.218
 1185SOL    HW115586   2.249   0.326   2.290
 1185SOL    HW215587   2.320   0.393   2.159
 1186SOL     OW15588   9.346   7.914   0.570
 1186SOL    HW115589   9.404   7.951   0.643
 1186SOL    HW215590   9.377   7.823   0.546
 1187SOL     OW15591   6.464   1.986   1.252
 1187SOL    HW115592   6.408   1.984   1.170
 1187SOL    HW215593   6.497   2.080   1.268
 1188SOL     OW15594   8.408   6.419   1.834
 1188SOL    HW115595   8.325   6.372   1.866
 1188SOL    HW215596   8.473   6.424   1.909
 1189SOL     OW15597   3.010   3.922   6.307
 1189SOL    HW115598   3.089   3.928   6.246
 1189SOL    HW215599   2.964   4.011   6.311
 1190SOL     OW15600   6.400   4.342   1.546
 1190SOL    HW115601   6.316   4.298   1.576
 1190SOL    HW215602   6.458   4.360   1.626
 1191SOL     OW15603   5.465   0.010   6.598
 1191SOL    HW115604   5.481   0.102   6.633
 1191SOL    HW215605   5.417   0.014   6.511
 1192SOL     OW15606   8.563   5.674   6.631
 1192SOL    HW115607   8.541   5.742   6.561
 1192SOL    HW215608   8.530   5.706   6.720
 1193SOL     OW15609   5.845   0.130   1.546
 1193SOL    HW115610   5.878   0.038   1.566
 1193SOL    HW215611   5.912   0.178   1.490
 1194SOL     OW15612   9.363   7.651   0.524
 1194SOL    HW115613   9.418   7.583   0.572
 1194SOL    HW215614   9.320   7.609   0.444
 1195SOL     OW15615   3.953   6.533   6.086
 1195SOL    HW115616   3.931   6.572   6.176
 1195SOL    HW215617   4.046   6.558   6.061
 1196SOL     OW15618   2.578   7.243   5.961
 1196SOL    HW115619   2.506   7.261   6.028
 1196SOL    HW215620   2.588   7.322   5.900
 1197SOL     OW15621   0.850   8.158   5.188
 1197SOL    HW115622   0.805   8.242   5.157
 1197SOL    HW215623   0.782   8.098   5.230
 1198SOL     OW15624   3.432   1.533   6.127
 1198SOL    HW115625   3.489   1.460   6.088
 1198SOL    HW215626   3.412   1.601   6.056
 1199SOL     OW15627   7.923   7.658   0.395
 1199SOL    HW115628   8.018   7.678   0.417
 1199SOL    HW215629   7.888   7.589   0.458
 1200SOL     OW15630   4.751   1.487   0.798
 1200SOL    HW115631   4.681   1.444   0.856
 1200SOL    HW215632   4.832   1.429   0.794
 1201SOL     OW15633   1.986   2.961   1.041
 1201SOL    HW115634   2.015   2.949   1.136
 1201SOL    HW215635   1.913   2.897   1.020
 1202SOL     OW15636   0.301   0.263   1.177
 1202SOL    HW115637   0.260   0.342   1.222
 1202SOL    HW215638   0.251   0.181   1.202
 1203SOL     OW15639   7.307   6.691   6.344
 1203SOL    HW115640   7.239   6.752   6.303
 1203SOL    HW215641   7.289   6.597   6.315
 1204SOL     OW15642   7.656   0.136   1.275
 1204SOL    HW115643   7.661   0.199   1.352
 1204SOL    HW215644   7.740   0.082   1.271
 1205SOL     OW15645   7.284   3.700   1.319
 1205SOL    HW115646   7.187   3.680   1.320
 1205SOL    HW215647   7.311   3.743   1.405
 1206SOL     OW15648   1.128   3.048   6.210
 1206SOL    HW115649   1.059   2.989   6.252
 1206SOL    HW215650   1.144   3.128   6.269
 1207SOL     OW15651   8.697   3.031   5.623
 1207SOL    HW115652   8.628   3.007   5.692
 1207SOL    HW215653   8.674   2.988   5.536
 1208SOL     OW15654   2.394   6.068   5.906
 1208SOL    HW115655   2.329   5.994   5.923
 1208SOL    HW215656   2.443   6.050   5.821
 1209SOL     OW15657   4.189   8.364   1.138
 1209SOL    HW115658   4.120   8.333   1.202
 1209SOL    HW215659   4.145   8.403   1.057
 1210SOL     OW15660   5.029   6.939   6.859
 1210SOL    HW115661   5.095   6.974   6.926
 1210SOL    HW215662   4.938   6.933   6.902
 1211SOL     OW15663   2.869   6.147   6.101
 1211SOL    HW115664   2.790   6.086   6.111
 1211SOL    HW215665   2.841   6.240   6.124
 1212SOL     OW15666   6.439   4.966   6.840
 1212SOL    HW115667   6.355   4.920   6.811
 1212SOL    HW215668   6.451   5.051   6.788
 1213SOL     OW15669   9.307   5.616   6.823
 1213SOL    HW115670   9.218   5.660   6.835
 1213SOL    HW215671   9.380   5.682   6.840
 1214SOL     OW15672   5.133   7.851   6.685
 1214SOL    HW115673   5.189   7.769   6.670
 1214SOL    HW215674   5.188   7.932   6.666
 1215SOL     OW15675   5.196   2.994   0.587
 1215SOL    HW115676   5.114   2.959   0.543
 1215SOL    HW215677   5.269   3.005   0.519
 1216SOL     OW15678   9.260   3.226   1.750
 1216SOL    HW115679   9.322   3.174   1.810
 1216SOL    HW215680   9.217   3.165   1.684
 1217SOL     OW15681   4.960   0.964   6.456
 1217SOL    HW115682   4.976   0.889   6.519
 1217SOL    HW215683   5.034   0.968   6.389
 1218SOL     OW15684   5.858   0.034   2.268
 1218SOL    HW115685   5.908   0.100   2.323
 1218SOL    HW215686   5.863  -0.056   2.311
 1219SOL     OW15687   4.652   1.308   0.482
 1219SOL    HW115688   4.617   1.401   0.493
 1219SOL    HW215689   4.752   1.311   0.473
 1220SOL     OW15690   1.808   8.177   1.002
 1220SOL    HW115691   1.761   8.241   0.941
 1220SOL    HW215692   1.885   8.223   1.045
 1221SOL     OW15693   3.029   5.180   6.460
 1221SOL    HW115694   2.960   5.250   6.446
 1221SOL    HW215695   3.031   5.154   6.557
 1222SOL     OW15696   9.172   1.497   1.460
 1222SOL    HW115697   9.108   1.507   1.383
 1222SOL    HW215698   9.126   1.520   1.545
 1223SOL     OW15699   6.703   2.759   5.911
 1223SOL    HW115700   6.762   2.690   5.954
 1223SOL    HW215701   6.756   2.842   5.896
 1224SOL     OW15702   4.768   6.854   2.079
 1224SOL    HW115703   4.755   6.758   2.102
 1224SOL    HW215704   4.749   6.911   2.159
 1225SOL     OW15705   1.515   3.591   6.787
 1225SOL    HW115706   1.472   3.552   6.868
 1225SOL    HW215707   1.535   3.519   6.721
 1226SOL     OW15708   8.059   1.105   6.920
 1226SOL    HW115709   8.150   1.063   6.910
 1226SOL    HW215710   8.038   1.117   7.017
 1227SOL     OW15711   9.235   1.924   6.199
 1227SOL    HW115712   9.289   1.937   6.282
 1227SOL    HW215713   9.141   1.956   6.215
 1228SOL     OW15714   4.221   6.428   6.421
 1228SOL    HW115715   4.205   6.523   6.445
 1228SOL    HW215716   4.157   6.400   6.349
 1229SOL     OW15717   5.035   4.891   5.624
 1229SOL    HW115718   5.070   4.797   5.621
 1229SOL    HW215719   5.061   4.940   5.541
 1230SOL     OW15720   5.398   7.423   5.934
 1230SOL    HW115721   5.403   7.393   5.839
 1230SOL    HW215722   5.426   7.348   5.994
 1231SOL     OW15723   3.889   1.513   0.257
 1231SOL    HW115724   3.979   1.532   0.218
 1231SOL    HW215725   3.880   1.414   0.272
 1232SOL     OW15726   7.397   6.535   1.712
 1232SOL    HW115727   7.394   6.551   1.811
 1232SOL    HW215728   7.416   6.621   1.665
 1233SOL     OW15729   1.297   6.022   6.676
 1233SOL    HW115730   1.338   6.108   6.706
 1233SOL    HW215731   1.199   6.024   6.694
 1234SOL     OW15732   7.303   5.391   6.404
 1234SOL    HW115733   7.381   5.447   6.376
 1234SOL    HW215734   7.219   5.446   6.399
 1235SOL     OW15735   3.626   3.293   1.693
 1235SOL    HW115736   3.627   3.367   1.759
 1235SOL    HW215737   3.634   3.205   1.741
 1236SOL     OW15738   5.505   0.389   1.418
 1236SOL    HW115739   5.412   0.352   1.426
 1236SOL    HW215740   5.502   0.473   1.363
 1237SOL     OW15741   2.224   1.616   0.796
 1237SOL    HW115742   2.237   1.539   0.858
 1237SOL    HW215743   2.127   1.629   0.777
 1238SOL     OW15744   6.112   5.339   5.499
 1238SOL    HW115745   6.131   5.284   5.581
 1238SOL    HW215746   6.070   5.281   5.430
 1239SOL     OW15747   3.858   3.815   0.827
 1239SOL    HW115748   3.899   3.792   0.738
 1239SOL    HW215749   3.785   3.881   0.813
 1240SOL     OW15750   4.091   7.575   0.388
 1240SOL    HW115751   4.108   7.512   0.464
 1240SOL    HW215752   4.153   7.653   0.396
 1241SOL     OW15753   0.574   1.925   6.089
 1241SOL    HW115754   0.596   2.022   6.101
 1241SOL    HW215755   0.541   1.910   5.995
 1242SOL     OW15756   9.460   2.042   6.009
 1242SOL    HW115757   9.392   1.977   6.043
 1242SOL    HW215758   9.450   2.053   5.910
 1243SOL     OW15759   2.389   6.565   0.607
 1243SOL    HW115760   2.331   6.628   0.555
 1243SOL    HW215761   2.434   6.615   0.681
 1244SOL     OW15762   5.954   6.174   6.903
 1244SOL    HW115763   5.964   6.178   6.804
 1244SOL    HW215764   5.933   6.265   6.938
 1245SOL     OW15765   2.270   4.223   0.388
 1245SOL    HW115766   2.358   4.212   0.342
 1245SOL    HW215767   2.269   4.164   0.469
 1246SOL     OW15768   9.376   1.567   6.634
 1246SOL    HW115769   9.413   1.576   6.726
 1246SOL    HW215770   9.343   1.473   6.620
 1247SOL     OW15771   3.364   4.758   0.244
 1247SOL    HW115772   3.317   4.738   0.330
 1247SOL    HW215773   3.437   4.824   0.261
 1248SOL     OW15774   5.781   6.918   0.407
 1248SOL    HW115775   5.727   6.857   0.466
 1248SOL    HW215776   5.748   6.911   0.313
 1249SOL     OW15777   3.027   5.455   0.952
 1249SOL    HW115778   3.093   5.504   1.007
 1249SOL    HW215779   2.939   5.453   1.000
 1250SOL     OW15780   6.731   2.384   0.530
 1250SOL    HW115781   6.708   2.454   0.597
 1250SOL    HW215782   6.723   2.293   0.572
 1251SOL     OW15783   1.681   3.931   6.864
 1251SOL    HW115784   1.730   3.846   6.844
 1251SOL    HW215785   1.617   3.916   6.939
 1252SOL     OW15786   5.485   0.748   0.853
 1252SOL    HW115787   5.413   0.803   0.810
 1252SOL    HW215788   5.526   0.799   0.928
 1253SOL     OW15789   4.710   6.230   6.860
 1253SOL    HW115790   4.762   6.259   6.940
 1253SOL    HW215791   4.746   6.275   6.779
 1254SOL     OW15792   2.235   1.619   1.356
 1254SOL    HW115793   2.220   1.642   1.452
 1254SOL    HW215794   2.257   1.702   1.305
 1255SOL     OW15795   8.218   5.628   6.485
 1255SOL    HW115796   8.241   5.613   6.389
 1255SOL    HW215797   8.134   5.682   6.492
 1256SOL     OW15798   1.155   5.425   5.890
 1256SOL    HW115799   1.056   5.435   5.878
 1256SOL    HW215800   1.194   5.514   5.915
 1257SOL     OW15801   6.616   4.683   0.570
 1257SOL    HW115802   6.595   4.775   0.605
 1257SOL    HW215803   6.663   4.690   0.482
 1258SOL     OW15804   0.232   2.771   0.475
 1258SOL    HW115805   0.266   2.734   0.388
 1258SOL    HW215806   0.260   2.712   0.550
 1259SOL     OW15807   3.748   2.564   2.200
 1259SOL    HW115808   3.676   2.608   2.253
 1259SOL    HW215809   3.833   2.563   2.253
 1260SOL     OW15810   5.706   6.284   5.341
 1260SOL    HW115811   5.682   6.194   5.378
 1260SOL    HW215812   5.755   6.271   5.254
 1261SOL     OW15813   4.145   1.155   0.473
 1261SOL    HW115814   4.067   1.123   0.419
 1261SOL    HW215815   4.147   1.105   0.560
 1262SOL     OW15816   0.572   7.856   6.045
 1262SOL    HW115817   0.651   7.917   6.038
 1262SOL    HW215818   0.499   7.902   6.097
 1263SOL     OW15819   8.545   1.749   0.319
 1263SOL    HW115820   8.456   1.762   0.277
 1263SOL    HW215821   8.584   1.838   0.343
 1264SOL     OW15822   1.853   3.303   0.782
 1264SOL    HW115823   1.911   3.221   0.788
 1264SOL    HW215824   1.860   3.342   0.690
 1265SOL     OW15825   4.458   0.674   5.916
 1265SOL    HW115826   4.362   0.659   5.894
 1265SOL    HW215827   4.466   0.707   6.011
 1266SOL     OW15828   9.439   2.554   0.368
 1266SOL    HW115829   9.357   2.550   0.425
 1266SOL    HW215830   9.436   2.479   0.301
 1267SOL     OW15831   1.699   3.914   6.387
 1267SOL    HW115832   1.745   3.933   6.300
 1267SOL    HW215833   1.739   3.832   6.429
 1268SOL     OW15834   6.075   0.355   0.532
 1268SOL    HW115835   6.062   0.371   0.434
 1268SOL    HW215836   6.135   0.425   0.570
 1269SOL     OW15837   2.335   5.066   1.685
 1269SOL    HW115838   2.262   4.999   1.699
 1269SOL    HW215839   2.408   5.050   1.751
 1270SOL     OW15840   3.189   6.503   5.328
 1270SOL    HW115841   3.143   6.492   5.240
 1270SOL    HW215842   3.270   6.560   5.317
 1271SOL     OW15843   0.181   0.873   0.879
 1271SOL    HW115844   0.258   0.874   0.942
 1271SOL    HW215845   0.098   0.845   0.928
 1272SOL     OW15846   0.608   7.737   5.149
 1272SOL    HW115847   0.600   7.822   5.098
 1272SOL    HW215848   0.544   7.669   5.112
 1273SOL     OW15849   1.905   5.289   5.290
 1273SOL    HW115850   1.960   5.266   5.370
 1273SOL    HW215851   1.825   5.229   5.285
 1274SOL     OW15852   2.697   6.724   6.719
 1274SOL    HW115853   2.708   6.820   6.743
 1274SOL    HW215854   2.744   6.667   6.786
 1275SOL     OW15855   9.554   8.315   1.429
 1275SOL    HW115856   9.593   8.401   1.395
 1275SOL    HW215857   9.514   8.331   1.519
 1276SOL     OW15858   6.795   5.384   5.820
 1276SOL    HW115859   6.798   5.298   5.769
 1276SOL    HW215860   6.886   5.405   5.855
 1277SOL     OW15861   4.770   5.295   5.619
 1277SOL    HW115862   4.730   5.205   5.638
 1277SOL    HW215863   4.709   5.347   5.559
 1278SOL     OW15864   1.203   5.678   6.198
 1278SOL    HW115865   1.242   5.647   6.111
 1278SOL    HW215866   1.123   5.735   6.180
 1279SOL     OW15867   8.955   5.635   1.190
 1279SOL    HW115868   9.042   5.678   1.215
 1279SOL    HW215869   8.879   5.690   1.225
 1280SOL     OW15870   9.384   1.230   0.304
 1280SOL    HW115871   9.301   1.264   0.347
 1280SOL    HW215872   9.360   1.168   0.230
 1281SOL     OW15873   6.940   3.598   6.113
 1281SOL    HW115874   6.972   3.641   6.028
 1281SOL    HW215875   6.916   3.503   6.094
 1282SOL     OW15876   0.857   3.691   0.518
 1282SOL    HW115877   0.934   3.627   0.519
 1282SOL    HW215878   0.877   3.766   0.456
 1283SOL     OW15879   4.003   1.642   2.493
 1283SOL    HW115880   3.919   1.669   2.541
 1283SOL    HW215881   4.013   1.542   2.497
 1284SOL     OW15882   8.714   4.304   1.822
 1284SOL    HW115883   8.717   4.382   1.759
 1284SOL    HW215884   8.806   4.279   1.848
 1285SOL     OW15885   1.932   0.005   1.844
 1285SOL    HW115886   1.964  -0.089   1.835
 1285SOL    HW215887   2.010   0.066   1.859
 1286SOL     OW15888   2.487   1.690   6.390
 1286SOL    HW115889   2.397   1.669   6.352
 1286SOL    HW215890   2.543   1.734   6.319
 1287SOL     OW15891   1.218   1.006   0.873
 1287SOL    HW115892   1.291   1.067   0.904
 1287SOL    HW215893   1.235   0.978   0.778
 1288SOL     OW15894   4.211   1.170   5.608
 1288SOL    HW115895   4.299   1.125   5.627
 1288SOL    HW215896   4.211   1.261   5.648
 1289SOL     OW15897   1.989   0.355   6.118
 1289SOL    HW115898   1.901   0.350   6.071
 1289SOL    HW215899   2.063   0.351   6.052
 1290SOL     OW15900   8.018   7.048   6.495
 1290SOL    HW115901   8.073   6.965   6.481
 1290SOL    HW215902   8.057   7.101   6.570
 1291SOL     OW15903   8.831   2.904   0.258
 1291SOL    HW115904   8.747   2.942   0.218
 1291SOL    HW215905   8.910   2.936   0.205
 1292SOL     OW15906   0.333   3.448   6.295
 1292SOL    HW115907   0.319   3.502   6.378
 1292SOL    HW215908   0.398   3.494   6.235
 1293SOL     OW15909   6.099   0.403   4.976
 1293SOL    HW115910   6.122   0.495   5.008
 1293SOL    HW215911   6.004   0.401   4.946
 1294SOL     OW15912   7.603   3.354   1.172
 1294SOL    HW115913   7.675   3.394   1.230
 1294SOL    HW215914   7.604   3.254   1.182
 1295SOL     OW15915   3.750   6.710   1.055
 1295SOL    HW115916   3.667   6.688   1.105
 1295SOL    HW215917   3.828   6.665   1.098
 1296SOL     OW15918   7.889   8.049   5.999
 1296SOL    HW115919   7.919   8.000   6.081
 1296SOL    HW215920   7.942   8.133   5.988
 1297SOL     OW15921   3.258   5.156   2.161
 1297SOL    HW115922   3.340   5.106   2.134
 1297SOL    HW215923   3.276   5.254   2.161
 1298SOL     OW15924   2.502   0.516   0.966
 1298SOL    HW115925   2.409   0.483   0.950
 1298SOL    HW215926   2.502   0.616   0.968
 1299SOL     OW15927   3.524   7.657   0.750
 1299SOL    HW115928   3.553   7.742   0.792
 1299SOL    HW215929   3.571   7.580   0.793
 1300SOL     OW15930   5.459   3.091   1.012
 1300SOL    HW115931   5.446   3.176   1.063
 1300SOL    HW215932   5.551   3.055   1.030
 1301SOL     OW15933   7.678   7.314   5.791
 1301SOL    HW115934   7.740   7.331   5.867
 1301SOL    HW215935   7.713   7.238   5.736
 1302SOL     OW15936   1.605   5.566   6.724
 1302SOL    HW115937   1.681   5.536   6.666
 1302SOL    HW215938   1.622   5.660   6.754
 1303SOL     OW15939   2.887   3.944   0.695
 1303SOL    HW115940   2.883   3.927   0.597
 1303SOL    HW215941   2.983   3.942   0.725
 1304SOL     OW15942   6.005   1.494   0.399
 1304SOL    HW115943   5.980   1.413   0.346
 1304SOL    HW215944   5.951   1.572   0.367
 1305SOL     OW15945   8.467   3.677   1.199
 1305SOL    HW115946   8.515   3.740   1.138
 1305SOL    HW215947   8.382   3.647   1.155
 1306SOL     OW15948   0.582   6.591   5.173
 1306SOL    HW115949   0.623   6.556   5.257
 1306SOL    HW215950   0.588   6.521   5.101
 1307SOL     OW15951   0.984   5.170   0.351
 1307SOL    HW115952   1.066   5.221   0.324
 1307SOL    HW215953   0.907   5.198   0.295
 1308SOL     OW15954   4.500   7.379   6.573
 1308SOL    HW115955   4.429   7.345   6.511
 1308SOL    HW215956   4.486   7.477   6.589
 1309SOL     OW15957   7.578   2.721   1.645
 1309SOL    HW115958   7.628   2.797   1.685
 1309SOL    HW215959   7.482   2.726   1.673
 1310SOL     OW15960   5.143   7.424   6.203
 1310SOL    HW115961   5.241   7.435   6.219
 1310SOL    HW215962   5.126   7.334   6.162
 1311SOL     OW15963   0.330   2.586   0.665
 1311SOL    HW115964   0.270   2.510   0.693
 1311SOL    HW215965   0.425   2.555   0.664
 1312SOL     OW15966   4.499   5.464   1.760
 1312SOL    HW115967   4.570   5.499   1.698
 1312SOL    HW215968   4.528   5.477   1.854
 1313SOL     OW15969   6.705   8.097   0.904
 1313SOL    HW115970   6.683   8.102   0.806
 1313SOL    HW215971   6.754   8.012   0.923
 1314SOL     OW15972   0.157   7.065   6.150
 1314SOL    HW115973   0.181   6.995   6.218
 1314SOL    HW215974   0.231   7.075   6.084
 1315SOL     OW15975   1.630   1.233   5.891
 1315SOL    HW115976   1.565   1.219   5.816
 1315SOL    HW215977   1.680   1.148   5.907
 1316SOL     OW15978   4.174   1.695   6.116
 1316SOL    HW115979   4.122   1.716   6.033
 1316SOL    HW215980   4.244   1.627   6.095
 1317SOL     OW15981   3.233   1.788   6.762
 1317SOL    HW115982   3.176   1.750   6.689
 1317SOL    HW215983   3.174   1.825   6.834
 1318SOL     OW15984   3.855   1.231   0.733
 1318SOL    HW115985   3.816   1.308   0.784
 1318SOL    HW215986   3.952   1.221   0.756
 1319SOL     OW15987   3.513   6.136   5.336
 1319SOL    HW115988   3.589   6.179   5.385
 1319SOL    HW215989   3.538   6.126   5.240
 1320SOL     OW15990   9.445   2.169   5.749
 1320SOL    HW115991   9.471   2.178   5.653
 1320SOL    HW215992   9.520   2.201   5.807
 1321SOL     OW15993   5.556   1.635   0.860
 1321SOL    HW115994   5.475   1.587   0.827
 1321SOL    HW215995   5.634   1.612   0.801
 1322SOL     OW15996   0.864   7.781   6.343
 1322SOL    HW115997   0.842   7.753   6.437
 1322SOL    HW215998   0.926   7.859   6.345
 1323SOL     OW15999   2.965   6.554   1.065
 1323SOL    HW116000   3.048   6.610   1.070
 1323SOL    HW216001   2.911   6.583   0.986
 1324SOL     OW16002   0.538   6.244   6.339
 1324SOL    HW116003   0.483   6.260   6.421
 1324SOL    HW216004   0.518   6.153   6.302
 1325SOL     OW16005   3.418   8.112   6.367
 1325SOL    HW116006   3.454   8.077   6.281
 1325SOL    HW216007   3.361   8.042   6.410
 1326SOL     OW16008   5.200   3.457   6.030
 1326SOL    HW116009   5.218   3.518   5.952
 1326SOL    HW216010   5.284   3.409   6.055
 1327SOL     OW16011   1.382   0.790   4.700
 1327SOL    HW116012   1.308   0.852   4.729
 1327SOL    HW216013   1.469   0.839   4.701
 1328SOL     OW16014   4.009   2.788   1.296
 1328SOL    HW116015   4.084   2.852   1.283
 1328SOL    HW216016   3.985   2.746   1.209
 1329SOL     OW16017   7.446   5.400   5.643
 1329SOL    HW116018   7.433   5.333   5.570
 1329SOL    HW216019   7.514   5.468   5.616
 1330SOL     OW16020   5.131   5.752   5.342
 1330SOL    HW116021   5.100   5.709   5.257
 1330SOL    HW216022   5.133   5.851   5.330
 1331SOL     OW16023   6.577   4.870   1.712
 1331SOL    HW116024   6.483   4.848   1.687
 1331SOL    HW216025   6.582   4.893   1.809
 1332SOL     OW16026   8.154   5.588   0.724
 1332SOL    HW116027   8.161   5.551   0.632
 1332SOL    HW216028   8.105   5.675   0.722
 1333SOL     OW16029   2.741   5.104   1.539
 1333SOL    HW116030   2.769   5.076   1.447
 1333SOL    HW216031   2.676   5.038   1.576
 1334SOL     OW16032   2.677   3.863   6.478
 1334SOL    HW116033   2.579   3.859   6.457
 1334SOL    HW216034   2.707   3.958   6.477
 1335SOL     OW16035   5.915   4.875   0.509
 1335SOL    HW116036   5.945   4.851   0.601
 1335SOL    HW216037   5.877   4.967   0.509
 1336SOL     OW16038   4.085   2.654   1.561
 1336SOL    HW116039   4.127   2.710   1.633
 1336SOL    HW216040   4.032   2.713   1.500
 1337SOL     OW16041   4.625   7.348   0.935
 1337SOL    HW116042   4.720   7.337   0.964
 1337SOL    HW216043   4.595   7.265   0.888
 1338SOL     OW16044   4.702   1.818   0.522
 1338SOL    HW116045   4.644   1.890   0.560
 1338SOL    HW216046   4.766   1.786   0.593
 1339SOL     OW16047   3.925   4.422   0.468
 1339SOL    HW116048   3.998   4.407   0.401
 1339SOL    HW216049   3.963   4.467   0.549
 1340SOL     OW16050   4.351   5.780   1.119
 1340SOL    HW116051   4.344   5.861   1.060
 1340SOL    HW216052   4.355   5.698   1.062
 1341SOL     OW16053   5.459   6.639   6.716
 1341SOL    HW116054   5.553   6.626   6.683
 1341SOL    HW216055   5.456   6.623   6.815
 1342SOL     OW16056   4.215   8.327   1.791
 1342SOL    HW116057   4.147   8.373   1.848
 1342SOL    HW216058   4.297   8.308   1.845
 1343SOL     OW16059   9.228   7.074   5.739
 1343SOL    HW116060   9.263   7.038   5.652
 1343SOL    HW216061   9.252   7.171   5.746
 1344SOL     OW16062   4.107   1.585   0.480
 1344SOL    HW116063   4.165   1.569   0.400
 1344SOL    HW216064   4.015   1.609   0.451
 1345SOL     OW16065   3.973   6.433   5.742
 1345SOL    HW116066   4.055   6.439   5.685
 1345SOL    HW216067   3.914   6.359   5.709
 1346SOL     OW16068   5.084   0.598   6.371
 1346SOL    HW116069   5.177   0.631   6.390
 1346SOL    HW216070   5.080   0.561   6.278
 1347SOL     OW16071   1.693   0.331   6.750
 1347SOL    HW116072   1.655   0.419   6.780
 1347SOL    HW216073   1.785   0.321   6.789
 1348SOL     OW16074   5.270   7.664   5.994
 1348SOL    HW116075   5.267   7.660   6.094
 1348SOL    HW216076   5.328   7.590   5.959
 1349SOL     OW16077   6.790   4.504   1.145
 1349SOL    HW116078   6.739   4.419   1.156
 1349SOL    HW216079   6.887   4.488   1.161
 1350SOL     OW16080   6.765   0.721   6.380
 1350SOL    HW116081   6.704   0.675   6.444
 1350SOL    HW216082   6.711   0.769   6.311
 1351SOL     OW16083   1.483   6.828   4.312
 1351SOL    HW116084   1.450   6.761   4.245
 1351SOL    HW216085   1.560   6.879   4.273
 1352SOL     OW16086   7.609   1.130   5.547
 1352SOL    HW116087   7.615   1.196   5.621
 1352SOL    HW216088   7.543   1.162   5.479
 1353SOL     OW16089   0.345   0.807   5.886
 1353SOL    HW116090   0.260   0.755   5.890
 1353SOL    HW216091   0.395   0.795   5.972
 1354SOL     OW16092   8.450   5.039   5.378
 1354SOL    HW116093   8.359   5.072   5.355
 1354SOL    HW216094   8.505   5.033   5.294
 1355SOL     OW16095   0.363   5.721   1.367
 1355SOL    HW116096   0.457   5.722   1.402
 1355SOL    HW216097   0.313   5.799   1.403
 1356SOL     OW16098   5.526   4.556   6.274
 1356SOL    HW116099   5.600   4.593   6.330
 1356SOL    HW216100   5.565   4.501   6.200
 1357SOL     OW16101   3.885   0.255   6.609
 1357SOL    HW116102   3.885   0.155   6.606
 1357SOL    HW216103   3.851   0.286   6.698
 1358SOL     OW16104   4.164   7.033   6.135
 1358SOL    HW116105   4.185   7.018   6.038
 1358SOL    HW216106   4.232   7.095   6.174
 1359SOL     OW16107   5.207   5.716   6.879
 1359SOL    HW116108   5.300   5.706   6.841
 1359SOL    HW216109   5.162   5.627   6.879
 1360SOL     OW16110   2.733   5.362   6.373
 1360SOL    HW116111   2.683   5.398   6.452
 1360SOL    HW216112   2.770   5.437   6.320
 1361SOL     OW16113   4.679   8.355   6.706
 1361SOL    HW116114   4.777   8.365   6.691
 1361SOL    HW216115   4.631   8.431   6.661
 1362SOL     OW16116   2.020   6.949   6.068
 1362SOL    HW116117   1.999   7.035   6.115
 1362SOL    HW216118   2.074   6.967   5.986
 1363SOL     OW16119   3.784   8.039   6.251
 1363SOL    HW116120   3.825   8.129   6.236
 1363SOL    HW216121   3.761   8.028   6.347
 1364SOL     OW16122   6.790   7.104   5.974
 1364SOL    HW116123   6.785   7.014   5.932
 1364SOL    HW216124   6.833   7.168   5.911
 1365SOL     OW16125   6.838   5.329   0.744
 1365SOL    HW116126   6.877   5.239   0.766
 1365SOL    HW216127   6.778   5.321   0.665
 1366SOL     OW16128   4.131   2.400   1.596
 1366SOL    HW116129   4.206   2.395   1.530
 1366SOL    HW216130   4.097   2.494   1.600
 1367SOL     OW16131   0.591   6.548   0.471
 1367SOL    HW116132   0.592   6.478   0.400
 1367SOL    HW216133   0.669   6.609   0.459
 1368SOL     OW16134   7.081   5.461   1.607
 1368SOL    HW116135   7.095   5.514   1.690
 1368SOL    HW216136   7.162   5.406   1.588
 1369SOL     OW16137   1.957   4.259   6.895
 1369SOL    HW116138   2.040   4.215   6.862
 1369SOL    HW216139   1.953   4.353   6.862
 1370SOL     OW16140   0.562   0.616   0.734
 1370SOL    HW116141   0.524   0.602   0.643
 1370SOL    HW216142   0.509   0.566   0.802
 1371SOL     OW16143   4.587   4.559   0.869
 1371SOL    HW116144   4.615   4.466   0.846
 1371SOL    HW216145   4.508   4.585   0.815
 1372SOL     OW16146   5.609   3.830   6.027
 1372SOL    HW116147   5.671   3.773   6.080
 1372SOL    HW216148   5.517   3.827   6.068
 1373SOL     OW16149   4.318   1.129   0.257
 1373SOL    HW116150   4.289   1.165   0.169
 1373SOL    HW216151   4.255   1.160   0.328
 1374SOL     OW16152   3.291   1.499   1.720
 1374SOL    HW116153   3.388   1.474   1.722
 1374SOL    HW216154   3.256   1.489   1.626
 1375SOL     OW16155   0.828   1.821   6.004
 1375SOL    HW116156   0.735   1.851   6.023
 1375SOL    HW216157   0.877   1.893   5.955
 1376SOL     OW16158   8.740   0.586   1.342
 1376SOL    HW116159   8.675   0.530   1.394
 1376SOL    HW216160   8.803   0.631   1.406
 1377SOL     OW16161   6.624   0.210   1.399
 1377SOL    HW116162   6.625   0.273   1.321
 1377SOL    HW216163   6.712   0.213   1.446
 1378SOL     OW16164   8.688   6.502   0.961
 1378SOL    HW116165   8.676   6.545   1.050
 1378SOL    HW216166   8.689   6.403   0.972
 1379SOL     OW16167   1.934   7.746   5.421
 1379SOL    HW116168   1.941   7.823   5.357
 1379SOL    HW216169   1.950   7.661   5.372
 1380SOL     OW16170   8.834   2.320   0.804
 1380SOL    HW116171   8.775   2.319   0.884
 1380SOL    HW216172   8.782   2.292   0.723
 1381SOL     OW16173   8.411   4.726   6.688
 1381SOL    HW116174   8.338   4.666   6.655
 1381SOL    HW216175   8.386   4.821   6.673
 1382SOL     OW16176   2.055   5.308   6.360
 1382SOL    HW116177   2.055   5.347   6.268
 1382SOL    HW216178   2.094   5.373   6.424
 1383SOL     OW16179   1.588   3.334   0.555
 1383SOL    HW116180   1.575   3.419   0.504
 1383SOL    HW216181   1.673   3.290   0.527
 1384SOL     OW16182   0.288   3.693   6.416
 1384SOL    HW116183   0.384   3.712   6.393
 1384SOL    HW216184   0.244   3.778   6.445
 1385SOL     OW16185   5.046   3.273   6.538
 1385SOL    HW116186   5.084   3.328   6.464
 1385SOL    HW216187   5.057   3.323   6.624
 1386SOL     OW16188   6.039   2.322   5.515
 1386SOL    HW116189   5.960   2.378   5.492
 1386SOL    HW216190   6.116   2.381   5.539
 1387SOL     OW16191   3.619   7.406   1.122
 1387SOL    HW116192   3.638   7.400   1.024
 1387SOL    HW216193   3.555   7.333   1.148
 1388SOL     OW16194   6.187   7.338   6.495
 1388SOL    HW116195   6.204   7.415   6.432
 1388SOL    HW216196   6.097   7.348   6.536
 1389SOL     OW16197   7.884   7.610   5.265
 1389SOL    HW116198   7.809   7.662   5.226
 1389SOL    HW216199   7.966   7.668   5.271
 1390SOL     OW16200   2.565   1.214   6.746
 1390SOL    HW116201   2.593   1.238   6.652
 1390SOL    HW216202   2.541   1.297   6.795
 1391SOL     OW16203   9.265   3.847   6.549
 1391SOL    HW116204   9.279   3.933   6.501
 1391SOL    HW216205   9.187   3.855   6.611
 1392SOL     OW16206   7.640   3.256   0.706
 1392SOL    HW116207   7.557   3.310   0.694
 1392SOL    HW216208   7.643   3.219   0.799
 1393SOL     OW16209   4.668   4.140   0.451
 1393SOL    HW116210   4.695   4.120   0.545
 1393SOL    HW216211   4.587   4.087   0.428
 1394SOL     OW16212   2.088   5.199   5.451
 1394SOL    HW116213   2.169   5.150   5.420
 1394SOL    HW216214   2.115   5.277   5.507
 1395SOL     OW16215   2.863   3.774   5.757
 1395SOL    HW116216   2.927   3.847   5.734
 1395SOL    HW216217   2.897   3.687   5.721
 1396SOL     OW16218   2.962   0.347   5.132
 1396SOL    HW116219   2.959   0.281   5.056
 1396SOL    HW216220   2.873   0.392   5.140
 1397SOL     OW16221   1.158   4.913   0.724
 1397SOL    HW116222   1.233   4.875   0.670
 1397SOL    HW216223   1.117   4.990   0.675
 1398SOL     OW16224   6.716   0.092   0.261
 1398SOL    HW116225   6.695  -0.006   0.263
 1398SOL    HW216226   6.726   0.122   0.166
 1399SOL     OW16227   1.151   6.235   1.217
 1399SOL    HW116228   1.197   6.165   1.162
 1399SOL    HW216229   1.094   6.292   1.158
 1400SOL     OW16230   7.477   8.001   0.780
 1400SOL    HW116231   7.568   8.042   0.768
 1400SOL    HW216232   7.459   7.937   0.705
 1401SOL     OW16233   0.167   2.795   0.765
 1401SOL    HW116234   0.236   2.728   0.739
 1401SOL    HW216235   0.209   2.885   0.776
 1402SOL     OW16236   1.240   0.666   0.856
 1402SOL    HW116237   1.173   0.695   0.924
 1402SOL    HW216238   1.223   0.713   0.769
 1403SOL     OW16239   0.666   6.521   5.428
 1403SOL    HW116240   0.573   6.527   5.465
 1403SOL    HW216241   0.720   6.456   5.482
 1404SOL     OW16242   1.126   5.313   6.898
 1404SOL    HW116243   1.150   5.231   6.846
 1404SOL    HW216244   1.111   5.389   6.835
 1405SOL     OW16245   4.537   4.000   1.880
 1405SOL    HW116246   4.560   3.951   1.796
 1405SOL    HW216247   4.618   4.006   1.939
 1406SOL     OW16248   1.434   6.014   6.093
 1406SOL    HW116249   1.464   6.108   6.110
 1406SOL    HW216250   1.349   5.996   6.143
 1407SOL     OW16251   0.804   5.588   0.250
 1407SOL    HW116252   0.865   5.645   0.304
 1407SOL    HW216253   0.710   5.600   0.282
 1408SOL     OW16254   1.235   4.714   5.338
 1408SOL    HW116255   1.276   4.624   5.349
 1408SOL    HW216256   1.216   4.731   5.241
 1409SOL     OW16257   0.654   8.416   5.032
 1409SOL    HW116258   0.586   8.460   4.973
 1409SOL    HW216259   0.612   8.338   5.078
 1410SOL     OW16260   1.005   3.810   5.345
 1410SOL    HW116261   0.926   3.787   5.288
 1410SOL    HW216262   1.089   3.782   5.298
 1411SOL     OW16263   6.173   5.250   1.872
 1411SOL    HW116264   6.265   5.226   1.842
 1411SOL    HW216265   6.177   5.327   1.935
 1412SOL     OW16266   4.939   7.511   0.402
 1412SOL    HW116267   4.991   7.575   0.346
 1412SOL    HW216268   4.922   7.551   0.492
 1413SOL     OW16269   2.068   3.504   0.802
 1413SOL    HW116270   2.086   3.495   0.704
 1413SOL    HW216271   2.026   3.419   0.835
 1414SOL     OW16272   2.541   6.712   6.343
 1414SOL    HW116273   2.509   6.675   6.430
 1414SOL    HW216274   2.638   6.691   6.332
 1415SOL     OW16275   1.480   0.183   6.799
 1415SOL    HW116276   1.546   0.258   6.803
 1415SOL    HW216277   1.501   0.123   6.723
 1416SOL     OW16278   8.348   7.720   1.249
 1416SOL    HW116279   8.249   7.723   1.240
 1416SOL    HW216280   8.374   7.661   1.325
 1417SOL     OW16281   3.429   5.180   0.519
 1417SOL    HW116282   3.363   5.140   0.455
 1417SOL    HW216283   3.381   5.215   0.599
 1418SOL     OW16284   7.464   5.086   4.844
 1418SOL    HW116285   7.527   5.042   4.908
 1418SOL    HW216286   7.457   5.031   4.761
 1419SOL     OW16287   8.707   7.397   0.895
 1419SOL    HW116288   8.652   7.473   0.931
 1419SOL    HW216289   8.791   7.388   0.948
 1420SOL     OW16290   8.964   3.545   6.802
 1420SOL    HW116291   9.048   3.548   6.855
 1420SOL    HW216292   8.966   3.615   6.731
 1421SOL     OW16293   7.487   5.548   5.299
 1421SOL    HW116294   7.543   5.539   5.217
 1421SOL    HW216295   7.423   5.472   5.304
 1422SOL     OW16296   4.567   0.140   0.413
 1422SOL    HW116297   4.521   0.063   0.367
 1422SOL    HW216298   4.524   0.226   0.386
 1423SOL     OW16299   1.487   5.794   4.586
 1423SOL    HW116300   1.418   5.750   4.528
 1423SOL    HW216301   1.484   5.893   4.571
 1424SOL     OW16302   6.386   0.554   0.425
 1424SOL    HW116303   6.382   0.493   0.504
 1424SOL    HW216304   6.459   0.525   0.363
 1425SOL     OW16305   5.429   2.069   1.688
 1425SOL    HW116306   5.375   2.071   1.604
 1425SOL    HW216307   5.368   2.067   1.767
 1426SOL     OW16308   8.986   4.881   5.340
 1426SOL    HW116309   9.024   4.958   5.289
 1426SOL    HW216310   8.887   4.878   5.326
 1427SOL     OW16311   5.765   8.107   1.688
 1427SOL    HW116312   5.701   8.109   1.612
 1427SOL    HW216313   5.804   8.198   1.701
 1428SOL     OW16314   7.229   0.646   6.617
 1428SOL    HW116315   7.162   0.616   6.685
 1428SOL    HW216316   7.183   0.666   6.531
 1429SOL     OW16317   2.183   2.035   6.482
 1429SOL    HW116318   2.099   2.065   6.527
 1429SOL    HW216319   2.223   1.958   6.531
 1430SOL     OW16320   7.716   1.792   0.339
 1430SOL    HW116321   7.719   1.849   0.257
 1430SOL    HW216322   7.792   1.816   0.399
 1431SOL     OW16323   1.629   3.551   0.356
 1431SOL    HW116324   1.562   3.495   0.306
 1431SOL    HW216325   1.718   3.544   0.310
 1432SOL     OW16326   3.342   4.909   6.288
 1432SOL    HW116327   3.298   4.912   6.377
 1432SOL    HW216328   3.273   4.892   6.217
 1433SOL     OW16329   0.565   6.338   6.102
 1433SOL    HW116330   0.565   6.308   6.197
 1433SOL    HW216331   0.484   6.393   6.083
 1434SOL     OW16332   0.635   6.346   0.304
 1434SOL    HW116333   0.688   6.358   0.220
 1434SOL    HW216334   0.657   6.258   0.345
 1435SOL     OW16335   6.616   0.587   1.793
 1435SOL    HW116336   6.634   0.496   1.830
 1435SOL    HW216337   6.692   0.647   1.813
 1436SOL     OW16338   6.016   1.159   1.664
 1436SOL    HW116339   5.921   1.159   1.631
 1436SOL    HW216340   6.019   1.122   1.757
 1437SOL     OW16341   7.405   7.538   0.339
 1437SOL    HW116342   7.402   7.522   0.241
 1437SOL    HW216343   7.500   7.545   0.369
 1438SOL     OW16344   8.615   0.047   0.365
 1438SOL    HW116345   8.679   0.120   0.343
 1438SOL    HW216346   8.666  -0.036   0.387
 1439SOL     OW16347   6.366   8.420   0.886
 1439SOL    HW116348   6.276   8.379   0.877
 1439SOL    HW216349   6.367   8.509   0.841
 1440SOL     OW16350   6.206   1.597   2.191
 1440SOL    HW116351   6.207   1.656   2.110
 1440SOL    HW216352   6.300   1.571   2.214
 1441SOL     OW16353   4.771   3.634   6.919
 1441SOL    HW116354   4.855   3.686   6.936
 1441SOL    HW216355   4.721   3.675   6.843
 1442SOL     OW16356   2.040   1.279   5.109
 1442SOL    HW116357   2.062   1.375   5.122
 1442SOL    HW216358   2.125   1.226   5.105
 1443SOL     OW16359   5.256   1.137   5.885
 1443SOL    HW116360   5.191   1.207   5.853
 1443SOL    HW216361   5.347   1.158   5.850
 1444SOL     OW16362   8.049   7.885   1.073
 1444SOL    HW116363   8.043   7.809   1.138
 1444SOL    HW216364   7.987   7.868   0.996
 1445SOL     OW16365   6.317   7.182   6.671
 1445SOL    HW116366   6.268   7.227   6.596
 1445SOL    HW216367   6.306   7.083   6.663
 1446SOL     OW16368   0.594   2.484   0.641
 1446SOL    HW116369   0.684   2.514   0.610
 1446SOL    HW216370   0.604   2.423   0.719
 1447SOL     OW16371   5.821   1.237   2.266
 1447SOL    HW116372   5.840   1.193   2.178
 1447SOL    HW216373   5.906   1.276   2.302
 1448SOL     OW16374   8.047   0.795   6.118
 1448SOL    HW116375   7.968   0.821   6.063
 1448SOL    HW216376   8.029   0.710   6.166
 1449SOL     OW16377   0.867   7.228   4.897
 1449SOL    HW116378   0.849   7.157   4.964
 1449SOL    HW216379   0.966   7.240   4.886
 1450SOL     OW16380   1.255   3.526   5.283
 1450SOL    HW116381   1.215   3.435   5.271
 1450SOL    HW216382   1.219   3.587   5.212
 1451SOL     OW16383   7.960   3.912   6.022
 1451SOL    HW116384   7.913   3.863   5.949
 1451SOL    HW216385   7.919   3.888   6.110
 1452SOL     OW16386   3.328   7.174   1.399
 1452SOL    HW116387   3.385   7.115   1.342
 1452SOL    HW216388   3.373   7.190   1.487
 1453SOL     OW16389   6.692   5.130   6.459
 1453SOL    HW116390   6.780   5.142   6.413
 1453SOL    HW216391   6.685   5.196   6.534
 1454SOL     OW16392   4.035   6.528   0.238
 1454SOL    HW116393   4.007   6.450   0.293
 1454SOL    HW216394   4.113   6.502   0.181
 1455SOL     OW16395   3.811   7.780   4.992
 1455SOL    HW116396   3.803   7.683   5.013
 1455SOL    HW216397   3.907   7.803   4.975
 1456SOL     OW16398   8.837   0.121   6.364
 1456SOL    HW116399   8.746   0.150   6.333
 1456SOL    HW216400   8.872   0.050   6.304
 1457SOL     OW16401   0.668   7.144   5.804
 1457SOL    HW116402   0.654   7.054   5.845
 1457SOL    HW216403   0.728   7.198   5.863
 1458SOL     OW16404   1.676   5.281   0.305
 1458SOL    HW116405   1.643   5.350   0.370
 1458SOL    HW216406   1.645   5.191   0.333
 1459SOL     OW16407   9.587   6.081   6.596
 1459SOL    HW116408   9.600   6.144   6.519
 1459SOL    HW216409   9.666   6.020   6.603
 1460SOL     OW16410   8.045   1.936   1.152
 1460SOL    HW116411   8.104   1.861   1.123
 1460SOL    HW216412   8.094   2.023   1.139
 1461SOL     OW16413   1.215   6.761   4.960
 1461SOL    HW116414   1.239   6.666   4.937
 1461SOL    HW216415   1.210   6.771   5.059
 1462SOL     OW16416   9.165   0.407   5.948
 1462SOL    HW116417   9.109   0.475   5.997
 1462SOL    HW216418   9.260   0.438   5.946
 1463SOL     OW16419   5.283   0.759   0.605
 1463SOL    HW116420   5.301   0.842   0.657
 1463SOL    HW216421   5.222   0.699   0.657
 1464SOL     OW16422   7.228   3.259   0.925
 1464SOL    HW116423   7.272   3.171   0.940
 1464SOL    HW216424   7.257   3.323   0.996
 1465SOL     OW16425   5.740   6.542   0.600
 1465SOL    HW116426   5.706   6.450   0.623
 1465SOL    HW216427   5.783   6.582   0.681
 1466SOL     OW16428   7.248   5.753   1.943
 1466SOL    HW116429   7.309   5.775   1.867
 1466SOL    HW216430   7.266   5.814   2.020
 1467SOL     OW16431   2.139   1.018   6.420
 1467SOL    HW116432   2.068   1.070   6.467
 1467SOL    HW216433   2.183   0.955   6.484
 1468SOL     OW16434   2.410   4.912   0.933
 1468SOL    HW116435   2.393   4.948   1.024
 1468SOL    HW216436   2.412   4.812   0.936
 1469SOL     OW16437   2.910   7.926   0.443
 1469SOL    HW116438   2.969   7.994   0.486
 1469SOL    HW216439   2.868   7.965   0.361
 1470SOL     OW16440   1.948   0.404   1.364
 1470SOL    HW116441   1.864   0.395   1.418
 1470SOL    HW216442   1.930   0.457   1.281
 1471SOL     OW16443   0.360   7.013   6.569
 1471SOL    HW116444   0.347   7.036   6.666
 1471SOL    HW216445   0.391   7.094   6.520
 1472SOL     OW16446   4.257   6.581   0.771
 1472SOL    HW116447   4.256   6.543   0.678
 1472SOL    HW216448   4.188   6.533   0.826
 1473SOL     OW16449   0.155   6.841   0.821
 1473SOL    HW116450   0.213   6.876   0.747
 1473SOL    HW216451   0.194   6.757   0.857
 1474SOL     OW16452   6.638   5.579   6.911
 1474SOL    HW116453   6.709   5.511   6.929
 1474SOL    HW216454   6.624   5.589   6.813
 1475SOL     OW16455   7.369   2.421   6.365
 1475SOL    HW116456   7.436   2.350   6.346
 1475SOL    HW216457   7.282   2.380   6.392
 1476SOL     OW16458   3.495   8.300   5.555
 1476SOL    HW116459   3.479   8.399   5.556
 1476SOL    HW216460   3.407   8.252   5.552
 1477SOL     OW16461   1.295   0.075   1.235
 1477SOL    HW116462   1.330   0.157   1.190
 1477SOL    HW216463   1.195   0.074   1.230
 1478SOL     OW16464   6.391   5.533   0.288
 1478SOL    HW116465   6.405   5.485   0.375
 1478SOL    HW216466   6.462   5.603   0.278
 1479SOL     OW16467   5.999   2.143   6.548
 1479SOL    HW116468   6.080   2.155   6.490
 1479SOL    HW216469   6.028   2.123   6.642
 1480SOL     OW16470   7.143   4.038   0.283
 1480SOL    HW116471   7.125   3.989   0.197
 1480SOL    HW216472   7.056   4.055   0.330
 1481SOL     OW16473   4.066   2.859   0.375
 1481SOL    HW116474   4.119   2.914   0.439
 1481SOL    HW216475   4.124   2.827   0.301
 1482SOL     OW16476   7.314   3.378   1.150
 1482SOL    HW116477   7.344   3.473   1.140
 1482SOL    HW216478   7.384   3.326   1.199
 1483SOL     OW16479   3.914   2.597   6.134
 1483SOL    HW116480   3.855   2.523   6.165
 1483SOL    HW216481   3.871   2.685   6.153
 1484SOL     OW16482   5.482   2.150   6.872
 1484SOL    HW116483   5.568   2.104   6.894
 1484SOL    HW216484   5.492   2.248   6.885
 1485SOL     OW16485   8.109   5.194   5.927
 1485SOL    HW116486   8.166   5.276   5.934
 1485SOL    HW216487   8.114   5.142   6.012
 1486SOL     OW16488   4.397   2.615   6.248
 1486SOL    HW116489   4.453   2.555   6.190
 1486SOL    HW216490   4.300   2.604   6.224
 1487SOL     OW16491   1.072   1.214   0.334
 1487SOL    HW116492   1.051   1.290   0.395
 1487SOL    HW216493   1.000   1.206   0.265
 1488SOL     OW16494   3.207   5.424   1.389
 1488SOL    HW116495   3.175   5.351   1.448
 1488SOL    HW216496   3.304   5.411   1.368
 1489SOL     OW16497   3.657   3.985   1.348
 1489SOL    HW116498   3.558   3.983   1.335
 1489SOL    HW216499   3.700   3.917   1.288
 1490SOL     OW16500   1.544   2.010   0.465
 1490SOL    HW116501   1.590   2.099   0.467
 1490SOL    HW216502   1.570   1.961   0.381
 1491SOL     OW16503   4.199   8.123   6.017
 1491SOL    HW116504   4.290   8.142   6.054
 1491SOL    HW216505   4.157   8.047   6.068
 1492SOL     OW16506   6.309   7.070   5.803
 1492SOL    HW116507   6.349   6.997   5.748
 1492SOL    HW216508   6.364   7.083   5.886
 1493SOL     OW16509   1.805   2.669   0.991
 1493SOL    HW116510   1.853   2.647   1.076
 1493SOL    HW216511   1.731   2.733   1.011
 1494SOL     OW16512   6.054   6.308   1.409
 1494SOL    HW116513   6.074   6.393   1.458
 1494SOL    HW216514   5.997   6.328   1.329
 1495SOL     OW16515   5.885   7.844   0.410
 1495SOL    HW116516   5.953   7.770   0.407
 1495SOL    HW216517   5.928   7.926   0.448
 1496SOL     OW16518   6.196  -0.018   5.716
 1496SOL    HW116519   6.213   0.054   5.649
 1496SOL    HW216520   6.196  -0.107   5.670
 1497SOL     OW16521   4.308   5.188   1.311
 1497SOL    HW116522   4.295   5.116   1.242
 1497SOL    HW216523   4.228   5.191   1.371
 1498SOL     OW16524   6.897   1.696   5.644
 1498SOL    HW116525   6.952   1.772   5.609
 1498SOL    HW216526   6.944   1.610   5.626
 1499SOL     OW16527   9.437   6.354   4.873
 1499SOL    HW116528   9.346   6.380   4.840
 1499SOL    HW216529   9.495   6.329   4.795
 1500SOL     OW16530   7.975   7.934   0.467
 1500SOL    HW116531   7.919   7.854   0.447
 1500SOL    HW216532   8.060   7.929   0.414
 1501SOL     OW16533   4.543   3.845   1.642
 1501SOL    HW116534   4.546   3.835   1.542
 1501SOL    HW216535   4.474   3.783   1.680
 1502SOL     OW16536   3.539   2.993   5.896
 1502SOL    HW116537   3.592   3.047   5.829
 1502SOL    HW216538   3.444   2.986   5.865
 1503SOL     OW16539   0.987   4.785   1.126
 1503SOL    HW116540   0.918   4.716   1.104
 1503SOL    HW216541   1.006   4.782   1.224
 1504SOL     OW16542   6.807   7.093   6.637
 1504SOL    HW116543   6.830   7.019   6.574
 1504SOL    HW216544   6.885   7.154   6.646
 1505SOL     OW16545   3.346   7.310   6.520
 1505SOL    HW116546   3.265   7.277   6.472
 1505SOL    HW216547   3.419   7.329   6.455
 1506SOL     OW16548   5.167   5.920   0.329
 1506SOL    HW116549   5.146   5.850   0.260
 1506SOL    HW216550   5.242   5.978   0.296
 1507SOL     OW16551   0.518   1.246   0.588
 1507SOL    HW116552   0.548   1.157   0.551
 1507SOL    HW216553   0.558   1.320   0.533
 1508SOL     OW16554   7.675   0.964   6.527
 1508SOL    HW116555   7.602   1.018   6.570
 1508SOL    HW216556   7.647   0.938   6.435
 1509SOL     OW16557   9.142   5.690   0.496
 1509SOL    HW116558   9.164   5.669   0.591
 1509SOL    HW216559   9.133   5.605   0.444
 1510SOL     OW16560   7.341   0.802   0.311
 1510SOL    HW116561   7.372   0.832   0.401
 1510SOL    HW216562   7.387   0.717   0.287
 1511SOL     OW16563   3.083  -0.057   1.138
 1511SOL    HW116564   3.125  -0.142   1.170
 1511SOL    HW216565   3.005  -0.034   1.197
 1512SOL     OW16566   3.959   5.876   1.377
 1512SOL    HW116567   3.998   5.784   1.382
 1512SOL    HW216568   3.860   5.869   1.364
 1513SOL     OW16569   0.356   2.004   1.338
 1513SOL    HW116570   0.427   2.071   1.318
 1513SOL    HW216571   0.392   1.934   1.399
 1514SOL     OW16572   6.947   6.009   5.825
 1514SOL    HW116573   6.892   6.088   5.852
 1514SOL    HW216574   6.993   6.027   5.738
 1515SOL     OW16575   4.317   1.076   1.562
 1515SOL    HW116576   4.400   1.079   1.617
 1515SOL    HW216577   4.328   1.133   1.481
 1516SOL     OW16578   8.195   3.768   6.094
 1516SOL    HW116579   8.105   3.811   6.094
 1516SOL    HW216580   8.266   3.838   6.083
 1517SOL     OW16581   7.078   2.301   6.308
 1517SOL    HW116582   7.042   2.217   6.348
 1517SOL    HW216583   7.028   2.322   6.224
 1518SOL     OW16584   4.583   1.077   0.338
 1518SOL    HW116585   4.486   1.083   0.319
 1518SOL    HW216586   4.609   1.149   0.404
 1519SOL     OW16587   1.327   4.946   5.583
 1519SOL    HW116588   1.366   4.871   5.637
 1519SOL    HW216589   1.374   4.951   5.494
 1520SOL     OW16590   5.277   0.084   0.487
 1520SOL    HW116591   5.260   0.026   0.408
 1520SOL    HW216592   5.227   0.049   0.566
 1521SOL     OW16593   6.535   1.779   1.020
 1521SOL    HW116594   6.458   1.841   1.035
 1521SOL    HW216595   6.620   1.832   1.028
 1522SOL     OW16596   6.717   6.922   0.435
 1522SOL    HW116597   6.746   6.944   0.528
 1522SOL    HW216598   6.790   6.942   0.371
 1523SOL     OW16599   7.770   5.189   6.737
 1523SOL    HW116600   7.807   5.104   6.776
 1523SOL    HW216601   7.808   5.267   6.786
 1524SOL     OW16602   8.752   7.514   5.421
 1524SOL    HW116603   8.784   7.515   5.515
 1524SOL    HW216604   8.750   7.420   5.387
 1525SOL     OW16605   3.773   2.431   1.821
 1525SOL    HW116606   3.861   2.425   1.870
 1525SOL    HW216607   3.701   2.390   1.877
 1526SOL     OW16608   8.723   6.072   0.368
 1526SOL    HW116609   8.646   6.066   0.432
 1526SOL    HW216610   8.805   6.099   0.417
 1527SOL     OW16611   9.098   8.006   0.706
 1527SOL    HW116612   9.091   7.925   0.763
 1527SOL    HW216613   9.173   7.996   0.641
 1528SOL     OW16614   4.276   2.295   6.841
 1528SOL    HW116615   4.281   2.340   6.930
 1528SOL    HW216616   4.281   2.364   6.769
 1529SOL     OW16617   2.680   3.435   0.777
 1529SOL    HW116618   2.748   3.435   0.851
 1529SOL    HW216619   2.666   3.528   0.744
 1530SOL     OW16620   4.080   6.312   6.224
 1530SOL    HW116621   4.082   6.214   6.207
 1530SOL    HW216622   4.002   6.353   6.176
 1531SOL     OW16623   3.336   0.203   6.486
 1531SOL    HW116624   3.411   0.182   6.423
 1531SOL    HW216625   3.368   0.192   6.580
 1532SOL     OW16626   7.909   5.830   0.210
 1532SOL    HW116627   7.826   5.775   0.198
 1532SOL    HW216628   7.883   5.921   0.243
 1533SOL     OW16629   5.904   7.460   0.937
 1533SOL    HW116630   5.836   7.532   0.955
 1533SOL    HW216631   5.987   7.502   0.901
 1534SOL     OW16632   9.382   2.619   6.578
 1534SOL    HW116633   9.415   2.679   6.506
 1534SOL    HW216634   9.306   2.662   6.626
 1535SOL     OW16635   0.902   1.111   5.475
 1535SOL    HW116636   0.856   1.170   5.540
 1535SOL    HW216637   0.871   1.132   5.382
 1536SOL     OW16638   1.106   7.688   1.560
 1536SOL    HW116639   1.063   7.633   1.633
 1536SOL    HW216640   1.107   7.784   1.588
 1537SOL     OW16641   4.363   0.003   0.233
 1537SOL    HW116642   4.365   0.067   0.156
 1537SOL    HW216643   4.425  -0.074   0.214
 1538SOL     OW16644   2.632   5.170   1.053
 1538SOL    HW116645   2.550   5.225   1.074
 1538SOL    HW216646   2.619   5.124   0.966
 1539SOL     OW16647   8.635   5.770   6.254
 1539SOL    HW116648   8.687   5.754   6.338
 1539SOL    HW216649   8.541   5.797   6.277
 1540SOL     OW16650   7.134   7.516   1.703
 1540SOL    HW116651   7.162   7.474   1.789
 1540SOL    HW216652   7.055   7.575   1.718
 1541SOL     OW16653   3.494   6.990   1.257
 1541SOL    HW116654   3.473   7.053   1.182
 1541SOL    HW216655   3.593   6.979   1.265
 1542SOL     OW16656   1.708   0.135   1.505
 1542SOL    HW116657   1.734   0.039   1.511
 1542SOL    HW216658   1.739   0.184   1.586
 1543SOL     OW16659   6.473   0.207   0.814
 1543SOL    HW116660   6.440   0.283   0.758
 1543SOL    HW216661   6.571   0.220   0.831
 1544SOL     OW16662   2.316   0.160   6.351
 1544SOL    HW116663   2.270   0.194   6.270
 1544SOL    HW216664   2.322   0.234   6.419
 1545SOL     OW16665   4.057   1.279   6.900
 1545SOL    HW116666   4.091   1.355   6.954
 1545SOL    HW216667   4.018   1.209   6.960
 1546SOL     OW16668   8.473   2.193   6.070
 1546SOL    HW116669   8.387   2.146   6.092
 1546SOL    HW216670   8.455   2.291   6.061
 1547SOL     OW16671   7.333   1.837   6.805
 1547SOL    HW116672   7.358   1.875   6.716
 1547SOL    HW216673   7.285   1.750   6.791
 1548SOL     OW16674   5.425   4.614   0.443
 1548SOL    HW116675   5.453   4.604   0.348
 1548SOL    HW216676   5.490   4.565   0.502
 1549SOL     OW16677   7.586   1.055   5.962
 1549SOL    HW116678   7.558   1.128   5.899
 1549SOL    HW216679   7.534   1.063   6.047
 1550SOL     OW16680   8.275   4.443   0.382
 1550SOL    HW116681   8.240   4.511   0.319
 1550SOL    HW216682   8.325   4.372   0.332
 1551SOL     OW16683   7.596   7.176   0.634
 1551SOL    HW116684   7.661   7.181   0.558
 1551SOL    HW216685   7.620   7.100   0.694
 1552SOL     OW16686   0.350   1.416   0.766
 1552SOL    HW116687   0.364   1.508   0.730
 1552SOL    HW216688   0.412   1.352   0.720
 1553SOL     OW16689   1.940   3.417   0.540
 1553SOL    HW116690   1.926   3.339   0.479
 1553SOL    HW216691   2.036   3.446   0.535
 1554SOL     OW16692   2.947   5.427   1.277
 1554SOL    HW116693   3.046   5.430   1.285
 1554SOL    HW216694   2.908   5.507   1.322
 1555SOL     OW16695   6.305   3.333   1.107
 1555SOL    HW116696   6.352   3.414   1.139
 1555SOL    HW216697   6.206   3.349   1.107
 1556SOL     OW16698   4.025   1.382   1.190
 1556SOL    HW116699   4.059   1.390   1.284
 1556SOL    HW216700   3.926   1.369   1.192
 1557SOL     OW16701   8.083   2.881   6.796
 1557SOL    HW116702   8.118   2.960   6.846
 1557SOL    HW216703   8.082   2.901   6.698
 1558SOL     OW16704   5.650   7.642   0.735
 1558SOL    HW116705   5.592   7.686   0.804
 1558SOL    HW216706   5.633   7.544   0.736
 1559SOL     OW16707   8.321   2.506   0.783
 1559SOL    HW116708   8.393   2.570   0.811
 1559SOL    HW216709   8.335   2.481   0.687
 1560SOL     OW16710   5.834   6.039   5.149
 1560SOL    HW116711   5.779   6.116   5.119
 1560SOL    HW216712   5.889   6.005   5.072
 1561SOL     OW16713   7.185   7.728   1.172
 1561SOL    HW116714   7.195   7.777   1.259
 1561SOL    HW216715   7.110   7.662   1.180
 1562SOL     OW16716   4.887   7.735   1.011
 1562SOL    HW116717   4.887   7.819   0.957
 1562SOL    HW216718   4.798   7.690   1.003
 1563SOL     OW16719   5.666   7.920   1.080
 1563SOL    HW116720   5.721   8.000   1.055
 1563SOL    HW216721   5.647   7.921   1.178
 1564SOL     OW16722   7.593   6.152   0.627
 1564SOL    HW116723   7.562   6.075   0.681
 1564SOL    HW216724   7.592   6.127   0.530
 1565SOL     OW16725   6.774   6.153   6.594
 1565SOL    HW116726   6.739   6.069   6.552
 1565SOL    HW216727   6.717   6.231   6.566
 1566SOL     OW16728   7.351   1.090   0.732
 1566SOL    HW116729   7.298   1.175   0.733
 1566SOL    HW216730   7.449   1.113   0.730
 1567SOL     OW16731   1.122   7.282   6.021
 1567SOL    HW116732   1.156   7.221   6.092
 1567SOL    HW216733   1.185   7.360   6.011
 1568SOL     OW16734   0.816   7.636   0.963
 1568SOL    HW116735   0.899   7.644   1.018
 1568SOL    HW216736   0.778   7.544   0.973
 1569SOL     OW16737   4.250   6.192   1.268
 1569SOL    HW116738   4.239   6.171   1.366
 1569SOL    HW216739   4.184   6.139   1.215
 1570SOL     OW16740   8.021   2.069   6.920
 1570SOL    HW116741   8.085   2.146   6.919
 1570SOL    HW216742   8.066   1.989   6.879
 1571SOL     OW16743   3.245   6.034   6.249
 1571SOL    HW116744   3.206   6.054   6.159
 1571SOL    HW216745   3.197   6.086   6.319
 1572SOL     OW16746   9.328   1.520   5.536
 1572SOL    HW116747   9.333   1.421   5.547
 1572SOL    HW216748   9.264   1.542   5.462
 1573SOL     OW16749   0.256   7.064   5.319
 1573SOL    HW116750   0.249   6.989   5.385
 1573SOL    HW216751   0.294   7.029   5.234
 1574SOL     OW16752   1.206   0.324   6.299
 1574SOL    HW116753   1.148   0.315   6.379
 1574SOL    HW216754   1.203   0.240   6.244
 1575SOL     OW16755   4.711   0.434   1.921
 1575SOL    HW116756   4.811   0.441   1.911
 1575SOL    HW216757   4.688   0.437   2.018
 1576SOL     OW16758   3.365   8.395   5.942
 1576SOL    HW116759   3.452   8.400   5.990
 1576SOL    HW216760   3.332   8.300   5.943
 1577SOL     OW16761   1.930   0.544   5.484
 1577SOL    HW116762   1.868   0.502   5.551
 1577SOL    HW216763   2.003   0.592   5.531
 1578SOL     OW16764   1.014   0.419   4.914
 1578SOL    HW116765   0.924   0.405   4.874
 1578SOL    HW216766   1.083   0.424   4.841
 1579SOL     OW16767   0.715   0.837   6.723
 1579SOL    HW116768   0.738   0.813   6.629
 1579SOL    HW216769   0.799   0.857   6.774
 1580SOL     OW16770   8.198   1.124   5.851
 1580SOL    HW116771   8.121   1.067   5.821
 1580SOL    HW216772   8.251   1.153   5.771
 1581SOL     OW16773   5.773   2.940   0.540
 1581SOL    HW116774   5.749   2.859   0.593
 1581SOL    HW216775   5.869   2.934   0.511
 1582SOL     OW16776   5.568   0.374   5.326
 1582SOL    HW116777   5.604   0.401   5.237
 1582SOL    HW216778   5.618   0.423   5.398
 1583SOL     OW16779   3.877   5.401   6.092
 1583SOL    HW116780   3.914   5.359   6.175
 1583SOL    HW216781   3.947   5.455   6.047
 1584SOL     OW16782   2.300   1.812   1.193
 1584SOL    HW116783   2.215   1.802   1.140
 1584SOL    HW216784   2.344   1.898   1.168
 1585SOL     OW16785   7.336   2.729   0.223
 1585SOL    HW116786   7.417   2.781   0.251
 1585SOL    HW216787   7.358   2.632   0.218
 1586SOL     OW16788   5.096   2.202   1.205
 1586SOL    HW116789   4.998   2.202   1.225
 1586SOL    HW216790   5.134   2.112   1.226
 1587SOL     OW16791   9.416   4.319   6.684
 1587SOL    HW116792   9.487   4.328   6.614
 1587SOL    HW216793   9.436   4.239   6.741
 1588SOL     OW16794   6.117   1.967   1.630
 1588SOL    HW116795   6.214   1.951   1.645
 1588SOL    HW216796   6.101   2.064   1.613
 1589SOL     OW16797   7.347   1.197   6.161
 1589SOL    HW116798   7.326   1.256   6.239
 1589SOL    HW216799   7.282   1.216   6.087
 1590SOL     OW16800   1.590   1.413   6.675
 1590SOL    HW116801   1.628   1.360   6.751
 1590SOL    HW216802   1.632   1.383   6.590
 1591SOL     OW16803   3.589   1.222   6.538
 1591SOL    HW116804   3.578   1.320   6.521
 1591SOL    HW216805   3.528   1.171   6.477
 1592SOL     OW16806   7.044   1.522   5.937
 1592SOL    HW116807   6.966   1.518   5.999
 1592SOL    HW216808   7.012   1.534   5.843
 1593SOL     OW16809   6.636   3.421   1.829
 1593SOL    HW116810   6.673   3.477   1.902
 1593SOL    HW216811   6.633   3.325   1.858
 1594SOL     OW16812   1.082   4.279   0.908
 1594SOL    HW116813   1.052   4.365   0.948
 1594SOL    HW216814   1.145   4.233   0.971
 1595SOL     OW16815   6.189   6.351   0.552
 1595SOL    HW116816   6.227   6.440   0.575
 1595SOL    HW216817   6.255   6.279   0.574
 1596SOL     OW16818   1.815   0.238   5.810
 1596SOL    HW116819   1.796   0.205   5.718
 1596SOL    HW216820   1.912   0.228   5.830
 1597SOL     OW16821   9.458   0.360   6.668
 1597SOL    HW116822   9.432   0.454   6.692
 1597SOL    HW216823   9.506   0.319   6.746
 1598SOL     OW16824   4.645   3.287   0.926
 1598SOL    HW116825   4.629   3.374   0.880
 1598SOL    HW216826   4.560   3.234   0.926
 1599SOL     OW16827   8.490   4.208   6.367
 1599SOL    HW116828   8.517   4.113   6.382
 1599SOL    HW216829   8.564   4.257   6.320
 1600SOL     OW16830   8.989   2.327   1.789
 1600SOL    HW116831   8.906   2.286   1.752
 1600SOL    HW216832   9.069   2.292   1.739
 1601SOL     OW16833   0.215   6.773   5.999
 1601SOL    HW116834   0.132   6.763   6.054
 1601SOL    HW216835   0.242   6.869   5.995
 1602SOL     OW16836   7.767   2.697   6.041
 1602SOL    HW116837   7.746   2.600   6.049
 1602SOL    HW216838   7.837   2.710   5.971
 1603SOL     OW16839   4.051   5.139   1.423
 1603SOL    HW116840   4.017   5.231   1.437
 1603SOL    HW216841   3.974   5.075   1.418
 1604SOL     OW16842   4.184   5.099   6.901
 1604SOL    HW116843   4.207   5.103   6.804
 1604SOL    HW216844   4.260   5.057   6.952
 1605SOL     OW16845   7.184   7.300   6.054
 1605SOL    HW116846   7.276   7.332   6.033
 1605SOL    HW216847   7.139   7.364   6.116
 1606SOL     OW16848   7.190   2.034   0.888
 1606SOL    HW116849   7.123   1.963   0.865
 1606SOL    HW216850   7.262   2.035   0.819
 1607SOL     OW16851   7.741   8.075   6.475
 1607SOL    HW116852   7.702   8.061   6.566
 1607SOL    HW216853   7.725   7.993   6.419
 1608SOL     OW16854   0.932   2.356   0.703
 1608SOL    HW116855   0.877   2.392   0.778
 1608SOL    HW216856   1.029   2.369   0.723
 1609SOL     OW16857   3.535   5.172   5.165
 1609SOL    HW116858   3.455   5.154   5.108
 1609SOL    HW216859   3.596   5.236   5.117
 1610SOL     OW16860   0.285   5.444   5.570
 1610SOL    HW116861   0.335   5.387   5.505
 1610SOL    HW216862   0.327   5.437   5.661
 1611SOL     OW16863   6.855   3.082   0.600
 1611SOL    HW116864   6.871   3.079   0.699
 1611SOL    HW216865   6.868   3.175   0.567
 1612SOL     OW16866   5.741   5.737   6.813
 1612SOL    HW116867   5.772   5.736   6.908
 1612SOL    HW216868   5.676   5.662   6.798
 1613SOL     OW16869   6.578   4.478   6.880
 1613SOL    HW116870   6.508   4.486   6.810
 1613SOL    HW216871   6.561   4.544   6.953
 1614SOL     OW16872   3.274   5.239   6.837
 1614SOL    HW116873   3.249   5.190   6.920
 1614SOL    HW216874   3.281   5.175   6.761
 1615SOL     OW16875   4.075   4.076   5.648
 1615SOL    HW116876   4.148   4.046   5.710
 1615SOL    HW216877   4.080   4.022   5.563
 1616SOL     OW16878   6.101   0.202   6.903
 1616SOL    HW116879   6.081   0.105   6.918
 1616SOL    HW216880   6.018   0.248   6.871
 1617SOL     OW16881   6.911   8.371   0.746
 1617SOL    HW116882   6.906   8.272   0.765
 1617SOL    HW216883   6.821   8.403   0.716
 1618SOL     OW16884   3.244   1.046   2.521
 1618SOL    HW116885   3.202   1.041   2.430
 1618SOL    HW216886   3.310   1.121   2.523
 1619SOL     OW16887   6.392   4.015   0.944
 1619SOL    HW116888   6.380   4.113   0.927
 1619SOL    HW216889   6.303   3.970   0.948
 1620SOL     OW16890   2.214   2.379   6.667
 1620SOL    HW116891   2.280   2.454   6.670
 1620SOL    HW216892   2.209   2.342   6.575
 1621SOL     OW16893   2.681   4.584   0.909
 1621SOL    HW116894   2.701   4.667   0.856
 1621SOL    HW216895   2.766   4.535   0.926
 1622SOL     OW16896   5.042   4.328   0.226
 1622SOL    HW116897   5.098   4.266   0.172
 1622SOL    HW216898   5.100   4.392   0.275
 1623SOL     OW16899   9.167   4.385   5.758
 1623SOL    HW116900   9.209   4.434   5.681
 1623SOL    HW216901   9.068   4.379   5.743
 1624SOL     OW16902   0.776   0.813   0.447
 1624SOL    HW116903   0.728   0.725   0.449
 1624SOL    HW216904   0.844   0.815   0.520
 1625SOL     OW16905   4.280   0.675   6.207
 1625SOL    HW116906   4.237   0.683   6.297
 1625SOL    HW216907   4.211   0.682   6.135
 1626SOL     OW16908   0.678   1.731   1.227
 1626SOL    HW116909   0.672   1.785   1.311
 1626SOL    HW216910   0.662   1.634   1.249
 1627SOL     OW16911   3.852   4.954   1.359
 1627SOL    HW116912   3.838   4.913   1.269
 1627SOL    HW216913   3.781   4.923   1.422
 1628SOL     OW16914   1.182   0.622   4.644
 1628SOL    HW116915   1.096   0.673   4.648
 1628SOL    HW216916   1.259   0.687   4.641
 1629SOL     OW16917   1.890   6.934   1.339
 1629SOL    HW116918   1.910   7.023   1.299
 1629SOL    HW216919   1.861   6.946   1.434
 1630SOL     OW16920   3.152   5.630   6.922
 1630SOL    HW116921   3.090   5.689   6.870
 1630SOL    HW216922   3.203   5.571   6.859
 1631SOL     OW16923   3.949   4.565   1.345
 1631SOL    HW116924   3.863   4.518   1.323
 1631SOL    HW216925   3.936   4.622   1.425
 1632SOL     OW16926   3.601   3.970   1.003
 1632SOL    HW116927   3.664   3.898   1.030
 1632SOL    HW216928   3.507   3.939   1.016
 1633SOL     OW16929   0.565   1.144   1.568
 1633SOL    HW116930   0.603   1.068   1.516
 1633SOL    HW216931   0.487   1.111   1.622
 1634SOL     OW16932   3.516   3.477   6.762
 1634SOL    HW116933   3.425   3.511   6.784
 1634SOL    HW216934   3.583   3.549   6.779
 1635SOL     OW16935   5.579   2.311   0.984
 1635SOL    HW116936   5.576   2.376   0.908
 1635SOL    HW216937   5.486   2.285   1.010
 1636SOL     OW16938   3.780   7.809   6.106
 1636SOL    HW116939   3.698   7.752   6.101
 1636SOL    HW216940   3.765   7.882   6.173
 1637SOL     OW16941   6.605   7.256   6.755
 1637SOL    HW116942   6.526   7.204   6.725
 1637SOL    HW216943   6.689   7.213   6.721
 1638SOL     OW16944   3.353   4.912   5.996
 1638SOL    HW116945   3.427   4.848   5.977
 1638SOL    HW216946   3.275   4.864   6.036
 1639SOL     OW16947   0.443   2.823   5.674
 1639SOL    HW116948   0.450   2.831   5.575
 1639SOL    HW216949   0.497   2.895   5.717
 1640SOL     OW16950   5.342   8.211   6.239
 1640SOL    HW116951   5.358   8.127   6.290
 1640SOL    HW216952   5.422   8.233   6.184
 1641SOL     OW16953   4.156   3.959   0.816
 1641SOL    HW116954   4.202   3.872   0.795
 1641SOL    HW216955   4.094   3.982   0.742
 1642SOL     OW16956   9.566   6.697   5.176
 1642SOL    HW116957   9.556   6.634   5.253
 1642SOL    HW216958   9.611   6.649   5.100
 1643SOL     OW16959   0.829   8.265   6.641
 1643SOL    HW116960   0.780   8.179   6.623
 1643SOL    HW216961   0.879   8.256   6.727
 1644SOL     OW16962   2.040   0.170   0.515
 1644SOL    HW116963   2.023   0.258   0.470
 1644SOL    HW216964   2.117   0.124   0.471
 1645SOL     OW16965   5.670   2.815   1.241
 1645SOL    HW116966   5.642   2.823   1.336
 1645SOL    HW216967   5.738   2.885   1.220
 1646SOL     OW16968   4.761   6.406   0.345
 1646SOL    HW116969   4.778   6.363   0.434
 1646SOL    HW216970   4.820   6.487   0.336
 1647SOL     OW16971   5.851   0.764   1.659
 1647SOL    HW116972   5.943   0.801   1.647
 1647SOL    HW216973   5.854   0.664   1.660
 1648SOL     OW16974   8.937   3.217   6.261
 1648SOL    HW116975   8.879   3.142   6.230
 1648SOL    HW216976   8.887   3.275   6.326
 1649SOL     OW16977   2.272   3.110   6.726
 1649SOL    HW116978   2.274   3.010   6.716
 1649SOL    HW216979   2.349   3.150   6.678
 1650SOL     OW16980   4.228   0.004   6.524
 1650SOL    HW116981   4.137   0.006   6.565
 1650SOL    HW216982   4.236  -0.076   6.465
 1651SOL     OW16983   7.401   3.718   0.608
 1651SOL    HW116984   7.483   3.771   0.585
 1651SOL    HW216985   7.334   3.778   0.653
 1652SOL     OW16986   4.347   6.745   1.477
 1652SOL    HW116987   4.429   6.736   1.420
 1652SOL    HW216988   4.290   6.818   1.441
 1653SOL     OW16989   1.953   2.574   6.624
 1653SOL    HW116990   2.015   2.527   6.686
 1653SOL    HW216991   1.897   2.640   6.675
 1654SOL     OW16992   0.606   7.662   6.239
 1654SOL    HW116993   0.675   7.725   6.276
 1654SOL    HW216994   0.590   7.682   6.143
 1655SOL     OW16995   3.234   7.940   6.462
 1655SOL    HW116996   3.274   7.853   6.490
 1655SOL    HW216997   3.152   7.923   6.408
 1656SOL     OW16998   6.269   8.285   5.530
 1656SOL    HW116999   6.366   8.308   5.545
 1656SOL    HW217000   6.254   8.270   5.432
 1657SOL     OW17001   2.596   2.599   0.616
 1657SOL    HW117002   2.646   2.684   0.599
 1657SOL    HW217003   2.660   2.527   0.641
 1658SOL     OW17004   1.575   5.034   6.075
 1658SOL    HW117005   1.490   5.023   6.023
 1658SOL    HW217006   1.653   5.006   6.019
 1659SOL     OW17007   6.727   2.052   1.010
 1659SOL    HW117008   6.782   2.134   0.998
 1659SOL    HW217009   6.670   2.037   0.929
 1660SOL     OW17010   2.725   1.822   5.940
 1660SOL    HW117011   2.794   1.760   5.976
 1660SOL    HW217012   2.722   1.814   5.841
 1661SOL     OW17013   9.455   7.921   6.807
 1661SOL    HW117014   9.460   7.955   6.901
 1661SOL    HW217015   9.455   7.999   6.744
 1662SOL     OW17016   0.341   0.695   6.198
 1662SOL    HW117017   0.292   0.723   6.280
 1662SOL    HW217018   0.425   0.749   6.189
 1663SOL     OW17019   1.615   2.958   6.179
 1663SOL    HW117020   1.651   3.040   6.135
 1663SOL    HW217021   1.685   2.886   6.176
 1664SOL     OW17022   0.482   5.974   6.290
 1664SOL    HW117023   0.417   5.900   6.275
 1664SOL    HW217024   0.561   5.939   6.341
 1665SOL     OW17025   3.406   5.374   6.159
 1665SOL    HW117026   3.482   5.435   6.140
 1665SOL    HW217027   3.407   5.297   6.095
 1666SOL     OW17028   5.626   4.815   1.850
 1666SOL    HW117029   5.643   4.827   1.948
 1666SOL    HW217030   5.529   4.830   1.830
 1667SOL     OW17031   5.806   8.426   0.725
 1667SOL    HW117032   5.718   8.459   0.690
 1667SOL    HW217033   5.863   8.398   0.648
 1668SOL     OW17034   0.798   6.766   6.378
 1668SOL    HW117035   0.813   6.747   6.281
 1668SOL    HW217036   0.701   6.777   6.396
 1669SOL     OW17037   6.516   5.058   4.921
 1669SOL    HW117038   6.608   5.020   4.924
 1669SOL    HW217039   6.449   4.984   4.917
 1670SOL     OW17040   4.076   1.459   2.179
 1670SOL    HW117041   4.061   1.375   2.127
 1670SOL    HW217042   4.066   1.440   2.276
 1671SOL     OW17043   5.680   8.117   0.747
 1671SOL    HW117044   5.583   8.100   0.765
 1671SOL    HW217045   5.713   8.188   0.810
 1672SOL     OW17046   4.328   6.929   5.210
 1672SOL    HW117047   4.333   7.025   5.183
 1672SOL    HW217048   4.236   6.894   5.192
 1673SOL     OW17049   0.964   7.760   5.852
 1673SOL    HW117050   0.962   7.757   5.952
 1673SOL    HW217051   0.871   7.759   5.816
 1674SOL     OW17052   0.592   3.240   6.843
 1674SOL    HW117053   0.536   3.323   6.852
 1674SOL    HW217054   0.582   3.185   6.926
 1675SOL     OW17055   8.106   7.434   6.368
 1675SOL    HW117056   8.076   7.467   6.278
 1675SOL    HW217057   8.052   7.354   6.393
 1676SOL     OW17058   4.974   2.684   1.041
 1676SOL    HW117059   5.000   2.731   0.957
 1676SOL    HW217060   4.880   2.649   1.032
 1677SOL     OW17061   3.723   6.989   0.233
 1677SOL    HW117062   3.700   6.986   0.330
 1677SOL    HW217063   3.817   7.020   0.221
 1678SOL     OW17064   9.594   4.016   1.080
 1678SOL    HW117065   9.580   4.029   1.178
 1678SOL    HW217066   9.505   4.002   1.036
 1679SOL     OW17067   5.979   1.041   6.483
 1679SOL    HW117068   6.018   1.008   6.569
 1679SOL    HW217069   5.952   1.137   6.493
 1680SOL     OW17070   3.481   0.762   0.252
 1680SOL    HW117071   3.528   0.677   0.272
 1680SOL    HW217072   3.513   0.798   0.164
 1681SOL     OW17073   4.763   8.355   0.809
 1681SOL    HW117074   4.801   8.313   0.892
 1681SOL    HW217075   4.812   8.320   0.729
 1682SOL     OW17076   7.229   8.050   5.422
 1682SOL    HW117077   7.314   8.096   5.396
 1682SOL    HW217078   7.167   8.115   5.464
 1683SOL     OW17079   5.912   0.150   0.458
 1683SOL    HW117080   5.820   0.164   0.495
 1683SOL    HW217081   5.968   0.230   0.480
 1684SOL     OW17082   2.461   3.743   1.192
 1684SOL    HW117083   2.488   3.813   1.257
 1684SOL    HW217084   2.411   3.785   1.116
 1685SOL     OW17085   7.560   6.088   0.361
 1685SOL    HW117086   7.635   6.023   0.365
 1685SOL    HW217087   7.571   6.147   0.281
 1686SOL     OW17088   6.613   1.050   2.172
 1686SOL    HW117089   6.613   0.982   2.246
 1686SOL    HW217090   6.627   1.004   2.084
 1687SOL     OW17091   7.815   6.319   0.457
 1687SOL    HW117092   7.768   6.352   0.539
 1687SOL    HW217093   7.859   6.396   0.410
 1688SOL     OW17094   6.104   0.142   5.047
 1688SOL    HW117095   6.147   0.123   5.135
 1688SOL    HW217096   6.152   0.218   5.003
 1689SOL     OW17097   1.108   7.501   5.819
 1689SOL    HW117098   1.035   7.562   5.852
 1689SOL    HW217099   1.123   7.517   5.722
 1690SOL     OW17100   9.108   4.994   0.357
 1690SOL    HW117101   9.098   5.087   0.322
 1690SOL    HW217102   9.029   4.971   0.414
 1691SOL     OW17103   9.195   4.527   6.642
 1691SOL    HW117104   9.263   4.458   6.665
 1691SOL    HW217105   9.228   4.617   6.670
 1692SOL     OW17106   9.295   4.748   6.778
 1692SOL    HW117107   9.226   4.814   6.752
 1692SOL    HW217108   9.378   4.795   6.807
 1693SOL     OW17109   5.412   2.655   0.664
 1693SOL    HW117110   5.355   2.664   0.583
 1693SOL    HW217111   5.431   2.746   0.702
 1694SOL     OW17112   6.049   1.346   2.215
 1694SOL    HW117113   6.087   1.277   2.153
 1694SOL    HW217114   6.088   1.435   2.191
 1695SOL     OW17115   0.228   6.977   1.488
 1695SOL    HW117116   0.177   6.908   1.540
 1695SOL    HW217117   0.211   6.964   1.391
 1696SOL     OW17118   5.468   2.998   0.444
 1696SOL    HW117119   5.503   3.092   0.442
 1696SOL    HW217120   5.545   2.935   0.447
 1697SOL     OW17121   9.199   4.402   6.344
 1697SOL    HW117122   9.225   4.352   6.262
 1697SOL    HW217123   9.251   4.487   6.349
 1698SOL     OW17124   3.954   6.302   2.502
 1698SOL    HW117125   3.938   6.400   2.514
 1698SOL    HW217126   3.874   6.251   2.533
 1699SOL     OW17127   8.628   2.825   6.676
 1699SOL    HW117128   8.589   2.846   6.765
 1699SOL    HW217129   8.619   2.728   6.657
 1700SOL     OW17130   5.827   2.831   6.118
 1700SOL    HW117131   5.846   2.768   6.193
 1700SOL    HW217132   5.777   2.910   6.154
 1701SOL     OW17133   0.358   0.085   5.984
 1701SOL    HW117134   0.422   0.069   6.060
 1701SOL    HW217135   0.398   0.151   5.921
 1702SOL     OW17136   6.169   2.662   6.257
 1702SOL    HW117137   6.143   2.602   6.181
 1702SOL    HW217138   6.232   2.613   6.318
 1703SOL     OW17139   4.943   5.249   0.977
 1703SOL    HW117140   4.925   5.188   0.900
 1703SOL    HW217141   4.938   5.344   0.945
 1704SOL     OW17142   0.498   5.749   5.574
 1704SOL    HW117143   0.525   5.674   5.514
 1704SOL    HW217144   0.549   5.832   5.550
 1705SOL     OW17145   6.274   1.047   0.752
 1705SOL    HW117146   6.216   1.018   0.676
 1705SOL    HW217147   6.296   1.145   0.742
 1706SOL     OW17148   1.137   5.598   6.437
 1706SOL    HW117149   1.205   5.633   6.502
 1706SOL    HW217150   1.160   5.629   6.345
 1707SOL     OW17151   7.668   1.242   1.052
 1707SOL    HW117152   7.608   1.252   1.132
 1707SOL    HW217153   7.755   1.202   1.080
 1708SOL     OW17154   6.639   4.853   6.629
 1708SOL    HW117155   6.618   4.946   6.599
 1708SOL    HW217156   6.594   4.835   6.716
 1709SOL     OW17157   5.433   1.439   0.481
 1709SOL    HW117158   5.437   1.502   0.404
 1709SOL    HW217159   5.491   1.360   0.463
 1710SOL     OW17160   3.825   7.121   6.355
 1710SOL    HW117161   3.747   7.071   6.319
 1710SOL    HW217162   3.794   7.187   6.424
 1711SOL     OW17163   8.135   6.556   6.594
 1711SOL    HW117164   8.186   6.514   6.519
 1711SOL    HW217165   8.054   6.602   6.557
 1712SOL     OW17166   3.760   7.808   1.131
 1712SOL    HW117167   3.699   7.865   1.185
 1712SOL    HW217168   3.847   7.797   1.179
 1713SOL     OW17169   0.548   3.749   6.311
 1713SOL    HW117170   0.576   3.719   6.220
 1713SOL    HW217171   0.600   3.699   6.380
 1714SOL     OW17172   1.072   6.514   5.806
 1714SOL    HW117173   1.035   6.606   5.821
 1714SOL    HW217174   1.165   6.521   5.769
 1715SOL     OW17175   3.102   6.081   1.290
 1715SOL    HW117176   3.044   6.106   1.368
 1715SOL    HW217177   3.063   6.117   1.206
 1716SOL     OW17178   0.765   2.779   6.619
 1716SOL    HW117179   0.693   2.784   6.689
 1716SOL    HW217180   0.807   2.689   6.621
 1717SOL     OW17181   3.108   7.469   0.246
 1717SOL    HW117182   3.062   7.455   0.333
 1717SOL    HW217183   3.168   7.549   0.251
 1718SOL     OW17184   5.543   1.808   6.699
 1718SOL    HW117185   5.637   1.814   6.665
 1718SOL    HW217186   5.484   1.771   6.627
 1719SOL     OW17187   0.558   5.862   0.416
 1719SOL    HW117188   0.559   5.767   0.383
 1719SOL    HW217189   0.576   5.863   0.514
 1720SOL     OW17190   3.890   1.588   1.548
 1720SOL    HW117191   3.972   1.620   1.501
 1720SOL    HW217192   3.915   1.523   1.620
 1721SOL     OW17193   9.190   8.357   6.814
 1721SOL    HW117194   9.192   8.351   6.913
 1721SOL    HW217195   9.204   8.452   6.785
 1722SOL     OW17196   0.234   7.849   0.214
 1722SOL    HW117197   0.180   7.900   0.147
 1722SOL    HW217198   0.247   7.755   0.183
 1723SOL     OW17199   0.119   1.887   6.687
 1723SOL    HW117200   0.208   1.841   6.681
 1723SOL    HW217201   0.063   1.843   6.758
 1724SOL     OW17202   4.910   1.178   1.455
 1724SOL    HW117203   4.899   1.080   1.437
 1724SOL    HW217204   4.980   1.191   1.525
 1725SOL     OW17205   2.770   3.187   0.675
 1725SOL    HW117206   2.861   3.204   0.638
 1725SOL    HW217207   2.730   3.273   0.707
 1726SOL     OW17208   2.070   1.465   1.124
 1726SOL    HW117209   2.057   1.374   1.086
 1726SOL    HW217210   2.167   1.483   1.137
 1727SOL     OW17211   6.713   8.265   6.497
 1727SOL    HW117212   6.799   8.228   6.531
 1727SOL    HW217213   6.678   8.205   6.424
 1728SOL     OW17214   3.518   3.537   6.497
 1728SOL    HW117215   3.514   3.519   6.595
 1728SOL    HW217216   3.611   3.524   6.465
 1729SOL     OW17217   8.005   5.024   5.488
 1729SOL    HW117218   7.994   5.087   5.565
 1729SOL    HW217219   7.975   4.932   5.515
 1730SOL     OW17220   0.120   6.733   0.414
 1730SOL    HW117221   0.138   6.821   0.459
 1730SOL    HW217222   0.109   6.747   0.316
 1731SOL     OW17223   4.632   4.601   6.125
 1731SOL    HW117224   4.601   4.647   6.209
 1731SOL    HW217225   4.573   4.523   6.107
 1732SOL     OW17226   3.165   0.881   6.451
 1732SOL    HW117227   3.141   0.922   6.539
 1732SOL    HW217228   3.107   0.801   6.434
 1733SOL     OW17229   3.943   7.422   6.931
 1733SOL    HW117230   4.006   7.482   6.981
 1733SOL    HW217231   3.977   7.328   6.935
 1734SOL     OW17232   0.386   6.080   5.793
 1734SOL    HW117233   0.301   6.041   5.829
 1734SOL    HW217234   0.450   6.095   5.868
 1735SOL     OW17235   2.043   5.411   6.778
 1735SOL    HW117236   1.957   5.408   6.727
 1735SOL    HW217237   2.028   5.456   6.866
 1736SOL     OW17238   1.855   5.003   6.858
 1736SOL    HW117239   1.810   5.074   6.805
 1736SOL    HW217240   1.948   5.033   6.881
 1737SOL     OW17241   7.326  -0.045   5.746
 1737SOL    HW117242   7.298  -0.044   5.650
 1737SOL    HW217243   7.272   0.023   5.797
 1738SOL     OW17244   3.550   1.609   0.231
 1738SOL    HW117245   3.549   1.518   0.188
 1738SOL    HW217246   3.585   1.676   0.165
 1739SOL     OW17247   0.872   5.983   0.856
 1739SOL    HW117248   0.929   6.049   0.806
 1739SOL    HW217249   0.909   5.891   0.842
 1740SOL     OW17250   3.688   5.872   1.324
 1740SOL    HW117251   3.606   5.902   1.275
 1740SOL    HW217252   3.700   5.774   1.311
 1741SOL     OW17253   5.441   2.002   5.966
 1741SOL    HW117254   5.529   2.034   6.001
 1741SOL    HW217255   5.409   2.065   5.895
 1742SOL     OW17256   4.265   7.558   6.517
 1742SOL    HW117257   4.278   7.583   6.612
 1742SOL    HW217258   4.186   7.497   6.509
 1743SOL     OW17259   4.290   5.515   5.434
 1743SOL    HW117260   4.222   5.582   5.405
 1743SOL    HW217261   4.335   5.477   5.353
 1744SOL     OW17262   6.514   1.541   0.877
 1744SOL    HW117263   6.533   1.625   0.928
 1744SOL    HW217264   6.530   1.462   0.936
 1745SOL     OW17265   1.392   2.025   0.805
 1745SOL    HW117266   1.433   1.955   0.863
 1745SOL    HW217267   1.358   1.983   0.721
 1746SOL     OW17268   7.530   6.236   1.328
 1746SOL    HW117269   7.554   6.230   1.425
 1746SOL    HW217270   7.439   6.276   1.318
 1747SOL     OW17271   1.484   7.012   6.547
 1747SOL    HW117272   1.584   7.006   6.541
 1747SOL    HW217273   1.459   7.073   6.622
 1748SOL     OW17274   9.540   8.357   0.303
 1748SOL    HW117275   9.466   8.400   0.251
 1748SOL    HW217276   9.626   8.370   0.254
 1749SOL     OW17277   6.355   5.149   0.487
 1749SOL    HW117278   6.433   5.142   0.426
 1749SOL    HW217279   6.275   5.181   0.436
 1750SOL     OW17280   8.003   7.371   5.455
 1750SOL    HW117281   8.077   7.430   5.423
 1750SOL    HW217282   7.929   7.428   5.491
 1751SOL     OW17283   2.617   2.969   0.695
 1751SOL    HW117284   2.647   2.916   0.616
 1751SOL    HW217285   2.680   3.046   0.709
 1752SOL     OW17286   7.873   0.547   5.060
 1752SOL    HW117287   7.808   0.606   5.012
 1752SOL    HW217288   7.966   0.575   5.039
 1753SOL     OW17289   7.137   0.665   5.821
 1753SOL    HW117290   7.136   0.765   5.810
 1753SOL    HW217291   7.231   0.633   5.825
 1754SOL     OW17292   0.276   2.196   6.125
 1754SOL    HW117293   0.246   2.152   6.210
 1754SOL    HW217294   0.273   2.295   6.136
 1755SOL     OW17295   4.235   5.844   6.478
 1755SOL    HW117296   4.266   5.771   6.417
 1755SOL    HW217297   4.302   5.855   6.552
 1756SOL     OW17298   1.039   1.266   0.890
 1756SOL    HW117299   0.951   1.284   0.845
 1756SOL    HW217300   1.045   1.169   0.914
 1757SOL     OW17301   4.204   7.909   2.377
 1757SOL    HW117302   4.162   7.901   2.467
 1757SOL    HW217303   4.153   7.974   2.321
 1758SOL     OW17304   5.542   6.226   1.752
 1758SOL    HW117305   5.573   6.296   1.817
 1758SOL    HW217306   5.603   6.226   1.672
 1759SOL     OW17307   7.088   8.296   5.365
 1759SOL    HW117308   7.012   8.358   5.348
 1759SOL    HW217309   7.110   8.247   5.280
 1760SOL     OW17310   4.661   0.516   0.750
 1760SOL    HW117311   4.628   0.443   0.810
 1760SOL    HW217312   4.668   0.601   0.803
 1761SOL     OW17313   0.705   7.355   0.978
 1761SOL    HW117314   0.740   7.279   0.924
 1761SOL    HW217315   0.606   7.345   0.989
 1762SOL     OW17316   4.698   4.097   6.114
 1762SOL    HW117317   4.695   4.026   6.184
 1762SOL    HW217318   4.613   4.094   6.060
 1763SOL     OW17319   6.070   5.441   1.184
 1763SOL    HW117320   6.001   5.483   1.124
 1763SOL    HW217321   6.042   5.452   1.279
 1764SOL     OW17322   9.420   7.816   5.186
 1764SOL    HW117323   9.370   7.808   5.100
 1764SOL    HW217324   9.480   7.896   5.182
 1765SOL     OW17325   1.230   6.128   5.742
 1765SOL    HW117326   1.190   6.107   5.831
 1765SOL    HW217327   1.303   6.196   5.753
 1766SOL     OW17328   5.907   8.368   0.461
 1766SOL    HW117329   5.908   8.467   0.445
 1766SOL    HW217330   5.932   8.320   0.377
 1767SOL     OW17331   4.934   4.269   6.323
 1767SOL    HW117332   4.980   4.186   6.356
 1767SOL    HW217333   4.844   4.245   6.288
 1768SOL     OW17334   7.174   7.686   0.437
 1768SOL    HW117335   7.082   7.660   0.407
 1768SOL    HW217336   7.240   7.662   0.366
 1769SOL     OW17337   0.564   8.186   0.635
 1769SOL    HW117338   0.609   8.140   0.558
 1769SOL    HW217339   0.607   8.156   0.720
 1770SOL     OW17340   7.947   4.363   6.498
 1770SOL    HW117341   8.002   4.421   6.439
 1770SOL    HW217342   7.851   4.391   6.492
 1771SOL     OW17343   3.821   6.239   0.949
 1771SOL    HW117344   3.741   6.260   1.005
 1771SOL    HW217345   3.878   6.172   0.996
 1772SOL     OW17346   2.315   4.680   0.508
 1772SOL    HW117347   2.270   4.621   0.575
 1772SOL    HW217348   2.407   4.645   0.489
 1773SOL     OW17349   5.344   8.227   1.064
 1773SOL    HW117350   5.277   8.223   0.990
 1773SOL    HW217351   5.427   8.177   1.038
 1774SOL     OW17352   0.653   6.694   4.666
 1774SOL    HW117353   0.734   6.636   4.679
 1774SOL    HW217354   0.575   6.637   4.642
 1775SOL     OW17355   0.945   6.483   0.603
 1775SOL    HW117356   0.887   6.557   0.568
 1775SOL    HW217357   1.025   6.522   0.648
 1776SOL     OW17358   2.974   4.162   0.219
 1776SOL    HW117359   2.905   4.234   0.224
 1776SOL    HW217360   2.980   4.127   0.125
 1777SOL     OW17361   1.361   2.393   6.095
 1777SOL    HW117362   1.340   2.476   6.146
 1777SOL    HW217363   1.446   2.406   6.043
 1778SOL     OW17364   3.390   3.145   0.464
 1778SOL    HW117365   3.487   3.133   0.440
 1778SOL    HW217366   3.335   3.135   0.381
 1779SOL     OW17367   0.290   8.141   0.586
 1779SOL    HW117368   0.311   8.154   0.489
 1779SOL    HW217369   0.225   8.065   0.597
 1780SOL     OW17370   1.475   6.162   1.540
 1780SOL    HW117371   1.399   6.220   1.509
 1780SOL    HW217372   1.473   6.075   1.490
 1781SOL     OW17373   2.778   4.197   0.824
 1781SOL    HW117374   2.772   4.186   0.923
 1781SOL    HW217375   2.790   4.108   0.781
 1782SOL     OW17376   9.124   2.189   5.533
 1782SOL    HW117377   9.119   2.289   5.529
 1782SOL    HW217378   9.146   2.160   5.626
 1783SOL     OW17379   1.589   5.796   0.639
 1783SOL    HW117380   1.618   5.762   0.550
 1783SOL    HW217381   1.495   5.769   0.657
 1784SOL     OW17382   9.435   3.476   1.137
 1784SOL    HW117383   9.363   3.426   1.186
 1784SOL    HW217384   9.413   3.573   1.136
 1785SOL     OW17385   3.750   2.415   6.545
 1785SOL    HW117386   3.768   2.508   6.578
 1785SOL    HW217387   3.826   2.384   6.488
 1786SOL     OW17388   3.267   4.996   0.871
 1786SOL    HW117389   3.287   4.898   0.877
 1786SOL    HW217390   3.184   5.016   0.923
 1787SOL     OW17391   2.885   7.927   6.472
 1787SOL    HW117392   2.810   7.863   6.458
 1787SOL    HW217393   2.880   7.963   6.565
 1788SOL     OW17394   0.391   0.686   6.539
 1788SOL    HW117395   0.432   0.650   6.623
 1788SOL    HW217396   0.459   0.684   6.466
 1789SOL     OW17397   3.608   1.374   6.840
 1789SOL    HW117398   3.694   1.402   6.797
 1789SOL    HW217399   3.616   1.279   6.870
 1790SOL     OW17400   7.670   7.997   6.736
 1790SOL    HW117401   7.643   7.901   6.745
 1790SOL    HW217402   7.609   8.055   6.790
 1791SOL     OW17403   2.657   0.584   0.339
 1791SOL    HW117404   2.703   0.640   0.409
 1791SOL    HW217405   2.725   0.543   0.279
 1792SOL     OW17406   8.670   6.466   5.113
 1792SOL    HW117407   8.665   6.378   5.066
 1792SOL    HW217408   8.614   6.533   5.064
 1793SOL     OW17409   9.432   0.517   5.765
 1793SOL    HW117410   9.504   0.517   5.697
 1793SOL    HW217411   9.343   0.531   5.721
 1794SOL     OW17412   8.621   0.894   0.835
 1794SOL    HW117413   8.691   0.890   0.907
 1794SOL    HW217414   8.540   0.941   0.870
 1795SOL     OW17415   8.490   6.581   0.752
 1795SOL    HW117416   8.560   6.614   0.816
 1795SOL    HW217417   8.422   6.653   0.738
 1796SOL     OW17418   6.010   7.117   0.694
 1796SOL    HW117419   5.991   7.019   0.691
 1796SOL    HW217420   5.955   7.164   0.626
 1797SOL     OW17421   8.013   3.340   1.279
 1797SOL    HW117422   8.028   3.244   1.255
 1797SOL    HW217423   7.917   3.354   1.304
 1798SOL     OW17424   6.596   6.379   1.336
 1798SOL    HW117425   6.539   6.458   1.314
 1798SOL    HW217426   6.581   6.352   1.431
 1799SOL     OW17427   7.762   1.926   6.794
 1799SOL    HW117428   7.803   1.842   6.758
 1799SOL    HW217429   7.819   2.004   6.768
 1800SOL     OW17430   0.805   7.426   5.127
 1800SOL    HW117431   0.743   7.363   5.172
 1800SOL    HW217432   0.849   7.485   5.195
 1801SOL     OW17433   4.293   2.403   0.425
 1801SOL    HW117434   4.207   2.448   0.403
 1801SOL    HW217435   4.352   2.467   0.475
 1802SOL     OW17436   4.662   5.187   0.303
 1802SOL    HW117437   4.579   5.163   0.354
 1802SOL    HW217438   4.682   5.115   0.236
 1803SOL     OW17439   0.430   2.079   6.514
 1803SOL    HW117440   0.408   2.020   6.437
 1803SOL    HW217441   0.519   2.122   6.498
 1804SOL     OW17442   1.128   6.786   0.651
 1804SOL    HW117443   1.133   6.696   0.693
 1804SOL    HW217444   1.204   6.842   0.684
 1805SOL     OW17445   1.603   0.080   0.915
 1805SOL    HW117446   1.635   0.054   1.006
 1805SOL    HW217447   1.682   0.092   0.854
 1806SOL     OW17448   2.582   5.427   0.812
 1806SOL    HW117449   2.669   5.381   0.794
 1806SOL    HW217450   2.533   5.440   0.726
 1807SOL     OW17451   1.371   3.057   5.623
 1807SOL    HW117452   1.392   3.077   5.527
 1807SOL    HW217453   1.431   3.112   5.681
 1808SOL     OW17454   2.980   8.319   6.645
 1808SOL    HW117455   2.899   8.354   6.692
 1808SOL    HW217456   3.022   8.393   6.592
 1809SOL     OW17457   0.378   6.808   6.879
 1809SOL    HW117458   0.392   6.749   6.959
 1809SOL    HW217459   0.280   6.814   6.859
 1810SOL     OW17460   2.759   5.096   6.342
 1810SOL    HW117461   2.674   5.066   6.385
 1810SOL    HW217462   2.761   5.195   6.335
 1811SOL     OW17463   4.282   0.069   1.667
 1811SOL    HW117464   4.249  -0.023   1.648
 1811SOL    HW217465   4.334   0.069   1.752
 1812SOL     OW17466   4.273   5.087   0.998
 1812SOL    HW117467   4.331   5.056   0.923
 1812SOL    HW217468   4.221   5.167   0.968
 1813SOL     OW17469   1.173   3.728   5.116
 1813SOL    HW117470   1.201   3.813   5.070
 1813SOL    HW217471   1.158   3.657   5.047
 1814SOL     OW17472   1.416   5.591   5.482
 1814SOL    HW117473   1.369   5.669   5.522
 1814SOL    HW217474   1.402   5.592   5.382
 1815SOL     OW17475   8.448   1.113   5.664
 1815SOL    HW117476   8.500   1.069   5.591
 1815SOL    HW217477   8.450   1.212   5.652
 1816SOL     OW17478   4.638   4.855   5.838
 1816SOL    HW117479   4.719   4.799   5.819
 1816SOL    HW217480   4.559   4.815   5.791
 1817SOL     OW17481   0.697   8.105   0.842
 1817SOL    HW117482   0.636   8.132   0.917
 1817SOL    HW217483   0.782   8.069   0.880
 1818SOL     OW17484   4.493   8.186   6.590
 1818SOL    HW117485   4.532   8.136   6.512
 1818SOL    HW217486   4.561   8.250   6.626
 1819SOL     OW17487   2.288   0.491   1.580
 1819SOL    HW117488   2.287   0.580   1.625
 1819SOL    HW217489   2.200   0.446   1.592
 1820SOL     OW17490   4.586   4.743   6.714
 1820SOL    HW117491   4.525   4.787   6.648
 1820SOL    HW217492   4.677   4.733   6.674
 1821SOL     OW17493   1.714   4.154   5.703
 1821SOL    HW117494   1.680   4.246   5.724
 1821SOL    HW217495   1.779   4.159   5.627
 1822SOL     OW17496   9.026   3.371   1.753
 1822SOL    HW117497   9.113   3.323   1.765
 1822SOL    HW217498   9.002   3.419   1.838
 1823SOL     OW17499   1.234   7.298   5.356
 1823SOL    HW117500   1.259   7.228   5.422
 1823SOL    HW217501   1.145   7.275   5.315
 1824SOL     OW17502   4.484  -0.060   6.248
 1824SOL    HW117503   4.399  -0.073   6.299
 1824SOL    HW217504   4.485  -0.120   6.168
 1825SOL     OW17505   7.636   5.223   5.183
 1825SOL    HW117506   7.597   5.286   5.116
 1825SOL    HW217507   7.707   5.269   5.236
 1826SOL     OW17508   7.096   3.102   5.671
 1826SOL    HW117509   7.080   3.011   5.632
 1826SOL    HW217510   7.148   3.157   5.606
 1827SOL     OW17511   0.170   3.894   1.550
 1827SOL    HW117512   0.260   3.849   1.556
 1827SOL    HW217513   0.137   3.915   1.641
 1828SOL     OW17514   2.410   5.489   6.234
 1828SOL    HW117515   2.393   5.402   6.280
 1828SOL    HW217516   2.441   5.557   6.301
 1829SOL     OW17517   4.984   8.100   5.867
 1829SOL    HW117518   4.982   8.028   5.797
 1829SOL    HW217519   5.062   8.084   5.928
 1830SOL     OW17520   2.356   2.193   0.397
 1830SOL    HW117521   2.387   2.279   0.357
 1830SOL    HW217522   2.428   2.124   0.388
 1831SOL     OW17523   9.303   3.241   6.258
 1831SOL    HW117524   9.374   3.181   6.295
 1831SOL    HW217525   9.280   3.211   6.165
 1832SOL     OW17526   2.847   4.570   6.861
 1832SOL    HW117527   2.890   4.568   6.771
 1832SOL    HW217528   2.799   4.484   6.877
 1833SOL     OW17529   3.685   4.374   2.019
 1833SOL    HW117530   3.593   4.404   2.043
 1833SOL    HW217531   3.725   4.325   2.096
 1834SOL     OW17532   8.701   3.624   6.290
 1834SOL    HW117533   8.627   3.648   6.227
 1834SOL    HW217534   8.691   3.678   6.374
 1835SOL     OW17535   4.937   1.909   6.363
 1835SOL    HW117536   5.037   1.912   6.354
 1835SOL    HW217537   4.913   1.918   6.460
 1836SOL     OW17538   2.468   4.655   1.085
 1836SOL    HW117539   2.541   4.670   1.019
 1836SOL    HW217540   2.398   4.596   1.045
 1837SOL     OW17541   7.541   1.220   1.339
 1837SOL    HW117542   7.549   1.128   1.299
 1837SOL    HW217543   7.522   1.212   1.437
 1838SOL     OW17544   1.932   2.058   0.280
 1838SOL    HW117545   1.930   2.062   0.380
 1838SOL    HW217546   1.852   2.105   0.243
 1839SOL     OW17547   6.251   7.345   5.521
 1839SOL    HW117548   6.164   7.305   5.548
 1839SOL    HW217549   6.257   7.347   5.421
 1840SOL     OW17550   0.620   1.864   5.388
 1840SOL    HW117551   0.699   1.847   5.330
 1840SOL    HW217552   0.549   1.911   5.336
 1841SOL     OW17553   3.710   7.073   1.514
 1841SOL    HW117554   3.619   7.107   1.537
 1841SOL    HW217555   3.772   7.150   1.501
 1842SOL     OW17556   3.787   6.207   1.896
 1842SOL    HW117557   3.701   6.257   1.896
 1842SOL    HW217558   3.769   6.110   1.879
 1843SOL     OW17559   1.493   6.562   5.072
 1843SOL    HW117560   1.586   6.564   5.109
 1843SOL    HW217561   1.487   6.623   4.993
 1844SOL     OW17562   4.136   1.539   0.974
 1844SOL    HW117563   4.086   1.486   1.042
 1844SOL    HW217564   4.102   1.633   0.973
 1845SOL     OW17565   6.051   4.750   6.204
 1845SOL    HW117566   6.023   4.818   6.271
 1845SOL    HW217567   6.148   4.728   6.216
 1846SOL     OW17568   1.502   8.382   1.285
 1846SOL    HW117569   1.456   8.294   1.273
 1846SOL    HW217570   1.434   8.455   1.293
 1847SOL     OW17571   0.753   0.377   0.697
 1847SOL    HW117572   0.765   0.411   0.790
 1847SOL    HW217573   0.667   0.326   0.691
 1848SOL     OW17574   9.527   1.704   0.830
 1848SOL    HW117575   9.432   1.729   0.810
 1848SOL    HW217576   9.567   1.659   0.750
 1849SOL     OW17577   9.238   2.395   6.523
 1849SOL    HW117578   9.288   2.477   6.552
 1849SOL    HW217579   9.199   2.350   6.604
 1850SOL     OW17580   0.141   1.100   6.677
 1850SOL    HW117581   0.192   1.186   6.668
 1850SOL    HW217582   0.201   1.029   6.713
 1851SOL     OW17583   1.032   5.597   5.297
 1851SOL    HW117584   1.054   5.685   5.256
 1851SOL    HW217585   1.038   5.604   5.397
 1852SOL     OW17586   3.658   3.289   6.895
 1852SOL    HW117587   3.677   3.339   6.980
 1852SOL    HW217588   3.586   3.337   6.844
 1853SOL     OW17589   2.637   6.955   5.174
 1853SOL    HW117590   2.597   6.870   5.141
 1853SOL    HW217591   2.636   7.023   5.100
 1854SOL     OW17592   6.814   5.084   0.983
 1854SOL    HW117593   6.862   5.094   1.070
 1854SOL    HW217594   6.718   5.113   0.994
 1855SOL     OW17595   9.465   3.166   0.333
 1855SOL    HW117596   9.430   3.137   0.422
 1855SOL    HW217597   9.478   3.087   0.274
 1856SOL     OW17598   8.092   6.947   0.420
 1856SOL    HW117599   8.006   6.910   0.385
 1856SOL    HW217600   8.075   7.034   0.466
 1857SOL     OW17601   9.495   2.430   1.280
 1857SOL    HW117602   9.536   2.360   1.221
 1857SOL    HW217603   9.440   2.385   1.350
 1858SOL     OW17604   1.522   7.516   0.651
 1858SOL    HW117605   1.504   7.536   0.555
 1858SOL    HW217606   1.580   7.435   0.658
 1859SOL     OW17607   5.931   4.987   1.084
 1859SOL    HW117608   6.002   5.004   1.016
 1859SOL    HW217609   5.870   4.915   1.051
 1860SOL     OW17610   5.152   0.322   6.193
 1860SOL    HW117611   5.143   0.354   6.288
 1860SOL    HW217612   5.063   0.287   6.162
 1861SOL     OW17613   7.813   3.981   6.823
 1861SOL    HW117614   7.755   3.901   6.841
 1861SOL    HW217615   7.755   4.061   6.805
 1862SOL     OW17616   6.452   5.015   6.131
 1862SOL    HW117617   6.524   5.022   6.062
 1862SOL    HW217618   6.487   4.968   6.211
 1863SOL     OW17619   2.285   4.860   6.203
 1863SOL    HW117620   2.253   4.937   6.148
 1863SOL    HW217621   2.378   4.878   6.235
 1864SOL     OW17622   4.385   6.289   2.314
 1864SOL    HW117623   4.436   6.373   2.297
 1864SOL    HW217624   4.401   6.258   2.407
 1865SOL     OW17625   1.112   5.829   6.670
 1865SOL    HW117626   1.205   5.796   6.656
 1865SOL    HW217627   1.089   5.826   6.767
 1866SOL     OW17628   8.391   6.273   6.631
 1866SOL    HW117629   8.344   6.198   6.585
 1866SOL    HW217630   8.489   6.253   6.637
 1867SOL     OW17631   9.139   3.088   1.226
 1867SOL    HW117632   9.231   3.049   1.226
 1867SOL    HW217633   9.121   3.131   1.137
 1868SOL     OW17634   3.144   1.114   0.423
 1868SOL    HW117635   3.076   1.043   0.442
 1868SOL    HW217636   3.099   1.203   0.419
 1869SOL     OW17637   7.398   8.131   5.912
 1869SOL    HW117638   7.340   8.211   5.930
 1869SOL    HW217639   7.348   8.048   5.935
 1870SOL     OW17640   1.240   2.773   0.942
 1870SOL    HW117641   1.299   2.853   0.951
 1870SOL    HW217642   1.231   2.727   1.030
 1871SOL     OW17643   5.726   2.051   6.452
 1871SOL    HW117644   5.813   2.095   6.472
 1871SOL    HW217645   5.652   2.098   6.500
 1872SOL     OW17646   4.795   0.071   1.230
 1872SOL    HW117647   4.886   0.030   1.219
 1872SOL    HW217648   4.794   0.159   1.182
 1873SOL     OW17649   1.819   8.356   5.495
 1873SOL    HW117650   1.725   8.386   5.475
 1873SOL    HW217651   1.847   8.287   5.429
 1874SOL     OW17652   7.140   4.001   1.373
 1874SOL    HW117653   7.074   3.935   1.410
 1874SOL    HW217654   7.097   4.051   1.297
 1875SOL     OW17655   0.212   5.019   0.343
 1875SOL    HW117656   0.287   5.082   0.321
 1875SOL    HW217657   0.131   5.072   0.367
 1876SOL     OW17658   4.100   4.906   1.131
 1876SOL    HW117659   4.119   4.920   1.228
 1876SOL    HW217660   4.165   4.959   1.076
 1877SOL     OW17661   8.219   3.742   5.794
 1877SOL    HW117662   8.177   3.766   5.707
 1877SOL    HW217663   8.149   3.710   5.857
 1878SOL     OW17664   4.577   1.066   1.981
 1878SOL    HW117665   4.544   1.090   2.073
 1878SOL    HW217666   4.577   0.966   1.971
 1879SOL     OW17667   2.587   2.090   6.614
 1879SOL    HW117668   2.497   2.122   6.643
 1879SOL    HW217669   2.585   2.073   6.515
 1880SOL     OW17670   4.545   7.638   1.330
 1880SOL    HW117671   4.516   7.558   1.382
 1880SOL    HW217672   4.512   7.629   1.235
 1881SOL     OW17673   7.051   2.200   0.702
 1881SOL    HW117674   7.105   2.280   0.675
 1881SOL    HW217675   7.106   2.140   0.759
 1882SOL     OW17676   6.769   6.182   6.899
 1882SOL    HW117677   6.745   6.100   6.953
 1882SOL    HW217678   6.763   6.161   6.802
 1883SOL     OW17679   3.471   1.920   6.827
 1883SOL    HW117680   3.391   1.865   6.803
 1883SOL    HW217681   3.545   1.901   6.763
 1884SOL     OW17682   6.642   8.025   6.818
 1884SOL    HW117683   6.636   7.966   6.737
 1884SOL    HW217684   6.620   7.971   6.900
 1885SOL     OW17685   8.449   4.524   5.749
 1885SOL    HW117686   8.392   4.452   5.788
 1885SOL    HW217687   8.399   4.568   5.674
 1886SOL     OW17688   8.334   4.038   6.148
 1886SOL    HW117689   8.383   4.032   6.061
 1886SOL    HW217690   8.294   4.130   6.157
 1887SOL     OW17691   7.060   5.307   6.801
 1887SOL    HW117692   6.968   5.347   6.804
 1887SOL    HW217693   7.057   5.214   6.836
 1888SOL     OW17694   8.817   6.169   4.570
 1888SOL    HW117695   8.908   6.208   4.583
 1888SOL    HW217696   8.760   6.233   4.519
 1889SOL     OW17697   8.907   3.249   0.422
 1889SOL    HW117698   8.962   3.284   0.346
 1889SOL    HW217699   8.824   3.305   0.432
 1890SOL     OW17700   4.061   8.059   0.491
 1890SOL    HW117701   4.096   8.041   0.399
 1890SOL    HW217702   4.055   7.973   0.541
 1891SOL     OW17703   3.922   6.044   0.370
 1891SOL    HW117704   3.957   6.016   0.281
 1891SOL    HW217705   3.928   5.968   0.435
 1892SOL     OW17706   3.929   1.825   6.525
 1892SOL    HW117707   3.862   1.793   6.458
 1892SOL    HW217708   4.009   1.764   6.524
 1893SOL     OW17709   3.368   3.188   5.628
 1893SOL    HW117710   3.348   3.188   5.530
 1893SOL    HW217711   3.446   3.249   5.646
 1894SOL     OW17712   2.976   3.932   0.385
 1894SOL    HW117713   2.932   3.862   0.329
 1894SOL    HW217714   2.970   4.020   0.339
 1895SOL     OW17715   1.515   7.927   1.581
 1895SOL    HW117716   1.478   8.018   1.562
 1895SOL    HW217717   1.593   7.934   1.643
 1896SOL     OW17718   8.856   5.272   0.657
 1896SOL    HW117719   8.793   5.331   0.607
 1896SOL    HW217720   8.926   5.329   0.701
 1897SOL     OW17721   3.471   7.201   0.714
 1897SOL    HW117722   3.441   7.137   0.784
 1897SOL    HW217723   3.393   7.226   0.656
 1898SOL     OW17724   3.689   5.560   1.429
 1898SOL    HW117725   3.636   5.605   1.502
 1898SOL    HW217726   3.780   5.601   1.423
 1899SOL     OW17727   9.417   7.297   0.294
 1899SOL    HW117728   9.509   7.315   0.328
 1899SOL    HW217729   9.376   7.383   0.263
 1900SOL     OW17730   6.342   5.306   5.988
 1900SOL    HW117731   6.354   5.212   5.956
 1900SOL    HW217732   6.403   5.366   5.935
 1901SOL     OW17733   5.009   3.765   0.271
 1901SOL    HW117734   4.939   3.803   0.332
 1901SOL    HW217735   5.052   3.839   0.220
 1902SOL     OW17736   1.470   2.164   5.269
 1902SOL    HW117737   1.381   2.128   5.240
 1902SOL    HW217738   1.531   2.169   5.190
 1903SOL     OW17739   3.004   5.305   6.780
 1903SOL    HW117740   3.033   5.389   6.734
 1903SOL    HW217741   3.071   5.282   6.851
 1904SOL     OW17742   7.099   7.621   6.530
 1904SOL    HW117743   7.109   7.631   6.431
 1904SOL    HW217744   7.014   7.664   6.560
 1905SOL     OW17745   8.995   4.414   6.908
 1905SOL    HW117746   9.093   4.419   6.888
 1905SOL    HW217747   8.944   4.410   6.823
 1906SOL     OW17748   5.783   0.907   6.002
 1906SOL    HW117749   5.772   0.825   5.946
 1906SOL    HW217750   5.789   0.987   5.943
 1907SOL     OW17751   8.172   1.636   0.680
 1907SOL    HW117752   8.179   1.536   0.671
 1907SOL    HW217753   8.264   1.674   0.692
 1908SOL     OW17754   5.083   3.060   1.518
 1908SOL    HW117755   5.040   2.976   1.553
 1908SOL    HW217756   5.159   3.086   1.578
 1909SOL     OW17757   1.637   3.024   5.405
 1909SOL    HW117758   1.542   3.051   5.391
 1909SOL    HW217759   1.687   3.030   5.318
 1910SOL     OW17760   9.545   6.104   4.474
 1910SOL    HW117761   9.545   6.188   4.528
 1910SOL    HW217762   9.508   6.122   4.383
 1911SOL     OW17763   6.497   7.802   0.633
 1911SOL    HW117764   6.401   7.779   0.616
 1911SOL    HW217765   6.508   7.901   0.630
 1912SOL     OW17766   7.997   4.317   0.297
 1912SOL    HW117767   8.038   4.240   0.248
 1912SOL    HW217768   8.069   4.371   0.341
 1913SOL     OW17769   2.320   7.602   5.016
 1913SOL    HW117770   2.374   7.594   4.932
 1913SOL    HW217771   2.229   7.564   5.001
 1914SOL     OW17772   1.272   2.187   0.244
 1914SOL    HW117773   1.322   2.126   0.182
 1914SOL    HW217774   1.219   2.133   0.309
 1915SOL     OW17775   1.140   4.405   6.322
 1915SOL    HW117776   1.140   4.393   6.421
 1915SOL    HW217777   1.235   4.403   6.289
 1916SOL     OW17778   5.067   2.865   0.777
 1916SOL    HW117779   5.119   2.916   0.709
 1916SOL    HW217780   5.121   2.856   0.861
 1917SOL     OW17781   4.531   2.451   6.082
 1917SOL    HW117782   4.627   2.480   6.073
 1917SOL    HW217783   4.501   2.408   5.997
 1918SOL     OW17784   7.876   2.523   6.396
 1918SOL    HW117785   7.817   2.503   6.474
 1918SOL    HW217786   7.962   2.562   6.428
 1919SOL     OW17787   9.346   7.135   0.529
 1919SOL    HW117788   9.350   7.185   0.443
 1919SOL    HW217789   9.438   7.129   0.568
 1920SOL     OW17790   3.995   7.593   5.700
 1920SOL    HW117791   4.051   7.605   5.619
 1920SOL    HW217792   4.031   7.649   5.775
 1921SOL     OW17793   1.043   5.065   6.510
 1921SOL    HW117794   1.097   5.145   6.535
 1921SOL    HW217795   1.097   5.005   6.451
 1922SOL     OW17796   5.778   0.546   0.708
 1922SOL    HW117797   5.707   0.503   0.764
 1922SOL    HW217798   5.770   0.646   0.716
 1923SOL     OW17799   0.256   6.532   6.460
 1923SOL    HW117800   0.351   6.541   6.429
 1923SOL    HW217801   0.233   6.435   6.467
 1924SOL     OW17802   7.561   5.675   0.343
 1924SOL    HW117803   7.465   5.690   0.321
 1924SOL    HW217804   7.587   5.581   0.321
 1925SOL     OW17805   2.140   1.589   6.934
 1925SOL    HW117806   2.174   1.681   6.914
 1925SOL    HW217807   2.145   1.572   7.033
 1926SOL     OW17808   0.972   4.020   0.755
 1926SOL    HW117809   1.045   4.086   0.775
 1926SOL    HW217810   0.891   4.069   0.724
 1927SOL     OW17811   5.594   0.634   1.309
 1927SOL    HW117812   5.675   0.601   1.261
 1927SOL    HW217813   5.551   0.706   1.256
 1928SOL     OW17814   7.373   6.074   5.162
 1928SOL    HW117815   7.303   6.099   5.094
 1928SOL    HW217816   7.458   6.050   5.114
 1929SOL     OW17817   0.638   3.511   6.462
 1929SOL    HW117818   0.719   3.505   6.519
 1929SOL    HW217819   0.642   3.440   6.391
 1930SOL     OW17820   7.950   4.536   0.844
 1930SOL    HW117821   7.907   4.608   0.899
 1930SOL    HW217822   8.024   4.493   0.896
 1931SOL     OW17823   1.189   3.038   0.681
 1931SOL    HW117824   1.207   3.117   0.622
 1931SOL    HW217825   1.158   2.962   0.625
 1932SOL     OW17826   3.690   2.180   2.290
 1932SOL    HW117827   3.725   2.103   2.343
 1932SOL    HW217828   3.654   2.249   2.352
 1933SOL     OW17829   7.306   5.008   0.941
 1933SOL    HW117830   7.323   5.104   0.918
 1933SOL    HW217831   7.209   4.987   0.930
 1934SOL     OW17832   5.381   1.138   1.508
 1934SOL    HW117833   5.427   1.224   1.530
 1934SOL    HW217834   5.322   1.111   1.585
 1935SOL     OW17835   2.449   2.652   1.525
 1935SOL    HW117836   2.535   2.703   1.519
 1935SOL    HW217837   2.379   2.698   1.471
 1936SOL     OW17838   9.365   4.948   0.435
 1936SOL    HW117839   9.278   4.960   0.388
 1936SOL    HW217840   9.369   4.857   0.475
 1937SOL     OW17841   4.158   0.169   5.685
 1937SOL    HW117842   4.220   0.233   5.731
 1937SOL    HW217843   4.064   0.200   5.695
 1938SOL     OW17844   4.194   6.158   2.153
 1938SOL    HW117845   4.156   6.081   2.206
 1938SOL    HW217846   4.265   6.203   2.207
 1939SOL     OW17847   8.177   2.543   6.164
 1939SOL    HW117848   8.207   2.516   6.072
 1939SOL    HW217849   8.138   2.465   6.211
 1940SOL     OW17850   3.610   6.409   6.812
 1940SOL    HW117851   3.661   6.346   6.870
 1940SOL    HW217852   3.562   6.358   6.740
 1941SOL     OW17853   5.825   6.676   1.583
 1941SOL    HW117854   5.737   6.646   1.620
 1941SOL    HW217855   5.877   6.723   1.654
 1942SOL     OW17856   1.782   3.947   0.423
 1942SOL    HW117857   1.838   3.871   0.458
 1942SOL    HW217858   1.831   4.033   0.436
 1943SOL     OW17859   8.826   2.883   1.004
 1943SOL    HW117860   8.923   2.861   0.997
 1943SOL    HW217861   8.786   2.885   0.912
 1944SOL     OW17862   7.843   6.840   0.378
 1944SOL    HW117863   7.846   6.875   0.472
 1944SOL    HW217864   7.757   6.790   0.364
 1945SOL     OW17865   5.897   5.576   5.027
 1945SOL    HW117866   5.960   5.638   4.980
 1945SOL    HW217867   5.804   5.612   5.022
 1946SOL     OW17868   2.236   5.067   6.045
 1946SOL    HW117869   2.189   5.150   6.017
 1946SOL    HW217870   2.333   5.086   6.061
 1947SOL     OW17871   3.795   3.818   6.194
 1947SOL    HW117872   3.893   3.799   6.204
 1947SOL    HW217873   3.766   3.798   6.101
 1948SOL     OW17874   3.908   5.124   6.844
 1948SOL    HW117875   3.927   5.209   6.795
 1948SOL    HW217876   3.993   5.071   6.853
 1949SOL     OW17877   5.765   3.879   1.528
 1949SOL    HW117878   5.791   3.909   1.620
 1949SOL    HW217879   5.843   3.836   1.483
 1950SOL     OW17880   3.649   7.398   0.835
 1950SOL    HW117881   3.725   7.362   0.781
 1950SOL    HW217882   3.568   7.341   0.821
 1951SOL     OW17883   2.519   5.696   5.990
 1951SOL    HW117884   2.529   5.782   6.038
 1951SOL    HW217885   2.604   5.643   5.997
 1952SOL     OW17886   1.889   6.741   0.948
 1952SOL    HW117887   1.942   6.714   1.029
 1952SOL    HW217888   1.804   6.784   0.976
 1953SOL     OW17889   1.153   7.896   1.082
 1953SOL    HW117890   1.178   7.905   1.178
 1953SOL    HW217891   1.157   7.799   1.055
 1954SOL     OW17892   4.192   3.022   1.173
 1954SOL    HW117893   4.138   3.015   1.089
 1954SOL    HW217894   4.261   2.949   1.175
 1955SOL     OW17895   4.645   2.372   0.437
 1955SOL    HW117896   4.557   2.412   0.411
 1955SOL    HW217897   4.635   2.322   0.523
 1956SOL     OW17898   7.672   5.213   0.642
 1956SOL    HW117899   7.587   5.232   0.593
 1956SOL    HW217900   7.704   5.121   0.619
 1957SOL     OW17901   8.204   5.432   6.273
 1957SOL    HW117902   8.212   5.512   6.213
 1957SOL    HW217903   8.294   5.389   6.284
 1958SOL     OW17904   0.336   7.224   4.891
 1958SOL    HW117905   0.412   7.238   4.954
 1958SOL    HW217906   0.336   7.129   4.859
 1959SOL     OW17907   0.496   6.124   5.255
 1959SOL    HW117908   0.588   6.152   5.231
 1959SOL    HW217909   0.436   6.204   5.256
 1960SOL     OW17910   9.542   8.290   5.015
 1960SOL    HW117911   9.443   8.299   5.006
 1960SOL    HW217912   9.586   8.377   4.991
 1961SOL     OW17913   8.170   6.013   6.003
 1961SOL    HW117914   8.154   6.067   5.920
 1961SOL    HW217915   8.219   6.068   6.070
 1962SOL     OW17916   4.379   1.107   6.677
 1962SOL    HW117917   4.446   1.117   6.751
 1962SOL    HW217918   4.346   1.198   6.651
 1963SOL     OW17919   5.430   3.293   0.810
 1963SOL    HW117920   5.460   3.369   0.868
 1963SOL    HW217921   5.508   3.253   0.762
 1964SOL     OW17922   0.604   0.785   6.362
 1964SOL    HW117923   0.683   0.723   6.360
 1964SOL    HW217924   0.635   0.878   6.345
 1965SOL     OW17925   6.154   1.173   0.501
 1965SOL    HW117926   6.230   1.181   0.437
 1965SOL    HW217927   6.146   1.258   0.554
 1966SOL     OW17928   3.037   5.287   1.562
 1966SOL    HW117929   2.952   5.316   1.519
 1966SOL    HW217930   3.057   5.346   1.640
 1967SOL     OW17931   3.166   5.795   1.271
 1967SOL    HW117932   3.264   5.816   1.281
 1967SOL    HW217933   3.113   5.879   1.279
 1968SOL     OW17934   2.100   8.148   6.904
 1968SOL    HW117935   2.182   8.144   6.961
 1968SOL    HW217936   2.023   8.181   6.959
 1969SOL     OW17937   4.543   6.324   6.437
 1969SOL    HW117938   4.515   6.238   6.395
 1969SOL    HW217939   4.472   6.393   6.424
 1970SOL     OW17940   0.215   1.604   6.231
 1970SOL    HW117941   0.310   1.630   6.247
 1970SOL    HW217942   0.167   1.593   6.318
 1971SOL     OW17943   7.019   7.942   6.551
 1971SOL    HW117944   7.115   7.919   6.534
 1971SOL    HW217945   6.966   7.928   6.468
 1972SOL     OW17946   4.996   5.563   1.154
 1972SOL    HW117947   5.037   5.480   1.193
 1972SOL    HW217948   5.052   5.595   1.078
 1973SOL     OW17949   6.927   5.193   5.686
 1973SOL    HW117950   6.907   5.132   5.609
 1973SOL    HW217951   7.027   5.198   5.699
 1974SOL     OW17952   1.203   4.742   2.006
 1974SOL    HW117953   1.302   4.743   2.018
 1974SOL    HW217954   1.179   4.688   1.926
 1975SOL     OW17955   7.833   8.254   5.673
 1975SOL    HW117956   7.765   8.312   5.717
 1975SOL    HW217957   7.893   8.309   5.616
 1976SOL     OW17958   1.264   2.851   6.381
 1976SOL    HW117959   1.304   2.939   6.354
 1976SOL    HW217960   1.173   2.843   6.340
 1977SOL     OW17961   6.679   8.290   6.899
 1977SOL    HW117962   6.602   8.350   6.878
 1977SOL    HW217963   6.659   8.197   6.867
 1978SOL     OW17964   1.270   7.817   5.022
 1978SOL    HW117965   1.363   7.785   5.001
 1978SOL    HW217966   1.272   7.916   5.036
 1979SOL     OW17967   9.414   3.193   5.829
 1979SOL    HW117968   9.514   3.187   5.833
 1979SOL    HW217969   9.387   3.242   5.746
 1980SOL     OW17970   8.456   2.784   6.012
 1980SOL    HW117971   8.539   2.839   6.001
 1980SOL    HW217972   8.421   2.759   5.921
 1981SOL     OW17973   7.034   1.530   6.321
 1981SOL    HW117974   6.951   1.560   6.275
 1981SOL    HW217975   7.109   1.524   6.254
 1982SOL     OW17976   4.540   1.752   1.002
 1982SOL    HW117977   4.486   1.697   0.938
 1982SOL    HW217978   4.481   1.786   1.075
 1983SOL     OW17979   3.818   4.213   6.741
 1983SOL    HW117980   3.796   4.291   6.799
 1983SOL    HW217981   3.880   4.241   6.668
 1984SOL     OW17982   5.086   0.258   1.417
 1984SOL    HW117983   5.159   0.259   1.486
 1984SOL    HW217984   5.068   0.164   1.389
 1985SOL     OW17985   7.026   5.710   6.617
 1985SOL    HW117986   7.119   5.674   6.609
 1985SOL    HW217987   7.018   5.794   6.564
 1986SOL     OW17988   3.489   7.253   2.188
 1986SOL    HW117989   3.494   7.309   2.271
 1986SOL    HW217990   3.578   7.253   2.142
 1987SOL     OW17991   3.098   4.485   0.206
 1987SOL    HW117992   3.155   4.505   0.126
 1987SOL    HW217993   3.002   4.507   0.185
 1988SOL     OW17994   1.033   5.502   1.018
 1988SOL    HW117995   0.977   5.475   1.096
 1988SOL    HW217996   1.117   5.448   1.017
 1989SOL     OW17997   5.437   3.398   5.727
 1989SOL    HW117998   5.451   3.308   5.769
 1989SOL    HW217999   5.518   3.422   5.674
 1990SOL     OW18000   0.854   3.596   6.654
 1990SOL    HW118001   0.927   3.658   6.624
 1990SOL    HW218002   0.892   3.504   6.668
 1991SOL     OW18003   3.161   5.543   6.099
 1991SOL    HW118004   3.249   5.530   6.053
 1991SOL    HW218005   3.170   5.614   6.169
 1992SOL     OW18006   4.318   6.887   1.134
 1992SOL    HW118007   4.364   6.939   1.205
 1992SOL    HW218008   4.232   6.851   1.169
 1993SOL     OW18009   0.473   2.278   6.841
 1993SOL    HW118010   0.569   2.259   6.818
 1993SOL    HW218011   0.458   2.377   6.841
 1994SOL     OW18012   2.850   6.997   6.203
 1994SOL    HW118013   2.750   7.006   6.208
 1994SOL    HW218014   2.893   7.085   6.222
 1995SOL     OW18015   2.498   2.434   0.379
 1995SOL    HW118016   2.501   2.447   0.479
 1995SOL    HW218017   2.420   2.485   0.342
 1996SOL     OW18018   0.462   6.607   6.240
 1996SOL    HW118019   0.410   6.608   6.155
 1996SOL    HW218020   0.479   6.700   6.270
 1997SOL     OW18021   1.529   2.880   0.747
 1997SOL    HW118022   1.619   2.879   0.701
 1997SOL    HW218023   1.512   2.970   0.786
 1998SOL     OW18024   7.051   5.496   6.380
 1998SOL    HW118025   6.982   5.467   6.314
 1998SOL    HW218026   7.028   5.588   6.414
 1999SOL     OW18027   7.448   2.101   6.086
 1999SOL    HW118028   7.488   2.192   6.097
 1999SOL    HW218029   7.370   2.106   6.024
 2000SOL     OW18030   2.054   2.429   0.735
 2000SOL    HW118031   2.124   2.499   0.745
 2000SOL    HW218032   2.098   2.342   0.711
 2001SOL     OW18033   6.052   2.970   0.503
 2001SOL    HW118034   6.033   3.066   0.483
 2001SOL    HW218035   6.076   2.960   0.600
 2002SOL     OW18036   8.948   5.352   1.188
 2002SOL    HW118037   8.959   5.451   1.189
 2002SOL    HW218038   8.913   5.321   1.277
 2003SOL     OW18039   1.711   5.755   0.366
 2003SOL    HW118040   1.699   5.665   0.407
 2003SOL    HW218041   1.689   5.751   0.269
 2004SOL     OW18042   6.173   5.576   6.839
 2004SOL    HW118043   6.118   5.493   6.834
 2004SOL    HW218044   6.243   5.566   6.910
 2005SOL     OW18045   9.001   1.360   5.989
 2005SOL    HW118046   9.070   1.426   5.958
 2005SOL    HW218047   8.911   1.403   5.988
 2006SOL     OW18048   3.891   6.641   6.324
 2006SOL    HW118049   3.815   6.593   6.368
 2006SOL    HW218050   3.899   6.733   6.361
 2007SOL     OW18051   5.835   7.212   0.506
 2007SOL    HW118052   5.803   7.118   0.495
 2007SOL    HW218053   5.762   7.267   0.545
 2008SOL     OW18054   2.718   0.789   6.770
 2008SOL    HW118055   2.643   0.835   6.819
 2008SOL    HW218056   2.684   0.706   6.727
 2009SOL     OW18057   5.826   0.608   0.402
 2009SOL    HW118058   5.836   0.583   0.498
 2009SOL    HW218059   5.799   0.528   0.349
 2010SOL     OW18060   8.845   4.112   0.493
 2010SOL    HW118061   8.873   4.025   0.533
 2010SOL    HW218062   8.922   4.152   0.443
 2011SOL     OW18063   5.105   7.783   5.413
 2011SOL    HW118064   5.182   7.745   5.361
 2011SOL    HW218065   5.044   7.832   5.351
 2012SOL     OW18066   3.013   8.226   0.861
 2012SOL    HW118067   2.974   8.288   0.794
 2012SOL    HW218068   3.099   8.188   0.826
 2013SOL     OW18069   9.574   7.436   1.930
 2013SOL    HW118070   9.530   7.471   2.012
 2013SOL    HW218071   9.633   7.506   1.890
 2014SOL     OW18072   1.925   7.282   6.840
 2014SOL    HW118073   1.979   7.365   6.854
 2014SOL    HW218074   1.981   7.202   6.860
 2015SOL     OW18075   5.362   7.782   5.282
 2015SOL    HW118076   5.326   7.736   5.201
 2015SOL    HW218077   5.456   7.811   5.265
 2016SOL     OW18078   6.297   0.647   1.664
 2016SOL    HW118079   6.377   0.634   1.722
 2016SOL    HW218080   6.220   0.679   1.720
 2017SOL     OW18081   3.920   7.237   1.545
 2017SOL    HW118082   3.982   7.221   1.622
 2017SOL    HW218083   3.933   7.330   1.511
 2018SOL     OW18084   3.485   7.140   1.611
 2018SOL    HW118085   3.444   7.051   1.628
 2018SOL    HW218086   3.490   7.191   1.697
 2019SOL     OW18087   8.399   5.835   6.434
 2019SOL    HW118088   8.354   5.759   6.481
 2019SOL    HW218089   8.338   5.872   6.364
 2020SOL     OW18090   9.449   8.184   1.212
 2020SOL    HW118091   9.482   8.221   1.299
 2020SOL    HW218092   9.408   8.258   1.158
 2021SOL     OW18093   4.821   3.499   6.646
 2021SOL    HW118094   4.849   3.424   6.706
 2021SOL    HW218095   4.875   3.581   6.667
 2022SOL     OW18096   4.238   5.230   1.755
 2022SOL    HW118097   4.159   5.223   1.817
 2022SOL    HW218098   4.313   5.275   1.803
 2023SOL     OW18099   9.260   4.195   5.894
 2023SOL    HW118100   9.283   4.124   5.828
 2023SOL    HW218101   9.208   4.267   5.848
 2024SOL     OW18102   1.082   4.655   0.777
 2024SOL    HW118103   1.105   4.751   0.758
 2024SOL    HW218104   1.131   4.597   0.712
 2025SOL     OW18105   3.085   7.853   1.188
 2025SOL    HW118106   3.010   7.893   1.134
 2025SOL    HW218107   3.054   7.767   1.228
 2026SOL     OW18108   7.020   7.914   6.120
 2026SOL    HW118109   6.979   7.857   6.049
 2026SOL    HW218110   6.957   7.923   6.197
 2027SOL     OW18111   8.413   7.831   5.814
 2027SOL    HW118112   8.341   7.879   5.864
 2027SOL    HW218113   8.449   7.891   5.742
 2028SOL     OW18114   7.465   0.726   6.234
 2028SOL    HW118115   7.482   0.655   6.302
 2028SOL    HW218116   7.417   0.686   6.156
 2029SOL     OW18117   4.181   2.415   6.572
 2029SOL    HW118118   4.152   2.347   6.505
 2029SOL    HW218119   4.143   2.504   6.548
 2030SOL     OW18120   7.134   6.801   0.985
 2030SOL    HW118121   7.061   6.869   0.991
 2030SOL    HW218122   7.210   6.828   1.045
 2031SOL     OW18123   6.454   1.358   1.225
 2031SOL    HW118124   6.486   1.296   1.296
 2031SOL    HW218125   6.500   1.447   1.235
 2032SOL     OW18126   7.229   2.839   5.711
 2032SOL    HW118127   7.148   2.791   5.676
 2032SOL    HW218128   7.310   2.806   5.663
 2033SOL     OW18129   7.034   5.351   1.313
 2033SOL    HW118130   7.006   5.367   1.407
 2033SOL    HW218131   7.113   5.408   1.291
 2034SOL     OW18132   0.601   5.920   6.650
 2034SOL    HW118133   0.635   6.013   6.634
 2034SOL    HW218134   0.645   5.858   6.586
 2035SOL     OW18135   3.652   3.590   1.463
 2035SOL    HW118136   3.668   3.621   1.557
 2035SOL    HW218137   3.563   3.623   1.432
 2036SOL     OW18138   6.701   3.363   0.865
 2036SOL    HW118139   6.657   3.273   0.874
 2036SOL    HW218140   6.798   3.355   0.888
 2037SOL     OW18141   6.244   7.888   6.325
 2037SOL    HW118142   6.270   7.833   6.404
 2037SOL    HW218143   6.172   7.952   6.351
 2038SOL     OW18144   5.490   5.342   1.086
 2038SOL    HW118145   5.496   5.316   0.989
 2038SOL    HW218146   5.403   5.388   1.103
 2039SOL     OW18147   1.581   7.755   0.466
 2039SOL    HW118148   1.648   7.824   0.492
 2039SOL    HW218149   1.616   7.701   0.389
 2040SOL     OW18150   6.726   0.280   0.805
 2040SOL    HW118151   6.785   0.360   0.793
 2040SOL    HW218152   6.759   0.226   0.883
 2041SOL     OW18153   4.152   4.904   1.622
 2041SOL    HW118154   4.138   5.001   1.602
 2041SOL    HW218155   4.162   4.853   1.536
 2042SOL     OW18156   3.631   1.105   6.913
 2042SOL    HW118157   3.622   1.028   6.850
 2042SOL    HW218158   3.578   1.087   6.996
 2043SOL     OW18159   0.917   2.535   6.552
 2043SOL    HW118160   1.013   2.505   6.554
 2043SOL    HW218161   0.871   2.504   6.635
 2044SOL     OW18162   5.360   4.452   1.134
 2044SOL    HW118163   5.330   4.435   1.040
 2044SOL    HW218164   5.427   4.526   1.135
 2045SOL     OW18165   6.409   0.854   0.490
 2045SOL    HW118166   6.429   0.759   0.467
 2045SOL    HW218167   6.327   0.884   0.441
 2046SOL     OW18168   7.176   1.309   0.737
 2046SOL    HW118169   7.143   1.264   0.654
 2046SOL    HW218170   7.200   1.404   0.716
 2047SOL     OW18171   3.692   6.140   0.586
 2047SOL    HW118172   3.763   6.081   0.625
 2047SOL    HW218173   3.732   6.230   0.567
 2048SOL     OW18174   3.842   2.862   1.731
 2048SOL    HW118175   3.822   2.815   1.645
 2048SOL    HW218176   3.863   2.794   1.802
 2049SOL     OW18177   2.949   6.905   1.516
 2049SOL    HW118178   2.892   6.946   1.588
 2049SOL    HW218179   3.017   6.845   1.559
 2050SOL     OW18180   1.019   2.745   5.513
 2050SOL    HW118181   1.111   2.782   5.519
 2050SOL    HW218182   0.956   2.816   5.483
 2051SOL     OW18183   2.616   1.234   1.589
 2051SOL    HW118184   2.681   1.187   1.650
 2051SOL    HW218185   2.595   1.175   1.511
 2052SOL     OW18186   2.364   2.953   0.549
 2052SOL    HW118187   2.413   2.878   0.595
 2052SOL    HW218188   2.321   2.918   0.466
 2053SOL     OW18189   1.321   7.845   5.984
 2053SOL    HW118190   1.320   7.745   5.974
 2053SOL    HW218191   1.372   7.885   5.908
 2054SOL     OW18192   6.963   3.380   0.937
 2054SOL    HW118193   6.956   3.479   0.949
 2054SOL    HW218194   7.044   3.346   0.985
 2055SOL     OW18195   0.360   5.772   5.801
 2055SOL    HW118196   0.422   5.791   5.725
 2055SOL    HW218197   0.269   5.750   5.766
 2056SOL     OW18198   5.614   2.334   0.423
 2056SOL    HW118199   5.670   2.286   0.356
 2056SOL    HW218200   5.603   2.429   0.397
 2057SOL     OW18201   4.220   1.654   1.752
 2057SOL    HW118202   4.300   1.624   1.700
 2057SOL    HW218203   4.214   1.754   1.749
 2058SOL     OW18204   4.623   4.521   0.268
 2058SOL    HW118205   4.541   4.513   0.211
 2058SOL    HW218206   4.671   4.433   0.268
 2059SOL     OW18207   6.249   4.203   5.223
 2059SOL    HW118208   6.203   4.291   5.214
 2059SOL    HW218209   6.274   4.188   5.319
 2060SOL     OW18210   7.948   0.273   1.333
 2060SOL    HW118211   7.946   0.216   1.416
 2060SOL    HW218212   7.993   0.223   1.259
 2061SOL     OW18213   3.536   0.422   0.968
 2061SOL    HW118214   3.501   0.414   0.875
 2061SOL    HW218215   3.509   0.510   1.007
 2062SOL     OW18216   8.375   6.651   5.247
 2062SOL    HW118217   8.375   6.580   5.176
 2062SOL    HW218218   8.334   6.614   5.330
 2063SOL     OW18219   7.469   8.300   0.788
 2063SOL    HW118220   7.424   8.215   0.815
 2063SOL    HW218221   7.442   8.323   0.694
 2064SOL     OW18222   1.665   4.936   5.643
 2064SOL    HW118223   1.628   4.843   5.632
 2064SOL    HW218224   1.735   4.952   5.574
 2065SOL     OW18225   6.628   5.724   5.882
 2065SOL    HW118226   6.568   5.645   5.868
 2065SOL    HW218227   6.585   5.805   5.843
 2066SOL     OW18228   1.709   7.833   6.724
 2066SOL    HW118229   1.659   7.916   6.748
 2066SOL    HW218230   1.649   7.772   6.672
 2067SOL     OW18231   2.573   7.286   5.548
 2067SOL    HW118232   2.637   7.209   5.538
 2067SOL    HW218233   2.526   7.301   5.461
 2068SOL     OW18234   0.587   0.313   0.306
 2068SOL    HW118235   0.672   0.279   0.344
 2068SOL    HW218236   0.586   0.413   0.311
 2069SOL     OW18237   4.228   5.549   6.349
 2069SOL    HW118238   4.135   5.552   6.387
 2069SOL    HW218239   4.235   5.612   6.273
 2070SOL     OW18240   5.412   4.765   6.165
 2070SOL    HW118241   5.451   4.683   6.205
 2070SOL    HW218242   5.335   4.796   6.220
 2071SOL     OW18243   7.631   3.620   6.282
 2071SOL    HW118244   7.595   3.685   6.216
 2071SOL    HW218245   7.722   3.591   6.253
 2072SOL     OW18246   4.748   7.616   5.599
 2072SOL    HW118247   4.724   7.562   5.519
 2072SOL    HW218248   4.847   7.613   5.612
 2073SOL     OW18249   4.002   1.777   1.159
 2073SOL    HW118250   3.919   1.730   1.129
 2073SOL    HW218251   4.035   1.837   1.086
 2074SOL     OW18252   6.796   6.716   5.189
 2074SOL    HW118253   6.703   6.684   5.204
 2074SOL    HW218254   6.820   6.704   5.092
 2075SOL     OW18255   1.366   8.134   5.951
 2075SOL    HW118256   1.349   8.225   5.911
 2075SOL    HW218257   1.461   8.129   5.982
 2076SOL     OW18258   4.941   6.838   1.872
 2076SOL    HW118259   5.008   6.771   1.902
 2076SOL    HW218260   4.873   6.853   1.944
 2077SOL     OW18261   0.864   2.110   1.044
 2077SOL    HW118262   0.833   2.182   1.106
 2077SOL    HW218263   0.961   2.120   1.026
 2078SOL     OW18264   4.652   1.220   6.812
 2078SOL    HW118265   4.696   1.177   6.733
 2078SOL    HW218266   4.640   1.152   6.884
 2079SOL     OW18267   8.878   8.420   5.365
 2079SOL    HW118268   8.797   8.457   5.319
 2079SOL    HW218269   8.855   8.332   5.406
 2080SOL     OW18270   7.336   0.037   0.353
 2080SOL    HW118271   7.357   0.072   0.445
 2080SOL    HW218272   7.372  -0.056   0.344
 2081SOL     OW18273   3.236   0.707   2.019
 2081SOL    HW118274   3.268   0.802   2.020
 2081SOL    HW218275   3.312   0.647   1.993
 2082SOL     OW18276   6.040   7.116   6.842
 2082SOL    HW118277   6.013   7.046   6.775
 2082SOL    HW218278   6.134   7.098   6.873
 2083SOL     OW18279   1.085   3.224   6.018
 2083SOL    HW118280   1.095   3.137   6.065
 2083SOL    HW218281   1.093   3.299   6.083
 2084SOL     OW18282   0.720   4.207   0.713
 2084SOL    HW118283   0.665   4.158   0.646
 2084SOL    HW218284   0.716   4.305   0.693
 2085SOL     OW18285   2.838   2.462   0.682
 2085SOL    HW118286   2.921   2.517   0.686
 2085SOL    HW218287   2.860   2.372   0.645
 2086SOL     OW18288   3.571   1.315   5.980
 2086SOL    HW118289   3.584   1.226   6.024
 2086SOL    HW218290   3.479   1.319   5.942
 2087SOL     OW18291   4.056   0.221   1.705
 2087SOL    HW118292   3.995   0.227   1.625
 2087SOL    HW218293   4.140   0.173   1.679
 2088SOL     OW18294   2.731   1.959   1.873
 2088SOL    HW118295   2.728   1.909   1.787
 2088SOL    HW218296   2.651   1.936   1.928
 2089SOL     OW18297   5.220   6.746   2.171
 2089SOL    HW118298   5.195   6.842   2.162
 2089SOL    HW218299   5.198   6.697   2.087
 2090SOL     OW18300   1.233   0.378   1.301
 2090SOL    HW118301   1.146   0.421   1.326
 2090SOL    HW218302   1.299   0.392   1.375
 2091SOL     OW18303   4.894   7.434   5.113
 2091SOL    HW118304   4.980   7.482   5.129
 2091SOL    HW218305   4.848   7.473   5.033
 2092SOL     OW18306   4.420   1.347   6.461
 2092SOL    HW118307   4.476   1.283   6.407
 2092SOL    HW218308   4.480   1.412   6.508
 2093SOL     OW18309   1.692   1.346   6.924
 2093SOL    HW118310   1.777   1.377   6.967
 2093SOL    HW218311   1.615   1.394   6.964
 2094SOL     OW18312   7.475  -0.023   6.584
 2094SOL    HW118313   7.538  -0.099   6.566
 2094SOL    HW218314   7.468  -0.010   6.683
 2095SOL     OW18315   2.584   6.961   5.943
 2095SOL    HW118316   2.588   7.060   5.953
 2095SOL    HW218317   2.566   6.919   6.032
 2096SOL     OW18318   5.336   6.722   0.643
 2096SOL    HW118319   5.343   6.649   0.711
 2096SOL    HW218320   5.255   6.777   0.662
 2097SOL     OW18321   6.570   6.326   1.606
 2097SOL    HW118322   6.661   6.288   1.623
 2097SOL    HW218323   6.500   6.257   1.626
 2098SOL     OW18324   2.752   5.812   0.902
 2098SOL    HW118325   2.764   5.713   0.899
 2098SOL    HW218326   2.790   5.848   0.987
 2099SOL     OW18327   2.050   0.792   0.664
 2099SOL    HW118328   2.106   0.724   0.616
 2099SOL    HW218329   2.073   0.884   0.631
 2100SOL     OW18330   1.630   4.404   5.717
 2100SOL    HW118331   1.588   4.401   5.626
 2100SOL    HW218332   1.705   4.469   5.718
 2101SOL     OW18333   4.255   6.198   6.554
 2101SOL    HW118334   4.329   6.211   6.621
 2101SOL    HW218335   4.235   6.285   6.509
 2102SOL     OW18336   1.411   7.994   0.375
 2102SOL    HW118337   1.457   7.906   0.391
 2102SOL    HW218338   1.450   8.062   0.437
 2103SOL     OW18339   0.118   6.512   4.480
 2103SOL    HW118340   0.045   6.578   4.462
 2103SOL    HW218341   0.184   6.515   4.405
 2104SOL     OW18342   6.246   3.427   0.366
 2104SOL    HW118343   6.190   3.439   0.448
 2104SOL    HW218344   6.332   3.383   0.391
 2105SOL     OW18345   8.607   6.974   4.850
 2105SOL    HW118346   8.671   6.929   4.788
 2105SOL    HW218347   8.514   6.941   4.832
 2106SOL     OW18348   9.440   2.741   5.768
 2106SOL    HW118349   9.356   2.782   5.803
 2106SOL    HW218350   9.488   2.808   5.710
 2107SOL     OW18351   5.226   1.306   0.880
 2107SOL    HW118352   5.131   1.305   0.848
 2107SOL    HW218353   5.227   1.300   0.980
 2108SOL     OW18354   5.337   0.980   0.778
 2108SOL    HW118355   5.373   1.067   0.812
 2108SOL    HW218356   5.237   0.985   0.773
 2109SOL     OW18357   3.460   1.417   6.374
 2109SOL    HW118358   3.387   1.430   6.441
 2109SOL    HW218359   3.431   1.454   6.286
 2110SOL     OW18360   5.474   1.194   6.142
 2110SOL    HW118361   5.395   1.251   6.121
 2110SOL    HW218362   5.506   1.214   6.235
 2111SOL     OW18363   3.196   0.045   1.465
 2111SOL    HW118364   3.182   0.117   1.398
 2111SOL    HW218365   3.278  -0.007   1.442
 2112SOL     OW18366   8.335   3.036   6.465
 2112SOL    HW118367   8.246   2.997   6.489
 2112SOL    HW218368   8.404   2.963   6.462
 2113SOL     OW18369   3.978   3.786   0.596
 2113SOL    HW118370   3.977   3.883   0.570
 2113SOL    HW218371   4.070   3.760   0.624
 2114SOL     OW18372   5.075   2.584   0.322
 2114SOL    HW118373   4.988   2.558   0.364
 2114SOL    HW218374   5.121   2.502   0.288
 2115SOL     OW18375   8.585   8.238   5.979
 2115SOL    HW118376   8.641   8.321   5.982
 2115SOL    HW218377   8.489   8.263   5.989
 2116SOL     OW18378   8.311   7.879   0.825
 2116SOL    HW118379   8.340   7.951   0.761
 2116SOL    HW218380   8.288   7.919   0.913
 2117SOL     OW18381   0.279   1.595   6.788
 2117SOL    HW118382   0.332   1.518   6.824
 2117SOL    HW218383   0.337   1.677   6.785
 2118SOL     OW18384   6.733   2.050   6.343
 2118SOL    HW118385   6.731   2.011   6.435
 2118SOL    HW218386   6.693   2.141   6.345
 2119SOL     OW18387   4.993   3.423   0.598
 2119SOL    HW118388   5.066   3.464   0.542
 2119SOL    HW218389   5.034   3.376   0.676
 2120SOL     OW18390   9.067   3.157   0.611
 2120SOL    HW118391   9.155   3.203   0.627
 2120SOL    HW218392   9.022   3.199   0.532
 2121SOL     OW18393   1.089   5.828   0.205
 2121SOL    HW118394   1.048   5.752   0.257
 2121SOL    HW218395   1.180   5.847   0.241
 2122SOL     OW18396   9.423   2.170   0.987
 2122SOL    HW118397   9.505   2.115   0.972
 2122SOL    HW218398   9.440   2.263   0.954
 2123SOL     OW18399   3.298   7.653   0.277
 2123SOL    HW118400   3.330   7.600   0.355
 2123SOL    HW218401   3.295   7.750   0.301
 2124SOL     OW18402   6.173   1.913   5.742
 2124SOL    HW118403   6.081   1.884   5.718
 2124SOL    HW218404   6.182   2.012   5.732
 2125SOL     OW18405   3.723   1.823   1.650
 2125SOL    HW118406   3.775   1.908   1.662
 2125SOL    HW218407   3.780   1.756   1.602
 2126SOL     OW18408   7.419   8.154   5.646
 2126SOL    HW118409   7.350   8.226   5.634
 2126SOL    HW218410   7.440   8.144   5.743
 2127SOL     OW18411   1.054   8.074   6.021
 2127SOL    HW118412   1.104   8.144   6.073
 2127SOL    HW218413   1.119   8.016   5.973
 2128SOL     OW18414   9.378   6.815   0.868
 2128SOL    HW118415   9.477   6.816   0.854
 2128SOL    HW218416   9.333   6.778   0.786
 2129SOL     OW18417   2.992   6.140   0.556
 2129SOL    HW118418   2.975   6.086   0.639
 2129SOL    HW218419   2.905   6.174   0.520
 2130SOL     OW18420   8.275   2.640   6.712
 2130SOL    HW118421   8.340   2.564   6.720
 2130SOL    HW218422   8.290   2.705   6.786
 2131SOL     OW18423   7.120   8.244   1.000
 2131SOL    HW118424   7.185   8.167   0.992
 2131SOL    HW218425   7.169   8.330   0.982
 2132SOL     OW18426   6.575   5.160   0.308
 2132SOL    HW118427   6.536   5.207   0.229
 2132SOL    HW218428   6.643   5.093   0.278
 2133SOL     OW18429   1.271   6.679   6.000
 2133SOL    HW118430   1.314   6.685   5.910
 2133SOL    HW218431   1.300   6.595   6.046
 2134SOL     OW18432   3.338   1.281   0.233
 2134SOL    HW118433   3.370   1.203   0.288
 2134SOL    HW218434   3.414   1.346   0.221
 2135SOL     OW18435   9.412   3.618   0.776
 2135SOL    HW118436   9.454   3.706   0.798
 2135SOL    HW218437   9.329   3.606   0.832
 2136SOL     OW18438   3.417   4.000   6.915
 2136SOL    HW118439   3.417   3.918   6.858
 2136SOL    HW218440   3.430   3.975   7.011
 2137SOL     OW18441   2.731   8.291   0.226
 2137SOL    HW118442   2.742   8.385   0.196
 2137SOL    HW218443   2.708   8.289   0.324
 2138SOL     OW18444   1.997   4.009   0.835
 2138SOL    HW118445   1.918   3.963   0.875
 2138SOL    HW218446   1.969   4.057   0.752
 2139SOL     OW18447   2.352   2.507   5.600
 2139SOL    HW118448   2.347   2.503   5.700
 2139SOL    HW218449   2.302   2.430   5.561
 2140SOL     OW18450   3.883   1.895   6.040
 2140SOL    HW118451   3.898   1.808   6.086
 2140SOL    HW218452   3.968   1.925   5.997
 2141SOL     OW18453   1.496   5.327   5.901
 2141SOL    HW118454   1.592   5.310   5.924
 2141SOL    HW218455   1.448   5.239   5.891
 2142SOL     OW18456   6.651   1.073   1.136
 2142SOL    HW118457   6.627   1.018   1.215
 2142SOL    HW218458   6.747   1.059   1.113
 2143SOL     OW18459   0.233   1.753   0.527
 2143SOL    HW118460   0.195   1.828   0.581
 2143SOL    HW218461   0.199   1.758   0.433
 2144SOL     OW18462   6.732   3.297   1.612
 2144SOL    HW118463   6.815   3.340   1.574
 2144SOL    HW218464   6.721   3.326   1.707
 2145SOL     OW18465   5.600   6.572   1.692
 2145SOL    HW118466   5.614   6.508   1.768
 2145SOL    HW218467   5.520   6.544   1.640
 2146SOL     OW18468   4.832   6.766   5.048
 2146SOL    HW118469   4.807   6.748   4.953
 2146SOL    HW218470   4.769   6.833   5.087
 2147SOL     OW18471   7.045   0.099   1.922
 2147SOL    HW118472   6.947   0.080   1.924
 2147SOL    HW218473   7.062   0.187   1.966
 2148SOL     OW18474   2.972   1.340   6.378
 2148SOL    HW118475   3.004   1.400   6.450
 2148SOL    HW218476   3.027   1.354   6.295
 2149SOL     OW18477   2.000   6.734   6.914
 2149SOL    HW118478   2.098   6.745   6.899
 2149SOL    HW218479   1.981   6.639   6.938
 2150SOL     OW18480   4.638   1.918   5.690
 2150SOL    HW118481   4.636   1.819   5.678
 2150SOL    HW218482   4.546   1.951   5.710
 2151SOL     OW18483   6.471  -0.017   1.299
 2151SOL    HW118484   6.519  -0.062   1.224
 2151SOL    HW218485   6.523   0.061   1.331
 2152SOL     OW18486   3.043   8.135   0.553
 2152SOL    HW118487   3.127   8.096   0.591
 2152SOL    HW218488   3.048   8.235   0.557
 2153SOL     OW18489   1.292   2.693   0.698
 2153SOL    HW118490   1.366   2.760   0.689
 2153SOL    HW218491   1.238   2.714   0.779
 2154SOL     OW18492   4.932   0.208   5.502
 2154SOL    HW118493   4.902   0.206   5.406
 2154SOL    HW218494   4.895   0.290   5.547
 2155SOL     OW18495   2.751   1.818   6.499
 2155SOL    HW118496   2.664   1.772   6.480
 2155SOL    HW218497   2.735   1.915   6.515
 2156SOL     OW18498   9.084   2.169   0.801
 2156SOL    HW118499   9.114   2.111   0.877
 2156SOL    HW218500   9.010   2.229   0.832
 2157SOL     OW18501   0.719   4.794   6.557
 2157SOL    HW118502   0.679   4.812   6.467
 2157SOL    HW218503   0.714   4.876   6.613
 2158SOL     OW18504   8.052   7.331   0.779
 2158SOL    HW118505   8.022   7.249   0.827
 2158SOL    HW218506   8.092   7.395   0.845
 2159SOL     OW18507   9.558   4.791   5.524
 2159SOL    HW118508   9.575   4.722   5.453
 2159SOL    HW218509   9.518   4.872   5.481
 2160SOL     OW18510   5.557   6.718   0.485
 2160SOL    HW118511   5.610   6.647   0.531
 2160SOL    HW218512   5.481   6.747   0.544
 2161SOL     OW18513   2.000   8.194   5.865
 2161SOL    HW118514   1.949   8.192   5.951
 2161SOL    HW218515   2.031   8.287   5.848
 2162SOL     OW18516   4.338   7.901   6.606
 2162SOL    HW118517   4.267   7.888   6.676
 2162SOL    HW218518   4.332   7.993   6.570
 2163SOL     OW18519   3.882   1.159   0.328
 2163SOL    HW118520   3.848   1.223   0.397
 2163SOL    HW218521   3.808   1.133   0.267
 2164SOL     OW18522   9.222   2.786   0.347
 2164SOL    HW118523   9.215   2.874   0.396
 2164SOL    HW218524   9.273   2.799   0.263
 2165SOL     OW18525   9.154   5.196   1.398
 2165SOL    HW118526   9.059   5.227   1.400
 2165SOL    HW218527   9.186   5.179   1.491
 2166SOL     OW18528   8.724   2.558   0.452
 2166SOL    HW118529   8.653   2.621   0.485
 2166SOL    HW218530   8.813   2.589   0.487
 2167SOL     OW18531   4.554   0.512   1.708
 2167SOL    HW118532   4.618   0.537   1.635
 2167SOL    HW218533   4.605   0.471   1.783
 2168SOL     OW18534   0.771   7.735   5.356
 2168SOL    HW118535   0.713   7.721   5.275
 2168SOL    HW218536   0.796   7.647   5.395
 2169SOL     OW18537   8.616   3.922   5.675
 2169SOL    HW118538   8.558   3.931   5.594
 2169SOL    HW218539   8.669   4.005   5.688
 2170SOL     OW18540   4.549   2.199   6.721
 2170SOL    HW118541   4.480   2.269   6.702
 2170SOL    HW218542   4.603   2.227   6.801
 2171SOL     OW18543   4.218   2.705   1.051
 2171SOL    HW118544   4.186   2.780   0.993
 2171SOL    HW218545   4.142   2.643   1.071
 2172SOL     OW18546   4.205   6.097   2.549
 2172SOL    HW118547   4.122   6.125   2.596
 2172SOL    HW218548   4.269   6.173   2.545
 2173SOL     OW18549   6.850   3.962   0.440
 2173SOL    HW118550   6.810   3.971   0.532
 2173SOL    HW218551   6.876   3.867   0.425
 2174SOL     OW18552   8.386   4.093   1.303
 2174SOL    HW118553   8.481   4.084   1.330
 2174SOL    HW218554   8.338   4.006   1.316
 2175SOL     OW18555   2.830   0.368   6.843
 2175SOL    HW118556   2.856   0.461   6.866
 2175SOL    HW218557   2.911   0.309   6.847
 2176SOL     OW18558   6.537   3.800   0.787
 2176SOL    HW118559   6.496   3.881   0.829
 2176SOL    HW218560   6.466   3.747   0.741
 2177SOL     OW18561   4.460   6.353   1.673
 2177SOL    HW118562   4.438   6.324   1.766
 2177SOL    HW218563   4.551   6.321   1.648
 2178SOL     OW18564   2.931   5.865   5.456
 2178SOL    HW118565   2.947   5.800   5.382
 2178SOL    HW218566   2.878   5.942   5.422
 2179SOL     OW18567   4.536   0.865   2.405
 2179SOL    HW118568   4.581   0.954   2.417
 2179SOL    HW218569   4.443   0.879   2.373
 2180SOL     OW18570   6.409   5.172   1.784
 2180SOL    HW118571   6.437   5.168   1.688
 2180SOL    HW218572   6.459   5.103   1.836
 2181SOL     OW18573   1.077   4.849   5.629
 2181SOL    HW118574   1.047   4.825   5.537
 2181SOL    HW218575   1.177   4.849   5.633
 2182SOL     OW18576   4.993   6.581   0.391
 2182SOL    HW118577   5.073   6.640   0.385
 2182SOL    HW218578   5.022   6.488   0.415
 2183SOL     OW18579   7.981   3.531   6.370
 2183SOL    HW118580   7.944   3.568   6.285
 2183SOL    HW218581   8.073   3.495   6.354
 2184SOL     OW18582   8.396   2.741   1.207
 2184SOL    HW118583   8.489   2.708   1.223
 2184SOL    HW218584   8.352   2.763   1.294
 2185SOL     OW18585   5.508   7.397   0.914
 2185SOL    HW118586   5.550   7.463   0.976
 2185SOL    HW218587   5.473   7.319   0.966
 2186SOL     OW18588   5.353   5.437   6.636
 2186SOL    HW118589   5.439   5.399   6.604
 2186SOL    HW218590   5.371   5.521   6.688
 2187SOL     OW18591   5.267   1.725   6.174
 2187SOL    HW118592   5.223   1.798   6.224
 2187SOL    HW218593   5.252   1.638   6.221
 2188SOL     OW18594   3.842   6.619   0.781
 2188SOL    HW118595   3.925   6.593   0.831
 2188SOL    HW218596   3.763   6.574   0.823
 2189SOL     OW18597   8.713   2.633   6.414
 2189SOL    HW118598   8.775   2.555   6.407
 2189SOL    HW218599   8.637   2.610   6.475
 2190SOL     OW18600   6.049   7.926   6.044
 2190SOL    HW118601   6.022   7.882   6.130
 2190SOL    HW218602   6.142   7.898   6.021
 2191SOL     OW18603   3.438   8.139   0.884
 2191SOL    HW118604   3.457   8.192   0.967
 2191SOL    HW218605   3.518   8.084   0.861
 2192SOL     OW18606   8.871   7.102   1.291
 2192SOL    HW118607   8.908   7.072   1.379
 2192SOL    HW218608   8.913   7.189   1.265
 2193SOL     OW18609   8.916   2.689   6.667
 2193SOL    HW118610   8.869   2.776   6.649
 2193SOL    HW218611   8.935   2.643   6.581
 2194SOL     OW18612   1.671   5.805   6.832
 2194SOL    HW118613   1.602   5.874   6.810
 2194SOL    HW218614   1.759   5.849   6.848
 2195SOL     OW18615   0.298   0.877   6.767
 2195SOL    HW118616   0.369   0.909   6.830
 2195SOL    HW218617   0.339   0.814   6.701
 2196SOL     OW18618   9.404   0.345   0.342
 2196SOL    HW118619   9.409   0.253   0.302
 2196SOL    HW218620   9.488   0.395   0.321
 2197SOL     OW18621   0.122   7.059   1.017
 2197SOL    HW118622   0.130   7.000   0.936
 2197SOL    HW218623   0.099   7.002   1.097
 2198SOL     OW18624   3.075   5.216   0.493
 2198SOL    HW118625   3.122   5.203   0.581
 2198SOL    HW218626   3.007   5.288   0.502
 2199SOL     OW18627   5.191   6.800   0.952
 2199SOL    HW118628   5.100   6.791   0.911
 2199SOL    HW218629   5.234   6.884   0.917
 2200SOL     OW18630   6.402   7.563   5.243
 2200SOL    HW118631   6.423   7.660   5.240
 2200SOL    HW218632   6.486   7.510   5.230
 2201SOL     OW18633   8.146   3.642   6.750
 2201SOL    HW118634   8.114   3.661   6.843
 2201SOL    HW218635   8.097   3.702   6.685
 2202SOL     OW18636   1.715   0.962   5.868
 2202SOL    HW118637   1.755   0.904   5.798
 2202SOL    HW218638   1.622   0.930   5.889
 2203SOL     OW18639   4.609   4.476   0.565
 2203SOL    HW118640   4.512   4.454   0.575
 2203SOL    HW218641   4.645   4.429   0.484
 2204SOL     OW18642   3.391   5.925   5.815
 2204SOL    HW118643   3.389   5.865   5.896
 2204SOL    HW218644   3.446   5.882   5.744
 2205SOL     OW18645   9.356   3.766   1.154
 2205SOL    HW118646   9.453   3.745   1.140
 2205SOL    HW218647   9.334   3.758   1.251
 2206SOL     OW18648   2.351   1.856   0.533
 2206SOL    HW118649   2.285   1.886   0.602
 2206SOL    HW218650   2.413   1.932   0.511
 2207SOL     OW18651   4.032   7.110   2.670
 2207SOL    HW118652   4.095   7.052   2.619
 2207SOL    HW218653   3.956   7.054   2.704
 2208SOL     OW18654   0.391   7.574   0.375
 2208SOL    HW118655   0.342   7.582   0.462
 2208SOL    HW218656   0.485   7.607   0.387
 2209SOL     OW18657   2.363   6.286   0.686
 2209SOL    HW118658   2.419   6.231   0.748
 2209SOL    HW218659   2.406   6.376   0.674
 2210SOL     OW18660   7.169   5.394   0.421
 2210SOL    HW118661   7.127   5.444   0.496
 2210SOL    HW218662   7.265   5.378   0.442
 2211SOL     OW18663   5.590   6.445   5.718
 2211SOL    HW118664   5.633   6.355   5.711
 2211SOL    HW218665   5.538   6.464   5.634
 2212SOL     OW18666   0.608   2.113   1.368
 2212SOL    HW118667   0.679   2.066   1.422
 2212SOL    HW218668   0.577   2.194   1.417
 2213SOL     OW18669   3.199   0.522   2.322
 2213SOL    HW118670   3.195   0.609   2.371
 2213SOL    HW218671   3.245   0.454   2.380
 2214SOL     OW18672   5.515   3.562   0.397
 2214SOL    HW118673   5.419   3.535   0.396
 2214SOL    HW218674   5.560   3.524   0.478
 2215SOL     OW18675   4.640   2.653   0.858
 2215SOL    HW118676   4.608   2.574   0.910
 2215SOL    HW218677   4.581   2.731   0.876
 2216SOL     OW18678   9.554   1.044   0.608
 2216SOL    HW118679   9.541   1.130   0.657
 2216SOL    HW218680   9.649   1.036   0.578
 2217SOL     OW18681   3.326   7.547   5.690
 2217SOL    HW118682   3.240   7.512   5.653
 2217SOL    HW218683   3.309   7.631   5.741
 2218SOL     OW18684   4.355   4.565   1.637
 2218SOL    HW118685   4.309   4.603   1.558
 2218SOL    HW218686   4.317   4.604   1.721
 2219SOL     OW18687   2.352   6.629   6.077
 2219SOL    HW118688   2.343   6.537   6.115
 2219SOL    HW218689   2.445   6.663   6.095
 2220SOL     OW18690   0.508   4.089   6.543
 2220SOL    HW118691   0.438   4.092   6.614
 2220SOL    HW218692   0.594   4.058   6.583
 2221SOL     OW18693   4.165   0.634   5.250
 2221SOL    HW118694   4.167   0.712   5.312
 2221SOL    HW218695   4.177   0.666   5.156
 2222SOL     OW18696   2.704   1.630   2.481
 2222SOL    HW118697   2.694   1.620   2.382
 2222SOL    HW218698   2.710   1.540   2.524
 2223SOL     OW18699   2.539   6.311   0.249
 2223SOL    HW118700   2.491   6.396   0.226
 2223SOL    HW218701   2.638   6.326   0.244
 2224SOL     OW18702   3.266   0.145   0.823
 2224SOL    HW118703   3.265   0.220   0.889
 2224SOL    HW218704   3.176   0.102   0.819
 2225SOL     OW18705   2.820   7.574   5.584
 2225SOL    HW118706   2.767   7.529   5.656
 2225SOL    HW218707   2.883   7.509   5.544
 2226SOL     OW18708   4.331   5.775   1.389
 2226SOL    HW118709   4.337   5.764   1.290
 2226SOL    HW218710   4.331   5.685   1.433
 2227SOL     OW18711   5.565   7.680   6.436
 2227SOL    HW118712   5.478   7.653   6.478
 2227SOL    HW218713   5.634   7.694   6.507
 2228SOL     OW18714   4.236   3.054   6.815
 2228SOL    HW118715   4.328   3.091   6.802
 2228SOL    HW218716   4.240   2.954   6.817
 2229SOL     OW18717   4.251   5.317   0.307
 2229SOL    HW118718   4.193   5.252   0.257
 2229SOL    HW218719   4.284   5.387   0.244
 2230SOL     OW18720   3.885   5.333   1.243
 2230SOL    HW118721   3.861   5.251   1.191
 2230SOL    HW218722   3.816   5.349   1.314
 2231SOL     OW18723   7.326   6.732   0.209
 2231SOL    HW118724   7.265   6.731   0.130
 2231SOL    HW218725   7.271   6.726   0.293
 2232SOL     OW18726   2.543   4.019   0.455
 2232SOL    HW118727   2.524   3.997   0.550
 2232SOL    HW218728   2.566   3.936   0.405
 2233SOL     OW18729   8.516   7.557   5.746
 2233SOL    HW118730   8.447   7.542   5.817
 2233SOL    HW218731   8.500   7.645   5.702
 2234SOL     OW18732   4.903   6.996   1.141
 2234SOL    HW118733   4.929   6.958   1.052
 2234SOL    HW218734   4.803   7.006   1.145
 2235SOL     OW18735   6.591   5.539   0.795
 2235SOL    HW118736   6.680   5.494   0.807
 2235SOL    HW218737   6.603   5.638   0.800
 2236SOL     OW18738   5.932   3.202   0.279
 2236SOL    HW118739   5.873   3.263   0.228
 2236SOL    HW218740   5.997   3.158   0.217
 2237SOL     OW18741   2.736   0.861   2.142
 2237SOL    HW118742   2.683   0.793   2.092
 2237SOL    HW218743   2.828   0.827   2.159
 2238SOL     OW18744   4.709   2.442   1.128
 2238SOL    HW118745   4.692   2.527   1.179
 2238SOL    HW218746   4.625   2.413   1.083
 2239SOL     OW18747   7.085   3.817   6.840
 2239SOL    HW118748   7.175   3.792   6.805
 2239SOL    HW218749   7.063   3.760   6.920
 2240SOL     OW18750   3.501   6.807   0.811
 2240SOL    HW118751   3.564   6.882   0.833
 2240SOL    HW218752   3.495   6.797   0.712
 2241SOL     OW18753   0.112   5.661   5.689
 2241SOL    HW118754   0.163   5.588   5.643
 2241SOL    HW218755   0.081   5.728   5.622
 2242SOL     OW18756   2.456   0.046   5.026
 2242SOL    HW118757   2.428   0.038   4.930
 2242SOL    HW218758   2.535   0.107   5.033
 2243SOL     OW18759   8.071   7.227   0.516
 2243SOL    HW118760   8.048   7.276   0.599
 2243SOL    HW218761   8.170   7.229   0.502
 2244SOL     OW18762   2.744   2.365   1.666
 2244SOL    HW118763   2.824   2.306   1.678
 2244SOL    HW218764   2.710   2.393   1.755
 2245SOL     OW18765   3.239   0.979   1.023
 2245SOL    HW118766   3.148   0.965   1.063
 2245SOL    HW218767   3.239   1.064   0.970
 2246SOL     OW18768   5.114   2.811   6.839
 2246SOL    HW118769   5.183   2.813   6.767
 2246SOL    HW218770   5.160   2.799   6.928
 2247SOL     OW18771   9.435   0.475   1.025
 2247SOL    HW118772   9.525   0.515   1.010
 2247SOL    HW218773   9.424   0.395   0.965
 2248SOL     OW18774   0.979   2.204   6.177
 2248SOL    HW118775   1.004   2.198   6.081
 2248SOL    HW218776   0.956   2.298   6.200
 2249SOL     OW18777   0.989   5.893   6.110
 2249SOL    HW118778   0.889   5.886   6.114
 2249SOL    HW218779   1.024   5.906   6.203
 2250SOL     OW18780   5.760   4.255   5.915
 2250SOL    HW118781   5.677   4.300   5.947
 2250SOL    HW218782   5.736   4.178   5.857
 2251SOL     OW18783   9.456   6.874   1.239
 2251SOL    HW118784   9.361   6.903   1.222
 2251SOL    HW218785   9.469   6.859   1.337
 2252SOL     OW18786   7.714   3.735   6.859
 2252SOL    HW118787   7.780   3.665   6.889
 2252SOL    HW218788   7.622   3.695   6.858
 2253SOL     OW18789   2.532   0.502   6.356
 2253SOL    HW118790   2.611   0.449   6.325
 2253SOL    HW218791   2.464   0.441   6.396
 2254SOL     OW18792   7.497   2.001   0.928
 2254SOL    HW118793   7.591   1.979   0.901
 2254SOL    HW218794   7.440   2.007   0.846
 2255SOL     OW18795   3.444   0.704   2.267
 2255SOL    HW118796   3.367   0.673   2.211
 2255SOL    HW218797   3.529   0.675   2.224
 2256SOL     OW18798   1.153   8.124   5.603
 2256SOL    HW118799   1.121   8.031   5.615
 2256SOL    HW218800   1.106   8.185   5.667
 2257SOL     OW18801   1.067   5.956   5.538
 2257SOL    HW118802   0.997   5.942   5.608
 2257SOL    HW218803   1.148   5.996   5.579
 2258SOL     OW18804   2.218   1.605   5.704
 2258SOL    HW118805   2.227   1.646   5.613
 2258SOL    HW218806   2.125   1.621   5.738
 2259SOL     OW18807   8.676   3.423   1.147
 2259SOL    HW118808   8.730   3.457   1.070
 2259SOL    HW218809   8.580   3.420   1.122
 2260SOL     OW18810   0.724   3.598   5.694
 2260SOL    HW118811   0.640   3.558   5.658
 2260SOL    HW218812   0.709   3.695   5.714
 2261SOL     OW18813   2.288   7.251   1.425
 2261SOL    HW118814   2.252   7.204   1.345
 2261SOL    HW218815   2.220   7.316   1.459
 2262SOL     OW18816   4.569   2.072   6.483
 2262SOL    HW118817   4.570   2.129   6.400
 2262SOL    HW218818   4.583   2.130   6.563
 2263SOL     OW18819   2.353   3.540   0.978
 2263SOL    HW118820   2.308   3.620   1.017
 2263SOL    HW218821   2.449   3.539   1.006
 2264SOL     OW18822   6.138   5.969   2.005
 2264SOL    HW118823   6.220   5.962   1.948
 2264SOL    HW218824   6.159   6.021   2.088
 2265SOL     OW18825   0.562   5.809   4.824
 2265SOL    HW118826   0.569   5.751   4.905
 2265SOL    HW218827   0.474   5.795   4.779
 2266SOL     OW18828   8.623   3.824   0.882
 2266SOL    HW118829   8.619   3.726   0.865
 2266SOL    HW218830   8.701   3.845   0.941
 2267SOL     OW18831   9.305   0.348   0.622
 2267SOL    HW118832   9.315   0.405   0.540
 2267SOL    HW218833   9.392   0.347   0.672
 2268SOL     OW18834   3.336   3.339   0.629
 2268SOL    HW118835   3.325   3.429   0.588
 2268SOL    HW218836   3.351   3.271   0.557
 2269SOL     OW18837   8.230   7.935   0.320
 2269SOL    HW118838   8.269   7.962   0.231
 2269SOL    HW218839   8.272   7.849   0.349
 2270SOL     OW18840   3.676   3.457   0.364
 2270SOL    HW118841   3.701   3.395   0.439
 2270SOL    HW218842   3.715   3.548   0.382
 2271SOL     OW18843   3.664   0.784   0.593
 2271SOL    HW118844   3.714   0.831   0.520
 2271SOL    HW218845   3.668   0.685   0.578
 2272SOL     OW18846   5.969   7.515   6.232
 2272SOL    HW118847   5.888   7.564   6.199
 2272SOL    HW218848   5.948   7.418   6.241
 2273SOL     OW18849   0.822   0.951   1.642
 2273SOL    HW118850   0.901   0.921   1.696
 2273SOL    HW218851   0.750   0.882   1.648
 2274SOL     OW18852   4.480   2.341   1.025
 2274SOL    HW118853   4.381   2.326   1.036
 2274SOL    HW218854   4.522   2.258   0.988
 2275SOL     OW18855   3.486   2.938   1.352
 2275SOL    HW118856   3.422   2.871   1.314
 2275SOL    HW218857   3.571   2.936   1.301
 2276SOL     OW18858   8.585   1.361   6.080
 2276SOL    HW118859   8.574   1.268   6.046
 2276SOL    HW218860   8.601   1.360   6.178
 2277SOL     OW18861   4.969   8.219   1.473
 2277SOL    HW118862   4.872   8.210   1.497
 2277SOL    HW218863   5.019   8.252   1.552
 2278SOL     OW18864   0.130   6.301   4.651
 2278SOL    HW118865   0.211   6.319   4.708
 2278SOL    HW218866   0.114   6.379   4.591
 2279SOL     OW18867   2.941   3.526   5.621
 2279SOL    HW118868   2.910   3.531   5.527
 2279SOL    HW218869   3.041   3.535   5.624
 2280SOL     OW18870   8.580   5.209   5.595
 2280SOL    HW118871   8.519   5.134   5.570
 2280SOL    HW218872   8.657   5.212   5.531
 2281SOL     OW18873   7.667   0.687   6.629
 2281SOL    HW118874   7.652   0.746   6.550
 2281SOL    HW218875   7.717   0.605   6.601
 2282SOL     OW18876   0.909   6.806   0.213
 2282SOL    HW118877   0.865   6.891   0.240
 2282SOL    HW218878   0.995   6.825   0.167
 2283SOL     OW18879   4.842   4.791   6.099
 2283SOL    HW118880   4.796   4.879   6.105
 2283SOL    HW218881   4.774   4.718   6.094
 2284SOL     OW18882   4.182   7.840   1.472
 2284SOL    HW118883   4.241   7.773   1.517
 2284SOL    HW218884   4.238   7.904   1.418
 2285SOL     OW18885   4.394   3.445   0.237
 2285SOL    HW118886   4.427   3.352   0.218
 2285SOL    HW218887   4.361   3.487   0.152
 2286SOL     OW18888   0.870   0.924   6.930
 2286SOL    HW118889   0.855   0.891   7.023
 2286SOL    HW218890   0.862   1.024   6.928
 2287SOL     OW18891   0.857   2.929   0.456
 2287SOL    HW118892   0.835   3.023   0.480
 2287SOL    HW218893   0.937   2.898   0.508
 2288SOL     OW18894   1.759   6.498   5.143
 2288SOL    HW118895   1.783   6.434   5.070
 2288SOL    HW218896   1.836   6.560   5.159
 2289SOL     OW18897   7.875   3.007   0.384
 2289SOL    HW118898   7.803   3.065   0.423
 2289SOL    HW218899   7.892   3.035   0.290
 2290SOL     OW18900   4.035   5.877   5.762
 2290SOL    HW118901   4.019   5.779   5.774
 2290SOL    HW218902   4.100   5.891   5.687
 2291SOL     OW18903   2.523   1.518   6.025
 2291SOL    HW118904   2.504   1.465   5.942
 2291SOL    HW218905   2.462   1.597   6.030
 2292SOL     OW18906   7.112   1.564   0.614
 2292SOL    HW118907   7.186   1.630   0.602
 2292SOL    HW218908   7.105   1.506   0.533
 2293SOL     OW18909   1.121   0.612   6.496
 2293SOL    HW118910   1.029   0.651   6.496
 2293SOL    HW218911   1.170   0.642   6.414
 2294SOL     OW18912   9.442   6.807   1.593
 2294SOL    HW118913   9.347   6.832   1.609
 2294SOL    HW218914   9.453   6.708   1.604
 2295SOL     OW18915   7.663   4.236   0.282
 2295SOL    HW118916   7.603   4.178   0.227
 2295SOL    HW218917   7.685   4.319   0.231
 2296SOL     OW18918   7.068   5.055   6.885
 2296SOL    HW118919   7.030   4.970   6.923
 2296SOL    HW218920   7.166   5.059   6.905
 2297SOL     OW18921   3.859   3.063   1.423
 2297SOL    HW118922   3.853   2.972   1.466
 2297SOL    HW218923   3.819   3.060   1.332
 2298SOL     OW18924   2.120   2.720   6.154
 2298SOL    HW118925   2.215   2.719   6.185
 2298SOL    HW218926   2.099   2.809   6.115
 2299SOL     OW18927   8.755   2.940   6.257
 2299SOL    HW118928   8.671   2.912   6.303
 2299SOL    HW218929   8.823   2.868   6.265
 2300SOL     OW18930   3.839   3.294   0.537
 2300SOL    HW118931   3.889   3.367   0.491
 2300SOL    HW218932   3.857   3.207   0.491
 2301SOL     OW18933   0.338   0.970   0.691
 2301SOL    HW118934   0.387   1.034   0.750
 2301SOL    HW218935   0.261   0.930   0.742
 2302SOL     OW18936   9.575   0.879   5.086
 2302SOL    HW118937   9.538   0.970   5.100
 2302SOL    HW218938   9.606   0.870   4.991
 2303SOL     OW18939   2.408   2.591   6.677
 2303SOL    HW118940   2.469   2.599   6.755
 2303SOL    HW218941   2.386   2.682   6.643
 2304SOL     OW18942   6.291   7.668   6.490
 2304SOL    HW118943   6.202   7.625   6.506
 2304SOL    HW218944   6.353   7.601   6.448
 2305SOL     OW18945   4.577   7.912   5.195
 2305SOL    HW118946   4.620   7.949   5.113
 2305SOL    HW218947   4.574   7.812   5.189
 2306SOL     OW18948   9.372   8.369   5.251
 2306SOL    HW118949   9.288   8.402   5.294
 2306SOL    HW218950   9.365   8.378   5.152
 2307SOL     OW18951   5.597   0.659   2.353
 2307SOL    HW118952   5.676   0.718   2.368
 2307SOL    HW218953   5.523   0.686   2.415
 2308SOL     OW18954   0.631   7.526   6.491
 2308SOL    HW118955   0.577   7.534   6.575
 2308SOL    HW218956   0.611   7.603   6.431
 2309SOL     OW18957   7.398   0.482   0.344
 2309SOL    HW118958   7.483   0.514   0.301
 2309SOL    HW218959   7.415   0.462   0.441
 2310SOL     OW18960   7.569   5.618   0.612
 2310SOL    HW118961   7.566   5.659   0.521
 2310SOL    HW218962   7.636   5.665   0.668
 2311SOL     OW18963   4.009   5.722   6.937
 2311SOL    HW118964   3.957   5.708   7.021
 2311SOL    HW218965   4.061   5.639   6.916
 2312SOL     OW18966   1.878   6.116   0.307
 2312SOL    HW118967   1.924   6.074   0.228
 2312SOL    HW218968   1.846   6.207   0.283
 2313SOL     OW18969   2.646   1.428   6.513
 2313SOL    HW118970   2.650   1.456   6.417
 2313SOL    HW218971   2.590   1.493   6.564
 2314SOL     OW18972   3.419   1.084   6.374
 2314SOL    HW118973   3.355   1.017   6.413
 2314SOL    HW218974   3.367   1.161   6.337
 2315SOL     OW18975   4.931   5.957   6.887
 2315SOL    HW118976   4.941   5.948   6.986
 2315SOL    HW218977   5.020   5.977   6.845
 2316SOL     OW18978   6.759   4.942   0.380
 2316SOL    HW118979   6.794   5.026   0.422
 2316SOL    HW218980   6.756   4.953   0.281
 2317SOL     OW18981   2.805   4.774   0.731
 2317SOL    HW118982   2.853   4.862   0.727
 2317SOL    HW218983   2.803   4.734   0.639
 2318SOL     OW18984   2.804   5.018   1.245
 2318SOL    HW118985   2.756   5.060   1.168
 2318SOL    HW218986   2.878   5.078   1.275
 2319SOL     OW18987   8.823   2.441   5.192
 2319SOL    HW118988   8.830   2.341   5.191
 2319SOL    HW218989   8.727   2.468   5.194
 2320SOL     OW18990   5.903   2.417   6.167
 2320SOL    HW118991   5.911   2.488   6.097
 2320SOL    HW218992   5.902   2.327   6.124
 2321SOL     OW18993   8.230   8.379   5.094
 2321SOL    HW118994   8.149   8.432   5.071
 2321SOL    HW218995   8.289   8.433   5.155
 2322SOL     OW18996   3.692   0.046   5.727
 2322SOL    HW118997   3.691  -0.045   5.768
 2322SOL    HW218998   3.668   0.114   5.797
 2323SOL     OW18999   7.151   0.378   6.094
 2323SOL    HW119000   7.083   0.448   6.071
 2323SOL    HW219001   7.105   0.291   6.112
 2324SOL     OW19002   5.957   6.037   0.840
 2324SOL    HW119003   5.914   5.958   0.796
 2324SOL    HW219004   6.010   6.006   0.919
 2325SOL     OW19005   9.054   6.667   6.491
 2325SOL    HW119006   8.982   6.686   6.424
 2325SOL    HW219007   9.086   6.753   6.532
 2326SOL     OW19008   6.801   4.005   6.895
 2326SOL    HW119009   6.808   3.968   6.988
 2326SOL    HW219010   6.783   4.103   6.899
 2327SOL     OW19011   2.520   5.621   1.009
 2327SOL    HW119012   2.553   5.535   0.971
 2327SOL    HW219013   2.435   5.606   1.060
 2328SOL     OW19014   3.665   1.744   6.747
 2328SOL    HW119015   3.711   1.665   6.706
 2328SOL    HW219016   3.722   1.825   6.737
 2329SOL     OW19017   6.505   1.741   1.418
 2329SOL    HW119018   6.574   1.671   1.399
 2329SOL    HW219019   6.492   1.798   1.337
 2330SOL     OW19020   4.760   7.940   0.875
 2330SOL    HW119021   4.825   7.945   0.799
 2330SOL    HW219022   4.744   8.032   0.911
 2331SOL     OW19023   2.000   0.897   6.934
 2331SOL    HW119024   1.955   0.966   6.990
 2331SOL    HW219025   1.956   0.808   6.949
 2332SOL     OW19026   0.865   7.294   5.957
 2332SOL    HW119027   0.963   7.297   5.975
 2332SOL    HW219028   0.823   7.381   5.984
 2333SOL     OW19029   4.784   6.339   6.609
 2333SOL    HW119030   4.703   6.328   6.550
 2333SOL    HW219031   4.846   6.405   6.568
 2334SOL     OW19032   1.279   8.169   1.287
 2334SOL    HW119033   1.280   8.159   1.387
 2334SOL    HW219034   1.195   8.129   1.250
 2335SOL     OW19035   5.515   6.211   1.138
 2335SOL    HW119036   5.551   6.304   1.133
 2335SOL    HW219037   5.505   6.184   1.234
 2336SOL     OW19038   5.094   0.217   5.732
 2336SOL    HW119039   5.025   0.196   5.663
 2336SOL    HW219040   5.090   0.149   5.805
 2337SOL     OW19041   1.026   8.316   5.793
 2337SOL    HW119042   0.965   8.307   5.871
 2337SOL    HW219043   1.115   8.349   5.825
 2338SOL     OW19044   4.893   8.211   6.104
 2338SOL    HW119045   4.944   8.168   6.178
 2338SOL    HW219046   4.894   8.152   6.023
 2339SOL     OW19047   1.370   0.553   6.195
 2339SOL    HW119048   1.438   0.572   6.267
 2339SOL    HW219049   1.285   0.523   6.237
 2340SOL     OW19050   6.312   4.941   5.661
 2340SOL    HW119051   6.350   4.849   5.654
 2340SOL    HW219052   6.259   4.962   5.580
 2341SOL     OW19053   0.741   1.031   6.293
 2341SOL    HW119054   0.763   1.009   6.198
 2341SOL    HW219055   0.818   1.080   6.334
 2342SOL     OW19056   6.507   0.296   6.419
 2342SOL    HW119057   6.600   0.331   6.423
 2342SOL    HW219058   6.505   0.202   6.451
 2343SOL     OW19059   8.408   4.548   0.597
 2343SOL    HW119060   8.503   4.517   0.598
 2343SOL    HW219061   8.363   4.514   0.515
 2344SOL     OW19062   2.296   3.135   0.769
 2344SOL    HW119063   2.323   3.072   0.697
 2344SOL    HW219064   2.332   3.226   0.749
 2345SOL     OW19065   0.202   5.132   5.966
 2345SOL    HW119066   0.257   5.111   5.886
 2345SOL    HW219067   0.113   5.169   5.937
 2346SOL     OW19068   8.339   3.666   5.330
 2346SOL    HW119069   8.252   3.638   5.372
 2346SOL    HW219070   8.376   3.591   5.277
 2347SOL     OW19071   6.584   2.030   0.782
 2347SOL    HW119072   6.522   2.095   0.739
 2347SOL    HW219073   6.598   1.951   0.722
 2348SOL     OW19074   0.776   3.074   5.272
 2348SOL    HW119075   0.806   3.169   5.267
 2348SOL    HW219076   0.704   3.059   5.204
 2349SOL     OW19077   0.567   0.216   1.033
 2349SOL    HW119078   0.616   0.299   1.007
 2349SOL    HW219079   0.481   0.241   1.078
 2350SOL     OW19080   6.004   0.703   6.136
 2350SOL    HW119081   6.068   0.688   6.061
 2350SOL    HW219082   5.922   0.647   6.122
 2351SOL     OW19083   3.734   2.636   0.594
 2351SOL    HW119084   3.704   2.549   0.633
 2351SOL    HW219085   3.667   2.668   0.527
 2352SOL     OW19086   5.782   6.516   6.062
 2352SOL    HW119087   5.857   6.450   6.061
 2352SOL    HW219088   5.699   6.472   6.027
 2353SOL     OW19089   7.388   0.896   5.648
 2353SOL    HW119090   7.404   0.995   5.641
 2353SOL    HW219091   7.306   0.872   5.596
 2354SOL     OW19092   3.535   5.071   1.424
 2354SOL    HW119093   3.609   5.126   1.464
 2354SOL    HW219094   3.509   5.111   1.336
 2355SOL     OW19095   2.750   6.238   1.146
 2355SOL    HW119096   2.826   6.180   1.117
 2355SOL    HW219097   2.705   6.277   1.066
 2356SOL     OW19098   7.084   6.997   0.591
 2356SOL    HW119099   7.077   6.898   0.582
 2356SOL    HW219100   7.151   7.031   0.524
 2357SOL     OW19101   8.429   7.485   0.583
 2357SOL    HW119102   8.388   7.397   0.559
 2357SOL    HW219103   8.529   7.478   0.576
 2358SOL     OW19104   5.007   2.832   1.257
 2358SOL    HW119105   4.956   2.792   1.333
 2358SOL    HW219106   5.017   2.765   1.184
 2359SOL     OW19107   3.911   5.187   6.250
 2359SOL    HW119108   3.815   5.162   6.260
 2359SOL    HW219109   3.953   5.132   6.178
 2360SOL     OW19110   6.990   7.820   1.424
 2360SOL    HW119111   7.049   7.859   1.495
 2360SOL    HW219112   6.922   7.761   1.467
 2361SOL     OW19113   3.917   6.172   6.772
 2361SOL    HW119114   3.876   6.235   6.838
 2361SOL    HW219115   4.000   6.132   6.812
 2362SOL     OW19116   6.536   4.904   6.358
 2362SOL    HW119117   6.601   4.977   6.375
 2362SOL    HW219118   6.584   4.816   6.358
 2363SOL     OW19119   4.235   8.072   1.311
 2363SOL    HW119120   4.204   8.093   1.218
 2363SOL    HW219121   4.204   8.144   1.373
 2364SOL     OW19122   8.685   7.821   6.830
 2364SOL    HW119123   8.712   7.811   6.734
 2364SOL    HW219124   8.687   7.918   6.855
 2365SOL     OW19125   1.832   7.969   0.446
 2365SOL    HW119126   1.842   8.009   0.537
 2365SOL    HW219127   1.807   8.040   0.380
 2366SOL     OW19128   5.656   1.119   1.954
 2366SOL    HW119129   5.750   1.102   1.984
 2366SOL    HW219130   5.656   1.190   1.883
 2367SOL     OW19131   3.583   0.503   0.341
 2367SOL    HW119132   3.613   0.500   0.437
 2367SOL    HW219133   3.663   0.498   0.281
 2368SOL     OW19134   2.244   6.432   1.633
 2368SOL    HW119135   2.222   6.342   1.670
 2368SOL    HW219136   2.163   6.470   1.589
 2369SOL     OW19137   1.045   7.035   1.482
 2369SOL    HW119138   1.119   7.098   1.459
 2369SOL    HW219139   0.972   7.083   1.530
 2370SOL     OW19140   3.755   2.011   0.666
 2370SOL    HW119141   3.697   2.086   0.635
 2370SOL    HW219142   3.698   1.936   0.701
 2371SOL     OW19143   9.574   4.650   0.901
 2371SOL    HW119144   9.633   4.714   0.951
 2371SOL    HW219145   9.555   4.570   0.958
 2372SOL     OW19146   4.777   2.218   0.754
 2372SOL    HW119147   4.691   2.182   0.717
 2372SOL    HW219148   4.788   2.188   0.849
 2373SOL     OW19149   4.052   4.801   6.693
 2373SOL    HW119150   4.000   4.790   6.778
 2373SOL    HW219151   4.001   4.859   6.630
 2374SOL     OW19152   2.308   7.679   6.523
 2374SOL    HW119153   2.399   7.655   6.489
 2374SOL    HW219154   2.240   7.664   6.451
 2375SOL     OW19155   9.344   6.320   0.219
 2375SOL    HW119156   9.342   6.389   0.291
 2375SOL    HW219157   9.251   6.287   0.203
 2376SOL     OW19158   7.590   3.869   0.444
 2376SOL    HW119159   7.503   3.900   0.406
 2376SOL    HW219160   7.652   3.947   0.453
 2377SOL     OW19161   4.791   1.155   6.597
 2377SOL    HW119162   4.825   1.097   6.522
 2377SOL    HW219163   4.865   1.213   6.631
 2378SOL     OW19164   4.059   4.448   1.602
 2378SOL    HW119165   4.012   4.366   1.635
 2378SOL    HW219166   3.993   4.519   1.581
 2379SOL     OW19167   6.506   2.807   6.268
 2379SOL    HW119168   6.492   2.885   6.207
 2379SOL    HW219169   6.503   2.722   6.215
 2380SOL     OW19170   2.117   3.908   1.876
 2380SOL    HW119171   2.018   3.900   1.864
 2380SOL    HW219172   2.164   3.849   1.811
 2381SOL     OW19173   6.423   4.025   0.503
 2381SOL    HW119174   6.389   3.931   0.505
 2381SOL    HW219175   6.346   4.088   0.491
 2382SOL     OW19176   5.283   0.413   5.765
 2382SOL    HW119177   5.305   0.413   5.862
 2382SOL    HW219178   5.219   0.338   5.745
 2383SOL     OW19179   3.209   6.172   1.589
 2383SOL    HW119180   3.238   6.233   1.662
 2383SOL    HW219181   3.109   6.174   1.581
 2384SOL     OW19182   6.524   8.298   5.594
 2384SOL    HW119183   6.586   8.223   5.572
 2384SOL    HW219184   6.577   8.376   5.627
 2385SOL     OW19185   9.000   1.782   6.322
 2385SOL    HW119186   8.986   1.879   6.337
 2385SOL    HW219187   9.068   1.747   6.386
 2386SOL     OW19188   4.995   3.930   1.775
 2386SOL    HW119189   5.016   3.833   1.762
 2386SOL    HW219190   4.967   3.946   1.869
 2387SOL     OW19191   5.693   2.145   1.712
 2387SOL    HW119192   5.735   2.055   1.718
 2387SOL    HW219193   5.595   2.135   1.693
 2388SOL     OW19194   1.822   4.923   6.305
 2388SOL    HW119195   1.776   5.009   6.328
 2388SOL    HW219196   1.882   4.936   6.226
 2389SOL     OW19197   4.078   6.826   5.150
 2389SOL    HW119198   4.035   6.783   5.229
 2389SOL    HW219199   4.013   6.888   5.106
 2390SOL     OW19200   0.375   1.030   6.139
 2390SOL    HW119201   0.368   1.020   6.239
 2390SOL    HW219202   0.468   1.056   6.115
 2391SOL     OW19203   2.032   7.489   6.426
 2391SOL    HW119204   2.026   7.556   6.352
 2391SOL    HW219205   1.971   7.516   6.501
 2392SOL     OW19206   7.779   3.756   2.167
 2392SOL    HW119207   7.785   3.855   2.168
 2392SOL    HW219208   7.684   3.729   2.147
 2393SOL     OW19209   7.323   7.811   5.243
 2393SOL    HW119210   7.390   7.859   5.186
 2393SOL    HW219211   7.236   7.860   5.242
 2394SOL     OW19212   4.500   4.900   6.200
 2394SOL    HW119213   4.493   4.958   6.119
 2394SOL    HW219214   4.493   4.956   6.282
 2395SOL     OW19215   3.879   2.366   1.517
 2395SOL    HW119216   3.971   2.339   1.547
 2395SOL    HW219217   3.864   2.462   1.543
 2396SOL     OW19218   0.633   4.103   6.909
 2396SOL    HW119219   0.595   4.037   6.974
 2396SOL    HW219220   0.662   4.054   6.826
 2397SOL     OW19221   3.220   4.711   0.479
 2397SOL    HW119222   3.305   4.729   0.530
 2397SOL    HW219223   3.174   4.631   0.519
 2398SOL     OW19224   3.265   1.209   6.158
 2398SOL    HW119225   3.209   1.161   6.091
 2398SOL    HW219226   3.223   1.297   6.180
 2399SOL     OW19227   4.719   5.004   6.850
 2399SOL    HW119228   4.637   5.023   6.797
 2399SOL    HW219229   4.716   4.910   6.884
 2400SOL     OW19230   5.060   5.019   5.892
 2400SOL    HW119231   5.015   4.983   5.810
 2400SOL    HW219232   5.095   4.943   5.947
 2401SOL     OW19233   8.370  -0.047   0.561
 2401SOL    HW119234   8.310   0.030   0.584
 2401SOL    HW219235   8.448  -0.014   0.508
 2402SOL     OW19236   1.240   3.414   6.691
 2402SOL    HW119237   1.204   3.408   6.784
 2402SOL    HW219238   1.296   3.334   6.671
 2403SOL     OW19239   3.953   6.090   1.668
 2403SOL    HW119240   3.932   6.107   1.572
 2403SOL    HW219241   3.895   6.149   1.725
 2404SOL     OW19242   3.084   2.495   5.692
 2404SOL    HW119243   3.059   2.421   5.630
 2404SOL    HW219244   3.001   2.538   5.728
 2405SOL     OW19245   8.228   0.331   6.165
 2405SOL    HW119246   8.305   0.375   6.120
 2405SOL    HW219247   8.214   0.373   6.255
 2406SOL     OW19248   8.925   4.359   6.293
 2406SOL    HW119249   8.965   4.305   6.219
 2406SOL    HW219250   8.997   4.410   6.340
 2407SOL     OW19251   6.245   0.270   5.848
 2407SOL    HW119252   6.162   0.292   5.797
 2407SOL    HW219253   6.232   0.183   5.896
 2408SOL     OW19254   3.797   4.901   0.474
 2408SOL    HW119255   3.783   4.999   0.465
 2408SOL    HW219256   3.814   4.879   0.570
 2409SOL     OW19257   1.850   8.215   0.259
 2409SOL    HW119258   1.842   8.311   0.285
 2409SOL    HW219259   1.779   8.192   0.192
 2410SOL     OW19260   3.928   7.243   5.913
 2410SOL    HW119261   3.923   7.290   6.001
 2410SOL    HW219262   3.971   7.154   5.925
 2411SOL     OW19263   8.204   0.647   6.594
 2411SOL    HW119264   8.134   0.642   6.666
 2411SOL    HW219265   8.170   0.705   6.520
 2412SOL     OW19266   0.988   5.954   5.183
 2412SOL    HW119267   1.030   5.907   5.106
 2412SOL    HW219268   1.055   5.963   5.257
 2413SOL     OW19269   9.039   5.468   6.224
 2413SOL    HW119270   9.123   5.414   6.231
 2413SOL    HW219271   8.988   5.441   6.142
 2414SOL     OW19272   3.278   7.219   0.531
 2414SOL    HW119273   3.197   7.165   0.554
 2414SOL    HW219274   3.301   7.205   0.435
 2415SOL     OW19275   6.355   2.949   1.649
 2415SOL    HW119276   6.347   2.916   1.743
 2415SOL    HW219277   6.374   3.048   1.649
 2416SOL     OW19278   8.636   5.068   0.891
 2416SOL    HW119279   8.698   5.050   0.967
 2416SOL    HW219280   8.649   4.999   0.820
 2417SOL     OW19281   7.184   7.400   1.921
 2417SOL    HW119282   7.284   7.400   1.932
 2417SOL    HW219283   7.144   7.460   1.990
 2418SOL     OW19284   9.204   7.739   0.775
 2418SOL    HW119285   9.245   7.706   0.690
 2418SOL    HW219286   9.177   7.662   0.832
 2419SOL     OW19287   0.539   5.776   0.724
 2419SOL    HW119288   0.616   5.713   0.708
 2419SOL    HW219289   0.454   5.724   0.726
 2420SOL     OW19290   1.806   6.970   6.536
 2420SOL    HW119291   1.855   7.057   6.542
 2420SOL    HW219292   1.795   6.944   6.440
 2421SOL     OW19293   9.428   2.721   0.888
 2421SOL    HW119294   9.508   2.764   0.845
 2421SOL    HW219295   9.358   2.790   0.906
 2422SOL     OW19296   5.101   4.903   1.197
 2422SOL    HW119297   5.090   4.804   1.202
 2422SOL    HW219298   5.161   4.934   1.270
 2423SOL     OW19299   3.213   1.963   0.929
 2423SOL    HW119300   3.249   1.980   1.021
 2423SOL    HW219301   3.249   1.876   0.895
 2424SOL     OW19302   0.967   7.767   4.294
 2424SOL    HW119303   0.868   7.758   4.280
 2424SOL    HW219304   0.985   7.842   4.358
 2425SOL     OW19305   3.590   5.445   0.410
 2425SOL    HW119306   3.567   5.386   0.487
 2425SOL    HW219307   3.510   5.500   0.386
 2426SOL     OW19308   1.416   5.950   5.418
 2426SOL    HW119309   1.382   5.938   5.325
 2426SOL    HW219310   1.349   5.916   5.483
 2427SOL     OW19311   7.706   3.352   6.735
 2427SOL    HW119312   7.735   3.275   6.792
 2427SOL    HW219313   7.606   3.359   6.739
 2428SOL     OW19314   3.647   5.152   6.287
 2428SOL    HW119315   3.575   5.163   6.218
 2428SOL    HW219316   3.608   5.111   6.370
 2429SOL     OW19317   8.357   3.536   6.431
 2429SOL    HW119318   8.335   3.535   6.334
 2429SOL    HW219319   8.440   3.590   6.446
 2430SOL     OW19320   0.423   7.435   5.270
 2430SOL    HW119321   0.420   7.453   5.171
 2430SOL    HW219322   0.334   7.402   5.300
 2431SOL     OW19323   8.535   6.920   5.582
 2431SOL    HW119324   8.559   6.936   5.486
 2431SOL    HW219325   8.435   6.915   5.590
 2432SOL     OW19326   2.966   1.356   1.906
 2432SOL    HW119327   2.973   1.309   1.818
 2432SOL    HW219328   2.948   1.453   1.891
 2433SOL     OW19329   1.164   7.558   1.822
 2433SOL    HW119330   1.176   7.643   1.873
 2433SOL    HW219331   1.075   7.557   1.777
 2434SOL     OW19332   2.083   5.735   5.770
 2434SOL    HW119333   2.142   5.772   5.841
 2434SOL    HW219334   2.010   5.681   5.812
 2435SOL     OW19335   0.690   5.027   0.234
 2435SOL    HW119336   0.613   5.080   0.271
 2435SOL    HW219337   0.769   5.087   0.222
 2436SOL     OW19338   7.176   5.114   6.357
 2436SOL    HW119339   7.250   5.067   6.307
 2436SOL    HW219340   7.213   5.196   6.401
 2437SOL     OW19341   1.207   0.367   4.726
 2437SOL    HW119342   1.143   0.336   4.656
 2437SOL    HW219343   1.234   0.461   4.706
 2438SOL     OW19344   0.412   1.908   6.306
 2438SOL    HW119345   0.321   1.909   6.264
 2438SOL    HW219346   0.482   1.907   6.234
 2439SOL     OW19347   5.070   3.285   1.323
 2439SOL    HW119348   5.114   3.375   1.332
 2439SOL    HW219349   5.100   3.226   1.397
 2440SOL     OW19350   9.253   0.900   6.125
 2440SOL    HW119351   9.346   0.868   6.144
 2440SOL    HW219352   9.233   0.981   6.179
 2441SOL     OW19353   8.463   1.206   6.383
 2441SOL    HW119354   8.518   1.125   6.367
 2441SOL    HW219355   8.395   1.187   6.454
 2442SOL     OW19356   1.616   7.878   5.826
 2442SOL    HW119357   1.545   7.817   5.790
 2442SOL    HW219358   1.702   7.861   5.778
 2443SOL     OW19359   0.649   2.011   0.766
 2443SOL    HW119360   0.652   1.983   0.862
 2443SOL    HW219361   0.618   1.935   0.710
 2444SOL     OW19362   9.331   1.806   5.622
 2444SOL    HW119363   9.411   1.852   5.584
 2444SOL    HW219364   9.350   1.709   5.634
 2445SOL     OW19365   8.494   0.436   5.446
 2445SOL    HW119366   8.505   0.371   5.370
 2445SOL    HW219367   8.583   0.473   5.471
 2446SOL     OW19368   5.473   7.339   1.254
 2446SOL    HW119369   5.492   7.437   1.253
 2446SOL    HW219370   5.387   7.322   1.302
 2447SOL     OW19371   6.835   4.034   0.948
 2447SOL    HW119372   6.860   4.111   1.007
 2447SOL    HW219373   6.918   3.992   0.911
 2448SOL     OW19374   1.948   2.944   6.368
 2448SOL    HW119375   1.901   2.937   6.456
 2448SOL    HW219376   1.907   2.879   6.303
 2449SOL     OW19377   3.527   0.956   6.723
 2449SOL    HW119378   3.573   1.043   6.706
 2449SOL    HW219379   3.431   0.963   6.695
 2450SOL     OW19380   2.599   8.201   0.865
 2450SOL    HW119381   2.658   8.205   0.945
 2450SOL    HW219382   2.638   8.138   0.797
 2451SOL     OW19383   0.517   7.881   0.936
 2451SOL    HW119384   0.512   7.981   0.943
 2451SOL    HW219385   0.600   7.856   0.886
 2452SOL     OW19386   8.914   5.618   5.381
 2452SOL    HW119387   8.856   5.542   5.352
 2452SOL    HW219388   8.985   5.634   5.313
 2453SOL     OW19389   3.082   3.642   6.139
 2453SOL    HW119390   3.128   3.727   6.164
 2453SOL    HW219391   3.071   3.638   6.040
 2454SOL     OW19392   1.616   1.260   0.543
 2454SOL    HW119393   1.580   1.325   0.476
 2454SOL    HW219394   1.595   1.167   0.513
 2455SOL     OW19395   4.974   2.200   0.540
 2455SOL    HW119396   5.009   2.290   0.516
 2455SOL    HW219397   4.906   2.209   0.612
 2456SOL     OW19398   3.254   7.792   0.756
 2456SOL    HW119399   3.296   7.793   0.665
 2456SOL    HW219400   3.326   7.782   0.825
 2457SOL     OW19401   6.206   6.071   4.784
 2457SOL    HW119402   6.295   6.095   4.824
 2457SOL    HW219403   6.221   6.013   4.703
 2458SOL     OW19404   0.389   6.967   4.226
 2458SOL    HW119405   0.311   6.915   4.192
 2458SOL    HW219406   0.448   6.993   4.149
 2459SOL     OW19407   1.624   1.092   6.530
 2459SOL    HW119408   1.670   1.099   6.618
 2459SOL    HW219409   1.615   1.183   6.489
 2460SOL     OW19410   2.913   3.931   5.984
 2460SOL    HW119411   2.882   3.885   5.901
 2460SOL    HW219412   2.944   3.864   6.051
 2461SOL     OW19413   1.632   6.630   4.532
 2461SOL    HW119414   1.535   6.609   4.550
 2461SOL    HW219415   1.638   6.695   4.456
 2462SOL     OW19416   1.292   5.381   1.055
 2462SOL    HW119417   1.375   5.327   1.040
 2462SOL    HW219418   1.285   5.403   1.152
 2463SOL     OW19419   3.954   5.834   0.535
 2463SOL    HW119420   3.937   5.856   0.631
 2463SOL    HW219421   3.903   5.751   0.511
 2464SOL     OW19422   3.676   2.191   6.726
 2464SOL    HW119423   3.721   2.260   6.671
 2464SOL    HW219424   3.733   2.109   6.730
 2465SOL     OW19425   5.614   7.787   6.694
 2465SOL    HW119426   5.595   7.880   6.665
 2465SOL    HW219427   5.691   7.787   6.759
 2466SOL     OW19428   1.075   7.104   0.957
 2466SOL    HW119429   1.019   7.032   0.917
 2466SOL    HW219430   1.085   7.088   1.055
 2467SOL     OW19431   6.118   6.728   5.837
 2467SOL    HW119432   6.190   6.679   5.788
 2467SOL    HW219433   6.051   6.763   5.771
 2468SOL     OW19434   2.058   4.439   5.113
 2468SOL    HW119435   1.994   4.487   5.052
 2468SOL    HW219436   2.110   4.372   5.060
 2469SOL     OW19437   8.172   8.116   6.660
 2469SOL    HW119438   8.186   8.215   6.660
 2469SOL    HW219439   8.092   8.094   6.715
 2470SOL     OW19440   8.728   1.713   6.086
 2470SOL    HW119441   8.650   1.739   6.028
 2470SOL    HW219442   8.769   1.629   6.051
 2471SOL     OW19443   4.327   5.509   6.812
 2471SOL    HW119444   4.423   5.500   6.789
 2471SOL    HW219445   4.300   5.605   6.805
 2472SOL     OW19446   6.993   6.540   6.501
 2472SOL    HW119447   7.030   6.448   6.509
 2472SOL    HW219448   7.048   6.604   6.555
 2473SOL     OW19449   1.097   7.092   0.619
 2473SOL    HW119450   1.071   7.164   0.683
 2473SOL    HW219451   1.174   7.041   0.656
 2474SOL     OW19452   0.974   5.438   0.560
 2474SOL    HW119453   0.906   5.369   0.583
 2474SOL    HW219454   1.056   5.393   0.523
 2475SOL     OW19455   2.932   1.812   2.137
 2475SOL    HW119456   2.836   1.784   2.132
 2475SOL    HW219457   2.960   1.847   2.048
 2476SOL     OW19458   9.300   0.034   0.746
 2476SOL    HW119459   9.367   0.050   0.673
 2476SOL    HW219460   9.209   0.061   0.714
 2477SOL     OW19461   5.800   6.587   5.772
 2477SOL    HW119462   5.844   6.554   5.856
 2477SOL    HW219463   5.721   6.529   5.752
 2478SOL     OW19464   3.724   2.162   1.138
 2478SOL    HW119465   3.754   2.070   1.113
 2478SOL    HW219466   3.637   2.183   1.092
 2479SOL     OW19467   0.901   3.872   5.850
 2479SOL    HW119468   0.926   3.808   5.777
 2479SOL    HW219469   0.973   3.941   5.858
 2480SOL     OW19470   8.206   8.236   0.598
 2480SOL    HW119471   8.126   8.252   0.541
 2480SOL    HW219472   8.259   8.320   0.607
 2481SOL     OW19473   8.436   3.862   5.900
 2481SOL    HW119474   8.503   3.879   5.827
 2481SOL    HW219475   8.350   3.831   5.859
 2482SOL     OW19476   2.675   7.499   6.848
 2482SOL    HW119477   2.684   7.438   6.926
 2482SOL    HW219478   2.765   7.529   6.818
 2483SOL     OW19479   2.803   4.012   1.125
 2483SOL    HW119480   2.740   3.982   1.053
 2483SOL    HW219481   2.791   3.954   1.206
 2484SOL     OW19482   5.633   7.681   1.381
 2484SOL    HW119483   5.728   7.708   1.394
 2484SOL    HW219484   5.592   7.659   1.470
 2485SOL     OW19485   2.998   0.727   2.177
 2485SOL    HW119486   3.062   0.723   2.100
 2485SOL    HW219487   3.043   0.691   2.259
 2486SOL     OW19488   9.397   6.918   6.123
 2486SOL    HW119489   9.309   6.957   6.099
 2486SOL    HW219490   9.466   6.990   6.129
 2487SOL     OW19491   4.289   5.933   6.052
 2487SOL    HW119492   4.378   5.977   6.051
 2487SOL    HW219493   4.217   6.003   6.046
 2488SOL     OW19494   3.685   6.658   6.779
 2488SOL    HW119495   3.621   6.727   6.814
 2488SOL    HW219496   3.664   6.569   6.820
 2489SOL     OW19497   4.669   0.856   0.628
 2489SOL    HW119498   4.603   0.930   0.638
 2489SOL    HW219499   4.639   0.794   0.555
 2490SOL     OW19500   7.217   2.343   0.539
 2490SOL    HW119501   7.301   2.384   0.575
 2490SOL    HW219502   7.238   2.255   0.497
 2491SOL     OW19503   5.709   8.153   6.084
 2491SOL    HW119504   5.776   8.167   6.157
 2491SOL    HW219505   5.737   8.076   6.026
 2492SOL     OW19506   4.181   1.447   6.325
 2492SOL    HW119507   4.249   1.413   6.390
 2492SOL    HW219508   4.224   1.516   6.267
 2493SOL     OW19509   4.255   4.399   5.836
 2493SOL    HW119510   4.163   4.362   5.828
 2493SOL    HW219511   4.268   4.469   5.766
 2494SOL     OW19512   9.388   3.151   6.722
 2494SOL    HW119513   9.422   3.244   6.710
 2494SOL    HW219514   9.450   3.099   6.781
 2495SOL     OW19515   5.445   3.692   0.932
 2495SOL    HW119516   5.348   3.686   0.956
 2495SOL    HW219517   5.480   3.782   0.959
 2496SOL     OW19518   0.138   1.492   5.637
 2496SOL    HW119519   0.191   1.537   5.565
 2496SOL    HW219520   0.041   1.518   5.629
 2497SOL     OW19521   1.271   5.710   4.459
 2497SOL    HW119522   1.214   5.767   4.400
 2497SOL    HW219523   1.248   5.614   4.445
 2498SOL     OW19524   3.264   7.371   6.230
 2498SOL    HW119525   3.193   7.431   6.267
 2498SOL    HW219526   3.247   7.277   6.261
 2499SOL     OW19527   6.876   6.642   6.024
 2499SOL    HW119528   6.797   6.580   6.026
 2499SOL    HW219529   6.960   6.588   6.014
 2500SOL     OW19530   5.993   7.041   1.093
 2500SOL    HW119531   6.090   7.064   1.099
 2500SOL    HW219532   5.976   6.956   1.141
 2501SOL     OW19533   9.038   7.940   6.853
 2501SOL    HW119534   9.130   7.903   6.871
 2501SOL    HW219535   9.024   7.947   6.755
 2502SOL     OW19536   2.829   2.647   5.695
 2502SOL    HW119537   2.847   2.737   5.655
 2502SOL    HW219538   2.739   2.616   5.667
 2503SOL     OW19539   0.448   7.448   4.382
 2503SOL    HW119540   0.506   7.478   4.306
 2503SOL    HW219541   0.420   7.353   4.367
 2504SOL     OW19542   6.585   3.240   6.019
 2504SOL    HW119543   6.580   3.252   5.920
 2504SOL    HW219544   6.629   3.153   6.040
 2505SOL     OW19545   1.624   2.904   1.050
 2505SOL    HW119546   1.527   2.883   1.064
 2505SOL    HW219547   1.655   2.969   1.119
 2506SOL     OW19548   5.837   2.618   0.329
 2506SOL    HW119549   5.820   2.616   0.427
 2506SOL    HW219550   5.928   2.655   0.311
 2507SOL     OW19551   9.382   1.071   6.808
 2507SOL    HW119552   9.476   1.073   6.773
 2507SOL    HW219553   9.329   1.003   6.757
 2508SOL     OW19554   5.695   0.753   1.889
 2508SOL    HW119555   5.596   0.746   1.904
 2508SOL    HW219556   5.713   0.766   1.791
 2509SOL     OW19557   2.761   1.136   0.979
 2509SOL    HW119558   2.745   1.098   1.070
 2509SOL    HW219559   2.819   1.073   0.926
 2510SOL     OW19560   4.120   0.724   0.478
 2510SOL    HW119561   4.109   0.626   0.463
 2510SOL    HW219562   4.030   0.766   0.491
 2511SOL     OW19563   0.880   0.417   1.275
 2511SOL    HW119564   0.892   0.376   1.185
 2511SOL    HW219565   0.804   0.483   1.273
 2512SOL     OW19566   9.140   3.058   6.803
 2512SOL    HW119567   9.081   3.098   6.732
 2512SOL    HW219568   9.233   3.094   6.792
 2513SOL     OW19569   6.082   7.796   6.741
 2513SOL    HW119570   6.119   7.707   6.771
 2513SOL    HW219571   6.119   7.818   6.651
 2514SOL     OW19572   5.176   7.815   2.257
 2514SOL    HW119573   5.216   7.756   2.187
 2514SOL    HW219574   5.161   7.761   2.340
 2515SOL     OW19575   0.331   5.198   0.934
 2515SOL    HW119576   0.257   5.132   0.945
 2515SOL    HW219577   0.295   5.290   0.946
 2516SOL     OW19578   0.576   8.303   1.793
 2516SOL    HW119579   0.538   8.238   1.859
 2516SOL    HW219580   0.598   8.388   1.840
 2517SOL     OW19581   8.315   1.802   0.922
 2517SOL    HW119582   8.382   1.737   0.885
 2517SOL    HW219583   8.269   1.762   1.001
 2518SOL     OW19584   7.316   5.285   1.575
 2518SOL    HW119585   7.246   5.221   1.542
 2518SOL    HW219586   7.376   5.238   1.640
 2519SOL     OW19587   1.726   6.757   4.905
 2519SOL    HW119588   1.746   6.665   4.873
 2519SOL    HW219589   1.690   6.811   4.829
 2520SOL     OW19590   5.142   1.013   6.210
 2520SOL    HW119591   5.106   1.095   6.166
 2520SOL    HW219592   5.167   0.946   6.140
 2521SOL     OW19593   3.606   2.722   0.347
 2521SOL    HW119594   3.641   2.801   0.296
 2521SOL    HW219595   3.518   2.746   0.389
 2522SOL     OW19596   1.657   7.366   6.936
 2522SOL    HW119597   1.633   7.369   6.839
 2522SOL    HW219598   1.748   7.326   6.947
 2523SOL     OW19599   8.665   2.794   1.797
 2523SOL    HW119600   8.695   2.700   1.814
 2523SOL    HW219601   8.680   2.849   1.879
 2524SOL     OW19602   7.060   8.030   5.796
 2524SOL    HW119603   7.139   7.979   5.763
 2524SOL    HW219604   6.976   7.979   5.777
 2525SOL     OW19605   5.274   0.706   1.555
 2525SOL    HW119606   5.282   0.606   1.550
 2525SOL    HW219607   5.363   0.745   1.579
 2526SOL     OW19608   0.650   6.075   4.892
 2526SOL    HW119609   0.617   5.985   4.862
 2526SOL    HW219610   0.742   6.066   4.930
 2527SOL     OW19611   2.570   5.081   0.790
 2527SOL    HW119612   2.524   5.099   0.704
 2527SOL    HW219613   2.516   5.016   0.844
 2528SOL     OW19614   5.749   1.752   1.933
 2528SOL    HW119615   5.660   1.777   1.894
 2528SOL    HW219616   5.736   1.715   2.025
 2529SOL     OW19617   8.981   3.196   6.628
 2529SOL    HW119618   9.003   3.292   6.610
 2529SOL    HW219619   8.882   3.186   6.638
 2530SOL     OW19620   0.834   5.403   6.594
 2530SOL    HW119621   0.825   5.335   6.520
 2530SOL    HW219622   0.904   5.373   6.658
 2531SOL     OW19623   8.703   7.509   0.530
 2531SOL    HW119624   8.774   7.500   0.601
 2531SOL    HW219625   8.716   7.437   0.462
 2532SOL     OW19626   6.071   4.668   0.973
 2532SOL    HW119627   6.167   4.691   0.958
 2532SOL    HW219628   6.053   4.664   1.071
 2533SOL     OW19629   6.951   4.450   1.478
 2533SOL    HW119630   6.989   4.361   1.503
 2533SOL    HW219631   6.989   4.520   1.539
 2534SOL     OW19632   4.818   6.639   1.413
 2534SOL    HW119633   4.846   6.593   1.328
 2534SOL    HW219634   4.864   6.596   1.491
 2535SOL     OW19635   5.676   6.163   6.673
 2535SOL    HW119636   5.610   6.222   6.719
 2535SOL    HW219637   5.758   6.155   6.730
 2536SOL     OW19638   8.286   4.623   5.553
 2536SOL    HW119639   8.209   4.570   5.518
 2536SOL    HW219640   8.334   4.667   5.477
 2537SOL     OW19641   5.226   7.426   1.004
 2537SOL    HW119642   5.158   7.454   1.071
 2537SOL    HW219643   5.258   7.507   0.954
 2538SOL     OW19644   9.042   0.561   6.856
 2538SOL    HW119645   9.075   0.533   6.766
 2538SOL    HW219646   9.109   0.534   6.926
 2539SOL     OW19647   3.538   4.277   1.122
 2539SOL    HW119648   3.528   4.286   1.023
 2539SOL    HW219649   3.560   4.182   1.145
 2540SOL     OW19650   7.159  -0.037   0.700
 2540SOL    HW119651   7.073  -0.080   0.728
 2540SOL    HW219652   7.209  -0.006   0.781
 2541SOL     OW19653   0.880   6.129   5.467
 2541SOL    HW119654   0.953   6.062   5.479
 2541SOL    HW219655   0.792   6.083   5.466
 2542SOL     OW19656   9.361   1.257   5.555
 2542SOL    HW119657   9.408   1.205   5.627
 2542SOL    HW219658   9.399   1.231   5.466
 2543SOL     OW19659   4.996   5.752   6.294
 2543SOL    HW119660   4.932   5.718   6.364
 2543SOL    HW219661   4.958   5.736   6.203
 2544SOL     OW19662   0.752   1.000   0.750
 2544SOL    HW119663   0.725   1.072   0.813
 2544SOL    HW219664   0.822   1.034   0.687
 2545SOL     OW19665   4.185   4.701   0.282
 2545SOL    HW119666   4.090   4.723   0.304
 2545SOL    HW219667   4.189   4.616   0.230
 2546SOL     OW19668   2.271   5.402   5.201
 2546SOL    HW119669   2.332   5.473   5.166
 2546SOL    HW219670   2.192   5.443   5.245
 2547SOL     OW19671   0.209   2.341   6.894
 2547SOL    HW119672   0.248   2.345   6.986
 2547SOL    HW219673   0.276   2.300   6.831
 2548SOL     OW19674   0.921   6.029   5.769
 2548SOL    HW119675   0.824   6.008   5.784
 2548SOL    HW219676   0.950   6.100   5.833
 2549SOL     OW19677   2.919   4.295   1.419
 2549SOL    HW119678   2.893   4.367   1.355
 2549SOL    HW219679   2.865   4.304   1.503
 2550SOL     OW19680   7.138   0.097   6.921
 2550SOL    HW119681   7.081   0.025   6.882
 2550SOL    HW219682   7.203   0.056   6.985
 2551SOL     OW19683   4.921   8.164   6.864
 2551SOL    HW119684   5.008   8.153   6.911
 2551SOL    HW219685   4.892   8.260   6.870
 2552SOL     OW19686   7.980   8.362   0.463
 2552SOL    HW119687   8.016   8.455   0.453
 2552SOL    HW219688   7.881   8.367   0.480
 2553SOL     OW19689   1.702   2.997   6.650
 2553SOL    HW119690   1.645   2.992   6.568
 2553SOL    HW219691   1.732   3.091   6.664
 2554SOL     OW19692   7.941   0.448   5.830
 2554SOL    HW119693   7.902   0.498   5.753
 2554SOL    HW219694   7.994   0.370   5.796
 2555SOL     OW19695   0.763   5.588   0.673
 2555SOL    HW119696   0.830   5.527   0.632
 2555SOL    HW219697   0.789   5.607   0.768
 2556SOL     OW19698   0.132   3.872   6.538
 2556SOL    HW119699   0.171   3.920   6.617
 2556SOL    HW219700   0.043   3.910   6.515
 2557SOL     OW19701   7.250   1.243   5.616
 2557SOL    HW119702   7.314   1.273   5.545
 2557SOL    HW219703   7.194   1.168   5.580
 2558SOL     OW19704   5.959   5.162   5.288
 2558SOL    HW119705   5.859   5.151   5.295
 2558SOL    HW219706   5.979   5.240   5.228
 2559SOL     OW19707   0.502   3.853   0.574
 2559SOL    HW119708   0.435   3.781   0.594
 2559SOL    HW219709   0.588   3.832   0.620
 2560SOL     OW19710   3.779   1.033   6.611
 2560SOL    HW119711   3.865   1.073   6.639
 2560SOL    HW219712   3.711   1.105   6.597
 2561SOL     OW19713   9.443   2.651   1.896
 2561SOL    HW119714   9.370   2.718   1.913
 2561SOL    HW219715   9.438   2.580   1.966
 2562SOL     OW19716   1.214   6.487   6.177
 2562SOL    HW119717   1.148   6.427   6.133
 2562SOL    HW219718   1.165   6.555   6.232
 2563SOL     OW19719   4.493   6.044   0.627
 2563SOL    HW119720   4.526   5.950   0.639
 2563SOL    HW219721   4.394   6.046   0.642
 2564SOL     OW19722   5.079   0.452   0.405
 2564SOL    HW119723   4.983   0.434   0.430
 2564SOL    HW219724   5.106   0.391   0.331
 2565SOL     OW19725   0.647   6.573   1.382
 2565SOL    HW119726   0.647   6.673   1.369
 2565SOL    HW219727   0.662   6.553   1.479
 2566SOL     OW19728   2.749   3.879   1.350
 2566SOL    HW119729   2.739   3.788   1.390
 2566SOL    HW219730   2.775   3.945   1.421
 2567SOL     OW19731   1.636   5.428   0.754
 2567SOL    HW119732   1.642   5.523   0.785
 2567SOL    HW219733   1.719   5.405   0.703
 2568SOL     OW19734   8.084   4.118   6.872
 2568SOL    HW119735   8.173   4.080   6.849
 2568SOL    HW219736   8.012   4.053   6.846
 2569SOL     OW19737   3.194   3.855   0.548
 2569SOL    HW119738   3.181   3.933   0.609
 2569SOL    HW219739   3.120   3.852   0.481
 2570SOL     OW19740   6.170   6.718   0.527
 2570SOL    HW119741   6.199   6.760   0.612
 2570SOL    HW219742   6.245   6.717   0.462
 2571SOL     OW19743   1.866   2.826   6.772
 2571SOL    HW119744   1.964   2.835   6.790
 2571SOL    HW219745   1.834   2.908   6.723
 2572SOL     OW19746   6.820   5.439   5.487
 2572SOL    HW119747   6.745   5.489   5.529
 2572SOL    HW219748   6.905   5.458   5.537
 2573SOL     OW19749   8.384   6.561   6.732
 2573SOL    HW119750   8.307   6.606   6.687
 2573SOL    HW219751   8.382   6.463   6.713
 2574SOL     OW19752   4.231   6.764   1.828
 2574SOL    HW119753   4.177   6.846   1.849
 2574SOL    HW219754   4.206   6.730   1.738
 2575SOL     OW19755   9.405   7.564   5.882
 2575SOL    HW119756   9.344   7.641   5.861
 2575SOL    HW219757   9.422   7.562   5.981
 2576SOL     OW19758   5.581   4.598   6.746
 2576SOL    HW119759   5.510   4.669   6.742
 2576SOL    HW219760   5.542   4.510   6.721
 2577SOL     OW19761   0.399   8.217   0.353
 2577SOL    HW119762   0.473   8.178   0.409
 2577SOL    HW219763   0.406   8.317   0.355
 2578SOL     OW19764   6.322   5.021   6.520
 2578SOL    HW119765   6.408   4.972   6.503
 2578SOL    HW219766   6.289   5.061   6.434
 2579SOL     OW19767   6.988   0.227   6.577
 2579SOL    HW119768   6.951   0.283   6.502
 2579SOL    HW219769   6.973   0.273   6.664
 2580SOL     OW19770   7.673   3.130   0.949
 2580SOL    HW119771   7.692   3.188   1.028
 2580SOL    HW219772   7.722   3.044   0.958
 2581SOL     OW19773   0.122   1.023   6.030
 2581SOL    HW119774   0.093   1.118   6.042
 2581SOL    HW219775   0.218   1.013   6.056
 2582SOL     OW19776   9.383   5.093   6.191
 2582SOL    HW119777   9.295   5.054   6.220
 2582SOL    HW219778   9.457   5.048   6.239
 2583SOL     OW19779   9.407   1.384   1.430
 2583SOL    HW119780   9.315   1.423   1.434
 2583SOL    HW219781   9.450   1.391   1.520
 2584SOL     OW19782   5.017   2.433   0.792
 2584SOL    HW119783   4.956   2.355   0.807
 2584SOL    HW219784   4.963   2.513   0.765
 2585SOL     OW19785   9.115   2.586   6.036
 2585SOL    HW119786   9.079   2.652   5.971
 2585SOL    HW219787   9.145   2.504   5.988
 2586SOL     OW19788   1.436   5.756   6.350
 2586SOL    HW119789   1.389   5.708   6.275
 2586SOL    HW219790   1.535   5.746   6.338
 2587SOL     OW19791   6.921   0.323   6.841
 2587SOL    HW119792   6.996   0.286   6.896
 2587SOL    HW219793   6.848   0.255   6.833
 2588SOL     OW19794   7.698   6.466   5.065
 2588SOL    HW119795   7.730   6.544   5.011
 2588SOL    HW219796   7.770   6.398   5.073
 2589SOL     OW19797   4.507   6.700   5.717
 2589SOL    HW119798   4.436   6.631   5.731
 2589SOL    HW219799   4.477   6.764   5.646
 2590SOL     OW19800   5.016   2.579   6.462
 2590SOL    HW119801   5.000   2.633   6.545
 2590SOL    HW219802   4.992   2.484   6.479
 2591SOL     OW19803   7.548   5.682   6.003
 2591SOL    HW119804   7.558   5.583   6.017
 2591SOL    HW219805   7.496   5.721   6.079
 2592SOL     OW19806   7.356   0.875   5.974
 2592SOL    HW119807   7.441   0.902   5.929
 2592SOL    HW219808   7.280   0.888   5.910
 2593SOL     OW19809   1.784   3.693   5.429
 2593SOL    HW119810   1.804   3.736   5.341
 2593SOL    HW219811   1.858   3.629   5.453
 2594SOL     OW19812   9.159   1.692   6.529
 2594SOL    HW119813   9.243   1.719   6.576
 2594SOL    HW219814   9.146   1.593   6.537
 2595SOL     OW19815   4.527   6.534   6.735
 2595SOL    HW119816   4.570   6.447   6.759
 2595SOL    HW219817   4.572   6.572   6.654
 2596SOL     OW19818   6.479   2.573   5.530
 2596SOL    HW119819   6.445   2.646   5.589
 2596SOL    HW219820   6.565   2.601   5.488
 2597SOL     OW19821   2.110   3.004   6.086
 2597SOL    HW119822   2.050   3.072   6.044
 2597SOL    HW219823   2.143   3.038   6.174
 2598SOL     OW19824   2.457   0.781   0.997
 2598SOL    HW119825   2.423   0.844   0.927
 2598SOL    HW219826   2.474   0.832   1.082
 2599SOL     OW19827   8.188   3.596   1.616
 2599SOL    HW119828   8.163   3.645   1.699
 2599SOL    HW219829   8.260   3.530   1.636
 2600SOL     OW19830   5.069   7.711   0.231
 2600SOL    HW119831   5.114   7.641   0.175
 2600SOL    HW219832   5.033   7.783   0.172
 2601SOL     OW19833   0.872   8.351   1.742
 2601SOL    HW119834   0.904   8.362   1.837
 2601SOL    HW219835   0.788   8.297   1.742
 2602SOL     OW19836   1.426   5.075   0.341
 2602SOL    HW119837   1.349   5.066   0.279
 2602SOL    HW219838   1.425   5.166   0.383
 2603SOL     OW19839   4.199   1.443   5.710
 2603SOL    HW119840   4.267   1.509   5.744
 2603SOL    HW219841   4.179   1.464   5.614
 2604SOL     OW19842   8.544   6.210   1.303
 2604SOL    HW119843   8.623   6.153   1.282
 2604SOL    HW219844   8.557   6.253   1.392
 2605SOL     OW19845   5.550   1.266   6.441
 2605SOL    HW119846   5.598   1.180   6.423
 2605SOL    HW219847   5.454   1.246   6.461
 2606SOL     OW19848   1.837   1.585   6.784
 2606SOL    HW119849   1.756   1.631   6.747
 2606SOL    HW219850   1.872   1.636   6.863
 2607SOL     OW19851   3.538   7.978   1.274
 2607SOL    HW119852   3.449   7.989   1.229
 2607SOL    HW219853   3.524   7.970   1.373
 2608SOL     OW19854   5.016   0.715   6.601
 2608SOL    HW119855   4.995   0.646   6.671
 2608SOL    HW219856   5.031   0.670   6.513
 2609SOL     OW19857   1.036   8.349   1.508
 2609SOL    HW119858   1.129   8.383   1.526
 2609SOL    HW219859   0.973   8.384   1.577
 2610SOL     OW19860   5.585   6.840   1.515
 2610SOL    HW119861   5.673   6.795   1.531
 2610SOL    HW219862   5.519   6.774   1.481
 2611SOL     OW19863   4.084   3.598   1.234
 2611SOL    HW119864   4.018   3.616   1.161
 2611SOL    HW219865   4.164   3.656   1.221
 2612SOL     OW19866   2.217   7.002   6.554
 2612SOL    HW119867   2.184   6.910   6.532
 2612SOL    HW219868   2.193   7.024   6.649
 2613SOL     OW19869   0.858   2.622   1.184
 2613SOL    HW119870   0.906   2.710   1.187
 2613SOL    HW219871   0.761   2.637   1.202
 2614SOL     OW19872   6.601   6.832   1.023
 2614SOL    HW119873   6.577   6.927   1.042
 2614SOL    HW219874   6.559   6.803   0.937
 2615SOL     OW19875   2.049   5.659   1.102
 2615SOL    HW119876   2.008   5.726   1.040
 2615SOL    HW219877   2.016   5.568   1.079
 2616SOL     OW19878   4.883   4.702   1.289
 2616SOL    HW119879   4.973   4.660   1.295
 2616SOL    HW219880   4.845   4.712   1.381
 2617SOL     OW19881   3.869   2.985   0.708
 2617SOL    HW119882   3.918   3.068   0.731
 2617SOL    HW219883   3.934   2.911   0.691
 2618SOL     OW19884   9.538   7.615   0.973
 2618SOL    HW119885   9.600   7.629   1.050
 2618SOL    HW219886   9.494   7.526   0.982
 2619SOL     OW19887   1.850   7.184   5.159
 2619SOL    HW119888   1.859   7.273   5.114
 2619SOL    HW219889   1.895   7.114   5.103
 2620SOL     OW19890   6.332   3.183   0.843
 2620SOL    HW119891   6.288   3.227   0.921
 2620SOL    HW219892   6.422   3.150   0.869
 2621SOL     OW19893   2.130   1.563   0.475
 2621SOL    HW119894   2.220   1.540   0.513
 2621SOL    HW219895   2.063   1.565   0.549
 2622SOL     OW19896   3.790   5.457   1.991
 2622SOL    HW119897   3.769   5.554   2.001
 2622SOL    HW219898   3.762   5.408   2.073
 2623SOL     OW19899   7.809   5.994   5.978
 2623SOL    HW119900   7.836   5.916   5.923
 2623SOL    HW219901   7.713   5.985   6.004
 2624SOL     OW19902   5.324   6.795   1.696
 2624SOL    HW119903   5.356   6.855   1.622
 2624SOL    HW219904   5.326   6.845   1.783
 2625SOL     OW19905   5.160   7.999   1.386
 2625SOL    HW119906   5.143   7.973   1.291
 2625SOL    HW219907   5.079   8.042   1.424
 2626SOL     OW19908   8.975   4.620   6.514
 2626SOL    HW119909   8.987   4.713   6.479
 2626SOL    HW219910   9.064   4.582   6.539
 2627SOL     OW19911   6.146   4.913   0.302
 2627SOL    HW119912   6.233   4.908   0.352
 2627SOL    HW219913   6.070   4.904   0.366
 2628SOL     OW19914   7.359   3.762   6.714
 2628SOL    HW119915   7.419   3.733   6.639
 2628SOL    HW219916   7.386   3.712   6.797
 2629SOL     OW19917   1.890   6.638   6.196
 2629SOL    HW119918   1.839   6.707   6.144
 2629SOL    HW219919   1.984   6.669   6.207
 2630SOL     OW19920   7.003   5.801   1.229
 2630SOL    HW119921   7.001   5.768   1.134
 2630SOL    HW219922   7.059   5.739   1.284
 2631SOL     OW19923   4.015   1.167   6.641
 2631SOL    HW119924   4.021   1.199   6.735
 2631SOL    HW219925   3.972   1.238   6.584
 2632SOL     OW19926   1.241   0.539   5.668
 2632SOL    HW119927   1.305   0.474   5.708
 2632SOL    HW219928   1.225   0.516   5.572
 2633SOL     OW19929   0.565   5.360   0.544
 2633SOL    HW119930   0.631   5.300   0.590
 2633SOL    HW219931   0.565   5.450   0.586
 2634SOL     OW19932   4.125   1.654   1.390
 2634SOL    HW119933   4.185   1.578   1.362
 2634SOL    HW219934   4.068   1.681   1.313
 2635SOL     OW19935   1.855   5.533   5.554
 2635SOL    HW119936   1.839   5.435   5.562
 2635SOL    HW219937   1.932   5.548   5.491
 2636SOL     OW19938   7.616   7.588   5.724
 2636SOL    HW119939   7.615   7.495   5.759
 2636SOL    HW219940   7.620   7.586   5.624
 2637SOL     OW19941   5.037   0.008   4.880
 2637SOL    HW119942   5.018  -0.073   4.825
 2637SOL    HW219943   4.983   0.004   4.964
 2638SOL     OW19944   0.853   5.233   6.402
 2638SOL    HW119945   0.928   5.169   6.422
 2638SOL    HW219946   0.777   5.182   6.361
 2639SOL     OW19947   5.616   6.704   1.017
 2639SOL    HW119948   5.597   6.780   0.955
 2639SOL    HW219949   5.533   6.650   1.030
 2640SOL     OW19950   2.429   3.941   0.703
 2640SOL    HW119951   2.399   4.037   0.711
 2640SOL    HW219952   2.357   3.881   0.738
 2641SOL     OW19953   5.684   2.762   6.602
 2641SOL    HW119954   5.699   2.665   6.585
 2641SOL    HW219955   5.653   2.806   6.517
 2642SOL     OW19956   1.230   0.383   0.820
 2642SOL    HW119957   1.240   0.477   0.853
 2642SOL    HW219958   1.162   0.380   0.747
 2643SOL     OW19959   5.001   7.580   5.681
 2643SOL    HW119960   5.042   7.608   5.768
 2643SOL    HW219961   5.051   7.502   5.643
 2644SOL     OW19962   8.031   4.807   5.892
 2644SOL    HW119963   8.088   4.735   5.930
 2644SOL    HW219964   8.037   4.805   5.792
 2645SOL     OW19965   8.117   1.158   1.084
 2645SOL    HW119966   8.087   1.156   0.989
 2645SOL    HW219967   8.037   1.157   1.144
 2646SOL     OW19968   6.843   2.470   6.776
 2646SOL    HW119969   6.755   2.512   6.796
 2646SOL    HW219970   6.840   2.374   6.803
 2647SOL     OW19971   4.979   7.959   0.698
 2647SOL    HW119972   4.908   7.963   0.628
 2647SOL    HW219973   5.047   7.889   0.673
 2648SOL     OW19974   6.978   3.128   0.257
 2648SOL    HW119975   6.895   3.184   0.256
 2648SOL    HW219976   7.025   3.140   0.344
 2649SOL     OW19977   0.927   5.343   4.872
 2649SOL    HW119978   0.860   5.349   4.798
 2649SOL    HW219979   0.893   5.395   4.951
 2650SOL     OW19980   6.100   1.837   6.516
 2650SOL    HW119981   6.116   1.756   6.460
 2650SOL    HW219982   6.177   1.899   6.508
 2651SOL     OW19983   6.266   7.981   5.289
 2651SOL    HW119984   6.181   7.996   5.340
 2651SOL    HW219985   6.249   7.918   5.213
 2652SOL     OW19986   2.062   0.630   5.839
 2652SOL    HW119987   2.101   0.671   5.756
 2652SOL    HW219988   2.109   0.667   5.919
 2653SOL     OW19989   5.930   5.931   1.282
 2653SOL    HW119990   5.951   5.973   1.370
 2653SOL    HW219991   5.961   5.836   1.282
 2654SOL     OW19992   0.502   1.159   0.842
 2654SOL    HW119993   0.493   1.241   0.898
 2654SOL    HW219994   0.523   1.184   0.748
 2655SOL     OW19995   4.400   1.203   1.223
 2655SOL    HW119996   4.455   1.120   1.229
 2655SOL    HW219997   4.344   1.200   1.141
 2656SOL     OW19998   5.984   7.457   1.190
 2656SOL    HW119999   5.968   7.444   1.092
 2656SOL    HW220000   6.024   7.547   1.206
 2657SOL     OW20001   8.134   3.135   6.867
 2657SOL    HW120002   8.148   3.152   6.965
 2657SOL    HW220003   8.040   3.157   6.843
 2658SOL     OW20004   0.171   1.990   0.315
 2658SOL    HW120005   0.127   1.926   0.253
 2658SOL    HW220006   0.118   1.995   0.400
 2659SOL     OW20007   3.839   6.305   0.267
 2659SOL    HW120008   3.826   6.216   0.311
 2659SOL    HW220009   3.834   6.377   0.336
 2660SOL     OW20010   7.384   2.131   6.347
 2660SOL    HW120011   7.390   2.099   6.253
 2660SOL    HW220012   7.291   2.119   6.380
 2661SOL     OW20013   7.065   0.233   0.744
 2661SOL    HW120014   7.002   0.283   0.685
 2661SOL    HW220015   7.102   0.154   0.694
 2662SOL     OW20016   8.608   8.180   6.672
 2662SOL    HW120017   8.613   8.132   6.584
 2662SOL    HW220018   8.528   8.239   6.673
 2663SOL     OW20019   8.815   7.277   5.835
 2663SOL    HW120020   8.908   7.289   5.871
 2663SOL    HW220021   8.793   7.180   5.831
 2664SOL     OW20022   7.885   0.839   6.918
 2664SOL    HW120023   7.940   0.900   6.861
 2664SOL    HW220024   7.795   0.827   6.877
 2665SOL     OW20025   2.455   3.433   6.362
 2665SOL    HW120026   2.473   3.335   6.357
 2665SOL    HW220027   2.542   3.482   6.370
 2666SOL     OW20028   7.715   3.614   0.463
 2666SOL    HW120029   7.688   3.710   0.472
 2666SOL    HW220030   7.639   3.561   0.424
 2667SOL     OW20031   4.198   1.905   0.672
 2667SOL    HW120032   4.109   1.867   0.645
 2667SOL    HW220033   4.207   1.997   0.635
 2668SOL     OW20034   5.431   3.307   6.124
 2668SOL    HW120035   5.499   3.378   6.142
 2668SOL    HW220036   5.403   3.265   6.210
 2669SOL     OW20037   6.547   6.443   0.442
 2669SOL    HW120038   6.560   6.352   0.482
 2669SOL    HW220039   6.593   6.511   0.500
 2670SOL     OW20040   0.814   6.432   6.138
 2670SOL    HW120041   0.805   6.436   6.238
 2670SOL    HW220042   0.723   6.419   6.098
 2671SOL     OW20043   7.069   4.435   1.135
 2671SOL    HW120044   7.149   4.453   1.193
 2671SOL    HW220045   7.056   4.512   1.073
 2672SOL     OW20046   4.088   6.988   5.597
 2672SOL    HW120047   3.992   7.017   5.594
 2672SOL    HW220048   4.124   6.982   5.504
 2673SOL     OW20049   4.700   4.941   0.884
 2673SOL    HW120050   4.721   4.851   0.921
 2673SOL    HW220051   4.687   5.006   0.959
 2674SOL     OW20052   7.926   1.116   0.573
 2674SOL    HW120053   7.871   1.048   0.526
 2674SOL    HW220054   7.914   1.205   0.529
 2675SOL     OW20055   5.072   0.703   0.289
 2675SOL    HW120056   5.094   0.610   0.321
 2675SOL    HW220057   5.021   0.751   0.360
 2676SOL     OW20058   2.730   0.532   1.798
 2676SOL    HW120059   2.703   0.440   1.769
 2676SOL    HW220060   2.829   0.543   1.788
 2677SOL     OW20061   0.376   6.097   5.008
 2677SOL    HW120062   0.458   6.112   4.953
 2677SOL    HW220063   0.400   6.092   5.104
 2678SOL     OW20064   1.190   4.891   6.345
 2678SOL    HW120065   1.108   4.845   6.310
 2678SOL    HW220066   1.246   4.825   6.394
 2679SOL     OW20067   0.448   2.940   6.829
 2679SOL    HW120068   0.475   2.948   6.733
 2679SOL    HW220069   0.441   3.031   6.869
 2680SOL     OW20070   1.281   6.379   5.067
 2680SOL    HW120071   1.255   6.426   4.983
 2680SOL    HW220072   1.372   6.410   5.095
 2681SOL     OW20073   6.458   2.291   5.585
 2681SOL    HW120074   6.475   2.380   5.542
 2681SOL    HW220075   6.539   2.233   5.575
 2682SOL     OW20076   3.795   0.200   6.205
 2682SOL    HW120077   3.822   0.271   6.270
 2682SOL    HW220078   3.870   0.184   6.141
 2683SOL     OW20079   7.489   8.168   5.377
 2683SOL    HW120080   7.548   8.095   5.344
 2683SOL    HW220081   7.504   8.181   5.475
 2684SOL     OW20082   8.906   4.033   0.841
 2684SOL    HW120083   8.897   3.978   0.924
 2684SOL    HW220084   8.829   4.014   0.780
 2685SOL     OW20085   1.620   5.687   4.798
 2685SOL    HW120086   1.586   5.730   4.714
 2685SOL    HW220087   1.598   5.589   4.797
 2686SOL     OW20088   9.477   8.047   5.534
 2686SOL    HW120089   9.497   8.140   5.566
 2686SOL    HW220090   9.426   8.052   5.448
 2687SOL     OW20091   3.296   2.956   5.752
 2687SOL    HW120092   3.199   2.963   5.775
 2687SOL    HW220093   3.323   3.035   5.696
 2688SOL     OW20094   7.784   6.835   5.846
 2688SOL    HW120095   7.764   6.897   5.770
 2688SOL    HW220096   7.879   6.847   5.876
 2689SOL     OW20097   4.212   3.303   1.541
 2689SOL    HW120098   4.125   3.254   1.542
 2689SOL    HW220099   4.214   3.370   1.615
 2690SOL     OW20100   6.868   7.707   6.605
 2690SOL    HW120101   6.781   7.661   6.624
 2690SOL    HW220102   6.853   7.805   6.597
 2691SOL     OW20103   6.231   7.204   0.492
 2691SOL    HW120104   6.306   7.138   0.496
 2691SOL    HW220105   6.167   7.187   0.566
 2692SOL     OW20106   8.860   5.280   1.458
 2692SOL    HW120107   8.773   5.249   1.418
 2692SOL    HW220108   8.841   5.349   1.528
 2693SOL     OW20109   1.656   8.196   6.820
 2693SOL    HW120110   1.575   8.224   6.873
 2693SOL    HW220111   1.650   8.233   6.728
 2694SOL     OW20112   5.338   4.812   1.817
 2694SOL    HW120113   5.272   4.775   1.753
 2694SOL    HW220114   5.306   4.797   1.911
 2695SOL     OW20115   2.311   7.121   1.684
 2695SOL    HW120116   2.305   7.179   1.603
 2695SOL    HW220117   2.290   7.175   1.766
 2696SOL     OW20118   8.673   5.423   0.516
 2696SOL    HW120119   8.674   5.466   0.426
 2696SOL    HW220120   8.670   5.494   0.587
 2697SOL     OW20121   4.947   6.578   6.508
 2697SOL    HW120122   5.032   6.526   6.521
 2697SOL    HW220123   4.960   6.671   6.543
 2698SOL     OW20124   9.210   7.384   1.001
 2698SOL    HW120125   9.231   7.359   0.907
 2698SOL    HW220126   9.258   7.322   1.063
 2699SOL     OW20127   8.954   6.996   4.780
 2699SOL    HW120128   8.971   6.913   4.726
 2699SOL    HW220129   8.941   7.073   4.718
 2700SOL     OW20130   6.706   8.368   1.830
 2700SOL    HW120131   6.659   8.348   1.915
 2700SOL    HW220132   6.743   8.460   1.833
 2701SOL     OW20133   3.341   7.963   5.491
 2701SOL    HW120134   3.294   8.024   5.427
 2701SOL    HW220135   3.436   7.992   5.501
 2702SOL     OW20136   4.032   1.254   5.377
 2702SOL    HW120137   4.021   1.216   5.285
 2702SOL    HW220138   4.084   1.190   5.434
 2703SOL     OW20139   9.271   6.273   6.409
 2703SOL    HW120140   9.225   6.216   6.342
 2703SOL    HW220141   9.211   6.288   6.488
 2704SOL     OW20142   8.888   3.093   5.826
 2704SOL    HW120143   8.896   3.176   5.880
 2704SOL    HW220144   8.818   3.106   5.756
 2705SOL     OW20145   3.874   6.885   0.829
 2705SOL    HW120146   3.924   6.929   0.903
 2705SOL    HW220147   3.851   6.791   0.855
 2706SOL     OW20148   1.024   6.435   6.435
 2706SOL    HW120149   0.928   6.416   6.455
 2706SOL    HW220150   1.034   6.530   6.405
 2707SOL     OW20151   8.392   1.089   1.602
 2707SOL    HW120152   8.437   1.011   1.558
 2707SOL    HW220153   8.440   1.112   1.686
 2708SOL     OW20154   7.787   2.202   0.233
 2708SOL    HW120155   7.876   2.157   0.220
 2708SOL    HW220156   7.715   2.144   0.194
 2709SOL     OW20157   1.482   8.152   5.661
 2709SOL    HW120158   1.400   8.113   5.703
 2709SOL    HW220159   1.554   8.161   5.730
 2710SOL     OW20160   3.165   0.359   1.292
 2710SOL    HW120161   3.097   0.424   1.257
 2710SOL    HW220162   3.203   0.394   1.378
 2711SOL     OW20163   9.503   0.815   6.162
 2711SOL    HW120164   9.561   0.889   6.127
 2711SOL    HW220165   9.535   0.789   6.253
 2712SOL     OW20166   1.357   7.810   0.660
 2712SOL    HW120167   1.446   7.854   0.665
 2712SOL    HW220168   1.356   7.745   0.583
 2713SOL     OW20169   4.516   8.027   0.559
 2713SOL    HW120170   4.571   8.108   0.538
 2713SOL    HW220171   4.478   8.036   0.651
 2714SOL     OW20172   1.597   2.358   6.934
 2714SOL    HW120173   1.499   2.368   6.951
 2714SOL    HW220174   1.631   2.442   6.892
 2715SOL     OW20175   4.296   7.870   5.731
 2715SOL    HW120176   4.359   7.906   5.799
 2715SOL    HW220177   4.346   7.819   5.662
 2716SOL     OW20178   7.978   5.782   6.507
 2716SOL    HW120179   7.943   5.739   6.591
 2716SOL    HW220180   7.963   5.721   6.430
 2717SOL     OW20181   7.528   5.617   1.078
 2717SOL    HW120182   7.535   5.520   1.057
 2717SOL    HW220183   7.554   5.633   1.173
 2718SOL     OW20184   5.913   4.165   1.188
 2718SOL    HW120185   5.823   4.131   1.213
 2718SOL    HW220186   5.983   4.115   1.239
 2719SOL     OW20187   5.162   1.783   6.593
 2719SOL    HW120188   5.235   1.717   6.574
 2719SOL    HW220189   5.202   1.864   6.636
 2720SOL     OW20190   3.076   5.111   1.340
 2720SOL    HW120191   3.155   5.070   1.384
 2720SOL    HW220192   3.034   5.178   1.402
 2721SOL     OW20193   4.264   8.271   6.771
 2721SOL    HW120194   4.321   8.227   6.702
 2721SOL    HW220195   4.282   8.370   6.770
 2722SOL     OW20196   1.099   2.040   0.468
 2722SOL    HW120197   1.036   2.020   0.543
 2722SOL    HW220198   1.084   1.975   0.394
 2723SOL     OW20199   3.262   8.272   5.400
 2723SOL    HW120200   3.273   8.345   5.333
 2723SOL    HW220201   3.224   8.191   5.355
 2724SOL     OW20202   3.191   0.416   6.468
 2724SOL    HW120203   3.264   0.349   6.470
 2724SOL    HW220204   3.187   0.464   6.556
 2725SOL     OW20205   8.378   1.549   6.053
 2725SOL    HW120206   8.316   1.478   6.021
 2725SOL    HW220207   8.472   1.516   6.052
 2726SOL     OW20208   2.830   1.841   6.771
 2726SOL    HW120209   2.883   1.771   6.723
 2726SOL    HW220210   2.733   1.827   6.755
 2727SOL     OW20211   2.191   8.196   6.611
 2727SOL    HW120212   2.196   8.097   6.625
 2727SOL    HW220213   2.148   8.238   6.691
 2728SOL     OW20214   8.739   4.781   0.821
 2728SOL    HW120215   8.827   4.828   0.817
 2728SOL    HW220216   8.735   4.727   0.905
 2729SOL     OW20217   8.542   4.791   0.635
 2729SOL    HW120218   8.486   4.709   0.626
 2729SOL    HW220219   8.608   4.779   0.709
 2730SOL     OW20220   4.180   5.954   2.317
 2730SOL    HW120221   4.149   5.859   2.320
 2730SOL    HW220222   4.196   5.987   2.410
 2731SOL     OW20223   3.840   5.229   5.807
 2731SOL    HW120224   3.924   5.279   5.789
 2731SOL    HW220225   3.764   5.294   5.818
 2732SOL     OW20226   8.609   3.085   0.253
 2732SOL    HW120227   8.662   3.164   0.221
 2732SOL    HW220228   8.515   3.093   0.222
 2733SOL     OW20229   1.899   7.590   6.645
 2733SOL    HW120230   1.844   7.672   6.661
 2733SOL    HW220231   1.944   7.563   6.730
 2734SOL     OW20232   6.623   7.700   6.315
 2734SOL    HW120233   6.603   7.611   6.355
 2734SOL    HW220234   6.552   7.725   6.249
 2735SOL     OW20235   6.488   2.713   5.769
 2735SOL    HW120236   6.440   2.631   5.801
 2735SOL    HW220237   6.572   2.725   5.821
 2736SOL     OW20238   7.944   2.389   5.793
 2736SOL    HW120239   8.026   2.414   5.845
 2736SOL    HW220240   7.964   2.390   5.696
 2737SOL     OW20241   3.036   7.432   0.515
 2737SOL    HW120242   3.063   7.403   0.607
 2737SOL    HW220243   3.010   7.352   0.462
 2738SOL     OW20244   5.184   4.469   0.883
 2738SOL    HW120245   5.279   4.478   0.851
 2738SOL    HW220246   5.143   4.560   0.891
 2739SOL     OW20247   7.768   4.097   0.500
 2739SOL    HW120248   7.724   4.144   0.424
 2739SOL    HW220249   7.857   4.139   0.519
 2740SOL     OW20250   5.793   1.597   0.228
 2740SOL    HW120251   5.719   1.624   0.289
 2740SOL    HW220252   5.759   1.591   0.134
 2741SOL     OW20253   4.640   6.986   5.143
 2741SOL    HW120254   4.696   7.067   5.161
 2741SOL    HW220255   4.552   7.014   5.107
 2742SOL     OW20256   3.092   1.383   0.843
 2742SOL    HW120257   3.172   1.347   0.893
 2742SOL    HW220258   3.042   1.446   0.902
 2743SOL     OW20259   0.865   1.115   4.913
 2743SOL    HW120260   0.783   1.160   4.876
 2743SOL    HW220261   0.938   1.182   4.925
 2744SOL     OW20262   1.931   7.269   1.296
 2744SOL    HW120263   1.998   7.278   1.369
 2744SOL    HW220264   1.840   7.259   1.336
 2745SOL     OW20265   5.211   5.951   5.861
 2745SOL    HW120266   5.111   5.957   5.870
 2745SOL    HW220267   5.237   5.971   5.766
 2746SOL     OW20268   2.920   0.371   0.824
 2746SOL    HW120269   2.919   0.271   0.818
 2746SOL    HW220270   2.862   0.400   0.901
 2747SOL     OW20271   7.939   0.618   1.076
 2747SOL    HW120272   7.867   0.551   1.098
 2747SOL    HW220273   7.909   0.709   1.103
 2748SOL     OW20274   1.144   8.307   6.639
 2748SOL    HW120275   1.129   8.245   6.716
 2748SOL    HW220276   1.167   8.398   6.674
 2749SOL     OW20277   2.953   6.048   1.039
 2749SOL    HW120278   2.995   6.020   0.952
 2749SOL    HW220279   2.914   5.967   1.084
 2750SOL     OW20280   2.160   4.924   1.282
 2750SOL    HW120281   2.251   4.918   1.242
 2750SOL    HW220282   2.092   4.925   1.208
 2751SOL     OW20283   9.247   7.727   6.794
 2751SOL    HW120284   9.182   7.751   6.722
 2751SOL    HW220285   9.315   7.799   6.803
 2752SOL     OW20286   7.677   2.612   6.842
 2752SOL    HW120287   7.727   2.696   6.818
 2752SOL    HW220288   7.636   2.622   6.932
 2753SOL     OW20289   1.108   7.136   0.263
 2753SOL    HW120290   1.027   7.094   0.305
 2753SOL    HW220291   1.190   7.095   0.303
 2754SOL     OW20292   2.095   2.506   5.986
 2754SOL    HW120293   2.108   2.577   6.055
 2754SOL    HW220294   2.001   2.510   5.951
 2755SOL     OW20295   3.198   1.703   6.391
 2755SOL    HW120296   3.173   1.691   6.487
 2755SOL    HW220297   3.115   1.702   6.335
 2756SOL     OW20298   7.986   1.792   0.503
 2756SOL    HW120299   8.026   1.731   0.572
 2756SOL    HW220300   8.008   1.886   0.526
 2757SOL     OW20301   9.316   0.841   1.220
 2757SOL    HW120302   9.359   0.829   1.309
 2757SOL    HW220303   9.219   0.861   1.233
 2758SOL     OW20304   5.336   5.992   1.604
 2758SOL    HW120305   5.335   5.900   1.644
 2758SOL    HW220306   5.286   6.055   1.662
 2759SOL     OW20307   5.203   1.927   6.338
 2759SOL    HW120308   5.217   2.026   6.335
 2759SOL    HW220309   5.276   1.885   6.392
 2760SOL     OW20310   5.497   4.153   0.793
 2760SOL    HW120311   5.545   4.075   0.753
 2760SOL    HW220312   5.420   4.178   0.735
 2761SOL     OW20313   2.972   5.964   5.753
 2761SOL    HW120314   3.020   5.951   5.666
 2761SOL    HW220315   2.997   5.890   5.815
 2762SOL     OW20316   1.269   4.301   0.698
 2762SOL    HW120317   1.183   4.270   0.738
 2762SOL    HW220318   1.256   4.390   0.654
 2763SOL     OW20319   1.062   4.160   6.128
 2763SOL    HW120320   1.102   4.088   6.183
 2763SOL    HW220321   0.972   4.184   6.164
 2764SOL     OW20322   0.310   5.920   6.624
 2764SOL    HW120323   0.293   5.824   6.602
 2764SOL    HW220324   0.408   5.934   6.636
 2765SOL     OW20325   6.855   0.138   0.542
 2765SOL    HW120326   6.889   0.088   0.463
 2765SOL    HW220327   6.765   0.103   0.567
 2766SOL     OW20328   8.220   3.353   1.800
 2766SOL    HW120329   8.145   3.350   1.866
 2766SOL    HW220330   8.300   3.396   1.841
 2767SOL     OW20331   3.283   1.009   2.020
 2767SOL    HW120332   3.368   1.028   2.070
 2767SOL    HW220333   3.272   1.076   1.947
 2768SOL     OW20334   9.561   3.433   0.899
 2768SOL    HW120335   9.528   3.489   0.823
 2768SOL    HW220336   9.499   3.444   0.977
 2769SOL     OW20337   1.257   5.058   6.844
 2769SOL    HW120338   1.301   5.078   6.756
 2769SOL    HW220339   1.254   4.959   6.857
 2770SOL     OW20340   5.604   2.470   0.691
 2770SOL    HW120341   5.536   2.542   0.688
 2770SOL    HW220342   5.578   2.397   0.626
 2771SOL     OW20343   5.894   2.406   6.442
 2771SOL    HW120344   5.897   2.419   6.343
 2771SOL    HW220345   5.925   2.313   6.464
 2772SOL     OW20346   8.981   4.288   0.793
 2772SOL    HW120347   9.077   4.281   0.766
 2772SOL    HW220348   8.943   4.196   0.806
 2773SOL     OW20349   6.193   5.164   6.925
 2773SOL    HW120350   6.195   5.074   6.968
 2773SOL    HW220351   6.100   5.201   6.928
 2774SOL     OW20352   4.255   0.278   5.431
 2774SOL    HW120353   4.254   0.225   5.516
 2774SOL    HW220354   4.209   0.226   5.359
 2775SOL     OW20355   1.022   3.972   6.710
 2775SOL    HW120356   0.934   3.929   6.730
 2775SOL    HW220357   1.007   4.064   6.674
 2776SOL     OW20358   7.446   7.425   6.827
 2776SOL    HW120359   7.372   7.442   6.762
 2776SOL    HW220360   7.502   7.350   6.794
 2777SOL     OW20361   1.805   0.835   5.403
 2777SOL    HW120362   1.850   0.829   5.314
 2777SOL    HW220363   1.770   0.928   5.416
 2778SOL     OW20364   0.505   4.783   6.851
 2778SOL    HW120365   0.574   4.852   6.876
 2778SOL    HW220366   0.550   4.695   6.837
 2779SOL     OW20367   7.719   8.396   0.434
 2779SOL    HW120368   7.703   8.487   0.397
 2779SOL    HW220369   7.648   8.333   0.400
 2780SOL     OW20370   4.647   3.617   1.066
 2780SOL    HW120371   4.590   3.577   0.994
 2780SOL    HW220372   4.740   3.579   1.058
 2781SOL     OW20373   3.423   7.185   1.054
 2781SOL    HW120374   3.462   7.124   0.985
 2781SOL    HW220375   3.329   7.208   1.030
 2782SOL     OW20376   1.110   7.995   6.603
 2782SOL    HW120377   1.197   7.949   6.584
 2782SOL    HW220378   1.110   8.027   6.698
 2783SOL     OW20379   9.577   2.539   5.882
 2783SOL    HW120380   9.542   2.622   5.838
 2783SOL    HW220381   9.542   2.534   5.976
 2784SOL     OW20382   4.222   7.745   6.321
 2784SOL    HW120383   4.295   7.782   6.264
 2784SOL    HW220384   4.261   7.694   6.397
 2785SOL     OW20385   1.422   3.400   0.260
 2785SOL    HW120386   1.324   3.386   0.243
 2785SOL    HW220387   1.468   3.312   0.263
 2786SOL     OW20388   1.972   0.771   0.943
 2786SOL    HW120389   2.031   0.781   0.863
 2786SOL    HW220390   1.877   0.762   0.913
 2787SOL     OW20391   9.147   6.818   5.789
 2787SOL    HW120392   9.195   6.738   5.825
 2787SOL    HW220393   9.201   6.900   5.806
 2788SOL     OW20394   8.937   7.408   1.042
 2788SOL    HW120395   8.938   7.416   1.142
 2788SOL    HW220396   9.030   7.418   1.007
 2789SOL     OW20397   6.889   4.724   6.587
 2789SOL    HW120398   6.805   4.777   6.594
 2789SOL    HW220399   6.914   4.714   6.490
 2790SOL     OW20400   4.737   7.003   0.546
 2790SOL    HW120401   4.781   7.092   0.555
 2790SOL    HW220402   4.651   7.003   0.598
 2791SOL     OW20403   0.427   7.290   0.726
 2791SOL    HW120404   0.465   7.225   0.659
 2791SOL    HW220405   0.402   7.240   0.809
 2792SOL     OW20406   8.270   3.304   0.489
 2792SOL    HW120407   8.265   3.358   0.405
 2792SOL    HW220408   8.233   3.212   0.472
 2793SOL     OW20409   2.283   6.391   5.280
 2793SOL    HW120410   2.264   6.480   5.239
 2793SOL    HW220411   2.381   6.372   5.275
 2794SOL     OW20412   9.080   4.548   0.844
 2794SOL    HW120413   9.100   4.584   0.752
 2794SOL    HW220414   9.042   4.456   0.836
 2795SOL     OW20415   4.429   2.168   5.915
 2795SOL    HW120416   4.374   2.249   5.894
 2795SOL    HW220417   4.526   2.191   5.906
 2796SOL     OW20418   7.769   6.565   6.848
 2796SOL    HW120419   7.718   6.598   6.928
 2796SOL    HW220420   7.834   6.495   6.878
 2797SOL     OW20421   7.420   2.918   0.753
 2797SOL    HW120422   7.462   2.830   0.774
 2797SOL    HW220423   7.414   2.973   0.837
 2798SOL     OW20424   7.070   0.861   1.548
 2798SOL    HW120425   7.128   0.942   1.553
 2798SOL    HW220426   7.126   0.779   1.563
 2799SOL     OW20427   1.521   2.038   6.711
 2799SOL    HW120428   1.497   2.043   6.614
 2799SOL    HW220429   1.472   1.961   6.753
 2800SOL     OW20430   6.444   4.864   0.348
 2800SOL    HW120431   6.521   4.902   0.400
 2800SOL    HW220432   6.441   4.908   0.258
 2801SOL     OW20433   2.340   1.401   0.973
 2801SOL    HW120434   2.357   1.344   0.893
 2801SOL    HW220435   2.425   1.447   1.000
 2802SOL     OW20436   4.242   7.266   0.424
 2802SOL    HW120437   4.247   7.224   0.333
 2802SOL    HW220438   4.314   7.334   0.433
 2803SOL     OW20439   4.110   3.233   0.242
 2803SOL    HW120440   4.167   3.176   0.182
 2803SOL    HW220441   4.162   3.258   0.324
 2804SOL     OW20442   6.345   4.376   0.936
 2804SOL    HW120443   6.280   4.365   1.011
 2804SOL    HW220444   6.311   4.446   0.872
 2805SOL     OW20445   5.058   6.645   5.117
 2805SOL    HW120446   4.982   6.700   5.082
 2805SOL    HW220447   5.144   6.679   5.079
 2806SOL     OW20448   5.549   0.878   5.801
 2806SOL    HW120449   5.620   0.811   5.824
 2806SOL    HW220450   5.541   0.885   5.702
 2807SOL     OW20451   9.416   2.659   1.407
 2807SOL    HW120452   9.459   2.579   1.366
 2807SOL    HW220453   9.487   2.720   1.444
 2808SOL     OW20454   8.984   3.283   5.988
 2808SOL    HW120455   8.976   3.382   5.999
 2808SOL    HW220456   8.965   3.238   6.075
 2809SOL     OW20457   4.978   3.739   1.339
 2809SOL    HW120458   5.033   3.818   1.366
 2809SOL    HW220459   4.881   3.764   1.340
 2810SOL     OW20460   6.315   0.631   6.250
 2810SOL    HW120461   6.258   0.550   6.264
 2810SOL    HW220462   6.257   0.710   6.235
 2811SOL     OW20463   5.370   6.406   1.627
 2811SOL    HW120464   5.310   6.385   1.550
 2811SOL    HW220465   5.418   6.323   1.655
 2812SOL     OW20466   0.628   4.357   1.025
 2812SOL    HW120467   0.594   4.277   0.977
 2812SOL    HW220468   0.561   4.431   1.018
 2813SOL     OW20469   2.660   0.898   0.746
 2813SOL    HW120470   2.561   0.914   0.753
 2813SOL    HW220471   2.675   0.811   0.699
 2814SOL     OW20472   2.919   1.291   5.963
 2814SOL    HW120473   2.963   1.208   5.929
 2814SOL    HW220474   2.844   1.267   6.025
 2815SOL     OW20475   8.282   6.224   0.900
 2815SOL    HW120476   8.284   6.235   0.999
 2815SOL    HW220477   8.364   6.264   0.860
 2816SOL     OW20478   8.752   2.731   1.548
 2816SOL    HW120479   8.831   2.791   1.541
 2816SOL    HW220480   8.705   2.747   1.635
 2817SOL     OW20481   4.924   7.640   6.501
 2817SOL    HW120482   4.875   7.553   6.504
 2817SOL    HW220483   5.016   7.625   6.466
 2818SOL     OW20484   4.637   1.557   1.891
 2818SOL    HW120485   4.685   1.548   1.978
 2818SOL    HW220486   4.576   1.636   1.894
 2819SOL     OW20487   3.947   7.492   1.507
 2819SOL    HW120488   3.874   7.502   1.440
 2819SOL    HW220489   4.030   7.535   1.473
 2820SOL     OW20490   9.331   0.075   1.429
 2820SOL    HW120491   9.237   0.042   1.435
 2820SOL    HW220492   9.386   0.031   1.501
 2821SOL     OW20493   8.642   2.494   0.206
 2821SOL    HW120494   8.583   2.414   0.210
 2821SOL    HW220495   8.678   2.514   0.297
 2822SOL     OW20496   6.019   5.415   1.458
 2822SOL    HW120497   5.938   5.370   1.493
 2822SOL    HW220498   6.091   5.413   1.527
 2823SOL     OW20499   3.417   1.047   0.330
 2823SOL    HW120500   3.333   1.069   0.379
 2823SOL    HW220501   3.432   0.948   0.333
 2824SOL     OW20502   3.077   6.621   6.707
 2824SOL    HW120503   3.080   6.706   6.655
 2824SOL    HW220504   3.161   6.610   6.759
 2825SOL     OW20505   7.008   3.705   0.354
 2825SOL    HW120506   7.027   3.694   0.452
 2825SOL    HW220507   6.957   3.625   0.321
 2826SOL     OW20508   1.577   6.243   6.365
 2826SOL    HW120509   1.660   6.219   6.315
 2826SOL    HW220510   1.532   6.159   6.398
 2827SOL     OW20511   1.165   5.912   6.386
 2827SOL    HW120512   1.250   5.863   6.406
 2827SOL    HW220513   1.128   5.952   6.470
 2828SOL     OW20514   9.339   6.851   6.711
 2828SOL    HW120515   9.379   6.935   6.748
 2828SOL    HW220516   9.246   6.870   6.679
 2829SOL     OW20517   1.074   0.998   6.100
 2829SOL    HW120518   1.100   0.916   6.151
 2829SOL    HW220519   1.127   1.002   6.015
 2830SOL     OW20520   2.024   5.657   5.057
 2830SOL    HW120521   1.946   5.614   5.012
 2830SOL    HW220522   2.104   5.650   4.997
 2831SOL     OW20523   0.649   7.292   5.314
 2831SOL    HW120524   0.699   7.348   5.380
 2831SOL    HW220525   0.565   7.338   5.287
 2832SOL     OW20526   1.902   6.520   0.519
 2832SOL    HW120527   2.001   6.514   0.509
 2832SOL    HW220528   1.859   6.511   0.428
 2833SOL     OW20529   1.910   5.111   0.867
 2833SOL    HW120530   1.852   5.104   0.786
 2833SOL    HW220531   1.947   5.203   0.874
 2834SOL     OW20532   3.654   7.038   5.399
 2834SOL    HW120533   3.585   7.108   5.380
 2834SOL    HW220534   3.731   7.080   5.448
 2835SOL     OW20535   3.623   5.648   1.689
 2835SOL    HW120536   3.562   5.568   1.691
 2835SOL    HW220537   3.618   5.695   1.777
 2836SOL     OW20538   7.786   7.307   1.027
 2836SOL    HW120539   7.857   7.257   1.077
 2836SOL    HW220540   7.805   7.405   1.032
 2837SOL     OW20541   8.172   3.130   0.946
 2837SOL    HW120542   8.214   3.053   0.897
 2837SOL    HW220543   8.141   3.199   0.880
 2838SOL     OW20544   5.020   8.361   5.837
 2838SOL    HW120545   4.955   8.401   5.902
 2838SOL    HW220546   5.002   8.263   5.829
 2839SOL     OW20547   3.980   4.647   1.849
 2839SOL    HW120548   3.985   4.730   1.904
 2839SOL    HW220549   4.064   4.637   1.796
 2840SOL     OW20550   4.028   8.307   2.057
 2840SOL    HW120551   3.954   8.289   1.991
 2840SOL    HW220552   4.026   8.237   2.128
 2841SOL     OW20553   8.537   2.718   0.591
 2841SOL    HW120554   8.480   2.796   0.566
 2841SOL    HW220555   8.528   2.700   0.689
 2842SOL     OW20556   4.385   8.328   5.084
 2842SOL    HW120557   4.355   8.328   4.988
 2842SOL    HW220558   4.326   8.267   5.137
 2843SOL     OW20559   8.500   5.749   1.821
 2843SOL    HW120560   8.432   5.681   1.793
 2843SOL    HW220561   8.591   5.715   1.801
 2844SOL     OW20562   6.437   2.807   6.834
 2844SOL    HW120563   6.367   2.794   6.764
 2844SOL    HW220564   6.457   2.904   6.844
 2845SOL     OW20565   7.407   1.738   6.434
 2845SOL    HW120566   7.430   1.677   6.510
 2845SOL    HW220567   7.432   1.832   6.458
 2846SOL     OW20568   2.256   1.313   0.612
 2846SOL    HW120569   2.220   1.271   0.528
 2846SOL    HW220570   2.198   1.289   0.689
 2847SOL     OW20571   4.358   7.395   0.886
 2847SOL    HW120572   4.450   7.380   0.923
 2847SOL    HW220573   4.307   7.310   0.887
 2848SOL     OW20574   2.971   5.540   6.605
 2848SOL    HW120575   2.985   5.608   6.677
 2848SOL    HW220576   2.890   5.564   6.551
 2849SOL     OW20577   8.762   5.851   5.371
 2849SOL    HW120578   8.674   5.832   5.414
 2849SOL    HW220579   8.820   5.769   5.374
 2850SOL     OW20580   8.428   5.811   0.776
 2850SOL    HW120581   8.372   5.740   0.818
 2850SOL    HW220582   8.386   5.841   0.690
 2851SOL     OW20583   2.447   7.532   6.062
 2851SOL    HW120584   2.382   7.536   5.986
 2851SOL    HW220585   2.409   7.581   6.141
 2852SOL     OW20586   5.085   0.624   6.049
 2852SOL    HW120587   5.116   0.637   5.955
 2852SOL    HW220588   5.140   0.681   6.110
 2853SOL     OW20589   1.898   5.810   0.928
 2853SOL    HW120590   1.950   5.815   0.842
 2853SOL    HW220591   1.827   5.741   0.920
 2854SOL     OW20592   6.680   1.556   1.365
 2854SOL    HW120593   6.723   1.496   1.434
 2854SOL    HW220594   6.750   1.590   1.303
 2855SOL     OW20595   5.347   1.510   0.731
 2855SOL    HW120596   5.287   1.451   0.784
 2855SOL    HW220597   5.376   1.462   0.648
 2856SOL     OW20598   2.220   7.917   6.638
 2856SOL    HW120599   2.122   7.914   6.657
 2856SOL    HW220600   2.253   7.826   6.617
 2857SOL     OW20601   6.888   0.397   0.455
 2857SOL    HW120602   6.864   0.314   0.505
 2857SOL    HW220603   6.979   0.388   0.415
 2858SOL     OW20604   5.007   4.122   0.912
 2858SOL    HW120605   5.065   4.040   0.915
 2858SOL    HW220606   5.031   4.176   0.831
 2859SOL     OW20607   3.263   3.311   0.884
 2859SOL    HW120608   3.298   3.318   0.791
 2859SOL    HW220609   3.264   3.401   0.926
 2860SOL     OW20610   7.901   1.696   6.735
 2860SOL    HW120611   7.930   1.718   6.828
 2860SOL    HW220612   7.969   1.636   6.692
 2861SOL     OW20613   3.957   1.092   5.709
 2861SOL    HW120614   3.948   1.062   5.805
 2861SOL    HW220615   4.052   1.116   5.691
 2862SOL     OW20616   6.417   7.086   6.315
 2862SOL    HW120617   6.445   6.990   6.313
 2862SOL    HW220618   6.320   7.093   6.335
 2863SOL     OW20619   8.100   6.098   6.535
 2863SOL    HW120620   8.096   6.042   6.618
 2863SOL    HW220621   8.011   6.096   6.489
 2864SOL     OW20622   1.208   1.291   6.639
 2864SOL    HW120623   1.272   1.267   6.566
 2864SOL    HW220624   1.242   1.257   6.726
 2865SOL     OW20625   4.106   7.084   1.003
 2865SOL    HW120626   4.120   7.030   1.086
 2865SOL    HW220627   4.182   7.070   0.940
 2866SOL     OW20628   6.766   6.359   0.931
 2866SOL    HW120629   6.829   6.340   0.855
 2866SOL    HW220630   6.767   6.457   0.951
 2867SOL     OW20631   9.015   5.447   0.786
 2867SOL    HW120632   9.050   5.432   0.878
 2867SOL    HW220633   9.090   5.467   0.724
 2868SOL     OW20634   6.703   8.411   6.115
 2868SOL    HW120635   6.779   8.437   6.056
 2868SOL    HW220636   6.694   8.477   6.190
 2869SOL     OW20637   2.935   1.167   2.113
 2869SOL    HW120638   2.929   1.241   2.045
 2869SOL    HW220639   2.929   1.079   2.067
 2870SOL     OW20640   4.077   7.927   6.792
 2870SOL    HW120641   4.096   8.014   6.837
 2870SOL    HW220642   3.983   7.899   6.812
 2871SOL     OW20643   1.805   3.963   6.083
 2871SOL    HW120644   1.822   4.058   6.109
 2871SOL    HW220645   1.846   3.945   5.993
 2872SOL     OW20646   9.072   5.909   0.370
 2872SOL    HW120647   9.006   5.932   0.442
 2872SOL    HW220648   9.105   5.815   0.383
 2873SOL     OW20649   3.616   7.690   5.546
 2873SOL    HW120650   3.539   7.645   5.499
 2873SOL    HW220651   3.701   7.667   5.499
 2874SOL     OW20652   7.768   6.286   1.206
 2874SOL    HW120653   7.813   6.347   1.272
 2874SOL    HW220654   7.688   6.244   1.248
 2875SOL     OW20655   0.900   5.495   5.846
 2875SOL    HW120656   0.853   5.414   5.881
 2875SOL    HW220657   0.834   5.568   5.829
 2876SOL     OW20658   8.657   2.455   1.533
 2876SOL    HW120659   8.635   2.541   1.578
 2876SOL    HW220660   8.652   2.380   1.600
 2877SOL     OW20661   7.887   6.219   5.851
 2877SOL    HW120662   7.873   6.129   5.891
 2877SOL    HW220663   7.802   6.271   5.854
 2878SOL     OW20664   8.672   2.350   1.021
 2878SOL    HW120665   8.629   2.339   1.111
 2878SOL    HW220666   8.711   2.441   1.014
 2879SOL     OW20667   4.662   0.118   0.660
 2879SOL    HW120668   4.633   0.130   0.565
 2879SOL    HW220669   4.700   0.027   0.673
 2880SOL     OW20670   3.436   0.527   5.240
 2880SOL    HW120671   3.356   0.467   5.238
 2880SOL    HW220672   3.500   0.499   5.168
 2881SOL     OW20673   7.415   0.005   1.221
 2881SOL    HW120674   7.506   0.045   1.219
 2881SOL    HW220675   7.388  -0.014   1.315
 2882SOL     OW20676   0.707   0.088   5.541
 2882SOL    HW120677   0.686   0.170   5.486
 2882SOL    HW220678   0.779   0.036   5.495
 2883SOL     OW20679   7.467   1.549   6.597
 2883SOL    HW120680   7.551   1.532   6.650
 2883SOL    HW220681   7.407   1.470   6.604
 2884SOL     OW20682   5.305   3.617   5.845
 2884SOL    HW120683   5.362   3.552   5.795
 2884SOL    HW220684   5.304   3.704   5.796
 2885SOL     OW20685   2.876   3.704   0.272
 2885SOL    HW120686   2.830   3.626   0.316
 2885SOL    HW220687   2.939   3.671   0.202
 2886SOL     OW20688   6.988   3.077   0.875
 2886SOL    HW120689   7.045   3.072   0.793
 2886SOL    HW220690   7.023   3.148   0.936
 2887SOL     OW20691   1.077   5.664   1.688
 2887SOL    HW120692   1.114   5.745   1.733
 2887SOL    HW220693   1.002   5.691   1.627
 2888SOL     OW20694   1.302   7.590   5.214
 2888SOL    HW120695   1.331   7.631   5.128
 2888SOL    HW220696   1.208   7.558   5.206
 2889SOL     OW20697   9.543   4.050   1.347
 2889SOL    HW120698   9.453   4.065   1.388
 2889SOL    HW220699   9.596   3.987   1.405
 2890SOL     OW20700   6.077   5.822   6.887
 2890SOL    HW120701   6.095   5.724   6.882
 2890SOL    HW220702   5.981   5.839   6.867
 2891SOL     OW20703   1.877   6.321   4.960
 2891SOL    HW120704   1.898   6.225   4.938
 2891SOL    HW220705   1.916   6.380   4.890
 2892SOL     OW20706   0.151   0.503   5.578
 2892SOL    HW120707   0.144   0.405   5.593
 2892SOL    HW220708   0.176   0.520   5.482
 2893SOL     OW20709   5.393   2.134   0.431
 2893SOL    HW120710   5.438   2.138   0.341
 2893SOL    HW220711   5.455   2.171   0.500
 2894SOL     OW20712   4.744   5.629   2.242
 2894SOL    HW120713   4.758   5.722   2.277
 2894SOL    HW220714   4.832   5.592   2.212
 2895SOL     OW20715   5.990   3.759   1.453
 2895SOL    HW120716   6.067   3.732   1.511
 2895SOL    HW220717   6.009   3.733   1.358
 2896SOL     OW20718   2.419   4.974   1.227
 2896SOL    HW120719   2.476   5.049   1.196
 2896SOL    HW220720   2.431   4.961   1.325
 2897SOL     OW20721   3.795   4.214   2.203
 2897SOL    HW120722   3.895   4.218   2.198
 2897SOL    HW220723   3.767   4.206   2.298
 2898SOL     OW20724   3.550   5.651   1.070
 2898SOL    HW120725   3.478   5.715   1.040
 2898SOL    HW220726   3.634   5.671   1.021
 2899SOL     OW20727   3.974   6.985   6.702
 2899SOL    HW120728   4.072   7.007   6.707
 2899SOL    HW220729   3.959   6.894   6.741
 2900SOL     OW20730   7.489   1.613   0.925
 2900SOL    HW120731   7.435   1.530   0.907
 2900SOL    HW220732   7.449   1.664   1.001
 2901SOL     OW20733   2.982   7.090   6.631
 2901SOL    HW120734   3.037   7.140   6.698
 2901SOL    HW220735   2.964   7.149   6.552
 2902SOL     OW20736   1.632   0.412   1.992
 2902SOL    HW120737   1.719   0.456   2.012
 2902SOL    HW220738   1.569   0.479   1.952
 2903SOL     OW20739   7.002   6.311   6.870
 2903SOL    HW120740   6.988   6.399   6.825
 2903SOL    HW220741   6.924   6.291   6.929
 2904SOL     OW20742   6.994   2.680   0.653
 2904SOL    HW120743   6.975   2.644   0.562
 2904SOL    HW220744   7.019   2.605   0.714
 2905SOL     OW20745   8.004   6.569   5.030
 2905SOL    HW120746   7.987   6.471   5.039
 2905SOL    HW220747   7.929   6.611   4.980
 2906SOL     OW20748   3.310   5.569   5.838
 2906SOL    HW120749   3.211   5.555   5.833
 2906SOL    HW220750   3.330   5.665   5.858
 2907SOL     OW20751   8.266   0.558   5.096
 2907SOL    HW120752   8.230   0.503   5.021
 2907SOL    HW220753   8.364   0.574   5.081
 2908SOL     OW20754   9.146   0.620   1.557
 2908SOL    HW120755   9.162   0.555   1.632
 2908SOL    HW220756   9.054   0.657   1.563
 2909SOL     OW20757   4.680   8.240   1.499
 2909SOL    HW120758   4.608   8.177   1.470
 2909SOL    HW220759   4.694   8.230   1.597
 2910SOL     OW20760   4.642   1.292   1.828
 2910SOL    HW120761   4.619   1.232   1.905
 2910SOL    HW220762   4.634   1.388   1.857
 2911SOL     OW20763   4.883   2.472   0.473
 2911SOL    HW120764   4.792   2.438   0.450
 2911SOL    HW220765   4.883   2.509   0.566
 2912SOL     OW20766   2.391   5.266   5.412
 2912SOL    HW120767   2.368   5.170   5.396
 2912SOL    HW220768   2.360   5.321   5.335
 2913SOL     OW20769   3.494   1.751   1.537
 2913SOL    HW120770   3.574   1.775   1.593
 2913SOL    HW220771   3.415   1.804   1.568
 2914SOL     OW20772   6.897   6.633   4.951
 2914SOL    HW120773   6.863   6.551   4.904
 2914SOL    HW220774   6.997   6.635   4.947
 2915SOL     OW20775   7.818   0.066   6.818
 2915SOL    HW120776   7.730   0.026   6.844
 2915SOL    HW220777   7.806   0.164   6.804
 2916SOL     OW20778   6.627   1.779   6.404
 2916SOL    HW120779   6.546   1.750   6.455
 2916SOL    HW220780   6.602   1.851   6.340
 2917SOL     OW20781   8.993   7.065   1.526
 2917SOL    HW120782   8.966   6.981   1.574
 2917SOL    HW220783   8.982   7.143   1.587
 2918SOL     OW20784   0.985  -0.002   5.577
 2918SOL    HW120785   1.000   0.096   5.566
 2918SOL    HW220786   0.983  -0.025   5.675
 2919SOL     OW20787   5.689   0.267   1.251
 2919SOL    HW120788   5.712   0.178   1.291
 2919SOL    HW220789   5.644   0.323   1.320
 2920SOL     OW20790   7.530   3.056   0.529
 2920SOL    HW120791   7.499   2.983   0.590
 2920SOL    HW220792   7.591   3.117   0.579
 2921SOL     OW20793   8.575   6.808   1.733
 2921SOL    HW120794   8.538   6.716   1.720
 2921SOL    HW220795   8.512   6.861   1.790
 2922SOL     OW20796   0.736   2.223   6.764
 2922SOL    HW120797   0.802   2.173   6.819
 2922SOL    HW220798   0.753   2.321   6.772
 2923SOL     OW20799   5.594   0.166   5.705
 2923SOL    HW120800   5.535   0.133   5.778
 2923SOL    HW220801   5.542   0.224   5.643
 2924SOL     OW20802   8.168   5.918   0.986
 2924SOL    HW120803   8.152   5.941   1.082
 2924SOL    HW220804   8.252   5.963   0.955
 2925SOL     OW20805   5.290   2.421   0.763
 2925SOL    HW120806   5.194   2.397   0.749
 2925SOL    HW220807   5.306   2.515   0.733
 2926SOL     OW20808   5.867   2.690   1.044
 2926SOL    HW120809   5.792   2.740   1.087
 2926SOL    HW220810   5.857   2.592   1.063
 2927SOL     OW20811   6.534   6.752   6.009
 2927SOL    HW120812   6.524   6.840   5.962
 2927SOL    HW220813   6.531   6.766   6.107
 2928SOL     OW20814   8.441   5.340   6.917
 2928SOL    HW120815   8.452   5.320   6.819
 2928SOL    HW220816   8.348   5.373   6.935
 2929SOL     OW20817   7.404   7.251   0.978
 2929SOL    HW120818   7.345   7.295   1.046
 2929SOL    HW220819   7.347   7.197   0.915
 2930SOL     OW20820   6.580   1.451   6.673
 2930SOL    HW120821   6.673   1.414   6.673
 2930SOL    HW220822   6.571   1.518   6.747
 2931SOL     OW20823   1.896   1.431   0.363
 2931SOL    HW120824   1.923   1.366   0.433
 2931SOL    HW220825   1.954   1.513   0.370
 2932SOL     OW20826   8.645   7.507   6.869
 2932SOL    HW120827   8.632   7.605   6.882
 2932SOL    HW220828   8.742   7.485   6.880
 2933SOL     OW20829   1.353   1.578   0.936
 2933SOL    HW120830   1.256   1.595   0.952
 2933SOL    HW220831   1.368   1.480   0.921
 2934SOL     OW20832   4.741   2.662   0.239
 2934SOL    HW120833   4.714   2.635   0.331
 2934SOL    HW220834   4.752   2.762   0.235
 2935SOL     OW20835   1.805   0.180   0.709
 2935SOL    HW120836   1.755   0.261   0.678
 2935SOL    HW220837   1.882   0.163   0.648
 2936SOL     OW20838   7.080   5.156   0.675
 2936SOL    HW120839   7.055   5.080   0.735
 2936SOL    HW220840   7.120   5.120   0.591
 2937SOL     OW20841   5.098   3.629   0.859
 2937SOL    HW120842   5.017   3.601   0.911
 2937SOL    HW220843   5.168   3.558   0.866
 2938SOL     OW20844   3.654   6.425   0.808
 2938SOL    HW120845   3.713   6.361   0.857
 2938SOL    HW220846   3.585   6.462   0.871
 2939SOL     OW20847   1.178   2.719   6.065
 2939SOL    HW120848   1.212   2.807   6.033
 2939SOL    HW220849   1.096   2.733   6.119
 2940SOL     OW20850   2.465   1.395   5.464
 2940SOL    HW120851   2.482   1.309   5.512
 2940SOL    HW220852   2.395   1.380   5.393
 2941SOL     OW20853   4.185   8.207   5.250
 2941SOL    HW120854   4.111   8.269   5.227
 2941SOL    HW220855   4.158   8.113   5.228
 2942SOL     OW20856   5.998   6.090   5.616
 2942SOL    HW120857   5.963   6.180   5.639
 2942SOL    HW220858   5.960   6.060   5.528
 2943SOL     OW20859   1.288   5.361   1.354
 2943SOL    HW120860   1.374   5.347   1.403
 2943SOL    HW220861   1.233   5.429   1.401
 2944SOL     OW20862   9.037   7.694   1.461
 2944SOL    HW120863   9.034   7.720   1.364
 2944SOL    HW220864   8.984   7.758   1.515
 2945SOL     OW20865   6.935   3.348   0.586
 2945SOL    HW120866   6.863   3.412   0.558
 2945SOL    HW220867   7.006   3.399   0.634
 2946SOL     OW20868   5.040   6.517   1.244
 2946SOL    HW120869   5.033   6.520   1.145
 2946SOL    HW220870   5.030   6.610   1.280
 2947SOL     OW20871   8.413   3.467   1.391
 2947SOL    HW120872   8.444   3.531   1.461
 2947SOL    HW220873   8.472   3.475   1.310
 2948SOL     OW20874   6.949   2.268   2.095
 2948SOL    HW120875   6.911   2.345   2.147
 2948SOL    HW220876   6.929   2.182   2.143
 2949SOL     OW20877   6.414   7.358   6.166
 2949SOL    HW120878   6.357   7.406   6.099
 2949SOL    HW220879   6.487   7.308   6.119
 2950SOL     OW20880   3.394   3.127   6.821
 2950SOL    HW120881   3.328   3.159   6.889
 2950SOL    HW220882   3.482   3.113   6.866
 2951SOL     OW20883   5.348   2.732   0.384
 2951SOL    HW120884   5.350   2.832   0.385
 2951SOL    HW220885   5.253   2.701   0.381
 2952SOL     OW20886   2.522   6.300   5.985
 2952SOL    HW120887   2.464   6.244   5.926
 2952SOL    HW220888   2.610   6.316   5.940
 2953SOL     OW20889   8.555   8.084   6.395
 2953SOL    HW120890   8.592   7.996   6.367
 2953SOL    HW220891   8.471   8.102   6.344
 2954SOL     OW20892   0.282   6.558   4.261
 2954SOL    HW120893   0.375   6.548   4.226
 2954SOL    HW220894   0.251   6.652   4.246
 2955SOL     OW20895   9.388   2.017   0.539
 2955SOL    HW120896   9.465   1.974   0.586
 2955SOL    HW220897   9.361   2.100   0.588
 2956SOL     OW20898   0.288   6.926   5.089
 2956SOL    HW120899   0.305   6.960   4.997
 2956SOL    HW220900   0.198   6.883   5.092
 2957SOL     OW20901   8.639   7.076   6.318
 2957SOL    HW120902   8.561   7.124   6.278
 2957SOL    HW220903   8.614   6.981   6.336
 2958SOL     OW20904   6.090   2.401   0.749
 2958SOL    HW120905   6.066   2.490   0.789
 2958SOL    HW220906   6.190   2.392   0.745
 2959SOL     OW20907   1.287   4.690   6.606
 2959SOL    HW120908   1.207   4.631   6.621
 2959SOL    HW220909   1.371   4.637   6.619
 2960SOL     OW20910   9.285   2.261   0.655
 2960SOL    HW120911   9.289   2.358   0.678
 2960SOL    HW220912   9.206   2.220   0.700
 2961SOL     OW20913   3.943   7.021   0.602
 2961SOL    HW120914   3.924   6.964   0.682
 2961SOL    HW220915   4.028   6.991   0.559
 2962SOL     OW20916   9.210   7.390   5.025
 2962SOL    HW120917   9.119   7.397   5.065
 2962SOL    HW220918   9.203   7.345   4.936
 2963SOL     OW20919   6.017   2.265   0.994
 2963SOL    HW120920   6.060   2.296   0.909
 2963SOL    HW220921   6.003   2.166   0.990
 2964SOL     OW20922   0.202   7.567   0.573
 2964SOL    HW120923   0.109   7.538   0.594
 2964SOL    HW220924   0.257   7.567   0.656
 2965SOL     OW20925   2.634  -0.033   0.724
 2965SOL    HW120926   2.666   0.034   0.791
 2965SOL    HW220927   2.610  -0.118   0.771
 2966SOL     OW20928   0.444   1.909   1.609
 2966SOL    HW120929   0.478   1.842   1.676
 2966SOL    HW220930   0.503   1.989   1.609
 2967SOL     OW20931   5.346   1.899   5.572
 2967SOL    HW120932   5.310   1.990   5.553
 2967SOL    HW220933   5.431   1.885   5.521
 2968SOL     OW20934   6.883   1.668   0.449
 2968SOL    HW120935   6.823   1.592   0.423
 2968SOL    HW220936   6.977   1.633   0.462
 2969SOL     OW20937   5.270   4.184   6.890
 2969SOL    HW120938   5.335   4.247   6.848
 2969SOL    HW220939   5.318   4.119   6.949
 2970SOL     OW20940   6.777   7.481   1.415
 2970SOL    HW120941   6.696   7.482   1.357
 2970SOL    HW220942   6.855   7.447   1.363
 2971SOL     OW20943   2.579   2.300   6.160
 2971SOL    HW120944   2.566   2.209   6.197
 2971SOL    HW220945   2.528   2.366   6.214
 2972SOL     OW20946   8.093   3.077   1.193
 2972SOL    HW120947   8.150   3.095   1.113
 2972SOL    HW220948   8.132   3.000   1.244
 2973SOL     OW20949   1.067   0.885   1.790
 2973SOL    HW120950   1.146   0.825   1.796
 2973SOL    HW220951   1.073   0.955   1.862
 2974SOL     OW20952   6.347   2.771   0.339
 2974SOL    HW120953   6.397   2.844   0.384
 2974SOL    HW220954   6.391   2.749   0.252
 2975SOL     OW20955   8.093   1.801   6.080
 2975SOL    HW120956   8.082   1.735   6.006
 2975SOL    HW220957   8.007   1.809   6.130
 2976SOL     OW20958   2.301   0.688   6.268
 2976SOL    HW120959   2.322   0.695   6.171
 2976SOL    HW220960   2.382   0.713   6.321
 2977SOL     OW20961   7.496   0.219   0.211
 2977SOL    HW120962   7.446   0.157   0.271
 2977SOL    HW220963   7.488   0.313   0.245
 2978SOL     OW20964   2.485   2.761   6.919
 2978SOL    HW120965   2.567   2.776   6.973
 2978SOL    HW220966   2.409   2.734   6.980
 2979SOL     OW20967   4.294   6.283   6.932
 2979SOL    HW120968   4.360   6.238   6.873
 2979SOL    HW220969   4.341   6.344   6.996
 2980SOL     OW20970   0.259   7.528   5.906
 2980SOL    HW120971   0.307   7.509   5.992
 2980SOL    HW220972   0.305   7.602   5.857
 2981SOL     OW20973   8.490   3.167   0.628
 2981SOL    HW120974   8.423   3.241   0.627
 2981SOL    HW220975   8.578   3.200   0.593
 2982SOL     OW20976   3.043   7.293   6.407
 2982SOL    HW120977   3.032   7.369   6.470
 2982SOL    HW220978   2.963   7.287   6.347
 2983SOL     OW20979   7.565   0.595   0.870
 2983SOL    HW120980   7.520   0.536   0.937
 2983SOL    HW220981   7.551   0.691   0.895
 2984SOL     OW20982   6.453   2.906   1.368
 2984SOL    HW120983   6.439   2.914   1.466
 2984SOL    HW220984   6.445   2.996   1.325
 2985SOL     OW20985   1.614   6.921   0.434
 2985SOL    HW120986   1.673   6.916   0.354
 2985SOL    HW220987   1.576   7.014   0.442
 2986SOL     OW20988   2.870   8.266   5.645
 2986SOL    HW120989   2.927   8.186   5.625
 2986SOL    HW220990   2.858   8.273   5.744
 2987SOL     OW20991   7.774   0.947   0.451
 2987SOL    HW120992   7.727   0.892   0.520
 2987SOL    HW220993   7.779   0.896   0.365
 2988SOL     OW20994   4.127   2.170   0.984
 2988SOL    HW120995   4.164   2.227   0.911
 2988SOL    HW220996   4.122   2.223   1.069
 2989SOL     OW20997   5.794   7.952   5.926
 2989SOL    HW120998   5.864   7.893   5.968
 2989SOL    HW220999   5.834   7.999   5.847
 2990SOL     OW21000   0.146   7.913   6.259
 2990SOL    HW121001   0.106   7.996   6.221
 2990SOL    HW221002   0.112   7.834   6.207
 2991SOL     OW21003   6.665   5.309   0.527
 2991SOL    HW121004   6.651   5.256   0.444
 2991SOL    HW221005   6.577   5.325   0.572
 2992SOL     OW21006   9.430   6.542   1.635
 2992SOL    HW121007   9.446   6.450   1.601
 2992SOL    HW221008   9.360   6.540   1.707
 2993SOL     OW21009   5.423   0.601   0.454
 2993SOL    HW121010   5.413   0.502   0.451
 2993SOL    HW221011   5.375   0.637   0.534
 2994SOL     OW21012   3.977   5.268   2.251
 2994SOL    HW121013   3.988   5.169   2.243
 2994SOL    HW221014   3.887   5.294   2.214
 2995SOL     OW21015   4.881   2.211   6.691
 2995SOL    HW121016   4.875   2.112   6.692
 2995SOL    HW221017   4.812   2.249   6.752
 2996SOL     OW21018   8.518   7.730   4.683
 2996SOL    HW121019   8.556   7.677   4.608
 2996SOL    HW221020   8.421   7.710   4.693
 2997SOL     OW21021   8.837   2.222   5.954
 2997SOL    HW121022   8.743   2.256   5.950
 2997SOL    HW221023   8.839   2.135   6.003
 2998SOL     OW21024   7.785   4.130   6.406
 2998SOL    HW121025   7.695   4.173   6.397
 2998SOL    HW221026   7.854   4.201   6.419
 2999SOL     OW21027   2.806   7.272   6.268
 2999SOL    HW121028   2.717   7.266   6.312
 2999SOL    HW221029   2.805   7.343   6.198
 3000SOL     OW21030   7.675   2.559   1.218
 3000SOL    HW121031   7.751   2.505   1.255
 3000SOL    HW221032   7.673   2.648   1.263
 3001SOL     OW21033   0.949   7.971   0.583
 3001SOL    HW121034   0.895   8.042   0.628
 3001SOL    HW221035   1.032   8.012   0.544
 3002SOL     OW21036   5.489   5.905   6.760
 3002SOL    HW121037   5.560   5.938   6.823
 3002SOL    HW221038   5.523   5.911   6.666
 3003SOL     OW21039   7.576   6.519   1.230
 3003SOL    HW121040   7.500   6.511   1.165
 3003SOL    HW221041   7.587   6.432   1.278
 3004SOL     OW21042   8.594   6.548   0.322
 3004SOL    HW121043   8.626   6.528   0.415
 3004SOL    HW221044   8.499   6.519   0.313
 3005SOL     OW21045   2.855   4.822   1.450
 3005SOL    HW121046   2.865   4.880   1.369
 3005SOL    HW221047   2.800   4.742   1.427
 3006SOL     OW21048   5.399   4.013   0.342
 3006SOL    HW121049   5.483   3.995   0.291
 3006SOL    HW221050   5.349   3.928   0.355
 3007SOL     OW21051   0.891   0.672   1.947
 3007SOL    HW121052   0.802   0.694   1.907
 3007SOL    HW221053   0.921   0.748   2.004
 3008SOL     OW21054   4.063   0.327   0.721
 3008SOL    HW121055   4.095   0.418   0.748
 3008SOL    HW221056   4.137   0.279   0.673
 3009SOL     OW21057   3.765   3.526   6.381
 3009SOL    HW121058   3.823   3.606   6.366
 3009SOL    HW221059   3.813   3.444   6.349
 3010SOL     OW21060   7.860   5.856   5.581
 3010SOL    HW121061   7.794   5.930   5.596
 3010SOL    HW221062   7.848   5.820   5.488
 3011SOL     OW21063   4.350   1.027   0.767
 3011SOL    HW121064   4.338   0.958   0.695
 3011SOL    HW221065   4.415   1.096   0.736
 3012SOL     OW21066   7.596   7.335   5.059
 3012SOL    HW121067   7.510   7.300   5.022
 3012SOL    HW221068   7.595   7.435   5.056
 3013SOL     OW21069   6.408   8.291   0.528
 3013SOL    HW121070   6.335   8.230   0.557
 3013SOL    HW221071   6.371   8.383   0.512
 3014SOL     OW21072   1.621   6.356   5.346
 3014SOL    HW121073   1.592   6.261   5.329
 3014SOL    HW221074   1.673   6.390   5.267
 3015SOL     OW21075   5.160   0.273   0.208
 3015SOL    HW121076   5.201   0.186   0.235
 3015SOL    HW221077   5.220   0.318   0.142
 3016SOL     OW21078   6.988   1.616   6.554
 3016SOL    HW121079   7.013   1.591   6.461
 3016SOL    HW221080   7.065   1.598   6.615
 3017SOL     OW21081   2.232   2.600   0.312
 3017SOL    HW121082   2.204   2.662   0.386
 3017SOL    HW221083   2.152   2.552   0.277
 3018SOL     OW21084   5.844   0.528   4.844
 3018SOL    HW121085   5.757   0.510   4.798
 3018SOL    HW221086   5.875   0.621   4.823
 3019SOL     OW21087   1.768   7.605   6.086
 3019SOL    HW121088   1.711   7.573   6.011
 3019SOL    HW221089   1.723   7.681   6.132
 3020SOL     OW21090   5.829   0.869   0.535
 3020SOL    HW121091   5.839   0.776   0.500
 3020SOL    HW221092   5.733   0.897   0.531
 3021SOL     OW21093   1.672   8.201   1.466
 3021SOL    HW121094   1.578   8.194   1.497
 3021SOL    HW221095   1.688   8.135   1.392
 3022SOL     OW21096   9.280   6.786   0.611
 3022SOL    HW121097   9.193   6.737   0.623
 3022SOL    HW221098   9.265   6.884   0.625
 3023SOL     OW21099   9.438   4.309   0.847
 3023SOL    HW121100   9.356   4.334   0.796
 3023SOL    HW221101   9.445   4.367   0.928
 3024SOL     OW21102   7.017   2.075   6.661
 3024SOL    HW121103   7.024   2.156   6.602
 3024SOL    HW221104   6.924   2.040   6.657
 3025SOL     OW21105   5.242   5.853   6.255
 3025SOL    HW121106   5.148   5.822   6.274
 3025SOL    HW221107   5.291   5.865   6.341
 3026SOL     OW21108   6.809   6.285   1.187
 3026SOL    HW121109   6.800   6.264   1.089
 3026SOL    HW221110   6.718   6.303   1.225
 3027SOL     OW21111   0.466   1.664   0.611
 3027SOL    HW121112   0.372   1.690   0.591
 3027SOL    HW221113   0.495   1.706   0.697
 3028SOL     OW21114   5.798   5.836   0.709
 3028SOL    HW121115   5.854   5.802   0.633
 3028SOL    HW221116   5.789   5.764   0.778
 3029SOL     OW21117   6.871   1.420   0.741
 3029SOL    HW121118   6.875   1.322   0.725
 3029SOL    HW221119   6.953   1.463   0.704
 3030SOL     OW21120   6.086   1.533   6.862
 3030SOL    HW121121   6.076   1.624   6.822
 3030SOL    HW221122   6.036   1.529   6.949
 3031SOL     OW21123   8.482   6.866   6.400
 3031SOL    HW121124   8.529   6.786   6.363
 3031SOL    HW221125   8.450   6.846   6.493
 3032SOL     OW21126   1.713   5.217   1.660
 3032SOL    HW121127   1.648   5.146   1.632
 3032SOL    HW221128   1.806   5.182   1.651
 3033SOL     OW21129   8.856   6.100   6.829
 3033SOL    HW121130   8.805   6.174   6.874
 3033SOL    HW221131   8.947   6.093   6.870
 3034SOL     OW21132   1.703   4.997   0.354
 3034SOL    HW121133   1.605   4.991   0.339
 3034SOL    HW221134   1.751   4.981   0.267
 3035SOL     OW21135   6.963   0.031   5.579
 3035SOL    HW121136   6.983  -0.056   5.623
 3035SOL    HW221137   6.935   0.016   5.484
 3036SOL     OW21138   2.070   7.466   5.564
 3036SOL    HW121139   2.107   7.428   5.479
 3036SOL    HW221140   1.970   7.467   5.558
 3037SOL     OW21141   4.439   2.561   0.588
 3037SOL    HW121142   4.510   2.621   0.624
 3037SOL    HW221143   4.361   2.560   0.650
 3038SOL     OW21144   2.891   6.427   6.208
 3038SOL    HW121145   2.846   6.484   6.276
 3038SOL    HW221146   2.940   6.485   6.143
 3039SOL     OW21147   6.499   3.626   6.024
 3039SOL    HW121148   6.415   3.634   5.969
 3039SOL    HW221149   6.575   3.598   5.965
 3040SOL     OW21150   5.863   1.273   6.487
 3040SOL    HW121151   5.792   1.318   6.432
 3040SOL    HW221152   5.923   1.342   6.528
 3041SOL     OW21153   0.919   0.245   6.013
 3041SOL    HW121154   0.858   0.191   5.955
 3041SOL    HW221155   0.865   0.301   6.076
 3042SOL     OW21156   3.572   4.921   0.310
 3042SOL    HW121157   3.550   5.019   0.311
 3042SOL    HW221158   3.640   4.902   0.381
 3043SOL     OW21159   0.500   2.562   6.690
 3043SOL    HW121160   0.423   2.600   6.742
 3043SOL    HW221161   0.480   2.570   6.592
 3044SOL     OW21162   8.274   2.463   1.138
 3044SOL    HW121163   8.344   2.530   1.165
 3044SOL    HW221164   8.297   2.425   1.048
 3045SOL     OW21165   2.002   1.157   6.635
 3045SOL    HW121166   2.007   1.257   6.642
 3045SOL    HW221167   2.075   1.116   6.690
 3046SOL     OW21168   9.202   3.498   6.214
 3046SOL    HW121169   9.216   3.403   6.240
 3046SOL    HW221170   9.107   3.510   6.184
 3047SOL     OW21171   4.296   5.792   6.817
 3047SOL    HW121172   4.342   5.777   6.905
 3047SOL    HW221173   4.362   5.826   6.750
 3048SOL     OW21174   3.803   3.834   1.136
 3048SOL    HW121175   3.814   3.750   1.190
 3048SOL    HW221176   3.892   3.865   1.103
 3049SOL     OW21177   4.332   2.939   2.056
 3049SOL    HW121178   4.400   2.903   2.119
 3049SOL    HW221179   4.374   3.008   1.996
 3050SOL     OW21180   1.168   0.288   5.827
 3050SOL    HW121181   1.082   0.290   5.878
 3050SOL    HW221182   1.245   0.285   5.891
 3051SOL     OW21183   6.591   6.222   5.670
 3051SOL    HW121184   6.507   6.277   5.677
 3051SOL    HW221185   6.587   6.165   5.588
 3052SOL     OW21186   1.910   6.166   1.340
 3052SOL    HW121187   1.862   6.078   1.335
 3052SOL    HW221188   1.955   6.184   1.253
 3053SOL     OW21189   1.267   5.317   1.691
 3053SOL    HW121190   1.292   5.221   1.680
 3053SOL    HW221191   1.350   5.372   1.699
 3054SOL     OW21192   2.787   2.011   6.220
 3054SOL    HW121193   2.845   2.052   6.150
 3054SOL    HW221194   2.755   1.921   6.190
 3055SOL     OW21195   7.223   6.389   5.601
 3055SOL    HW121196   7.156   6.356   5.667
 3055SOL    HW221197   7.297   6.437   5.648
 3056SOL     OW21198   2.360   1.941   6.214
 3056SOL    HW121199   2.304   1.858   6.214
 3056SOL    HW221200   2.311   2.015   6.169
 3057SOL     OW21201   4.258   4.183   6.628
 3057SOL    HW121202   4.176   4.177   6.571
 3057SOL    HW221203   4.339   4.179   6.569
 3058SOL     OW21204   2.502   6.071   5.652
 3058SOL    HW121205   2.461   6.061   5.561
 3058SOL    HW221206   2.586   6.124   5.645
 3059SOL     OW21207   4.097   1.514   5.424
 3059SOL    HW121208   4.057   1.426   5.400
 3059SOL    HW221209   4.159   1.544   5.351
 3060SOL     OW21210   0.654   2.853   6.374
 3060SOL    HW121211   0.590   2.779   6.355
 3060SOL    HW221212   0.701   2.836   6.461
 3061SOL     OW21213   8.841   2.033   6.661
 3061SOL    HW121214   8.844   1.935   6.680
 3061SOL    HW221215   8.927   2.061   6.618
 3062SOL     OW21216   4.953   6.968   1.399
 3062SOL    HW121217   4.861   6.942   1.428
 3062SOL    HW221218   4.955   6.974   1.299
 3063SOL     OW21219   9.221   6.940   1.089
 3063SOL    HW121220   9.218   7.011   1.159
 3063SOL    HW221221   9.299   6.957   1.028
 3064SOL     OW21222   7.705   2.040   6.358
 3064SOL    HW121223   7.612   2.075   6.365
 3064SOL    HW221224   7.718   1.964   6.422
 3065SOL     OW21225   2.863   4.872   6.855
 3065SOL    HW121226   2.884   4.919   6.940
 3065SOL    HW221227   2.854   4.774   6.872
 3066SOL     OW21228   5.793   2.639   0.603
 3066SOL    HW121229   5.721   2.578   0.636
 3066SOL    HW221230   5.857   2.659   0.677
 3067SOL     OW21231   3.336  -0.034   0.634
 3067SOL    HW121232   3.301   0.001   0.721
 3067SOL    HW221233   3.423   0.010   0.613
 3068SOL     OW21234   1.800   1.392   5.716
 3068SOL    HW121235   1.790   1.488   5.744
 3068SOL    HW221236   1.749   1.333   5.779
 3069SOL     OW21237   4.762   7.907   1.288
 3069SOL    HW121238   4.694   7.975   1.261
 3069SOL    HW221239   4.736   7.818   1.252
 3070SOL     OW21240   2.425   3.401   0.739
 3070SOL    HW121241   2.524   3.401   0.725
 3070SOL    HW221242   2.401   3.462   0.814
 3071SOL     OW21243   9.222   2.064   5.763
 3071SOL    HW121244   9.242   1.971   5.796
 3071SOL    HW221245   9.307   2.112   5.746
 3072SOL     OW21246   4.142   7.600   5.458
 3072SOL    HW121247   4.156   7.681   5.402
 3072SOL    HW221248   4.091   7.532   5.406
 3073SOL     OW21249   3.405   5.321   5.767
 3073SOL    HW121250   3.362   5.246   5.816
 3073SOL    HW221251   3.362   5.408   5.793
 3074SOL     OW21252   4.552   0.698   0.420
 3074SOL    HW121253   4.460   0.667   0.397
 3074SOL    HW221254   4.592   0.744   0.341
 3075SOL     OW21255   0.479   1.866   5.833
 3075SOL    HW121256   0.385   1.883   5.801
 3075SOL    HW221257   0.527   1.809   5.766
 3076SOL     OW21258   9.000   2.305   1.263
 3076SOL    HW121259   9.036   2.253   1.185
 3076SOL    HW221260   8.948   2.243   1.322
 3077SOL     OW21261   4.620   1.492   6.139
 3077SOL    HW121262   4.606   1.590   6.154
 3077SOL    HW221263   4.535   1.443   6.153
 3078SOL     OW21264   6.070   2.021   0.932
 3078SOL    HW121265   6.121   2.002   0.848
 3078SOL    HW221266   6.029   1.936   0.966
 3079SOL     OW21267   5.989   1.023   0.363
 3079SOL    HW121268   6.029   1.089   0.426
 3079SOL    HW221269   5.933   0.958   0.414
 3080SOL     OW21270   1.893  -0.043   0.948
 3080SOL    HW121271   1.941  -0.075   0.867
 3080SOL    HW221272   1.959  -0.022   1.020
 3081SOL     OW21273   3.159   1.620   5.895
 3081SOL    HW121274   3.251   1.659   5.894
 3081SOL    HW221275   3.092   1.693   5.904
 3082SOL     OW21276   7.318   1.417   6.340
 3082SOL    HW121277   7.288   1.472   6.261
 3082SOL    HW221278   7.403   1.455   6.376
 3083SOL     OW21279   6.041   8.010   5.418
 3083SOL    HW121280   5.982   8.090   5.431
 3083SOL    HW221281   6.007   7.956   5.341
 3084SOL     OW21282   3.658   0.730   6.626
 3084SOL    HW121283   3.694   0.696   6.713
 3084SOL    HW221284   3.633   0.827   6.636
 3085SOL     OW21285   6.396   1.294   0.392
 3085SOL    HW121286   6.487   1.274   0.428
 3085SOL    HW221287   6.403   1.364   0.321
 3086SOL     OW21288   0.329   0.186   0.348
 3086SOL    HW121289   0.418   0.233   0.349
 3086SOL    HW221290   0.299   0.172   0.443
 3087SOL     OW21291   1.158   0.586   0.462
 3087SOL    HW121292   1.185   0.588   0.366
 3087SOL    HW221293   1.154   0.679   0.498
 3088SOL     OW21294   8.146   4.350   0.602
 3088SOL    HW121295   8.213   4.393   0.542
 3088SOL    HW221296   8.064   4.408   0.608
 3089SOL     OW21297   9.221   8.371   1.136
 3089SOL    HW121298   9.203   8.324   1.050
 3089SOL    HW221299   9.135   8.385   1.185
 3090SOL     OW21300   5.063   5.047   6.579
 3090SOL    HW121301   5.076   5.146   6.584
 3090SOL    HW221302   5.132   5.001   6.634
 3091SOL     OW21303   7.796   4.486   0.284
 3091SOL    HW121304   7.763   4.477   0.378
 3091SOL    HW221305   7.860   4.412   0.263
 3092SOL     OW21306   1.041   0.571   5.896
 3092SOL    HW121307   1.077   0.554   5.804
 3092SOL    HW221308   0.947   0.606   5.888
 3093SOL     OW21309   3.725   7.638   6.369
 3093SOL    HW121310   3.800   7.682   6.418
 3093SOL    HW221311   3.642   7.643   6.425
 3094SOL     OW21312   3.486   5.159   6.592
 3094SOL    HW121313   3.442   5.211   6.519
 3094SOL    HW221314   3.539   5.221   6.649
 3095SOL     OW21315   2.458   5.704   6.388
 3095SOL    HW121316   2.467   5.692   6.487
 3095SOL    HW221317   2.476   5.799   6.364
 3096SOL     OW21318   7.604   6.780   6.390
 3096SOL    HW121319   7.535   6.708   6.382
 3096SOL    HW221320   7.657   6.784   6.305
 3097SOL     OW21321   1.212   5.619   4.997
 3097SOL    HW121322   1.117   5.645   5.014
 3097SOL    HW221323   1.218   5.572   4.909
 3098SOL     OW21324   0.113   1.976   0.918
 3098SOL    HW121325   0.203   1.935   0.928
 3098SOL    HW221326   0.045   1.904   0.904
 3099SOL     OW21327   3.949   4.466   6.674
 3099SOL    HW121328   3.861   4.461   6.720
 3099SOL    HW221329   3.941   4.520   6.590
 3100SOL     OW21330   6.275   6.909   0.726
 3100SOL    HW121331   6.223   6.982   0.770
 3100SOL    HW221332   6.357   6.947   0.683
 3101SOL     OW21333   3.930   2.345   6.374
 3101SOL    HW121334   3.993   2.358   6.297
 3101SOL    HW221335   3.939   2.253   6.411
 3102SOL     OW21336   2.184   1.280   5.986
 3102SOL    HW121337   2.259   1.227   6.024
 3102SOL    HW221338   2.098   1.229   5.997
 3103SOL     OW21339   3.104   7.336   0.781
 3103SOL    HW121340   3.082   7.257   0.724
 3103SOL    HW221341   3.122   7.305   0.875
 3104SOL     OW21342   6.876   4.312   6.492
 3104SOL    HW121343   6.828   4.225   6.475
 3104SOL    HW221344   6.809   4.383   6.512
 3105SOL     OW21345   4.299   0.908   2.270
 3105SOL    HW121346   4.278   0.813   2.293
 3105SOL    HW221347   4.224   0.947   2.216
 3106SOL     OW21348   5.873   0.667   2.101
 3106SOL    HW121349   5.822   0.693   2.019
 3106SOL    HW221350   5.838   0.717   2.179
 3107SOL     OW21351   1.880   4.140   5.500
 3107SOL    HW121352   1.876   4.066   5.433
 3107SOL    HW221353   1.964   4.193   5.485
 3108SOL     OW21354   0.240   6.280   4.274
 3108SOL    HW121355   0.159   6.229   4.245
 3108SOL    HW221356   0.231   6.376   4.246
 3109SOL     OW21357   8.071   3.160   1.676
 3109SOL    HW121358   8.131   3.223   1.726
 3109SOL    HW221359   8.094   3.066   1.699
 3110SOL     OW21360   3.259   7.765   5.842
 3110SOL    HW121361   3.334   7.826   5.818
 3110SOL    HW221362   3.179   7.819   5.867
 3111SOL     OW21363   5.285   0.456   1.678
 3111SOL    HW121364   5.233   0.504   1.748
 3111SOL    HW221365   5.382   0.479   1.687
 3112SOL     OW21366   7.108   1.329   0.460
 3112SOL    HW121367   7.206   1.321   0.443
 3112SOL    HW221368   7.058   1.308   0.376
 3113SOL     OW21369   1.273   5.044   4.779
 3113SOL    HW121370   1.318   5.120   4.826
 3113SOL    HW221371   1.342   4.984   4.739
 3114SOL     OW21372   0.141   1.825   5.538
 3114SOL    HW121373   0.177   1.744   5.492
 3114SOL    HW221374   0.194   1.906   5.510
 3115SOL     OW21375   1.463   0.813   1.000
 3115SOL    HW121376   1.383   0.758   0.977
 3115SOL    HW221377   1.482   0.804   1.098
 3116SOL     OW21378   3.923   2.200   5.473
 3116SOL    HW121379   3.887   2.130   5.412
 3116SOL    HW221380   3.873   2.285   5.458
 3117SOL     OW21381   1.360   3.543   5.908
 3117SOL    HW121382   1.436   3.538   5.843
 3117SOL    HW221383   1.314   3.631   5.899
 3118SOL     OW21384   7.167   3.959   6.255
 3118SOL    HW121385   7.265   3.957   6.231
 3118SOL    HW221386   7.156   3.940   6.352
 3119SOL     OW21387   5.341   7.000   5.871
 3119SOL    HW121388   5.361   6.903   5.858
 3119SOL    HW221389   5.248   7.019   5.838
 3120SOL     OW21390   7.159   2.514   0.824
 3120SOL    HW121391   7.231   2.522   0.755
 3120SOL    HW221392   7.181   2.571   0.903
 3121SOL     OW21393   5.177   8.227   0.829
 3121SOL    HW121394   5.087   8.245   0.869
 3121SOL    HW221395   5.191   8.286   0.750
 3122SOL     OW21396   6.305   5.754   1.285
 3122SOL    HW121397   6.277   5.658   1.280
 3122SOL    HW221398   6.288   5.789   1.377
 3123SOL     OW21399   5.400   6.641   1.390
 3123SOL    HW121400   5.359   6.554   1.418
 3123SOL    HW221401   5.327   6.709   1.379
 3124SOL     OW21402   3.678   3.437   1.951
 3124SOL    HW121403   3.721   3.519   1.990
 3124SOL    HW221404   3.601   3.409   2.007
 3125SOL     OW21405   5.437   6.163   1.409
 3125SOL    HW121406   5.407   6.119   1.493
 3125SOL    HW221407   5.362   6.165   1.343
 3126SOL     OW21408   3.947   0.352   5.664
 3126SOL    HW121409   3.973   0.410   5.587
 3126SOL    HW221410   3.951   0.404   5.749
 3127SOL     OW21411   8.185   1.707   1.123
 3127SOL    HW121412   8.213   1.741   1.212
 3127SOL    HW221413   8.118   1.634   1.134
 3128SOL     OW21414   8.921   5.395   5.979
 3128SOL    HW121415   8.831   5.437   5.987
 3128SOL    HW221416   8.921   5.326   5.907
 3129SOL     OW21417   5.852   5.234   5.887
 3129SOL    HW121418   5.905   5.185   5.957
 3129SOL    HW221419   5.834   5.327   5.918
 3130SOL     OW21420   8.120   5.021   6.150
 3130SOL    HW121421   8.097   4.940   6.096
 3130SOL    HW221422   8.219   5.027   6.160
 3131SOL     OW21423   7.570   3.044   1.245
 3131SOL    HW121424   7.512   2.984   1.300
 3131SOL    HW221425   7.653   3.065   1.296
 3132SOL     OW21426   6.851   4.720   0.728
 3132SOL    HW121427   6.867   4.628   0.765
 3132SOL    HW221428   6.794   4.713   0.646
 3133SOL     OW21429   1.611   8.419   5.362
 3133SOL    HW121430   1.517   8.451   5.346
 3133SOL    HW221431   1.654   8.396   5.275
 3134SOL     OW21432   4.094   2.197   1.828
 3134SOL    HW121433   4.121   2.248   1.747
 3134SOL    HW221434   4.062   2.260   1.898
 3135SOL     OW21435   8.135   6.516   1.181
 3135SOL    HW121436   8.082   6.529   1.265
 3135SOL    HW221437   8.149   6.418   1.164
 3136SOL     OW21438   2.527   7.590   4.828
 3136SOL    HW121439   2.517   7.588   4.728
 3136SOL    HW221440   2.593   7.661   4.853
 3137SOL     OW21441   2.756   7.067   0.274
 3137SOL    HW121442   2.739   7.040   0.179
 3137SOL    HW221443   2.710   7.002   0.336
 3138SOL     OW21444   2.237   2.419   1.936
 3138SOL    HW121445   2.144   2.455   1.921
 3138SOL    HW221446   2.303   2.494   1.929
 3139SOL     OW21447   0.662   1.479   5.629
 3139SOL    HW121448   0.577   1.456   5.582
 3139SOL    HW221449   0.663   1.576   5.652
 3140SOL     OW21450   9.157   3.903   0.789
 3140SOL    HW121451   9.065   3.942   0.800
 3140SOL    HW221452   9.176   3.841   0.865
 3141SOL     OW21453   0.140   7.026   5.656
 3141SOL    HW121454   0.191   6.977   5.585
 3141SOL    HW221455   0.076   7.090   5.613
 3142SOL     OW21456   7.190   4.617   6.321
 3142SOL    HW121457   7.165   4.524   6.349
 3142SOL    HW221458   7.114   4.659   6.272
 3143SOL     OW21459   8.404   1.923   6.497
 3143SOL    HW121460   8.350   1.848   6.536
 3143SOL    HW221461   8.482   1.885   6.447
 3144SOL     OW21462   1.624   6.379   0.645
 3144SOL    HW121463   1.695   6.321   0.606
 3144SOL    HW221464   1.665   6.462   0.682
 3145SOL     OW21465   0.847   1.211   6.912
 3145SOL    HW121466   0.750   1.237   6.922
 3145SOL    HW221467   0.884   1.254   6.831
 3146SOL     OW21468   3.171   8.197   1.213
 3146SOL    HW121469   3.161   8.099   1.195
 3146SOL    HW221470   3.192   8.212   1.310
 3147SOL     OW21471   6.689   3.482   1.149
 3147SOL    HW121472   6.649   3.568   1.117
 3147SOL    HW221473   6.680   3.412   1.078
 3148SOL     OW21474   1.188   0.602   6.757
 3148SOL    HW121475   1.192   0.506   6.787
 3148SOL    HW221476   1.153   0.605   6.663
 3149SOL     OW21477   7.467   6.958   0.370
 3149SOL    HW121478   7.516   6.990   0.452
 3149SOL    HW221479   7.511   6.874   0.337
 3150SOL     OW21480   8.132   4.055   5.816
 3150SOL    HW121481   8.111   4.024   5.909
 3150SOL    HW221482   8.107   3.983   5.751
 3151SOL     OW21483   8.975   5.863   6.016
 3151SOL    HW121484   8.926   5.897   5.936
 3151SOL    HW221485   9.070   5.844   5.991
 3152SOL     OW21486   3.368   7.466   2.010
 3152SOL    HW121487   3.401   7.417   2.091
 3152SOL    HW221488   3.368   7.564   2.029
 3153SOL     OW21489   3.420   6.797   6.293
 3153SOL    HW121490   3.515   6.782   6.263
 3153SOL    HW221491   3.405   6.751   6.380
 3154SOL     OW21492   6.857   6.804   5.463
 3154SOL    HW121493   6.930   6.873   5.460
 3154SOL    HW221494   6.842   6.768   5.371
 3155SOL     OW21495   1.290   5.827   1.288
 3155SOL    HW121496   1.257   5.737   1.316
 3155SOL    HW221497   1.378   5.845   1.333
 3156SOL     OW21498   7.270   7.170   0.449
 3156SOL    HW121499   7.354   7.136   0.407
 3156SOL    HW221500   7.293   7.237   0.519
 3157SOL     OW21501   4.081   0.540   1.608
 3157SOL    HW121502   4.162   0.481   1.610
 3157SOL    HW221503   4.110   0.636   1.600
 3158SOL     OW21504   8.045   2.973   6.536
 3158SOL    HW121505   8.006   3.054   6.581
 3158SOL    HW221506   7.976   2.933   6.475
 3159SOL     OW21507   1.838   7.773   5.681
 3159SOL    HW121508   1.883   7.791   5.594
 3159SOL    HW221509   1.901   7.792   5.756
 3160SOL     OW21510   5.278   8.081   2.260
 3160SOL    HW121511   5.363   8.116   2.298
 3160SOL    HW221512   5.277   7.981   2.267
 3161SOL     OW21513   7.879   0.944   5.933
 3161SOL    HW121514   7.920   0.908   5.850
 3161SOL    HW221515   7.781   0.958   5.919
 3162SOL     OW21516   1.825   2.391   6.450
 3162SOL    HW121517   1.726   2.391   6.436
 3162SOL    HW221518   1.849   2.460   6.518
 3163SOL     OW21519   8.870  -0.063   6.062
 3163SOL    HW121520   8.857  -0.112   6.148
 3163SOL    HW221521   8.927   0.018   6.078
 3164SOL     OW21522   1.868   8.098   0.685
 3164SOL    HW121523   1.844   8.195   0.691
 3164SOL    HW221524   1.854   8.055   0.774
 3165SOL     OW21525   8.701   2.694   1.295
 3165SOL    HW121526   8.740   2.680   1.386
 3165SOL    HW221527   8.775   2.706   1.229
 3166SOL     OW21528   1.621   2.348   5.407
 3166SOL    HW121529   1.576   2.271   5.362
 3166SOL    HW221530   1.701   2.375   5.354
 3167SOL     OW21531   6.586   1.807   5.550
 3167SOL    HW121532   6.622   1.715   5.567
 3167SOL    HW221533   6.487   1.805   5.553
 3168SOL     OW21534   4.497   0.812   1.594
 3168SOL    HW121535   4.401   0.786   1.598
 3168SOL    HW221536   4.508   0.904   1.632
 3169SOL     OW21537   3.630   3.229   0.985
 3169SOL    HW121538   3.587   3.292   1.050
 3169SOL    HW221539   3.684   3.281   0.918
 3170SOL     OW21540   9.443   1.099   5.765
 3170SOL    HW121541   9.379   1.025   5.787
 3170SOL    HW221542   9.535   1.073   5.795
 3171SOL     OW21543   5.362   7.999   0.427
 3171SOL    HW121544   5.450   8.044   0.442
 3171SOL    HW221545   5.314   8.043   0.351
 3172SOL     OW21546   2.565   4.084   6.885
 3172SOL    HW121547   2.501   4.044   6.951
 3172SOL    HW221548   2.514   4.119   6.806
 3173SOL     OW21549   0.808   5.674   5.475
 3173SOL    HW121550   0.886   5.616   5.498
 3173SOL    HW221551   0.744   5.623   5.417
 3174SOL     OW21552   1.345   3.027   1.135
 3174SOL    HW121553   1.384   3.101   1.189
 3174SOL    HW221554   1.290   3.064   1.061
 3175SOL     OW21555   8.382   2.143   0.757
 3175SOL    HW121556   8.389   2.210   0.684
 3175SOL    HW221557   8.466   2.090   0.762
 3176SOL     OW21558   1.321   2.437   0.412
 3176SOL    HW121559   1.301   2.450   0.509
 3176SOL    HW221560   1.285   2.349   0.382
 3177SOL     OW21561   4.668   0.238   5.692
 3177SOL    HW121562   4.728   0.317   5.682
 3177SOL    HW221563   4.635   0.209   5.602
 3178SOL     OW21564   6.773   1.587   2.043
 3178SOL    HW121565   6.765   1.507   2.103
 3178SOL    HW221566   6.693   1.645   2.054
 3179SOL     OW21567   6.794   5.994   1.136
 3179SOL    HW121568   6.826   6.085   1.162
 3179SOL    HW221569   6.860   5.925   1.166
 3180SOL     OW21570   4.196   1.054   6.494
 3180SOL    HW121571   4.284   1.046   6.540
 3180SOL    HW221572   4.129   1.095   6.556
 3181SOL     OW21573   4.402   7.106   1.269
 3181SOL    HW121574   4.338   7.183   1.280
 3181SOL    HW221575   4.474   7.113   1.337
 3182SOL     OW21576   7.360   2.644   1.279
 3182SOL    HW121577   7.435   2.709   1.263
 3182SOL    HW221578   7.306   2.674   1.358
 3183SOL     OW21579   1.118   2.823   0.519
 3183SOL    HW121580   1.168   2.814   0.433
 3183SOL    HW221581   1.136   2.744   0.577
 3184SOL     OW21582   1.655   0.015   1.811
 3184SOL    HW121583   1.594  -0.063   1.824
 3184SOL    HW221584   1.750  -0.014   1.823
 3185SOL     OW21585   5.915   5.667   1.355
 3185SOL    HW121586   5.962   5.585   1.386
 3185SOL    HW221587   5.900   5.662   1.256
 3186SOL     OW21588   3.238   4.765   1.364
 3186SOL    HW121589   3.249   4.721   1.276
 3186SOL    HW221590   3.185   4.706   1.425
 3187SOL     OW21591   5.484   4.791   5.911
 3187SOL    HW121592   5.471   4.799   6.010
 3187SOL    HW221593   5.396   4.803   5.865
 3188SOL     OW21594   5.302   6.804   6.499
 3188SOL    HW121595   5.358   6.754   6.565
 3188SOL    HW221596   5.283   6.746   6.421
 3189SOL     OW21597   6.795   2.230   1.461
 3189SOL    HW121598   6.740   2.146   1.464
 3189SOL    HW221599   6.736   2.308   1.441
 3190SOL     OW21600   2.233   6.349   6.002
 3190SOL    HW121601   2.318   6.314   6.042
 3190SOL    HW221602   2.208   6.292   5.923
 3191SOL     OW21603   2.937   0.998   0.642
 3191SOL    HW121604   2.855   0.941   0.638
 3191SOL    HW221605   3.017   0.939   0.657
 3192SOL     OW21606   8.681   6.678   6.679
 3192SOL    HW121607   8.712   6.766   6.642
 3192SOL    HW221608   8.601   6.693   6.737
 3193SOL     OW21609   7.371   1.281   0.373
 3193SOL    HW121610   7.415   1.331   0.298
 3193SOL    HW221611   7.428   1.286   0.455
 3194SOL     OW21612   4.033   6.908   6.341
 3194SOL    HW121613   4.080   6.928   6.255
 3194SOL    HW221614   3.943   6.952   6.340
 3195SOL     OW21615   8.921   5.492   6.477
 3195SOL    HW121616   8.929   5.587   6.508
 3195SOL    HW221617   8.953   5.486   6.382
 3196SOL     OW21618   4.504   6.911   6.843
 3196SOL    HW121619   4.481   6.844   6.772
 3196SOL    HW221620   4.496   7.003   6.806
 3197SOL     OW21621   2.725   8.062   0.642
 3197SOL    HW121622   2.669   7.995   0.594
 3197SOL    HW221623   2.822   8.041   0.629
 3198SOL     OW21624   4.992   6.160   6.545
 3198SOL    HW121625   4.942   6.089   6.495
 3198SOL    HW221626   4.930   6.210   6.605
 3199SOL     OW21627   5.574   0.472   4.766
 3199SOL    HW121628   5.554   0.406   4.838
 3199SOL    HW221629   5.526   0.445   4.682
 3200SOL     OW21630   0.677   5.748   1.159
 3200SOL    HW121631   0.722   5.837   1.153
 3200SOL    HW221632   0.648   5.731   1.253
 3201SOL     OW21633   7.066   5.652   1.783
 3201SOL    HW121634   6.970   5.667   1.809
 3201SOL    HW221635   7.126   5.683   1.856
 3202SOL     OW21636   0.346   8.030   5.710
 3202SOL    HW121637   0.329   8.111   5.653
 3202SOL    HW221638   0.345   8.055   5.806
 3203SOL     OW21639   2.698   2.208   6.853
 3203SOL    HW121640   2.635   2.199   6.776
 3203SOL    HW221641   2.656   2.167   6.934
 3204SOL     OW21642   2.257   6.246   6.925
 3204SOL    HW121643   2.344   6.229   6.880
 3204SOL    HW221644   2.263   6.219   7.021
 3205SOL     OW21645   8.036   6.880   5.958
 3205SOL    HW121646   8.067   6.787   5.977
 3205SOL    HW221647   8.116   6.938   5.940
 3206SOL     OW21648   4.094   7.508   6.236
 3206SOL    HW121649   4.178   7.457   6.252
 3206SOL    HW221650   4.113   7.606   6.240
 3207SOL     OW21651   6.283   5.182   6.286
 3207SOL    HW121652   6.355   5.127   6.244
 3207SOL    HW221653   6.196   5.165   6.238
 3208SOL     OW21654   4.495   4.114   2.258
 3208SOL    HW121655   4.570   4.051   2.277
 3208SOL    HW221656   4.518   4.172   2.181
 3209SOL     OW21657   4.890   1.349   5.575
 3209SOL    HW121658   4.797   1.314   5.586
 3209SOL    HW221659   4.889   1.428   5.514
 3210SOL     OW21660   4.342   3.199   5.885
 3210SOL    HW121661   4.329   3.224   5.789
 3210SOL    HW221662   4.351   3.282   5.940
 3211SOL     OW21663   8.647   4.248   0.346
 3211SOL    HW121664   8.664   4.346   0.334
 3211SOL    HW221665   8.731   4.204   0.380
 3212SOL     OW21666   4.378   6.085   6.347
 3212SOL    HW121667   4.332   6.106   6.434
 3212SOL    HW221668   4.321   6.023   6.293
 3213SOL     OW21669   6.665   7.070   5.250
 3213SOL    HW121670   6.750   7.056   5.199
 3213SOL    HW221671   6.610   6.986   5.246
 3214SOL     OW21672   1.515   3.714   1.517
 3214SOL    HW121673   1.452   3.677   1.449
 3214SOL    HW221674   1.572   3.640   1.554
 3215SOL     OW21675   5.787   7.318   5.327
 3215SOL    HW121676   5.831   7.408   5.320
 3215SOL    HW221677   5.709   7.314   5.265
 3216SOL     OW21678   8.362   4.422   1.444
 3216SOL    HW121679   8.289   4.356   1.425
 3216SOL    HW221680   8.322   4.513   1.456
 3217SOL     OW21681   0.467   4.879   0.800
 3217SOL    HW121682   0.559   4.861   0.765
 3217SOL    HW221683   0.399   4.858   0.730
 3218SOL     OW21684   2.679   3.907   0.902
 3218SOL    HW121685   2.751   3.889   0.835
 3218SOL    HW221686   2.590   3.892   0.860
 3219SOL     OW21687   5.678   6.533   6.577
 3219SOL    HW121688   5.637   6.454   6.531
 3219SOL    HW221689   5.693   6.606   6.510
 3220SOL     OW21690   7.562   6.278   6.198
 3220SOL    HW121691   7.598   6.352   6.140
 3220SOL    HW221692   7.562   6.192   6.147
 3221SOL     OW21693   1.055   0.526   6.179
 3221SOL    HW121694   1.085   0.531   6.084
 3221SOL    HW221695   1.099   0.449   6.224
 3222SOL     OW21696   5.014   1.329   6.627
 3222SOL    HW121697   5.096   1.304   6.680
 3222SOL    HW221698   4.963   1.400   6.675
 3223SOL     OW21699   6.660   2.450   2.251
 3223SOL    HW121700   6.622   2.492   2.333
 3223SOL    HW221701   6.744   2.498   2.225
 3224SOL     OW21702   2.690   2.789   1.521
 3224SOL    HW121703   2.767   2.852   1.525
 3224SOL    HW221704   2.719   2.703   1.477
 3225SOL     OW21705   8.854   3.559   0.581
 3225SOL    HW121706   8.915   3.481   0.598
 3225SOL    HW221707   8.794   3.536   0.504
 3226SOL     OW21708   6.895   4.643   6.842
 3226SOL    HW121709   6.911   4.683   6.752
 3226SOL    HW221710   6.891   4.543   6.833
 3227SOL     OW21711   1.027   2.642   1.710
 3227SOL    HW121712   0.934   2.635   1.746
 3227SOL    HW221713   1.093   2.615   1.781
 3228SOL     OW21714   4.824   4.048   5.511
 3228SOL    HW121715   4.746   3.988   5.494
 3228SOL    HW221716   4.895   3.999   5.561
 3229SOL     OW21717   4.835   2.340   6.425
 3229SOL    HW121718   4.743   2.317   6.393
 3229SOL    HW221719   4.846   2.310   6.520
 3230SOL     OW21720   8.732   7.267   0.396
 3230SOL    HW121721   8.773   7.284   0.306
 3230SOL    HW221722   8.684   7.179   0.395
 3231SOL     OW21723   7.979   7.212   1.186
 3231SOL    HW121724   7.984   7.287   1.251
 3231SOL    HW221725   8.070   7.195   1.148
 3232SOL     OW21726   7.753   7.448   6.816
 3232SOL    HW121727   7.722   7.539   6.844
 3232SOL    HW221728   7.677   7.399   6.773
 3233SOL     OW21729   5.836   3.291   1.458
 3233SOL    HW121730   5.917   3.320   1.509
 3233SOL    HW221731   5.796   3.211   1.503
 3234SOL     OW21732   2.847   0.253   1.605
 3234SOL    HW121733   2.805   0.229   1.518
 3234SOL    HW221734   2.819   0.187   1.675
 3235SOL     OW21735   8.393   7.683   5.188
 3235SOL    HW121736   8.341   7.757   5.146
 3235SOL    HW221737   8.461   7.720   5.250
 3236SOL     OW21738   1.712   0.384   6.103
 3236SOL    HW121739   1.663   0.428   6.028
 3236SOL    HW221740   1.681   0.422   6.190
 3237SOL     OW21741   4.844   5.415   1.814
 3237SOL    HW121742   4.798   5.355   1.879
 3237SOL    HW221743   4.798   5.504   1.811
 3238SOL     OW21744   9.247   2.674   1.172
 3238SOL    HW121745   9.302   2.701   1.251
 3238SOL    HW221746   9.271   2.581   1.145
 3239SOL     OW21747   5.201   6.830   1.346
 3239SOL    HW121748   5.123   6.870   1.393
 3239SOL    HW221749   5.231   6.891   1.274
 3240SOL     OW21750   4.252   4.741   1.392
 3240SOL    HW121751   4.184   4.673   1.364
 3240SOL    HW221752   4.335   4.730   1.338
 3241SOL     OW21753   6.406   1.514   1.558
 3241SOL    HW121754   6.325   1.481   1.510
 3241SOL    HW221755   6.462   1.568   1.495
 3242SOL     OW21756   3.458   6.109   1.464
 3242SOL    HW121757   3.360   6.121   1.484
 3242SOL    HW221758   3.497   6.041   1.526
 3243SOL     OW21759   8.739   6.080   5.498
 3243SOL    HW121760   8.705   6.055   5.589
 3243SOL    HW221761   8.762   5.997   5.447
 3244SOL     OW21762   4.531   5.993   1.339
 3244SOL    HW121763   4.504   6.077   1.384
 3244SOL    HW221764   4.461   5.923   1.351
 3245SOL     OW21765   4.826   5.162   0.718
 3245SOL    HW121766   4.792   5.211   0.638
 3245SOL    HW221767   4.757   5.095   0.748
 3246SOL     OW21768   6.946   0.243   0.973
 3246SOL    HW121769   6.948   0.167   1.039
 3246SOL    HW221770   6.982   0.211   0.885
 3247SOL     OW21771   8.275   4.252   6.533
 3247SOL    HW121772   8.346   4.224   6.469
 3247SOL    HW221773   8.189   4.266   6.484
 3248SOL     OW21774   0.944   6.718   5.526
 3248SOL    HW121775   0.869   6.757   5.473
 3248SOL    HW221776   1.000   6.792   5.564
 3249SOL     OW21777   7.642   5.600   1.360
 3249SOL    HW121778   7.625   5.551   1.445
 3249SOL    HW221779   7.732   5.643   1.363
 3250SOL     OW21780   5.493   4.850   1.132
 3250SOL    HW121781   5.533   4.761   1.106
 3250SOL    HW221782   5.563   4.921   1.123
 3251SOL     OW21783   4.145   6.656   5.535
 3251SOL    HW121784   4.078   6.701   5.593
 3251SOL    HW221785   4.137   6.557   5.545
 3252SOL     OW21786   4.334   0.196   0.721
 3252SOL    HW121787   4.362   0.181   0.816
 3252SOL    HW221788   4.290   0.114   0.686
 3253SOL     OW21789   5.042   8.146   6.361
 3253SOL    HW121790   5.127   8.196   6.379
 3253SOL    HW221791   5.006   8.109   6.447
 3254SOL     OW21792   0.337   5.441   0.438
 3254SOL    HW121793   0.241   5.412   0.436
 3254SOL    HW221794   0.392   5.369   0.481
 3255SOL     OW21795   0.604   8.418   6.626
 3255SOL    HW121796   0.538   8.346   6.605
 3255SOL    HW221797   0.695   8.378   6.632
 3256SOL     OW21798   2.360   2.491   5.874
 3256SOL    HW121799   2.424   2.550   5.922
 3256SOL    HW221800   2.279   2.477   5.930
 3257SOL     OW21801   5.131  -0.032   0.705
 3257SOL    HW121802   5.120   0.010   0.795
 3257SOL    HW221803   5.041  -0.042   0.663
 3258SOL     OW21804   1.594   4.255   5.977
 3258SOL    HW121805   1.562   4.318   6.048
 3258SOL    HW221806   1.623   4.307   5.897
 3259SOL     OW21807   2.527   4.804   6.621
 3259SOL    HW121808   2.511   4.790   6.719
 3259SOL    HW221809   2.625   4.807   6.603
 3260SOL     OW21810   0.297   4.812   0.991
 3260SOL    HW121811   0.320   4.826   1.087
 3260SOL    HW221812   0.365   4.857   0.933
 3261SOL     OW21813   0.340   0.949   6.456
 3261SOL    HW121814   0.369   0.856   6.479
 3261SOL    HW221815   0.391   1.013   6.514
 3262SOL     OW21816   7.277   7.902   6.465
 3262SOL    HW121817   7.263   7.998   6.442
 3262SOL    HW221818   7.332   7.858   6.394
 3263SOL     OW21819   0.988   2.036   5.900
 3263SOL    HW121820   1.072   2.000   5.942
 3263SOL    HW221821   1.013   2.102   5.829
 3264SOL     OW21822   6.599   4.356   6.518
 3264SOL    HW121823   6.535   4.335   6.592
 3264SOL    HW221824   6.570   4.310   6.435
 3265SOL     OW21825   1.194   5.622   1.434
 3265SOL    HW121826   1.294   5.624   1.432
 3265SOL    HW221827   1.162   5.650   1.525
 3266SOL     OW21828   3.658   4.230   0.874
 3266SOL    HW121829   3.663   4.162   0.948
 3266SOL    HW221830   3.748   4.237   0.830
 3267SOL     OW21831   8.662   0.775   5.760
 3267SOL    HW121832   8.568   0.809   5.760
 3267SOL    HW221833   8.685   0.741   5.668
 3268SOL     OW21834   0.158   5.397   5.261
 3268SOL    HW121835   0.238   5.354   5.219
 3268SOL    HW221836   0.091   5.327   5.285
 3269SOL     OW21837   9.572   0.773   6.929
 3269SOL    HW121838   9.647   0.801   6.869
 3269SOL    HW221839   9.541   0.852   6.981
 3270SOL     OW21840   4.409   7.986   0.298
 3270SOL    HW121841   4.496   7.961   0.256
 3270SOL    HW221842   4.423   8.006   0.395
 3271SOL     OW21843   3.155   6.334   0.483
 3271SOL    HW121844   3.205   6.385   0.553
 3271SOL    HW221845   3.083   6.279   0.526
 3272SOL     OW21846   1.593   6.916   4.679
 3272SOL    HW121847   1.527   6.877   4.615
 3272SOL    HW221848   1.569   7.011   4.699
 3273SOL     OW21849   8.698   2.310   0.563
 3273SOL    HW121850   8.600   2.322   0.582
 3273SOL    HW221851   8.734   2.391   0.518
 3274SOL     OW21852   5.292   2.782   6.641
 3274SOL    HW121853   5.389   2.791   6.621
 3274SOL    HW221854   5.268   2.685   6.649
 3275SOL     OW21855   2.052   1.884   1.080
 3275SOL    HW121856   2.001   1.922   1.157
 3275SOL    HW221857   2.004   1.804   1.045
 3276SOL     OW21858   7.098   4.020   5.600
 3276SOL    HW121859   7.112   3.921   5.598
 3276SOL    HW221860   7.183   4.065   5.625
 3277SOL     OW21861   9.592   3.830   0.666
 3277SOL    HW121862   9.540   3.815   0.583
 3277SOL    HW221863   9.557   3.910   0.714
 3278SOL     OW21864   2.235   4.929   0.702
 3278SOL    HW121865   2.156   4.868   0.713
 3278SOL    HW221866   2.289   4.929   0.787
 3279SOL     OW21867   2.243   1.336   5.340
 3279SOL    HW121868   2.213   1.417   5.289
 3279SOL    HW221869   2.243   1.256   5.280
 3280SOL     OW21870   6.088   7.652   0.407
 3280SOL    HW121871   6.017   7.585   0.386
 3280SOL    HW221872   6.164   7.642   0.342
 3281SOL     OW21873   8.832   7.141   5.420
 3281SOL    HW121874   8.831   7.056   5.367
 3281SOL    HW221875   8.831   7.120   5.518
 3282SOL     OW21876   7.959   7.786   6.629
 3282SOL    HW121877   7.869   7.809   6.590
 3282SOL    HW221878   7.953   7.785   6.729
 3283SOL     OW21879   2.052   2.037   6.781
 3283SOL    HW121880   2.013   1.950   6.749
 3283SOL    HW221881   2.016   2.058   6.871
 3284SOL     OW21882   7.456   0.531   6.450
 3284SOL    HW121883   7.405   0.589   6.514
 3284SOL    HW221884   7.480   0.445   6.494
 3285SOL     OW21885   4.478   0.598   2.472
 3285SOL    HW121886   4.382   0.612   2.496
 3285SOL    HW221887   4.515   0.681   2.431
 3286SOL     OW21888   7.226   2.672   1.042
 3286SOL    HW121889   7.139   2.721   1.048
 3286SOL    HW221890   7.246   2.628   1.130
 3287SOL     OW21891   1.976   7.970   6.711
 3287SOL    HW121892   2.014   8.023   6.787
 3287SOL    HW221893   1.887   7.933   6.738
 3288SOL     OW21894   1.092   7.798   0.726
 3288SOL    HW121895   1.025   7.851   0.673
 3288SOL    HW221896   1.181   7.843   0.720
 3289SOL     OW21897   2.825   3.994   1.630
 3289SOL    HW121898   2.914   4.038   1.620
 3289SOL    HW221899   2.834   3.914   1.690
 3290SOL     OW21900   1.667   3.172   5.895
 3290SOL    HW121901   1.702   3.216   5.978
 3290SOL    HW221902   1.667   3.238   5.819
 3291SOL     OW21903   0.545   0.198   0.726
 3291SOL    HW121904   0.538   0.189   0.825
 3291SOL    HW221905   0.584   0.115   0.688
 3292SOL     OW21906   6.064   6.545   1.574
 3292SOL    HW121907   6.122   6.608   1.522
 3292SOL    HW221908   5.976   6.589   1.593
 3293SOL     OW21909   3.068   5.895   0.800
 3293SOL    HW121910   3.160   5.883   0.763
 3293SOL    HW221911   3.015   5.811   0.783
 3294SOL     OW21912   0.189   4.737   0.378
 3294SOL    HW121913   0.232   4.670   0.317
 3294SOL    HW221914   0.214   4.830   0.348
 3295SOL     OW21915   3.482   0.054   6.300
 3295SOL    HW121916   3.570   0.021   6.334
 3295SOL    HW221917   3.411  -0.014   6.320
 3296SOL     OW21918   4.642   5.503   1.440
 3296SOL    HW121919   4.655   5.495   1.341
 3296SOL    HW221920   4.708   5.443   1.487
 3297SOL     OW21921   7.252   1.008   6.537
 3297SOL    HW121922   7.178   0.943   6.518
 3297SOL    HW221923   7.270   1.011   6.635
 3298SOL     OW21924   4.124   6.246   0.389
 3298SOL    HW121925   4.051   6.187   0.355
 3298SOL    HW221926   4.193   6.259   0.318
 3299SOL     OW21927   1.165   3.815   0.767
 3299SOL    HW121928   1.144   3.728   0.810
 3299SOL    HW221929   1.082   3.870   0.760
 3300SOL     OW21930   7.227   3.278   5.526
 3300SOL    HW121931   7.228   3.373   5.495
 3300SOL    HW221932   7.305   3.230   5.488
 3301SOL     OW21933   3.343   5.859   0.688
 3301SOL    HW121934   3.337   5.760   0.698
 3301SOL    HW221935   3.356   5.882   0.592
 3302SOL     OW21936   1.126   0.092   6.120
 3302SOL    HW121937   1.099   0.033   6.196
 3302SOL    HW221938   1.044   0.120   6.069
 3303SOL     OW21939   5.553   7.354   6.569
 3303SOL    HW121940   5.582   7.324   6.478
 3303SOL    HW221941   5.488   7.288   6.607
 3304SOL     OW21942   8.069   6.576   6.001
 3304SOL    HW121943   8.164   6.560   6.030
 3304SOL    HW221944   8.009   6.512   6.048
 3305SOL     OW21945   8.516   3.704   6.116
 3305SOL    HW121946   8.490   3.764   6.040
 3305SOL    HW221947   8.434   3.678   6.168
 3306SOL     OW21948   8.685   5.118   6.191
 3306SOL    HW121949   8.678   5.056   6.269
 3306SOL    HW221950   8.764   5.093   6.135
 3307SOL     OW21951   4.857   7.919   5.258
 3307SOL    HW121952   4.796   7.936   5.180
 3307SOL    HW221953   4.802   7.898   5.339
 3308SOL     OW21954   5.340   7.711   1.177
 3308SOL    HW121955   5.282   7.680   1.253
 3308SOL    HW221956   5.304   7.674   1.091
 3309SOL     OW21957   2.228   6.001   1.576
 3309SOL    HW121958   2.261   6.068   1.642
 3309SOL    HW221959   2.294   5.926   1.567
 3310SOL     OW21960   0.821   8.385   6.243
 3310SOL    HW121961   0.812   8.286   6.255
 3310SOL    HW221962   0.905   8.415   6.290
 3311SOL     OW21963   5.345   4.923   1.370
 3311SOL    HW121964   5.391   5.011   1.376
 3311SOL    HW221965   5.399   4.861   1.313
 3312SOL     OW21966   2.058   8.086   1.095
 3312SOL    HW121967   2.058   7.995   1.053
 3312SOL    HW221968   2.042   8.078   1.193
 3313SOL     OW21969   6.579   5.524   6.376
 3313SOL    HW121970   6.589   5.520   6.276
 3313SOL    HW221971   6.568   5.431   6.412
 3314SOL     OW21972   4.895   1.473   4.940
 3314SOL    HW121973   4.833   1.452   5.015
 3314SOL    HW221974   4.861   1.553   4.890
 3315SOL     OW21975   2.785   6.154   5.648
 3315SOL    HW121976   2.845   6.102   5.709
 3315SOL    HW221977   2.799   6.124   5.554
 3316SOL     OW21978   1.446   0.502   0.353
 3316SOL    HW121979   1.421   0.409   0.326
 3316SOL    HW221980   1.461   0.505   0.452
 3317SOL     OW21981   3.982   1.767   5.536
 3317SOL    HW121982   3.997   1.852   5.485
 3317SOL    HW221983   4.025   1.691   5.487
 3318SOL     OW21984   6.645   0.278   5.396
 3318SOL    HW121985   6.658   0.317   5.305
 3318SOL    HW221986   6.552   0.241   5.404
 3319SOL     OW21987   2.036   5.826   0.701
 3319SOL    HW121988   1.996   5.850   0.612
 3319SOL    HW221989   2.125   5.872   0.710
 3320SOL     OW21990   4.285   4.124   1.914
 3320SOL    HW121991   4.368   4.090   1.871
 3320SOL    HW221992   4.267   4.072   1.997
 3321SOL     OW21993   4.371   0.333   0.306
 3321SOL    HW121994   4.414   0.362   0.221
 3321SOL    HW221995   4.404   0.390   0.381
 3322SOL     OW21996   5.279   6.298   5.554
 3322SOL    HW121997   5.268   6.261   5.647
 3322SOL    HW221998   5.367   6.346   5.548
 3323SOL     OW21999   5.772   4.428   1.184
 3323SOL    HW122000   5.768   4.357   1.113
 3323SOL    HW222001   5.824   4.394   1.262
 3324SOL     OW22002   7.375   7.832   0.580
 3324SOL    HW122003   7.301   7.803   0.519
 3324SOL    HW222004   7.384   7.765   0.655
 3325SOL     OW22005   2.190   3.338   6.181
 3325SOL    HW122006   2.267   3.391   6.217
 3325SOL    HW222007   2.209   3.313   6.086
 3326SOL     OW22008   0.946   0.413   1.997
 3326SOL    HW122009   0.940   0.513   1.988
 3326SOL    HW222010   1.035   0.389   2.035
 3327SOL     OW22011   4.911   1.638   6.532
 3327SOL    HW122012   4.843   1.703   6.499
 3327SOL    HW222013   4.997   1.686   6.553
 3328SOL     OW22014   1.904   2.123   0.931
 3328SOL    HW122015   1.938   2.139   0.838
 3328SOL    HW222016   1.805   2.110   0.928
 3329SOL     OW22017   4.001   5.667   1.120
 3329SOL    HW122018   4.027   5.757   1.086
 3329SOL    HW222019   3.930   5.628   1.062
 3330SOL     OW22020   3.762   7.185   6.629
 3330SOL    HW122021   3.692   7.154   6.693
 3330SOL    HW222022   3.852   7.158   6.664
 3331SOL     OW22023   1.637   2.252   0.448
 3331SOL    HW122024   1.631   2.296   0.358
 3331SOL    HW222025   1.703   2.301   0.505
 3332SOL     OW22026   5.426   3.357   6.406
 3332SOL    HW122027   5.339   3.408   6.409
 3332SOL    HW222028   5.500   3.420   6.381
 3333SOL     OW22029   5.015   7.983   1.134
 3333SOL    HW122030   5.001   7.889   1.105
 3333SOL    HW222031   4.926   8.029   1.140
 3334SOL     OW22032   5.275   1.410   6.080
 3334SOL    HW122033   5.332   1.473   6.028
 3334SOL    HW222034   5.220   1.355   6.017
 3335SOL     OW22035   6.855   0.948   0.997
 3335SOL    HW122036   6.875   0.917   0.904
 3335SOL    HW222037   6.757   0.944   1.013
 3336SOL     OW22038   5.531   5.998   0.644
 3336SOL    HW122039   5.615   5.958   0.680
 3336SOL    HW222040   5.552   6.054   0.564
 3337SOL     OW22041   2.177   2.222   0.623
 3337SOL    HW122042   2.212   2.225   0.530
 3337SOL    HW222043   2.246   2.180   0.683
 3338SOL     OW22044   0.943   6.217   0.588
 3338SOL    HW122045   1.003   6.189   0.663
 3338SOL    HW222046   0.937   6.317   0.586
 3339SOL     OW22047   6.986   7.435   5.603
 3339SOL    HW122048   6.947   7.399   5.518
 3339SOL    HW222049   7.037   7.518   5.583
 3340SOL     OW22050   3.338   3.645   0.637
 3340SOL    HW122051   3.276   3.717   0.610
 3340SOL    HW222052   3.432   3.670   0.613
 3341SOL     OW22053   3.999   7.432   1.206
 3341SOL    HW122054   3.910   7.461   1.241
 3341SOL    HW222055   3.991   7.413   1.108
 3342SOL     OW22056   0.218   6.883   6.353
 3342SOL    HW122057   0.235   6.944   6.430
 3342SOL    HW222058   0.175   6.799   6.386
 3343SOL     OW22059   5.841   7.709   1.752
 3343SOL    HW122060   5.821   7.792   1.803
 3343SOL    HW222061   5.940   7.703   1.736
 3344SOL     OW22062   5.720   7.626   6.154
 3344SOL    HW122063   5.663   7.657   6.078
 3344SOL    HW222064   5.662   7.602   6.232
 3345SOL     OW22065   6.169   3.986   0.276
 3345SOL    HW122066   6.117   4.006   0.193
 3345SOL    HW222067   6.174   4.068   0.333
 3346SOL     OW22068   6.137   8.346   5.032
 3346SOL    HW122069   6.107   8.305   4.946
 3346SOL    HW222070   6.141   8.446   5.021
 3347SOL     OW22071   4.526   2.225   6.273
 3347SOL    HW122072   4.545   2.312   6.229
 3347SOL    HW222073   4.432   2.196   6.252
 3348SOL     OW22074   7.203   5.807   0.958
 3348SOL    HW122075   7.194   5.862   0.875
 3348SOL    HW222076   7.202   5.867   1.038
 3349SOL     OW22077   3.293   6.589   6.846
 3349SOL    HW122078   3.363   6.518   6.833
 3349SOL    HW222079   3.253   6.580   6.938
 3350SOL     OW22080   7.438   1.802   0.319
 3350SOL    HW122081   7.403   1.827   0.228
 3350SOL    HW222082   7.538   1.792   0.315
 3351SOL     OW22083   0.862   3.008   5.761
 3351SOL    HW122084   0.819   3.009   5.670
 3351SOL    HW222085   0.961   3.017   5.751
 3352SOL     OW22086   4.192   2.793   6.306
 3352SOL    HW122087   4.291   2.784   6.311
 3352SOL    HW222088   4.167   2.838   6.220
 3353SOL     OW22089   5.080   3.989   6.816
 3353SOL    HW122090   5.155   4.053   6.829
 3353SOL    HW222091   4.999   4.038   6.783
 3354SOL     OW22092   2.837   7.871   5.605
 3354SOL    HW122093   2.770   7.892   5.534
 3354SOL    HW222094   2.873   7.779   5.590
 3355SOL     OW22095   8.910   7.713   6.152
 3355SOL    HW122096   8.963   7.788   6.113
 3355SOL    HW222097   8.827   7.749   6.194
 3356SOL     OW22098   6.745   1.946   6.884
 3356SOL    HW122099   6.701   2.030   6.853
 3356SOL    HW222100   6.789   1.901   6.806
 3357SOL     OW22101   2.884   0.630   6.908
 3357SOL    HW122102   2.846   0.694   6.841
 3357SOL    HW222103   2.954   0.677   6.963
 3358SOL     OW22104   8.480   5.835   5.452
 3358SOL    HW122105   8.496   5.750   5.401
 3358SOL    HW222106   8.409   5.888   5.406
 3359SOL     OW22107   6.026   3.213   2.379
 3359SOL    HW122108   6.079   3.167   2.450
 3359SOL    HW222109   5.944   3.160   2.358
 3360SOL     OW22110   9.337   4.260   6.148
 3360SOL    HW122111   9.309   4.272   6.053
 3360SOL    HW222112   9.383   4.172   6.159
 3361SOL     OW22113   6.957   8.286   5.688
 3361SOL    HW122114   7.000   8.198   5.709
 3361SOL    HW222115   6.869   8.292   5.735
 3362SOL     OW22116   3.821   4.857   1.078
 3362SOL    HW122117   3.789   4.833   0.986
 3362SOL    HW222118   3.906   4.806   1.098
 3363SOL     OW22119   6.923   2.610   0.397
 3363SOL    HW122120   6.936   2.684   0.331
 3363SOL    HW222121   6.903   2.525   0.349
 3364SOL     OW22122   6.159   1.499   1.393
 3364SOL    HW122123   6.098   1.543   1.459
 3364SOL    HW222124   6.155   1.548   1.306
 3365SOL     OW22125   5.125   6.616   1.966
 3365SOL    HW122126   5.134   6.592   1.869
 3365SOL    HW222127   5.047   6.567   2.005
 3366SOL     OW22128   3.241   5.612   6.514
 3366SOL    HW122129   3.255   5.599   6.612
 3366SOL    HW222130   3.167   5.551   6.483
 3367SOL     OW22131   0.641   1.734   5.633
 3367SOL    HW122132   0.666   1.816   5.685
 3367SOL    HW222133   0.615   1.760   5.540
 3368SOL     OW22134   1.032   5.553   6.776
 3368SOL    HW122135   1.016   5.616   6.699
 3368SOL    HW222136   0.953   5.555   6.837
 3369SOL     OW22137   7.249   4.653   5.486
 3369SOL    HW122138   7.201   4.708   5.417
 3369SOL    HW222139   7.344   4.639   5.457
 3370SOL     OW22140   2.525   5.088   5.988
 3370SOL    HW122141   2.551   5.181   6.016
 3370SOL    HW222142   2.583   5.022   6.034
 3371SOL     OW22143   0.796   8.346   5.448
 3371SOL    HW122144   0.874   8.390   5.494
 3371SOL    HW222145   0.829   8.295   5.368
 3372SOL     OW22146   9.338   6.354   5.402
 3372SOL    HW122147   9.328   6.330   5.305
 3372SOL    HW222148   9.369   6.449   5.410
 3373SOL     OW22149   0.417   3.466   6.845
 3373SOL    HW122150   0.349   3.449   6.916
 3373SOL    HW222151   0.374   3.511   6.767
 3374SOL     OW22152   3.128   8.199   5.861
 3374SOL    HW122153   3.123   8.148   5.775
 3374SOL    HW222154   3.120   8.135   5.938
 3375SOL     OW22155   6.790   5.950   0.658
 3375SOL    HW122156   6.868   5.897   0.689
 3375SOL    HW222157   6.821   6.028   0.604
 3376SOL     OW22158   3.809   3.686   0.406
 3376SOL    HW122159   3.874   3.690   0.482
 3376SOL    HW222160   3.841   3.745   0.332
 3377SOL     OW22161   4.400   0.117   1.905
 3377SOL    HW122162   4.492   0.084   1.925
 3377SOL    HW222163   4.383   0.201   1.957
 3378SOL     OW22164   3.277   2.310   0.624
 3378SOL    HW122165   3.251   2.405   0.607
 3378SOL    HW222166   3.200   2.251   0.601
 3379SOL     OW22167   9.385   5.049   1.072
 3379SOL    HW122168   9.359   5.140   1.103
 3379SOL    HW222169   9.455   5.012   1.134
 3380SOL     OW22170   7.383   3.254   0.430
 3380SOL    HW122171   7.452   3.195   0.473
 3380SOL    HW222172   7.292   3.215   0.444
 3381SOL     OW22173   1.559   6.343   1.116
 3381SOL    HW122174   1.594   6.309   1.204
 3381SOL    HW222175   1.509   6.270   1.070
 3382SOL     OW22176   4.273   3.993   6.827
 3382SOL    HW122177   4.258   4.075   6.771
 3382SOL    HW222178   4.299   3.917   6.768
 3383SOL     OW22179   3.177   3.390   5.711
 3383SOL    HW122180   3.084   3.354   5.707
 3383SOL    HW222181   3.242   3.318   5.688
 3384SOL     OW22182   5.677   3.360   6.618
 3384SOL    HW122183   5.767   3.316   6.613
 3384SOL    HW222184   5.605   3.291   6.623
 3385SOL     OW22185   4.364   8.261   5.572
 3385SOL    HW122186   4.421   8.327   5.522
 3385SOL    HW222187   4.377   8.170   5.533
 3386SOL     OW22188   2.986   4.500   0.480
 3386SOL    HW122189   3.035   4.490   0.394
 3386SOL    HW222190   2.918   4.428   0.488
 3387SOL     OW22191   8.443   6.998   6.071
 3387SOL    HW122192   8.506   6.935   6.115
 3387SOL    HW222193   8.482   7.028   5.984
 3388SOL     OW22194   0.821   8.001   1.735
 3388SOL    HW122195   0.731   8.001   1.691
 3388SOL    HW222196   0.810   8.009   1.834
 3389SOL     OW22197   7.483   8.398   5.235
 3389SOL    HW122198   7.504   8.321   5.296
 3389SOL    HW222199   7.447   8.363   5.148
 3390SOL     OW22200   1.358   0.249   0.304
 3390SOL    HW122201   1.410   0.190   0.242
 3390SOL    HW222202   1.374   0.220   0.399
 3391SOL     OW22203   2.228   7.099   1.211
 3391SOL    HW122204   2.129   7.101   1.201
 3391SOL    HW222205   2.257   7.007   1.238
 3392SOL     OW22206   4.777   3.199   6.501
 3392SOL    HW122207   4.870   3.227   6.526
 3392SOL    HW222208   4.733   3.272   6.449
 3393SOL     OW22209   4.075   2.662   6.501
 3393SOL    HW122210   3.978   2.638   6.494
 3393SOL    HW222211   4.103   2.714   6.420
 3394SOL     OW22212   3.420   6.783   1.063
 3394SOL    HW122213   3.452   6.845   1.134
 3394SOL    HW222214   3.470   6.800   0.978
 3395SOL     OW22215   5.373   7.945   6.397
 3395SOL    HW122216   5.375   7.995   6.483
 3395SOL    HW222217   5.460   7.897   6.385
 3396SOL     OW22218   2.157   4.505   0.664
 3396SOL    HW122219   2.079   4.502   0.726
 3396SOL    HW222220   2.130   4.470   0.574
 3397SOL     OW22221   7.085   2.353   1.083
 3397SOL    HW122222   7.154   2.373   1.013
 3397SOL    HW222223   7.005   2.312   1.039
 3398SOL     OW22224   4.890   4.424   6.544
 3398SOL    HW122225   4.890   4.350   6.476
 3398SOL    HW222226   4.919   4.509   6.500
 3399SOL     OW22227   7.268   3.178   1.552
 3399SOL    HW122228   7.356   3.155   1.594
 3399SOL    HW222229   7.209   3.222   1.620
 3400SOL     OW22230   0.158   0.243   5.616
 3400SOL    HW122231   0.081   0.194   5.657
 3400SOL    HW222232   0.230   0.256   5.685
 3401SOL     OW22233   3.722   6.612   1.436
 3401SOL    HW122234   3.627   6.641   1.421
 3401SOL    HW222235   3.726   6.546   1.510
 3402SOL     OW22236   1.694   5.210   6.233
 3402SOL    HW122237   1.648   5.154   6.163
 3402SOL    HW222238   1.645   5.201   6.320
 3403SOL     OW22239   2.459   4.477   0.246
 3403SOL    HW122240   2.470   4.477   0.345
 3403SOL    HW222241   2.479   4.568   0.210
 3404SOL     OW22242   4.691   7.320   1.357
 3404SOL    HW122243   4.674   7.234   1.405
 3404SOL    HW222244   4.695   7.395   1.424
 3405SOL     OW22245   6.919   5.486   0.243
 3405SOL    HW122246   6.942   5.583   0.228
 3405SOL    HW222247   7.004   5.432   0.247
 3406SOL     OW22248   0.820   8.269   1.122
 3406SOL    HW122249   0.880   8.212   1.066
 3406SOL    HW222250   0.792   8.349   1.070
 3407SOL     OW22251   4.934   8.278   0.613
 3407SOL    HW122252   5.027   8.251   0.589
 3407SOL    HW222253   4.870   8.239   0.547
 3408SOL     OW22254   2.843   5.387   0.745
 3408SOL    HW122255   2.911   5.402   0.816
 3408SOL    HW222256   2.834   5.289   0.727
 3409SOL     OW22257   6.523   6.840   0.217
 3409SOL    HW122258   6.572   6.892   0.286
 3409SOL    HW222259   6.538   6.881   0.127
 3410SOL     OW22260   8.644   6.452   6.453
 3410SOL    HW122261   8.664   6.370   6.507
 3410SOL    HW222262   8.633   6.530   6.514
 3411SOL     OW22263   8.343   8.233   0.939
 3411SOL    HW122264   8.442   8.246   0.934
 3411SOL    HW222265   8.324   8.139   0.967
 3412SOL     OW22266   7.612   8.408   5.790
 3412SOL    HW122267   7.523   8.398   5.746
 3412SOL    HW222268   7.600   8.442   5.884
 3413SOL     OW22269   0.793   2.983   6.084
 3413SOL    HW122270   0.694   2.976   6.073
 3413SOL    HW222271   0.837   2.983   5.994
 3414SOL     OW22272   8.895   8.200   5.664
 3414SOL    HW122273   8.820   8.202   5.597
 3414SOL    HW222274   8.865   8.153   5.746
 3415SOL     OW22275   2.315   3.506   0.300
 3415SOL    HW122276   2.295   3.408   0.306
 3415SOL    HW222277   2.291   3.539   0.208
 3416SOL     OW22278   5.390   7.626   6.804
 3416SOL    HW122279   5.402   7.623   6.903
 3416SOL    HW222280   5.462   7.682   6.764
 3417SOL     OW22281   5.414  -0.012   2.081
 3417SOL    HW122282   5.435  -0.008   2.178
 3417SOL    HW222283   5.324   0.028   2.064
 3418SOL     OW22284   5.085   1.838   5.447
 3418SOL    HW122285   5.083   1.881   5.537
 3418SOL    HW222286   5.144   1.890   5.386
 3419SOL     OW22287   4.237   0.609   0.763
 3419SOL    HW122288   4.297   0.578   0.689
 3419SOL    HW222289   4.243   0.545   0.840
 3420SOL     OW22290   2.531   4.539   0.510
 3420SOL    HW122291   2.613   4.593   0.495
 3420SOL    HW222292   2.550   4.468   0.578
 3421SOL     OW22293   1.622   0.699   6.254
 3421SOL    HW122294   1.595   0.683   6.159
 3421SOL    HW222295   1.610   0.796   6.276
 3422SOL     OW22296   1.660   2.842   4.834
 3422SOL    HW122297   1.730   2.892   4.782
 3422SOL    HW222298   1.676   2.856   4.932
 3423SOL     OW22299   2.826   4.476   1.268
 3423SOL    HW122300   2.775   4.558   1.293
 3423SOL    HW222301   2.816   4.459   1.170
 3424SOL     OW22302   4.470   7.722   5.547
 3424SOL    HW122303   4.526   7.656   5.596
 3424SOL    HW222304   4.448   7.686   5.456
 3425SOL     OW22305   8.417   7.973   1.315
 3425SOL    HW122306   8.396   7.877   1.295
 3425SOL    HW222307   8.387   7.994   1.408
 3426SOL     OW22308   8.669   6.479   0.578
 3426SOL    HW122309   8.742   6.453   0.640
 3426SOL    HW222310   8.597   6.526   0.630
 3427SOL     OW22311   1.069   6.953   5.631
 3427SOL    HW122312   1.111   7.024   5.687
 3427SOL    HW222313   1.028   6.994   5.549
 3428SOL     OW22314   9.211   2.132   0.265
 3428SOL    HW122315   9.237   2.053   0.321
 3428SOL    HW222316   9.281   2.203   0.273
 3429SOL     OW22317   6.860   4.008   5.323
 3429SOL    HW122318   6.787   4.001   5.254
 3429SOL    HW222319   6.945   3.971   5.284
 3430SOL     OW22320   6.401   7.449   2.003
 3430SOL    HW122321   6.455   7.499   2.070
 3430SOL    HW222322   6.394   7.353   2.031
 3431SOL     OW22323   7.059   5.809   1.548
 3431SOL    HW122324   7.128   5.815   1.476
 3431SOL    HW222325   7.093   5.754   1.624
 3432SOL     OW22326   7.019   6.392   5.784
 3432SOL    HW122327   6.991   6.475   5.736
 3432SOL    HW222328   7.080   6.417   5.860
 3433SOL     OW22329   0.821   0.771   1.380
 3433SOL    HW122330   0.920   0.763   1.373
 3433SOL    HW222331   0.792   0.756   1.475
 3434SOL     OW22332   6.119   6.746   6.115
 3434SOL    HW122333   6.110   6.741   6.015
 3434SOL    HW222334   6.180   6.673   6.146
 3435SOL     OW22335   2.291   5.271   1.383
 3435SOL    HW122336   2.369   5.333   1.373
 3435SOL    HW222337   2.323   5.181   1.412
 3436SOL     OW22338   1.401   2.550   5.793
 3436SOL    HW122339   1.307   2.577   5.815
 3436SOL    HW222340   1.416   2.561   5.695
 3437SOL     OW22341   7.162   7.649   5.574
 3437SOL    HW122342   7.165   7.641   5.474
 3437SOL    HW222343   7.203   7.736   5.601
 3438SOL     OW22344   5.484   6.383   6.449
 3438SOL    HW122345   5.455   6.379   6.353
 3438SOL    HW222346   5.513   6.293   6.479
 3439SOL     OW22347   4.315   0.136   0.990
 3439SOL    HW122348   4.373   0.090   1.058
 3439SOL    HW222349   4.221   0.142   1.025
 3440SOL     OW22350   8.334   7.084   6.306
 3440SOL    HW122351   8.327   7.061   6.209
 3440SOL    HW222352   8.352   7.001   6.359
 3441SOL     OW22353   1.352   7.057   0.359
 3441SOL    HW122354   1.419   7.120   0.398
 3441SOL    HW222355   1.351   6.972   0.411
 3442SOL     OW22356   5.862   2.985   6.468
 3442SOL    HW122357   5.792   2.990   6.397
 3442SOL    HW222358   5.865   2.892   6.506
 3443SOL     OW22359   5.838   5.152   0.524
 3443SOL    HW122360   5.905   5.225   0.535
 3443SOL    HW222361   5.779   5.148   0.605
 3444SOL     OW22362   3.109   0.814   0.823
 3444SOL    HW122363   3.195   0.837   0.778
 3444SOL    HW222364   3.115   0.722   0.861
 3445SOL     OW22365   1.726   1.906   1.117
 3445SOL    HW122366   1.820   1.940   1.112
 3445SOL    HW222367   1.663   1.980   1.096
 3446SOL     OW22368   4.485   5.283   6.297
 3446SOL    HW122369   4.489   5.336   6.382
 3446SOL    HW222370   4.477   5.346   6.219
 3447SOL     OW22371   5.002   1.415   5.199
 3447SOL    HW122372   4.912   1.386   5.230
 3447SOL    HW222373   4.995   1.452   5.106
 3448SOL     OW22374   9.102   0.103   0.381
 3448SOL    HW122375   9.021   0.109   0.322
 3448SOL    HW222376   9.100   0.177   0.448
 3449SOL     OW22377   3.278   3.593   6.797
 3449SOL    HW122378   3.244   3.678   6.757
 3449SOL    HW222379   3.219   3.517   6.767
 3450SOL     OW22380   7.577   3.123   6.351
 3450SOL    HW122381   7.664   3.166   6.324
 3450SOL    HW222382   7.555   3.149   6.445
 3451SOL     OW22383   2.195   1.927   5.876
 3451SOL    HW122384   2.224   2.015   5.914
 3451SOL    HW222385   2.204   1.929   5.776
 3452SOL     OW22386   3.286   3.797   1.542
 3452SOL    HW122387   3.295   3.698   1.552
 3452SOL    HW222388   3.193   3.818   1.509
 3453SOL     OW22389   4.472   1.414   1.502
 3453SOL    HW122390   4.570   1.414   1.519
 3453SOL    HW222391   4.431   1.496   1.542
 3454SOL     OW22392   3.635   4.402   1.765
 3454SOL    HW122393   3.653   4.399   1.864
 3454SOL    HW222394   3.603   4.494   1.740
 3455SOL     OW22395   0.310   5.639   5.316
 3455SOL    HW122396   0.272   5.728   5.342
 3455SOL    HW222397   0.261   5.567   5.365
 3456SOL     OW22398   1.480   0.887   6.860
 3456SOL    HW122399   1.451   0.979   6.832
 3456SOL    HW222400   1.483   0.827   6.780
 3457SOL     OW22401   3.343   6.517   1.584
 3457SOL    HW122402   3.309   6.510   1.678
 3457SOL    HW222403   3.279   6.472   1.522
 3458SOL     OW22404   3.913   1.349   6.056
 3458SOL    HW122405   3.933   1.252   6.043
 3458SOL    HW222406   3.837   1.359   6.120
 3459SOL     OW22407   3.243   5.756   6.274
 3459SOL    HW122408   3.215   5.718   6.362
 3459SOL    HW222409   3.224   5.854   6.271
 3460SOL     OW22410   6.978   4.369   6.766
 3460SOL    HW122411   7.057   4.428   6.751
 3460SOL    HW222412   6.947   4.331   6.679
 3461SOL     OW22413   7.070   4.672   0.948
 3461SOL    HW122414   7.102   4.668   0.854
 3461SOL    HW222415   7.149   4.682   1.009
 3462SOL     OW22416   4.594  -0.002   5.862
 3462SOL    HW122417   4.644   0.008   5.948
 3462SOL    HW222418   4.619   0.074   5.801
 3463SOL     OW22419   2.108   4.545   6.466
 3463SOL    HW122420   2.101   4.456   6.511
 3463SOL    HW222421   2.016   4.576   6.441
 3464SOL     OW22422   4.532   3.224   6.916
 3464SOL    HW122423   4.562   3.151   6.855
 3464SOL    HW222424   4.610   3.281   6.941
 3465SOL     OW22425   6.154   2.301   1.246
 3465SOL    HW122426   6.119   2.305   1.152
 3465SOL    HW222427   6.159   2.205   1.275
 3466SOL     OW22428   7.310   5.761   6.733
 3466SOL    HW122429   7.290   5.696   6.806
 3466SOL    HW222430   7.347   5.846   6.773
 3467SOL     OW22431   4.611   5.954   0.367
 3467SOL    HW122432   4.569   5.982   0.453
 3467SOL    HW222433   4.599   6.027   0.299
 3468SOL     OW22434   2.530   6.144   0.844
 3468SOL    HW122435   2.570   6.095   0.767
 3468SOL    HW222436   2.522   6.083   0.923
 3469SOL     OW22437   1.344   7.382   0.224
 3469SOL    HW122438   1.431   7.381   0.176
 3469SOL    HW222439   1.314   7.288   0.241
 3470SOL     OW22440   6.233   2.480   0.366
 3470SOL    HW122441   6.316   2.441   0.327
 3470SOL    HW222442   6.252   2.572   0.400
 3471SOL     OW22443   3.276   0.774   0.521
 3471SOL    HW122444   3.287   0.682   0.483
 3471SOL    HW222445   3.351   0.792   0.585
 3472SOL     OW22446   4.429   7.383   5.982
 3472SOL    HW122447   4.410   7.398   6.079
 3472SOL    HW222448   4.382   7.452   5.927
 3473SOL     OW22449   5.055   6.341   0.470
 3473SOL    HW122450   5.039   6.243   0.460
 3473SOL    HW222451   5.078   6.361   0.565
 3474SOL     OW22452   7.646   5.798   6.825
 3474SOL    HW122453   7.616   5.789   6.920
 3474SOL    HW222454   7.626   5.889   6.791
 3475SOL     OW22455   8.297   5.410   5.877
 3475SOL    HW122456   8.274   5.486   5.938
 3475SOL    HW222457   8.389   5.424   5.840
 3476SOL     OW22458   1.285   5.174   0.865
 3476SOL    HW122459   1.233   5.093   0.891
 3476SOL    HW222460   1.249   5.254   0.913
 3477SOL     OW22461   3.603   4.707   0.808
 3477SOL    HW122462   3.653   4.629   0.845
 3477SOL    HW222463   3.668   4.773   0.769
 3478SOL     OW22464   3.885   6.626   5.346
 3478SOL    HW122465   3.904   6.554   5.280
 3478SOL    HW222466   3.963   6.638   5.407
 3479SOL     OW22467   1.929   2.143   0.549
 3479SOL    HW122468   2.026   2.155   0.574
 3479SOL    HW222469   1.876   2.219   0.586
 3480SOL     OW22470   2.521   6.584   5.122
 3480SOL    HW122471   2.507   6.505   5.064
 3480SOL    HW222472   2.575   6.652   5.073
 3481SOL     OW22473   7.978   1.290   6.748
 3481SOL    HW122474   7.946   1.253   6.661
 3481SOL    HW222475   8.006   1.215   6.808
 3482SOL     OW22476   5.716   4.037   1.284
 3482SOL    HW122477   5.762   4.017   1.371
 3482SOL    HW222478   5.659   4.119   1.295
 3483SOL     OW22479   2.473   1.844   1.803
 3483SOL    HW122480   2.470   1.855   1.902
 3483SOL    HW222481   2.384   1.867   1.765
 3484SOL     OW22482   4.753   1.657   1.139
 3484SOL    HW122483   4.707   1.569   1.148
 3484SOL    HW222484   4.699   1.718   1.081
 3485SOL     OW22485   5.082   5.237   2.193
 3485SOL    HW122486   5.137   5.215   2.273
 3485SOL    HW222487   5.045   5.153   2.153
 3486SOL     OW22488   0.526   5.604   0.331
 3486SOL    HW122489   0.494   5.618   0.237
 3486SOL    HW222490   0.462   5.544   0.379
 3487SOL     OW22491   3.001   5.708   5.870
 3487SOL    HW122492   2.990   5.627   5.813
 3487SOL    HW222493   3.017   5.681   5.965
 3488SOL     OW22494   3.902   2.442   6.781
 3488SOL    HW122495   3.828   2.391   6.737
 3488SOL    HW222496   3.865   2.493   6.858
 3489SOL     OW22497   1.330   6.767   5.545
 3489SOL    HW122498   1.393   6.745   5.470
 3489SOL    HW222499   1.271   6.843   5.517
 3490SOL     OW22500   5.621   7.949   1.390
 3490SOL    HW122501   5.537   8.005   1.391
 3490SOL    HW222502   5.598   7.855   1.416
 3491SOL     OW22503   1.548   7.402   6.707
 3491SOL    HW122504   1.579   7.368   6.618
 3491SOL    HW222505   1.476   7.470   6.693
 3492SOL     OW22506   1.657   0.551   1.608
 3492SOL    HW122507   1.735   0.533   1.667
 3492SOL    HW222508   1.573   0.551   1.662
 3493SOL     OW22509   7.469   3.989   6.225
 3493SOL    HW122510   7.533   4.066   6.226
 3493SOL    HW222511   7.483   3.935   6.143
 3494SOL     OW22512   5.702   1.271   6.765
 3494SOL    HW122513   5.606   1.277   6.791
 3494SOL    HW222514   5.710   1.265   6.665
 3495SOL     OW22515   5.875   3.188   6.662
 3495SOL    HW122516   5.867   3.119   6.591
 3495SOL    HW222517   5.917   3.149   6.743
 3496SOL     OW22518   4.401   1.583   0.828
 3496SOL    HW122519   4.311   1.568   0.869
 3496SOL    HW222520   4.461   1.506   0.851
 3497SOL     OW22521   6.832   1.913   0.407
 3497SOL    HW122522   6.842   1.816   0.429
 3497SOL    HW222523   6.825   1.924   0.308
 3498SOL     OW22524   7.561   1.350   6.152
 3498SOL    HW122525   7.490   1.284   6.129
 3498SOL    HW222526   7.583   1.344   6.249
 3499SOL     OW22527   9.442   2.726   6.883
 3499SOL    HW122528   9.470   2.685   6.970
 3499SOL    HW222529   9.400   2.657   6.825
 3500SOL     OW22530   8.043   2.552   6.911
 3500SOL    HW122531   8.079   2.598   6.830
 3500SOL    HW222532   8.026   2.620   6.983
 3501SOL     OW22533   0.764   6.802   2.102
 3501SOL    HW122534   0.761   6.799   2.202
 3501SOL    HW222535   0.854   6.770   2.071
 3502SOL     OW22536   5.532   0.169   6.289
 3502SOL    HW122537   5.597   0.173   6.214
 3502SOL    HW222538   5.472   0.090   6.278
 3503SOL     OW22539   3.896   1.640   6.118
 3503SOL    HW122540   3.906   1.566   6.051
 3503SOL    HW222541   3.977   1.644   6.176
 3504SOL     OW22542   0.671   0.137   5.224
 3504SOL    HW122543   0.692   0.060   5.164
 3504SOL    HW222544   0.705   0.221   5.183
 3505SOL     OW22545   5.991   6.976   6.207
 3505SOL    HW122546   6.058   7.018   6.269
 3505SOL    HW222547   6.029   6.894   6.166
 3506SOL     OW22548   5.437   6.571   0.265
 3506SOL    HW122549   5.353   6.624   0.277
 3506SOL    HW222550   5.508   6.604   0.327
 3507SOL     OW22551   5.357   5.813   1.142
 3507SOL    HW122552   5.308   5.863   1.213
 3507SOL    HW222553   5.345   5.858   1.054
 3508SOL     OW22554   8.722   4.489   0.284
 3508SOL    HW122555   8.808   4.535   0.261
 3508SOL    HW222556   8.656   4.506   0.211
 3509SOL     OW22557   4.395   6.734   2.045
 3509SOL    HW122558   4.383   6.818   2.098
 3509SOL    HW222559   4.347   6.742   1.957
 3510SOL     OW22560   2.070   7.813   5.845
 3510SOL    HW122561   2.125   7.734   5.873
 3510SOL    HW222562   2.122   7.897   5.862
 3511SOL     OW22563   2.028   4.143   6.429
 3511SOL    HW122564   2.017   4.119   6.525
 3511SOL    HW222565   1.941   4.131   6.381
 3512SOL     OW22566   4.450   6.160   6.743
 3512SOL    HW122567   4.531   6.189   6.793
 3512SOL    HW222568   4.463   6.066   6.711
 3513SOL     OW22569   6.081   8.111   1.003
 3513SOL    HW122570   6.138   8.136   1.081
 3513SOL    HW222571   6.131   8.048   0.944
 3514SOL     OW22572   3.775   5.663   0.907
 3514SOL    HW122573   3.729   5.742   0.866
 3514SOL    HW222574   3.858   5.642   0.857
 3515SOL     OW22575   6.082   7.663   1.635
 3515SOL    HW122576   6.169   7.701   1.602
 3515SOL    HW222577   6.100   7.604   1.713
 3516SOL     OW22578   3.161   0.016   5.799
 3516SOL    HW122579   3.225  -0.053   5.831
 3516SOL    HW222580   3.128  -0.009   5.708
 3517SOL     OW22581   1.301   4.224   1.064
 3517SOL    HW122582   1.320   4.231   1.162
 3517SOL    HW222583   1.360   4.287   1.014
 3518SOL     OW22584   1.659   1.679   1.243
 3518SOL    HW122585   1.709   1.759   1.208
 3518SOL    HW222586   1.638   1.617   1.168
 3519SOL     OW22587   1.211   1.685   6.250
 3519SOL    HW122588   1.200   1.784   6.243
 3519SOL    HW222589   1.126   1.640   6.224
 3520SOL     OW22590   2.891   1.191   2.604
 3520SOL    HW122591   2.869   1.128   2.529
 3520SOL    HW222592   2.866   1.148   2.691
 3521SOL     OW22593   3.898   3.309   1.556
 3521SOL    HW122594   3.876   3.257   1.473
 3521SOL    HW222595   3.824   3.298   1.623
 3522SOL     OW22596   1.338   5.675   6.603
 3522SOL    HW122597   1.384   5.696   6.517
 3522SOL    HW222598   1.400   5.624   6.663
 3523SOL     OW22599   2.811   3.704   1.012
 3523SOL    HW122600   2.870   3.754   1.075
 3523SOL    HW222601   2.749   3.767   0.966
 3524SOL     OW22602   8.728   6.437   4.665
 3524SOL    HW122603   8.821   6.403   4.678
 3524SOL    HW222604   8.664   6.379   4.715
 3525SOL     OW22605   9.260   7.338   5.308
 3525SOL    HW122606   9.289   7.362   5.216
 3525SOL    HW222607   9.160   7.336   5.312
 3526SOL     OW22608   8.425   3.416   0.768
 3526SOL    HW122609   8.346   3.461   0.810
 3526SOL    HW222610   8.444   3.330   0.816
 3527SOL     OW22611   9.382   5.156   0.642
 3527SOL    HW122612   9.403   5.069   0.596
 3527SOL    HW222613   9.283   5.169   0.644
 3528SOL     OW22614   3.423   6.918   0.481
 3528SOL    HW122615   3.492   6.985   0.507
 3528SOL    HW222616   3.385   6.942   0.392
 3529SOL     OW22617   4.531   1.075   1.712
 3529SOL    HW122618   4.528   1.040   1.806
 3529SOL    HW222619   4.582   1.161   1.711
 3530SOL     OW22620   4.000   8.324   6.610
 3530SOL    HW122621   4.073   8.332   6.678
 3530SOL    HW222622   3.992   8.228   6.581
 3531SOL     OW22623   4.974   0.508   6.787
 3531SOL    HW122624   4.965   0.413   6.759
 3531SOL    HW222625   4.911   0.526   6.863
 3532SOL     OW22626   7.301   8.338   6.174
 3532SOL    HW122627   7.249   8.319   6.091
 3532SOL    HW222628   7.330   8.252   6.216
 3533SOL     OW22629   6.710   4.233   1.686
 3533SOL    HW122630   6.651   4.191   1.754
 3533SOL    HW222631   6.691   4.332   1.682
 3534SOL     OW22632   7.141   6.182   0.606
 3534SOL    HW122633   7.232   6.151   0.579
 3534SOL    HW222634   7.121   6.150   0.698
 3535SOL     OW22635   0.822   7.105   5.482
 3535SOL    HW122636   0.796   7.142   5.571
 3535SOL    HW222637   0.743   7.062   5.439
 3536SOL     OW22638   6.733   2.106   0.578
 3536SOL    HW122639   6.803   2.052   0.532
 3536SOL    HW222640   6.724   2.073   0.673
 3537SOL     OW22641   7.720   6.457   0.689
 3537SOL    HW122642   7.782   6.522   0.733
 3537SOL    HW222643   7.673   6.403   0.759
 3538SOL     OW22644   2.969   6.476   5.842
 3538SOL    HW122645   2.887   6.420   5.855
 3538SOL    HW222646   2.956   6.565   5.885
 3539SOL     OW22647   7.099   4.849   5.343
 3539SOL    HW122648   7.155   4.832   5.261
 3539SOL    HW222649   7.014   4.894   5.315
 3540SOL     OW22650   6.731   3.973   5.579
 3540SOL    HW122651   6.783   3.994   5.496
 3540SOL    HW222652   6.669   4.048   5.600
 3541SOL     OW22653   7.156   3.012   6.372
 3541SOL    HW122654   7.188   3.096   6.417
 3541SOL    HW222655   7.231   2.946   6.367
 3542SOL     OW22656   6.161   7.731   5.474
 3542SOL    HW122657   6.227   7.805   5.485
 3542SOL    HW222658   6.110   7.745   5.389
 3543SOL     OW22659   6.428   3.304   6.219
 3543SOL    HW122660   6.477   3.242   6.157
 3543SOL    HW222661   6.475   3.392   6.223
 3544SOL     OW22662   5.103   0.305   4.825
 3544SOL    HW122663   5.075   0.218   4.867
 3544SOL    HW222664   5.154   0.287   4.741
 3545SOL     OW22665   1.336   4.473   0.355
 3545SOL    HW122666   1.299   4.471   0.262
 3545SOL    HW222667   1.435   4.460   0.351
 3546SOL     OW22668   9.139   4.989   6.703
 3546SOL    HW122669   9.088   5.041   6.771
 3546SOL    HW222670   9.224   5.038   6.681
 3547SOL     OW22671   8.062   3.735   1.825
 3547SOL    HW122672   8.040   3.698   1.915
 3547SOL    HW222673   7.981   3.729   1.766
 3548SOL     OW22674   3.922   8.309   6.124
 3548SOL    HW122675   3.957   8.391   6.078
 3548SOL    HW222676   3.929   8.231   6.061
 3549SOL     OW22677   0.653   5.959   5.776
 3549SOL    HW122678   0.612   6.019   5.707
 3549SOL    HW222679   0.586   5.940   5.848
 3550SOL     OW22680   1.316   2.602   6.265
 3550SOL    HW122681   1.320   2.680   6.328
 3550SOL    HW222682   1.254   2.623   6.190
 3551SOL     OW22683   7.747   0.347   5.250
 3551SOL    HW122684   7.754   0.411   5.173
 3551SOL    HW222685   7.738   0.399   5.335
 3552SOL     OW22686   8.241   1.420   0.522
 3552SOL    HW122687   8.303   1.483   0.476
 3552SOL    HW222688   8.172   1.387   0.458
 3553SOL     OW22689   8.117   4.460   1.284
 3553SOL    HW122690   8.172   4.413   1.215
 3553SOL    HW222691   8.079   4.393   1.348
 3554SOL     OW22692   1.126   7.319   4.440
 3554SOL    HW122693   1.194   7.322   4.513
 3554SOL    HW222694   1.149   7.389   4.372
 3555SOL     OW22695   6.897   8.164   6.678
 3555SOL    HW122696   6.963   8.105   6.632
 3555SOL    HW222697   6.835   8.109   6.734
 3556SOL     OW22698   6.487   6.638   1.256
 3556SOL    HW122699   6.441   6.654   1.168
 3556SOL    HW222700   6.542   6.717   1.280
 3557SOL     OW22701   1.683   2.068   0.760
 3557SOL    HW122702   1.724   2.105   0.677
 3557SOL    HW222703   1.589   2.039   0.740
 3558SOL     OW22704   6.196   4.065   6.008
 3558SOL    HW122705   6.273   4.032   5.954
 3558SOL    HW222706   6.113   4.017   5.979
 3559SOL     OW22707   2.049   5.024   0.454
 3559SOL    HW122708   2.077   4.934   0.418
 3559SOL    HW222709   2.114   5.052   0.525
 3560SOL     OW22710   6.395   0.332   6.913
 3560SOL    HW122711   6.423   0.310   7.007
 3560SOL    HW222712   6.300   0.303   6.899
 3561SOL     OW22713   7.130   7.582   5.844
 3561SOL    HW122714   7.138   7.627   5.755
 3561SOL    HW222715   7.034   7.556   5.859
 3562SOL     OW22716   2.389   6.742   0.320
 3562SOL    HW122717   2.322   6.756   0.393
 3562SOL    HW222718   2.345   6.752   0.231
 3563SOL     OW22719   8.454   8.321   1.198
 3563SOL    HW122720   8.413   8.274   1.119
 3563SOL    HW222721   8.395   8.309   1.278
 3564SOL     OW22722   8.900   0.945   5.274
 3564SOL    HW122723   8.942   0.951   5.184
 3564SOL    HW222724   8.800   0.949   5.264
 3565SOL     OW22725   6.810   7.047   0.660
 3565SOL    HW122726   6.891   7.055   0.602
 3565SOL    HW222727   6.790   7.135   0.702
 3566SOL     OW22728   9.575   8.368   5.471
 3566SOL    HW122729   9.515   8.336   5.398
 3566SOL    HW222730   9.528   8.438   5.525
 3567SOL     OW22731   8.514   2.731   0.221
 3567SOL    HW122732   8.548   2.638   0.207
 3567SOL    HW222733   8.572   2.778   0.287
 3568SOL     OW22734   4.529   6.686   1.277
 3568SOL    HW122735   4.623   6.687   1.310
 3568SOL    HW222736   4.488   6.596   1.293
 3569SOL     OW22737   4.791   7.207   5.218
 3569SOL    HW122738   4.861   7.172   5.280
 3569SOL    HW222739   4.820   7.294   5.180
 3570SOL     OW22740   8.525   7.664   1.034
 3570SOL    HW122741   8.456   7.708   1.092
 3570SOL    HW222742   8.489   7.652   0.942
 3571SOL     OW22743   2.836   7.728   6.188
 3571SOL    HW122744   2.822   7.762   6.282
 3571SOL    HW222745   2.869   7.633   6.192
 3572SOL     OW22746   6.915   7.601   0.367
 3572SOL    HW122747   6.879   7.509   0.384
 3572SOL    HW222748   6.864   7.668   0.422
 3573SOL     OW22749   5.790   2.481   6.684
 3573SOL    HW122750   5.861   2.543   6.719
 3573SOL    HW222751   5.833   2.402   6.640
 3574SOL     OW22752   6.641   4.482   1.704
 3574SOL    HW122753   6.697   4.532   1.770
 3574SOL    HW222754   6.545   4.502   1.721
 3575SOL     OW22755   0.999   4.705   6.846
 3575SOL    HW122756   1.080   4.763   6.856
 3575SOL    HW222757   0.969   4.706   6.751
 3576SOL     OW22758   7.850   6.613   6.448
 3576SOL    HW122759   7.781   6.673   6.407
 3576SOL    HW222760   7.929   6.606   6.386
 3577SOL     OW22761   6.641   4.257   1.192
 3577SOL    HW122762   6.564   4.290   1.246
 3577SOL    HW222763   6.621   4.270   1.094
 3578SOL     OW22764   7.012   1.840   0.787
 3578SOL    HW122765   6.937   1.774   0.796
 3578SOL    HW222766   7.049   1.835   0.694
 3579SOL     OW22767   8.275   6.250   1.176
 3579SOL    HW122768   8.370   6.253   1.207
 3579SOL    HW222769   8.233   6.165   1.206
 3580SOL     OW22770   9.137   2.278   6.771
 3580SOL    HW122771   9.148   2.232   6.859
 3580SOL    HW222772   9.100   2.370   6.786
 3581SOL     OW22773   3.054   8.040   5.632
 3581SOL    HW122774   3.131   7.991   5.591
 3581SOL    HW222775   2.972   7.981   5.630
 3582SOL     OW22776   5.948   8.379   1.632
 3582SOL    HW122777   6.005   8.305   1.597
 3582SOL    HW222778   5.969   8.393   1.729
 3583SOL     OW22779   7.401   6.007   6.827
 3583SOL    HW122780   7.380   6.065   6.906
 3583SOL    HW222781   7.417   6.065   6.747
 3584SOL     OW22782   7.029   1.226   1.457
 3584SOL    HW122783   7.087   1.195   1.532
 3584SOL    HW222784   6.993   1.317   1.478
 3585SOL     OW22785   6.914   0.068   1.193
 3585SOL    HW122786   7.011   0.085   1.212
 3585SOL    HW222787   6.898  -0.030   1.182
 3586SOL     OW22788   0.876   0.764   6.467
 3586SOL    HW122789   0.876   0.748   6.369
 3586SOL    HW222790   0.949   0.829   6.490
 3587SOL     OW22791   4.783   4.315   5.958
 3587SOL    HW122792   4.717   4.390   5.952
 3587SOL    HW222793   4.744   4.240   6.011
 3588SOL     OW22794   3.321   7.904   1.038
 3588SOL    HW122795   3.241   7.852   1.070
 3588SOL    HW222796   3.290   7.984   0.987
 3589SOL     OW22797   4.767   0.480   0.228
 3589SOL    HW122798   4.796   0.422   0.304
 3589SOL    HW222799   4.718   0.560   0.263
 3590SOL     OW22800   1.522   4.289   1.487
 3590SOL    HW122801   1.545   4.384   1.508
 3590SOL    HW222802   1.602   4.231   1.505
 3591SOL     OW22803   6.818   5.522   6.634
 3591SOL    HW122804   6.736   5.572   6.603
 3591SOL    HW222805   6.894   5.586   6.644
 3592SOL     OW22806   3.668   0.498   1.265
 3592SOL    HW122807   3.585   0.524   1.216
 3592SOL    HW222808   3.737   0.468   1.199
 3593SOL     OW22809   1.535   6.936   6.063
 3593SOL    HW122810   1.484   6.885   5.994
 3593SOL    HW222811   1.480   6.943   6.146
 3594SOL     OW22812   4.724   0.081   6.873
 3594SOL    HW122813   4.652   0.150   6.883
 3594SOL    HW222814   4.685  -0.004   6.839
 3595SOL     OW22815   4.562   0.329   6.852
 3595SOL    HW122816   4.633   0.393   6.882
 3595SOL    HW222817   4.577   0.306   6.755
 3596SOL     OW22818   6.231   8.263   5.285
 3596SOL    HW122819   6.239   8.166   5.260
 3596SOL    HW222820   6.196   8.314   5.206
 3597SOL     OW22821   2.502   2.690   6.005
 3597SOL    HW122822   2.527   2.770   5.951
 3597SOL    HW222823   2.466   2.720   6.094
 3598SOL     OW22824   4.493   6.229   1.932
 3598SOL    HW122825   4.504   6.132   1.912
 3598SOL    HW222826   4.466   6.241   2.028
 3599SOL     OW22827   8.847   1.977   6.118
 3599SOL    HW122828   8.814   1.888   6.089
 3599SOL    HW222829   8.858   1.979   6.218
 3600SOL     OW22830   6.282   0.595   1.401
 3600SOL    HW122831   6.378   0.581   1.377
 3600SOL    HW222832   6.276   0.618   1.498
 3601SOL     OW22833   5.120   3.199   5.974
 3601SOL    HW122834   5.050   3.222   5.906
 3601SOL    HW222835   5.183   3.275   5.985
 3602SOL     OW22836   5.545   6.280   0.811
 3602SOL    HW122837   5.581   6.280   0.718
 3602SOL    HW222838   5.488   6.199   0.825
 3603SOL     OW22839   0.831   3.294   6.709
 3603SOL    HW122840   0.861   3.304   6.804
 3603SOL    HW222841   0.734   3.273   6.706
 3604SOL     OW22842   0.496   2.498   0.965
 3604SOL    HW122843   0.591   2.468   0.966
 3604SOL    HW222844   0.492   2.598   0.958
 3605SOL     OW22845   9.231   0.876   5.836
 3605SOL    HW122846   9.257   0.861   5.931
 3605SOL    HW222847   9.185   0.794   5.801
 3606SOL     OW22848   3.286   5.610   0.425
 3606SOL    HW122849   3.306   5.707   0.436
 3606SOL    HW222850   3.238   5.596   0.338
 3607SOL     OW22851   6.208   6.913   6.612
 3607SOL    HW122852   6.146   6.839   6.584
 3607SOL    HW222853   6.223   6.908   6.710
 3608SOL     OW22854   0.801   3.550   0.924
 3608SOL    HW122855   0.775   3.520   1.016
 3608SOL    HW222856   0.835   3.472   0.872
 3609SOL     OW22857   1.998   7.232   0.845
 3609SOL    HW122858   1.913   7.180   0.836
 3609SOL    HW222859   1.980   7.318   0.892
 3610SOL     OW22860   3.748   5.387   6.425
 3610SOL    HW122861   3.667   5.445   6.437
 3610SOL    HW222862   3.724   5.308   6.368
 3611SOL     OW22863   2.438   0.264   5.509
 3611SOL    HW122864   2.382   0.251   5.427
 3611SOL    HW222865   2.524   0.308   5.483
 3612SOL     OW22866   2.086   7.935   6.207
 3612SOL    HW122867   2.160   7.991   6.242
 3612SOL    HW222868   1.998   7.979   6.228
 3613SOL     OW22869   8.412   3.411   0.238
 3613SOL    HW122870   8.411   3.479   0.165
 3613SOL    HW222871   8.406   3.320   0.198
 3614SOL     OW22872   1.571   2.691   6.016
 3614SOL    HW122873   1.593   2.789   6.020
 3614SOL    HW222874   1.499   2.676   5.948
 3615SOL     OW22875   4.109   2.349   1.190
 3615SOL    HW122876   4.011   2.370   1.190
 3615SOL    HW222877   4.148   2.372   1.280
 3616SOL     OW22878   2.138   1.360   1.892
 3616SOL    HW122879   2.196   1.402   1.822
 3616SOL    HW222880   2.123   1.425   1.967
 3617SOL     OW22881   6.116   0.004   6.662
 3617SOL    HW122882   6.214   0.011   6.641
 3617SOL    HW222883   6.075   0.095   6.658
 3618SOL     OW22884   5.678   6.205   5.678
 3618SOL    HW122885   5.769   6.235   5.650
 3618SOL    HW222886   5.651   6.127   5.622
 3619SOL     OW22887   4.950   0.897   6.854
 3619SOL    HW122888   4.978   0.898   6.758
 3619SOL    HW222889   5.005   0.830   6.904
 3620SOL     OW22890   1.190   0.358   5.117
 3620SOL    HW122891   1.116   0.392   5.059
 3620SOL    HW222892   1.266   0.328   5.060
 3621SOL     OW22893   9.421   0.795   5.617
 3621SOL    HW122894   9.361   0.843   5.681
 3621SOL    HW222895   9.516   0.809   5.644
 3622SOL     OW22896   2.591   0.322   0.422
 3622SOL    HW122897   2.599   0.421   0.410
 3622SOL    HW222898   2.536   0.303   0.504
 3623SOL     OW22899   2.205   4.284   6.600
 3623SOL    HW122900   2.253   4.302   6.514
 3623SOL    HW222901   2.114   4.248   6.579
 3624SOL     OW22902   8.032   6.398   0.309
 3624SOL    HW122903   8.106   6.458   0.277
 3624SOL    HW222904   8.060   6.303   0.297
 3625SOL     OW22905   3.356   6.474   1.259
 3625SOL    HW122906   3.271   6.467   1.312
 3625SOL    HW222907   3.429   6.425   1.306
 3626SOL     OW22908   2.081   3.418   1.500
 3626SOL    HW122909   2.101   3.380   1.591
 3626SOL    HW222910   2.016   3.359   1.453
 3627SOL     OW22911   2.935   3.814   5.411
 3627SOL    HW122912   2.895   3.726   5.386
 3627SOL    HW222913   3.015   3.798   5.469
 3628SOL     OW22914   3.007   1.168   1.706
 3628SOL    HW122915   3.044   1.184   1.615
 3628SOL    HW222916   3.063   1.100   1.754
 3629SOL     OW22917   0.646   1.611   6.150
 3629SOL    HW122918   0.693   1.662   6.222
 3629SOL    HW222919   0.579   1.671   6.105
 3630SOL     OW22920   3.983   2.043   0.388
 3630SOL    HW122921   3.969   1.999   0.477
 3630SOL    HW222922   3.915   2.115   0.376
 3631SOL     OW22923   5.865   6.540   6.820
 3631SOL    HW122924   5.791   6.533   6.753
 3631SOL    HW222925   5.841   6.488   6.901
 3632SOL     OW22926   0.426   0.653   1.329
 3632SOL    HW122927   0.427   0.733   1.389
 3632SOL    HW222928   0.352   0.592   1.357
 3633SOL     OW22929   4.038   3.163   0.793
 3633SOL    HW122930   4.125   3.198   0.757
 3633SOL    HW222931   3.973   3.238   0.800
 3634SOL     OW22932   6.497   4.930   0.692
 3634SOL    HW122933   6.459   5.019   0.668
 3634SOL    HW222934   6.425   4.860   0.688
 3635SOL     OW22935   7.335   5.714   1.632
 3635SOL    HW122936   7.282   5.640   1.673
 3635SOL    HW222937   7.313   5.721   1.534
 3636SOL     OW22938   8.562   8.314   5.469
 3636SOL    HW122939   8.637   8.249   5.453
 3636SOL    HW222940   8.577   8.396   5.415
 3637SOL     OW22941   2.917   2.105   6.731
 3637SOL    HW122942   2.859   2.163   6.787
 3637SOL    HW222943   2.891   2.009   6.745
 3638SOL     OW22944   7.227   8.391   6.571
 3638SOL    HW122945   7.231   8.368   6.668
 3638SOL    HW222946   7.299   8.458   6.550
 3639SOL     OW22947   0.581   8.001   0.395
 3639SOL    HW122948   0.504   7.942   0.421
 3639SOL    HW222949   0.574   8.024   0.298
 3640SOL     OW22950   3.462   6.118   0.750
 3640SOL    HW122951   3.542   6.136   0.693
 3640SOL    HW222952   3.386   6.088   0.693
 3641SOL     OW22953   3.906   0.931   0.928
 3641SOL    HW122954   3.844   0.860   0.962
 3641SOL    HW222955   3.991   0.889   0.898
 3642SOL     OW22956   8.945   0.042   6.609
 3642SOL    HW122957   8.885  -0.033   6.636
 3642SOL    HW222958   8.934   0.060   6.512
 3643SOL     OW22959   6.549   4.760   5.953
 3643SOL    HW122960   6.571   4.857   5.947
 3643SOL    HW222961   6.597   4.710   5.881
 3644SOL     OW22962   3.888   3.283   1.136
 3644SOL    HW122963   3.847   3.214   1.194
 3644SOL    HW222964   3.818   3.324   1.077
 3645SOL     OW22965   1.480   2.299   0.831
 3645SOL    HW122966   1.541   2.333   0.903
 3645SOL    HW222967   1.473   2.199   0.837
 3646SOL     OW22968   9.482   1.478   5.862
 3646SOL    HW122969   9.531   1.474   5.775
 3646SOL    HW222970   9.463   1.385   5.893
 3647SOL     OW22971   0.505   3.843   0.215
 3647SOL    HW122972   0.567   3.795   0.153
 3647SOL    HW222973   0.506   3.798   0.304
 3648SOL     OW22974   5.079   5.157   0.617
 3648SOL    HW122975   5.027   5.225   0.669
 3648SOL    HW222976   5.036   5.067   0.628
 3649SOL     OW22977   2.372   2.759   6.247
 3649SOL    HW122978   2.391   2.842   6.300
 3649SOL    HW222979   2.383   2.679   6.305
 3650SOL     OW22980   4.669   5.759   1.144
 3650SOL    HW122981   4.621   5.847   1.134
 3650SOL    HW222982   4.671   5.734   1.241
 3651SOL     OW22983   3.150   0.363   2.081
 3651SOL    HW122984   3.145   0.425   2.159
 3651SOL    HW222985   3.071   0.377   2.022
 3652SOL     OW22986   5.805   1.292   6.168
 3652SOL    HW122987   5.800   1.219   6.236
 3652SOL    HW222988   5.850   1.259   6.085
 3653SOL     OW22989   7.822   0.905   0.919
 3653SOL    HW122990   7.847   0.857   1.003
 3653SOL    HW222991   7.731   0.946   0.930
 3654SOL     OW22992   5.243  -0.057   0.235
 3654SOL    HW122993   5.339  -0.075   0.258
 3654SOL    HW222994   5.233  -0.054   0.135
 3655SOL     OW22995   5.962   8.375   6.150
 3655SOL    HW122996   6.029   8.437   6.191
 3655SOL    HW222997   5.883   8.367   6.210
 3656SOL     OW22998   5.056   8.291   2.199
 3656SOL    HW122999   4.983   8.293   2.267
 3656SOL    HW223000   5.132   8.234   2.232
 3657SOL     OW23001   8.076   7.677   5.933
 3657SOL    HW123002   8.111   7.621   5.858
 3657SOL    HW223003   8.149   7.694   5.999
 3658SOL     OW23004   1.731   6.317   5.726
 3658SOL    HW123005   1.688   6.408   5.729
 3658SOL    HW223006   1.662   6.248   5.705
 3659SOL     OW23007   6.887   2.926   5.823
 3659SOL    HW123008   6.907   2.865   5.746
 3659SOL    HW223009   6.895   3.021   5.794
 3660SOL     OW23010   1.418   6.846   5.782
 3660SOL    HW123011   1.421   6.945   5.765
 3660SOL    HW223012   1.388   6.799   5.699
 3661SOL     OW23013   4.902   0.293   5.194
 3661SOL    HW123014   4.973   0.225   5.176
 3661SOL    HW223015   4.893   0.354   5.115
 3662SOL     OW23016   6.644   1.061   1.668
 3662SOL    HW123017   6.579   1.001   1.621
 3662SOL    HW223018   6.714   1.091   1.603
 3663SOL     OW23019   0.765   4.152   5.374
 3663SOL    HW123020   0.741   4.059   5.345
 3663SOL    HW223021   0.824   4.195   5.305
 3664SOL     OW23022   7.211   6.737   5.919
 3664SOL    HW123023   7.279   6.805   5.947
 3664SOL    HW223024   7.168   6.766   5.834
 3665SOL     OW23025   3.679   1.433   1.687
 3665SOL    HW123026   3.681   1.415   1.786
 3665SOL    HW223027   3.719   1.523   1.670
 3666SOL     OW23028   8.199   6.587   0.226
 3666SOL    HW123029   8.262   6.587   0.148
 3666SOL    HW223030   8.120   6.644   0.206
 3667SOL     OW23031   2.063   1.950   6.229
 3667SOL    HW123032   1.993   1.882   6.252
 3667SOL    HW223033   2.093   1.997   6.312
 3668SOL     OW23034   3.952   6.710   6.775
 3668SOL    HW123035   3.856   6.704   6.800
 3668SOL    HW223036   4.004   6.640   6.824
 3669SOL     OW23037   6.564   5.178   1.030
 3669SOL    HW123038   6.525   5.264   0.997
 3669SOL    HW223039   6.541   5.166   1.126
 3670SOL     OW23040   3.840   3.185   6.473
 3670SOL    HW123041   3.923   3.136   6.495
 3670SOL    HW223042   3.819   3.174   6.376
 3671SOL     OW23043   3.799   7.574   5.396
 3671SOL    HW123044   3.714   7.523   5.383
 3671SOL    HW223045   3.876   7.521   5.361
 3672SOL     OW23046   3.584   5.817   5.614
 3672SOL    HW123047   3.654   5.888   5.620
 3672SOL    HW223048   3.529   5.831   5.531
 3673SOL     OW23049   8.247   1.301   6.184
 3673SOL    HW123050   8.343   1.296   6.209
 3673SOL    HW223051   8.205   1.210   6.194
 3674SOL     OW23052   2.393   7.889   6.844
 3674SOL    HW123053   2.327   7.912   6.772
 3674SOL    HW223054   2.401   7.966   6.907
 3675SOL     OW23055   3.105   8.114   1.771
 3675SOL    HW123056   3.151   8.136   1.857
 3675SOL    HW223057   3.057   8.195   1.737
 3676SOL     OW23058   2.880   8.430   1.343
 3676SOL    HW123059   2.848   8.524   1.333
 3676SOL    HW223060   2.928   8.421   1.431
 3677SOL     OW23061   3.221   3.844   6.698
 3677SOL    HW123062   3.162   3.921   6.722
 3677SOL    HW223063   3.209   3.822   6.601
 3678SOL     OW23064   2.011   3.639   6.913
 3678SOL    HW123065   1.938   3.614   6.850
 3678SOL    HW223066   1.976   3.702   6.982
 3679SOL     OW23067   6.475   0.444   6.689
 3679SOL    HW123068   6.454   0.393   6.773
 3679SOL    HW223069   6.508   0.380   6.619
 3680SOL     OW23070   5.580   5.026   6.091
 3680SOL    HW123071   5.565   5.052   5.996
 3680SOL    HW223072   5.638   4.945   6.095
 3681SOL     OW23073   1.267   4.398   6.836
 3681SOL    HW123074   1.170   4.423   6.836
 3681SOL    HW223075   1.276   4.299   6.845
 3682SOL     OW23076   8.790   1.374   0.358
 3682SOL    HW123077   8.862   1.443   0.369
 3682SOL    HW223078   8.704   1.409   0.395
 3683SOL     OW23079   5.810   6.078   6.087
 3683SOL    HW123080   5.731   6.107   6.032
 3683SOL    HW223081   5.781   6.007   6.151
 3684SOL     OW23082   1.058   1.554   0.947
 3684SOL    HW123083   1.089   1.463   0.977
 3684SOL    HW223084   1.008   1.545   0.861
 3685SOL     OW23085   9.017   1.088   5.956
 3685SOL    HW123086   9.021   1.183   5.987
 3685SOL    HW223087   9.109   1.049   5.957
 3686SOL     OW23088   9.318   1.945   0.850
 3686SOL    HW123089   9.343   2.033   0.889
 3686SOL    HW223090   9.263   1.894   0.916
 3687SOL     OW23091   7.900   3.546   0.269
 3687SOL    HW123092   7.968   3.618   0.279
 3687SOL    HW223093   7.828   3.558   0.337
 3688SOL     OW23094   2.304   0.425   6.096
 3688SOL    HW123095   2.299   0.499   6.030
 3688SOL    HW223096   2.257   0.451   6.181
 3689SOL     OW23097   1.163   7.780   6.921
 3689SOL    HW123098   1.214   7.703   6.883
 3689SOL    HW223099   1.159   7.771   7.020
 3690SOL     OW23100   8.837   6.935   1.060
 3690SOL    HW123101   8.849   6.979   1.150
 3690SOL    HW223102   8.756   6.974   1.016
 3691SOL     OW23103   1.793   8.100   6.524
 3691SOL    HW123104   1.824   8.177   6.580
 3691SOL    HW223105   1.807   8.015   6.576
 3692SOL     OW23106   1.537   7.215   6.053
 3692SOL    HW123107   1.550   7.116   6.059
 3692SOL    HW223108   1.506   7.239   5.961
 3693SOL     OW23109   1.781   1.428   1.546
 3693SOL    HW123110   1.683   1.414   1.558
 3693SOL    HW223111   1.826   1.426   1.636
 3694SOL     OW23112   6.707   4.707   0.300
 3694SOL    HW123113   6.770   4.679   0.227
 3694SOL    HW223114   6.730   4.800   0.330
 3695SOL     OW23115   6.560   2.143   6.033
 3695SOL    HW123116   6.530   2.106   5.945
 3695SOL    HW223117   6.572   2.242   6.025
 3696SOL     OW23118   7.584   3.195   0.255
 3696SOL    HW123119   7.506   3.231   0.307
 3696SOL    HW223120   7.552   3.158   0.168
 3697SOL     OW23121   8.727   3.344   6.885
 3697SOL    HW123122   8.668   3.356   6.805
 3697SOL    HW223123   8.823   3.347   6.856
 3698SOL     OW23124   1.392   6.549   0.765
 3698SOL    HW123125   1.473   6.490   0.770
 3698SOL    HW223126   1.413   6.629   0.708
 3699SOL     OW23127   7.374   4.967   5.164
 3699SOL    HW123128   7.325   4.880   5.155
 3699SOL    HW223129   7.471   4.953   5.141
 3700SOL     OW23130   1.285   5.770   4.750
 3700SOL    HW123131   1.351   5.793   4.678
 3700SOL    HW223132   1.260   5.674   4.741
 3701SOL     OW23133   2.858   6.069   6.646
 3701SOL    HW123134   2.785   6.016   6.689
 3701SOL    HW223135   2.818   6.147   6.598
 3702SOL     OW23136   8.968   6.316   6.644
 3702SOL    HW123137   8.913   6.256   6.702
 3702SOL    HW223138   8.946   6.412   6.665
 3703SOL     OW23139   4.971   7.141   5.449
 3703SOL    HW123140   4.944   7.045   5.458
 3703SOL    HW223141   5.071   7.146   5.439
 3704SOL     OW23142   0.153   3.989   6.051
 3704SOL    HW123143   0.219   3.916   6.067
 3704SOL    HW223144   0.174   4.066   6.111
 3705SOL     OW23145   9.127   6.248   5.551
 3705SOL    HW123146   9.120   6.300   5.635
 3705SOL    HW223147   9.213   6.271   5.505
 3706SOL     OW23148   7.978   6.730   6.896
 3706SOL    HW123149   7.938   6.765   6.980
 3706SOL    HW223150   7.910   6.676   6.847
 3707SOL     OW23151   7.819   7.170   0.422
 3707SOL    HW123152   7.820   7.158   0.323
 3707SOL    HW223153   7.911   7.193   0.453
 3708SOL     OW23154   7.748   2.317   1.924
 3708SOL    HW123155   7.708   2.249   1.985
 3708SOL    HW223156   7.720   2.409   1.952
 3709SOL     OW23157   1.255   7.539   6.747
 3709SOL    HW123158   1.170   7.528   6.696
 3709SOL    HW223159   1.250   7.485   6.831
 3710SOL     OW23160   7.835   5.602   6.064
 3710SOL    HW123161   7.754   5.638   6.109
 3710SOL    HW223162   7.860   5.662   5.988
 3711SOL     OW23163   7.843   7.151   6.879
 3711SOL    HW123164   7.781   7.085   6.836
 3711SOL    HW223165   7.937   7.134   6.848
 3712SOL     OW23166   2.230   5.917   0.415
 3712SOL    HW123167   2.131   5.906   0.428
 3712SOL    HW223168   2.266   5.838   0.365
 3713SOL     OW23169   5.503   2.841   1.458
 3713SOL    HW123170   5.527   2.923   1.509
 3713SOL    HW223171   5.429   2.862   1.393
 3714SOL     OW23172   0.555   8.162   1.105
 3714SOL    HW123173   0.497   8.138   1.183
 3714SOL    HW223174   0.640   8.203   1.138
 3715SOL     OW23175   0.903   7.596   0.546
 3715SOL    HW123176   0.983   7.610   0.604
 3715SOL    HW223177   0.925   7.530   0.474
 3716SOL     OW23178   2.449   7.186   0.372
 3716SOL    HW123179   2.524   7.249   0.354
 3716SOL    HW223180   2.484   7.092   0.373
 3717SOL     OW23181   3.404   1.543   6.684
 3717SOL    HW123182   3.387   1.620   6.745
 3717SOL    HW223183   3.495   1.505   6.703
 3718SOL     OW23184   3.236   5.606   0.686
 3718SOL    HW123185   3.248   5.527   0.746
 3718SOL    HW223186   3.271   5.584   0.595
 3719SOL     OW23187   3.988   2.744   0.624
 3719SOL    HW123188   4.010   2.790   0.538
 3719SOL    HW223189   3.900   2.698   0.615
 3720SOL     OW23190   7.914   4.194   6.102
 3720SOL    HW123191   7.951   4.109   6.140
 3720SOL    HW223192   7.960   4.272   6.144
 3721SOL     OW23193   4.316   2.405   5.891
 3721SOL    HW123194   4.251   2.460   5.943
 3721SOL    HW223195   4.291   2.406   5.794
 3722SOL     OW23196   2.905   5.422   0.479
 3722SOL    HW123197   2.882   5.411   0.575
 3722SOL    HW223198   2.946   5.512   0.465
 3723SOL     OW23199   8.342   0.304   0.420
 3723SOL    HW123200   8.265   0.338   0.365
 3723SOL    HW223201   8.307   0.250   0.496
 3724SOL     OW23202   3.138   7.198   1.012
 3724SOL    HW123203   3.101   7.223   1.102
 3724SOL    HW223204   3.102   7.109   0.984
 3725SOL     OW23205   3.063   3.739   1.165
 3725SOL    HW123206   3.035   3.809   1.230
 3725SOL    HW223207   3.134   3.681   1.206
 3726SOL     OW23208   6.620   3.874   5.793
 3726SOL    HW123209   6.664   3.910   5.711
 3726SOL    HW223210   6.645   3.778   5.806
 3727SOL     OW23211   3.826   3.364   6.693
 3727SOL    HW123212   3.840   3.311   6.609
 3727SOL    HW223213   3.748   3.326   6.742
 3728SOL     OW23214   8.263   6.192   6.185
 3728SOL    HW123215   8.211   6.189   6.270
 3728SOL    HW223216   8.347   6.244   6.199
 3729SOL     OW23217   2.381   3.046   6.036
 3729SOL    HW123218   2.281   3.034   6.034
 3729SOL    HW223219   2.403   3.140   6.012
 3730SOL     OW23220   6.636   0.895   6.164
 3730SOL    HW123221   6.595   0.864   6.078
 3730SOL    HW223222   6.733   0.914   6.149
 3731SOL     OW23223   2.155   2.308   5.576
 3731SOL    HW123224   2.196   2.227   5.536
 3731SOL    HW223225   2.128   2.289   5.670
 3732SOL     OW23226   5.154   1.012   0.426
 3732SOL    HW123227   5.082   1.071   0.462
 3732SOL    HW223228   5.134   0.916   0.449
 3733SOL     OW23229   0.270   5.026   5.715
 3733SOL    HW123230   0.182   4.984   5.736
 3733SOL    HW223231   0.285   5.023   5.616
 3734SOL     OW23232   8.668   3.070   5.261
 3734SOL    HW123233   8.661   3.157   5.309
 3734SOL    HW223234   8.585   3.054   5.207
 3735SOL     OW23235   6.892   1.148   0.686
 3735SOL    HW123236   6.915   1.107   0.598
 3735SOL    HW223237   6.802   1.115   0.716
 3736SOL     OW23238   4.963   3.123   0.864
 3736SOL    HW123239   4.994   3.029   0.851
 3736SOL    HW223240   4.964   3.146   0.961
 3737SOL     OW23241   5.224   6.251   6.882
 3737SOL    HW123242   5.164   6.331   6.879
 3737SOL    HW223243   5.283   6.257   6.962
 3738SOL     OW23244   8.656   3.174   6.197
 3738SOL    HW123245   8.617   3.220   6.277
 3738SOL    HW223246   8.694   3.086   6.223
 3739SOL     OW23247   3.153   1.668   1.303
 3739SOL    HW123248   3.250   1.661   1.327
 3739SOL    HW223249   3.097   1.655   1.385
 3740SOL     OW23250   1.074   7.753   5.403
 3740SOL    HW123251   0.986   7.708   5.382
 3740SOL    HW223252   1.073   7.846   5.366
 3741SOL     OW23253   6.811   4.439   5.636
 3741SOL    HW123254   6.776   4.516   5.689
 3741SOL    HW223255   6.911   4.435   5.646
 3742SOL     OW23256   4.721   2.934   6.383
 3742SOL    HW123257   4.803   2.886   6.351
 3742SOL    HW223258   4.747   3.001   6.453
 3743SOL     OW23259   5.586   6.210   5.932
 3743SOL    HW123260   5.514   6.270   5.967
 3743SOL    HW223261   5.604   6.231   5.836
 3744SOL     OW23262   8.538   0.794   0.435
 3744SOL    HW123263   8.582   0.721   0.486
 3744SOL    HW223264   8.606   0.845   0.382
 3745SOL     OW23265   6.018   0.777   0.724
 3745SOL    HW123266   5.986   0.812   0.812
 3745SOL    HW223267   5.973   0.827   0.650
 3746SOL     OW23268   8.177   7.033   1.039
 3746SOL    HW123269   8.226   7.120   1.042
 3746SOL    HW223270   8.227   6.969   0.981
 3747SOL     OW23271   7.843   2.439   0.703
 3747SOL    HW123272   7.801   2.433   0.613
 3747SOL    HW223273   7.875   2.533   0.719
 3748SOL     OW23274   9.052   7.173   6.844
 3748SOL    HW123275   9.079   7.113   6.919
 3748SOL    HW223276   9.132   7.193   6.787
 3749SOL     OW23277   0.937   4.787   6.242
 3749SOL    HW123278   0.855   4.842   6.224
 3749SOL    HW223279   0.960   4.735   6.159
 3750SOL     OW23280   8.695   6.703   1.154
 3750SOL    HW123281   8.728   6.665   1.240
 3750SOL    HW223282   8.745   6.787   1.133
 3751SOL     OW23283   1.602   3.730   5.942
 3751SOL    HW123284   1.633   3.753   5.850
 3751SOL    HW223285   1.541   3.802   5.976
 3752SOL     OW23286   7.018   0.443   6.360
 3752SOL    HW123287   7.036   0.541   6.366
 3752SOL    HW223288   7.092   0.400   6.308
 3753SOL     OW23289   1.492   1.453   0.389
 3753SOL    HW123290   1.556   1.526   0.365
 3753SOL    HW223291   1.406   1.494   0.419
 3754SOL     OW23292   0.123   0.051   4.932
 3754SOL    HW123293   0.157   0.045   4.838
 3754SOL    HW223294   0.076   0.138   4.945
 3755SOL     OW23295   1.788   8.030   1.271
 3755SOL    HW123296   1.887   8.031   1.284
 3755SOL    HW223297   1.767   8.066   1.181
 3756SOL     OW23298   1.081   2.456   1.168
 3756SOL    HW123299   0.996   2.508   1.180
 3756SOL    HW223300   1.089   2.427   1.072
 3757SOL     OW23301   6.250   3.761   0.417
 3757SOL    HW123302   6.207   3.851   0.404
 3757SOL    HW223303   6.228   3.702   0.340
 3758SOL     OW23304   9.008   1.570   0.395
 3758SOL    HW123305   8.978   1.634   0.324
 3758SOL    HW223306   9.031   1.621   0.477
 3759SOL     OW23307   5.644   4.840   6.933
 3759SOL    HW123308   5.607   4.928   6.965
 3759SOL    HW223309   5.661   4.781   7.012
 3760SOL     OW23310   8.155   6.890   6.763
 3760SOL    HW123311   8.119   6.983   6.756
 3760SOL    HW223312   8.091   6.833   6.814
 3761SOL     OW23313   4.107   4.740   0.802
 3761SOL    HW123314   4.094   4.836   0.778
 3761SOL    HW223315   4.052   4.719   0.884
 3762SOL     OW23316   0.593   0.421   5.426
 3762SOL    HW123317   0.568   0.427   5.329
 3762SOL    HW223318   0.541   0.488   5.479
 3763SOL     OW23319   7.138   6.697   6.650
 3763SOL    HW123320   7.109   6.791   6.668
 3763SOL    HW223321   7.225   6.698   6.599
 3764SOL     OW23322   9.084   4.173   0.377
 3764SOL    HW123323   9.051   4.246   0.317
 3764SOL    HW223324   9.183   4.183   0.390
 3765SOL     OW23325   3.675   4.010   0.709
 3765SOL    HW123326   3.653   4.076   0.780
 3765SOL    HW223327   3.721   4.056   0.633
 3766SOL     OW23328   6.159   1.860   1.312
 3766SOL    HW123329   6.132   1.793   1.381
 3766SOL    HW223330   6.138   1.952   1.346
 3767SOL     OW23331   7.613   5.601   5.565
 3767SOL    HW123332   7.609   5.616   5.466
 3767SOL    HW223333   7.560   5.672   5.611
 3768SOL     OW23334   8.415   4.292   0.224
 3768SOL    HW123335   8.504   4.260   0.257
 3768SOL    HW223336   8.382   4.230   0.153
 3769SOL     OW23337   9.018   5.987   5.623
 3769SOL    HW123338   8.966   5.937   5.554
 3769SOL    HW223339   9.073   6.058   5.579
 3770SOL     OW23340   0.846   0.682   6.151
 3770SOL    HW123341   0.926   0.623   6.161
 3770SOL    HW223342   0.830   0.702   6.055
 3771SOL     OW23343   2.948   5.689   5.233
 3771SOL    HW123344   2.923   5.695   5.137
 3771SOL    HW223345   2.945   5.594   5.263
 3772SOL     OW23346   3.405   4.659   1.981
 3772SOL    HW123347   3.427   4.574   2.029
 3772SOL    HW223348   3.402   4.735   2.046
 3773SOL     OW23349   2.078   5.137   6.795
 3773SOL    HW123350   2.094   5.115   6.699
 3773SOL    HW223351   2.042   5.230   6.803
 3774SOL     OW23352   6.208   4.973   5.922
 3774SOL    HW123353   6.299   4.952   5.958
 3774SOL    HW223354   6.215   4.997   5.825
 3775SOL     OW23355   1.879   1.278   0.609
 3775SOL    HW123356   1.781   1.278   0.590
 3775SOL    HW223357   1.896   1.241   0.700
 3776SOL     OW23358   2.041   0.605   6.467
 3776SOL    HW123359   2.115   0.649   6.417
 3776SOL    HW223360   2.043   0.506   6.449
 3777SOL     OW23361   8.389   5.323   6.594
 3777SOL    HW123362   8.482   5.357   6.585
 3777SOL    HW223363   8.342   5.330   6.506
 3778SOL     OW23364   7.659   7.544   5.410
 3778SOL    HW123365   7.600   7.620   5.380
 3778SOL    HW223366   7.743   7.544   5.356
 3779SOL     OW23367   0.450   8.082   1.926
 3779SOL    HW123368   0.424   7.986   1.912
 3779SOL    HW223369   0.501   8.091   2.011
 3780SOL     OW23370   1.960   3.424   6.298
 3780SOL    HW123371   1.928   3.350   6.358
 3780SOL    HW223372   2.040   3.393   6.247
 3781SOL     OW23373   3.686   7.480   6.150
 3781SOL    HW123374   3.706   7.548   6.221
 3781SOL    HW223375   3.760   7.414   6.145
 3782SOL     OW23376   2.862   1.495   6.670
 3782SOL    HW123377   2.812   1.446   6.599
 3782SOL    HW223378   2.856   1.444   6.756
 3783SOL     OW23379   9.284   4.444   0.452
 3783SOL    HW123380   9.312   4.399   0.367
 3783SOL    HW223381   9.192   4.483   0.440
 3784SOL     OW23382   7.616   2.893   5.910
 3784SOL    HW123383   7.674   2.837   5.968
 3784SOL    HW223384   7.646   2.989   5.916
 3785SOL     OW23385   4.419   0.586   1.137
 3785SOL    HW123386   4.416   0.507   1.198
 3785SOL    HW223387   4.368   0.567   1.054
 3786SOL     OW23388   2.220   6.261   0.930
 3786SOL    HW123389   2.225   6.300   0.838
 3786SOL    HW223390   2.229   6.162   0.925
 3787SOL     OW23391   0.635   1.975   1.068
 3787SOL    HW123392   0.621   1.922   1.152
 3787SOL    HW223393   0.733   1.992   1.055
 3788SOL     OW23394   4.672   6.773   1.057
 3788SOL    HW123395   4.600   6.734   1.114
 3788SOL    HW223396   4.632   6.812   0.974
 3789SOL     OW23397   9.169   1.331   0.436
 3789SOL    HW123398   9.135   1.418   0.399
 3789SOL    HW223399   9.114   1.256   0.400
 3790SOL     OW23400   1.546   3.182   6.927
 3790SOL    HW123401   1.512   3.186   6.833
 3790SOL    HW223402   1.575   3.089   6.947
 3791SOL     OW23403   8.550   3.725   6.492
 3791SOL    HW123404   8.571   3.754   6.585
 3791SOL    HW223405   8.530   3.804   6.435
 3792SOL     OW23406   8.176   6.714   1.484
 3792SOL    HW123407   8.139   6.776   1.553
 3792SOL    HW223408   8.149   6.745   1.393
 3793SOL     OW23409   8.496   5.776   6.904
 3793SOL    HW123410   8.498   5.875   6.918
 3793SOL    HW223411   8.467   5.731   6.988
 3794SOL     OW23412   2.536   1.093   1.377
 3794SOL    HW123413   2.525   1.000   1.341
 3794SOL    HW223414   2.459   1.150   1.348
 3795SOL     OW23415   0.919   5.146   6.733
 3795SOL    HW123416   0.958   5.107   6.649
 3795SOL    HW223417   0.993   5.163   6.799
 3796SOL     OW23418   1.055   4.336   1.429
 3796SOL    HW123419   0.991   4.269   1.466
 3796SOL    HW223420   1.059   4.415   1.490
 3797SOL     OW23421   3.323   2.684   5.795
 3797SOL    HW123422   3.339   2.636   5.709
 3797SOL    HW223423   3.303   2.780   5.776
 3798SOL     OW23424   6.609   7.546   2.189
 3798SOL    HW123425   6.670   7.621   2.163
 3798SOL    HW223426   6.663   7.466   2.214
 3799SOL     OW23427   8.877   5.241   0.370
 3799SOL    HW123428   8.788   5.217   0.333
 3799SOL    HW223429   8.874   5.239   0.470
 3800SOL     OW23430   2.216   6.763   5.873
 3800SOL    HW123431   2.283   6.831   5.842
 3800SOL    HW223432   2.263   6.682   5.906
 3801SOL     OW23433   5.651   2.304   2.152
 3801SOL    HW123434   5.719   2.364   2.194
 3801SOL    HW223435   5.690   2.260   2.071
 3802SOL     OW23436   7.432   3.475   0.738
 3802SOL    HW123437   7.453   3.562   0.695
 3802SOL    HW223438   7.450   3.481   0.836
 3803SOL     OW23439   0.683   4.488   0.668
 3803SOL    HW123440   0.740   4.544   0.728
 3803SOL    HW223441   0.589   4.486   0.703
 3804SOL     OW23442   1.569   4.767   6.898
 3804SOL    HW123443   1.667   4.743   6.902
 3804SOL    HW223444   1.552   4.825   6.819
 3805SOL     OW23445   6.990   2.853   1.080
 3805SOL    HW123446   6.994   2.898   0.991
 3805SOL    HW223447   7.049   2.900   1.144
 3806SOL     OW23448   5.515   3.248   0.281
 3806SOL    HW123449   5.607   3.222   0.308
 3806SOL    HW223450   5.493   3.338   0.319
 3807SOL     OW23451   8.596   6.297   1.544
 3807SOL    HW123452   8.555   6.370   1.599
 3807SOL    HW223453   8.684   6.328   1.507
 3808SOL     OW23454   7.233   5.587   0.236
 3808SOL    HW123455   7.175   5.665   0.260
 3808SOL    HW223456   7.209   5.508   0.292
 3809SOL     OW23457   7.509   3.982   6.496
 3809SOL    HW123458   7.473   3.955   6.406
 3809SOL    HW223459   7.554   3.903   6.539
 3810SOL     OW23460   3.869   7.163   5.529
 3810SOL    HW123461   3.917   7.185   5.444
 3810SOL    HW223462   3.858   7.246   5.584
 3811SOL     OW23463   2.958   0.186   1.088
 3811SOL    HW123464   3.008   0.101   1.073
 3811SOL    HW223465   3.022   0.257   1.119
 3812SOL     OW23466   5.059   2.308   6.235
 3812SOL    HW123467   5.068   2.366   6.154
 3812SOL    HW223468   4.972   2.326   6.280
 3813SOL     OW23469   0.656   3.645   6.821
 3813SOL    HW123470   0.593   3.567   6.830
 3813SOL    HW223471   0.736   3.617   6.768
 3814SOL     OW23472   2.358   4.007   1.355
 3814SOL    HW123473   2.379   4.027   1.260
 3814SOL    HW223474   2.436   4.033   1.413
 3815SOL     OW23475   2.428   2.953   6.396
 3815SOL    HW123476   2.510   3.009   6.400
 3815SOL    HW223477   2.349   3.011   6.377
 3816SOL     OW23478   1.693   0.015   1.153
 3816SOL    HW123479   1.788   0.031   1.180
 3816SOL    HW223480   1.640  -0.014   1.233
 3817SOL     OW23481   7.056   1.453   5.661
 3817SOL    HW123482   6.987   1.385   5.684
 3817SOL    HW223483   7.147   1.412   5.667
 3818SOL     OW23484   1.099   2.332   1.685
 3818SOL    HW123485   1.128   2.420   1.723
 3818SOL    HW223486   1.049   2.280   1.755
 3819SOL     OW23487   5.937   1.514   1.136
 3819SOL    HW123488   5.871   1.459   1.188
 3819SOL    HW223489   5.991   1.454   1.077
 3820SOL     OW23490   8.051   8.025   6.399
 3820SOL    HW123491   8.066   8.022   6.498
 3820SOL    HW223492   7.964   8.070   6.380
 3821SOL     OW23493   7.840   7.507   0.605
 3821SOL    HW123494   7.760   7.520   0.664
 3821SOL    HW223495   7.908   7.451   0.652
 3822SOL     OW23496   6.804   6.371   4.883
 3822SOL    HW123497   6.721   6.382   4.828
 3822SOL    HW223498   6.832   6.275   4.882
 3823SOL     OW23499   1.183   0.434   5.405
 3823SOL    HW123500   1.145   0.366   5.469
 3823SOL    HW223501   1.190   0.393   5.314
 3824SOL     OW23502   3.918   1.347   6.454
 3824SOL    HW123503   3.849   1.310   6.392
 3824SOL    HW223504   4.002   1.367   6.403
 3825SOL     OW23505   3.901   6.557   1.243
 3825SOL    HW123506   3.826   6.592   1.299
 3825SOL    HW223507   3.916   6.460   1.264
 3826SOL     OW23508   8.579   6.999   0.924
 3826SOL    HW123509   8.639   6.970   0.849
 3826SOL    HW223510   8.510   6.929   0.940
 3827SOL     OW23511   1.896   0.269   0.976
 3827SOL    HW123512   1.881   0.194   1.040
 3827SOL    HW223513   1.871   0.240   0.884
 3828SOL     OW23514   6.408   8.024   0.304
 3828SOL    HW123515   6.470   7.952   0.334
 3828SOL    HW223516   6.426   8.108   0.355
 3829SOL     OW23517   9.022   1.188   6.726
 3829SOL    HW123518   8.955   1.179   6.800
 3829SOL    HW223519   9.091   1.116   6.735
 3830SOL     OW23520   1.919   7.690   0.334
 3830SOL    HW123521   1.843   7.662   0.275
 3830SOL    HW223522   1.894   7.773   0.384
 3831SOL     OW23523   2.686   3.665   1.466
 3831SOL    HW123524   2.591   3.696   1.481
 3831SOL    HW223525   2.726   3.638   1.553
 3832SOL     OW23526   3.064   5.431   5.021
 3832SOL    HW123527   3.023   5.370   5.089
 3832SOL    HW223528   2.993   5.489   4.981
 3833SOL     OW23529   6.617  -0.027   0.611
 3833SOL    HW123530   6.531  -0.012   0.562
 3833SOL    HW223531   6.610   0.007   0.704
 3834SOL     OW23532   8.216   6.934   5.390
 3834SOL    HW123533   8.279   7.005   5.358
 3834SOL    HW223534   8.168   6.894   5.312
 3835SOL     OW23535   0.923   7.370   4.276
 3835SOL    HW123536   0.970   7.457   4.262
 3835SOL    HW223537   0.980   7.309   4.331
 3836SOL     OW23538   6.314   6.318   6.790
 3836SOL    HW123539   6.397   6.354   6.835
 3836SOL    HW223540   6.307   6.220   6.807
 3837SOL     OW23541   2.168   3.339   1.039
 3837SOL    HW123542   2.218   3.421   1.011
 3837SOL    HW223543   2.211   3.258   0.998
 3838SOL     OW23544   5.027   1.699   1.946
 3838SOL    HW123545   5.086   1.650   2.009
 3838SOL    HW223546   4.961   1.753   1.997
 3839SOL     OW23547   4.749   7.696   0.325
 3839SOL    HW123548   4.809   7.616   0.325
 3839SOL    HW223549   4.667   7.677   0.270
 3840SOL     OW23550   7.624   1.365   6.425
 3840SOL    HW123551   7.717   1.329   6.430
 3840SOL    HW223552   7.612   1.435   6.495
 3841SOL     OW23553   8.843   5.224   5.375
 3841SOL    HW123554   8.891   5.174   5.303
 3841SOL    HW223555   8.801   5.306   5.337
 3842SOL     OW23556   7.686   2.709   6.546
 3842SOL    HW123557   7.686   2.664   6.636
 3842SOL    HW223558   7.594   2.704   6.507
 3843SOL     OW23559   1.429   6.579   1.068
 3843SOL    HW123560   1.405   6.560   0.973
 3843SOL    HW223561   1.496   6.512   1.099
 3844SOL     OW23562   3.242   2.942   0.671
 3844SOL    HW123563   3.246   2.928   0.770
 3844SOL    HW223564   3.321   2.996   0.642
 3845SOL     OW23565   4.046   1.667   6.782
 3845SOL    HW123566   4.093   1.695   6.699
 3845SOL    HW223567   4.057   1.736   6.853
 3846SOL     OW23568   0.531   6.836   6.385
 3846SOL    HW123569   0.585   6.920   6.391
 3846SOL    HW223570   0.444   6.849   6.432
 3847SOL     OW23571   4.277   3.230   1.905
 3847SOL    HW123572   4.259   3.296   1.831
 3847SOL    HW223573   4.344   3.163   1.874
 3848SOL     OW23574   5.226   2.361   0.453
 3848SOL    HW123575   5.272   2.276   0.426
 3848SOL    HW223576   5.295   2.432   0.469
 3849SOL     OW23577   9.265   2.840   1.923
 3849SOL    HW123578   9.309   2.928   1.938
 3849SOL    HW223579   9.169   2.845   1.952
 3850SOL     OW23580   1.689   8.010   4.355
 3850SOL    HW123581   1.626   8.088   4.349
 3850SOL    HW223582   1.693   7.978   4.450
 3851SOL     OW23583   2.804   6.548   6.438
 3851SOL    HW123584   2.854   6.629   6.409
 3851SOL    HW223585   2.779   6.557   6.534
 3852SOL     OW23586   8.303   8.268   0.254
 3852SOL    HW123587   8.284   8.182   0.206
 3852SOL    HW223588   8.267   8.263   0.347
 3853SOL     OW23589   1.672   3.752   5.654
 3853SOL    HW123590   1.723   3.733   5.570
 3853SOL    HW223591   1.600   3.684   5.666
 3854SOL     OW23592   3.822   0.078   6.856
 3854SOL    HW123593   3.750   0.108   6.919
 3854SOL    HW223594   3.902   0.047   6.909
 3855SOL     OW23595   2.496   1.638   1.574
 3855SOL    HW123596   2.404   1.676   1.582
 3855SOL    HW223597   2.559   1.693   1.629
 3856SOL     OW23598   3.117   8.094   6.678
 3856SOL    HW123599   3.128   8.069   6.582
 3856SOL    HW223600   3.057   8.174   6.684
 3857SOL     OW23601   1.572   3.403   6.586
 3857SOL    HW123602   1.548   3.458   6.506
 3857SOL    HW223603   1.517   3.320   6.587
 3858SOL     OW23604   6.438   4.406   5.931
 3858SOL    HW123605   6.520   4.388   5.985
 3858SOL    HW223606   6.409   4.501   5.944
 3859SOL     OW23607   0.791   1.837   5.188
 3859SOL    HW123608   0.806   1.752   5.138
 3859SOL    HW223609   0.847   1.910   5.147
 3860SOL     OW23610   4.560   0.138   5.448
 3860SOL    HW123611   4.628   0.091   5.393
 3860SOL    HW223612   4.472   0.091   5.440
 3861SOL     OW23613   0.405   4.630   5.504
 3861SOL    HW123614   0.389   4.610   5.408
 3861SOL    HW223615   0.498   4.663   5.517
 3862SOL     OW23616   7.734   2.699   0.957
 3862SOL    HW123617   7.733   2.675   1.054
 3862SOL    HW223618   7.827   2.690   0.921
 3863SOL     OW23619   7.447   5.406   0.471
 3863SOL    HW123620   7.472   5.487   0.525
 3863SOL    HW223621   7.500   5.406   0.386
 3864SOL     OW23622   1.134   6.083   5.990
 3864SOL    HW123623   1.087   6.171   5.998
 3864SOL    HW223624   1.083   6.014   6.041
 3865SOL     OW23625   3.068   8.431   5.540
 3865SOL    HW123626   3.122   8.362   5.492
 3865SOL    HW223627   2.996   8.386   5.593
 3866SOL     OW23628   0.736   5.815   5.257
 3866SOL    HW123629   0.773   5.779   5.342
 3866SOL    HW223630   0.811   5.850   5.200
 3867SOL     OW23631   5.539   0.517   1.702
 3867SOL    HW123632   5.549   0.582   1.777
 3867SOL    HW223633   5.625   0.510   1.652
 3868SOL     OW23634   5.152   3.912   0.907
 3868SOL    HW123635   5.145   3.815   0.883
 3868SOL    HW223636   5.188   3.921   1.000
 3869SOL     OW23637   2.495   0.169   1.001
 3869SOL    HW123638   2.416   0.128   1.046
 3869SOL    HW223639   2.468   0.255   0.957
 3870SOL     OW23640   5.270   5.670   5.549
 3870SOL    HW123641   5.312   5.760   5.564
 3870SOL    HW223642   5.218   5.671   5.464
 3871SOL     OW23643   4.815   7.746   6.716
 3871SOL    HW123644   4.852   7.710   6.630
 3871SOL    HW223645   4.866   7.829   6.741
 3872SOL     OW23646   1.043   4.891   4.862
 3872SOL    HW123647   1.092   4.827   4.923
 3872SOL    HW223648   1.109   4.953   4.819
 3873SOL     OW23649   1.968   3.244   6.001
 3873SOL    HW123650   2.029   3.318   5.971
 3873SOL    HW223651   1.908   3.278   6.073
 3874SOL     OW23652   0.123   0.213   5.907
 3874SOL    HW123653   0.203   0.165   5.942
 3874SOL    HW223654   0.051   0.146   5.887
 3875SOL     OW23655   7.772   8.432   0.689
 3875SOL    HW123656   7.745   8.405   0.596
 3875SOL    HW223657   7.775   8.531   0.695
 3876SOL     OW23658   1.259   1.900   5.904
 3876SOL    HW123659   1.296   1.807   5.905
 3876SOL    HW223660   1.330   1.964   5.873
 3877SOL     OW23661   6.332   5.744   6.691
 3877SOL    HW123662   6.286   5.809   6.631
 3877SOL    HW223663   6.265   5.701   6.751
 3878SOL     OW23664   3.165   6.605   0.341
 3878SOL    HW123665   3.072   6.640   0.354
 3878SOL    HW223666   3.175   6.517   0.389
 3879SOL     OW23667   0.126   5.431   1.567
 3879SOL    HW123668   0.143   5.482   1.483
 3879SOL    HW223669   0.137   5.492   1.646
 3880SOL     OW23670   6.757   0.399   6.476
 3880SOL    HW123671   6.817   0.408   6.397
 3880SOL    HW223672   6.756   0.484   6.528
 3881SOL     OW23673   0.829   6.703   0.450
 3881SOL    HW123674   0.864   6.742   0.364
 3881SOL    HW223675   0.847   6.767   0.525
 3882SOL     OW23676   6.805   2.700   1.187
 3882SOL    HW123677   6.827   2.603   1.204
 3882SOL    HW223678   6.886   2.746   1.150
 3883SOL     OW23679   2.852   0.824   0.931
 3883SOL    HW123680   2.775   0.859   0.876
 3883SOL    HW223681   2.932   0.813   0.873
 3884SOL     OW23682   7.727   1.807   6.529
 3884SOL    HW123683   7.655   1.738   6.522
 3884SOL    HW223684   7.797   1.777   6.593
 3885SOL     OW23685   5.115   1.957   0.806
 3885SOL    HW123686   5.192   2.004   0.852
 3885SOL    HW223687   5.080   2.015   0.733
 3886SOL     OW23688   0.616   6.281   1.417
 3886SOL    HW123689   0.644   6.377   1.414
 3886SOL    HW223690   0.608   6.251   1.512
 3887SOL     OW23691   6.213   6.360   6.219
 3887SOL    HW123692   6.255   6.441   6.259
 3887SOL    HW223693   6.212   6.368   6.120
 3888SOL     OW23694   6.464   0.827   0.763
 3888SOL    HW123695   6.392   0.863   0.822
 3888SOL    HW223696   6.434   0.830   0.667
 3889SOL     OW23697   9.142   5.749   0.773
 3889SOL    HW123698   9.145   5.849   0.774
 3889SOL    HW223699   9.047   5.718   0.784
 3890SOL     OW23700   9.171   7.053   5.184
 3890SOL    HW123701   9.160   7.138   5.236
 3890SOL    HW223702   9.264   7.049   5.147
 3891SOL     OW23703   2.525   4.911   6.312
 3891SOL    HW123704   2.590   4.868   6.249
 3891SOL    HW223705   2.503   4.847   6.385
 3892SOL     OW23706   9.365   8.144   6.644
 3892SOL    HW123707   9.290   8.203   6.674
 3892SOL    HW223708   9.354   8.122   6.547
 3893SOL     OW23709   2.845   0.539   6.221
 3893SOL    HW123710   2.938   0.506   6.204
 3893SOL    HW223711   2.796   0.548   6.135
 3894SOL     OW23712   5.546   1.157   5.880
 3894SOL    HW123713   5.548   1.199   5.970
 3894SOL    HW223714   5.553   1.058   5.889
 3895SOL     OW23715   0.946   3.246   5.119
 3895SOL    HW123716   0.904   3.337   5.113
 3895SOL    HW223717   1.019   3.248   5.188
 3896SOL     OW23718   8.133   6.510   5.720
 3896SOL    HW123719   8.231   6.490   5.724
 3896SOL    HW223720   8.088   6.476   5.802
 3897SOL     OW23721   1.373   7.213   6.349
 3897SOL    HW123722   1.438   7.177   6.417
 3897SOL    HW223723   1.417   7.216   6.259
 3898SOL     OW23724   1.338   6.964   0.724
 3898SOL    HW123725   1.343   7.016   0.809
 3898SOL    HW223726   1.421   6.910   0.713
 3899SOL     OW23727   8.484   3.110   1.139
 3899SOL    HW123728   8.450   3.198   1.105
 3899SOL    HW223729   8.583   3.113   1.145
 3900SOL     OW23730   7.007   4.544   5.345
 3900SOL    HW123731   7.059   4.513   5.425
 3900SOL    HW223732   7.037   4.493   5.264
 3901SOL     OW23733   0.607   1.359   5.925
 3901SOL    HW123734   0.634   1.455   5.918
 3901SOL    HW223735   0.530   1.342   5.863
 3902SOL     OW23736   2.116   3.279   5.617
 3902SOL    HW123737   2.047   3.228   5.565
 3902SOL    HW223738   2.193   3.218   5.639
 3903SOL     OW23739   0.209   4.646   6.560
 3903SOL    HW123740   0.287   4.709   6.556
 3903SOL    HW223741   0.130   4.693   6.600
 3904SOL     OW23742   7.413   3.983   0.260
 3904SOL    HW123743   7.456   4.044   0.193
 3904SOL    HW223744   7.316   4.005   0.267
 3905SOL     OW23745   3.728   2.279   5.955
 3905SOL    HW123746   3.743   2.237   5.865
 3905SOL    HW223747   3.783   2.233   6.024
 3906SOL     OW23748   4.006   0.800   6.740
 3906SOL    HW123749   4.088   0.840   6.780
 3906SOL    HW223750   3.991   0.841   6.649
 3907SOL     OW23751   2.135   4.268   5.413
 3907SOL    HW123752   2.216   4.327   5.411
 3907SOL    HW223753   2.097   4.260   5.321
 3908SOL     OW23754   8.478   0.924   1.372
 3908SOL    HW123755   8.519   0.856   1.312
 3908SOL    HW223756   8.527   1.010   1.364
 3909SOL     OW23757   5.926   8.111   0.613
 3909SOL    HW123758   5.906   8.177   0.541
 3909SOL    HW223759   5.850   8.109   0.678
 3910SOL     OW23760   3.511   6.125   2.031
 3910SOL    HW123761   3.573   6.047   2.040
 3910SOL    HW223762   3.432   6.111   2.091
 3911SOL     OW23763   6.720   7.407   6.100
 3911SOL    HW123764   6.727   7.309   6.083
 3911SOL    HW223765   6.724   7.425   6.198
 3912SOL     OW23766   5.472   8.234   5.983
 3912SOL    HW123767   5.485   8.286   5.899
 3912SOL    HW223768   5.560   8.208   6.020
 3913SOL     OW23769   4.425   0.436   0.591
 3913SOL    HW123770   4.518   0.466   0.612
 3913SOL    HW223771   4.405   0.352   0.642
 3914SOL     OW23772   3.582   0.078   0.617
 3914SOL    HW123773   3.588   0.026   0.702
 3914SOL    HW223774   3.673   0.092   0.580
 3915SOL     OW23775   6.756   1.257   6.289
 3915SOL    HW123776   6.841   1.280   6.242
 3915SOL    HW223777   6.764   1.166   6.330
 3916SOL     OW23778   6.445   5.478   0.577
 3916SOL    HW123779   6.511   5.487   0.652
 3916SOL    HW223780   6.385   5.559   0.576
 3917SOL     OW23781   7.467   3.516   0.400
 3917SOL    HW123782   7.437   3.580   0.471
 3917SOL    HW223783   7.413   3.432   0.406
 3918SOL     OW23784   9.138   4.197   6.532
 3918SOL    HW123785   9.153   4.275   6.471
 3918SOL    HW223786   9.045   4.199   6.568
 3919SOL     OW23787   3.588   0.691   6.226
 3919SOL    HW123788   3.588   0.757   6.301
 3919SOL    HW223789   3.668   0.632   6.233
 3920SOL     OW23790   5.289   5.394   1.360
 3920SOL    HW123791   5.341   5.311   1.381
 3920SOL    HW223792   5.345   5.474   1.381
 3921SOL     OW23793   2.858   4.062   5.465
 3921SOL    HW123794   2.881   3.965   5.455
 3921SOL    HW223795   2.771   4.071   5.512
 3922SOL     OW23796   0.937   5.133   6.084
 3922SOL    HW123797   0.892   5.094   6.164
 3922SOL    HW223798   0.877   5.204   6.044
 3923SOL     OW23799   8.161   3.567   1.288
 3923SOL    HW123800   8.231   3.553   1.358
 3923SOL    HW223801   8.107   3.483   1.278
 3924SOL     OW23802   8.438   7.587   6.671
 3924SOL    HW123803   8.342   7.607   6.654
 3924SOL    HW223804   8.447   7.528   6.751
 3925SOL     OW23805   6.668   6.848   1.350
 3925SOL    HW123806   6.702   6.843   1.444
 3925SOL    HW223807   6.592   6.912   1.345
 3926SOL     OW23808   9.543   7.351   0.922
 3926SOL    HW123809   9.508   7.266   0.962
 3926SOL    HW223810   9.642   7.357   0.938
 3927SOL     OW23811   1.919   2.541   0.286
 3927SOL    HW123812   1.945   2.466   0.224
 3927SOL    HW223813   1.829   2.575   0.260
 3928SOL     OW23814   5.059   6.428   5.755
 3928SOL    HW123815   4.979   6.393   5.803
 3928SOL    HW223816   5.042   6.427   5.657
 3929SOL     OW23817   0.678  -0.013   1.952
 3929SOL    HW123818   0.764  -0.056   1.981
 3929SOL    HW223819   0.685   0.086   1.965
 3930SOL     OW23820   6.119   0.723   6.853
 3930SOL    HW123821   6.119   0.628   6.883
 3930SOL    HW223822   6.118   0.727   6.754
 3931SOL     OW23823   6.136   3.891   0.942
 3931SOL    HW123824   6.177   3.814   0.892
 3931SOL    HW223825   6.087   3.950   0.878
 3932SOL     OW23826   3.938   7.779   6.486
 3932SOL    HW123827   4.019   7.744   6.440
 3932SOL    HW223828   3.938   7.748   6.581
 3933SOL     OW23829   6.268   7.949   0.870
 3933SOL    HW123830   6.315   7.884   0.929
 3933SOL    HW223831   6.263   7.913   0.777
 3934SOL     OW23832   8.705   6.336   6.877
 3934SOL    HW123833   8.621   6.283   6.883
 3934SOL    HW223834   8.703   6.411   6.942
 3935SOL     OW23835   5.780   4.810   0.959
 3935SOL    HW123836   5.722   4.735   0.989
 3935SOL    HW223837   5.788   4.807   0.859
 3936SOL     OW23838   4.160   1.697   6.522
 3936SOL    HW123839   4.231   1.767   6.529
 3936SOL    HW223840   4.189   1.625   6.460
 3937SOL     OW23841   1.943   1.538   0.656
 3937SOL    HW123842   1.910   1.447   0.634
 3937SOL    HW223843   1.873   1.586   0.710
 3938SOL     OW23844   8.720   5.080   6.690
 3938SOL    HW123845   8.781   5.154   6.665
 3938SOL    HW223846   8.711   5.075   6.789
 3939SOL     OW23847   9.162   3.488   5.496
 3939SOL    HW123848   9.078   3.453   5.454
 3939SOL    HW223849   9.235   3.490   5.428
 3940SOL     OW23850   4.499   6.310   5.556
 3940SOL    HW123851   4.423   6.253   5.528
 3940SOL    HW223852   4.581   6.285   5.504
 3941SOL     OW23853   7.366   3.876   1.508
 3941SOL    HW123854   7.359   3.893   1.606
 3941SOL    HW223855   7.342   3.959   1.458
 3942SOL     OW23856   6.635   0.028   6.450
 3942SOL    HW123857   6.706   0.086   6.410
 3942SOL    HW223858   6.672  -0.065   6.461
 3943SOL     OW23859   2.229   7.087   6.811
 3943SOL    HW123860   2.175   7.052   6.888
 3943SOL    HW223861   2.267   7.176   6.834
 3944SOL     OW23862   8.190   5.435   6.893
 3944SOL    HW123863   8.184   5.421   6.794
 3944SOL    HW223864   8.166   5.529   6.915
 3945SOL     OW23865   5.723   0.662   5.853
 3945SOL    HW123866   5.712   0.616   5.941
 3945SOL    HW223867   5.753   0.595   5.784
 3946SOL     OW23868   8.666   2.926   0.775
 3946SOL    HW123869   8.581   2.978   0.786
 3946SOL    HW223870   8.716   2.960   0.696
 3947SOL     OW23871   6.141   0.687   0.469
 3947SOL    HW123872   6.147   0.787   0.460
 3947SOL    HW223873   6.224   0.645   0.434
 3948SOL     OW23874   8.796   0.819   0.642
 3948SOL    HW123875   8.718   0.845   0.698
 3948SOL    HW223876   8.765   0.800   0.548
 3949SOL     OW23877   6.562   6.856   6.313
 3949SOL    HW123878   6.518   6.823   6.397
 3949SOL    HW223879   6.648   6.808   6.299
 3950SOL     OW23880   0.183   0.600   1.107
 3950SOL    HW123881   0.281   0.620   1.110
 3950SOL    HW223882   0.157   0.552   1.191
 3951SOL     OW23883   3.505   1.073   2.156
 3951SOL    HW123884   3.526   1.011   2.232
 3951SOL    HW223885   3.590   1.098   2.110
 3952SOL     OW23886   7.451   1.192   6.582
 3952SOL    HW123887   7.485   1.241   6.503
 3952SOL    HW223888   7.375   1.132   6.554
 3953SOL     OW23889   5.450   0.906   6.228
 3953SOL    HW123890   5.390   0.966   6.176
 3953SOL    HW223891   5.535   0.953   6.249
 3954SOL     OW23892   2.430   7.432   1.780
 3954SOL    HW123893   2.502   7.452   1.846
 3954SOL    HW223894   2.359   7.377   1.823
 3955SOL     OW23895   9.230   2.451   5.813
 3955SOL    HW123896   9.324   2.482   5.801
 3955SOL    HW223897   9.182   2.457   5.725
 3956SOL     OW23898   3.783   2.534   0.271
 3956SOL    HW123899   3.755   2.439   0.286
 3956SOL    HW223900   3.725   2.595   0.325
 3957SOL     OW23901   8.149   3.863   1.071
 3957SOL    HW123902   8.092   3.782   1.061
 3957SOL    HW223903   8.179   3.871   1.166
 3958SOL     OW23904   8.851   7.150   5.003
 3958SOL    HW123905   8.891   7.107   4.923
 3958SOL    HW223906   8.890   7.241   5.016
 3959SOL     OW23907   3.137   3.410   0.294
 3959SOL    HW123908   3.229   3.445   0.312
 3959SOL    HW223909   3.117   3.420   0.196
 3960SOL     OW23910   5.877   5.949   5.417
 3960SOL    HW123911   5.791   5.923   5.462
 3960SOL    HW223912   5.857   5.999   5.333
 3961SOL     OW23913   8.484   4.392   0.909
 3961SOL    HW123914   8.490   4.316   0.844
 3961SOL    HW223915   8.575   4.427   0.928
 3962SOL     OW23916   0.524   3.012   5.841
 3962SOL    HW123917   0.472   3.072   5.780
 3962SOL    HW223918   0.511   3.041   5.935
 3963SOL     OW23919   1.132   0.879   6.818
 3963SOL    HW123920   1.158   0.783   6.804
 3963SOL    HW223921   1.055   0.883   6.881
 3964SOL     OW23922   4.885   0.428   4.948
 3964SOL    HW123923   4.952   0.387   4.886
 3964SOL    HW223924   4.896   0.528   4.946
 3965SOL     OW23925   5.813   4.723   1.281
 3965SOL    HW123926   5.740   4.727   1.349
 3965SOL    HW223927   5.773   4.715   1.190
 3966SOL     OW23928   8.883   1.920   0.876
 3966SOL    HW123929   8.902   1.934   0.779
 3966SOL    HW223930   8.838   2.002   0.913
 3967SOL     OW23931   3.856   7.661   0.914
 3967SOL    HW123932   3.790   7.591   0.883
 3967SOL    HW223933   3.814   7.715   0.987
 3968SOL     OW23934   8.764   4.417   0.876
 3968SOL    HW123935   8.845   4.402   0.819
 3968SOL    HW223936   8.745   4.335   0.930
 3969SOL     OW23937   7.459   2.464   0.612
 3969SOL    HW123938   7.513   2.503   0.537
 3969SOL    HW223939   7.461   2.526   0.690
 3970SOL     OW23940   6.713   4.719   0.995
 3970SOL    HW123941   6.743   4.641   1.050
 3970SOL    HW223942   6.766   4.722   0.910
 3971SOL     OW23943   6.245   0.728   0.996
 3971SOL    HW123944   6.195   0.707   0.912
 3971SOL    HW223945   6.269   0.825   0.998
 3972SOL     OW23946   8.549   6.609   4.934
 3972SOL    HW123947   8.639   6.644   4.908
 3972SOL    HW223948   8.482   6.682   4.928
 3973SOL     OW23949   0.954   1.661   1.194
 3973SOL    HW123950   0.858   1.689   1.196
 3973SOL    HW223951   0.980   1.636   1.101
 3974SOL     OW23952   2.074   2.263   5.857
 3974SOL    HW123953   2.033   2.205   5.927
 3974SOL    HW223954   2.088   2.355   5.894
 3975SOL     OW23955   1.742   3.249   6.153
 3975SOL    HW123956   1.752   3.248   6.252
 3975SOL    HW223957   1.673   3.317   6.127
 3976SOL     OW23958   5.540   6.466   5.437
 3976SOL    HW123959   5.612   6.406   5.402
 3976SOL    HW223960   5.468   6.476   5.368
 3977SOL     OW23961   5.139   0.128   5.183
 3977SOL    HW123962   5.230   0.116   5.142
 3977SOL    HW223963   5.072   0.075   5.132
 3978SOL     OW23964   1.666   0.092   6.002
 3978SOL    HW123965   1.712   0.141   5.928
 3978SOL    HW223966   1.726   0.085   6.081
 3979SOL     OW23967   1.785   7.480   5.566
 3979SOL    HW123968   1.803   7.577   5.582
 3979SOL    HW223969   1.706   7.470   5.506
 3980SOL     OW23970   3.555   2.959   5.511
 3980SOL    HW123971   3.597   3.002   5.590
 3980SOL    HW223972   3.455   2.966   5.518
 3981SOL     OW23973   2.921   2.264   6.265
 3981SOL    HW123974   2.898   2.167   6.276
 3981SOL    HW223975   2.852   2.320   6.310
 3982SOL     OW23976   0.764   8.122   6.258
 3982SOL    HW123977   0.848   8.083   6.298
 3982SOL    HW223978   0.754   8.089   6.164
 3983SOL     OW23979   3.850   5.138   1.046
 3983SOL    HW123980   3.861   5.042   1.021
 3983SOL    HW223981   3.754   5.163   1.044
 3984SOL     OW23982   7.401   6.704   1.359
 3984SOL    HW123983   7.389   6.725   1.456
 3984SOL    HW223984   7.470   6.633   1.348
 3985SOL     OW23985   7.532   1.298   5.773
 3985SOL    HW123986   7.440   1.270   5.746
 3985SOL    HW223987   7.533   1.396   5.791
 3986SOL     OW23988   5.629   4.818   6.416
 3986SOL    HW123989   5.716   4.861   6.439
 3986SOL    HW223990   5.602   4.845   6.324
 3987SOL     OW23991   3.238   5.215   0.726
 3987SOL    HW123992   3.263   5.293   0.783
 3987SOL    HW223993   3.238   5.131   0.780
 3988SOL     OW23994   8.360   6.881   4.853
 3988SOL    HW123995   8.294   6.955   4.844
 3988SOL    HW223996   8.322   6.797   4.815
 3989SOL     OW23997   0.794   8.138   4.770
 3989SOL    HW123998   0.738   8.056   4.760
 3989SOL    HW223999   0.749   8.214   4.723
 3990SOL     OW24000   0.668   5.038   6.661
 3990SOL    HW124001   0.585   5.092   6.654
 3990SOL    HW224002   0.745   5.097   6.687
 3991SOL     OW24003   3.055   3.968   5.726
 3991SOL    HW124004   3.050   3.982   5.825
 3991SOL    HW224005   3.100   4.046   5.684
 3992SOL     OW24006   8.700   6.836   5.330
 3992SOL    HW124007   8.792   6.799   5.316
 3992SOL    HW224008   8.675   6.894   5.253
 3993SOL     OW24009   4.106   0.160   4.984
 3993SOL    HW124010   4.026   0.174   4.926
 3993SOL    HW224011   4.185   0.137   4.927
 3994SOL     OW24012   5.332   6.129   0.964
 3994SOL    HW124013   5.253   6.186   0.986
 3994SOL    HW224014   5.411   6.159   1.018
 3995SOL     OW24015   6.263   5.689   1.812
 3995SOL    HW124016   6.283   5.787   1.813
 3995SOL    HW224017   6.221   5.662   1.898
 3996SOL     OW24018   2.747   5.187   6.731
 3996SOL    HW124019   2.706   5.243   6.659
 3996SOL    HW224020   2.838   5.224   6.753
 3997SOL     OW24021   7.271   4.828   6.036
 3997SOL    HW124022   7.290   4.918   6.077
 3997SOL    HW224023   7.314   4.757   6.091
 3998SOL     OW24024   3.623   5.180   1.786
 3998SOL    HW124025   3.529   5.182   1.821
 3998SOL    HW224026   3.681   5.127   1.847
 3999SOL     OW24027   1.038   2.857   6.626
 3999SOL    HW124028   0.939   2.844   6.635
 3999SOL    HW224029   1.079   2.772   6.593
 4000SOL     OW24030   2.487   0.578   6.867
 4000SOL    HW124031   2.397   0.612   6.893
 4000SOL    HW224032   2.546   0.576   6.948
 4001SOL     OW24033   4.345   4.426   0.476
 4001SOL    HW124034   4.321   4.503   0.416
 4001SOL    HW224035   4.367   4.346   0.420
 4002SOL     OW24036   8.280   8.007   1.066
 4002SOL    HW124037   8.325   8.023   1.154
 4002SOL    HW224038   8.193   7.959   1.080
 4003SOL     OW24039   6.684   2.058   5.593
 4003SOL    HW124040   6.764   2.087   5.540
 4003SOL    HW224041   6.656   1.967   5.563
 4004SOL     OW24042   8.257   7.185   0.221
 4004SOL    HW124043   8.315   7.266   0.211
 4004SOL    HW224044   8.279   7.139   0.307
 4005SOL     OW24045   1.638   6.576   6.021
 4005SOL    HW124046   1.705   6.504   6.039
 4005SOL    HW224047   1.577   6.585   6.099
 4006SOL     OW24048   6.084   8.094   6.353
 4006SOL    HW124049   6.035   8.146   6.283
 4006SOL    HW224050   6.091   8.150   6.436
 4007SOL     OW24051   7.755   2.718   0.649
 4007SOL    HW124052   7.799   2.807   0.634
 4007SOL    HW224053   7.746   2.702   0.747
 4008SOL     OW24054   1.430   7.982   1.024
 4008SOL    HW124055   1.380   7.902   1.058
 4008SOL    HW224056   1.480   8.025   1.099
 4009SOL     OW24057   7.388   6.470   5.810
 4009SOL    HW124058   7.427   6.562   5.824
 4009SOL    HW224059   7.322   6.451   5.882
 4010SOL     OW24060   4.149   6.392   5.509
 4010SOL    HW124061   4.128   6.405   5.412
 4010SOL    HW224062   4.207   6.311   5.519
 4011SOL     OW24063   6.466   7.062   0.568
 4011SOL    HW124064   6.514   7.118   0.636
 4011SOL    HW224065   6.532   7.030   0.500
 4012SOL     OW24066   1.460   5.369   5.624
 4012SOL    HW124067   1.439   5.389   5.720
 4012SOL    HW224068   1.461   5.455   5.572
 4013SOL     OW24069   2.658   7.330   0.335
 4013SOL    HW124070   2.694   7.361   0.422
 4013SOL    HW224071   2.695   7.240   0.314
 4014SOL     OW24072   2.864   7.158   2.255
 4014SOL    HW124073   2.846   7.206   2.341
 4014SOL    HW224074   2.835   7.215   2.178
 4015SOL     OW24075   5.203   7.052   0.322
 4015SOL    HW124076   5.193   7.150   0.307
 4015SOL    HW224077   5.280   7.017   0.268
 4016SOL     OW24078   5.960   0.792   6.384
 4016SOL    HW124079   5.977   0.886   6.415
 4016SOL    HW224080   6.002   0.778   6.295
 4017SOL     OW24081   5.187   0.009   5.447
 4017SOL    HW124082   5.275   0.055   5.438
 4017SOL    HW224083   5.118   0.058   5.393
 4018SOL     OW24084   1.414   4.731   5.711
 4018SOL    HW124085   1.476   4.738   5.789
 4018SOL    HW224086   1.422   4.640   5.670
 4019SOL     OW24087   1.759   5.886   5.124
 4019SOL    HW124088   1.745   5.788   5.115
 4019SOL    HW224089   1.809   5.920   5.045
 4020SOL     OW24090   8.468   8.226   5.704
 4020SOL    HW124091   8.522   8.228   5.788
 4020SOL    HW224092   8.513   8.283   5.635
 4021SOL     OW24093   4.437   8.285   5.916
 4021SOL    HW124094   4.363   8.272   5.849
 4021SOL    HW224095   4.492   8.365   5.890
 4022SOL     OW24096   7.249   4.725   5.161
 4022SOL    HW124097   7.319   4.668   5.203
 4022SOL    HW224098   7.192   4.669   5.100
 4023SOL     OW24099   8.268   4.532   6.560
 4023SOL    HW124100   8.290   4.438   6.536
 4023SOL    HW224101   8.205   4.533   6.638
 4024SOL     OW24102   4.558   5.365   6.781
 4024SOL    HW124103   4.589   5.299   6.850
 4024SOL    HW224104   4.627   5.371   6.708
 4025SOL     OW24105   2.033   1.503   5.974
 4025SOL    HW124106   1.966   1.431   5.992
 4025SOL    HW224107   2.123   1.462   5.964
 4026SOL     OW24108   5.657   6.248   6.254
 4026SOL    HW124109   5.621   6.331   6.211
 4026SOL    HW224110   5.750   6.231   6.223
 4027SOL     OW24111   7.382   8.192   5.051
 4027SOL    HW124112   7.431   8.105   5.061
 4027SOL    HW224113   7.291   8.184   5.092
 4028SOL     OW24114   2.414   8.398   0.280
 4028SOL    HW124115   2.341   8.404   0.212
 4028SOL    HW224116   2.376   8.414   0.371
 4029SOL     OW24117   8.273   1.176   6.578
 4029SOL    HW124118   8.270   1.133   6.669
 4029SOL    HW224119   8.194   1.145   6.525
 4030SOL     OW24120   0.870   0.450   5.466
 4030SOL    HW124121   0.776   0.434   5.438
 4030SOL    HW224122   0.877   0.541   5.509
 4031SOL     OW24123   3.834   4.226   6.157
 4031SOL    HW124124   3.922   4.228   6.205
 4031SOL    HW224125   3.826   4.139   6.108
 4032SOL     OW24126   4.429   4.455   6.410
 4032SOL    HW124127   4.374   4.446   6.327
 4032SOL    HW224128   4.372   4.493   6.483
 4033SOL     OW24129   2.658   3.025   6.071
 4033SOL    HW124130   2.682   2.938   6.115
 4033SOL    HW224131   2.563   3.022   6.040
 4034SOL     OW24132   3.686   3.059   1.821
 4034SOL    HW124133   3.745   2.994   1.774
 4034SOL    HW224134   3.664   3.025   1.912
 4035SOL     OW24135   3.062   4.769   1.012
 4035SOL    HW124136   3.085   4.716   0.930
 4035SOL    HW224137   3.110   4.731   1.091
 4036SOL     OW24138   2.177   6.243   5.728
 4036SOL    HW124139   2.266   6.202   5.708
 4036SOL    HW224140   2.178   6.340   5.703
 4037SOL     OW24141   4.942   2.082   6.132
 4037SOL    HW124142   4.996   2.163   6.155
 4037SOL    HW224143   4.922   2.030   6.216
 4038SOL     OW24144   6.198   6.297   1.025
 4038SOL    HW124145   6.129   6.341   0.968
 4038SOL    HW224146   6.171   6.203   1.044
 4039SOL     OW24147   8.002   2.404   2.197
 4039SOL    HW124148   7.937   2.413   2.272
 4039SOL    HW224149   8.095   2.413   2.232
 4040SOL     OW24150   2.329   4.337   6.358
 4040SOL    HW124151   2.282   4.412   6.311
 4040SOL    HW224152   2.306   4.250   6.313
 4041SOL     OW24153   4.408   5.410   0.941
 4041SOL    HW124154   4.318   5.415   0.984
 4041SOL    HW224155   4.401   5.362   0.853
 4042SOL     OW24156   1.968   5.205   5.787
 4042SOL    HW124157   1.925   5.229   5.701
 4042SOL    HW224158   1.998   5.109   5.785
 4043SOL     OW24159   0.856   5.676   0.911
 4043SOL    HW124160   0.929   5.629   0.961
 4043SOL    HW224161   0.781   5.697   0.973
 4044SOL     OW24162   4.493   1.065   6.161
 4044SOL    HW124163   4.512   1.104   6.251
 4044SOL    HW224164   4.505   0.965   6.164
 4045SOL     OW24165   7.412   3.363   6.694
 4045SOL    HW124166   7.319   3.335   6.715
 4045SOL    HW224167   7.413   3.419   6.611
 4046SOL     OW24168   8.569   5.936   5.681
 4046SOL    HW124169   8.473   5.934   5.707
 4046SOL    HW224170   8.589   5.859   5.620
 4047SOL     OW24171   2.693   1.193   0.475
 4047SOL    HW124172   2.614   1.245   0.506
 4047SOL    HW224173   2.772   1.215   0.532
 4048SOL     OW24174   5.500   8.377   5.745
 4048SOL    HW124175   5.401   8.383   5.733
 4048SOL    HW224176   5.545   8.450   5.694
 4049SOL     OW24177   0.306   3.647   0.656
 4049SOL    HW124178   0.221   3.700   0.658
 4049SOL    HW224179   0.320   3.604   0.745
 4050SOL     OW24180   1.583   6.712   5.410
 4050SOL    HW124181   1.613   6.623   5.444
 4050SOL    HW224182   1.639   6.738   5.331
 4051SOL     OW24183   2.421   4.381   1.706
 4051SOL    HW124184   2.442   4.461   1.650
 4051SOL    HW224185   2.492   4.311   1.693
 4052SOL     OW24186   5.487   3.185   6.586
 4052SOL    HW124187   5.464   3.251   6.515
 4052SOL    HW224188   5.403   3.142   6.619
 4053SOL     OW24189   1.040   4.644   6.015
 4053SOL    HW124190   1.049   4.586   5.934
 4053SOL    HW224191   1.124   4.698   6.027
 4054SOL     OW24192   5.006   2.996   6.434
 4054SOL    HW124193   5.079   2.953   6.382
 4054SOL    HW224194   5.035   3.087   6.464
 4055SOL     OW24195   4.304   7.613   0.712
 4055SOL    HW124196   4.318   7.537   0.776
 4055SOL    HW224197   4.381   7.676   0.719
 4056SOL     OW24198   7.572   0.714   5.773
 4056SOL    HW124199   7.509   0.761   5.711
 4056SOL    HW224200   7.665   0.748   5.757
 4057SOL     OW24201   3.131   4.790   6.108
 4057SOL    HW124202   3.080   4.857   6.163
 4057SOL    HW224203   3.072   4.758   6.033
 4058SOL     OW24204   4.935   2.157   5.860
 4058SOL    HW124205   4.951   2.111   5.948
 4058SOL    HW224206   4.979   2.247   5.862
 4059SOL     OW24207   2.175   5.869   1.211
 4059SOL    HW124208   2.115   5.792   1.188
 4059SOL    HW224209   2.256   5.835   1.258
 4060SOL     OW24210   2.336   0.439   1.334
 4060SOL    HW124211   2.318   0.466   1.429
 4060SOL    HW224212   2.341   0.521   1.277
 4061SOL     OW24213   3.504   3.247   1.448
 4061SOL    HW124214   3.546   3.241   1.539
 4061SOL    HW224215   3.522   3.163   1.398
 4062SOL     OW24216   4.936   7.630   6.153
 4062SOL    HW124217   4.973   7.714   6.194
 4062SOL    HW224218   4.989   7.552   6.185
 4063SOL     OW24219   5.611   8.360   1.927
 4063SOL    HW124220   5.587   8.370   1.831
 4063SOL    HW224221   5.531   8.379   1.984
 4064SOL     OW24222   3.289   6.721   5.039
 4064SOL    HW124223   3.336   6.717   5.127
 4064SOL    HW224224   3.316   6.804   4.991
 4065SOL     OW24225   3.883   0.885   0.409
 4065SOL    HW124226   3.836   0.854   0.327
 4065SOL    HW224227   3.883   0.985   0.411
 4066SOL     OW24228   2.235   8.041   5.905
 4066SOL    HW124229   2.304   8.112   5.920
 4066SOL    HW224230   2.144   8.083   5.905
 4067SOL     OW24231   1.710   2.655   0.479
 4067SOL    HW124232   1.746   2.745   0.503
 4067SOL    HW224233   1.773   2.585   0.511
 4068SOL     OW24234   2.306   7.475   1.206
 4068SOL    HW124235   2.234   7.409   1.185
 4068SOL    HW224236   2.334   7.523   1.123
 4069SOL     OW24237   4.682   3.758   1.296
 4069SOL    HW124238   4.641   3.708   1.372
 4069SOL    HW224239   4.689   3.698   1.217
 4070SOL     OW24240   5.878   4.609   6.457
 4070SOL    HW124241   5.976   4.593   6.444
 4070SOL    HW224242   5.864   4.686   6.518
 4071SOL     OW24243   3.841   5.513   1.724
 4071SOL    HW124244   3.772   5.575   1.685
 4071SOL    HW224245   3.814   5.487   1.816
 4072SOL     OW24246   1.875   8.337   6.635
 4072SOL    HW124247   1.931   8.372   6.560
 4072SOL    HW224248   1.882   8.398   6.713
 4073SOL     OW24249   3.781  -0.006   1.824
 4073SOL    HW124250   3.799   0.006   1.726
 4073SOL    HW224251   3.786  -0.103   1.847
 4074SOL     OW24252   4.751   5.554   6.898
 4074SOL    HW124253   4.840   5.509   6.908
 4074SOL    HW224254   4.685   5.488   6.861
 4075SOL     OW24255   6.938   0.835   6.616
 4075SOL    HW124256   6.846   0.870   6.599
 4075SOL    HW224257   6.933   0.757   6.678
 4076SOL     OW24258   8.554   7.070   5.820
 4076SOL    HW124259   8.505   7.143   5.772
 4076SOL    HW224260   8.590   7.005   5.754
 4077SOL     OW24261   7.192   3.927   0.540
 4077SOL    HW124262   7.165   3.837   0.575
 4077SOL    HW224263   7.177   3.931   0.442
 4078SOL     OW24264   4.312   4.850   6.810
 4078SOL    HW124265   4.269   4.811   6.892
 4078SOL    HW224266   4.260   4.823   6.729
 4079SOL     OW24267   0.370   3.256   6.069
 4079SOL    HW124268   0.345   3.316   6.145
 4079SOL    HW224269   0.450   3.292   6.022
 4080SOL     OW24270   7.529   6.613   0.550
 4080SOL    HW124271   7.466   6.655   0.614
 4080SOL    HW224272   7.602   6.566   0.600
 4081SOL     OW24273   5.481   5.266   0.835
 4081SOL    HW124274   5.461   5.322   0.755
 4081SOL    HW224275   5.417   5.189   0.840
 4082SOL     OW24276   8.388   0.837   5.281
 4082SOL    HW124277   8.405   0.872   5.189
 4082SOL    HW224278   8.297   0.796   5.285
 4083SOL     OW24279   3.405   4.774   1.015
 4083SOL    HW124280   3.465   4.766   0.936
 4083SOL    HW224281   3.459   4.791   1.097
 4084SOL     OW24282   8.725   5.743   0.727
 4084SOL    HW124283   8.766   5.683   0.796
 4084SOL    HW224284   8.626   5.745   0.738
 4085SOL     OW24285   0.982   4.433   6.893
 4085SOL    HW124286   0.954   4.364   6.960
 4085SOL    HW224287   0.973   4.524   6.933
 4086SOL     OW24288   8.447   7.472   5.353
 4086SOL    HW124289   8.544   7.456   5.340
 4086SOL    HW224290   8.416   7.542   5.289
 4087SOL     OW24291   3.378   1.727   0.863
 4087SOL    HW124292   3.474   1.735   0.837
 4087SOL    HW224293   3.348   1.633   0.850
 4088SOL     OW24294   8.663   6.653   5.670
 4088SOL    HW124295   8.652   6.746   5.633
 4088SOL    HW224296   8.754   6.644   5.710
 4089SOL     OW24297   8.022   0.736   0.402
 4089SOL    HW124298   7.967   0.768   0.479
 4089SOL    HW224299   7.982   0.769   0.317
 4090SOL     OW24300   2.372   1.138   6.126
 4090SOL    HW124301   2.458   1.149   6.077
 4090SOL    HW224302   2.390   1.099   6.216
 4091SOL     OW24303   5.327   5.875   0.857
 4091SOL    HW124304   5.378   5.831   0.783
 4091SOL    HW224305   5.332   5.974   0.846
 4092SOL     OW24306   7.637   2.770   1.387
 4092SOL    HW124307   7.688   2.854   1.405
 4092SOL    HW224308   7.607   2.729   1.473
 4093SOL     OW24309   5.339   5.063   6.767
 4093SOL    HW124310   5.429   5.045   6.726
 4093SOL    HW224311   5.293   4.976   6.785
 4094SOL     OW24312   0.586   4.333   6.389
 4094SOL    HW124313   0.680   4.360   6.412
 4094SOL    HW224314   0.556   4.260   6.451
 4095SOL     OW24315   5.861   1.018   6.758
 4095SOL    HW124316   5.959   1.002   6.773
 4095SOL    HW224317   5.842   1.116   6.763
 4096SOL     OW24318   3.242   1.457   5.380
 4096SOL    HW124319   3.296   1.422   5.304
 4096SOL    HW224320   3.259   1.555   5.391
 4097SOL     OW24321   2.757   2.806   0.521
 4097SOL    HW124322   2.745   2.831   0.425
 4097SOL    HW224323   2.854   2.816   0.546
 4098SOL     OW24324   2.606   2.381   1.909
 4098SOL    HW124325   2.696   2.398   1.949
 4098SOL    HW224326   2.547   2.461   1.924
 4099SOL     OW24327   6.905   5.137   6.278
 4099SOL    HW124328   6.890   5.230   6.245
 4099SOL    HW224329   6.997   5.128   6.315
 4100SOL     OW24330   1.322   8.187   6.463
 4100SOL    HW124331   1.244   8.215   6.518
 4100SOL    HW224332   1.336   8.088   6.471
 4101SOL     OW24333   2.449   1.626   0.607
 4101SOL    HW124334   2.429   1.717   0.572
 4101SOL    HW224335   2.379   1.599   0.672
 4102SOL     OW24336   7.392   1.982   6.587
 4102SOL    HW124337   7.303   2.015   6.616
 4102SOL    HW224338   7.427   2.041   6.514
 4103SOL     OW24339   9.578   2.423   0.633
 4103SOL    HW124340   9.496   2.467   0.597
 4103SOL    HW224341   9.560   2.388   0.725
 4104SOL     OW24342   1.294   1.465   5.562
 4104SOL    HW124343   1.235   1.420   5.496
 4104SOL    HW224344   1.263   1.443   5.655
 4105SOL     OW24345   3.917   0.259   1.475
 4105SOL    HW124346   3.882   0.325   1.541
 4105SOL    HW224347   3.862   0.175   1.478
 4106SOL     OW24348   9.110   5.163   0.685
 4106SOL    HW124349   9.015   5.140   0.668
 4106SOL    HW224350   9.145   5.105   0.759
 4107SOL     OW24351   7.946   1.561   1.150
 4107SOL    HW124352   7.948   1.548   1.051
 4107SOL    HW224353   7.904   1.480   1.193
 4108SOL     OW24354   3.273   5.849   0.996
 4108SOL    HW124355   3.302   5.938   0.960
 4108SOL    HW224356   3.178   5.832   0.969
 4109SOL     OW24357   8.646   7.408   6.027
 4109SOL    HW124358   8.684   7.365   5.945
 4109SOL    HW224359   8.709   7.395   6.104
 4110SOL     OW24360   4.486   1.135   2.239
 4110SOL    HW124361   4.535   1.132   2.327
 4110SOL    HW224362   4.418   1.062   2.237
 4111SOL     OW24363   3.807   2.852   6.105
 4111SOL    HW124364   3.848   2.871   6.016
 4111SOL    HW224365   3.730   2.914   6.120
 4112SOL     OW24366   5.296   3.203   6.885
 4112SOL    HW124367   5.304   3.144   6.805
 4112SOL    HW224368   5.387   3.229   6.917
 4113SOL     OW24369   4.517   5.627   6.417
 4113SOL    HW124370   4.429   5.597   6.380
 4113SOL    HW224371   4.581   5.643   6.341
 4114SOL     OW24372   1.895   2.214   1.805
 4114SOL    HW124373   1.798   2.206   1.783
 4114SOL    HW224374   1.906   2.216   1.904
 4115SOL     OW24375   8.158   7.556   5.699
 4115SOL    HW124376   8.179   7.461   5.724
 4115SOL    HW224377   8.207   7.580   5.614
 4116SOL     OW24378   4.646   0.263   0.899
 4116SOL    HW124379   4.558   0.220   0.917
 4116SOL    HW224380   4.701   0.205   0.840
 4117SOL     OW24381   1.468   0.668   6.626
 4117SOL    HW124382   1.486   0.588   6.568
 4117SOL    HW224383   1.371   0.671   6.649
 4118SOL     OW24384   0.718   4.845   6.050
 4118SOL    HW124385   0.787   4.880   5.987
 4118SOL    HW224386   0.643   4.804   5.998
 4119SOL     OW24387   8.643   1.063   5.195
 4119SOL    HW124388   8.622   0.997   5.123
 4119SOL    HW224389   8.672   1.149   5.153
 4120SOL     OW24390   4.895   8.429   6.581
 4120SOL    HW124391   4.953   8.509   6.565
 4120SOL    HW224392   4.847   8.406   6.496
 4121SOL     OW24393   0.720   4.362   1.596
 4121SOL    HW124394   0.761   4.305   1.667
 4121SOL    HW224395   0.627   4.387   1.622
 4122SOL     OW24396   6.590   3.522   6.266
 4122SOL    HW124397   6.619   3.567   6.351
 4122SOL    HW224398   6.549   3.590   6.205
 4123SOL     OW24399   3.960   4.573   6.444
 4123SOL    HW124400   4.019   4.651   6.424
 4123SOL    HW224401   3.885   4.570   6.378
 4124SOL     OW24402   0.735   6.795   5.381
 4124SOL    HW124403   0.684   6.709   5.367
 4124SOL    HW224404   0.674   6.872   5.363
 4125SOL     OW24405   2.939   0.197   4.913
 4125SOL    HW124406   2.874   0.148   4.855
 4125SOL    HW224407   3.015   0.137   4.937
 4126SOL     OW24408   0.639   2.287   0.809
 4126SOL    HW124409   0.642   2.187   0.799
 4126SOL    HW224410   0.702   2.315   0.882
 4127SOL     OW24411   2.527   5.410   1.363
 4127SOL    HW124412   2.493   5.485   1.421
 4127SOL    HW224413   2.619   5.431   1.332
 4128SOL     OW24414   4.336   3.428   1.331
 4128SOL    HW124415   4.289   3.370   1.397
 4128SOL    HW224416   4.310   3.400   1.238
 4129SOL     OW24417   1.537   5.285   0.976
 4129SOL    HW124418   1.568   5.339   0.898
 4129SOL    HW224419   1.499   5.198   0.944
 4130SOL     OW24420   5.192   4.422   1.847
 4130SOL    HW124421   5.247   4.394   1.926
 4130SOL    HW224422   5.158   4.341   1.800
 4131SOL     OW24423   6.197   3.180   1.483
 4131SOL    HW124424   6.166   3.275   1.493
 4131SOL    HW224425   6.138   3.120   1.536
 4132SOL     OW24426   0.908   6.721   6.102
 4132SOL    HW124427   0.939   6.737   6.008
 4132SOL    HW224428   0.881   6.625   6.112
 4133SOL     OW24429   2.442   8.090   1.796
 4133SOL    HW124430   2.504   8.028   1.845
 4133SOL    HW224431   2.400   8.153   1.862
 4134SOL     OW24432   3.289   5.001   1.490
 4134SOL    HW124433   3.286   4.919   1.433
 4134SOL    HW224434   3.373   5.053   1.470
 4135SOL     OW24435   2.629   6.577   5.755
 4135SOL    HW124436   2.624   6.649   5.824
 4135SOL    HW224437   2.540   6.531   5.748
 4136SOL     OW24438   9.053   0.172   6.044
 4136SOL    HW124439   9.084   0.170   6.139
 4136SOL    HW224440   9.095   0.250   5.998
 4137SOL     OW24441   5.809   4.778   6.672
 4137SOL    HW124442   5.736   4.737   6.727
 4137SOL    HW224443   5.897   4.763   6.716
 4138SOL     OW24444   8.806   7.501   5.695
 4138SOL    HW124445   8.710   7.530   5.699
 4138SOL    HW224446   8.813   7.405   5.722
 4139SOL     OW24447   1.762   1.120   5.326
 4139SOL    HW124448   1.811   1.115   5.239
 4139SOL    HW224449   1.670   1.083   5.315
 4140SOL     OW24450   5.944   0.413   0.883
 4140SOL    HW124451   5.889   0.334   0.856
 4140SOL    HW224452   5.908   0.495   0.838
 4141SOL     OW24453   8.122   6.044   1.285
 4141SOL    HW124454   8.034   6.067   1.245
 4141SOL    HW224455   8.112   5.964   1.345
 4142SOL     OW24456   3.249   6.255   1.894
 4142SOL    HW124457   3.252   6.215   1.986
 4142SOL    HW224458   3.270   6.353   1.900
 4143SOL     OW24459   0.452   4.305   6.870
 4143SOL    HW124460   0.384   4.250   6.821
 4143SOL    HW224461   0.535   4.251   6.883
 4144SOL     OW24462   3.760   5.670   0.438
 4144SOL    HW124463   3.697   5.593   0.447
 4144SOL    HW224464   3.723   5.735   0.371
 4145SOL     OW24465   5.092   3.370   6.797
 4145SOL    HW124466   5.157   3.299   6.823
 4145SOL    HW224467   5.065   3.423   6.878
 4146SOL     OW24468   3.560   7.896   1.628
 4146SOL    HW124469   3.613   7.977   1.654
 4146SOL    HW224470   3.492   7.876   1.698
 4147SOL     OW24471   8.848   6.733   6.330
 4147SOL    HW124472   8.876   6.764   6.239
 4147SOL    HW224473   8.748   6.736   6.337
 4148SOL     OW24474   9.218   4.089   6.775
 4148SOL    HW124475   9.212   4.138   6.688
 4148SOL    HW224476   9.314   4.082   6.803
 4149SOL     OW24477   1.720   7.582   1.230
 4149SOL    HW124478   1.809   7.539   1.219
 4149SOL    HW224479   1.730   7.671   1.273
 4150SOL     OW24480   8.820   5.577   0.918
 4150SOL    HW124481   8.893   5.543   0.859
 4150SOL    HW224482   8.855   5.591   1.010
 4151SOL     OW24483   4.851   0.752   0.825
 4151SOL    HW124484   4.789   0.812   0.775
 4151SOL    HW224485   4.804   0.715   0.906
 4152SOL     OW24486   7.590   4.389   0.627
 4152SOL    HW124487   7.607   4.293   0.605
 4152SOL    HW224488   7.673   4.442   0.613
 4153SOL     OW24489   8.402   5.125   0.778
 4153SOL    HW124490   8.490   5.107   0.822
 4153SOL    HW224491   8.415   5.187   0.701
 4154SOL     OW24492   4.181   8.130   0.246
 4154SOL    HW124493   4.257   8.070   0.272
 4154SOL    HW224494   4.211   8.188   0.170
 4155SOL     OW24495   7.237   6.381   6.615
 4155SOL    HW124496   7.171   6.308   6.598
 4155SOL    HW224497   7.307   6.380   6.543
 4156SOL     OW24498   4.705   5.765   2.008
 4156SOL    HW124499   4.802   5.788   2.009
 4156SOL    HW224500   4.686   5.697   2.079
 4157SOL     OW24501   1.007   6.686   2.086
 4157SOL    HW124502   1.092   6.715   2.041
 4157SOL    HW224503   0.977   6.599   2.047
 4158SOL     OW24504   8.077   8.325   5.516
 4158SOL    HW124505   8.152   8.305   5.453
 4158SOL    HW224506   7.996   8.353   5.464
 4159SOL     OW24507   3.763   4.616   6.263
 4159SOL    HW124508   3.732   4.711   6.264
 4159SOL    HW224509   3.802   4.593   6.174
 4160SOL     OW24510   7.422   0.242   0.583
 4160SOL    HW124511   7.425   0.340   0.604
 4160SOL    HW224512   7.439   0.190   0.666
 4161SOL     OW24513   5.974   6.194   0.623
 4161SOL    HW124514   5.995   6.142   0.706
 4161SOL    HW224515   6.038   6.270   0.614
 4162SOL     OW24516   8.939   5.126   1.034
 4162SOL    HW124517   8.951   5.211   1.084
 4162SOL    HW224518   8.867   5.072   1.077
 4163SOL     OW24519   7.237   3.729   5.682
 4163SOL    HW124520   7.166   3.693   5.743
 4163SOL    HW224521   7.240   3.674   5.599
 4164SOL     OW24522   8.201   3.878   1.339
 4164SOL    HW124523   8.262   3.803   1.364
 4164SOL    HW224524   8.108   3.858   1.371
 4165SOL     OW24525   5.477   5.502   0.287
 4165SOL    HW124526   5.466   5.433   0.357
 4165SOL    HW224527   5.457   5.592   0.325
 4166SOL     OW24528   5.977   8.281   6.895
 4166SOL    HW124529   5.987   8.349   6.822
 4166SOL    HW224530   6.058   8.222   6.896
 4167SOL     OW24531   3.285   2.541   0.355
 4167SOL    HW124532   3.274   2.638   0.332
 4167SOL    HW224533   3.206   2.490   0.322
 4168SOL     OW24534   6.796   1.607   6.229
 4168SOL    HW124535   6.720   1.621   6.292
 4168SOL    HW224536   6.771   1.539   6.160
 4169SOL     OW24537   0.181   1.909   6.165
 4169SOL    HW124538   0.103   1.972   6.173
 4169SOL    HW224539   0.174   1.859   6.078
 4170SOL     OW24540   2.569   1.231   0.800
 4170SOL    HW124541   2.644   1.262   0.742
 4170SOL    HW224542   2.601   1.225   0.895
 4171SOL     OW24543   6.949   6.627   5.643
 4171SOL    HW124544   6.906   6.692   5.581
 4171SOL    HW224545   7.048   6.641   5.644
 4172SOL     OW24546   5.504   4.626   2.092
 4172SOL    HW124547   5.461   4.716   2.084
 4172SOL    HW224548   5.439   4.555   2.062
 4173SOL     OW24549   4.217   6.525   6.772
 4173SOL    HW124550   4.242   6.540   6.676
 4173SOL    HW224551   4.272   6.450   6.809
 4174SOL     OW24552   3.593   6.557   0.386
 4174SOL    HW124553   3.642   6.640   0.414
 4174SOL    HW224554   3.523   6.580   0.318
 4175SOL     OW24555   3.097   3.396   6.739
 4175SOL    HW124556   3.109   3.305   6.700
 4175SOL    HW224557   3.001   3.421   6.737
 4176SOL     OW24558   6.744   4.285   6.872
 4176SOL    HW124559   6.834   4.327   6.865
 4176SOL    HW224560   6.674   4.356   6.872
 4177SOL     OW24561   7.294  -0.063   5.483
 4177SOL    HW124562   7.199  -0.081   5.459
 4177SOL    HW224563   7.350  -0.061   5.400
 4178SOL     OW24564   1.599   6.060   0.376
 4178SOL    HW124565   1.668   6.058   0.448
 4178SOL    HW224566   1.643   6.058   0.286
 4179SOL     OW24567   6.130   7.288   5.900
 4179SOL    HW124568   6.176   7.215   5.848
 4179SOL    HW224569   6.032   7.284   5.881
 4180SOL     OW24570   7.911   2.125   6.670
 4180SOL    HW124571   7.922   2.212   6.620
 4180SOL    HW224572   7.990   2.112   6.730
 4181SOL     OW24573   4.418   1.012   5.738
 4181SOL    HW124574   4.359   1.006   5.819
 4181SOL    HW224575   4.403   0.933   5.679
 4182SOL     OW24576   1.196   5.216   6.086
 4182SOL    HW124577   1.209   5.297   6.029
 4182SOL    HW224578   1.099   5.190   6.085
 4183SOL     OW24579   7.655   5.282   6.514
 4183SOL    HW124580   7.581   5.215   6.514
 4183SOL    HW224581   7.725   5.254   6.579
 4184SOL     OW24582   1.917   6.641   5.643
 4184SOL    HW124583   1.856   6.640   5.723
 4184SOL    HW224584   1.873   6.591   5.568
 4185SOL     OW24585   5.417   7.989   5.839
 4185SOL    HW124586   5.447   8.079   5.872
 4185SOL    HW224587   5.371   8.000   5.752
 4186SOL     OW24588   3.696   6.921   6.151
 4186SOL    HW124589   3.763   6.849   6.166
 4186SOL    HW224590   3.627   6.888   6.086
 4187SOL     OW24591   1.324   1.898   0.533
 4187SOL    HW124592   1.412   1.946   0.523
 4187SOL    HW224593   1.249   1.963   0.522
 4188SOL     OW24594   8.909   6.030   5.209
 4188SOL    HW124595   8.845   5.984   5.271
 4188SOL    HW224596   8.963   5.962   5.160
 4189SOL     OW24597   3.164   4.331   0.645
 4189SOL    HW124598   3.086   4.385   0.613
 4189SOL    HW224599   3.224   4.310   0.568
 4190SOL     OW24600   3.190   4.892   6.813
 4190SOL    HW124601   3.101   4.908   6.857
 4190SOL    HW224602   3.243   4.827   6.867
 4191SOL     OW24603   6.257   2.397   6.172
 4191SOL    HW124604   6.204   2.335   6.116
 4191SOL    HW224605   6.224   2.395   6.266
 4192SOL     OW24606   1.222   3.895   0.450
 4192SOL    HW124607   1.322   3.893   0.441
 4192SOL    HW224608   1.196   3.866   0.542
 4193SOL     OW24609   0.561   7.990   1.647
 4193SOL    HW124610   0.535   8.085   1.665
 4193SOL    HW224611   0.525   7.932   1.720
 4194SOL     OW24612   2.398   7.782   5.207
 4194SOL    HW124613   2.473   7.837   5.168
 4194SOL    HW224614   2.355   7.728   5.135
 4195SOL     OW24615   0.877   1.528   5.974
 4195SOL    HW124616   0.882   1.624   5.947
 4195SOL    HW224617   0.803   1.516   6.040
 4196SOL     OW24618   0.933   4.110   1.560
 4196SOL    HW124619   0.895   4.127   1.650
 4196SOL    HW224620   0.944   4.011   1.546
 4197SOL     OW24621   3.266   4.982   6.581
 4197SOL    HW124622   3.354   5.027   6.596
 4197SOL    HW224623   3.232   4.946   6.668
 4198SOL     OW24624   1.745   8.266   5.749
 4198SOL    HW124625   1.767   8.306   5.659
 4198SOL    HW224626   1.830   8.250   5.799
 4199SOL     OW24627   0.315   4.980   5.453
 4199SOL    HW124628   0.281   4.997   5.361
 4199SOL    HW224629   0.272   4.898   5.491
 4200SOL     OW24630   6.704   5.261   6.703
 4200SOL    HW124631   6.625   5.281   6.761
 4200SOL    HW224632   6.757   5.345   6.687
 4201SOL     OW24633   3.464   3.072   6.563
 4201SOL    HW124634   3.448   3.083   6.661
 4201SOL    HW224635   3.546   3.017   6.549
 4202SOL     OW24636   0.383   6.368   4.850
 4202SOL    HW124637   0.397   6.450   4.795
 4202SOL    HW224638   0.466   6.312   4.850
 4203SOL     OW24639   9.271   5.001   5.581
 4203SOL    HW124640   9.180   5.038   5.562
 4203SOL    HW224641   9.309   4.960   5.498
 4204SOL     OW24642   4.371   7.699   1.064
 4204SOL    HW124643   4.325   7.634   1.125
 4204SOL    HW224644   4.307   7.732   0.996
 4205SOL     OW24645   7.821   2.832   6.788
 4205SOL    HW124646   7.920   2.838   6.805
 4205SOL    HW224647   7.805   2.811   6.692
 4206SOL     OW24648   2.885   6.947   5.943
 4206SOL    HW124649   2.851   6.956   6.037
 4206SOL    HW224650   2.849   7.023   5.888
 4207SOL     OW24651   3.572   2.998   2.081
 4207SOL    HW124652   3.525   3.084   2.062
 4207SOL    HW224653   3.529   2.953   2.160
 4208SOL     OW24654   7.854   3.969   0.981
 4208SOL    HW124655   7.935   4.018   1.014
 4208SOL    HW224656   7.854   3.967   0.881
 4209SOL     OW24657   4.079   5.411   1.563
 4209SOL    HW124658   4.001   5.444   1.617
 4209SOL    HW224659   4.109   5.322   1.598
 4210SOL     OW24660   8.581   2.365   1.282
 4210SOL    HW124661   8.486   2.350   1.311
 4210SOL    HW224662   8.622   2.437   1.337
 4211SOL     OW24663   6.863   5.697   1.029
 4211SOL    HW124664   6.773   5.731   1.001
 4211SOL    HW224665   6.863   5.597   1.028
 4212SOL     OW24666   7.889   3.608   6.133
 4212SOL    HW124667   7.953   3.586   6.059
 4212SOL    HW224668   7.806   3.649   6.094
 4213SOL     OW24669   0.321   6.856   5.519
 4213SOL    HW124670   0.360   6.810   5.440
 4213SOL    HW224671   0.274   6.789   5.576
 4214SOL     OW24672   5.865   8.383   1.188
 4214SOL    HW124673   5.845   8.472   1.146
 4214SOL    HW224674   5.955   8.385   1.230
 4215SOL     OW24675   5.185   6.556   1.711
 4215SOL    HW124676   5.252   6.485   1.687
 4215SOL    HW224677   5.217   6.645   1.679
 4216SOL     OW24678   1.318   5.618   0.232
 4216SOL    HW124679   1.260   5.577   0.161
 4216SOL    HW224680   1.347   5.709   0.202
 4217SOL     OW24681   2.162   0.259   1.188
 4217SOL    HW124682   2.229   0.314   1.239
 4217SOL    HW224683   2.072   0.267   1.231
 4218SOL     OW24684   4.513   0.407   6.286
 4218SOL    HW124685   4.506   0.490   6.231
 4218SOL    HW224686   4.568   0.339   6.238
 4219SOL     OW24687   8.306   7.602   0.799
 4219SOL    HW124688   8.354   7.573   0.717
 4219SOL    HW224689   8.293   7.702   0.797
 4220SOL     OW24690   0.875   6.525   4.724
 4220SOL    HW124691   0.878   6.428   4.698
 4220SOL    HW224692   0.924   6.537   4.811
 4221SOL     OW24693   2.277   7.619   6.260
 4221SOL    HW124694   2.294   7.714   6.235
 4221SOL    HW224695   2.185   7.593   6.229
 4222SOL     OW24696   4.919   3.654   1.898
 4222SOL    HW124697   4.863   3.588   1.948
 4222SOL    HW224698   4.996   3.682   1.956
 4223SOL     OW24699   2.127   1.234   0.232
 4223SOL    HW124700   2.112   1.327   0.200
 4223SOL    HW224701   2.218   1.227   0.273
 4224SOL     OW24702   2.619   2.699   1.078
 4224SOL    HW124703   2.579   2.765   1.014
 4224SOL    HW224704   2.545   2.647   1.121
 4225SOL     OW24705   7.223   1.098   1.592
 4225SOL    HW124706   7.173   1.143   1.665
 4225SOL    HW224707   7.321   1.113   1.605
 4226SOL     OW24708   3.820   7.794   6.866
 4226SOL    HW124709   3.790   7.703   6.897
 4226SOL    HW224710   3.770   7.818   6.783
 4227SOL     OW24711   3.328   1.359   5.846
 4227SOL    HW124712   3.302   1.315   5.760
 4227SOL    HW224713   3.251   1.413   5.880
 4228SOL     OW24714   4.213   2.236   6.311
 4228SOL    HW124715   4.189   2.272   6.221
 4228SOL    HW224716   4.162   2.152   6.329
 4229SOL     OW24717   7.151   0.338   0.320
 4229SOL    HW124718   7.183   0.268   0.255
 4229SOL    HW224719   7.218   0.412   0.324
 4230SOL     OW24720   6.295   6.598   6.314
 4230SOL    HW124721   6.323   6.693   6.316
 4230SOL    HW224722   6.253   6.573   6.402
 4231SOL     OW24723   4.355   2.409   1.422
 4231SOL    HW124724   4.416   2.484   1.396
 4231SOL    HW224725   4.407   2.324   1.428
 4232SOL     OW24726   0.831   3.188   0.517
 4232SOL    HW124727   0.887   3.199   0.599
 4232SOL    HW224728   0.742   3.231   0.531
 4233SOL     OW24729   8.966   2.567   1.210
 4233SOL    HW124730   9.063   2.590   1.195
 4233SOL    HW224731   8.959   2.473   1.242
 4234SOL     OW24732   7.896   2.990   0.705
 4234SOL    HW124733   7.907   3.002   0.804
 4234SOL    HW224734   7.881   3.079   0.662
 4235SOL     OW24735   1.253   8.058   0.807
 4235SOL    HW124736   1.310   8.042   0.887
 4235SOL    HW224737   1.280   7.996   0.733
 4236SOL     OW24738   9.001   7.761   0.579
 4236SOL    HW124739   9.034   7.854   0.562
 4236SOL    HW224740   9.037   7.729   0.667
 4237SOL     OW24741   8.804   4.158   6.013
 4237SOL    HW124742   8.771   4.101   6.088
 4237SOL    HW224743   8.773   4.119   5.926
 4238SOL     OW24744   9.032   3.663   5.778
 4238SOL    HW124745   9.005   3.593   5.712
 4238SOL    HW224746   9.101   3.723   5.738
 4239SOL     OW24747   7.360   6.076   5.878
 4239SOL    HW124748   7.346   5.988   5.833
 4239SOL    HW224749   7.377   6.146   5.809
 4240SOL     OW24750   7.077   5.469   0.681
 4240SOL    HW124751   7.149   5.450   0.747
 4240SOL    HW224752   7.018   5.389   0.672
 4241SOL     OW24753   3.069   4.873   0.321
 4241SOL    HW124754   3.115   4.801   0.373
 4241SOL    HW224755   2.994   4.910   0.375
 4242SOL     OW24756   5.780   6.653   2.398
 4242SOL    HW124757   5.811   6.746   2.415
 4242SOL    HW224758   5.858   6.590   2.399
 4243SOL     OW24759   1.453   7.966   6.195
 4243SOL    HW124760   1.447   8.065   6.185
 4243SOL    HW224761   1.424   7.922   6.110
 4244SOL     OW24762   1.887   3.576   5.981
 4244SOL    HW124763   1.875   3.515   5.903
 4244SOL    HW224764   1.829   3.657   5.970
 4245SOL     OW24765   5.053   6.884   6.603
 4245SOL    HW124766   5.033   6.916   6.696
 4245SOL    HW224767   5.148   6.853   6.598
 4246SOL     OW24768   0.173   2.604   6.727
 4246SOL    HW124769   0.186   2.510   6.757
 4246SOL    HW224770   0.092   2.610   6.669
 4247SOL     OW24771   5.814   1.542   6.655
 4247SOL    HW124772   5.821   1.642   6.653
 4247SOL    HW224773   5.904   1.503   6.678
 4248SOL     OW24774   9.445   2.086   6.508
 4248SOL    HW124775   9.438   2.167   6.450
 4248SOL    HW224776   9.515   2.101   6.578
 4249SOL     OW24777   1.076   1.761   6.663
 4249SOL    HW124778   1.090   1.685   6.726
 4249SOL    HW224779   1.009   1.735   6.594
 4250SOL     OW24780   7.397   7.380   0.592
 4250SOL    HW124781   7.479   7.326   0.611
 4250SOL    HW224782   7.412   7.435   0.509
 4251SOL     OW24783   1.785   3.236   0.385
 4251SOL    HW124784   1.696   3.213   0.346
 4251SOL    HW224785   1.841   3.280   0.314
 4252SOL     OW24786   7.394   3.047   1.004
 4252SOL    HW124787   7.481   3.088   1.032
 4252SOL    HW224788   7.345   3.014   1.084
 4253SOL     OW24789   8.399   2.280   0.971
 4253SOL    HW124790   8.370   2.215   0.901
 4253SOL    HW224791   8.495   2.263   0.994
 4254SOL     OW24792   4.267   2.754   0.214
 4254SOL    HW124793   4.207   2.698   0.158
 4254SOL    HW224794   4.362   2.726   0.201
 4255SOL     OW24795   2.901   2.288   1.293
 4255SOL    HW124796   2.857   2.366   1.337
 4255SOL    HW224797   2.928   2.313   1.200
 4256SOL     OW24798   2.250   3.380   6.537
 4256SOL    HW124799   2.292   3.444   6.472
 4256SOL    HW224800   2.292   3.290   6.526
 4257SOL     OW24801   4.319   5.403   2.044
 4257SOL    HW124802   4.326   5.303   2.037
 4257SOL    HW224803   4.253   5.427   2.115
 4258SOL     OW24804   5.317   0.353   0.502
 4258SOL    HW124805   5.238   0.412   0.488
 4258SOL    HW224806   5.289   0.257   0.499
 4259SOL     OW24807   8.051   6.354   0.770
 4259SOL    HW124808   7.990   6.275   0.761
 4259SOL    HW224809   8.122   6.333   0.838
 4260SOL     OW24810   8.073   2.441   0.874
 4260SOL    HW124811   8.158   2.470   0.832
 4260SOL    HW224812   8.017   2.393   0.806
 4261SOL     OW24813   7.042   6.575   1.159
 4261SOL    HW124814   7.084   6.611   1.076
 4261SOL    HW224815   6.944   6.564   1.145
 4262SOL     OW24816   7.251   0.269   0.957
 4262SOL    HW124817   7.323   0.224   0.903
 4262SOL    HW224818   7.166   0.271   0.904
 4263SOL     OW24819   3.631   6.829   1.851
 4263SOL    HW124820   3.720   6.862   1.821
 4263SOL    HW224821   3.642   6.775   1.934
 4264SOL     OW24822   9.295   7.774   5.718
 4264SOL    HW124823   9.317   7.870   5.734
 4264SOL    HW224824   9.204   7.755   5.754
 4265SOL     OW24825   3.541   7.349   6.348
 4265SOL    HW124826   3.544   7.252   6.325
 4265SOL    HW224827   3.579   7.403   6.272
 4266SOL     OW24828   5.451   1.138   0.352
 4266SOL    HW124829   5.369   1.089   0.380
 4266SOL    HW224830   5.532   1.086   0.378
 4267SOL     OW24831   0.432   7.520   4.982
 4267SOL    HW124832   0.422   7.605   4.931
 4267SOL    HW224833   0.519   7.476   4.957
 4268SOL     OW24834   3.437   1.729   5.890
 4268SOL    HW124835   3.426   1.760   5.795
 4268SOL    HW224836   3.513   1.779   5.932
 4269SOL     OW24837   3.387   3.917   1.310
 4269SOL    HW124838   3.342   3.870   1.386
 4269SOL    HW224839   3.370   3.868   1.225
 4270SOL     OW24840   4.529   7.702   2.368
 4270SOL    HW124841   4.544   7.795   2.402
 4270SOL    HW224842   4.526   7.704   2.268
 4271SOL     OW24843   3.706   4.950   5.140
 4271SOL    HW124844   3.697   4.952   5.041
 4271SOL    HW224845   3.653   5.024   5.181
 4272SOL     OW24846   8.633   5.552   0.278
 4272SOL    HW124847   8.613   5.471   0.223
 4272SOL    HW224848   8.627   5.634   0.221
 4273SOL     OW24849   6.279   2.866   6.397
 4273SOL    HW124850   6.378   2.865   6.379
 4273SOL    HW224851   6.233   2.801   6.336
 4274SOL     OW24852   0.430   2.520   0.304
 4274SOL    HW124853   0.382   2.599   0.266
 4274SOL    HW224854   0.364   2.457   0.343
 4275SOL     OW24855   1.234   4.838   6.016
 4275SOL    HW124856   1.261   4.873   5.926
 4275SOL    HW224857   1.188   4.911   6.067
 4276SOL     OW24858   1.393   0.238   1.000
 4276SOL    HW124859   1.345   0.273   0.919
 4276SOL    HW224860   1.469   0.181   0.972
 4277SOL     OW24861   5.346   7.051   6.323
 4277SOL    HW124862   5.395   6.993   6.389
 4277SOL    HW224863   5.408   7.076   6.249
 4278SOL     OW24864   2.990   7.858   5.943
 4278SOL    HW124865   2.937   7.777   5.967
 4278SOL    HW224866   2.928   7.934   5.922
 4279SOL     OW24867   5.766   6.250   0.948
 4279SOL    HW124868   5.669   6.264   0.929
 4279SOL    HW224869   5.806   6.192   0.877
 4280SOL     OW24870   2.895   0.196   5.517
 4280SOL    HW124871   2.968   0.160   5.458
 4280SOL    HW224872   2.936   0.249   5.592
 4281SOL     OW24873   7.038   6.100   1.481
 4281SOL    HW124874   7.135   6.080   1.488
 4281SOL    HW224875   6.987   6.015   1.465
 4282SOL     OW24876   8.297   8.260   1.454
 4282SOL    HW124877   8.355   8.254   1.535
 4282SOL    HW224878   8.207   8.295   1.479
 4283SOL     OW24879   2.464   7.138   6.594
 4283SOL    HW124880   2.396   7.075   6.556
 4283SOL    HW224881   2.421   7.197   6.662
 4284SOL     OW24882   0.688   6.400   4.501
 4284SOL    HW124883   0.716   6.387   4.406
 4284SOL    HW224884   0.767   6.387   4.561
 4285SOL     OW24885   5.869   5.872   2.014
 4285SOL    HW124886   5.856   5.774   2.033
 4285SOL    HW224887   5.966   5.894   2.014
 4286SOL     OW24888   2.360   8.073   0.312
 4286SOL    HW124889   2.412   8.013   0.373
 4286SOL    HW224890   2.373   8.168   0.339
 4287SOL     OW24891   8.556   7.092   6.596
 4287SOL    HW124892   8.560   7.192   6.602
 4287SOL    HW224893   8.588   7.062   6.506
 4288SOL     OW24894   6.894   0.949   6.309
 4288SOL    HW124895   6.835   0.883   6.354
 4288SOL    HW224896   6.987   0.911   6.302
 4289SOL     OW24897   9.108   6.132   6.930
 4289SOL    HW124898   9.115   6.049   6.986
 4289SOL    HW224899   9.080   6.209   6.988
 4290SOL     OW24900   4.092   0.007   5.952
 4290SOL    HW124901   4.047   0.096   5.961
 4290SOL    HW224902   4.114  -0.009   5.856
 4291SOL     OW24903   6.252   6.911   6.887
 4291SOL    HW124904   6.205   6.824   6.904
 4291SOL    HW224905   6.335   6.914   6.943
 4292SOL     OW24906   1.164   1.900   6.932
 4292SOL    HW124907   1.083   1.923   6.879
 4292SOL    HW224908   1.155   1.808   6.970
 4293SOL     OW24909   0.410   8.008   6.220
 4293SOL    HW124910   0.329   7.956   6.251
 4293SOL    HW224911   0.432   8.078   6.288
 4294SOL     OW24912   5.423   0.116   5.339
 4294SOL    HW124913   5.382   0.134   5.250
 4294SOL    HW224914   5.465   0.199   5.374
 4295SOL     OW24915   4.660   0.850   0.238
 4295SOL    HW124916   4.742   0.864   0.182
 4295SOL    HW224917   4.643   0.932   0.293
 4296SOL     OW24918   3.900   3.066   0.397
 4296SOL    HW124919   3.938   2.974   0.390
 4296SOL    HW224920   3.955   3.129   0.342
 4297SOL     OW24921   8.794   4.819   6.660
 4297SOL    HW124922   8.856   4.781   6.728
 4297SOL    HW224923   8.766   4.911   6.688
 4298SOL     OW24924   6.079   1.500   6.138
 4298SOL    HW124925   6.001   1.438   6.134
 4298SOL    HW224926   6.093   1.541   6.048
 4299SOL     OW24927   3.920   6.255   5.986
 4299SOL    HW124928   3.994   6.225   5.927
 4299SOL    HW224929   3.934   6.352   6.010
 4300SOL     OW24930   0.387   5.481   5.827
 4300SOL    HW124931   0.383   5.581   5.837
 4300SOL    HW224932   0.481   5.453   5.808
 4301SOL     OW24933   3.764   1.959   0.984
 4301SOL    HW124934   3.803   2.005   0.904
 4301SOL    HW224935   3.828   1.889   1.016
 4302SOL     OW24936   8.419   6.525   5.746
 4302SOL    HW124937   8.496   6.583   5.720
 4302SOL    HW224938   8.453   6.433   5.767
 4303SOL     OW24939   9.306   7.873   6.281
 4303SOL    HW124940   9.387   7.854   6.225
 4303SOL    HW224941   9.292   7.971   6.287
 4304SOL     OW24942   4.354   2.060   0.274
 4304SOL    HW124943   4.346   2.159   0.261
 4304SOL    HW224944   4.281   2.014   0.223
 4305SOL     OW24945   8.355   6.851   0.941
 4305SOL    HW124946   8.360   6.793   1.022
 4305SOL    HW224947   8.307   6.802   0.868
 4306SOL     OW24948   9.317   3.446   1.591
 4306SOL    HW124949   9.273   3.372   1.643
 4306SOL    HW224950   9.287   3.534   1.628
 4307SOL     OW24951   5.919   6.787   1.290
 4307SOL    HW124952   5.917   6.768   1.388
 4307SOL    HW224953   5.954   6.707   1.241
 4308SOL     OW24954   4.639   7.611   0.997
 4308SOL    HW124955   4.547   7.643   1.019
 4308SOL    HW224956   4.639   7.511   0.995
 4309SOL     OW24957   2.990   7.381   5.762
 4309SOL    HW124958   3.038   7.332   5.689
 4309SOL    HW224959   3.045   7.377   5.845
 4310SOL     OW24960   4.452   1.783   1.888
 4310SOL    HW124961   4.478   1.858   1.948
 4310SOL    HW224962   4.393   1.719   1.937
 4311SOL     OW24963   9.339   5.481   5.045
 4311SOL    HW124964   9.415   5.479   4.980
 4311SOL    HW224965   9.254   5.502   4.996
 4312SOL     OW24966   4.617   5.186   0.988
 4312SOL    HW124967   4.555   5.249   0.941
 4312SOL    HW224968   4.603   5.193   1.087
 4313SOL     OW24969   0.694   1.231   6.543
 4313SOL    HW124970   0.632   1.230   6.464
 4313SOL    HW224971   0.780   1.187   6.518
 4314SOL     OW24972   8.084   6.880   5.158
 4314SOL    HW124973   8.028   6.962   5.172
 4314SOL    HW224974   8.024   6.801   5.146
 4315SOL     OW24975   3.857   6.016   0.773
 4315SOL    HW124976   3.911   6.098   0.785
 4315SOL    HW224977   3.780   6.016   0.838
 4316SOL     OW24978   8.853   6.279   6.006
 4316SOL    HW124979   8.815   6.194   6.043
 4316SOL    HW224980   8.938   6.302   6.055
 4317SOL     OW24981   3.885   7.334   2.601
 4317SOL    HW124982   3.916   7.239   2.599
 4317SOL    HW224983   3.898   7.372   2.693
 4318SOL     OW24984   9.098   2.813   0.960
 4318SOL    HW124985   9.142   2.801   0.872
 4318SOL    HW224986   9.143   2.755   1.029
 4319SOL     OW24987   7.067   5.520   5.328
 4319SOL    HW124988   7.076   5.503   5.426
 4319SOL    HW224989   7.016   5.605   5.313
 4320SOL     OW24990   4.587   5.235   1.256
 4320SOL    HW124991   4.490   5.214   1.268
 4320SOL    HW224992   4.601   5.333   1.269
 4321SOL     OW24993   6.213   4.636   5.861
 4321SOL    HW124994   6.165   4.560   5.817
 4321SOL    HW224995   6.198   4.633   5.960
 4322SOL     OW24996   1.381   6.823   4.544
 4322SOL    HW124997   1.429   6.836   4.457
 4322SOL    HW224998   1.346   6.729   4.549
 4323SOL     OW24999   2.971   0.809   5.929
 4323SOL    HW125000   2.919   0.784   5.847
 4323SOL    HW225001   3.022   0.729   5.962
 4324SOL     OW25002   2.908   6.796   6.380
 4324SOL    HW125003   2.973   6.823   6.450
 4324SOL    HW225004   2.889   6.874   6.320
 4325SOL     OW25005   0.899   6.124   5.015
 4325SOL    HW125006   0.924   6.058   5.086
 4325SOL    HW225007   0.974   6.133   4.950
 4326SOL     OW25008   3.569   7.201   6.902
 4326SOL    HW125009   3.638   7.134   6.929
 4326SOL    HW225010   3.566   7.275   6.969
 4327SOL     OW25011   3.764   7.534   1.304
 4327SOL    HW125012   3.698   7.497   1.239
 4327SOL    HW225013   3.747   7.631   1.317
 4328SOL     OW25014   4.574   4.516   1.126
 4328SOL    HW125015   4.570   4.548   1.031
 4328SOL    HW225016   4.640   4.441   1.132
 4329SOL     OW25017   5.422   4.121   1.058
 4329SOL    HW125018   5.470   4.185   1.119
 4329SOL    HW225019   5.466   4.121   0.968
 4330SOL     OW25020   4.155   0.858   0.841
 4330SOL    HW125021   4.237   0.914   0.829
 4330SOL    HW225022   4.164   0.775   0.787
 4331SOL     OW25023   6.216   0.128   1.248
 4331SOL    HW125024   6.293   0.065   1.232
 4331SOL    HW225025   6.186   0.165   1.160
 4332SOL     OW25026   6.219   2.171   5.668
 4332SOL    HW125027   6.296   2.228   5.643
 4332SOL    HW225028   6.144   2.185   5.603
 4333SOL     OW25029   0.394   7.439   5.614
 4333SOL    HW125030   0.347   7.408   5.532
 4333SOL    HW225031   0.353   7.396   5.695
 4334SOL     OW25032   1.419   6.239   0.712
 4334SOL    HW125033   1.416   6.145   0.678
 4334SOL    HW225034   1.498   6.286   0.672
 4335SOL     OW25035   8.342   7.196   0.571
 4335SOL    HW125036   8.321   7.098   0.573
 4335SOL    HW225037   8.366   7.227   0.663
 4336SOL     OW25038   3.712   5.876   0.214
 4336SOL    HW125039   3.705   5.942   0.289
 4336SOL    HW225040   3.655   5.906   0.138
 4337SOL     OW25041   7.182   2.092   6.876
 4337SOL    HW125042   7.113   2.030   6.839
 4337SOL    HW225043   7.179   2.178   6.825
 4338SOL     OW25044   5.222   1.522   6.337
 4338SOL    HW125045   5.275   1.459   6.280
 4338SOL    HW225046   5.130   1.486   6.351
 4339SOL     OW25047   1.437   3.770   0.856
 4339SOL    HW125048   1.342   3.783   0.825
 4339SOL    HW225049   1.462   3.844   0.918
 4340SOL     OW25050   7.146   2.339   6.794
 4340SOL    HW125051   7.239   2.350   6.758
 4340SOL    HW225052   7.129   2.408   6.863
 4341SOL     OW25053   2.351   3.838   5.902
 4341SOL    HW125054   2.445   3.830   5.870
 4341SOL    HW225055   2.292   3.781   5.845
 4342SOL     OW25056   8.148   0.714   5.287
 4342SOL    HW125057   8.072   0.671   5.335
 4342SOL    HW225058   8.182   0.653   5.216
 4343SOL     OW25059   6.599   7.465   1.211
 4343SOL    HW125060   6.504   7.443   1.232
 4343SOL    HW225061   6.604   7.515   1.124
 4344SOL     OW25062   4.256   7.069   0.755
 4344SOL    HW125063   4.271   6.981   0.711
 4344SOL    HW225064   4.162   7.099   0.739
 4345SOL     OW25065   3.132   0.532   0.903
 4345SOL    HW125066   3.049   0.489   0.867
 4345SOL    HW225067   3.186   0.464   0.954
 4346SOL     OW25068   4.965   7.898   6.231
 4346SOL    HW125069   4.974   7.938   6.323
 4346SOL    HW225070   5.035   7.938   6.171
 4347SOL     OW25071   4.344   4.694   6.129
 4347SOL    HW125072   4.380   4.696   6.035
 4347SOL    HW225073   4.385   4.768   6.182
 4348SOL     OW25074   7.321   3.825   1.044
 4348SOL    HW125075   7.308   3.779   1.132
 4348SOL    HW225076   7.418   3.848   1.032
 4349SOL     OW25077   3.073   6.889   5.743
 4349SOL    HW125078   2.988   6.879   5.794
 4349SOL    HW225079   3.058   6.949   5.664
 4350SOL     OW25080   4.696   5.641   6.197
 4350SOL    HW125081   4.764   5.679   6.134
 4350SOL    HW225082   4.722   5.548   6.222
 4351SOL     OW25083   6.065   4.588   1.285
 4351SOL    HW125084   5.985   4.648   1.289
 4351SOL    HW225085   6.071   4.535   1.369
 4352SOL     OW25086   3.515   3.869   1.750
 4352SOL    HW125087   3.553   3.952   1.710
 4352SOL    HW225088   3.423   3.854   1.714
 4353SOL     OW25089   4.633   1.420   1.194
 4353SOL    HW125090   4.721   1.391   1.232
 4353SOL    HW225091   4.558   1.379   1.246
 4354SOL     OW25092   7.584   6.712   0.300
 4354SOL    HW125093   7.500   6.712   0.245
 4354SOL    HW225094   7.565   6.674   0.390
 4355SOL     OW25095   9.463   7.445   0.689
 4355SOL    HW125096   9.501   7.405   0.772
 4355SOL    HW225097   9.384   7.391   0.659
 4356SOL     OW25098   8.109   0.439   0.598
 4356SOL    HW125099   8.139   0.460   0.505
 4356SOL    HW225100   8.101   0.523   0.650
 4357SOL     OW25101   6.047   2.276   0.334
 4357SOL    HW125102   6.099   2.359   0.355
 4357SOL    HW225103   6.081   2.200   0.389
 4358SOL     OW25104   3.301   6.127   0.993
 4358SOL    HW125105   3.322   6.133   0.896
 4358SOL    HW225106   3.234   6.196   1.017
 4359SOL     OW25107   6.608   6.009   5.483
 4359SOL    HW125108   6.644   6.000   5.391
 4359SOL    HW225109   6.658   5.947   5.544
 4360SOL     OW25110   5.336   1.514   1.400
 4360SOL    HW125111   5.378   1.447   1.462
 4360SOL    HW225112   5.312   1.470   1.314
 4361SOL     OW25113   7.992   4.648   0.401
 4361SOL    HW125114   8.022   4.726   0.346
 4361SOL    HW225115   7.950   4.579   0.341
 4362SOL     OW25116   7.269   0.307   6.598
 4362SOL    HW125117   7.171   0.299   6.576
 4362SOL    HW225118   7.281   0.360   6.681
 4363SOL     OW25119   1.014   2.308   6.897
 4363SOL    HW125120   1.102   2.262   6.886
 4363SOL    HW225121   1.029   2.406   6.910
 4364SOL     OW25122   6.147   6.654   0.217
 4364SOL    HW125123   6.088   6.587   0.263
 4364SOL    HW225124   6.241   6.644   0.250
 4365SOL     OW25125   7.374   5.401   1.352
 4365SOL    HW125126   7.359   5.344   1.433
 4365SOL    HW225127   7.463   5.446   1.358
 4366SOL     OW25128   6.311   4.727   6.245
 4366SOL    HW125129   6.381   4.670   6.287
 4366SOL    HW225130   6.352   4.812   6.212
 4367SOL     OW25131   5.402   7.357   6.259
 4367SOL    HW125132   5.373   7.270   6.219
 4367SOL    HW225133   5.499   7.354   6.280
 4368SOL     OW25134   9.389   5.174   6.723
 4368SOL    HW125135   9.310   5.223   6.761
 4368SOL    HW225136   9.472   5.203   6.770
 4369SOL     OW25137   0.473   4.588   0.966
 4369SOL    HW125138   0.494   4.683   0.989
 4369SOL    HW225139   0.403   4.584   0.895
 4370SOL     OW25140   7.474   8.401   4.898
 4370SOL    HW125141   7.538   8.441   4.963
 4370SOL    HW225142   7.430   8.321   4.939
 4371SOL     OW25143   7.793   4.613   6.514
 4371SOL    HW125144   7.804   4.657   6.603
 4371SOL    HW225145   7.861   4.649   6.450
 4372SOL     OW25146   1.766   6.575   0.751
 4372SOL    HW125147   1.810   6.577   0.661
 4372SOL    HW225148   1.810   6.643   0.810
 4373SOL     OW25149   5.152   6.932   0.565
 4373SOL    HW125150   5.066   6.909   0.610
 4373SOL    HW225151   5.133   6.974   0.476
 4374SOL     OW25152   0.865   4.552   5.445
 4374SOL    HW125153   0.960   4.532   5.466
 4374SOL    HW225154   0.847   4.531   5.348
 4375SOL     OW25155   7.629   5.395   0.269
 4375SOL    HW125156   7.582   5.343   0.198
 4375SOL    HW225157   7.721   5.420   0.237
 4376SOL     OW25158   1.850   3.383   5.777
 4376SOL    HW125159   1.783   3.336   5.719
 4376SOL    HW225160   1.889   3.318   5.842
 4377SOL     OW25161   8.931   7.920   1.574
 4377SOL    HW125162   8.840   7.961   1.565
 4377SOL    HW225163   8.972   7.949   1.660
 4378SOL     OW25164   7.182   6.414   0.374
 4378SOL    HW125165   7.183   6.320   0.408
 4378SOL    HW225166   7.124   6.419   0.292
 4379SOL     OW25167   3.997   7.020   0.277
 4379SOL    HW125168   4.091   7.036   0.244
 4379SOL    HW225169   3.991   6.930   0.318
 4380SOL     OW25170   2.325   7.109   6.131
 4380SOL    HW125171   2.264   7.127   6.208
 4380SOL    HW225172   2.284   7.145   6.047
 4381SOL     OW25173   7.463   4.513   0.846
 4381SOL    HW125174   7.411   4.587   0.804
 4381SOL    HW225175   7.538   4.487   0.786
 4382SOL     OW25176   7.563   7.951   0.419
 4382SOL    HW125177   7.610   8.022   0.471
 4382SOL    HW225178   7.500   7.902   0.480
 4383SOL     OW25179   1.303   6.327   1.426
 4383SOL    HW125180   1.337   6.421   1.437
 4383SOL    HW225181   1.267   6.316   1.333
 4384SOL     OW25182   6.108   8.376   1.323
 4384SOL    HW125183   6.102   8.320   1.405
 4384SOL    HW225184   6.158   8.460   1.343
 4385SOL     OW25185   6.790   3.072   1.081
 4385SOL    HW125186   6.869   3.087   1.022
 4385SOL    HW225187   6.812   3.003   1.150
 4386SOL     OW25188   4.761   8.340   6.367
 4386SOL    HW125189   4.673   8.371   6.330
 4386SOL    HW225190   4.777   8.246   6.340
 4387SOL     OW25191   8.017   2.848   1.308
 4387SOL    HW125192   8.018   2.758   1.265
 4387SOL    HW225193   7.951   2.849   1.383
 4388SOL     OW25194   1.490   7.598   5.410
 4388SOL    HW125195   1.565   7.555   5.359
 4388SOL    HW225196   1.410   7.607   5.351
 4389SOL     OW25197   4.647   8.336   1.237
 4389SOL    HW125198   4.682   8.429   1.225
 4389SOL    HW225199   4.671   8.303   1.328
 4390SOL     OW25200   2.325   1.696   5.948
 4390SOL    HW125201   2.310   1.794   5.957
 4390SOL    HW225202   2.307   1.669   5.853
 4391SOL     OW25203   9.223   3.684   1.730
 4391SOL    HW125204   9.171   3.767   1.706
 4391SOL    HW225205   9.231   3.677   1.829
 4392SOL     OW25206   5.244   1.779   1.499
 4392SOL    HW125207   5.233   1.798   1.596
 4392SOL    HW225208   5.272   1.683   1.487
 4393SOL     OW25209   3.349   7.849   1.790
 4393SOL    HW125210   3.355   7.839   1.889
 4393SOL    HW225211   3.286   7.780   1.754
 4394SOL     OW25212   0.779   0.327   6.283
 4394SOL    HW125213   0.813   0.268   6.356
 4394SOL    HW225214   0.829   0.414   6.284
 4395SOL     OW25215   2.899   2.141   1.745
 4395SOL    HW125216   2.841   2.078   1.797
 4395SOL    HW225217   2.920   2.101   1.656
 4396SOL     OW25218   0.549   8.310   5.893
 4396SOL    HW125219   0.498   8.352   5.968
 4396SOL    HW225220   0.503   8.226   5.864
 4397SOL     OW25221   6.001   8.266   5.571
 4397SOL    HW125222   5.986   8.346   5.629
 4397SOL    HW225223   6.099   8.256   5.552
 4398SOL     OW25224   0.969   0.852   2.135
 4398SOL    HW125225   1.052   0.876   2.185
 4398SOL    HW225226   0.899   0.922   2.153
 4399SOL     OW25227   4.206   0.990   5.944
 4399SOL    HW125228   4.206   1.084   5.909
 4399SOL    HW225229   4.250   0.988   6.034
 4400SOL     OW25230   2.684   4.758   6.110
 4400SOL    HW125231   2.731   4.804   6.036
 4400SOL    HW225232   2.704   4.660   6.107
 4401SOL     OW25233   0.242   3.862   6.815
 4401SOL    HW125234   0.213   3.769   6.792
 4401SOL    HW225235   0.327   3.858   6.867
 4402SOL     OW25236   0.818   1.225   5.213
 4402SOL    HW125237   0.787   1.313   5.250
 4402SOL    HW225238   0.915   1.232   5.188
 4403SOL     OW25239   6.230   7.140   0.902
 4403SOL    HW125240   6.292   7.218   0.889
 4403SOL    HW225241   6.141   7.162   0.862
 4404SOL     OW25242   0.541   7.266   2.155
 4404SOL    HW125243   0.481   7.345   2.147
 4404SOL    HW225244   0.509   7.207   2.229
 4405SOL     OW25245   0.560   5.699   4.506
 4405SOL    HW125246   0.488   5.701   4.575
 4405SOL    HW225247   0.637   5.646   4.540
 4406SOL     OW25248   5.693   3.449   1.244
 4406SOL    HW125249   5.695   3.544   1.275
 4406SOL    HW225250   5.763   3.396   1.292
 4407SOL     OW25251   7.477   4.392   6.292
 4407SOL    HW125252   7.445   4.486   6.306
 4407SOL    HW225253   7.478   4.371   6.195
 4408SOL     OW25254   8.955   3.566   6.091
 4408SOL    HW125255   8.893   3.592   6.165
 4408SOL    HW225256   8.969   3.644   6.030
 4409SOL     OW25257   5.609   8.432   0.303
 4409SOL    HW125258   5.601   8.333   0.313
 4409SOL    HW225259   5.693   8.463   0.349
 4410SOL     OW25260   6.230   7.741   0.637
 4410SOL    HW125261   6.188   7.697   0.716
 4410SOL    HW225262   6.177   7.721   0.555
 4411SOL     OW25263   0.663   6.392   4.986
 4411SOL    HW125264   0.676   6.322   5.057
 4411SOL    HW225265   0.736   6.386   4.919
 4412SOL     OW25266   0.955   4.221   6.640
 4412SOL    HW125267   0.953   4.278   6.722
 4412SOL    HW225268   0.931   4.276   6.560
 4413SOL     OW25269   6.610   4.197   5.669
 4413SOL    HW125270   6.662   4.281   5.685
 4413SOL    HW225271   6.518   4.207   5.708
 4414SOL     OW25272   6.549   2.587   0.563
 4414SOL    HW125273   6.564   2.584   0.465
 4414SOL    HW225274   6.482   2.658   0.585
 4415SOL     OW25275   1.705   5.711   6.333
 4415SOL    HW125276   1.709   5.776   6.257
 4415SOL    HW225277   1.753   5.627   6.308
 4416SOL     OW25278   7.538   7.994   1.169
 4416SOL    HW125279   7.526   8.083   1.125
 4416SOL    HW225280   7.466   7.980   1.237
 4417SOL     OW25281   4.614   6.458   5.786
 4417SOL    HW125282   4.589   6.404   5.706
 4417SOL    HW225283   4.595   6.555   5.769
 4418SOL     OW25284   1.488   1.830   0.229
 4418SOL    HW125285   1.532   1.768   0.294
 4418SOL    HW225286   1.391   1.838   0.251
 4419SOL     OW25287   3.792   2.756   1.489
 4419SOL    HW125288   3.724   2.689   1.519
 4419SOL    HW225289   3.831   2.727   1.402
 4420SOL     OW25290   2.835   3.342   1.161
 4420SOL    HW125291   2.903   3.384   1.101
 4420SOL    HW225292   2.879   3.273   1.219
 4421SOL     OW25293   6.477   5.318   6.847
 4421SOL    HW125294   6.494   5.405   6.894
 4421SOL    HW225295   6.380   5.294   6.856
 4422SOL     OW25296   3.942   6.698   5.717
 4422SOL    HW125297   3.864   6.740   5.764
 4422SOL    HW225298   3.947   6.601   5.741
 4423SOL     OW25299   5.448   0.936   1.340
 4423SOL    HW125300   5.428   1.012   1.402
 4423SOL    HW225301   5.366   0.912   1.288
 4424SOL     OW25302   2.724   6.342   5.833
 4424SOL    HW125303   2.687   6.419   5.782
 4424SOL    HW225304   2.754   6.271   5.770
 4425SOL     OW25305   7.183   5.009   0.464
 4425SOL    HW125306   7.106   4.958   0.425
 4425SOL    HW225307   7.244   5.038   0.390
 4426SOL     OW25308   2.673   1.719   6.194
 4426SOL    HW125309   2.683   1.627   6.232
 4426SOL    HW225310   2.647   1.714   6.098
 4427SOL     OW25311   1.104   7.496   5.530
 4427SOL    HW125312   1.102   7.590   5.496
 4427SOL    HW225313   1.156   7.439   5.466
 4428SOL     OW25314   6.388   0.830   2.079
 4428SOL    HW125315   6.457   0.869   2.018
 4428SOL    HW225316   6.425   0.748   2.122
 4429SOL     OW25317   4.621   6.757   2.325
 4429SOL    HW125318   4.529   6.722   2.344
 4429SOL    HW225319   4.675   6.686   2.281
 4430SOL     OW25320   9.345   5.284   1.170
 4430SOL    HW125321   9.427   5.276   1.226
 4430SOL    HW225322   9.264   5.273   1.228
 4431SOL     OW25323   6.218   5.884   1.507
 4431SOL    HW125324   6.243   5.882   1.604
 4431SOL    HW225325   6.153   5.959   1.491
 4432SOL     OW25326   7.341   5.713   5.472
 4432SOL    HW125327   7.393   5.672   5.397
 4432SOL    HW225328   7.255   5.663   5.484
 4433SOL     OW25329   5.461   1.507   5.898
 4433SOL    HW125330   5.543   1.466   5.857
 4433SOL    HW225331   5.454   1.603   5.868
 4434SOL     OW25332   2.013   7.568   5.214
 4434SOL    HW125333   2.012   7.529   5.122
 4434SOL    HW225334   2.095   7.538   5.263
 4435SOL     OW25335   7.031   6.342   1.338
 4435SOL    HW125336   6.943   6.334   1.292
 4435SOL    HW225337   7.053   6.257   1.385
 4436SOL     OW25338   9.556   0.991   0.351
 4436SOL    HW125339   9.547   0.966   0.447
 4436SOL    HW225340   9.513   1.080   0.335
 4437SOL     OW25341   0.485  -0.061   5.638
 4437SOL    HW125342   0.536  -0.088   5.719
 4437SOL    HW225343   0.546  -0.012   5.575
 4438SOL     OW25344   0.716   3.899   6.033
 4438SOL    HW125345   0.630   3.888   5.984
 4438SOL    HW225346   0.793   3.882   5.970
 4439SOL     OW25347   3.184   4.108   1.030
 4439SOL    HW125348   3.128   4.099   1.112
 4439SOL    HW225349   3.232   4.022   1.013
 4440SOL     OW25350   5.247   3.435   1.002
 4440SOL    HW125351   5.225   3.364   0.935
 4440SOL    HW225352   5.309   3.397   1.071
 4441SOL     OW25353   2.633   2.368   6.521
 4441SOL    HW125354   2.673   2.411   6.603
 4441SOL    HW225355   2.618   2.271   6.538
 4442SOL     OW25356   7.190   5.995   6.574
 4442SOL    HW125357   7.209   5.924   6.643
 4442SOL    HW225358   7.128   6.063   6.612
 4443SOL     OW25359   8.675   7.613   1.401
 4443SOL    HW125360   8.585   7.569   1.400
 4443SOL    HW225361   8.746   7.545   1.418
 4444SOL     OW25362   3.200   7.110   1.639
 4444SOL    HW125363   3.215   7.184   1.705
 4444SOL    HW225364   3.235   7.138   1.549
 4445SOL     OW25365   7.973   5.221   5.680
 4445SOL    HW125366   7.980   5.221   5.780
 4445SOL    HW225367   7.897   5.280   5.651
 4446SOL     OW25368   4.664   0.736   1.390
 4446SOL    HW125369   4.609   0.773   1.465
 4446SOL    HW225370   4.623   0.761   1.303
 4447SOL     OW25371   8.551   3.368   6.648
 4447SOL    HW125372   8.527   3.464   6.664
 4447SOL    HW225373   8.513   3.340   6.559
 4448SOL     OW25374   2.425   5.224   6.352
 4448SOL    HW125375   2.491   5.165   6.306
 4448SOL    HW225376   2.335   5.180   6.351
 4449SOL     OW25377   4.500   8.366   0.555
 4449SOL    HW125378   4.409   8.326   0.571
 4449SOL    HW225379   4.505   8.455   0.599
 4450SOL     OW25380   1.960   0.005   1.238
 4450SOL    HW125381   2.035  -0.056   1.213
 4450SOL    HW225382   1.944   0.000   1.337
 4451SOL     OW25383   4.949   1.609   5.455
 4451SOL    HW125384   4.997   1.697   5.449
 4451SOL    HW225385   4.898   1.593   5.370
 4452SOL     OW25386   7.002   8.207   6.289
 4452SOL    HW125387   7.098   8.179   6.293
 4452SOL    HW225388   6.985   8.276   6.359
 4453SOL     OW25389   9.385   2.116   5.277
 4453SOL    HW125390   9.285   2.107   5.271
 4453SOL    HW225391   9.417   2.179   5.207
 4454SOL     OW25392   6.524   2.422   0.296
 4454SOL    HW125393   6.583   2.435   0.216
 4454SOL    HW225394   6.579   2.393   0.374
 4455SOL     OW25395   4.061   7.743   5.904
 4455SOL    HW125396   4.145   7.798   5.900
 4455SOL    HW225397   3.994   7.790   5.962
 4456SOL     OW25398   2.867   6.599   6.883
 4456SOL    HW125399   2.853   6.664   6.958
 4456SOL    HW225400   2.945   6.630   6.828
 4457SOL     OW25401   8.565   4.509   6.815
 4457SOL    HW125402   8.559   4.582   6.747
 4457SOL    HW225403   8.473   4.475   6.835
 4458SOL     OW25404   1.652   7.277   6.492
 4458SOL    HW125405   1.742   7.256   6.530
 4458SOL    HW225406   1.662   7.332   6.409
 4459SOL     OW25407   1.876   4.675   0.855
 4459SOL    HW125408   1.895   4.578   0.839
 4459SOL    HW225409   1.912   4.729   0.779
 4460SOL     OW25410   3.991   8.055   1.169
 4460SOL    HW125411   4.005   8.025   1.074
 4460SOL    HW225412   3.976   7.975   1.227
 4461SOL     OW25413   8.178   0.263   5.743
 4461SOL    HW125414   8.245   0.336   5.757
 4461SOL    HW225415   8.184   0.197   5.819
 4462SOL     OW25416   3.251   8.186   2.001
 4462SOL    HW125417   3.219   8.258   2.063
 4462SOL    HW225418   3.306   8.119   2.052
 4463SOL     OW25419   4.852   0.241   6.293
 4463SOL    HW125420   4.758   0.232   6.259
 4463SOL    HW225421   4.853   0.301   6.373
 4464SOL     OW25422   6.753   6.608   1.075
 4464SOL    HW125423   6.694   6.547   1.128
 4464SOL    HW225424   6.701   6.687   1.045
 4465SOL     OW25425   1.691   5.383   1.154
 4465SOL    HW125426   1.634   5.354   1.231
 4465SOL    HW225427   1.650   5.351   1.069
 4466SOL     OW25428   3.895   0.574   0.980
 4466SOL    HW125429   3.987   0.571   0.940
 4466SOL    HW225430   3.842   0.647   0.936
 4467SOL     OW25431   1.094   0.894   5.502
 4467SOL    HW125432   1.024   0.965   5.513
 4467SOL    HW225433   1.157   0.920   5.429
 4468SOL     OW25434   9.095   8.259   6.543
 4468SOL    HW125435   9.087   8.161   6.558
 4468SOL    HW225436   9.063   8.308   6.624
 4469SOL     OW25437   1.458   5.729   1.049
 4469SOL    HW125438   1.396   5.776   1.112
 4469SOL    HW225439   1.480   5.639   1.087
 4470SOL     OW25440   9.372   3.589   6.607
 4470SOL    HW125441   9.349   3.685   6.621
 4470SOL    HW225442   9.305   3.547   6.545
 4471SOL     OW25443   6.579   2.019   1.496
 4471SOL    HW125444   6.628   1.933   1.479
 4471SOL    HW225445   6.510   2.033   1.424
 4472SOL     OW25446   0.611   2.407   6.299
 4472SOL    HW125447   0.545   2.384   6.227
 4472SOL    HW225448   0.567   2.467   6.366
 4473SOL     OW25449   7.877   1.337   1.333
 4473SOL    HW125450   7.821   1.319   1.413
 4473SOL    HW225451   7.884   1.254   1.278
 4474SOL     OW25452   9.524   0.637   0.772
 4474SOL    HW125453   9.569   0.723   0.794
 4474SOL    HW225454   9.587   0.578   0.722
 4475SOL     OW25455   3.119   6.115   6.010
 4475SOL    HW125456   3.144   6.123   5.913
 4475SOL    HW225457   3.024   6.144   6.022
 4476SOL     OW25458   2.012   6.553   1.874
 4476SOL    HW125459   2.094   6.608   1.892
 4476SOL    HW225460   2.026   6.461   1.911
 4477SOL     OW25461   4.022   4.256   6.494
 4477SOL    HW125462   4.046   4.226   6.402
 4477SOL    HW225463   4.004   4.355   6.494
 4478SOL     OW25464   8.059   8.270   5.950
 4478SOL    HW125465   8.088   8.254   5.856
 4478SOL    HW225466   8.010   8.357   5.956
 4479SOL     OW25467   3.998   0.515   5.439
 4479SOL    HW125468   3.921   0.578   5.436
 4479SOL    HW225469   4.066   0.541   5.370
 4480SOL     OW25470   6.856   4.479   0.814
 4480SOL    HW125471   6.892   4.418   0.743
 4480SOL    HW225472   6.779   4.435   0.860
 4481SOL     OW25473   8.989   0.497   6.196
 4481SOL    HW125474   9.004   0.592   6.172
 4481SOL    HW225475   9.073   0.458   6.235
 4482SOL     OW25476   2.034   7.639   6.161
 4482SOL    HW125477   2.060   7.734   6.175
 4482SOL    HW225478   1.937   7.634   6.134
 4483SOL     OW25479   3.738   1.118   5.308
 4483SOL    HW125480   3.706   1.208   5.279
 4483SOL    HW225481   3.710   1.050   5.241
 4484SOL     OW25482   7.742   0.550   0.406
 4484SOL    HW125483   7.814   0.491   0.372
 4484SOL    HW225484   7.726   0.530   0.503
 4485SOL     OW25485   2.366   1.211   0.320
 4485SOL    HW125486   2.418   1.281   0.272
 4485SOL    HW225487   2.417   1.182   0.402
 4486SOL     OW25488   1.693   7.459   5.256
 4486SOL    HW125489   1.781   7.412   5.263
 4486SOL    HW225490   1.684   7.499   5.164
 4487SOL     OW25491   8.393   4.767   5.359
 4487SOL    HW125492   8.375   4.760   5.261
 4487SOL    HW225493   8.424   4.859   5.381
 4488SOL     OW25494   7.515   6.688   6.071
 4488SOL    HW125495   7.499   6.675   5.973
 4488SOL    HW225496   7.436   6.655   6.122
 4489SOL     OW25497   0.723   5.685   5.775
 4489SOL    HW125498   0.694   5.646   5.687
 4489SOL    HW225499   0.696   5.781   5.779
 4490SOL     OW25500   4.014   4.653   1.084
 4490SOL    HW125501   4.008   4.603   1.170
 4490SOL    HW225502   4.078   4.729   1.093
 4491SOL     OW25503   3.953   0.701   5.743
 4491SOL    HW125504   3.926   0.671   5.651
 4491SOL    HW225505   3.909   0.789   5.763
 4492SOL     OW25506   8.206   7.084   5.904
 4492SOL    HW125507   8.247   7.082   5.995
 4492SOL    HW225508   8.234   7.168   5.857
 4493SOL     OW25509   1.828   1.109   5.065
 4493SOL    HW125510   1.860   1.014   5.070
 4493SOL    HW225511   1.903   1.168   5.035
 4494SOL     OW25512   9.540   2.968   6.888
 4494SOL    HW125513   9.506   2.875   6.875
 4494SOL    HW225514   9.640   2.969   6.881
 4495SOL     OW25515   4.349   0.336   2.084
 4495SOL    HW125516   4.357   0.427   2.043
 4495SOL    HW225517   4.343   0.344   2.183
 4496SOL     OW25518   0.136   0.014   6.739
 4496SOL    HW125519   0.159   0.081   6.669
 4496SOL    HW225520   0.123  -0.076   6.696
 4497SOL     OW25521   7.884   5.100   6.233
 4497SOL    HW125522   7.874   5.185   6.180
 4497SOL    HW225523   7.972   5.058   6.212
 4498SOL     OW25524   1.740   2.124   6.843
 4498SOL    HW125525   1.696   2.209   6.871
 4498SOL    HW225526   1.683   2.078   6.774
 4499SOL     OW25527   7.200   8.269   6.841
 4499SOL    HW125528   7.236   8.178   6.824
 4499SOL    HW225529   7.100   8.268   6.832
 4500SOL     OW25530   6.480   2.108   0.441
 4500SOL    HW125531   6.475   2.009   0.447
 4500SOL    HW225532   6.576   2.137   0.442
 4501SOL     OW25533   8.513   2.671   0.872
 4501SOL    HW125534   8.490   2.751   0.927
 4501SOL    HW225535   8.586   2.620   0.917
 4502SOL     OW25536   4.108   7.222   1.741
 4502SOL    HW125537   4.186   7.160   1.750
 4502SOL    HW225538   4.086   7.261   1.831
 4503SOL     OW25539   9.133   8.385   5.910
 4503SOL    HW125540   9.104   8.472   5.872
 4503SOL    HW225541   9.087   8.370   5.998
 4504SOL     OW25542   4.901   3.703   0.662
 4504SOL    HW125543   4.949   3.739   0.742
 4504SOL    HW225544   4.922   3.605   0.651
 4505SOL     OW25545   2.266   4.608   0.888
 4505SOL    HW125546   2.204   4.559   0.948
 4505SOL    HW225547   2.237   4.595   0.793
 4506SOL     OW25548   6.529   5.384   5.565
 4506SOL    HW125549   6.565   5.477   5.574
 4506SOL    HW225550   6.448   5.386   5.506
 4507SOL     OW25551   0.601   7.047   1.956
 4507SOL    HW125552   0.651   6.969   1.993
 4507SOL    HW225553   0.603   7.122   2.021
 4508SOL     OW25554   8.959   2.019   0.622
 4508SOL    HW125555   8.956   2.055   0.529
 4508SOL    HW225556   9.013   2.080   0.680
 4509SOL     OW25557   7.385   4.697   6.526
 4509SOL    HW125558   7.305   4.685   6.467
 4509SOL    HW225559   7.381   4.631   6.601
 4510SOL     OW25560   6.550   0.580   1.319
 4510SOL    HW125561   6.570   0.515   1.246
 4510SOL    HW225562   6.610   0.562   1.397
 4511SOL     OW25563   6.868   6.862   0.938
 4511SOL    HW125564   6.769   6.868   0.951
 4511SOL    HW225565   6.897   6.930   0.871
 4512SOL     OW25566   1.513   8.274   1.005
 4512SOL    HW125567   1.582   8.301   0.937
 4512SOL    HW225568   1.552   8.282   1.097
 4513SOL     OW25569   4.007   4.122   1.797
 4513SOL    HW125570   3.931   4.118   1.862
 4513SOL    HW225571   4.093   4.136   1.847
 4514SOL     OW25572   7.066   2.811   0.231
 4514SOL    HW125573   7.164   2.798   0.243
 4514SOL    HW225574   7.038   2.898   0.271
 4515SOL     OW25575   6.900   1.300   0.226
 4515SOL    HW125576   6.910   1.362   0.148
 4515SOL    HW225577   6.879   1.208   0.194
 4516SOL     OW25578   5.937   2.744   5.699
 4516SOL    HW125579   5.925   2.675   5.628
 4516SOL    HW225580   5.854   2.751   5.754
 4517SOL     OW25581   3.185   5.560   1.138
 4517SOL    HW125582   3.150   5.646   1.174
 4517SOL    HW225583   3.233   5.510   1.210
 4518SOL     OW25584   2.529   6.605   1.008
 4518SOL    HW125585   2.604   6.661   1.043
 4518SOL    HW225586   2.566   6.518   0.973
 4519SOL     OW25587   1.358   1.079   1.263
 4519SOL    HW125588   1.361   1.120   1.355
 4519SOL    HW225589   1.309   0.993   1.267
 4520SOL     OW25590   0.510   5.992   1.368
 4520SOL    HW125591   0.563   6.020   1.449
 4520SOL    HW225592   0.421   5.959   1.396
 4521SOL     OW25593   3.602   3.759   0.589
 4521SOL    HW125594   3.601   3.856   0.615
 4521SOL    HW225595   3.661   3.748   0.509
 4522SOL     OW25596   6.100   1.476   5.816
 4522SOL    HW125597   6.046   1.524   5.748
 4522SOL    HW225598   6.092   1.377   5.802
 4523SOL     OW25599   4.323   3.269   5.616
 4523SOL    HW125600   4.394   3.203   5.591
 4523SOL    HW225601   4.274   3.297   5.533
 4524SOL     OW25602   4.131   1.918   5.887
 4524SOL    HW125603   4.180   1.858   5.824
 4524SOL    HW225604   4.195   1.954   5.955
 4525SOL     OW25605   7.934   6.598   0.822
 4525SOL    HW125606   7.975   6.512   0.794
 4525SOL    HW225607   7.893   6.588   0.913
 4526SOL     OW25608   6.672   2.587   1.998
 4526SOL    HW125609   6.671   2.541   2.086
 4526SOL    HW225610   6.761   2.630   1.984
 4527SOL     OW25611   4.663   6.433   6.075
 4527SOL    HW125612   4.651   6.467   5.981
 4527SOL    HW225613   4.597   6.360   6.092
 4528SOL     OW25614   2.810   7.174   5.827
 4528SOL    HW125615   2.852   7.262   5.802
 4528SOL    HW225616   2.738   7.190   5.894
 4529SOL     OW25617   6.376   0.420   0.670
 4529SOL    HW125618   6.283   0.422   0.707
 4529SOL    HW225619   6.434   0.484   0.722
 4530SOL     OW25620   1.520   3.939   1.352
 4530SOL    HW125621   1.539   3.900   1.442
 4530SOL    HW225622   1.429   3.910   1.322
 4531SOL     OW25623   1.114   6.768   1.064
 4531SOL    HW125624   1.065   6.748   1.148
 4531SOL    HW225625   1.209   6.791   1.085
 4532SOL     OW25626   1.783   4.955   5.883
 4532SOL    HW125627   1.717   4.966   5.809
 4532SOL    HW225628   1.873   4.933   5.844
 4533SOL     OW25629   9.079   6.318   0.404
 4533SOL    HW125630   9.104   6.413   0.423
 4533SOL    HW225631   9.017   6.284   0.474
 4534SOL     OW25632   7.500   4.257   6.531
 4534SOL    HW125633   7.500   4.320   6.453
 4534SOL    HW225634   7.513   4.163   6.498
 4535SOL     OW25635   4.171   6.720   5.882
 4535SOL    HW125636   4.221   6.647   5.836
 4535SOL    HW225637   4.081   6.731   5.840
 4536SOL     OW25638   5.028   5.220   1.431
 4536SOL    HW125639   5.096   5.276   1.384
 4536SOL    HW225640   4.969   5.175   1.364
 4537SOL     OW25641   8.382   5.546   0.881
 4537SOL    HW125642   8.460   5.486   0.858
 4537SOL    HW225643   8.315   5.542   0.808
 4538SOL     OW25644   3.519   4.149   1.820
 4538SOL    HW125645   3.571   4.227   1.785
 4538SOL    HW225646   3.422   4.163   1.802
 4539SOL     OW25647   3.143   4.761   5.812
 4539SOL    HW125648   3.212   4.689   5.806
 4539SOL    HW225649   3.170   4.837   5.752
 4540SOL     OW25650   0.415   6.467   5.545
 4540SOL    HW125651   0.447   6.378   5.577
 4540SOL    HW225652   0.319   6.479   5.568
 4541SOL     OW25653   9.029   2.877   5.733
 4541SOL    HW125654   9.092   2.856   5.807
 4541SOL    HW225655   8.974   2.957   5.756
 4542SOL     OW25656   8.672   7.326   5.226
 4542SOL    HW125657   8.686   7.228   5.209
 4542SOL    HW225658   8.701   7.378   5.146
 4543SOL     OW25659   8.880   0.357   0.639
 4543SOL    HW125660   8.941   0.407   0.700
 4543SOL    HW225661   8.890   0.392   0.546
 4544SOL     OW25662   6.677   4.688   6.205
 4544SOL    HW125663   6.743   4.763   6.204
 4544SOL    HW225664   6.621   4.691   6.122
 4545SOL     OW25665   0.746   7.794   0.750
 4545SOL    HW125666   0.780   7.719   0.808
 4545SOL    HW225667   0.815   7.816   0.681
 4546SOL     OW25668   5.167   8.394   6.700
 4546SOL    HW125669   5.074   8.372   6.668
 4546SOL    HW225670   5.194   8.483   6.663
 4547SOL     OW25671   7.559   8.235   6.337
 4547SOL    HW125672   7.614   8.160   6.373
 4547SOL    HW225673   7.618   8.300   6.289
 4548SOL     OW25674   0.874   0.229   6.540
 4548SOL    HW125675   0.849   0.168   6.616
 4548SOL    HW225676   0.951   0.286   6.567
 4549SOL     OW25677   5.781   0.203   0.788
 4549SOL    HW125678   5.789   0.103   0.785
 4549SOL    HW225679   5.763   0.238   0.695
 4550SOL     OW25680   2.906   6.692   0.827
 4550SOL    HW125681   2.946   6.782   0.815
 4550SOL    HW225682   2.976   6.622   0.812
 4551SOL     OW25683   5.737   1.392   0.885
 4551SOL    HW125684   5.742   1.425   0.979
 4551SOL    HW225685   5.817   1.335   0.865
 4552SOL     OW25686   4.844   0.437   6.453
 4552SOL    HW125687   4.780   0.492   6.506
 4552SOL    HW225688   4.927   0.490   6.434
 4553SOL     OW25689   7.630   7.996   6.068
 4553SOL    HW125690   7.565   8.034   6.003
 4553SOL    HW225691   7.723   8.024   6.043
 4554SOL     OW25692   0.578   2.078   0.411
 4554SOL    HW125693   0.531   2.047   0.328
 4554SOL    HW225694   0.658   2.132   0.385
 4555SOL     OW25695   2.047   0.380   1.604
 4555SOL    HW125696   1.972   0.340   1.656
 4555SOL    HW225697   2.035   0.362   1.507
 4556SOL     OW25698   1.945   3.383   1.162
 4556SOL    HW125699   1.931   3.301   1.217
 4556SOL    HW225700   2.027   3.372   1.106
 4557SOL     OW25701   6.867   1.465   1.791
 4557SOL    HW125702   6.906   1.542   1.741
 4557SOL    HW225703   6.823   1.500   1.875
 4558SOL     OW25704   6.203   7.535   6.038
 4558SOL    HW125705   6.132   7.533   6.108
 4558SOL    HW225706   6.180   7.470   5.965
 4559SOL     OW25707   1.844   7.476   0.797
 4559SOL    HW125708   1.803   7.557   0.841
 4559SOL    HW225709   1.940   7.494   0.777
 4560SOL     OW25710   2.388   0.414   5.731
 4560SOL    HW125711   2.389   0.367   5.643
 4560SOL    HW225712   2.435   0.359   5.800
 4561SOL     OW25713   3.436   4.319   6.079
 4561SOL    HW125714   3.460   4.222   6.090
 4561SOL    HW225715   3.337   4.326   6.064
 4562SOL     OW25716   1.383   0.004   0.762
 4562SOL    HW125717   1.473   0.043   0.785
 4562SOL    HW225718   1.336  -0.021   0.847
 4563SOL     OW25719   4.080   1.008   2.134
 4563SOL    HW125720   4.018   0.932   2.152
 4563SOL    HW225721   4.030   1.082   2.089
 4564SOL     OW25722   0.534   4.103   0.906
 4564SOL    HW125723   0.466   4.042   0.865
 4564SOL    HW225724   0.601   4.130   0.836
 4565SOL     OW25725   5.956   1.575   0.798
 4565SOL    HW125726   5.857   1.565   0.808
 4565SOL    HW225727   5.983   1.667   0.827
 4566SOL     OW25728   6.609   3.724   1.062
 4566SOL    HW125729   6.639   3.805   1.112
 4566SOL    HW225730   6.581   3.751   0.970
 4567SOL     OW25731   7.297   8.162   6.408
 4567SOL    HW125732   7.390   8.190   6.384
 4567SOL    HW225733   7.262   8.223   6.479
 4568SOL     OW25734   6.401   1.711   6.549
 4568SOL    HW125735   6.310   1.674   6.531
 4568SOL    HW225736   6.393   1.803   6.588
 4569SOL     OW25737   4.817   7.935   0.500
 4569SOL    HW125738   4.718   7.921   0.495
 4569SOL    HW225739   4.858   7.914   0.411
 4570SOL     OW25740   6.067   4.375   1.083
 4570SOL    HW125741   6.075   4.434   1.163
 4570SOL    HW225742   5.997   4.306   1.099
 4571SOL     OW25743   8.929   5.233   6.599
 4571SOL    HW125744   8.927   5.325   6.560
 4571SOL    HW225745   8.980   5.172   6.538
 4572SOL     OW25746   9.474   3.852   0.395
 4572SOL    HW125747   9.547   3.916   0.371
 4572SOL    HW225748   9.504   3.759   0.375
 4573SOL     OW25749   9.400   4.012   0.891
 4573SOL    HW125750   9.325   3.980   0.833
 4573SOL    HW225751   9.418   4.108   0.870
 4574SOL     OW25752   2.766   1.062   1.730
 4574SOL    HW125753   2.851   1.115   1.737
 4574SOL    HW225754   2.788   0.967   1.708
 4575SOL     OW25755   6.328   6.165   1.395
 4575SOL    HW125756   6.333   6.265   1.389
 4575SOL    HW225757   6.338   6.137   1.491
 4576SOL     OW25758   7.303   6.012   0.407
 4576SOL    HW125759   7.286   5.925   0.453
 4576SOL    HW225760   7.401   6.030   0.403
 4577SOL     OW25761   1.790   3.869   0.948
 4577SOL    HW125762   1.807   3.771   0.959
 4577SOL    HW225763   1.740   3.903   1.027
 4578SOL     OW25764   6.837   2.935   6.547
 4578SOL    HW125765   6.802   2.995   6.619
 4578SOL    HW225766   6.869   2.849   6.587
 4579SOL     OW25767   4.086   5.977   6.868
 4579SOL    HW125768   4.056   5.882   6.859
 4579SOL    HW225769   4.181   5.985   6.839
 4580SOL     OW25770   3.326   7.117   0.271
 4580SOL    HW125771   3.399   7.136   0.205
 4580SOL    HW225772   3.270   7.042   0.237
 4581SOL     OW25773   4.263   5.808   0.807
 4581SOL    HW125774   4.300   5.881   0.864
 4581SOL    HW225775   4.296   5.720   0.839
 4582SOL     OW25776   3.198   1.413   6.556
 4582SOL    HW125777   3.236   1.327   6.589
 4582SOL    HW225778   3.242   1.489   6.604
 4583SOL     OW25779   3.852   1.748   0.373
 4583SOL    HW125780   3.843   1.655   0.335
 4583SOL    HW225781   3.796   1.811   0.319
 4584SOL     OW25782   2.776   5.390   1.081
 4584SOL    HW125783   2.716   5.311   1.072
 4584SOL    HW225784   2.845   5.372   1.151
 4585SOL     OW25785   0.734   1.791   6.769
 4585SOL    HW125786   0.635   1.779   6.773
 4585SOL    HW225787   0.769   1.759   6.681
 4586SOL     OW25788   0.844   2.531   0.518
 4586SOL    HW125789   0.927   2.584   0.531
 4586SOL    HW225790   0.850   2.445   0.568
 4587SOL     OW25791   2.750   7.485   0.864
 4587SOL    HW125792   2.666   7.443   0.899
 4587SOL    HW225793   2.821   7.482   0.935
 4588SOL     OW25794   2.494   1.636   5.561
 4588SOL    HW125795   2.487   1.540   5.534
 4588SOL    HW225796   2.422   1.689   5.516
 4589SOL     OW25797   7.003   7.379   0.710
 4589SOL    HW125798   7.070   7.453   0.704
 4589SOL    HW225799   6.947   7.378   0.627
 4590SOL     OW25800   6.261   6.697   0.940
 4590SOL    HW125801   6.281   6.604   0.908
 4590SOL    HW225802   6.253   6.758   0.861
 4591SOL     OW25803   0.412   7.451   6.132
 4591SOL    HW125804   0.474   7.523   6.163
 4591SOL    HW225805   0.454   7.361   6.150
 4592SOL     OW25806   2.046   5.515   5.289
 4592SOL    HW125807   1.982   5.439   5.278
 4592SOL    HW225808   2.056   5.563   5.202
 4593SOL     OW25809   4.518   2.160   0.623
 4593SOL    HW125810   4.480   2.081   0.672
 4593SOL    HW225811   4.460   2.181   0.544
 4594SOL     OW25812   7.293   4.319   0.973
 4594SOL    HW125813   7.231   4.360   1.040
 4594SOL    HW225814   7.330   4.390   0.913
 4595SOL     OW25815   4.812   3.831   0.435
 4595SOL    HW125816   4.843   3.796   0.523
 4595SOL    HW225817   4.766   3.919   0.449
 4596SOL     OW25818   1.887   7.143   6.233
 4596SOL    HW125819   1.977   7.180   6.257
 4596SOL    HW225820   1.817   7.213   6.247
 4597SOL     OW25821   2.297   7.594   0.914
 4597SOL    HW125822   2.247   7.612   0.830
 4597SOL    HW225823   2.267   7.657   0.986
 4598SOL     OW25824   3.811   0.517   6.919
 4598SOL    HW125825   3.890   0.458   6.904
 4598SOL    HW225826   3.732   0.478   6.870
 4599SOL     OW25827   0.399   8.373   0.910
 4599SOL    HW125828   0.391   8.278   0.878
 4599SOL    HW225829   0.364   8.434   0.839
 4600SOL     OW25830   8.188   2.291   6.923
 4600SOL    HW125831   8.120   2.364   6.916
 4600SOL    HW225832   8.214   2.279   7.019
 4601SOL     OW25833   5.153   1.713   0.431
 4601SOL    HW125834   5.115   1.801   0.404
 4601SOL    HW225835   5.148   1.703   0.531
 4602SOL     OW25836   7.180   3.244   6.490
 4602SOL    HW125837   7.252   3.315   6.486
 4602SOL    HW225838   7.098   3.278   6.443
 4603SOL     OW25839   9.264   7.077   1.365
 4603SOL    HW125840   9.191   7.041   1.424
 4603SOL    HW225841   9.314   7.148   1.414
 4604SOL     OW25842   4.568   3.628   0.420
 4604SOL    HW125843   4.509   3.579   0.357
 4604SOL    HW225844   4.640   3.675   0.369
 4605SOL     OW25845   7.627   7.090   0.970
 4605SOL    HW125846   7.696   7.141   1.021
 4605SOL    HW225847   7.550   7.150   0.950
 4606SOL     OW25848   6.134   5.063   0.910
 4606SOL    HW125849   6.150   5.113   0.824
 4606SOL    HW225850   6.217   5.065   0.965
 4607SOL     OW25851   0.218   6.019   4.771
 4607SOL    HW125852   0.226   6.047   4.867
 4607SOL    HW225853   0.185   6.097   4.717
 4608SOL     OW25854   5.144  -0.002   1.314
 4608SOL    HW125855   5.232   0.040   1.293
 4608SOL    HW225856   5.138  -0.092   1.270
 4609SOL     OW25857   9.423   4.672   0.523
 4609SOL    HW125858   9.389   4.581   0.498
 4609SOL    HW225859   9.507   4.692   0.473
 4610SOL     OW25860   4.383   3.968   1.127
 4610SOL    HW125861   4.412   4.053   1.083
 4610SOL    HW225862   4.286   3.975   1.152
 4611SOL     OW25863   5.922   7.759   0.746
 4611SOL    HW125864   5.879   7.848   0.727
 4611SOL    HW225865   5.861   7.686   0.719
 4612SOL     OW25866   4.089   7.113   5.344
 4612SOL    HW125867   4.020   7.057   5.298
 4612SOL    HW225868   4.167   7.128   5.283
 4613SOL     OW25869   9.025   1.480   0.871
 4613SOL    HW125870   9.028   1.406   0.939
 4613SOL    HW225871   9.112   1.528   0.871
 4614SOL     OW25872   7.592   7.778   0.967
 4614SOL    HW125873   7.581   7.857   1.027
 4614SOL    HW225874   7.518   7.712   0.986
 4615SOL     OW25875   2.060  -0.053   5.809
 4615SOL    HW125876   2.128   0.016   5.833
 4615SOL    HW225877   1.991  -0.013   5.749
 4616SOL     OW25878   0.538   3.172   5.444
 4616SOL    HW125879   0.631   3.207   5.452
 4616SOL    HW225880   0.525   3.130   5.355
 4617SOL     OW25881   0.902   7.966   0.214
 4617SOL    HW125882   0.905   7.869   0.192
 4617SOL    HW225883   0.874   7.978   0.310
 4618SOL     OW25884   1.613   0.555   6.851
 4618SOL    HW125885   1.567   0.624   6.794
 4618SOL    HW225886   1.549   0.524   6.922
 4619SOL     OW25887   3.777   1.198   1.603
 4619SOL    HW125888   3.873   1.169   1.597
 4619SOL    HW225889   3.772   1.290   1.640
 4620SOL     OW25890   1.057   3.433   0.546
 4620SOL    HW125891   1.022   3.369   0.477
 4620SOL    HW225892   1.154   3.449   0.529
 4621SOL     OW25893   7.418   8.026   6.894
 4621SOL    HW125894   7.475   7.986   6.966
 4621SOL    HW225895   7.380   7.952   6.838
 4622SOL     OW25896   2.586   7.528   6.570
 4622SOL    HW125897   2.580   7.498   6.666
 4622SOL    HW225898   2.599   7.448   6.512
 4623SOL     OW25899   4.592   3.244   0.536
 4623SOL    HW125900   4.634   3.304   0.468
 4623SOL    HW225901   4.655   3.170   0.559
 4624SOL     OW25902   4.364   8.027   0.778
 4624SOL    HW125903   4.371   7.927   0.782
 4624SOL    HW225904   4.395   8.066   0.865
 4625SOL     OW25905   2.595   3.213   1.004
 4625SOL    HW125906   2.677   3.252   1.047
 4625SOL    HW225907   2.531   3.286   0.983
 4626SOL     OW25908   1.480   4.402   0.879
 4626SOL    HW125909   1.418   4.403   0.801
 4626SOL    HW225910   1.571   4.373   0.849
 4627SOL     OW25911   1.219   2.542   4.650
 4627SOL    HW125912   1.313   2.562   4.677
 4627SOL    HW225913   1.220   2.486   4.567
 4628SOL     OW25914   3.764   7.812   1.455
 4628SOL    HW125915   3.826   7.882   1.421
 4628SOL    HW225916   3.686   7.855   1.500
 4629SOL     OW25917   9.452   8.128   5.295
 4629SOL    HW125918   9.511   8.100   5.219
 4629SOL    HW225919   9.414   8.218   5.276
 4630SOL     OW25920   7.506   5.159   1.188
 4630SOL    HW125921   7.463   5.196   1.270
 4630SOL    HW225922   7.598   5.125   1.211
 4631SOL     OW25923   5.150   4.593   1.281
 4631SOL    HW125924   5.185   4.592   1.375
 4631SOL    HW225925   5.218   4.552   1.220
 4632SOL     OW25926   5.174   0.682   5.793
 4632SOL    HW125927   5.148   0.715   5.702
 4632SOL    HW225928   5.222   0.594   5.783
 4633SOL     OW25929   5.927   1.837   5.662
 4633SOL    HW125930   5.857   1.893   5.618
 4633SOL    HW225931   5.933   1.748   5.615
 4634SOL     OW25932   2.168   5.787   6.766
 4634SOL    HW125933   2.256   5.829   6.743
 4634SOL    HW225934   2.172   5.750   6.859
 4635SOL     OW25935   6.388   4.638   5.661
 4635SOL    HW125936   6.335   4.643   5.745
 4635SOL    HW225937   6.326   4.640   5.582
 4636SOL     OW25938   0.348   0.476   0.880
 4636SOL    HW125939   0.290   0.489   0.800
 4636SOL    HW225940   0.296   0.499   0.963
 4637SOL     OW25941   8.712   1.782   0.579
 4637SOL    HW125942   8.756   1.702   0.619
 4637SOL    HW225943   8.772   1.821   0.509
 4638SOL     OW25944   7.192   5.973   6.300
 4638SOL    HW125945   7.181   5.961   6.399
 4638SOL    HW225946   7.129   5.912   6.252
 4639SOL     OW25947   6.665   2.440   1.151
 4639SOL    HW125948   6.649   2.537   1.132
 4639SOL    HW225949   6.703   2.395   1.071
 4640SOL     OW25950   5.095   3.996   0.648
 4640SOL    HW125951   5.112   3.991   0.747
 4640SOL    HW225952   5.092   4.092   0.620
 4641SOL     OW25953   3.174   0.887   1.626
 4641SOL    HW125954   3.201   0.827   1.551
 4641SOL    HW225955   3.075   0.905   1.620
 4642SOL     OW25956   2.131   0.181   1.906
 4642SOL    HW125957   2.220   0.166   1.951
 4642SOL    HW225958   2.073   0.235   1.966
 4643SOL     OW25959   2.513   0.241   6.755
 4643SOL    HW125960   2.586   0.229   6.823
 4643SOL    HW225961   2.424   0.230   6.799
 4644SOL     OW25962   5.496   7.775   0.956
 4644SOL    HW125963   5.573   7.832   0.985
 4644SOL    HW225964   5.463   7.723   1.034
 4645SOL     OW25965   7.995   7.534   6.143
 4645SOL    HW125966   7.908   7.565   6.182
 4645SOL    HW225967   8.027   7.602   6.077
 4646SOL     OW25968   7.110   2.629   1.430
 4646SOL    HW125969   7.074   2.544   1.389
 4646SOL    HW225970   7.157   2.607   1.516
 4647SOL     OW25971   7.988   4.692   5.630
 4647SOL    HW125972   7.895   4.681   5.595
 4647SOL    HW225973   8.050   4.631   5.580
 4648SOL     OW25974   1.110   7.359   1.571
 4648SOL    HW125975   1.152   7.331   1.657
 4648SOL    HW225976   1.018   7.320   1.565
 4649SOL     OW25977   8.243   4.730   6.348
 4649SOL    HW125978   8.269   4.658   6.412
 4649SOL    HW225979   8.286   4.816   6.375
 4650SOL     OW25980   7.645   0.112   5.362
 4650SOL    HW125981   7.586   0.053   5.306
 4650SOL    HW225982   7.701   0.169   5.302
 4651SOL     OW25983   1.496   7.417   1.328
 4651SOL    HW125984   1.418   7.386   1.274
 4651SOL    HW225985   1.558   7.469   1.270
 4652SOL     OW25986   3.674   1.859   5.902
 4652SOL    HW125987   3.757   1.868   5.956
 4652SOL    HW225988   3.697   1.854   5.805
 4653SOL     OW25989   6.811   7.382   6.391
 4653SOL    HW125990   6.744   7.310   6.410
 4653SOL    HW225991   6.807   7.451   6.463
 4654SOL     OW25992   9.054   7.926   6.072
 4654SOL    HW125993   8.969   7.971   6.046
 4654SOL    HW225994   9.128   7.960   6.014
 4655SOL     OW25995   9.445   0.050   5.673
 4655SOL    HW125996   9.402  -0.039   5.691
 4655SOL    HW225997   9.385   0.105   5.616
 4656SOL     OW25998   6.929   5.998   1.755
 4656SOL    HW125999   6.934   5.971   1.851
 4656SOL    HW226000   6.991   5.941   1.701
 4657SOL     OW26001   3.750   6.406   0.542
 4657SOL    HW126002   3.680   6.442   0.481
 4657SOL    HW226003   3.736   6.443   0.634
 4658SOL     OW26004   8.207   1.527   6.366
 4658SOL    HW126005   8.249   1.610   6.329
 4658SOL    HW226006   8.193   1.461   6.292
 4659SOL     OW26007   2.477   3.206   6.571
 4659SOL    HW126008   2.542   3.207   6.495
 4659SOL    HW226009   2.527   3.214   6.657
 4660SOL     OW26010   6.405   3.158   1.298
 4660SOL    HW126011   6.321   3.156   1.353
 4660SOL    HW226012   6.382   3.188   1.205
 4661SOL     OW26013   8.971   4.902   6.462
 4661SOL    HW126014   9.020   4.907   6.549
 4661SOL    HW226015   8.873   4.898   6.479
 4662SOL     OW26016   1.827   6.486   5.436
 4662SOL    HW126017   1.741   6.435   5.426
 4662SOL    HW226018   1.880   6.477   5.351
 4663SOL     OW26019   3.857   0.644   1.375
 4663SOL    HW126020   3.837   0.726   1.322
 4663SOL    HW226021   3.779   0.582   1.371
 4664SOL     OW26022   7.069   4.802   0.308
 4664SOL    HW126023   7.028   4.735   0.370
 4664SOL    HW226024   7.131   4.755   0.245
 4665SOL     OW26025   1.039   8.022   5.332
 4665SOL    HW126026   1.032   8.035   5.431
 4665SOL    HW226027   1.001   8.101   5.284
 4666SOL     OW26028   4.158   0.886   0.244
 4666SOL    HW126029   4.226   0.952   0.275
 4666SOL    HW226030   4.105   0.853   0.323
 4667SOL     OW26031   3.309   7.030   0.824
 4667SOL    HW126032   3.332   6.934   0.805
 4667SOL    HW226033   3.214   7.046   0.800
 4668SOL     OW26034   5.212   7.726   6.329
 4668SOL    HW126035   5.249   7.662   6.396
 4668SOL    HW226036   5.262   7.812   6.333
 4669SOL     OW26037   4.211   1.239   1.049
 4669SOL    HW126038   4.178   1.251   0.955
 4669SOL    HW226039   4.138   1.266   1.113
 4670SOL     OW26040   4.512   8.165   1.062
 4670SOL    HW126041   4.530   8.208   1.151
 4670SOL    HW226042   4.519   8.065   1.072
 4671SOL     OW26043   0.484   0.966   5.738
 4671SOL    HW126044   0.555   0.925   5.681
 4671SOL    HW226045   0.443   0.895   5.796
 4672SOL     OW26046   3.499   6.191   5.936
 4672SOL    HW126047   3.470   6.095   5.936
 4672SOL    HW226048   3.450   6.241   6.007
 4673SOL     OW26049   0.710   4.827   0.612
 4673SOL    HW126050   0.754   4.850   0.525
 4673SOL    HW226051   0.723   4.730   0.632
 4674SOL     OW26052   2.900   7.598   5.861
 4674SOL    HW126053   2.932   7.507   5.835
 4674SOL    HW226054   2.888   7.654   5.779
 4675SOL     OW26055   4.971   3.086   1.138
 4675SOL    HW126056   4.994   3.003   1.189
 4675SOL    HW226057   4.978   3.166   1.198
 4676SOL     OW26058   6.582   1.499   6.371
 4676SOL    HW126059   6.629   1.416   6.403
 4676SOL    HW226060   6.550   1.551   6.450
 4677SOL     OW26061   2.447   0.211   0.633
 4677SOL    HW126062   2.359   0.175   0.664
 4677SOL    HW226063   2.520   0.150   0.664
 4678SOL     OW26064   8.758   4.656   1.086
 4678SOL    HW126065   8.773   4.574   1.030
 4678SOL    HW226066   8.687   4.638   1.154
 4679SOL     OW26067   7.551   1.424   0.217
 4679SOL    HW126068   7.623   1.354   0.218
 4679SOL    HW226069   7.565   1.486   0.294
 4680SOL     OW26070   7.868   5.763   5.840
 4680SOL    HW126071   7.923   5.791   5.761
 4680SOL    HW226072   7.779   5.730   5.808
 4681SOL     OW26073   6.948   4.050   1.693
 4681SOL    HW126074   6.859   4.086   1.722
 4681SOL    HW226075   6.993   4.118   1.635
 4682SOL     OW26076   1.102   2.360   5.940
 4682SOL    HW126077   1.189   2.357   5.989
 4682SOL    HW226078   1.111   2.313   5.852
 4683SOL     OW26079   8.021   7.448   1.324
 4683SOL    HW126080   8.104   7.421   1.373
 4683SOL    HW226081   7.957   7.490   1.387
 4684SOL     OW26082   6.165   6.919   1.456
 4684SOL    HW126083   6.162   6.933   1.555
 4684SOL    HW226084   6.207   6.830   1.436
 4685SOL     OW26085   2.298  -0.006   6.598
 4685SOL    HW126086   2.331   0.053   6.524
 4685SOL    HW226087   2.316  -0.101   6.575
 4686SOL     OW26088   6.184   0.261   0.994
 4686SOL    HW126089   6.244   0.224   0.924
 4686SOL    HW226090   6.094   0.281   0.954
 4687SOL     OW26091   2.556   2.048   6.355
 4687SOL    HW126092   2.637   2.011   6.310
 4687SOL    HW226093   2.474   2.016   6.308
 4688SOL     OW26094   5.549   4.292   1.252
 4688SOL    HW126095   5.624   4.357   1.254
 4688SOL    HW226096   5.466   4.339   1.220
 4689SOL     OW26097   9.357   7.320   5.774
 4689SOL    HW126098   9.337   7.415   5.797
 4689SOL    HW226099   9.433   7.287   5.830
 4690SOL     OW26100   1.237   7.289   1.809
 4690SOL    HW126101   1.226   7.383   1.843
 4690SOL    HW226102   1.204   7.224   1.877
 4691SOL     OW26103   6.383   3.557   1.275
 4691SOL    HW126104   6.394   3.656   1.279
 4691SOL    HW226105   6.462   3.513   1.318
 4692SOL     OW26106   5.367   0.399   6.021
 4692SOL    HW126107   5.295   0.370   6.084
 4692SOL    HW226108   5.405   0.487   6.052
 4693SOL     OW26109   5.979   2.478   2.051
 4693SOL    HW126110   6.029   2.562   2.027
 4693SOL    HW226111   5.914   2.498   2.124
 4694SOL     OW26112   2.771   4.135   6.502
 4694SOL    HW126113   2.683   4.181   6.495
 4694SOL    HW226114   2.834   4.173   6.434
 4695SOL     OW26115   1.090   2.675   1.448
 4695SOL    HW126116   1.072   2.679   1.546
 4695SOL    HW226117   1.023   2.730   1.400
 4696SOL     OW26118   0.815   6.949   0.585
 4696SOL    HW126119   0.912   6.964   0.604
 4696SOL    HW226120   0.777   6.887   0.653
 4697SOL     OW26121   5.236   6.471   6.551
 4697SOL    HW126122   5.217   6.411   6.473
 4697SOL    HW226123   5.335   6.480   6.562
 4698SOL     OW26124   7.192   1.978   1.890
 4698SOL    HW126125   7.260   1.913   1.856
 4698SOL    HW226126   7.133   1.934   1.957
 4699SOL     OW26127   7.009   3.345   6.297
 4699SOL    HW126128   6.943   3.325   6.225
 4699SOL    HW226129   6.973   3.417   6.356
 4700SOL     OW26130   1.755   5.281   5.933
 4700SOL    HW126131   1.836   5.236   5.896
 4700SOL    HW226132   1.780   5.333   6.015
 4701SOL     OW26133   7.226   7.110   5.858
 4701SOL    HW126134   7.289   7.056   5.914
 4701SOL    HW226135   7.195   7.190   5.911
 4702SOL     OW26136   1.854  -0.030   0.411
 4702SOL    HW126137   1.913   0.050   0.424
 4702SOL    HW226138   1.780  -0.027   0.478
 4703SOL     OW26139   7.552   2.681   5.768
 4703SOL    HW126140   7.507   2.679   5.679
 4703SOL    HW226141   7.551   2.774   5.804
 4704SOL     OW26142   2.689   7.957   5.828
 4704SOL    HW126143   2.758   7.928   5.761
 4704SOL    HW226144   2.655   7.877   5.878
 4705SOL     OW26145   5.802   2.236   0.679
 4705SOL    HW126146   5.871   2.307   0.691
 4705SOL    HW226147   5.714   2.279   0.658
 4706SOL     OW26148   0.508   5.072   5.969
 4706SOL    HW126149   0.577   5.000   5.979
 4706SOL    HW226150   0.490   5.086   5.872
 4707SOL     OW26151   6.559   7.316   0.791
 4707SOL    HW126152   6.629   7.264   0.839
 4707SOL    HW226153   6.602   7.381   0.729
 4708SOL     OW26154   7.760   4.949   0.624
 4708SOL    HW126155   7.699   4.882   0.666
 4708SOL    HW226156   7.760   4.936   0.525
 4709SOL     OW26157   6.373   8.135   6.271
 4709SOL    HW126158   6.329   8.046   6.256
 4709SOL    HW226159   6.421   8.134   6.359
 4710SOL     OW26160   8.200   5.373   0.469
 4710SOL    HW126161   8.205   5.375   0.369
 4710SOL    HW226162   8.104   5.362   0.497
 4711SOL     OW26163   3.497   7.981   6.140
 4711SOL    HW126164   3.503   7.883   6.122
 4711SOL    HW226165   3.570   8.028   6.091
 4712SOL     OW26166   8.796   1.543   0.721
 4712SOL    HW126167   8.885   1.554   0.767
 4712SOL    HW226168   8.758   1.454   0.743
 4713SOL     OW26169   4.838   2.494   6.138
 4713SOL    HW126170   4.927   2.474   6.095
 4713SOL    HW226171   4.841   2.584   6.180
 4714SOL     OW26172   3.238   4.600   1.140
 4714SOL    HW126173   3.285   4.658   1.074
 4714SOL    HW226174   3.226   4.508   1.101
 4715SOL     OW26175   0.844   7.061   0.342
 4715SOL    HW126176   0.779   7.136   0.328
 4715SOL    HW226177   0.817   7.008   0.423
 4716SOL     OW26178   4.580   5.511   2.023
 4716SOL    HW126179   4.657   5.471   2.073
 4716SOL    HW226180   4.498   5.455   2.040
 4717SOL     OW26181   0.594   1.508   6.829
 4717SOL    HW126182   0.579   1.410   6.834
 4717SOL    HW226183   0.591   1.547   6.922
 4718SOL     OW26184   6.063   5.618   1.989
 4718SOL    HW126185   6.108   5.534   2.020
 4718SOL    HW226186   5.969   5.620   2.023
 4719SOL     OW26187   2.377   7.183   0.984
 4719SOL    HW126188   2.338   7.160   0.895
 4719SOL    HW226189   2.313   7.155   1.056
 4720SOL     OW26190   1.217   1.155   5.554
 4720SOL    HW126191   1.257   1.109   5.475
 4720SOL    HW226192   1.174   1.240   5.524
 4721SOL     OW26193   6.117   2.288   5.948
 4721SOL    HW126194   6.133   2.271   5.851
 4721SOL    HW226195   6.030   2.246   5.975
 4722SOL     OW26196   8.115   2.138   0.848
 4722SOL    HW126197   8.206   2.130   0.808
 4722SOL    HW226198   8.118   2.113   0.945
 4723SOL     OW26199   0.289   8.262   5.590
 4723SOL    HW126200   0.220   8.301   5.528
 4723SOL    HW226201   0.368   8.323   5.596
 4724SOL     OW26202   0.866   4.001   6.436
 4724SOL    HW126203   0.819   4.071   6.383
 4724SOL    HW226204   0.964   4.003   6.414
 4725SOL     OW26205   8.222   2.051   6.350
 4725SOL    HW126206   8.282   1.986   6.397
 4725SOL    HW226207   8.255   2.065   6.257
 4726SOL     OW26208   1.916   2.694   1.255
 4726SOL    HW126209   1.981   2.769   1.268
 4726SOL    HW226210   1.886   2.660   1.345
 4727SOL     OW26211   0.816   7.940   6.657
 4727SOL    HW126212   0.828   7.963   6.754
 4727SOL    HW226213   0.906   7.920   6.617
 4728SOL     OW26214   1.179   0.997   5.868
 4728SOL    HW126215   1.158   0.920   5.807
 4728SOL    HW226216   1.188   1.080   5.814
 4729SOL     OW26217   0.122   0.951   1.486
 4729SOL    HW126218   0.032   0.929   1.448
 4729SOL    HW226219   0.122   0.930   1.584
 4730SOL     OW26220   3.738   5.599   6.854
 4730SOL    HW126221   3.675   5.676   6.857
 4730SOL    HW226222   3.831   5.633   6.837
 4731SOL     OW26223   6.940   3.783   6.509
 4731SOL    HW126224   7.024   3.776   6.454
 4731SOL    HW226225   6.954   3.849   6.582
 4732SOL     OW26226   6.557   2.626   1.648
 4732SOL    HW126227   6.530   2.547   1.703
 4732SOL    HW226228   6.572   2.705   1.708
 4733SOL     OW26229   6.453   7.006   1.318
 4733SOL    HW126230   6.441   7.018   1.219
 4733SOL    HW226231   6.363   6.995   1.361
 4734SOL     OW26232   6.357   3.962   5.806
 4734SOL    HW126233   6.452   3.934   5.795
 4734SOL    HW226234   6.297   3.892   5.766
 4735SOL     OW26235   5.803   7.164   0.213
 4735SOL    HW126236   5.810   7.183   0.311
 4735SOL    HW226237   5.894   7.161   0.172
 4736SOL     OW26238   4.675   4.026   6.657
 4736SOL    HW126239   4.764   4.050   6.618
 4736SOL    HW226240   4.637   4.105   6.706
 4737SOL     OW26241   2.682   5.677   6.756
 4737SOL    HW126242   2.697   5.614   6.832
 4737SOL    HW226243   2.685   5.771   6.791
 4738SOL     OW26244   3.181   7.677   1.687
 4738SOL    HW126245   3.136   7.589   1.698
 4738SOL    HW226246   3.228   7.680   1.599
 4739SOL     OW26247   7.882   3.814   1.628
 4739SOL    HW126248   7.892   3.773   1.537
 4739SOL    HW226249   7.944   3.892   1.636
 4740SOL     OW26250   0.705   6.712   5.733
 4740SOL    HW126251   0.664   6.624   5.758
 4740SOL    HW226252   0.737   6.708   5.638
 4741SOL     OW26253   1.437   7.670   5.695
 4741SOL    HW126254   1.350   7.717   5.688
 4741SOL    HW226255   1.463   7.633   5.606
 4742SOL     OW26256   6.541   4.211   6.286
 4742SOL    HW126257   6.553   4.112   6.289
 4742SOL    HW226258   6.592   4.248   6.209
 4743SOL     OW26259   1.856   2.560   1.472
 4743SOL    HW126260   1.809   2.503   1.404
 4743SOL    HW226261   1.894   2.501   1.544
 4744SOL     OW26262   3.159   2.225   2.689
 4744SOL    HW126263   3.220   2.260   2.761
 4744SOL    HW226264   3.099   2.299   2.658
 4745SOL     OW26265   6.299   4.357   4.818
 4745SOL    HW126266   6.208   4.392   4.794
 4745SOL    HW226267   6.351   4.429   4.866
 4746SOL     OW26268   0.745   3.030   0.893
 4746SOL    HW126269   0.676   3.099   0.914
 4746SOL    HW226270   0.711   2.970   0.821
 4747SOL     OW26271   2.615   2.055   0.358
 4747SOL    HW126272   2.641   2.107   0.439
 4747SOL    HW226273   2.675   1.976   0.348
 4748SOL     OW26274   1.475   2.625   4.723
 4748SOL    HW126275   1.534   2.547   4.707
 4748SOL    HW226276   1.528   2.700   4.762
 4749SOL     OW26277   3.816   6.841   6.536
 4749SOL    HW126278   3.804   6.779   6.614
 4749SOL    HW226279   3.869   6.920   6.565
 4750SOL     OW26280   8.096   7.145   5.550
 4750SOL    HW126281   8.056   7.226   5.506
 4750SOL    HW226282   8.136   7.086   5.481
 4751SOL     OW26283   4.671   6.629   4.835
 4751SOL    HW126284   4.638   6.716   4.799
 4751SOL    HW226285   4.605   6.557   4.812
 4752SOL     OW26286   7.885   7.812   2.169
 4752SOL    HW126287   7.952   7.754   2.214
 4752SOL    HW226288   7.795   7.769   2.172
 4753SOL     OW26289   8.238   6.752   0.704
 4753SOL    HW126290   8.265   6.805   0.623
 4753SOL    HW226291   8.190   6.669   0.675
 4754SOL     OW26292   4.221   3.726   0.692
 4754SOL    HW126293   4.235   3.668   0.772
 4754SOL    HW226294   4.257   3.681   0.611
 4755SOL     OW26295   8.393   3.260   5.346
 4755SOL    HW126296   8.401   3.336   5.281
 4755SOL    HW226297   8.395   3.173   5.296
 4756SOL     OW26298   3.739   3.754   5.927
 4756SOL    HW126299   3.749   3.776   5.830
 4756SOL    HW226300   3.765   3.659   5.942
 4757SOL     OW26301   2.227   3.862   6.893
 4757SOL    HW126302   2.201   3.765   6.885
 4757SOL    HW226303   2.198   3.897   6.982
 4758SOL     OW26304   7.444   4.636   5.729
 4758SOL    HW126305   7.433   4.538   5.741
 4758SOL    HW226306   7.396   4.665   5.646
 4759SOL     OW26307   1.873   1.130   0.871
 4759SOL    HW126308   1.883   1.032   0.850
 4759SOL    HW226309   1.825   1.141   0.958
 4760SOL     OW26310   2.433   4.628   1.550
 4760SOL    HW126311   2.476   4.585   1.470
 4760SOL    HW226312   2.341   4.660   1.526
 4761SOL     OW26313   2.784   6.865   2.160
 4761SOL    HW126314   2.749   6.957   2.178
 4761SOL    HW226315   2.866   6.849   2.215
 4762SOL     OW26316   0.686   5.082   6.249
 4762SOL    HW126317   0.638   4.995   6.262
 4762SOL    HW226318   0.656   5.124   6.164
 4763SOL     OW26319   3.833   1.523   6.690
 4763SOL    HW126320   3.902   1.580   6.734
 4763SOL    HW226321   3.867   1.491   6.602
 4764SOL     OW26322   5.536   2.930   6.422
 4764SOL    HW126323   5.540   3.008   6.484
 4764SOL    HW226324   5.468   2.947   6.351
 4765SOL     OW26325   6.620   1.782   0.686
 4765SOL    HW126326   6.693   1.753   0.748
 4765SOL    HW226327   6.548   1.713   0.683
 4766SOL     OW26328   0.415   2.029   6.924
 4766SOL    HW126329   0.338   2.046   6.986
 4766SOL    HW226330   0.433   2.112   6.871
 4767SOL     OW26331   9.363   7.217   1.160
 4767SOL    HW126332   9.300   7.184   1.230
 4767SOL    HW226333   9.453   7.232   1.200
 4768SOL     OW26334   5.919   0.312   5.919
 4768SOL    HW126335   5.939   0.242   5.852
 4768SOL    HW226336   5.933   0.402   5.879
 4769SOL     OW26337   1.327   1.316   0.894
 4769SOL    HW126338   1.228   1.304   0.890
 4769SOL    HW226339   1.367   1.248   0.955
 4770SOL     OW26340   6.493   1.797   6.175
 4770SOL    HW126341   6.525   1.808   6.081
 4770SOL    HW226342   6.520   1.707   6.209
 4771SOL     OW26343   0.693   2.819   0.733
 4771SOL    HW126344   0.606   2.789   0.772
 4771SOL    HW226345   0.690   2.811   0.633
 4772SOL     OW26346   6.957   2.869   6.266
 4772SOL    HW126347   7.028   2.928   6.303
 4772SOL    HW226348   6.873   2.880   6.319
 4773SOL     OW26349   2.148   3.969   0.396
 4773SOL    HW126350   2.207   3.902   0.441
 4773SOL    HW226351   2.085   4.009   0.463
 4774SOL     OW26352   9.289   8.131   6.376
 4774SOL    HW126353   9.228   8.208   6.396
 4774SOL    HW226354   9.360   8.161   6.312
 4775SOL     OW26355   0.751   7.073   0.926
 4775SOL    HW126356   0.800   7.042   1.008
 4775SOL    HW226357   0.656   7.045   0.931
 4776SOL     OW26358   2.461   1.953   2.064
 4776SOL    HW126359   2.425   1.934   2.156
 4776SOL    HW226360   2.443   2.049   2.041
 4777SOL     OW26361   1.418   0.453   6.484
 4777SOL    HW126362   1.489   0.389   6.454
 4777SOL    HW226363   1.328   0.412   6.467
 4778SOL     OW26364   2.503   4.930   1.466
 4778SOL    HW126365   2.459   5.005   1.515
 4778SOL    HW226366   2.512   4.851   1.526
 4779SOL     OW26367   9.427   3.072   0.588
 4779SOL    HW126368   9.431   2.972   0.590
 4779SOL    HW226369   9.412   3.106   0.681
 4780SOL     OW26370   2.988   4.583   6.637
 4780SOL    HW126371   2.901   4.591   6.589
 4780SOL    HW226372   3.053   4.649   6.599
 4781SOL     OW26373   1.680   0.759   4.907
 4781SOL    HW126374   1.635   0.671   4.901
 4781SOL    HW226375   1.654   0.815   4.828
 4782SOL     OW26376   8.540   5.453   5.742
 4782SOL    HW126377   8.632   5.491   5.752
 4782SOL    HW226378   8.539   5.388   5.666
 4783SOL     OW26379   0.680   0.282   1.955
 4783SOL    HW126380   0.760   0.332   1.989
 4783SOL    HW226381   0.597   0.317   1.999
 4784SOL     OW26382   1.710   6.454   0.314
 4784SOL    HW126383   1.646   6.452   0.391
 4784SOL    HW226384   1.661   6.480   0.231
 4785SOL     OW26385   9.430   0.130   6.916
 4785SOL    HW126386   9.512   0.097   6.871
 4785SOL    HW226387   9.353   0.125   6.852
 4786SOL     OW26388   1.297   3.551   0.494
 4786SOL    HW126389   1.325   3.646   0.510
 4786SOL    HW226390   1.369   3.502   0.445
 4787SOL     OW26391   4.969   0.488   1.874
 4787SOL    HW126392   5.003   0.399   1.843
 4787SOL    HW226393   5.045   0.548   1.896
 4788SOL     OW26394   5.354   4.226   0.555
 4788SOL    HW126395   5.256   4.244   0.555
 4788SOL    HW226396   5.374   4.150   0.493
 4789SOL     OW26397   9.314   7.538   0.257
 4789SOL    HW126398   9.223   7.531   0.298
 4789SOL    HW226399   9.308   7.587   0.171
 4790SOL     OW26400   6.684   1.310   2.188
 4790SOL    HW126401   6.697   1.322   2.286
 4790SOL    HW226402   6.682   1.213   2.166
 4791SOL     OW26403   4.830   7.857   1.538
 4791SOL    HW126404   4.825   7.866   1.438
 4791SOL    HW226405   4.907   7.798   1.563
 4792SOL     OW26406   2.776   1.762   1.669
 4792SOL    HW126407   2.868   1.785   1.700
 4792SOL    HW226408   2.762   1.664   1.675
 4793SOL     OW26409   9.214   1.682   0.759
 4793SOL    HW126410   9.201   1.727   0.671
 4793SOL    HW226411   9.173   1.737   0.832
 4794SOL     OW26412   3.372   3.498   1.500
 4794SOL    HW126413   3.403   3.506   1.595
 4794SOL    HW226414   3.426   3.428   1.453
 4795SOL     OW26415   4.837   5.277   0.477
 4795SOL    HW126416   4.767   5.278   0.406
 4795SOL    HW226417   4.918   5.229   0.443
 4796SOL     OW26418   3.846   4.434   5.962
 4796SOL    HW126419   3.899   4.405   5.883
 4796SOL    HW226420   3.853   4.364   6.034
 4797SOL     OW26421   2.372   4.215   0.734
 4797SOL    HW126422   2.462   4.244   0.700
 4797SOL    HW226423   2.323   4.294   0.768
 4798SOL     OW26424   4.108   5.539   5.883
 4798SOL    HW126425   4.158   5.488   5.813
 4798SOL    HW226426   4.021   5.571   5.846
 4799SOL     OW26427   5.207   1.221   6.813
 4799SOL    HW126428   5.211   1.125   6.839
 4799SOL    HW226429   5.298   1.261   6.819
 4800SOL     OW26430   7.828   5.564   6.641
 4800SOL    HW126431   7.769   5.622   6.697
 4800SOL    HW226432   7.795   5.564   6.547
 4801SOL     OW26433   2.536   3.840   6.114
 4801SOL    HW126434   2.463   3.811   6.052
 4801SOL    HW226435   2.497   3.876   6.199
 4802SOL     OW26436   2.162   4.598   5.344
 4802SOL    HW126437   2.142   4.531   5.273
 4802SOL    HW226438   2.252   4.577   5.384
 4803SOL     OW26439   6.254   4.153   1.312
 4803SOL    HW126440   6.314   4.230   1.290
 4803SOL    HW226441   6.213   4.168   1.402
 4804SOL     OW26442   8.719   4.230   1.069
 4804SOL    HW126443   8.641   4.172   1.092
 4804SOL    HW226444   8.804   4.182   1.092
 4805SOL     OW26445   7.022   0.389   5.777
 4805SOL    HW126446   7.036   0.487   5.792
 4805SOL    HW226447   6.952   0.376   5.706
 4806SOL     OW26448   5.462   0.358   5.579
 4806SOL    HW126449   5.391   0.368   5.649
 4806SOL    HW226450   5.485   0.448   5.542
 4807SOL     OW26451   9.155   7.048   6.056
 4807SOL    HW126452   9.182   7.091   5.970
 4807SOL    HW226453   9.056   7.052   6.065
 4808SOL     OW26454   3.432   6.336   0.365
 4808SOL    HW126455   3.475   6.417   0.405
 4808SOL    HW226456   3.346   6.317   0.412
 4809SOL     OW26457   2.687   6.428   1.329
 4809SOL    HW126458   2.687   6.368   1.249
 4809SOL    HW226459   2.728   6.380   1.406
 4810SOL     OW26460   6.241   0.365   6.302
 4810SOL    HW126461   6.219   0.290   6.239
 4810SOL    HW226462   6.335   0.354   6.335
 4811SOL     OW26463   4.932   2.640   6.759
 4811SOL    HW126464   4.866   2.592   6.816
 4811SOL    HW226465   4.988   2.701   6.816
 4812SOL     OW26466   3.815   6.870   1.357
 4812SOL    HW126467   3.800   6.773   1.375
 4812SOL    HW226468   3.793   6.923   1.439
 4813SOL     OW26469   7.303   7.610   6.041
 4813SOL    HW126470   7.383   7.553   6.023
 4813SOL    HW226471   7.236   7.597   5.967
 4814SOL     OW26472   7.066   3.429   6.791
 4814SOL    HW126473   7.145   3.383   6.831
 4814SOL    HW226474   7.066   3.415   6.692
 4815SOL     OW26475   9.460   7.538   5.343
 4815SOL    HW126476   9.458   7.523   5.441
 4815SOL    HW226477   9.443   7.452   5.295
 4816SOL     OW26478   7.940   3.244   6.597
 4816SOL    HW126479   7.861   3.280   6.648
 4816SOL    HW226480   8.021   3.300   6.617
 4817SOL     OW26481   8.651   6.211   6.599
 4817SOL    HW126482   8.682   6.185   6.690
 4817SOL    HW226483   8.681   6.143   6.532
 4818SOL     OW26484   2.226   7.776   1.382
 4818SOL    HW126485   2.137   7.733   1.394
 4818SOL    HW226486   2.274   7.778   1.470
 4819SOL     OW26487   6.151   1.609   6.371
 4819SOL    HW126488   6.137   1.568   6.280
 4819SOL    HW226489   6.148   1.537   6.440
 4820SOL     OW26490   2.173   0.181   0.775
 4820SOL    HW126491   2.127   0.131   0.702
 4820SOL    HW226492   2.167   0.129   0.861
 4821SOL     OW26493   6.070   1.721   1.542
 4821SOL    HW126494   6.097   1.811   1.574
 4821SOL    HW226495   6.026   1.671   1.617
 4822SOL     OW26496   9.280   1.217   1.242
 4822SOL    HW126497   9.249   1.130   1.282
 4822SOL    HW226498   9.337   1.266   1.308
 4823SOL     OW26499   7.897   7.284   6.461
 4823SOL    HW126500   7.952   7.201   6.456
 4823SOL    HW226501   7.923   7.337   6.542
 4824SOL     OW26502   0.684   7.388   0.603
 4824SOL    HW126503   0.606   7.357   0.658
 4824SOL    HW226504   0.677   7.486   0.587
 4825SOL     OW26505   6.691   7.740   1.125
 4825SOL    HW126506   6.761   7.668   1.133
 4825SOL    HW226507   6.683   7.768   1.029
 4826SOL     OW26508   5.028   4.969   0.924
 4826SOL    HW126509   4.951   4.988   0.863
 4826SOL    HW226510   5.003   4.991   1.018
 4827SOL     OW26511   8.069   1.999   1.412
 4827SOL    HW126512   8.075   2.096   1.433
 4827SOL    HW226513   8.038   1.986   1.318
 4828SOL     OW26514   9.204   8.276   1.478
 4828SOL    HW126515   9.130   8.326   1.433
 4828SOL    HW226516   9.276   8.340   1.505
 4829SOL     OW26517   0.782   5.590   4.630
 4829SOL    HW126518   0.874   5.571   4.598
 4829SOL    HW226519   0.786   5.653   4.707
 4830SOL     OW26520   2.324   2.623   0.749
 4830SOL    HW126521   2.320   2.714   0.789
 4830SOL    HW226522   2.400   2.618   0.684
 4831SOL     OW26523   9.160   1.815   0.514
 4831SOL    HW126524   9.076   1.866   0.495
 4831SOL    HW226525   9.237   1.878   0.515
 4832SOL     OW26526   4.947   0.808   0.520
 4832SOL    HW126527   4.907   0.716   0.522
 4832SOL    HW226528   4.876   0.875   0.541
 4833SOL     OW26529   9.493   6.901   5.335
 4833SOL    HW126530   9.502   6.981   5.276
 4833SOL    HW226531   9.499   6.817   5.280
 4834SOL     OW26532   7.714   0.431   0.690
 4834SOL    HW126533   7.668   0.493   0.754
 4834SOL    HW226534   7.812   0.429   0.711
 4835SOL     OW26535   4.383   4.127   0.680
 4835SOL    HW126536   4.304   4.188   0.683
 4835SOL    HW226537   4.365   4.050   0.619
 4836SOL     OW26538   2.820   5.756   0.492
 4836SOL    HW126539   2.744   5.694   0.507
 4836SOL    HW226540   2.872   5.766   0.577
 4837SOL     OW26541   5.344   1.583   0.249
 4837SOL    HW126542   5.278   1.600   0.323
 4837SOL    HW226543   5.332   1.650   0.177
 4838SOL     OW26544   5.846   6.388   0.335
 4838SOL    HW126545   5.941   6.371   0.359
 4838SOL    HW226546   5.797   6.422   0.416
 4839SOL     OW26547   2.190   2.882   0.349
 4839SOL    HW126548   2.109   2.852   0.399
 4839SOL    HW226549   2.180   2.857   0.253
 4840SOL     OW26550   3.154   6.761   1.144
 4840SOL    HW126551   3.250   6.778   1.122
 4840SOL    HW226552   3.117   6.839   1.195
 4841SOL     OW26553   3.665   0.947   6.341
 4841SOL    HW126554   3.577   0.993   6.353
 4841SOL    HW226555   3.718   0.955   6.426
 4842SOL     OW26556   7.994   8.318   6.390
 4842SOL    HW126557   7.949   8.309   6.479
 4842SOL    HW226558   7.925   8.330   6.318
 4843SOL     OW26559   9.328   0.170   6.517
 4843SOL    HW126560   9.370   0.247   6.564
 4843SOL    HW226561   9.277   0.203   6.437
 4844SOL     OW26562   3.231   3.547   6.421
 4844SOL    HW126563   3.328   3.544   6.444
 4844SOL    HW226564   3.199   3.455   6.397
 4845SOL     OW26565   1.061   4.077   0.336
 4845SOL    HW126566   1.147   4.105   0.292
 4845SOL    HW226567   1.076   3.993   0.388
 4846SOL     OW26568   8.198   5.113   5.324
 4846SOL    HW126569   8.143   5.089   5.243
 4846SOL    HW226570   8.143   5.102   5.406
 4847SOL     OW26571   1.771   1.119   6.767
 4847SOL    HW126572   1.744   1.176   6.845
 4847SOL    HW226573   1.857   1.154   6.729
 4848SOL     OW26574   2.174   0.433   6.689
 4848SOL    HW126575   2.100   0.366   6.685
 4848SOL    HW226576   2.142   0.520   6.653
 4849SOL     OW26577   8.973   6.916   5.307
 4849SOL    HW126578   9.046   6.959   5.254
 4849SOL    HW226579   9.012   6.876   5.390
 4850SOL     OW26580   5.144   7.148   6.500
 4850SOL    HW126581   5.204   7.114   6.428
 4850SOL    HW226582   5.097   7.071   6.543
 4851SOL     OW26583   7.200   5.308   5.771
 4851SOL    HW126584   7.282   5.346   5.728
 4851SOL    HW226585   7.203   5.208   5.767
 4852SOL     OW26586   0.136   0.701   6.396
 4852SOL    HW126587   0.037   0.701   6.414
 4852SOL    HW226588   0.181   0.642   6.464
 4853SOL     OW26589   2.181   5.423   5.642
 4853SOL    HW126590   2.151   5.517   5.656
 4853SOL    HW226591   2.253   5.400   5.708
 4854SOL     OW26592   4.012   4.394   1.958
 4854SOL    HW126593   3.999   4.490   1.935
 4854SOL    HW226594   3.925   4.346   1.950
 4855SOL     OW26595   5.605   3.479   0.985
 4855SOL    HW126596   5.639   3.456   1.076
 4855SOL    HW226597   5.547   3.560   0.991
 4856SOL     OW26598   1.717   0.846   0.837
 4856SOL    HW126599   1.647   0.867   0.905
 4856SOL    HW226600   1.673   0.809   0.755
 4857SOL     OW26601   3.713   1.291   6.283
 4857SOL    HW126602   3.626   1.336   6.299
 4857SOL    HW226603   3.697   1.197   6.252
 4858SOL     OW26604   2.132   6.740   6.214
 4858SOL    HW126605   2.095   6.818   6.164
 4858SOL    HW226606   2.197   6.691   6.157
 4859SOL     OW26607   5.897   0.857   1.198
 4859SOL    HW126608   5.866   0.763   1.218
 4859SOL    HW226609   5.996   0.859   1.193
 4860SOL     OW26610   3.812   5.680   5.743
 4860SOL    HW126611   3.744   5.607   5.753
 4860SOL    HW226612   3.765   5.767   5.728
 4861SOL     OW26613   7.135   1.924   5.616
 4861SOL    HW126614   7.131   2.021   5.639
 4861SOL    HW226615   7.101   1.910   5.523
 4862SOL     OW26616   4.719   8.249   0.441
 4862SOL    HW126617   4.634   8.287   0.478
 4862SOL    HW226618   4.732   8.282   0.347
 4863SOL     OW26619   5.030   7.750   5.903
 4863SOL    HW126620   4.972   7.700   5.968
 4863SOL    HW226621   5.126   7.728   5.920
 4864SOL     OW26622   2.245   1.702   6.238
 4864SOL    HW126623   2.149   1.714   6.261
 4864SOL    HW226624   2.254   1.677   6.142
 4865SOL     OW26625   5.096   6.699   6.262
 4865SOL    HW126626   5.031   6.637   6.305
 4865SOL    HW226627   5.080   6.792   6.295
 4866SOL     OW26628   9.535   7.905   5.809
 4866SOL    HW126629   9.579   7.995   5.812
 4866SOL    HW226630   9.501   7.888   5.717
 4867SOL     OW26631   1.383   5.891   6.908
 4867SOL    HW126632   1.446   5.966   6.927
 4867SOL    HW226633   1.322   5.916   6.833
 4868SOL     OW26634   8.762   7.383   4.301
 4868SOL    HW126635   8.854   7.396   4.339
 4868SOL    HW226636   8.769   7.334   4.214
 4869SOL     OW26637   3.548   6.020   6.795
 4869SOL    HW126638   3.480   6.054   6.730
 4869SOL    HW226639   3.526   6.053   6.886
 4870SOL     OW26640   4.019   7.782   1.223
 4870SOL    HW126641   4.076   7.760   1.144
 4870SOL    HW226642   4.077   7.802   1.302
 4871SOL     OW26643   7.214   1.567   6.787
 4871SOL    HW126644   7.224   1.530   6.879
 4871SOL    HW226645   7.242   1.498   6.720
 4872SOL     OW26646   8.484   6.348   6.254
 4872SOL    HW126647   8.521   6.396   6.175
 4872SOL    HW226648   8.513   6.393   6.338
 4873SOL     OW26649   0.523   6.222   5.619
 4873SOL    HW126650   0.595   6.260   5.677
 4873SOL    HW226651   0.457   6.174   5.676
 4874SOL     OW26652   8.508   1.085   1.054
 4874SOL    HW126653   8.560   1.107   1.136
 4874SOL    HW226654   8.450   1.163   1.029
 4875SOL     OW26655   0.424   2.205   1.014
 4875SOL    HW126656   0.484   2.127   1.031
 4875SOL    HW226657   0.476   2.290   1.024
 4876SOL     OW26658   4.168   1.313   5.947
 4876SOL    HW126659   4.085   1.339   5.995
 4876SOL    HW226660   4.163   1.342   5.852
 4877SOL     OW26661   1.403   6.371   5.530
 4877SOL    HW126662   1.449   6.320   5.603
 4877SOL    HW226663   1.460   6.368   5.448
 4878SOL     OW26664   3.631   4.953   6.533
 4878SOL    HW126665   3.650   4.907   6.620
 4878SOL    HW226666   3.576   5.035   6.550
 4879SOL     OW26667   1.110   6.876   6.762
 4879SOL    HW126668   1.157   6.818   6.696
 4879SOL    HW226669   1.079   6.960   6.716
 4880SOL     OW26670   3.045   8.064   6.299
 4880SOL    HW126671   3.052   8.164   6.308
 4880SOL    HW226672   2.976   8.030   6.363
 4881SOL     OW26673   6.586   1.243   1.431
 4881SOL    HW126674   6.653   1.189   1.380
 4881SOL    HW226675   6.519   1.182   1.473
 4882SOL     OW26676   5.595   7.205   5.796
 4882SOL    HW126677   5.550   7.116   5.790
 4882SOL    HW226678   5.537   7.275   5.755
 4883SOL     OW26679   9.455   6.671   6.098
 4883SOL    HW126680   9.398   6.604   6.145
 4883SOL    HW226681   9.428   6.763   6.126
 4884SOL     OW26682   5.769   2.976   1.017
 4884SOL    HW126683   5.868   2.974   1.027
 4884SOL    HW226684   5.740   2.910   0.948
 4885SOL     OW26685   7.613   7.443   0.871
 4885SOL    HW126686   7.676   7.386   0.923
 4885SOL    HW226687   7.520   7.408   0.881
 4886SOL     OW26688   2.349   1.334   1.291
 4886SOL    HW126689   2.407   1.413   1.309
 4886SOL    HW226690   2.264   1.342   1.342
 4887SOL     OW26691   4.895   6.521   6.238
 4887SOL    HW126692   4.843   6.529   6.323
 4887SOL    HW226693   4.837   6.482   6.167
 4888SOL     OW26694   5.823   8.129   1.081
 4888SOL    HW126695   5.915   8.127   1.042
 4888SOL    HW226696   5.805   8.218   1.121
 4889SOL     OW26697   2.568   5.948   1.311
 4889SOL    HW126698   2.626   6.025   1.338
 4889SOL    HW226699   2.577   5.874   1.378
 4890SOL     OW26700   6.201   2.131   6.344
 4890SOL    HW126701   6.231   2.073   6.268
 4890SOL    HW226702   6.263   2.209   6.353
 4891SOL     OW26703   2.102   6.464   0.750
 4891SOL    HW126704   2.133   6.540   0.693
 4891SOL    HW226705   2.035   6.497   0.817
 4892SOL     OW26706   1.027   0.125   0.510
 4892SOL    HW126707   1.072   0.202   0.556
 4892SOL    HW226708   1.092   0.081   0.448
 4893SOL     OW26709   4.681   2.910   2.048
 4893SOL    HW126710   4.635   2.911   2.137
 4893SOL    HW226711   4.677   3.002   2.007
 4894SOL     OW26712   8.187  -0.037   0.854
 4894SOL    HW126713   8.233  -0.125   0.839
 4894SOL    HW226714   8.194  -0.012   0.950
 4895SOL     OW26715   5.657   7.908   6.291
 4895SOL    HW126716   5.583   7.912   6.224
 4895SOL    HW226717   5.685   7.813   6.304
 4896SOL     OW26718   0.774   1.569   0.679
 4896SOL    HW126719   0.683   1.556   0.640
 4896SOL    HW226720   0.769   1.631   0.757
 4897SOL     OW26721   1.021   7.660   5.085
 4897SOL    HW126722   0.959   7.729   5.123
 4897SOL    HW226723   1.105   7.704   5.055
 4898SOL     OW26724   7.981   0.883   6.626
 4898SOL    HW126725   7.893   0.927   6.609
 4898SOL    HW226726   7.977   0.787   6.596
 4899SOL     OW26727   0.508   4.397   6.108
 4899SOL    HW126728   0.418   4.439   6.122
 4899SOL    HW226729   0.551   4.381   6.196
 4900SOL     OW26730   3.668   7.054   0.529
 4900SOL    HW126731   3.764   7.061   0.556
 4900SOL    HW226732   3.615   7.125   0.576
 4901SOL     OW26733   6.099   0.745   1.823
 4901SOL    HW126734   6.074   0.841   1.813
 4901SOL    HW226735   6.136   0.730   1.915
 4902SOL     OW26736   3.187   8.045   6.072
 4902SOL    HW126737   3.283   8.036   6.097
 4902SOL    HW226738   3.133   8.065   6.153
 4903SOL     OW26739   7.378   2.958   1.453
 4903SOL    HW126740   7.371   2.896   1.532
 4903SOL    HW226741   7.334   3.045   1.476
 4904SOL     OW26742   1.818   7.926   0.902
 4904SOL    HW126743   1.808   8.005   0.962
 4904SOL    HW226744   1.783   7.845   0.948
 4905SOL     OW26745   5.786   6.025   0.347
 4905SOL    HW126746   5.801   5.929   0.323
 4905SOL    HW226747   5.851   6.082   0.298
 4906SOL     OW26748   4.663   7.975   6.903
 4906SOL    HW126749   4.736   8.037   6.876
 4906SOL    HW226750   4.669   7.890   6.850
 4907SOL     OW26751   8.036   2.596   1.222
 4907SOL    HW126752   7.978   2.540   1.281
 4907SOL    HW226753   8.101   2.537   1.175
 4908SOL     OW26754   4.703   8.056   6.414
 4908SOL    HW126755   4.779   8.060   6.479
 4908SOL    HW226756   4.685   7.961   6.390
 4909SOL     OW26757   3.126   3.153   1.051
 4909SOL    HW126758   3.178   3.206   0.983
 4909SOL    HW226759   3.165   3.170   1.142
 4910SOL     OW26760   6.376   1.933   1.668
 4910SOL    HW126761   6.449   1.964   1.607
 4910SOL    HW226762   6.403   1.949   1.763
 4911SOL     OW26763   8.817   1.151   6.910
 4911SOL    HW126764   8.797   1.243   6.943
 4911SOL    HW226765   8.756   1.128   6.834
 4912SOL     OW26766   3.585   2.134   5.563
 4912SOL    HW126767   3.556   2.194   5.489
 4912SOL    HW226768   3.561   2.039   5.541
 4913SOL     OW26769   5.659   1.715   0.484
 4913SOL    HW126770   5.667   1.619   0.513
 4913SOL    HW226771   5.580   1.757   0.529
 4914SOL     OW26772   3.256   6.874   5.946
 4914SOL    HW126773   3.209   6.803   5.998
 4914SOL    HW226774   3.204   6.893   5.862
 4915SOL     OW26775   6.720   8.241   5.815
 4915SOL    HW126776   6.628   8.206   5.832
 4915SOL    HW226777   6.781   8.212   5.889
 4916SOL     OW26778   7.982   2.302   1.109
 4916SOL    HW126779   8.013   2.344   1.024
 4916SOL    HW226780   7.884   2.284   1.104
 4917SOL     OW26781   6.596   5.486   6.116
 4917SOL    HW126782   6.512   5.540   6.117
 4917SOL    HW226783   6.609   5.446   6.025
 4918SOL     OW26784   4.392   3.937   0.468
 4918SOL    HW126785   4.435   3.943   0.378
 4918SOL    HW226786   4.415   3.849   0.510
 4919SOL     OW26787   2.180   6.429   0.440
 4919SOL    HW126788   2.181   6.371   0.521
 4919SOL    HW226789   2.265   6.482   0.435
 4920SOL     OW26790   2.192   0.024   6.837
 4920SOL    HW126791   2.222   0.019   6.742
 4920SOL    HW226792   2.205   0.117   6.872
 4921SOL     OW26793   7.584   7.741   6.708
 4921SOL    HW126794   7.580   7.676   6.632
 4921SOL    HW226795   7.492   7.753   6.746
 4922SOL     OW26796   6.504   1.271   0.961
 4922SOL    HW126797   6.455   1.292   1.045
 4922SOL    HW226798   6.585   1.217   0.982
 4923SOL     OW26799   7.441   5.927   1.769
 4923SOL    HW126800   7.419   5.856   1.702
 4923SOL    HW226801   7.539   5.947   1.764
 4924SOL     OW26802   1.742   6.906   6.255
 4924SOL    HW126803   1.650   6.900   6.217
 4924SOL    HW226804   1.790   6.986   6.218
 4925SOL     OW26805   1.374   5.144   6.575
 4925SOL    HW126806   1.362   5.156   6.477
 4925SOL    HW226807   1.420   5.224   6.613
 4926SOL     OW26808   0.565  -0.014   6.196
 4926SOL    HW126809   0.552   0.055   6.267
 4926SOL    HW226810   0.653  -0.059   6.210
 4927SOL     OW26811   6.810   4.995   0.686
 4927SOL    HW126812   6.712   4.976   0.698
 4927SOL    HW226813   6.863   4.917   0.717
 4928SOL     OW26814   8.951   2.088   0.345
 4928SOL    HW126815   8.885   2.136   0.286
 4928SOL    HW226816   9.042   2.128   0.333
 4929SOL     OW26817   1.668   1.443   6.062
 4929SOL    HW126818   1.707   1.399   6.143
 4929SOL    HW226819   1.633   1.372   6.000
 4930SOL     OW26820   0.402   2.181   0.605
 4930SOL    HW126821   0.446   2.255   0.657
 4930SOL    HW226822   0.467   2.147   0.536
 4931SOL     OW26823   6.371   1.168   6.333
 4931SOL    HW126824   6.283   1.162   6.287
 4931SOL    HW226825   6.363   1.225   6.415
 4932SOL     OW26826   7.395   4.130   1.293
 4932SOL    HW126827   7.301   4.104   1.316
 4932SOL    HW226828   7.443   4.156   1.377
 4933SOL     OW26829   5.503   8.064   6.646
 4933SOL    HW126830   5.582   8.061   6.585
 4933SOL    HW226831   5.516   8.135   6.715
 4934SOL     OW26832   0.289   6.347   5.239
 4934SOL    HW126833   0.267   6.393   5.325
 4934SOL    HW226834   0.256   6.402   5.163
 4935SOL     OW26835   4.974   6.662   5.380
 4935SOL    HW126836   5.005   6.574   5.414
 4935SOL    HW226837   4.975   6.662   5.280
 4936SOL     OW26838   0.397   4.479   5.283
 4936SOL    HW126839   0.321   4.435   5.235
 4936SOL    HW226840   0.455   4.409   5.324
 4937SOL     OW26841   0.961   5.711   4.990
 4937SOL    HW126842   0.894   5.644   5.023
 4937SOL    HW226843   0.932   5.746   4.901
 4938SOL     OW26844   0.212   5.656   6.676
 4938SOL    HW126845   0.206   5.557   6.691
 4938SOL    HW226846   0.151   5.703   6.740
 4939SOL     OW26847   7.355   5.076   0.249
 4939SOL    HW126848   7.403   4.990   0.263
 4939SOL    HW226849   7.409   5.134   0.187
 4940SOL     OW26850   1.360   1.008   6.222
 4940SOL    HW126851   1.405   0.960   6.298
 4940SOL    HW226852   1.421   1.011   6.143
 4941SOL     OW26853   9.000   2.289   6.256
 4941SOL    HW126854   9.046   2.301   6.168
 4941SOL    HW226855   8.904   2.315   6.246
 4942SOL     OW26856   5.620   0.921   6.632
 4942SOL    HW126857   5.671   0.916   6.546
 4942SOL    HW226858   5.682   0.943   6.707
 4943SOL     OW26859   4.500   5.647   0.885
 4943SOL    HW126860   4.482   5.554   0.916
 4943SOL    HW226861   4.599   5.665   0.890
 4944SOL     OW26862   3.440   6.514   5.950
 4944SOL    HW126863   3.358   6.468   5.914
 4944SOL    HW226864   3.471   6.467   6.033
 4945SOL     OW26865   6.823   0.613   0.674
 4945SOL    HW126866   6.727   0.606   0.701
 4945SOL    HW226867   6.841   0.549   0.600
 4946SOL     OW26868   5.786   3.424   6.896
 4946SOL    HW126869   5.886   3.426   6.902
 4946SOL    HW226870   5.759   3.438   6.800
 4947SOL     OW26871   7.315   7.876   1.412
 4947SOL    HW126872   7.256   7.829   1.478
 4947SOL    HW226873   7.403   7.897   1.454
 4948SOL     OW26874   7.338   2.193   1.177
 4948SOL    HW126875   7.363   2.285   1.146
 4948SOL    HW226876   7.398   2.126   1.134
 4949SOL     OW26877   6.871   8.039   0.526
 4949SOL    HW126878   6.900   8.087   0.608
 4949SOL    HW226879   6.951   8.012   0.472
 4950SOL     OW26880   1.508   1.811   0.945
 4950SOL    HW126881   1.580   1.844   1.006
 4950SOL    HW226882   1.472   1.724   0.980
 4951SOL     OW26883   0.615   6.010   5.487
 4951SOL    HW126884   0.588   6.106   5.482
 4951SOL    HW226885   0.633   5.975   5.395
 4952SOL     OW26886   4.979   1.869   6.864
 4952SOL    HW126887   4.895   1.839   6.910
 4952SOL    HW226888   5.004   1.801   6.795
 4953SOL     OW26889   6.106   5.804   5.607
 4953SOL    HW126890   6.143   5.776   5.696
 4953SOL    HW226891   6.047   5.884   5.619
 4954SOL     OW26892   3.480   2.855   6.305
 4954SOL    HW126893   3.443   2.849   6.397
 4954SOL    HW226894   3.461   2.770   6.256
 4955SOL     OW26895   1.399   2.370   1.177
 4955SOL    HW126896   1.349   2.417   1.104
 4955SOL    HW226897   1.353   2.386   1.264
 4956SOL     OW26898   2.014   2.352   6.862
 4956SOL    HW126899   2.090   2.350   6.797
 4956SOL    HW226900   1.976   2.260   6.872
 4957SOL     OW26901   1.933   4.175   1.150
 4957SOL    HW126902   1.834   4.173   1.137
 4957SOL    HW226903   1.978   4.134   1.071
 4958SOL     OW26904   7.443   6.498   6.809
 4958SOL    HW126905   7.377   6.448   6.753
 4958SOL    HW226906   7.395   6.565   6.865
 4959SOL     OW26907   7.781   6.121   0.962
 4959SOL    HW126908   7.782   6.027   0.997
 4959SOL    HW226909   7.793   6.185   1.037
 4960SOL     OW26910   6.572   2.549   6.802
 4960SOL    HW126911   6.487   2.519   6.759
 4960SOL    HW226912   6.574   2.648   6.808
 4961SOL     OW26913   8.633   5.438   6.526
 4961SOL    HW126914   8.733   5.430   6.530
 4961SOL    HW226915   8.603   5.511   6.587
 4962SOL     OW26916   4.582   7.929   1.993
 4962SOL    HW126917   4.545   7.941   2.085
 4962SOL    HW226918   4.646   7.852   1.993
 4963SOL     OW26919   2.821   3.288   6.054
 4963SOL    HW126920   2.778   3.197   6.055
 4963SOL    HW226921   2.777   3.345   6.123
 4964SOL     OW26922   0.574   0.570   5.878
 4964SOL    HW126923   0.493   0.535   5.925
 4964SOL    HW226924   0.558   0.569   5.779
 4965SOL     OW26925   4.926   0.484   1.415
 4965SOL    HW126926   4.977   0.398   1.406
 4965SOL    HW226927   4.828   0.464   1.417
 4966SOL     OW26928   0.362   7.637   1.314
 4966SOL    HW126929   0.301   7.714   1.293
 4966SOL    HW226930   0.377   7.633   1.413
 4967SOL     OW26931   6.296   1.881   6.902
 4967SOL    HW126932   6.366   1.852   6.967
 4967SOL    HW226933   6.291   1.981   6.901
 4968SOL     OW26934   0.519   3.146   1.334
 4968SOL    HW126935   0.574   3.177   1.411
 4968SOL    HW226936   0.444   3.088   1.368
 4969SOL     OW26937   1.815   2.751   6.189
 4969SOL    HW126938   1.897   2.696   6.204
 4969SOL    HW226939   1.743   2.693   6.151
 4970SOL     OW26940   7.540   6.707   5.804
 4970SOL    HW126941   7.505   6.719   5.711
 4970SOL    HW226942   7.626   6.758   5.814
 4971SOL     OW26943   3.076   1.428   6.145
 4971SOL    HW126944   3.097   1.524   6.123
 4971SOL    HW226945   3.037   1.384   6.064
 4972SOL     OW26946   1.446   0.950   5.941
 4972SOL    HW126947   1.368   0.889   5.954
 4972SOL    HW226948   1.443   0.991   5.851
 4973SOL     OW26949   6.937   8.179   6.019
 4973SOL    HW126950   6.978   8.089   6.008
 4973SOL    HW226951   6.916   8.195   6.115
 4974SOL     OW26952   5.387   1.759   5.820
 4974SOL    HW126953   5.386   1.786   5.723
 4974SOL    HW226954   5.395   1.841   5.877
 4975SOL     OW26955   6.848   1.719   1.189
 4975SOL    HW126956   6.814   1.809   1.219
 4975SOL    HW226957   6.941   1.706   1.222
 4976SOL     OW26958   4.043   6.056   1.157
 4976SOL    HW126959   4.012   6.000   1.234
 4976SOL    HW226960   4.037   6.003   1.072
 4977SOL     OW26961   6.843   1.422   6.702
 4977SOL    HW126962   6.877   1.512   6.674
 4977SOL    HW226963   6.868   1.354   6.633
 4978SOL     OW26964   5.278   0.881   5.999
 4978SOL    HW126965   5.307   0.801   5.946
 4978SOL    HW226966   5.292   0.964   5.946
 4979SOL     OW26967   4.023   3.929   6.376
 4979SOL    HW126968   4.108   3.966   6.338
 4979SOL    HW226969   4.027   3.934   6.476
 4980SOL     OW26970   8.318   5.567   1.760
 4980SOL    HW126971   8.294   5.495   1.694
 4980SOL    HW226972   8.282   5.543   1.850
 4981SOL     OW26973   2.421   2.221   1.997
 4981SOL    HW126974   2.500   2.276   1.972
 4981SOL    HW226975   2.337   2.275   1.984
 4982SOL     OW26976   5.408   4.924   0.525
 4982SOL    HW126977   5.393   4.826   0.511
 4982SOL    HW226978   5.338   4.959   0.588
 4983SOL     OW26979   8.973   8.372   6.325
 4983SOL    HW126980   9.011   8.325   6.405
 4983SOL    HW226981   8.897   8.319   6.289
 4984SOL     OW26982   6.593   5.480   1.183
 4984SOL    HW126983   6.566   5.425   1.261
 4984SOL    HW226984   6.664   5.433   1.131
 4985SOL     OW26985   8.908   6.504   5.269
 4985SOL    HW126986   8.814   6.521   5.240
 4985SOL    HW226987   8.941   6.419   5.227
 4986SOL     OW26988   3.531   1.787   0.422
 4986SOL    HW126989   3.492   1.751   0.337
 4986SOL    HW226990   3.556   1.883   0.409
 4987SOL     OW26991   5.703   5.744   0.366
 4987SOL    HW126992   5.780   5.704   0.416
 4987SOL    HW226993   5.637   5.781   0.431
 4988SOL     OW26994   2.945   1.690   6.286
 4988SOL    HW126995   2.913   1.595   6.282
 4988SOL    HW226996   2.867   1.751   6.297
 4989SOL     OW26997   0.689   2.199   6.484
 4989SOL    HW126998   0.709   2.194   6.582
 4989SOL    HW226999   0.654   2.290   6.462
 4990SOL     OW27000   6.112   4.843   6.582
 4990SOL    HW127001   6.103   4.818   6.678
 4990SOL    HW227002   6.172   4.924   6.574
 4991SOL     OW27003   8.905   4.939   0.535
 4991SOL    HW127004   8.847   4.862   0.507
 4991SOL    HW227005   8.881   4.966   0.629
 4992SOL     OW27006   7.080   4.810   5.648
 4992SOL    HW127007   7.119   4.736   5.592
 4992SOL    HW227008   7.031   4.874   5.588
 4993SOL     OW27009   7.746   1.162   0.277
 4993SOL    HW127010   7.679   1.171   0.203
 4993SOL    HW227011   7.722   1.083   0.334
 4994SOL     OW27012   4.623   0.573   6.548
 4994SOL    HW127013   4.577   0.558   6.460
 4994SOL    HW227014   4.562   0.621   6.610
 4995SOL     OW27015   5.786   7.182   1.002
 4995SOL    HW127016   5.824   7.269   0.971
 4995SOL    HW227017   5.858   7.125   1.041
 4996SOL     OW27018   4.666   0.747   2.129
 4996SOL    HW127019   4.636   0.803   2.207
 4996SOL    HW227020   4.758   0.713   2.146
 4997SOL     OW27021   8.166   6.822   6.484
 4997SOL    HW127022   8.174   6.811   6.583
 4997SOL    HW227023   8.191   6.737   6.439
 4998SOL     OW27024   6.947   6.715   0.245
 4998SOL    HW127025   6.886   6.790   0.218
 4998SOL    HW227026   6.943   6.642   0.178
 4999SOL     OW27027   1.426   6.464   6.489
 4999SOL    HW127028   1.363   6.439   6.563
 4999SOL    HW227029   1.450   6.383   6.436
 5000SOL     OW27030   5.621   2.444   1.303
 5000SOL    HW127031   5.667   2.446   1.214
 5000SOL    HW227032   5.686   2.469   1.375
 5001SOL     OW27033   0.260   7.865   1.195
 5001SOL    HW127034   0.305   7.924   1.262
 5001SOL    HW227035   0.167   7.896   1.179
 5002SOL     OW27036   6.972   0.591   6.047
 5002SOL    HW127037   6.895   0.653   6.061
 5002SOL    HW227038   7.041   0.636   5.990
 5003SOL     OW27039   5.282  -0.052   6.005
 5003SOL    HW127040   5.185  -0.059   5.980
 5003SOL    HW227041   5.313  -0.141   6.039
 5004SOL     OW27042   8.062   4.419   6.736
 5004SOL    HW127043   8.063   4.332   6.786
 5004SOL    HW227044   8.009   4.409   6.652
 5005SOL     OW27045   4.370   5.401   6.080
 5005SOL    HW127046   4.298   5.334   6.060
 5005SOL    HW227047   4.331   5.493   6.083
 5006SOL     OW27048   7.794   0.427   1.178
 5006SOL    HW127049   7.856   0.374   1.235
 5006SOL    HW227050   7.701   0.390   1.186
 5007SOL     OW27051   6.172   0.803   1.251
 5007SOL    HW127052   6.253   0.813   1.194
 5007SOL    HW227053   6.188   0.732   1.319
 5008SOL     OW27054   0.217   3.408   5.538
 5008SOL    HW127055   0.182   3.444   5.452
 5008SOL    HW227056   0.176   3.318   5.556
 5009SOL     OW27057   4.660   0.460   1.437
 5009SOL    HW127058   4.650   0.552   1.399
 5009SOL    HW227059   4.584   0.403   1.406
 5010SOL     OW27060   1.699   7.008   5.817
 5010SOL    HW127061   1.681   6.965   5.905
 5010SOL    HW227062   1.617   7.057   5.786
 5011SOL     OW27063   2.432   5.225   6.810
 5011SOL    HW127064   2.454   5.223   6.712
 5011SOL    HW227065   2.515   5.238   6.863
 5012SOL     OW27066   0.532   6.710   0.908
 5012SOL    HW127067   0.627   6.722   0.880
 5012SOL    HW227068   0.481   6.666   0.834
 5013SOL     OW27069   4.019   2.312   6.090
 5013SOL    HW127070   4.058   2.278   6.004
 5013SOL    HW227071   3.948   2.378   6.071
 5014SOL     OW27072   5.264   4.523   6.544
 5014SOL    HW127073   5.179   4.575   6.536
 5014SOL    HW227074   5.285   4.479   6.457
 5015SOL     OW27075   6.550   0.609   6.115
 5015SOL    HW127076   6.475   0.613   6.180
 5015SOL    HW227077   6.568   0.700   6.077
 5016SOL     OW27078   5.954   7.264   6.146
 5016SOL    HW127079   5.946   7.168   6.170
 5016SOL    HW227080   6.049   7.285   6.121
 5017SOL     OW27081   4.358   2.117   2.191
 5017SOL    HW127082   4.301   2.191   2.225
 5017SOL    HW227083   4.367   2.125   2.091
 5018SOL     OW27084   5.662   1.514   6.438
 5018SOL    HW127085   5.716   1.528   6.520
 5018SOL    HW227086   5.618   1.424   6.442
 5019SOL     OW27087   2.779   0.973   2.433
 5019SOL    HW127088   2.717   0.981   2.355
 5019SOL    HW227089   2.789   0.876   2.457
 5020SOL     OW27090   6.106   1.140   6.254
 5020SOL    HW127091   6.098   1.067   6.186
 5020SOL    HW227092   6.048   1.118   6.333
 5021SOL     OW27093   1.705   2.868   5.103
 5021SOL    HW127094   1.713   2.959   5.143
 5021SOL    HW227095   1.796   2.825   5.100
 5022SOL     OW27096   4.142   3.830   0.302
 5022SOL    HW127097   4.047   3.820   0.272
 5022SOL    HW227098   4.184   3.907   0.254
 5023SOL     OW27099   7.898   1.334   1.625
 5023SOL    HW127100   7.817   1.287   1.662
 5023SOL    HW227101   7.911   1.420   1.674
 5024SOL     OW27102   7.933   6.394   6.199
 5024SOL    HW127103   7.951   6.296   6.197
 5024SOL    HW227104   7.853   6.415   6.143
 5025SOL     OW27105   9.490   1.791   6.408
 5025SOL    HW127106   9.485   1.858   6.482
 5025SOL    HW227107   9.582   1.788   6.371
 5026SOL     OW27108   2.769   0.523   1.020
 5026SOL    HW127109   2.817   0.601   0.980
 5026SOL    HW227110   2.671   0.531   1.001
 5027SOL     OW27111   8.635   6.451   6.050
 5027SOL    HW127112   8.671   6.466   5.958
 5027SOL    HW227113   8.680   6.373   6.092
 5028SOL     OW27114   6.345   3.636   0.626
 5028SOL    HW127115   6.300   3.547   0.637
 5028SOL    HW227116   6.312   3.681   0.543
 5029SOL     OW27117   6.622   5.016   5.930
 5029SOL    HW127118   6.560   5.049   5.860
 5029SOL    HW227119   6.710   4.993   5.888
 5030SOL     OW27120   4.262   6.310   5.976
 5030SOL    HW127121   4.228   6.309   6.070
 5030SOL    HW227122   4.201   6.257   5.917
 5031SOL     OW27123   4.863   7.268   1.134
 5031SOL    HW127124   4.894   7.176   1.161
 5031SOL    HW227125   4.792   7.298   1.197
 5032SOL     OW27126   1.307   0.697   5.982
 5032SOL    HW127127   1.214   0.675   5.952
 5032SOL    HW227128   1.315   0.680   6.080
 5033SOL     OW27129   8.589   0.184   6.251
 5033SOL    HW127130   8.548   0.272   6.276
 5033SOL    HW227131   8.534   0.110   6.291
 5034SOL     OW27132   1.166   5.936   4.936
 5034SOL    HW127133   1.115   5.985   4.866
 5034SOL    HW227134   1.218   5.862   4.894
 5035SOL     OW27135   1.077   3.912   5.596
 5035SOL    HW127136   1.053   3.897   5.500
 5035SOL    HW227137   1.055   4.007   5.621
 5036SOL     OW27138   8.585   4.343   5.921
 5036SOL    HW127139   8.583   4.394   5.835
 5036SOL    HW227140   8.676   4.304   5.935
 5037SOL     OW27141   4.956   1.315   0.765
 5037SOL    HW127142   4.924   1.342   0.674
 5037SOL    HW227143   4.901   1.238   0.798
 5038SOL     OW27144   6.580   6.943   6.710
 5038SOL    HW127145   6.656   6.995   6.672
 5038SOL    HW227146   6.551   6.873   6.646
 5039SOL     OW27147   4.938   6.451   1.593
 5039SOL    HW127148   5.015   6.493   1.641
 5039SOL    HW227149   4.942   6.352   1.604
 5040SOL     OW27150   8.674   4.363   6.211
 5040SOL    HW127151   8.641   4.457   6.202
 5040SOL    HW227152   8.765   4.363   6.253
 5041SOL     OW27153   3.185   3.521   1.296
 5041SOL    HW127154   3.240   3.507   1.379
 5041SOL    HW227155   3.088   3.512   1.319
 5042SOL     OW27156   8.782   3.787   0.207
 5042SOL    HW127157   8.796   3.692   0.179
 5042SOL    HW227158   8.862   3.820   0.257
 5043SOL     OW27159   6.999   6.641   0.802
 5043SOL    HW127160   6.949   6.689   0.875
 5043SOL    HW227161   6.981   6.686   0.715
 5044SOL     OW27162   3.460   6.659   6.554
 5044SOL    HW127163   3.464   6.733   6.621
 5044SOL    HW227164   3.548   6.611   6.551
 5045SOL     OW27165   0.661   6.851   1.460
 5045SOL    HW127166   0.622   6.880   1.547
 5045SOL    HW227167   0.758   6.831   1.472
 5046SOL     OW27168   4.965   2.991   6.715
 5046SOL    HW127169   4.973   2.961   6.620
 5046SOL    HW227170   5.012   2.926   6.775
 5047SOL     OW27171   6.955   6.266   6.200
 5047SOL    HW127172   7.020   6.236   6.130
 5047SOL    HW227173   6.875   6.206   6.199
 5048SOL     OW27174   2.194   3.497   0.568
 5048SOL    HW127175   2.238   3.531   0.485
 5048SOL    HW227176   2.258   3.502   0.645
 5049SOL     OW27177   0.524   3.702   0.972
 5049SOL    HW127178   0.585   3.725   0.896
 5049SOL    HW227179   0.476   3.617   0.951
 5050SOL     OW27180   7.510   3.711   2.114
 5050SOL    HW127181   7.503   3.635   2.178
 5050SOL    HW227182   7.442   3.781   2.138
 5051SOL     OW27183   3.525   1.504   1.060
 5051SOL    HW127184   3.547   1.431   1.125
 5051SOL    HW227185   3.474   1.576   1.107
 5052SOL     OW27186   7.055   1.656   1.367
 5052SOL    HW127187   7.049   1.728   1.436
 5052SOL    HW227188   7.123   1.588   1.397
 5053SOL     OW27189   0.843   4.236   0.325
 5053SOL    HW127190   0.750   4.200   0.320
 5053SOL    HW227191   0.907   4.160   0.333
 5054SOL     OW27192   0.603   4.803   6.293
 5054SOL    HW127193   0.546   4.722   6.308
 5054SOL    HW227194   0.646   4.798   6.203
 5055SOL     OW27195   6.838   5.425   1.010
 5055SOL    HW127196   6.889   5.357   1.062
 5055SOL    HW227197   6.826   5.394   0.915
 5056SOL     OW27198   1.055   3.030   0.257
 5056SOL    HW127199   0.966   2.996   0.225
 5056SOL    HW227200   1.104   2.956   0.303
 5057SOL     OW27201   1.170   7.697   6.378
 5057SOL    HW127202   1.238   7.770   6.387
 5057SOL    HW227203   1.118   7.689   6.462
 5058SOL     OW27204   3.663   6.792   5.286
 5058SOL    HW127205   3.692   6.888   5.282
 5058SOL    HW227206   3.743   6.734   5.297
 5059SOL     OW27207   7.798   7.850   6.331
 5059SOL    HW127208   7.897   7.855   6.321
 5059SOL    HW227209   7.763   7.776   6.273
 5060SOL     OW27210   2.685   5.546   5.136
 5060SOL    HW127211   2.696   5.509   5.228
 5060SOL    HW227212   2.775   5.562   5.095
 5061SOL     OW27213   4.191   0.585   5.855
 5061SOL    HW127214   4.129   0.576   5.933
 5061SOL    HW227215   4.152   0.649   5.789
 5062SOL     OW27216   3.543   7.378   0.374
 5062SOL    HW127217   3.448   7.403   0.391
 5062SOL    HW227218   3.584   7.341   0.457
 5063SOL     OW27219   8.064   7.177   5.130
 5063SOL    HW127220   8.029   7.252   5.074
 5063SOL    HW227221   8.005   7.165   5.210
 5064SOL     OW27222   0.777   3.065   1.321
 5064SOL    HW127223   0.817   3.157   1.324
 5064SOL    HW227224   0.682   3.072   1.291
 5065SOL     OW27225   3.703   4.977   5.967
 5065SOL    HW127226   3.703   4.891   6.020
 5065SOL    HW227227   3.788   5.027   5.985
 5066SOL     OW27228   4.872   1.724   0.719
 5066SOL    HW127229   4.837   1.635   0.749
 5066SOL    HW227230   4.965   1.713   0.683
 5067SOL     OW27231   5.333   8.085   5.609
 5067SOL    HW127232   5.323   8.172   5.656
 5067SOL    HW227233   5.279   8.087   5.524
 5068SOL     OW27234   6.640   3.972   5.161
 5068SOL    HW127235   6.588   4.025   5.094
 5068SOL    HW227236   6.611   3.877   5.158
 5069SOL     OW27237   7.820   6.253   6.683
 5069SOL    HW127238   7.778   6.322   6.623
 5069SOL    HW227239   7.912   6.282   6.708
 5070SOL     OW27240   1.309   0.821   5.657
 5070SOL    HW127241   1.286   0.731   5.693
 5070SOL    HW227242   1.237   0.851   5.594
 5071SOL     OW27243   5.045   1.288   5.819
 5071SOL    HW127244   5.022   1.316   5.726
 5071SOL    HW227245   4.961   1.273   5.871
 5072SOL     OW27246   3.867   5.866   6.659
 5072SOL    HW127247   3.879   5.942   6.723
 5072SOL    HW227248   3.957   5.829   6.635
 5073SOL     OW27249   4.378   0.886   1.302
 5073SOL    HW127250   4.295   0.878   1.247
 5073SOL    HW227251   4.354   0.888   1.399
 5074SOL     OW27252   1.966   4.941   6.084
 5074SOL    HW127253   1.892   4.949   6.017
 5074SOL    HW227254   2.052   4.969   6.041
 5075SOL     OW27255   0.835   5.339   5.467
 5075SOL    HW127256   0.881   5.264   5.515
 5075SOL    HW227257   0.759   5.303   5.412
 5076SOL     OW27258   0.328   7.035   5.931
 5076SOL    HW127259   0.421   7.012   5.902
 5076SOL    HW227260   0.279   7.079   5.856
 5077SOL     OW27261   6.206   1.252   1.219
 5077SOL    HW127262   6.301   1.282   1.228
 5077SOL    HW227263   6.150   1.294   1.291
 5078SOL     OW27264   1.703   8.325   0.797
 5078SOL    HW127265   1.648   8.359   0.721
 5078SOL    HW227266   1.751   8.402   0.841
 5079SOL     OW27267   2.278   4.876   6.577
 5079SOL    HW127268   2.374   4.860   6.598
 5079SOL    HW227269   2.271   4.943   6.502
 5080SOL     OW27270   1.410   0.103   5.033
 5080SOL    HW127271   1.491   0.045   5.031
 5080SOL    HW227272   1.352   0.078   5.110
 5081SOL     OW27273   4.113   0.207   1.153
 5081SOL    HW127274   4.153   0.193   1.244
 5081SOL    HW227275   4.064   0.294   1.151
 5082SOL     OW27276   3.398   2.036   0.462
 5082SOL    HW127277   3.466   2.037   0.535
 5082SOL    HW227278   3.338   2.115   0.471
 5083SOL     OW27279   4.051   2.399   0.780
 5083SOL    HW127280   4.099   2.382   0.694
 5083SOL    HW227281   4.062   2.495   0.805
 5084SOL     OW27282   2.777   1.138   6.512
 5084SOL    HW127283   2.685   1.121   6.477
 5084SOL    HW227284   2.826   1.200   6.450
 5085SOL     OW27285   2.429   6.419   6.280
 5085SOL    HW127286   2.509   6.364   6.308
 5085SOL    HW227287   2.423   6.501   6.336
 5086SOL     OW27288   7.951   7.215   4.759
 5086SOL    HW127289   7.889   7.137   4.756
 5086SOL    HW227290   7.899   7.299   4.741
 5087SOL     OW27291   5.795   8.098   0.252
 5087SOL    HW127292   5.841   8.166   0.195
 5087SOL    HW227293   5.797   8.009   0.206
 5088SOL     OW27294   0.171   1.907   1.603
 5088SOL    HW127295   0.108   1.879   1.676
 5088SOL    HW227296   0.264   1.913   1.640
 5089SOL     OW27297   0.937   3.850   1.555
 5089SOL    HW127298   0.840   3.857   1.531
 5089SOL    HW227299   0.950   3.777   1.622
 5090SOL     OW27300   8.375   6.442   5.050
 5090SOL    HW127301   8.310   6.487   4.989
 5090SOL    HW227302   8.451   6.406   4.996
 5091SOL     OW27303   3.108   1.390   6.847
 5091SOL    HW127304   3.101   1.356   6.753
 5091SOL    HW227305   3.196   1.363   6.886
 5092SOL     OW27306   9.241   8.084   5.925
 5092SOL    HW127307   9.335   8.109   5.903
 5092SOL    HW227308   9.182   8.164   5.915
 5093SOL     OW27309   0.666   3.294   6.277
 5093SOL    HW127310   0.595   3.254   6.336
 5093SOL    HW227311   0.707   3.221   6.221
 5094SOL     OW27312   0.959   2.865   1.011
 5094SOL    HW127313   1.046   2.882   0.965
 5094SOL    HW227314   0.890   2.928   0.976
 5095SOL     OW27315   0.807   4.526   1.137
 5095SOL    HW127316   0.758   4.566   1.214
 5095SOL    HW227317   0.748   4.461   1.089
 5096SOL     OW27318   5.716   2.603   1.501
 5096SOL    HW127319   5.617   2.611   1.489
 5096SOL    HW227320   5.756   2.694   1.510
 5097SOL     OW27321   9.594   4.591   5.329
 5097SOL    HW127322   9.625   4.531   5.255
 5097SOL    HW227323   9.509   4.636   5.301
 5098SOL     OW27324   7.129   1.871   1.564
 5098SOL    HW127325   7.098   1.953   1.517
 5098SOL    HW227326   7.221   1.886   1.600
 5099SOL     OW27327   3.486   7.075   6.605
 5099SOL    HW127328   3.421   7.150   6.616
 5099SOL    HW227329   3.532   7.082   6.517
 5100SOL     OW27330   0.701   1.394   0.457
 5100SOL    HW127331   0.677   1.459   0.385
 5100SOL    HW227332   0.799   1.402   0.477
 5101SOL     OW27333   0.927   3.282   0.304
 5101SOL    HW127334   0.961   3.218   0.235
 5101SOL    HW227335   0.879   3.232   0.376
 5102SOL     OW27336   7.791   5.302   6.071
 5102SOL    HW127337   7.693   5.321   6.084
 5102SOL    HW227338   7.841   5.387   6.061
 5103SOL     OW27339   3.529   6.403   6.188
 5103SOL    HW127340   3.503   6.438   6.278
 5103SOL    HW227341   3.596   6.330   6.199
 5104SOL     OW27342   7.339   3.912   1.766
 5104SOL    HW127343   7.314   3.848   1.838
 5104SOL    HW227344   7.415   3.969   1.797
 5105SOL     OW27345   0.793   4.641   0.877
 5105SOL    HW127346   0.781   4.577   0.953
 5105SOL    HW227347   0.891   4.652   0.858
 5106SOL     OW27348   4.797   3.612   6.351
 5106SOL    HW127349   4.773   3.521   6.318
 5106SOL    HW227350   4.838   3.604   6.442
 5107SOL     OW27351   4.830   2.558   1.502
 5107SOL    HW127352   4.862   2.607   1.583
 5107SOL    HW227353   4.864   2.464   1.504
 5108SOL     OW27354   2.714   8.260   1.171
 5108SOL    HW127355   2.750   8.179   1.124
 5108SOL    HW227356   2.786   8.301   1.226
 5109SOL     OW27357   4.057   4.117   2.157
 5109SOL    HW127358   4.126   4.052   2.123
 5109SOL    HW227359   4.078   4.140   2.252
 5110SOL     OW27360   1.942   5.878   0.435
 5110SOL    HW127361   1.935   5.968   0.392
 5110SOL    HW227362   1.854   5.831   0.428
 5111SOL     OW27363   2.693   7.017   6.733
 5111SOL    HW127364   2.599   7.041   6.709
 5111SOL    HW227365   2.754   7.050   6.661
 5112SOL     OW27366   6.640   6.501   5.994
 5112SOL    HW127367   6.583   6.583   5.989
 5112SOL    HW227368   6.611   6.445   6.071
 5113SOL     OW27369   8.889   5.145   5.847
 5113SOL    HW127370   8.920   5.066   5.900
 5113SOL    HW227371   8.805   5.122   5.798
 5114SOL     OW27372   1.867   7.256   0.464
 5114SOL    HW127373   1.943   7.313   0.432
 5114SOL    HW227374   1.823   7.301   0.542
 5115SOL     OW27375   0.612   6.888   1.711
 5115SOL    HW127376   0.669   6.814   1.748
 5115SOL    HW227377   0.602   6.959   1.781
 5116SOL     OW27378   0.761   5.012   5.342
 5116SOL    HW127379   0.839   4.963   5.381
 5116SOL    HW227380   0.779   5.032   5.246
 5117SOL     OW27381   8.059   0.894   5.726
 5117SOL    HW127382   8.139   0.847   5.762
 5117SOL    HW227383   8.077   0.926   5.633
 5118SOL     OW27384   4.609   0.405   2.212
 5118SOL    HW127385   4.673   0.347   2.263
 5118SOL    HW227386   4.521   0.406   2.258
 5119SOL     OW27387   0.547   6.316   1.144
 5119SOL    HW127388   0.573   6.340   1.238
 5119SOL    HW227389   0.521   6.220   1.141
 5120SOL     OW27390   1.706   2.594   6.798
 5120SOL    HW127391   1.655   2.591   6.712
 5120SOL    HW227392   1.764   2.675   6.799
 5121SOL     OW27393   7.914   2.691   5.823
 5121SOL    HW127394   7.997   2.644   5.795
 5121SOL    HW227395   7.846   2.685   5.749
 5122SOL     OW27396   0.390   7.773   5.849
 5122SOL    HW127397   0.359   7.857   5.803
 5122SOL    HW227398   0.447   7.798   5.927
 5123SOL     OW27399   2.264   0.273   6.903
 5123SOL    HW127400   2.247   0.332   6.982
 5123SOL    HW227401   2.260   0.328   6.819
 5124SOL     OW27402   0.334   8.124   5.959
 5124SOL    HW127403   0.280   8.205   5.935
 5124SOL    HW227404   0.326   8.106   6.057
 5125SOL     OW27405   3.015   4.135   1.237
 5125SOL    HW127406   2.985   4.185   1.317
 5125SOL    HW227407   2.936   4.090   1.194
 5126SOL     OW27408   3.664   4.860   1.575
 5126SOL    HW127409   3.731   4.904   1.635
 5126SOL    HW227410   3.600   4.929   1.541
 5127SOL     OW27411   8.362   7.344   6.411
 5127SOL    HW127412   8.270   7.383   6.403
 5127SOL    HW227413   8.361   7.250   6.377
 5128SOL     OW27414   6.023   2.704   0.700
 5128SOL    HW127415   6.033   2.698   0.601
 5128SOL    HW227416   6.101   2.753   0.738
 5129SOL     OW27417   4.139   2.839   5.303
 5129SOL    HW127418   4.193   2.822   5.386
 5129SOL    HW227419   4.109   2.935   5.302
 5130SOL     OW27420   2.873   4.866   5.882
 5130SOL    HW127421   2.913   4.958   5.877
 5130SOL    HW227422   2.931   4.802   5.833
 5131SOL     OW27423   1.436   7.634   0.946
 5131SOL    HW127424   1.360   7.576   0.974
 5131SOL    HW227425   1.438   7.641   0.846
 5132SOL     OW27426   1.061   8.397   6.379
 5132SOL    HW127427   1.036   8.383   6.475
 5132SOL    HW227428   1.158   8.421   6.373
 5133SOL     OW27429   9.514   8.200   5.846
 5133SOL    HW127430   9.441   8.244   5.794
 5133SOL    HW227431   9.593   8.262   5.850
 5134SOL     OW27432   2.545   3.066   6.920
 5134SOL    HW127433   2.554   3.084   7.018
 5134SOL    HW227434   2.473   2.999   6.905
 5135SOL     OW27435   2.099   5.220   1.223
 5135SOL    HW127436   2.176   5.240   1.283
 5135SOL    HW227437   2.064   5.128   1.243
 5136SOL     OW27438   2.672   3.283   1.701
 5136SOL    HW127439   2.603   3.264   1.771
 5136SOL    HW227440   2.709   3.375   1.716
 5137SOL     OW27441   2.748   5.649   6.495
 5137SOL    HW127442   2.701   5.658   6.583
 5137SOL    HW227443   2.724   5.727   6.437
 5138SOL     OW27444   6.711   2.490   0.885
 5138SOL    HW127445   6.626   2.466   0.838
 5138SOL    HW227446   6.733   2.586   0.866
 5139SOL     OW27447   7.272   1.768   0.538
 5139SOL    HW127448   7.345   1.781   0.471
 5139SOL    HW227449   7.218   1.852   0.546
 5140SOL     OW27450   5.315   5.045   0.797
 5140SOL    HW127451   5.245   5.104   0.756
 5140SOL    HW227452   5.270   4.975   0.852
 5141SOL     OW27453   0.959   6.847   0.860
 5141SOL    HW127454   1.026   6.851   0.785
 5141SOL    HW227455   1.006   6.822   0.945
 5142SOL     OW27456   0.603   5.634   5.071
 5142SOL    HW127457   0.641   5.541   5.066
 5142SOL    HW227458   0.641   5.680   5.151
 5143SOL     OW27459   5.281   5.292   0.205
 5143SOL    HW127460   5.343   5.370   0.208
 5143SOL    HW227461   5.319   5.221   0.146
 5144SOL     OW27462   7.532   2.904   0.291
 5144SOL    HW127463   7.520   2.973   0.362
 5144SOL    HW227464   7.544   2.948   0.203
 5145SOL     OW27465   2.592   2.668   5.561
 5145SOL    HW127466   2.593   2.755   5.510
 5145SOL    HW227467   2.511   2.615   5.535
 5146SOL     OW27468   8.234   8.207   5.330
 5146SOL    HW127469   8.246   8.255   5.243
 5146SOL    HW227470   8.186   8.120   5.313
 5147SOL     OW27471   5.687   5.085   0.775
 5147SOL    HW127472   5.727   5.081   0.866
 5147SOL    HW227473   5.604   5.141   0.777
 5148SOL     OW27474   8.315   5.882   5.766
 5148SOL    HW127475   8.251   5.884   5.689
 5148SOL    HW227476   8.266   5.903   5.851
 5149SOL     OW27477   7.329   5.211   5.062
 5149SOL    HW127478   7.366   5.209   4.969
 5149SOL    HW227479   7.329   5.119   5.100
 5150SOL     OW27480   3.224   2.174   1.600
 5150SOL    HW127481   3.186   2.267   1.593
 5150SOL    HW227482   3.163   2.110   1.553
 5151SOL     OW27483   5.099   6.427   0.840
 5151SOL    HW127484   5.189   6.468   0.832
 5151SOL    HW227485   5.091   6.379   0.927
 5152SOL     OW27486   8.380   7.134   5.314
 5152SOL    HW127487   8.393   7.053   5.257
 5152SOL    HW227488   8.421   7.213   5.269
 5153SOL     OW27489   8.666   1.311   0.794
 5153SOL    HW127490   8.708   1.276   0.878
 5153SOL    HW227491   8.656   1.236   0.729
 5154SOL     OW27492   0.599   7.311   4.916
 5154SOL    HW127493   0.569   7.334   4.823
 5154SOL    HW227494   0.699   7.301   4.917
 5155SOL     OW27495   1.854   5.377   0.616
 5155SOL    HW127496   1.929   5.371   0.682
 5155SOL    HW227497   1.888   5.358   0.524
 5156SOL     OW27498   3.450   4.740   6.499
 5156SOL    HW127499   3.506   4.667   6.460
 5156SOL    HW227500   3.506   4.822   6.511
 5157SOL     OW27501   8.416   0.489   6.055
 5157SOL    HW127502   8.494   0.493   5.992
 5157SOL    HW227503   8.346   0.554   6.024
 5158SOL     OW27504   1.963   5.117   1.611
 5158SOL    HW127505   2.036   5.060   1.649
 5158SOL    HW227506   1.922   5.070   1.532
 5159SOL     OW27507   2.757   5.540   6.008
 5159SOL    HW127508   2.802   5.534   6.097
 5159SOL    HW227509   2.826   5.537   5.935
 5160SOL     OW27510   2.766   2.519   6.102
 5160SOL    HW127511   2.683   2.463   6.102
 5160SOL    HW227512   2.846   2.460   6.098
 5161SOL     OW27513   1.418   2.543   5.512
 5161SOL    HW127514   1.495   2.572   5.455
 5161SOL    HW227515   1.413   2.443   5.512
 5162SOL     OW27516   1.492   6.119   0.955
 5162SOL    HW127517   1.578   6.070   0.970
 5162SOL    HW227518   1.494   6.162   0.865
 5163SOL     OW27519   0.993   8.030   6.364
 5163SOL    HW127520   1.062   8.068   6.303
 5163SOL    HW227521   1.031   8.020   6.456
 5164SOL     OW27522   2.889   1.850   1.416
 5164SOL    HW127523   2.854   1.837   1.323
 5164SOL    HW227524   2.819   1.824   1.482
 5165SOL     OW27525   4.360   3.098   6.518
 5165SOL    HW127526   4.440   3.129   6.466
 5165SOL    HW227527   4.384   3.017   6.571
 5166SOL     OW27528   4.638   6.920   1.841
 5166SOL    HW127529   4.572   6.969   1.897
 5166SOL    HW227530   4.685   6.851   1.897
 5167SOL     OW27531   7.482   7.380   5.984
 5167SOL    HW127532   7.487   7.354   6.081
 5167SOL    HW227533   7.554   7.333   5.934
 5168SOL     OW27534   3.580   0.374   1.512
 5168SOL    HW127535   3.626   0.397   1.426
 5168SOL    HW227536   3.626   0.420   1.588
 5169SOL     OW27537   4.496   3.524   0.854
 5169SOL    HW127538   4.540   3.595   0.798
 5169SOL    HW227539   4.408   3.557   0.887
 5170SOL     OW27540   3.447   1.704   1.898
 5170SOL    HW127541   3.437   1.725   1.995
 5170SOL    HW227542   3.468   1.607   1.887
 5171SOL     OW27543   2.370   5.962   6.614
 5171SOL    HW127544   2.304   6.037   6.608
 5171SOL    HW227545   2.440   5.984   6.682
 5172SOL     OW27546   2.757   6.915   1.076
 5172SOL    HW127547   2.728   6.845   1.142
 5172SOL    HW227548   2.677   6.946   1.025
 5173SOL     OW27549   0.498   7.593   6.734
 5173SOL    HW127550   0.567   7.636   6.793
 5173SOL    HW227551   0.409   7.595   6.779
 5174SOL     OW27552   3.845   2.394   1.251
 5174SOL    HW127553   3.844   2.360   1.345
 5174SOL    HW227554   3.784   2.338   1.195
 5175SOL     OW27555   7.709   2.231   1.087
 5175SOL    HW127556   7.613   2.252   1.071
 5175SOL    HW227557   7.748   2.186   1.007
 5176SOL     OW27558   5.942   6.784   5.613
 5176SOL    HW127559   5.890   6.719   5.668
 5176SOL    HW227560   5.897   6.797   5.525
 5177SOL     OW27561   0.751   4.126   6.217
 5177SOL    HW127562   0.751   4.037   6.171
 5177SOL    HW227563   0.658   4.149   6.246
 5178SOL     OW27564   0.953   5.493   1.274
 5178SOL    HW127565   0.928   5.469   1.368
 5178SOL    HW227566   1.033   5.553   1.275
 5179SOL     OW27567   1.128   1.273   1.303
 5179SOL    HW127568   1.202   1.219   1.264
 5179SOL    HW227569   1.059   1.212   1.342
 5180SOL     OW27570   2.803   6.350   0.220
 5180SOL    HW127571   2.797   6.448   0.201
 5180SOL    HW227572   2.899   6.324   0.232
 5181SOL     OW27573   5.589   2.761   0.902
 5181SOL    HW127574   5.532   2.821   0.846
 5181SOL    HW227575   5.530   2.698   0.953
 5182SOL     OW27576   1.822   1.355   1.282
 5182SOL    HW127577   1.887   1.424   1.249
 5182SOL    HW227578   1.794   1.378   1.375
 5183SOL     OW27579   3.932   0.217   5.972
 5183SOL    HW127580   3.925   0.317   5.974
 5183SOL    HW227581   3.850   0.179   5.931
 5184SOL     OW27582   4.347   1.911   6.532
 5184SOL    HW127583   4.417   1.983   6.531
 5184SOL    HW227584   4.390   1.823   6.510
 5185SOL     OW27585   6.091   6.660   2.211
 5185SOL    HW127586   6.189   6.673   2.225
 5185SOL    HW227587   6.055   6.601   2.283
 5186SOL     OW27588   8.829   6.855   1.663
 5186SOL    HW127589   8.745   6.865   1.716
 5186SOL    HW227590   8.823   6.773   1.606
 5187SOL     OW27591   4.408   4.795   5.725
 5187SOL    HW127592   4.439   4.702   5.706
 5187SOL    HW227593   4.343   4.824   5.655
 5188SOL     OW27594   3.140   6.419   1.420
 5188SOL    HW127595   3.089   6.336   1.398
 5188SOL    HW227596   3.087   6.499   1.391
 5189SOL     OW27597   4.903   2.729   6.278
 5189SOL    HW127598   4.974   2.782   6.231
 5189SOL    HW227599   4.946   2.670   6.346
 5190SOL     OW27600   3.054   3.358   6.164
 5190SOL    HW127601   3.045   3.457   6.156
 5190SOL    HW227602   2.981   3.313   6.113
 5191SOL     OW27603   6.053   0.341   2.039
 5191SOL    HW127604   6.116   0.418   2.048
 5191SOL    HW227605   6.042   0.296   2.128
 5192SOL     OW27606   4.740   3.376   0.298
 5192SOL    HW127607   4.784   3.325   0.225
 5192SOL    HW227608   4.748   3.474   0.280
 5193SOL     OW27609   0.311   2.724   6.929
 5193SOL    HW127610   0.241   2.693   6.865
 5193SOL    HW227611   0.358   2.804   6.891
 5194SOL     OW27612   1.484   1.869   1.383
 5194SOL    HW127613   1.547   1.796   1.357
 5194SOL    HW227614   1.535   1.955   1.391
 5195SOL     OW27615   3.863   4.972   1.723
 5195SOL    HW127616   3.950   4.932   1.694
 5195SOL    HW227617   3.830   4.924   1.804
 5196SOL     OW27618   1.461   2.584   6.647
 5196SOL    HW127619   1.386   2.567   6.712
 5196SOL    HW227620   1.465   2.682   6.626
 5197SOL     OW27621   4.622   7.387   6.244
 5197SOL    HW127622   4.671   7.381   6.157
 5197SOL    HW227623   4.686   7.375   6.320
 5198SOL     OW27624   5.755   7.975   2.184
 5198SOL    HW127625   5.826   7.913   2.220
 5198SOL    HW227626   5.669   7.924   2.174
 5199SOL     OW27627   6.033   2.978   1.137
 5199SOL    HW127628   6.081   3.061   1.167
 5199SOL    HW227629   6.083   2.937   1.061
 5200SOL     OW27630   8.080   2.810   0.647
 5200SOL    HW127631   8.169   2.854   0.663
 5200SOL    HW227632   8.007   2.874   0.670
 5201SOL     OW27633   3.757   1.736   6.347
 5201SOL    HW127634   3.658   1.728   6.360
 5201SOL    HW227635   3.787   1.669   6.279
 5202SOL     OW27636   3.491   1.357   1.497
 5202SOL    HW127637   3.482   1.432   1.431
 5202SOL    HW227638   3.558   1.381   1.566
 5203SOL     OW27639   7.218   6.657   0.460
 5203SOL    HW127640   7.210   6.571   0.410
 5203SOL    HW227641   7.273   6.644   0.542
 5204SOL     OW27642   4.964   1.453   1.845
 5204SOL    HW127643   4.947   1.390   1.920
 5204SOL    HW227644   4.961   1.547   1.879
 5205SOL     OW27645   1.170   1.490   6.885
 5205SOL    HW127646   1.187   1.555   6.959
 5205SOL    HW227647   1.256   1.468   6.840
 5206SOL     OW27648   5.546   7.708   0.492
 5206SOL    HW127649   5.606   7.773   0.446
 5206SOL    HW227650   5.586   7.681   0.579
 5207SOL     OW27651   2.254   6.796   6.835
 5207SOL    HW127652   2.271   6.890   6.808
 5207SOL    HW227653   2.249   6.738   6.753
 5208SOL     OW27654   8.628   1.908   1.586
 5208SOL    HW127655   8.641   2.003   1.558
 5208SOL    HW227656   8.646   1.899   1.684
 5209SOL     OW27657   5.748   8.051   6.511
 5209SOL    HW127658   5.847   8.066   6.521
 5209SOL    HW227659   5.729   8.004   6.425
 5210SOL     OW27660   3.864   7.293   0.612
 5210SOL    HW127661   3.893   7.199   0.626
 5210SOL    HW227662   3.944   7.354   0.615
 5211SOL     OW27663   5.762   4.166   1.653
 5211SOL    HW127664   5.808   4.102   1.714
 5211SOL    HW227665   5.663   4.160   1.665
 5212SOL     OW27666   6.162   0.545   0.774
 5212SOL    HW127667   6.116   0.617   0.722
 5212SOL    HW227668   6.102   0.512   0.847
 5213SOL     OW27669   5.711   2.098   1.108
 5213SOL    HW127670   5.696   2.024   1.043
 5213SOL    HW227671   5.674   2.183   1.070
 5214SOL     OW27672   0.328   1.843   1.053
 5214SOL    HW127673   0.311   1.752   1.091
 5214SOL    HW227674   0.376   1.898   1.120
 5215SOL     OW27675   7.910   5.467   5.120
 5215SOL    HW127676   7.971   5.471   5.042
 5215SOL    HW227677   7.815   5.464   5.088
 5216SOL     OW27678   5.826   6.646   0.837
 5216SOL    HW127679   5.778   6.665   0.923
 5216SOL    HW227680   5.857   6.733   0.797
 5217SOL     OW27681   4.330   6.510   5.754
 5217SOL    HW127682   4.327   6.431   5.815
 5217SOL    HW227683   4.299   6.482   5.663
 5218SOL     OW27684   7.916   5.305   0.572
 5218SOL    HW127685   7.960   5.218   0.553
 5218SOL    HW227686   7.832   5.290   0.624
 5219SOL     OW27687   9.001   2.048   6.381
 5219SOL    HW127688   9.034   2.043   6.475
 5219SOL    HW227689   8.986   2.144   6.357
 5220SOL     OW27690   4.700   7.895   5.493
 5220SOL    HW127691   4.626   7.829   5.478
 5220SOL    HW227692   4.756   7.864   5.570
 5221SOL     OW27693   0.267   7.234   1.168
 5221SOL    HW127694   0.238   7.139   1.154
 5221SOL    HW227695   0.212   7.275   1.241
 5222SOL     OW27696   6.779   4.149   1.395
 5222SOL    HW127697   6.733   4.193   1.319
 5222SOL    HW227698   6.749   4.190   1.481
 5223SOL     OW27699   9.154   0.630   5.704
 5223SOL    HW127700   9.170   0.546   5.651
 5223SOL    HW227701   9.057   0.655   5.697
 5224SOL     OW27702   0.532   1.235   6.754
 5224SOL    HW127703   0.607   1.241   6.689
 5224SOL    HW227704   0.449   1.271   6.712
 5225SOL     OW27705   7.969   3.717   1.399
 5225SOL    HW127706   7.920   3.748   1.318
 5225SOL    HW227707   8.038   3.649   1.372
 5226SOL     OW27708   3.716   7.378   2.371
 5226SOL    HW127709   3.771   7.381   2.454
 5226SOL    HW227710   3.759   7.318   2.304
 5227SOL     OW27711   7.786   4.898   6.778
 5227SOL    HW127712   7.800   4.912   6.680
 5227SOL    HW227713   7.757   4.803   6.795
 5228SOL     OW27714   5.432   8.027   1.745
 5228SOL    HW127715   5.494   8.081   1.688
 5228SOL    HW227716   5.454   8.041   1.841
 5229SOL     OW27717   1.138   3.454   0.213
 5229SOL    HW127718   1.129   3.554   0.212
 5229SOL    HW227719   1.060   3.414   0.260
 5230SOL     OW27720   5.912   1.202   0.777
 5230SOL    HW127721   6.001   1.211   0.823
 5230SOL    HW227722   5.922   1.143   0.697
 5231SOL     OW27723   5.527   8.209   1.582
 5231SOL    HW127724   5.487   8.295   1.614
 5231SOL    HW227725   5.494   8.189   1.489
 5232SOL     OW27726   5.616   8.128   0.486
 5232SOL    HW127727   5.704   8.116   0.439
 5232SOL    HW227728   5.632   8.154   0.581
 5233SOL     OW27729   3.868   4.674   1.591
 5233SOL    HW127730   3.778   4.716   1.577
 5233SOL    HW227731   3.887   4.667   1.689
 5234SOL     OW27732   5.092   7.005   5.769
 5234SOL    HW127733   5.033   6.984   5.691
 5234SOL    HW227734   5.073   6.942   5.844
 5235SOL     OW27735   6.102   1.452   6.601
 5235SOL    HW127736   6.171   1.385   6.572
 5235SOL    HW227737   6.118   1.477   6.696
 5236SOL     OW27738   0.682   0.870   5.563
 5236SOL    HW127739   0.697   0.862   5.464
 5236SOL    HW227740   0.769   0.865   5.611
 5237SOL     OW27741   8.167   3.389   6.626
 5237SOL    HW127742   8.225   3.411   6.548
 5237SOL    HW227743   8.179   3.458   6.697
 5238SOL     OW27744   9.437   3.057   6.448
 5238SOL    HW127745   9.411   3.089   6.539
 5238SOL    HW227746   9.372   2.988   6.417
 5239SOL     OW27747   9.548   4.868   1.226
 5239SOL    HW127748   9.615   4.894   1.297
 5239SOL    HW227749   9.515   4.776   1.244
 5240SOL     OW27750   4.959   1.414   6.368
 5240SOL    HW127751   4.980   1.380   6.460
 5240SOL    HW227752   4.937   1.511   6.373
 5241SOL     OW27753   2.135   2.806   6.828
 5241SOL    HW127754   2.157   2.719   6.870
 5241SOL    HW227755   2.206   2.829   6.761
 5242SOL     OW27756   8.982   3.892   0.331
 5242SOL    HW127757   9.001   3.987   0.354
 5242SOL    HW227758   9.053   3.833   0.369
 5243SOL     OW27759   1.291   8.284   0.666
 5243SOL    HW127760   1.318   8.377   0.691
 5243SOL    HW227761   1.251   8.238   0.745
 5244SOL     OW27762   7.087   4.226   1.538
 5244SOL    HW127763   7.180   4.258   1.557
 5244SOL    HW227764   7.091   4.136   1.494
 5245SOL     OW27765   1.531   4.836   6.369
 5245SOL    HW127766   1.523   4.744   6.330
 5245SOL    HW227767   1.616   4.879   6.336
 5246SOL     OW27768   7.987   7.439   6.670
 5246SOL    HW127769   8.029   7.525   6.640
 5246SOL    HW227770   7.921   7.458   6.743
 5247SOL     OW27771   0.621   5.645   6.046
 5247SOL    HW127772   0.674   5.654   5.962
 5247SOL    HW227773   0.659   5.571   6.101
 5248SOL     OW27774   4.148   5.470   2.234
 5248SOL    HW127775   4.111   5.556   2.270
 5248SOL    HW227776   4.077   5.400   2.237
 5249SOL     OW27777   3.607   6.246   1.108
 5249SOL    HW127778   3.617   6.261   1.206
 5249SOL    HW227779   3.544   6.170   1.092
 5250SOL     OW27780   2.307   5.543   1.135
 5250SOL    HW127781   2.315   5.582   1.226
 5250SOL    HW227782   2.223   5.575   1.091
 5251SOL     OW27783   3.510   4.653   1.689
 5251SOL    HW127784   3.483   4.672   1.784
 5251SOL    HW227785   3.547   4.736   1.648
 5252SOL     OW27786   6.793   6.235   1.730
 5252SOL    HW127787   6.849   6.154   1.745
 5252SOL    HW227788   6.750   6.262   1.816
 5253SOL     OW27789   1.088   0.805   1.028
 5253SOL    HW127790   1.137   0.869   0.968
 5253SOL    HW227791   1.022   0.855   1.083
 5254SOL     OW27792   9.038   3.283   6.935
 5254SOL    HW127793   9.093   3.203   6.915
 5254SOL    HW227794   9.055   3.354   6.865
 5255SOL     OW27795   9.011   7.373   1.306
 5255SOL    HW127796   9.078   7.445   1.320
 5255SOL    HW227797   8.955   7.361   1.388
 5256SOL     OW27798   2.194   4.064   2.112
 5256SOL    HW127799   2.123   4.124   2.149
 5256SOL    HW227800   2.159   4.016   2.031
 5257SOL     OW27801   1.969   2.693   0.761
 5257SOL    HW127802   1.912   2.668   0.839
 5257SOL    HW227803   2.065   2.678   0.783
 5258SOL     OW27804   6.035   3.062   1.690
 5258SOL    HW127805   6.032   3.004   1.771
 5258SOL    HW227806   5.942   3.088   1.664
 5259SOL     OW27807   4.245   0.796   1.662
 5259SOL    HW127808   4.251   0.838   1.753
 5259SOL    HW227809   4.158   0.822   1.619
 5260SOL     OW27810   0.697   1.857   0.344
 5260SOL    HW127811   0.745   1.910   0.274
 5260SOL    HW227812   0.643   1.918   0.401
 5261SOL     OW27813   4.081   3.037   6.403
 5261SOL    HW127814   4.114   2.964   6.344
 5261SOL    HW227815   4.155   3.071   6.460
 5262SOL     OW27816   2.792   7.460   6.089
 5262SOL    HW127817   2.849   7.477   6.008
 5262SOL    HW227818   2.695   7.464   6.063
 5263SOL     OW27819   6.895   0.852   6.021
 5263SOL    HW127820   6.883   0.895   5.932
 5263SOL    HW227821   6.979   0.888   6.064
 5264SOL     OW27822   7.432   5.944   0.779
 5264SOL    HW127823   7.480   5.893   0.850
 5264SOL    HW227824   7.350   5.895   0.752
 5265SOL     OW27825   6.563   1.860   0.352
 5265SOL    HW127826   6.607   1.838   0.440
 5265SOL    HW227827   6.630   1.900   0.290
 5266SOL     OW27828   5.049   1.254   6.135
 5266SOL    HW127829   4.983   1.298   6.197
 5266SOL    HW227830   5.138   1.298   6.145
 5267SOL     OW27831   5.323   2.181   5.795
 5267SOL    HW127832   5.309   2.147   5.702
 5267SOL    HW227833   5.301   2.278   5.799
 5268SOL     OW27834   4.259   1.953   6.165
 5268SOL    HW127835   4.228   1.858   6.172
 5268SOL    HW227836   4.337   1.967   6.226
 5269SOL     OW27837   3.453   6.867   1.635
 5269SOL    HW127838   3.509   6.877   1.717
 5269SOL    HW227839   3.509   6.827   1.562
 5270SOL     OW27840   8.899   6.688   5.832
 5270SOL    HW127841   8.971   6.732   5.778
 5270SOL    HW227842   8.932   6.600   5.866
 5271SOL     OW27843   0.596   7.028   5.316
 5271SOL    HW127844   0.497   7.013   5.324
 5271SOL    HW227845   0.616   7.126   5.322
 5272SOL     OW27846   0.691   6.469   1.630
 5272SOL    HW127847   0.635   6.515   1.698
 5272SOL    HW227848   0.788   6.484   1.651
 5273SOL     OW27849   3.649   8.297   1.515
 5273SOL    HW127850   3.686   8.263   1.429
 5273SOL    HW227851   3.655   8.225   1.584
 5274SOL     OW27852   4.772   4.707   0.997
 5274SOL    HW127853   4.696   4.650   0.965
 5274SOL    HW227854   4.793   4.684   1.092
 5275SOL     OW27855   1.288   2.772   5.462
 5275SOL    HW127856   1.305   2.677   5.490
 5275SOL    HW227857   1.354   2.833   5.505
 5276SOL     OW27858   6.160   0.597   2.090
 5276SOL    HW127859   6.100   0.674   2.112
 5276SOL    HW227860   6.246   0.606   2.141
 5277SOL     OW27861   8.276   7.615   0.396
 5277SOL    HW127862   8.313   7.559   0.470
 5277SOL    HW227863   8.351   7.665   0.352
 5278SOL     OW27864   9.152   6.798   1.595
 5278SOL    HW127865   9.084   6.748   1.541
 5278SOL    HW227866   9.171   6.747   1.679
 5279SOL     OW27867   1.351   4.225   5.830
 5279SOL    HW127868   1.449   4.209   5.846
 5279SOL    HW227869   1.334   4.232   5.732
 5280SOL     OW27870   9.223   7.606   1.196
 5280SOL    HW127871   9.247   7.541   1.123
 5280SOL    HW227872   9.286   7.594   1.273
 5281SOL     OW27873   4.716   5.667   1.761
 5281SOL    HW127874   4.658   5.713   1.694
 5281SOL    HW227875   4.705   5.712   1.850
 5282SOL     OW27876   2.012   6.376   5.236
 5282SOL    HW127877   2.003   6.300   5.172
 5282SOL    HW227878   2.108   6.389   5.259
 5283SOL     OW27879   5.603   5.760   1.256
 5283SOL    HW127880   5.696   5.782   1.226
 5283SOL    HW227881   5.537   5.806   1.197
 5284SOL     OW27882   3.365   5.758   6.028
 5284SOL    HW127883   3.462   5.782   6.037
 5284SOL    HW227884   3.320   5.768   6.117
 5285SOL     OW27885   7.283   5.555   0.950
 5285SOL    HW127886   7.382   5.544   0.961
 5285SOL    HW227887   7.259   5.652   0.963
 5286SOL     OW27888   1.863   4.681   6.465
 5286SOL    HW127889   1.849   4.703   6.561
 5286SOL    HW227890   1.866   4.765   6.411
 5287SOL     OW27891   0.226   2.999   6.363
 5287SOL    HW127892   0.130   3.021   6.379
 5287SOL    HW227893   0.232   2.913   6.312
 5288SOL     OW27894   6.676   3.975   1.152
 5288SOL    HW127895   6.656   4.067   1.187
 5288SOL    HW227896   6.729   3.982   1.067
 5289SOL     OW27897   0.131   0.144   1.708
 5289SOL    HW127898   0.163   0.206   1.637
 5289SOL    HW227899   0.122   0.194   1.794
 5290SOL     OW27900   4.443   2.789   1.557
 5290SOL    HW127901   4.496   2.829   1.632
 5290SOL    HW227902   4.360   2.842   1.542
 5291SOL     OW27903   5.100   0.637   0.754
 5291SOL    HW127904   5.105   0.541   0.725
 5291SOL    HW227905   5.005   0.668   0.750
 5292SOL     OW27906   9.000   2.543   0.769
 5292SOL    HW127907   8.945   2.619   0.803
 5292SOL    HW227908   8.956   2.456   0.794
 5293SOL     OW27909   6.989   5.759   6.879
 5293SOL    HW127910   7.010   5.857   6.884
 5293SOL    HW227911   6.972   5.734   6.784
 5294SOL     OW27912   7.133   2.921   0.662
 5294SOL    HW127913   7.232   2.905   0.667
 5294SOL    HW227914   7.087   2.836   0.640
 5295SOL     OW27915   2.048   4.364   0.421
 5295SOL    HW127916   2.137   4.322   0.402
 5295SOL    HW227917   1.999   4.380   0.335
 5296SOL     OW27918   2.043   2.558   4.981
 5296SOL    HW127919   1.974   2.486   4.980
 5296SOL    HW227920   2.003   2.643   5.014
 5297SOL     OW27921   8.188   4.614   6.886
 5297SOL    HW127922   8.127   4.549   6.842
 5297SOL    HW227923   8.139   4.700   6.902
 5298SOL     OW27924   8.201   5.953   6.749
 5298SOL    HW127925   8.174   5.879   6.810
 5298SOL    HW227926   8.289   5.932   6.707
 5299SOL     OW27927   8.413   6.738   5.908
 5299SOL    HW127928   8.417   6.647   5.868
 5299SOL    HW227929   8.360   6.798   5.848
 5300SOL     OW27930   1.851   0.228   1.716
 5300SOL    HW127931   1.866   0.136   1.754
 5300SOL    HW227932   1.767   0.266   1.754
 5301SOL     OW27933   9.444   2.298   6.356
 5301SOL    HW127934   9.357   2.326   6.397
 5301SOL    HW227935   9.433   2.294   6.256
 5302SOL     OW27936   4.964   0.651   5.499
 5302SOL    HW127937   4.923   0.685   5.415
 5302SOL    HW227938   5.055   0.691   5.510
 5303SOL     OW27939   4.994   6.025   0.519
 5303SOL    HW127940   5.012   6.006   0.616
 5303SOL    HW227941   5.068   5.987   0.464
 5304SOL     OW27942   0.432   6.504   4.593
 5304SOL    HW127943   0.507   6.448   4.557
 5304SOL    HW227944   0.378   6.539   4.516
 5305SOL     OW27945   3.708   2.334   2.073
 5305SOL    HW127946   3.717   2.423   2.117
 5305SOL    HW227947   3.715   2.262   2.143
 5306SOL     OW27948   7.508   5.359   0.984
 5306SOL    HW127949   7.512   5.276   1.040
 5306SOL    HW227950   7.437   5.348   0.914
 5307SOL     OW27951   5.245   4.789   0.945
 5307SOL    HW127952   5.151   4.821   0.954
 5307SOL    HW227953   5.295   4.808   1.030
 5308SOL     OW27954   4.134   1.204   0.766
 5308SOL    HW127955   4.172   1.273   0.705
 5308SOL    HW227956   4.195   1.125   0.769
 5309SOL     OW27957   8.993   7.336   5.292
 5309SOL    HW127958   8.937   7.271   5.343
 5309SOL    HW227959   8.939   7.376   5.218
 5310SOL     OW27960   6.464   1.494   2.188
 5310SOL    HW127961   6.473   1.543   2.274
 5310SOL    HW227962   6.541   1.431   2.177
 5311SOL     OW27963   3.518   5.561   6.490
 5311SOL    HW127964   3.533   5.651   6.449
 5311SOL    HW227965   3.423   5.532   6.475
 5312SOL     OW27966   7.576   0.633   6.916
 5312SOL    HW127967   7.661   0.617   6.966
 5312SOL    HW227968   7.596   0.636   6.818
 5313SOL     OW27969   8.828   4.665   6.228
 5313SOL    HW127970   8.908   4.697   6.177
 5313SOL    HW227971   8.858   4.621   6.313
 5314SOL     OW27972   2.825   5.125   0.720
 5314SOL    HW127973   2.729   5.100   0.734
 5314SOL    HW227974   2.879   5.091   0.797
 5315SOL     OW27975   7.311   6.678   0.726
 5315SOL    HW127976   7.254   6.748   0.768
 5315SOL    HW227977   7.355   6.623   0.798
 5316SOL     OW27978   7.990   1.791   0.894
 5316SOL    HW127979   8.017   1.837   0.978
 5316SOL    HW227980   8.071   1.755   0.848
 5317SOL     OW27981   2.767   1.167   6.194
 5317SOL    HW127982   2.710   1.092   6.225
 5317SOL    HW227983   2.863   1.141   6.199
 5318SOL     OW27984   5.209   6.734   0.294
 5318SOL    HW127985   5.250   6.792   0.364
 5318SOL    HW227986   5.168   6.791   0.223
 5319SOL     OW27987   5.945   5.320   6.887
 5319SOL    HW127988   5.849   5.316   6.862
 5319SOL    HW227989   5.955   5.305   6.986
 5320SOL     OW27990   9.361   3.058   1.445
 5320SOL    HW127991   9.289   3.041   1.512
 5320SOL    HW227992   9.451   3.054   1.490
 5321SOL     OW27993   5.007   4.858   0.528
 5321SOL    HW127994   5.059   4.896   0.452
 5321SOL    HW227995   4.910   4.853   0.503
 5322SOL     OW27996   3.775   2.116   6.174
 5322SOL    HW127997   3.780   2.023   6.136
 5322SOL    HW227998   3.868   2.147   6.194
 5323SOL     OW27999   9.278   4.371   6.919
 5323SOL    HW128000   9.356   4.429   6.896
 5323SOL    HW228001   9.274   4.293   6.857
 5324SOL     OW28002   8.194   7.610   5.420
 5324SOL    HW128003   8.163   7.667   5.344
 5324SOL    HW228004   8.274   7.557   5.392
 5325SOL     OW28005   2.350   2.156   6.770
 5325SOL    HW128006   2.324   2.243   6.728
 5325SOL    HW228007   2.272   2.093   6.766
 5326SOL     OW28008   6.206   0.491   6.639
 5326SOL    HW128009   6.306   0.498   6.640
 5326SOL    HW228010   6.180   0.398   6.613
 5327SOL     OW28011   9.154   4.967   6.271
 5327SOL    HW128012   9.091   4.952   6.347
 5327SOL    HW228013   9.162   4.883   6.217
 5328SOL     OW28014   7.570   5.451   5.038
 5328SOL    HW128015   7.624   5.508   4.975
 5328SOL    HW228016   7.473   5.458   5.015
 5329SOL     OW28017   7.553   2.167   0.526
 5329SOL    HW128018   7.467   2.160   0.476
 5329SOL    HW228019   7.604   2.247   0.492
 5330SOL     OW28020   9.274   5.502   0.981
 5330SOL    HW128021   9.274   5.435   1.056
 5330SOL    HW228022   9.291   5.593   1.018
 5331SOL     OW28023   8.351   6.869   0.437
 5331SOL    HW128024   8.260   6.903   0.414
 5331SOL    HW228025   8.359   6.773   0.408
 5332SOL     OW28026   4.075   5.274   0.907
 5332SOL    HW128027   3.986   5.240   0.938
 5332SOL    HW228028   4.102   5.353   0.963
 5333SOL     OW28029   7.595   7.719   5.990
 5333SOL    HW128030   7.574   7.689   5.897
 5333SOL    HW228031   7.603   7.818   5.993
 5334SOL     OW28032   2.148   5.539   0.478
 5334SOL    HW128033   2.107   5.517   0.567
 5334SOL    HW228034   2.179   5.455   0.434
 5335SOL     OW28035   7.339   6.876   1.156
 5335SOL    HW128036   7.351   6.817   1.235
 5335SOL    HW228037   7.330   6.971   1.186
 5336SOL     OW28038   2.058   3.685   5.559
 5336SOL    HW128039   2.075   3.742   5.479
 5336SOL    HW228040   2.017   3.598   5.530
 5337SOL     OW28041   2.053   2.304   6.249
 5337SOL    HW128042   1.995   2.364   6.304
 5337SOL    HW228043   1.997   2.251   6.186
 5338SOL     OW28044   1.277   6.742   6.582
 5338SOL    HW128045   1.355   6.803   6.595
 5338SOL    HW228046   1.309   6.653   6.548
 5339SOL     OW28047   8.255   6.630   5.485
 5339SOL    HW128048   8.311   6.710   5.505
 5339SOL    HW228049   8.209   6.599   5.568
 5340SOL     OW28050   2.949   1.270   0.632
 5340SOL    HW128051   3.009   1.317   0.696
 5340SOL    HW228052   2.955   1.171   0.647
 5341SOL     OW28053   8.384   7.472   5.982
 5341SOL    HW128054   8.481   7.449   5.984
 5341SOL    HW228055   8.330   7.389   5.969
 5342SOL     OW28056   6.922   7.132   1.329
 5342SOL    HW128057   6.954   7.109   1.421
 5342SOL    HW228058   6.914   7.048   1.275
 5343SOL     OW28059   0.395   7.655   1.016
 5343SOL    HW128060   0.389   7.640   1.114
 5343SOL    HW228061   0.426   7.749   0.999
 5344SOL     OW28062   7.738   3.497   1.359
 5344SOL    HW128063   7.757   3.589   1.324
 5344SOL    HW228064   7.788   3.483   1.445
 5345SOL     OW28065   7.868   5.973   1.220
 5345SOL    HW128066   7.869   5.892   1.279
 5345SOL    HW228067   7.796   6.036   1.252
 5346SOL     OW28068   4.620   0.303   5.938
 5346SOL    HW128069   4.684   0.372   5.972
 5346SOL    HW228070   4.637   0.286   5.841
 5347SOL     OW28071   5.773   4.648   0.386
 5347SOL    HW128072   5.814   4.732   0.421
 5347SOL    HW228073   5.840   4.573   0.390
 5348SOL     OW28074   8.187   5.125   0.949
 5348SOL    HW128075   8.110   5.070   0.917
 5348SOL    HW228076   8.268   5.105   0.894
 5349SOL     OW28077   4.690   7.527   5.329
 5349SOL    HW128078   4.759   7.514   5.258
 5349SOL    HW228079   4.605   7.558   5.287
 5350SOL     OW28080   2.272   4.718   5.862
 5350SOL    HW128081   2.263   4.702   5.960
 5350SOL    HW228082   2.353   4.670   5.828
 5351SOL     OW28083   2.591   3.559   5.911
 5351SOL    HW128084   2.675   3.506   5.924
 5351SOL    HW228085   2.615   3.654   5.891
 5352SOL     OW28086   5.526   6.875   0.848
 5352SOL    HW128087   5.476   6.899   0.765
 5352SOL    HW228088   5.529   6.953   0.909
 5353SOL     OW28089   3.014   0.072   0.742
 5353SOL    HW128090   2.921   0.079   0.776
 5353SOL    HW228091   3.014   0.023   0.654
 5354SOL     OW28092   5.757   8.224   2.328
 5354SOL    HW128093   5.752   8.126   2.308
 5354SOL    HW228094   5.853   8.251   2.335
 5355SOL     OW28095   6.586   7.972   6.040
 5355SOL    HW128096   6.530   7.892   6.061
 5355SOL    HW228097   6.543   8.025   5.967
 5356SOL     OW28098   8.979   2.716   0.456
 5356SOL    HW128099   9.058   2.721   0.394
 5356SOL    HW228100   8.901   2.762   0.414
 5357SOL     OW28101   3.306   8.361   6.558
 5357SOL    HW128102   3.313   8.298   6.481
 5357SOL    HW228103   3.225   8.419   6.547
 5358SOL     OW28104   1.716   7.664   0.957
 5358SOL    HW128105   1.761   7.640   1.043
 5358SOL    HW228106   1.617   7.650   0.966
 5359SOL     OW28107   2.090   4.623   5.652
 5359SOL    HW128108   2.105   4.620   5.554
 5359SOL    HW228109   2.173   4.657   5.698
 5360SOL     OW28110   8.909   6.217   0.588
 5360SOL    HW128111   8.907   6.118   0.601
 5360SOL    HW228112   8.914   6.263   0.677
 5361SOL     OW28113   5.784   1.112   1.265
 5361SOL    HW128114   5.811   1.147   1.355
 5361SOL    HW228115   5.826   1.023   1.250
 5362SOL     OW28116   6.372   2.195   0.674
 5362SOL    HW128117   6.391   2.191   0.576
 5362SOL    HW228118   6.288   2.144   0.695
 5363SOL     OW28119   2.044   6.211   1.573
 5363SOL    HW128120   2.112   6.138   1.581
 5363SOL    HW228121   1.971   6.181   1.511
 5364SOL     OW28122   3.396   6.699   5.283
 5364SOL    HW128123   3.334   6.771   5.315
 5364SOL    HW228124   3.488   6.736   5.275
 5365SOL     OW28125   7.277   5.388   5.264
 5365SOL    HW128126   7.295   5.357   5.171
 5365SOL    HW228127   7.187   5.432   5.268
 5366SOL     OW28128   6.264   3.651   6.318
 5366SOL    HW128129   6.359   3.620   6.328
 5366SOL    HW228130   6.240   3.653   6.221
 5367SOL     OW28131   6.665   5.744   0.487
 5367SOL    HW128132   6.728   5.667   0.485
 5367SOL    HW228133   6.700   5.814   0.550
 5368SOL     OW28134   0.840   5.462   5.107
 5368SOL    HW128135   0.892   5.490   5.189
 5368SOL    HW228136   0.771   5.395   5.133
 5369SOL     OW28137   4.239   5.675   6.103
 5369SOL    HW128138   4.245   5.770   6.073
 5369SOL    HW228139   4.181   5.623   6.039
 5370SOL     OW28140   0.278   2.042   5.427
 5370SOL    HW128141   0.325   2.055   5.515
 5370SOL    HW228142   0.344   2.048   5.353
 5371SOL     OW28143   9.265   6.560   6.293
 5371SOL    HW128144   9.264   6.481   6.355
 5371SOL    HW228145   9.199   6.628   6.325
 5372SOL     OW28146   1.361   6.039   0.543
 5372SOL    HW128147   1.265   6.042   0.514
 5372SOL    HW228148   1.420   6.035   0.462
 5373SOL     OW28149   1.199   7.008   6.327
 5373SOL    HW128150   1.229   7.103   6.323
 5373SOL    HW228151   1.278   6.947   6.323
 5374SOL     OW28152   7.983   1.942   6.428
 5374SOL    HW128153   7.949   2.019   6.482
 5374SOL    HW228154   8.062   1.973   6.374
 5375SOL     OW28155   6.321   7.417   0.900
 5375SOL    HW128156   6.389   7.388   0.833
 5375SOL    HW228157   6.257   7.481   0.857
 5376SOL     OW28158   7.590   6.298   0.845
 5376SOL    HW128159   7.563   6.256   0.759
 5376SOL    HW228160   7.623   6.227   0.908
 5377SOL     OW28161   4.435   7.826   1.535
 5377SOL    HW128162   4.508   7.833   1.603
 5377SOL    HW228163   4.470   7.777   1.454
 5378SOL     OW28164   9.235   1.448   1.114
 5378SOL    HW128165   9.147   1.492   1.127
 5378SOL    HW228166   9.232   1.355   1.149
 5379SOL     OW28167   1.699   0.932   0.301
 5379SOL    HW128168   1.775   0.994   0.320
 5379SOL    HW228169   1.636   0.976   0.237
 5380SOL     OW28170   9.469   6.596   5.440
 5380SOL    HW128171   9.493   6.689   5.467
 5380SOL    HW228172   9.534   6.532   5.482
 5381SOL     OW28173   2.639   6.369   0.913
 5381SOL    HW128174   2.601   6.295   0.858
 5381SOL    HW228175   2.736   6.380   0.891
 5382SOL     OW28176   5.026   2.849   0.389
 5382SOL    HW128177   5.016   2.752   0.408
 5382SOL    HW228178   4.969   2.874   0.310
 5383SOL     OW28179   1.392   6.838   1.110
 5383SOL    HW128180   1.404   6.740   1.096
 5383SOL    HW228181   1.393   6.858   1.208
 5384SOL     OW28182   3.365   8.140   6.839
 5384SOL    HW128183   3.301   8.126   6.763
 5384SOL    HW228184   3.382   8.238   6.851
 5385SOL     OW28185   7.599   3.862   1.339
 5385SOL    HW128186   7.646   3.941   1.378
 5385SOL    HW228187   7.502   3.864   1.366
 5386SOL     OW28188   2.973   6.614   1.355
 5386SOL    HW128189   2.960   6.593   1.258
 5386SOL    HW228190   2.995   6.711   1.366
 5387SOL     OW28191   4.967   3.829   6.367
 5387SOL    HW128192   4.895   3.768   6.335
 5387SOL    HW228193   5.041   3.832   6.300
 5388SOL     OW28194   7.968   4.994   0.781
 5388SOL    HW128195   7.939   4.983   0.876
 5388SOL    HW228196   7.892   4.971   0.721
 5389SOL     OW28197   0.971   1.437   0.500
 5389SOL    HW128198   0.961   1.494   0.419
 5389SOL    HW228199   0.950   1.491   0.581
 5390SOL     OW28200   3.795   0.320   1.010
 5390SOL    HW128201   3.830   0.408   0.976
 5390SOL    HW228202   3.696   0.317   0.998
 5391SOL     OW28203   3.130   7.293   6.743
 5391SOL    HW128204   3.193   7.333   6.677
 5391SOL    HW228205   3.142   7.336   6.832
 5392SOL     OW28206   1.126   3.614   0.918
 5392SOL    HW128207   1.068   3.539   0.888
 5392SOL    HW228208   1.161   3.595   1.010
 5393SOL     OW28209   5.849   1.853   0.613
 5393SOL    HW128210   5.792   1.809   0.544
 5393SOL    HW228211   5.793   1.880   0.691
 5394SOL     OW28212   8.315   2.954   0.706
 5394SOL    HW128213   8.362   3.030   0.662
 5394SOL    HW228214   8.347   2.945   0.800
 5395SOL     OW28215   9.511   1.556   0.203
 5395SOL    HW128216   9.501   1.472   0.257
 5395SOL    HW228217   9.588   1.547   0.141
 5396SOL     OW28218   5.425   0.151   5.911
 5396SOL    HW128219   5.384   0.233   5.952
 5396SOL    HW228220   5.369   0.071   5.934
 5397SOL     OW28221   4.026   3.449   6.832
 5397SOL    HW128222   4.060   3.382   6.898
 5397SOL    HW228223   3.942   3.415   6.790
 5398SOL     OW28224   5.706   5.525   0.633
 5398SOL    HW128225   5.610   5.497   0.634
 5398SOL    HW228226   5.749   5.499   0.720
 5399SOL     OW28227   5.190   6.365   1.409
 5399SOL    HW128228   5.138   6.280   1.412
 5399SOL    HW228229   5.131   6.439   1.378
 5400SOL     OW28230   4.486   5.061   6.738
 5400SOL    HW128231   4.436   5.146   6.724
 5400SOL    HW228232   4.422   4.988   6.763
 5401SOL     OW28233   2.366   4.148   1.019
 5401SOL    HW128234   2.385   4.183   0.927
 5401SOL    HW228235   2.363   4.225   1.083
 5402SOL     OW28236   4.215   0.674   6.492
 5402SOL    HW128237   4.165   0.756   6.518
 5402SOL    HW228238   4.170   0.593   6.531
 5403SOL     OW28239   2.132   6.793   0.802
 5403SOL    HW128240   2.042   6.806   0.844
 5403SOL    HW228241   2.195   6.753   0.868
 5404SOL     OW28242   3.594   3.040   0.285
 5404SOL    HW128243   3.616   3.002   0.375
 5404SOL    HW228244   3.656   3.116   0.265
 5405SOL     OW28245   1.440   6.276   0.320
 5405SOL    HW128246   1.501   6.201   0.345
 5405SOL    HW228247   1.409   6.323   0.402
 5406SOL     OW28248   1.326   7.112   5.532
 5406SOL    HW128249   1.268   7.122   5.613
 5406SOL    HW228250   1.283   7.050   5.468
 5407SOL     OW28251   3.994   5.085   5.978
 5407SOL    HW128252   3.941   5.148   5.921
 5407SOL    HW228253   4.090   5.113   5.978
 5408SOL     OW28254   0.462   6.753   4.388
 5408SOL    HW128255   0.442   6.830   4.328
 5408SOL    HW228256   0.429   6.774   4.480
 5409SOL     OW28257   1.329   3.257   5.891
 5409SOL    HW128258   1.231   3.270   5.906
 5409SOL    HW228259   1.378   3.340   5.918
 5410SOL     OW28260   4.470   1.692   6.448
 5410SOL    HW128261   4.526   1.657   6.523
 5410SOL    HW228262   4.529   1.714   6.371
 5411SOL     OW28263   7.205   5.990   2.061
 5411SOL    HW128264   7.119   5.965   2.018
 5411SOL    HW228265   7.248   6.065   2.010
 5412SOL     OW28266   4.579   6.712   0.587
 5412SOL    HW128267   4.563   6.764   0.670
 5412SOL    HW228268   4.541   6.761   0.509
 5413SOL     OW28269   3.596   3.731   6.905
 5413SOL    HW128270   3.628   3.715   6.998
 5413SOL    HW228271   3.634   3.817   6.871
 5414SOL     OW28272   7.295   5.265   0.839
 5414SOL    HW128273   7.211   5.245   0.789
 5414SOL    HW228274   7.279   5.342   0.902
 5415SOL     OW28275   0.537   7.958   6.594
 5415SOL    HW128276   0.634   7.949   6.615
 5415SOL    HW228277   0.497   7.867   6.581
 5416SOL     OW28278   5.470   4.368   6.674
 5416SOL    HW128279   5.397   4.406   6.616
 5416SOL    HW228280   5.526   4.305   6.619
 5417SOL     OW28281   0.199   0.250   6.504
 5417SOL    HW128282   0.162   0.327   6.555
 5417SOL    HW228283   0.217   0.278   6.410
 5418SOL     OW28284   3.028   2.395   1.645
 5418SOL    HW128285   3.027   2.324   1.715
 5418SOL    HW228286   2.982   2.477   1.680
 5419SOL     OW28287   5.106   4.181   1.671
 5419SOL    HW128288   5.047   4.100   1.676
 5419SOL    HW228289   5.170   4.170   1.595
 5420SOL     OW28290   2.187   0.072   1.014
 5420SOL    HW128291   2.162   0.154   1.065
 5420SOL    HW228292   2.182  -0.008   1.075
 5421SOL     OW28293   3.628   5.539   6.088
 5421SOL    HW128294   3.717   5.494   6.096
 5421SOL    HW228295   3.640   5.638   6.095
 5422SOL     OW28296   3.920   7.296   6.174
 5422SOL    HW128297   3.980   7.373   6.195
 5422SOL    HW228298   3.909   7.240   6.256
 5423SOL     OW28299   4.827   8.237   1.063
 5423SOL    HW128300   4.742   8.242   1.115
 5423SOL    HW228301   4.904   8.262   1.122
 5424SOL     OW28302   4.070   0.748   6.043
 5424SOL    HW128303   4.114   0.820   5.989
 5424SOL    HW228304   4.018   0.789   6.118
 5425SOL     OW28305   4.094   6.157   5.817
 5425SOL    HW128306   4.050   6.199   5.737
 5425SOL    HW228307   4.106   6.059   5.800
 5426SOL     OW28308   2.883   4.387   0.993
 5426SOL    HW128309   2.981   4.407   0.992
 5426SOL    HW228310   2.858   4.337   0.910
 5427SOL     OW28311   5.139   3.440   6.324
 5427SOL    HW128312   5.149   3.536   6.350
 5427SOL    HW228313   5.093   3.434   6.235
 5428SOL     OW28314   8.094   0.601   0.842
 5428SOL    HW128315   8.161   0.674   0.835
 5428SOL    HW228316   8.030   0.622   0.916
 5429SOL     OW28317   1.518   4.921   6.661
 5429SOL    HW128318   1.466   5.006   6.655
 5429SOL    HW228319   1.538   4.887   6.569
 5430SOL     OW28320   4.640   5.053   5.639
 5430SOL    HW128321   4.637   4.992   5.719
 5430SOL    HW228322   4.647   4.998   5.556
 5431SOL     OW28323   2.670   4.283   5.693
 5431SOL    HW128324   2.663   4.342   5.613
 5431SOL    HW228325   2.670   4.187   5.665
 5432SOL     OW28326   3.469   6.701   1.432
 5432SOL    HW128327   3.397   6.736   1.372
 5432SOL    HW228328   3.432   6.626   1.487
 5433SOL     OW28329   6.177   1.772   1.912
 5433SOL    HW128330   6.148   1.733   1.825
 5433SOL    HW228331   6.258   1.829   1.898
 5434SOL     OW28332   6.257   6.165   2.174
 5434SOL    HW128333   6.196   6.126   2.243
 5434SOL    HW228334   6.341   6.197   2.219
 5435SOL     OW28335   8.738   2.382   6.287
 5435SOL    HW128336   8.677   2.317   6.333
 5435SOL    HW228337   8.684   2.437   6.223
 5436SOL     OW28338   2.140   7.768   0.435
 5436SOL    HW128339   2.069   7.714   0.389
 5436SOL    HW228340   2.229   7.747   0.394
 5437SOL     OW28341   2.718   2.395   5.421
 5437SOL    HW128342   2.692   2.476   5.368
 5437SOL    HW228343   2.671   2.315   5.384
 5438SOL     OW28344   0.514   0.644   5.568
 5438SOL    HW128345   0.600   0.692   5.554
 5438SOL    HW228346   0.438   0.702   5.537
 5439SOL     OW28347   8.262   0.910   1.059
 5439SOL    HW128348   8.209   0.980   1.108
 5439SOL    HW228349   8.351   0.948   1.034
 5440SOL     OW28350   7.884   2.001   1.648
 5440SOL    HW128351   7.857   2.077   1.588
 5440SOL    HW228352   7.951   1.944   1.600
 5441SOL     OW28353   5.249   2.892   0.979
 5441SOL    HW128354   5.345   2.904   1.006
 5441SOL    HW228355   5.199   2.848   1.053
 5442SOL     OW28356   4.725   5.234   2.001
 5442SOL    HW128357   4.763   5.159   1.946
 5442SOL    HW228358   4.735   5.212   2.098
 5443SOL     OW28359   8.257   6.920   5.671
 5443SOL    HW128360   8.204   6.993   5.714
 5443SOL    HW228361   8.232   6.912   5.575
 5444SOL     OW28362   0.377   1.854   6.718
 5444SOL    HW128363   0.402   1.913   6.795
 5444SOL    HW228364   0.420   1.888   6.635
 5445SOL     OW28365   4.934   0.237   6.785
 5445SOL    HW128366   4.981   0.257   6.870
 5445SOL    HW228367   4.855   0.178   6.803
 5446SOL     OW28368   1.388   1.560   6.775
 5446SOL    HW128369   1.457   1.492   6.750
 5446SOL    HW228370   1.410   1.647   6.732
 5447SOL     OW28371   4.052   1.048   1.592
 5447SOL    HW128372   4.021   0.984   1.523
 5447SOL    HW228373   4.150   1.066   1.580
 5448SOL     OW28374   8.688   2.172   1.543
 5448SOL    HW128375   8.720   2.239   1.475
 5448SOL    HW228376   8.710   2.205   1.635
 5449SOL     OW28377   5.120   6.021   5.338
 5449SOL    HW128378   5.083   6.107   5.373
 5449SOL    HW228379   5.199   6.040   5.280
 5450SOL     OW28380   7.578   5.764   6.527
 5450SOL    HW128381   7.609   5.856   6.548
 5450SOL    HW228382   7.531   5.726   6.607
 5451SOL     OW28383   0.713   7.989   5.377
 5451SOL    HW128384   0.748   7.899   5.350
 5451SOL    HW228385   0.752   8.013   5.466
 5452SOL     OW28386   2.575   6.143   6.732
 5452SOL    HW128387   2.600   6.185   6.645
 5452SOL    HW228388   2.595   6.206   6.807
 5453SOL     OW28389   2.389   6.709   5.421
 5453SOL    HW128390   2.410   6.807   5.412
 5453SOL    HW228391   2.367   6.671   5.331
 5454SOL     OW28392   4.749   3.368   6.263
 5454SOL    HW128393   4.824   3.369   6.197
 5454SOL    HW228394   4.678   3.305   6.232
 5455SOL     OW28395   3.627   6.090   5.092
 5455SOL    HW128396   3.649   5.995   5.117
 5455SOL    HW228397   3.709   6.146   5.100
 5456SOL     OW28398   9.594   6.123   5.194
 5456SOL    HW128399   9.655   6.202   5.190
 5456SOL    HW228400   9.502   6.150   5.165
 5457SOL     OW28401   0.694   4.831   1.065
 5457SOL    HW128402   0.767   4.892   1.096
 5457SOL    HW228403   0.729   4.769   0.995
 5458SOL     OW28404   3.727   4.445   1.234
 5458SOL    HW128405   3.638   4.416   1.199
 5458SOL    HW228406   3.785   4.365   1.248
 5459SOL     OW28407   5.281   2.277   1.036
 5459SOL    HW128408   5.269   2.362   0.985
 5459SOL    HW228409   5.208   2.268   1.104
 5460SOL     OW28410   1.403   0.498   1.110
 5460SOL    HW128411   1.427   0.417   1.057
 5460SOL    HW228412   1.327   0.477   1.171
 5461SOL     OW28413   1.763   5.586   4.982
 5461SOL    HW128414   1.711   5.640   4.917
 5461SOL    HW228415   1.708   5.508   5.013
 5462SOL     OW28416   0.579   6.862   6.676
 5462SOL    HW128417   0.530   6.807   6.743
 5462SOL    HW228418   0.520   6.937   6.645
 5463SOL     OW28419   5.314  -0.043   6.353
 5463SOL    HW128420   5.304  -0.128   6.302
 5463SOL    HW228421   5.228   0.007   6.353
 5464SOL     OW28422   2.446   0.475   0.680
 5464SOL    HW128423   2.440   0.485   0.780
 5464SOL    HW228424   2.436   0.378   0.656
 5465SOL     OW28425   4.233   3.002   0.600
 5465SOL    HW128426   4.286   3.053   0.533
 5465SOL    HW228427   4.295   2.949   0.658
 5466SOL     OW28428   3.072   6.487   0.750
 5466SOL    HW128429   3.018   6.424   0.806
 5466SOL    HW228430   3.169   6.472   0.767
 5467SOL     OW28431   1.467   0.592   4.903
 5467SOL    HW128432   1.419   0.506   4.920
 5467SOL    HW228433   1.418   0.643   4.832
 5468SOL     OW28434   6.574   4.283   0.390
 5468SOL    HW128435   6.549   4.229   0.310
 5468SOL    HW228436   6.553   4.231   0.473
 5469SOL     OW28437   3.806   2.511   5.399
 5469SOL    HW128438   3.842   2.604   5.387
 5469SOL    HW228439   3.807   2.464   5.311
 5470SOL     OW28440   5.414   6.119   6.528
 5470SOL    HW128441   5.512   6.118   6.548
 5470SOL    HW228442   5.365   6.066   6.597
 5471SOL     OW28443   4.128   7.443   0.611
 5471SOL    HW128444   4.203   7.502   0.640
 5471SOL    HW228445   4.165   7.362   0.566
 5472SOL     OW28446   6.960   2.280   0.405
 5472SOL    HW128447   6.883   2.307   0.464
 5472SOL    HW228448   7.046   2.296   0.453
 5473SOL     OW28449   3.459   7.686   6.767
 5473SOL    HW128450   3.393   7.699   6.841
 5473SOL    HW228451   3.505   7.598   6.780
 5474SOL     OW28452   3.901   1.079   6.034
 5474SOL    HW128453   3.938   1.025   6.110
 5474SOL    HW228454   3.801   1.067   6.030
 5475SOL     OW28455   1.262   2.447   1.424
 5475SOL    HW128456   1.196   2.509   1.383
 5475SOL    HW228457   1.236   2.428   1.519
 5476SOL     OW28458   1.519   2.385   6.450
 5476SOL    HW128459   1.500   2.471   6.498
 5476SOL    HW228460   1.451   2.317   6.477
 5477SOL     OW28461   2.841   2.915   6.463
 5477SOL    HW128462   2.832   3.010   6.492
 5477SOL    HW228463   2.757   2.865   6.487
 5478SOL     OW28464   6.462   5.149   5.754
 5478SOL    HW128465   6.407   5.082   5.704
 5478SOL    HW228466   6.510   5.208   5.690
 5479SOL     OW28467   5.816   0.050   6.482
 5479SOL    HW128468   5.758   0.095   6.551
 5479SOL    HW228469   5.908   0.039   6.519
 5480SOL     OW28470   2.173   3.906   6.090
 5480SOL    HW128471   2.241   3.877   6.023
 5480SOL    HW228472   2.127   3.825   6.127
 5481SOL     OW28473   1.517   7.167   5.718
 5481SOL    HW128474   1.510   7.261   5.752
 5481SOL    HW228475   1.471   7.160   5.629
 5482SOL     OW28476   2.525   0.847   5.930
 5482SOL    HW128477   2.517   0.913   5.855
 5482SOL    HW228478   2.596   0.878   5.993
 5483SOL     OW28479   5.754   1.141   1.581
 5483SOL    HW128480   5.696   1.213   1.619
 5483SOL    HW228481   5.703   1.055   1.581
 5484SOL     OW28482   6.021   5.019   1.909
 5484SOL    HW128483   6.067   5.106   1.893
 5484SOL    HW228484   6.016   5.002   2.008
 5485SOL     OW28485   8.195   8.191   5.718
 5485SOL    HW128486   8.294   8.204   5.719
 5485SOL    HW228487   8.156   8.235   5.637
 5486SOL     OW28488   6.999   2.386   1.337
 5486SOL    HW128489   7.027   2.364   1.244
 5486SOL    HW228490   6.914   2.338   1.359
 5487SOL     OW28491   6.764   7.773   0.625
 5487SOL    HW128492   6.674   7.816   0.635
 5487SOL    HW228493   6.832   7.843   0.608
 5488SOL     OW28494   2.450   2.471   6.310
 5488SOL    HW128495   2.396   2.410   6.367
 5488SOL    HW228496   2.537   2.492   6.357
 5489SOL     OW28497   8.781   6.694   4.781
 5489SOL    HW128498   8.835   6.725   4.702
 5489SOL    HW228499   8.751   6.600   4.767
 5490SOL     OW28500   8.472   7.600   6.352
 5490SOL    HW128501   8.474   7.524   6.287
 5490SOL    HW228502   8.423   7.572   6.435
 5491SOL     OW28503   7.006   1.176   6.092
 5491SOL    HW128504   7.087   1.203   6.039
 5491SOL    HW228505   6.939   1.134   6.030
 5492SOL     OW28506   1.219   0.879   0.600
 5492SOL    HW128507   1.178   0.955   0.549
 5492SOL    HW228508   1.304   0.851   0.555
 5493SOL     OW28509   7.010   4.259   5.471
 5493SOL    HW128510   7.016   4.276   5.372
 5493SOL    HW228511   6.987   4.164   5.487
 5494SOL     OW28512   9.395   4.078   6.462
 5494SOL    HW128513   9.319   4.132   6.499
 5494SOL    HW228514   9.381   4.063   6.364
 5495SOL     OW28515   2.455   4.890   5.160
 5495SOL    HW128516   2.549   4.870   5.131
 5495SOL    HW228517   2.392   4.831   5.109
 5496SOL     OW28518   9.333   6.229   5.115
 5496SOL    HW128519   9.381   6.255   5.031
 5496SOL    HW228520   9.237   6.209   5.094
 5497SOL     OW28521   1.004   4.845   5.308
 5497SOL    HW128522   1.089   4.800   5.333
 5497SOL    HW228523   0.970   4.807   5.222
 5498SOL     OW28524   4.605   0.140   2.139
 5498SOL    HW128525   4.555   0.220   2.107
 5498SOL    HW228526   4.677   0.169   2.202
 5499SOL     OW28527   5.059   6.425   5.487
 5499SOL    HW128528   5.143   6.377   5.512
 5499SOL    HW228529   5.001   6.364   5.432
 5500SOL     OW28530   0.668   4.551   1.404
 5500SOL    HW128531   0.699   4.486   1.474
 5500SOL    HW228532   0.701   4.642   1.427
 5501SOL     OW28533   3.998   7.395   5.322
 5501SOL    HW128534   4.006   7.432   5.230
 5501SOL    HW228535   4.015   7.297   5.320
 5502SOL     OW28536   2.225   4.592   6.240
 5502SOL    HW128537   2.184   4.592   6.331
 5502SOL    HW228538   2.254   4.685   6.216
 5503SOL     OW28539   8.013   1.744   1.628
 5503SOL    HW128540   7.997   1.663   1.686
 5503SOL    HW228541   8.085   1.800   1.668
 5504SOL     OW28542   7.864   1.795   6.218
 5504SOL    HW128543   7.871   1.866   6.288
 5504SOL    HW228544   7.862   1.705   6.263
 5505SOL     OW28545   6.718   7.250   0.297
 5505SOL    HW128546   6.759   7.159   0.291
 5505SOL    HW228547   6.657   7.264   0.219
 5506SOL     OW28548   6.090   1.778   6.770
 5506SOL    HW128549   6.171   1.818   6.814
 5506SOL    HW228550   6.085   1.809   6.675
 5507SOL     OW28551   5.741   5.922   1.086
 5507SOL    HW128552   5.709   6.014   1.065
 5507SOL    HW228553   5.833   5.926   1.125
 5508SOL     OW28554   7.093   2.039   6.395
 5508SOL    HW128555   7.090   1.975   6.472
 5508SOL    HW228556   7.117   1.990   6.311
 5509SOL     OW28557   1.001   3.147   6.534
 5509SOL    HW128558   1.014   3.049   6.547
 5509SOL    HW228559   0.930   3.180   6.598
 5510SOL     OW28560   5.801   7.107   5.512
 5510SOL    HW128561   5.798   7.186   5.450
 5510SOL    HW228562   5.897   7.084   5.530
 5511SOL     OW28563   1.567   4.784   0.454
 5511SOL    HW128564   1.547   4.770   0.357
 5511SOL    HW228565   1.649   4.840   0.463
 5512SOL     OW28566   4.167   6.988   1.400
 5512SOL    HW128567   4.110   6.922   1.352
 5512SOL    HW228568   4.180   7.069   1.343
 5513SOL     OW28569   4.240   1.751   5.716
 5513SOL    HW128570   4.309   1.689   5.678
 5513SOL    HW228571   4.167   1.764   5.649
 5514SOL     OW28572   4.254   7.134   6.903
 5514SOL    HW128573   4.340   7.086   6.886
 5514SOL    HW228574   4.219   7.171   6.817
 5515SOL     OW28575   2.404   0.143   2.031
 5515SOL    HW128576   2.372   0.198   2.108
 5515SOL    HW228577   2.436   0.055   2.064
 5516SOL     OW28578   0.284   5.878   0.322
 5516SOL    HW128579   0.239   5.794   0.292
 5516SOL    HW228580   0.380   5.860   0.341
 5517SOL     OW28581   1.319   7.319   1.155
 5517SOL    HW128582   1.285   7.279   1.240
 5517SOL    HW228583   1.243   7.329   1.090
 5518SOL     OW28584   6.208   5.241   0.710
 5518SOL    HW128585   6.243   5.251   0.616
 5518SOL    HW228586   6.187   5.331   0.747
 5519SOL     OW28587   7.646   6.928   0.775
 5519SOL    HW128588   7.615   6.963   0.863
 5519SOL    HW228589   7.739   6.893   0.784
 5520SOL     OW28590   7.518   8.253   1.080
 5520SOL    HW128591   7.470   8.280   1.164
 5520SOL    HW228592   7.479   8.302   1.002
 5521SOL     OW28593   1.182   1.747   1.973
 5521SOL    HW128594   1.163   1.782   1.881
 5521SOL    HW228595   1.240   1.812   2.022
 5522SOL     OW28596   1.159   1.914   6.148
 5522SOL    HW128597   1.183   2.003   6.187
 5522SOL    HW228598   1.198   1.906   6.056
 5523SOL     OW28599   4.822   3.122   0.611
 5523SOL    HW128600   4.820   3.096   0.707
 5523SOL    HW228601   4.885   3.198   0.598
 5524SOL     OW28602   7.032   6.212   6.621
 5524SOL    HW128603   7.040   6.232   6.719
 5524SOL    HW228604   6.937   6.192   6.599
 5525SOL     OW28605   7.530   0.293   6.578
 5525SOL    HW128606   7.431   0.291   6.562
 5525SOL    HW228607   7.562   0.201   6.602
 5526SOL     OW28608   2.466   6.971   5.421
 5526SOL    HW128609   2.407   7.046   5.393
 5526SOL    HW228610   2.544   6.964   5.358
 5527SOL     OW28611   6.106   1.200   5.743
 5527SOL    HW128612   6.041   1.141   5.694
 5527SOL    HW228613   6.195   1.154   5.749
 5528SOL     OW28614   6.046   2.992   5.727
 5528SOL    HW128615   5.999   2.904   5.718
 5528SOL    HW228616   6.007   3.057   5.661
 5529SOL     OW28617   8.140   2.565   6.467
 5529SOL    HW128618   8.202   2.575   6.390
 5529SOL    HW228619   8.179   2.611   6.547
 5530SOL     OW28620   0.641   0.813   0.922
 5530SOL    HW128621   0.695   0.873   0.863
 5530SOL    HW228622   0.590   0.748   0.865
 5531SOL     OW28623   6.839   5.538   0.496
 5531SOL    HW128624   6.813   5.458   0.551
 5531SOL    HW228625   6.872   5.508   0.407
 5532SOL     OW28626   6.680   0.100   1.027
 5532SOL    HW128627   6.757   0.094   1.090
 5532SOL    HW228628   6.651   0.008   1.001
 5533SOL     OW28629   1.148   6.333   5.499
 5533SOL    HW128630   1.243   6.360   5.511
 5533SOL    HW228631   1.135   6.241   5.536
 5534SOL     OW28632   1.146   7.396   0.960
 5534SOL    HW128633   1.056   7.353   0.959
 5534SOL    HW228634   1.173   7.419   0.866
 5535SOL     OW28635   5.909   1.718   2.234
 5535SOL    HW128636   5.969   1.643   2.259
 5535SOL    HW228637   5.814   1.687   2.235
 5536SOL     OW28638   0.964   5.128   1.181
 5536SOL    HW128639   1.031   5.119   1.255
 5536SOL    HW228640   1.006   5.099   1.095
 5537SOL     OW28641   8.992   1.530   1.238
 5537SOL    HW128642   8.965   1.626   1.245
 5537SOL    HW228643   8.916   1.471   1.266
 5538SOL     OW28644   9.531   7.725   6.602
 5538SOL    HW128645   9.486   7.755   6.686
 5538SOL    HW228646   9.540   7.803   6.539
 5539SOL     OW28647   0.897   4.487   0.481
 5539SOL    HW128648   0.833   4.485   0.558
 5539SOL    HW228649   0.889   4.402   0.430
 5540SOL     OW28650   5.567   7.837   6.015
 5540SOL    HW128651   5.493   7.874   5.959
 5540SOL    HW228652   5.637   7.908   6.028
 5541SOL     OW28653   3.448   8.230   1.172
 5541SOL    HW128654   3.356   8.236   1.211
 5541SOL    HW228655   3.479   8.321   1.144
 5542SOL     OW28656   0.949   1.348   6.682
 5542SOL    HW128657   0.925   1.439   6.646
 5542SOL    HW228658   1.047   1.332   6.669
 5543SOL     OW28659   1.285   2.408   0.702
 5543SOL    HW128660   1.283   2.507   0.718
 5543SOL    HW228661   1.375   2.372   0.727
 5544SOL     OW28662   2.895   7.445   1.141
 5544SOL    HW128663   2.960   7.403   1.205
 5544SOL    HW228664   2.834   7.506   1.191
 5545SOL     OW28665   1.103   6.014   0.457
 5545SOL    HW128666   1.036   6.056   0.518
 5545SOL    HW228667   1.076   6.027   0.362
 5546SOL     OW28668   1.803   6.396   0.979
 5546SOL    HW128669   1.792   6.445   0.893
 5546SOL    HW228670   1.713   6.376   1.018
 5547SOL     OW28671   1.552   8.325   0.346
 5547SOL    HW128672   1.478   8.324   0.279
 5547SOL    HW228673   1.534   8.256   0.417
 5548SOL     OW28674   2.932   5.473   5.756
 5548SOL    HW128675   2.929   5.448   5.660
 5548SOL    HW228676   2.993   5.410   5.805
 5549SOL     OW28677   9.459   7.494   5.051
 5549SOL    HW128678   9.460   7.578   5.105
 5549SOL    HW228679   9.365   7.459   5.045
 5550SOL     OW28680   8.173   6.509   0.569
 5550SOL    HW128681   8.160   6.432   0.632
 5550SOL    HW228682   8.119   6.493   0.486
 5551SOL     OW28683   1.169   7.911   1.357
 5551SOL    HW128684   1.152   7.932   1.453
 5551SOL    HW228685   1.232   7.833   1.351
 5552SOL     OW28686   4.014   6.319   1.298
 5552SOL    HW128687   3.957   6.249   1.342
 5552SOL    HW228688   4.106   6.282   1.282
 5553SOL     OW28689   6.110   7.671   5.741
 5553SOL    HW128690   6.034   7.609   5.761
 5553SOL    HW228691   6.121   7.679   5.642
 5554SOL     OW28692   2.189   8.010   0.607
 5554SOL    HW128693   2.178   7.920   0.564
 5554SOL    HW228694   2.285   8.037   0.602
 5555SOL     OW28695   5.008   8.118   5.155
 5555SOL    HW128696   4.954   8.202   5.169
 5555SOL    HW228697   4.950   8.038   5.169
 5556SOL     OW28698   5.373   7.182   6.663
 5556SOL    HW128699   5.384   7.092   6.704
 5556SOL    HW228700   5.279   7.193   6.632
 5557SOL     OW28701   5.067   5.468   5.693
 5557SOL    HW128702   5.062   5.399   5.620
 5557SOL    HW228703   5.106   5.552   5.657
 5558SOL     OW28704   7.782   4.853   0.343
 5558SOL    HW128705   7.858   4.793   0.368
 5558SOL    HW228706   7.802   4.899   0.257
 5559SOL     OW28707   7.940   0.547   6.187
 5559SOL    HW128708   7.945   0.448   6.171
 5559SOL    HW228709   7.859   0.584   6.142
 5560SOL     OW28710   4.322   0.362   6.482
 5560SOL    HW128711   4.256   0.292   6.454
 5560SOL    HW228712   4.373   0.394   6.402
 5561SOL     OW28713   2.744   1.014   0.265
 5561SOL    HW128714   2.728   1.063   0.351
 5561SOL    HW228715   2.656   0.983   0.228
 5562SOL     OW28716   0.980   6.403   1.093
 5562SOL    HW128717   0.908   6.432   1.029
 5562SOL    HW228718   0.997   6.475   1.160
 5563SOL     OW28719   0.591   7.430   4.630
 5563SOL    HW128720   0.639   7.518   4.632
 5563SOL    HW228721   0.518   7.434   4.562
 5564SOL     OW28722   6.347   6.943   1.057
 5564SOL    HW128723   6.299   6.857   1.040
 5564SOL    HW228724   6.317   7.011   0.990
 5565SOL     OW28725   7.082   7.162   6.769
 5565SOL    HW128726   7.056   7.258   6.763
 5565SOL    HW228727   7.107   7.140   6.864
 5566SOL     OW28728   5.612   5.273   6.626
 5566SOL    HW128729   5.620   5.298   6.722
 5566SOL    HW228730   5.625   5.174   6.616
 5567SOL     OW28731   5.298   7.423   1.461
 5567SOL    HW128732   5.365   7.424   1.535
 5567SOL    HW228733   5.247   7.337   1.463
 5568SOL     OW28734   7.247   1.575   6.111
 5568SOL    HW128735   7.168   1.568   6.050
 5568SOL    HW228736   7.328   1.595   6.057
 5569SOL     OW28737   1.226   1.689   0.378
 5569SOL    HW128738   1.146   1.660   0.431
 5569SOL    HW228739   1.269   1.768   0.423
 5570SOL     OW28740   5.520   6.587   2.283
 5570SOL    HW128741   5.453   6.655   2.313
 5570SOL    HW228742   5.611   6.615   2.313
 5571SOL     OW28743   6.996   4.160   1.204
 5571SOL    HW128744   6.931   4.174   1.278
 5571SOL    HW228745   7.022   4.248   1.164
 5572SOL     OW28746   5.458   1.330   6.879
 5572SOL    HW128747   5.459   1.275   6.962
 5572SOL    HW228748   5.422   1.421   6.900
 5573SOL     OW28749   5.325   0.191   1.557
 5573SOL    HW128750   5.320   0.282   1.598
 5573SOL    HW228751   5.316   0.122   1.628
 5574SOL     OW28752   8.769   1.489   5.919
 5574SOL    HW128753   8.702   1.449   5.980
 5574SOL    HW228754   8.723   1.527   5.839
 5575SOL     OW28755   1.228   1.776   0.757
 5575SOL    HW128756   1.254   1.771   0.661
 5575SOL    HW228757   1.297   1.730   0.813
 5576SOL     OW28758   3.599   8.324   6.102
 5576SOL    HW128759   3.532   8.363   6.166
 5576SOL    HW228760   3.689   8.323   6.146
 5577SOL     OW28761   6.443   6.510   6.594
 5577SOL    HW128762   6.409   6.434   6.649
 5577SOL    HW228763   6.526   6.481   6.545
 5578SOL     OW28764   9.528   5.782   6.897
 5578SOL    HW128765   9.551   5.880   6.892
 5578SOL    HW228766   9.512   5.757   6.993
 5579SOL     OW28767   4.758   4.305   0.847
 5579SOL    HW128768   4.822   4.297   0.923
 5579SOL    HW228769   4.797   4.365   0.777
 5580SOL     OW28770   7.278   6.625   1.983
 5580SOL    HW128771   7.339   6.563   2.033
 5580SOL    HW228772   7.224   6.678   2.048
 5581SOL     OW28773   4.918   7.631   0.637
 5581SOL    HW128774   4.991   7.610   0.702
 5581SOL    HW228775   4.934   7.721   0.596
 5582SOL     OW28776   2.756   4.667   0.454
 5582SOL    HW128777   2.828   4.599   0.443
 5582SOL    HW228778   2.747   4.720   0.369
 5583SOL     OW28779   3.094   5.304   5.879
 5583SOL    HW128780   3.134   5.212   5.870
 5583SOL    HW228781   3.134   5.350   5.958
 5584SOL     OW28782   2.720   2.756   6.187
 5584SOL    HW128783   2.726   2.676   6.126
 5584SOL    HW228784   2.695   2.726   6.279
 5585SOL     OW28785   2.007   4.797   0.648
 5585SOL    HW128786   2.035   4.764   0.558
 5585SOL    HW228787   1.966   4.888   0.639
 5586SOL     OW28788   9.089   6.777   0.882
 5586SOL    HW128789   9.014   6.832   0.918
 5586SOL    HW228790   9.176   6.818   0.910
 5587SOL     OW28791   0.797   7.273   1.239
 5587SOL    HW128792   0.793   7.335   1.160
 5587SOL    HW228793   0.705   7.239   1.259
 5588SOL     OW28794   5.293   2.475   6.662
 5588SOL    HW128795   5.384   2.456   6.697
 5588SOL    HW228796   5.228   2.407   6.697
 5589SOL     OW28797   2.611   4.687   1.321
 5589SOL    HW128798   2.562   4.661   1.238
 5589SOL    HW228799   2.579   4.776   1.353
 5590SOL     OW28800   2.159   5.061   6.382
 5590SOL    HW128801   2.118   5.152   6.383
 5590SOL    HW228802   2.117   5.006   6.310
 5591SOL     OW28803   3.076   6.968   1.298
 5591SOL    HW128804   3.148   7.036   1.312
 5591SOL    HW228805   3.038   6.942   1.387
 5592SOL     OW28806   4.475   1.223   0.653
 5592SOL    HW128807   4.543   1.253   0.586
 5592SOL    HW228808   4.396   1.285   0.651
 5593SOL     OW28809   9.582   5.483   4.924
 5593SOL    HW128810   9.650   5.517   4.988
 5593SOL    HW228811   9.620   5.481   4.831
 5594SOL     OW28812   5.402   6.922   6.825
 5594SOL    HW128813   5.384   6.844   6.765
 5594SOL    HW228814   5.500   6.927   6.845
 5595SOL     OW28815   6.197   8.080   6.798
 5595SOL    HW128816   6.156   7.990   6.813
 5595SOL    HW228817   6.274   8.092   6.860
 5596SOL     OW28818   9.543   2.177   5.484
 5596SOL    HW128819   9.484   2.166   5.404
 5596SOL    HW228820   9.624   2.118   5.475
 5597SOL     OW28821   3.780   4.136   0.404
 5597SOL    HW128822   3.691   4.092   0.417
 5597SOL    HW228823   3.775   4.198   0.326
 5598SOL     OW28824   2.417   5.611   5.144
 5598SOL    HW128825   2.510   5.602   5.107
 5598SOL    HW228826   2.401   5.707   5.169
 5599SOL     OW28827   2.621   6.237   6.248
 5599SOL    HW128828   2.603   6.277   6.158
 5599SOL    HW228829   2.575   6.149   6.255
 5600SOL     OW28830   2.907   7.211   1.826
 5600SOL    HW128831   2.916   7.267   1.744
 5600SOL    HW228832   2.872   7.268   1.901
 5601SOL     OW28833   3.233   2.286   5.840
 5601SOL    HW128834   3.229   2.196   5.797
 5601SOL    HW228835   3.226   2.357   5.769
 5602SOL     OW28836   9.409   0.802   0.988
 5602SOL    HW128837   9.390   0.796   1.086
 5602SOL    HW228838   9.400   0.711   0.947
 5603SOL     OW28839   4.253   4.575   6.586
 5603SOL    HW128840   4.216   4.638   6.517
 5603SOL    HW228841   4.180   4.549   6.650
 5604SOL     OW28842   3.469   6.017   1.184
 5604SOL    HW128843   3.444   6.061   1.271
 5604SOL    HW228844   3.406   6.044   1.113
 5605SOL     OW28845   3.206   2.902   1.583
 5605SOL    HW128846   3.152   2.883   1.665
 5605SOL    HW228847   3.303   2.887   1.603
 5606SOL     OW28848   7.427   6.474   5.211
 5606SOL    HW128849   7.494   6.507   5.146
 5606SOL    HW228850   7.345   6.444   5.162
 5607SOL     OW28851   2.188   6.109   0.627
 5607SOL    HW128852   2.201   6.072   0.534
 5607SOL    HW228853   2.258   6.178   0.645
 5608SOL     OW28854   6.942   5.196   5.334
 5608SOL    HW128855   6.940   5.278   5.390
 5608SOL    HW228856   7.014   5.205   5.264
 5609SOL     OW28857   4.266   7.579   6.810
 5609SOL    HW128858   4.190   7.514   6.820
 5609SOL    HW228859   4.261   7.648   6.882
 5610SOL     OW28860   1.897   8.391   1.478
 5610SOL    HW128861   1.984   8.342   1.477
 5610SOL    HW228862   1.822   8.324   1.470
 5611SOL     OW28863   0.815   3.232   5.919
 5611SOL    HW128864   0.884   3.227   5.992
 5611SOL    HW228865   0.812   3.144   5.871
 5612SOL     OW28866   0.686   7.312   4.101
 5612SOL    HW128867   0.782   7.314   4.129
 5612SOL    HW228868   0.635   7.382   4.151
 5613SOL     OW28869   5.510   1.828   1.798
 5613SOL    HW128870   5.459   1.912   1.777
 5613SOL    HW228871   5.446   1.751   1.800
 5614SOL     OW28872   3.688   2.431   6.185
 5614SOL    HW128873   3.623   2.411   6.258
 5614SOL    HW228874   3.663   2.379   6.103
 5615SOL     OW28875   2.771   4.341   0.424
 5615SOL    HW128876   2.703   4.291   0.479
 5615SOL    HW228877   2.729   4.367   0.337
 5616SOL     OW28878   6.481   2.601   6.100
 5616SOL    HW128879   6.400   2.542   6.098
 5616SOL    HW228880   6.562   2.549   6.075
 5617SOL     OW28881   5.971   4.847   0.761
 5617SOL    HW128882   6.009   4.932   0.797
 5617SOL    HW228883   5.991   4.772   0.823
 5618SOL     OW28884   6.094   8.377   0.889
 5618SOL    HW128885   6.006   8.422   0.873
 5618SOL    HW228886   6.079   8.282   0.914
 5619SOL     OW28887   5.413   1.477   1.109
 5619SOL    HW128888   5.424   1.378   1.113
 5619SOL    HW228889   5.460   1.513   1.029
 5620SOL     OW28890   1.181   2.431   6.622
 5620SOL    HW128891   1.193   2.441   6.721
 5620SOL    HW228892   1.244   2.361   6.588
 5621SOL     OW28893   1.802   4.581   6.099
 5621SOL    HW128894   1.729   4.600   6.164
 5621SOL    HW228895   1.778   4.619   6.009
 5622SOL     OW28896   3.549   7.421   6.732
 5622SOL    HW128897   3.471   7.393   6.676
 5622SOL    HW228898   3.562   7.355   6.806
 5623SOL     OW28899   1.278   2.796   0.227
 5623SOL    HW128900   1.312   2.854   0.153
 5623SOL    HW228901   1.352   2.739   0.261
 5624SOL     OW28902   3.150   7.785   5.510
 5624SOL    HW128903   3.241   7.827   5.509
 5624SOL    HW228904   3.110   7.792   5.419
 5625SOL     OW28905   0.360   2.354   5.715
 5625SOL    HW128906   0.311   2.279   5.759
 5625SOL    HW228907   0.455   2.329   5.702
 5626SOL     OW28908   0.368   8.113   0.840
 5626SOL    HW128909   0.348   8.126   0.743
 5626SOL    HW228910   0.351   8.018   0.865
 5627SOL     OW28911   1.923   3.458   5.496
 5627SOL    HW128912   1.945   3.416   5.584
 5627SOL    HW228913   1.939   3.392   5.423
 5628SOL     OW28914   7.834   1.552   0.356
 5628SOL    HW128915   7.747   1.601   0.345
 5628SOL    HW228916   7.906   1.616   0.381
 5629SOL     OW28917   3.135   4.289   6.119
 5629SOL    HW128918   3.160   4.252   6.209
 5629SOL    HW228919   3.151   4.219   6.049
 5630SOL     OW28920   3.234   4.140   6.353
 5630SOL    HW128921   3.171   4.071   6.387
 5630SOL    HW228922   3.257   4.204   6.426
 5631SOL     OW28923   5.287   3.204   1.629
 5631SOL    HW128924   5.260   3.242   1.717
 5631SOL    HW228925   5.373   3.155   1.639
 5632SOL     OW28926   1.938   2.149   6.558
 5632SOL    HW128927   1.893   2.217   6.501
 5632SOL    HW228928   1.941   2.180   6.653
 5633SOL     OW28929   4.012   6.710   1.587
 5633SOL    HW128930   4.016   6.634   1.652
 5633SOL    HW228931   4.024   6.674   1.494
 5634SOL     OW28932   1.250   5.313   0.622
 5634SOL    HW128933   1.276   5.244   0.690
 5634SOL    HW228934   1.200   5.387   0.666
 5635SOL     OW28935   7.635   0.822   0.692
 5635SOL    HW128936   7.701   0.756   0.729
 5635SOL    HW228937   7.656   0.913   0.727
 5636SOL     OW28938   5.363   2.343   2.121
 5636SOL    HW128939   5.457   2.334   2.155
 5636SOL    HW228940   5.300   2.351   2.198
 5637SOL     OW28941   2.578   2.890   5.792
 5637SOL    HW128942   2.569   2.854   5.699
 5637SOL    HW228943   2.666   2.937   5.801
 5638SOL     OW28944   3.372   3.587   0.916
 5638SOL    HW128945   3.358   3.560   0.820
 5638SOL    HW228946   3.469   3.586   0.937
 5639SOL     OW28947   5.249   8.125   6.702
 5639SOL    HW128948   5.342   8.112   6.668
 5639SOL    HW228949   5.223   8.221   6.691
 5640SOL     OW28950   5.302   4.891   5.750
 5640SOL    HW128951   5.344   4.979   5.773
 5640SOL    HW228952   5.209   4.905   5.716
 5641SOL     OW28953   8.313   1.034   6.848
 5641SOL    HW128954   8.373   0.973   6.796
 5641SOL    HW228955   8.345   1.037   6.943
 5642SOL     OW28956   3.429   0.369   0.728
 5642SOL    HW128957   3.416   0.271   0.716
 5642SOL    HW228958   3.385   0.418   0.653
 5643SOL     OW28959   3.354   7.713   6.520
 5643SOL    HW128960   3.389   7.690   6.611
 5643SOL    HW228961   3.303   7.635   6.484
 5644SOL     OW28962   6.576   7.208   5.475
 5644SOL    HW128963   6.480   7.188   5.497
 5644SOL    HW228964   6.607   7.146   5.403
 5645SOL     OW28965   3.694   5.259   1.533
 5645SOL    HW128966   3.729   5.352   1.520
 5645SOL    HW228967   3.671   5.245   1.629
 5646SOL     OW28968   9.080   2.109   5.266
 5646SOL    HW128969   8.985   2.124   5.241
 5646SOL    HW228970   9.098   2.149   5.356
 5647SOL     OW28971   6.457   8.176   6.524
 5647SOL    HW128972   6.384   8.232   6.564
 5647SOL    HW228973   6.545   8.207   6.559
 5648SOL     OW28974   2.342   0.641   5.967
 5648SOL    HW128975   2.335   0.592   5.880
 5648SOL    HW228976   2.422   0.701   5.965
 5649SOL     OW28977   4.250   3.762   6.683
 5649SOL    HW128978   4.280   3.672   6.714
 5649SOL    HW228979   4.278   3.777   6.588
 5650SOL     OW28980   2.557   2.628   5.240
 5650SOL    HW128981   2.656   2.640   5.243
 5650SOL    HW228982   2.519   2.680   5.163
 5651SOL     OW28983   2.021   0.011   6.448
 5651SOL    HW128984   2.055   0.074   6.517
 5651SOL    HW228985   2.089   0.002   6.375
 5652SOL     OW28986   5.479   8.243   2.312
 5652SOL    HW128987   5.578   8.248   2.323
 5652SOL    HW228988   5.438   8.331   2.335
 5653SOL     OW28989   9.121   2.862   0.692
 5653SOL    HW128990   9.087   2.956   0.689
 5653SOL    HW228991   9.064   2.805   0.632
 5654SOL     OW28992   3.512   6.792   5.987
 5654SOL    HW128993   3.494   6.695   5.971
 5654SOL    HW228994   3.432   6.846   5.961
 5655SOL     OW28995   5.351   2.034   0.945
 5655SOL    HW128996   5.331   2.120   0.992
 5655SOL    HW228997   5.357   1.960   1.013
 5656SOL     OW28998   6.724   1.799   1.798
 5656SOL    HW128999   6.710   1.801   1.896
 5656SOL    HW229000   6.647   1.753   1.754
 5657SOL     OW29001   4.128   0.462   0.451
 5657SOL    HW129002   4.223   0.485   0.432
 5657SOL    HW229003   4.112   0.366   0.428
 5658SOL     OW29004   6.940   7.140   1.916
 5658SOL    HW129005   6.900   7.050   1.901
 5658SOL    HW229006   7.016   7.133   1.982
 5659SOL     OW29007   8.300   4.315   5.860
 5659SOL    HW129008   8.242   4.234   5.849
 5659SOL    HW229009   8.387   4.288   5.900
 5660SOL     OW29010   1.356   7.919   6.460
 5660SOL    HW129011   1.389   7.933   6.367
 5660SOL    HW229012   1.411   7.848   6.504
 5661SOL     OW29013   6.115   7.546   6.849
 5661SOL    HW129014   6.088   7.491   6.928
 5661SOL    HW229015   6.098   7.493   6.765
 5662SOL     OW29016   5.313   0.926   6.629
 5662SOL    HW129017   5.411   0.946   6.634
 5662SOL    HW229018   5.277   0.915   6.722
 5663SOL     OW29019   2.790   4.958   6.604
 5663SOL    HW129020   2.823   4.925   6.693
 5663SOL    HW229021   2.757   5.052   6.613
 5664SOL     OW29022   6.428   3.849   1.259
 5664SOL    HW129023   6.470   3.929   1.218
 5664SOL    HW229024   6.347   3.823   1.207
 5665SOL     OW29025   4.392   3.145   0.940
 5665SOL    HW129026   4.365   3.180   1.030
 5665SOL    HW229027   4.325   3.174   0.872
 5666SOL     OW29028   6.703   0.539   1.533
 5666SOL    HW129029   6.786   0.484   1.534
 5666SOL    HW229030   6.659   0.537   1.622
 5667SOL     OW29031   6.070   4.417   1.523
 5667SOL    HW129032   6.120   4.464   1.596
 5667SOL    HW229033   6.091   4.319   1.527
 5668SOL     OW29034   3.298   2.513   6.015
 5668SOL    HW129035   3.246   2.430   5.994
 5668SOL    HW229036   3.284   2.580   5.942
 5669SOL     OW29037   1.412   3.170   6.688
 5669SOL    HW129038   1.439   3.108   6.614
 5669SOL    HW229039   1.332   3.134   6.735
 5670SOL     OW29040   1.788   4.566   0.360
 5670SOL    HW129041   1.833   4.636   0.303
 5670SOL    HW229042   1.729   4.611   0.427
 5671SOL     OW29043   0.491   5.776   0.993
 5671SOL    HW129044   0.525   5.788   0.900
 5671SOL    HW229045   0.567   5.751   1.053
 5672SOL     OW29046   8.288   1.090   0.688
 5672SOL    HW129047   8.200   1.124   0.654
 5672SOL    HW229048   8.335   1.163   0.737
 5673SOL     OW29049   4.556   1.550   0.451
 5673SOL    HW129050   4.485   1.619   0.460
 5673SOL    HW229051   4.643   1.595   0.427
 5674SOL     OW29052   8.579   3.238   5.938
 5674SOL    HW129053   8.513   3.170   5.905
 5674SOL    HW229054   8.610   3.213   6.029
 5675SOL     OW29055   0.687   0.821   5.307
 5675SOL    HW129056   0.676   0.903   5.252
 5675SOL    HW229057   0.628   0.748   5.270
 5676SOL     OW29058   1.859   2.614   5.393
 5676SOL    HW129059   1.861   2.530   5.340
 5676SOL    HW229060   1.914   2.684   5.347
 5677SOL     OW29061   6.887   4.221   0.381
 5677SOL    HW129062   6.868   4.125   0.403
 5677SOL    HW229063   6.806   4.262   0.338
 5678SOL     OW29064   7.456   5.796   6.262
 5678SOL    HW129065   7.381   5.857   6.288
 5678SOL    HW229066   7.501   5.761   6.344
 5679SOL     OW29067   0.759   2.499   6.796
 5679SOL    HW129068   0.669   2.520   6.759
 5679SOL    HW229069   0.768   2.538   6.888
 5680SOL     OW29070   8.355   7.976   6.795
 5680SOL    HW129071   8.296   8.022   6.728
 5680SOL    HW229072   8.438   7.943   6.749
 5681SOL     OW29073   8.279   3.521   6.168
 5681SOL    HW129074   8.286   3.453   6.096
 5681SOL    HW229075   8.236   3.604   6.132
 5682SOL     OW29076   2.294   3.869   1.002
 5682SOL    HW129077   2.261   3.963   1.013
 5682SOL    HW229078   2.294   3.845   0.905
 5683SOL     OW29079   0.757   2.290   1.194
 5683SOL    HW129080   0.729   2.207   1.243
 5683SOL    HW229081   0.691   2.363   1.212
 5684SOL     OW29082   5.299   7.043   1.193
 5684SOL    HW129083   5.389   7.032   1.150
 5684SOL    HW229084   5.229   7.054   1.122
 5685SOL     OW29085   3.627   2.968   0.555
 5685SOL    HW129086   3.717   2.933   0.580
 5685SOL    HW229087   3.599   3.037   0.622
 5686SOL     OW29088   2.516   5.913   1.038
 5686SOL    HW129089   2.532   5.822   1.000
 5686SOL    HW229090   2.550   5.917   1.132
 5687SOL     OW29091   6.338   4.236   5.744
 5687SOL    HW129092   6.376   4.297   5.814
 5687SOL    HW229093   6.349   4.141   5.773
 5688SOL     OW29094   3.119   0.602   6.039
 5688SOL    HW129095   3.132   0.518   6.092
 5688SOL    HW229096   3.185   0.671   6.068
 5689SOL     OW29097   6.357   2.010   6.150
 5689SOL    HW129098   6.389   1.917   6.171
 5689SOL    HW229099   6.432   2.061   6.108
 5690SOL     OW29100   6.608   3.690   0.429
 5690SOL    HW129101   6.560   3.661   0.512
 5690SOL    HW229102   6.570   3.777   0.397
 5691SOL     OW29103   3.846   0.018   6.490
 5691SOL    HW129104   3.896  -0.061   6.524
 5691SOL    HW229105   3.837   0.012   6.390
 5692SOL     OW29106   7.848   7.721   6.870
 5692SOL    HW129107   7.885   7.694   6.960
 5692SOL    HW229108   7.776   7.789   6.883
 5693SOL     OW29109   2.493   1.376   5.787
 5693SOL    HW129110   2.433   1.448   5.752
 5693SOL    HW229111   2.503   1.304   5.718
 5694SOL     OW29112   4.422   4.803   2.060
 5694SOL    HW129113   4.508   4.753   2.048
 5694SOL    HW229114   4.437   4.880   2.123
 5695SOL     OW29115   7.547   6.028   6.079
 5695SOL    HW129116   7.483   6.038   6.003
 5695SOL    HW229117   7.515   5.956   6.140
 5696SOL     OW29118   7.931   4.664   1.290
 5696SOL    HW129119   8.009   4.602   1.284
 5696SOL    HW229120   7.912   4.685   1.386
 5697SOL     OW29121   4.600   3.750   6.711
 5697SOL    HW129122   4.533   3.698   6.657
 5697SOL    HW229123   4.605   3.843   6.676
 5698SOL     OW29124   5.616   4.995   6.695
 5698SOL    HW129125   5.601   4.925   6.625
 5698SOL    HW229126   5.639   4.951   6.782
 5699SOL     OW29127   3.875   3.822   6.927
 5699SOL    HW129128   3.808   3.895   6.929
 5699SOL    HW229129   3.864   3.769   6.842
 5700SOL     OW29130   5.746   2.167   0.277
 5700SOL    HW129131   5.832   2.207   0.308
 5700SOL    HW229132   5.752   2.067   0.283
 5701SOL     OW29133   5.810   4.463   6.834
 5701SOL    HW129134   5.727   4.518   6.821
 5701SOL    HW229135   5.840   4.470   6.929
 5702SOL     OW29136   8.225   0.182   0.672
 5702SOL    HW129137   8.205   0.113   0.742
 5702SOL    HW229138   8.159   0.256   0.679
 5703SOL     OW29139   7.192   1.270   5.910
 5703SOL    HW129140   7.212   1.236   5.818
 5703SOL    HW229141   7.161   1.365   5.904
 5704SOL     OW29142   4.016   7.483   6.528
 5704SOL    HW129143   3.976   7.489   6.437
 5704SOL    HW229144   3.944   7.495   6.597
 5705SOL     OW29145   8.901   6.297   6.361
 5705SOL    HW129146   8.809   6.335   6.374
 5705SOL    HW229147   8.946   6.287   6.450
 5706SOL     OW29148   1.020   0.025   6.911
 5706SOL    HW129149   0.994   0.122   6.906
 5706SOL    HW229150   1.089   0.005   6.841
 5707SOL     OW29151   0.250   5.801   6.302
 5707SOL    HW129152   0.280   5.744   6.225
 5707SOL    HW229153   0.176   5.754   6.351
 5708SOL     OW29154   5.915   0.920   0.938
 5708SOL    HW129155   5.869   0.888   1.020
 5708SOL    HW229156   5.959   1.008   0.957
 5709SOL     OW29157   2.778   3.673   6.125
 5709SOL    HW129158   2.727   3.755   6.150
 5709SOL    HW229159   2.876   3.689   6.138
 5710SOL     OW29160   2.709   7.738   6.441
 5710SOL    HW129161   2.666   7.669   6.500
 5710SOL    HW229162   2.638   7.799   6.404
 5711SOL     OW29163   1.757   7.097   0.879
 5711SOL    HW129164   1.702   7.120   0.959
 5711SOL    HW229165   1.726   7.009   0.842
 5712SOL     OW29166   4.036   3.246   5.954
 5712SOL    HW129167   3.956   3.239   5.895
 5712SOL    HW229168   4.102   3.174   5.930
 5713SOL     OW29169   1.057   4.443   1.160
 5713SOL    HW129170   1.053   4.387   1.243
 5713SOL    HW229171   0.977   4.502   1.157
 5714SOL     OW29172   2.996   5.796   6.744
 5714SOL    HW129173   3.026   5.867   6.808
 5714SOL    HW229174   2.908   5.822   6.704
 5715SOL     OW29175   3.893   4.019   5.957
 5715SOL    HW129176   3.846   3.931   5.954
 5715SOL    HW229177   3.842   4.087   5.905
 5716SOL     OW29178   7.538   1.717   0.675
 5716SOL    HW129179   7.543   1.665   0.760
 5716SOL    HW229180   7.617   1.779   0.670
 5717SOL     OW29181   6.262   5.362   6.513
 5717SOL    HW129182   6.274   5.345   6.415
 5717SOL    HW229183   6.288   5.280   6.565
 5718SOL     OW29184   6.227   0.917   0.262
 5718SOL    HW129185   6.141   0.968   0.264
 5718SOL    HW229186   6.214   0.832   0.212
 5719SOL     OW29187   1.338   6.566   5.710
 5719SOL    HW129188   1.306   6.641   5.651
 5719SOL    HW229189   1.373   6.492   5.653
 5720SOL     OW29190   1.572   5.444   1.657
 5720SOL    HW129191   1.604   5.512   1.723
 5720SOL    HW229192   1.616   5.356   1.675
 5721SOL     OW29193   0.964   5.125   5.599
 5721SOL    HW129194   1.014   5.210   5.620
 5721SOL    HW229195   1.017   5.047   5.631
 5722SOL     OW29196   3.969   0.895   1.869
 5722SOL    HW129197   4.068   0.886   1.864
 5722SOL    HW229198   3.936   0.857   1.955
 5723SOL     OW29199   4.225   1.003   6.224
 5723SOL    HW129200   4.218   1.044   6.315
 5723SOL    HW229201   4.315   1.022   6.185
 5724SOL     OW29202   8.572   2.118   5.818
 5724SOL    HW129203   8.519   2.127   5.901
 5724SOL    HW229204   8.522   2.062   5.752
 5725SOL     OW29205   1.844   0.832   5.132
 5725SOL    HW129206   1.783   0.810   5.056
 5725SOL    HW229207   1.915   0.762   5.139
 5726SOL     OW29208   5.896   6.813   6.758
 5726SOL    HW129209   5.896   6.722   6.797
 5726SOL    HW229210   5.860   6.810   6.665
 5727SOL     OW29211   6.383   5.704   5.536
 5727SOL    HW129212   6.337   5.632   5.484
 5727SOL    HW229213   6.329   5.725   5.617
 5728SOL     OW29214   5.808   0.120   1.063
 5728SOL    HW129215   5.793   0.150   0.969
 5728SOL    HW229216   5.772   0.188   1.126
 5729SOL     OW29217   7.897   5.319   5.352
 5729SOL    HW129218   7.929   5.229   5.322
 5729SOL    HW229219   7.893   5.380   5.273
 5730SOL     OW29220   1.831   5.522   6.545
 5730SOL    HW129221   1.817   5.499   6.448
 5730SOL    HW229222   1.908   5.585   6.553
 5731SOL     OW29223   0.990   7.365   0.402
 5731SOL    HW129224   1.017   7.288   0.345
 5731SOL    HW229225   0.976   7.334   0.496
 5732SOL     OW29226   3.106   0.243   1.632
 5732SOL    HW129227   3.010   0.258   1.607
 5732SOL    HW229228   3.135   0.153   1.600
 5733SOL     OW29229   6.108   3.497   1.318
 5733SOL    HW129230   6.205   3.517   1.304
 5733SOL    HW229231   6.086   3.505   1.415
 5734SOL     OW29232   9.136   4.210   1.292
 5734SOL    HW129233   9.048   4.204   1.244
 5734SOL    HW229234   9.196   4.275   1.244
 5735SOL     OW29235   2.915   3.051   0.932
 5735SOL    HW129236   2.880   3.100   0.852
 5735SOL    HW229237   2.975   3.111   0.985
 5736SOL     OW29238   2.150   0.494   0.344
 5736SOL    HW129239   2.203   0.552   0.406
 5736SOL    HW229240   2.155   0.532   0.252
 5737SOL     OW29241   3.170   0.774   2.441
 5737SOL    HW129242   3.268   0.771   2.460
 5737SOL    HW229243   3.126   0.841   2.501
 5738SOL     OW29244   3.333   6.457   6.413
 5738SOL    HW129245   3.235   6.449   6.427
 5738SOL    HW229246   3.367   6.537   6.462
 5739SOL     OW29247   6.151   7.504   1.861
 5739SOL    HW129248   6.241   7.489   1.901
 5739SOL    HW229249   6.085   7.525   1.934
 5740SOL     OW29250   8.083   6.866   1.677
 5740SOL    HW129251   8.096   6.965   1.673
 5740SOL    HW229252   8.000   6.845   1.730
 5741SOL     OW29253   3.845   3.655   6.714
 5741SOL    HW129254   3.843   3.558   6.734
 5741SOL    HW229255   3.939   3.682   6.690
 5742SOL     OW29256   2.668   0.558   5.989
 5742SOL    HW129257   2.583   0.506   5.978
 5742SOL    HW229258   2.664   0.641   5.933
 5743SOL     OW29259   4.711   4.936   1.275
 5743SOL    HW129260   4.788   4.871   1.281
 5743SOL    HW229261   4.747   5.029   1.270
 5744SOL     OW29262   0.367   7.346   6.711
 5744SOL    HW129263   0.286   7.367   6.656
 5744SOL    HW229264   0.430   7.423   6.709
 5745SOL     OW29265   1.345   3.947   1.025
 5745SOL    HW129266   1.338   4.046   1.040
 5745SOL    HW229267   1.310   3.899   1.106
 5746SOL     OW29268   7.543   7.076   6.123
 5746SOL    HW129269   7.626   7.122   6.154
 5746SOL    HW229270   7.480   7.065   6.200
 5747SOL     OW29271   5.780   5.259   1.305
 5747SOL    HW129272   5.795   5.348   1.260
 5747SOL    HW229273   5.764   5.273   1.402
 5748SOL     OW29274   5.981   7.454   5.560
 5748SOL    HW129275   5.896   7.456   5.507
 5748SOL    HW229276   6.049   7.513   5.516
 5749SOL     OW29277   3.601   4.835   6.207
 5749SOL    HW129278   3.574   4.784   6.125
 5749SOL    HW229279   3.519   4.869   6.254
 5750SOL     OW29280   3.915   6.247   6.498
 5750SOL    HW129281   4.002   6.239   6.450
 5750SOL    HW229282   3.922   6.205   6.588
 5751SOL     OW29283   2.751   4.515   5.951
 5751SOL    HW129284   2.844   4.497   5.920
 5751SOL    HW229285   2.707   4.429   5.977
 5752SOL     OW29286   8.545   7.290   5.660
 5752SOL    HW129287   8.539   7.387   5.639
 5752SOL    HW229288   8.627   7.251   5.618
 5753SOL     OW29289   2.555   0.287   1.238
 5753SOL    HW129290   2.536   0.258   1.144
 5753SOL    HW229291   2.481   0.346   1.270
 5754SOL     OW29292   3.759   2.342   5.147
 5754SOL    HW129293   3.803   2.302   5.067
 5754SOL    HW229294   3.661   2.351   5.129
 5755SOL     OW29295   3.183   0.207   5.476
 5755SOL    HW129296   3.234   0.246   5.553
 5755SOL    HW229297   3.187   0.108   5.481
 5756SOL     OW29298   0.163   6.587   0.970
 5756SOL    HW129299   0.213   6.638   1.040
 5756SOL    HW229300   0.203   6.496   0.960
 5757SOL     OW29301   5.160   7.821   0.564
 5757SOL    HW129302   5.200   7.729   0.570
 5757SOL    HW229303   5.228   7.885   0.531
 5758SOL     OW29304   0.806   2.859   0.203
 5758SOL    HW129305   0.758   2.771   0.207
 5758SOL    HW229306   0.829   2.888   0.296
 5759SOL     OW29307   8.765   3.093   1.189
 5759SOL    HW129308   8.805   3.010   1.150
 5759SOL    HW229309   8.825   3.128   1.261
 5760SOL     OW29310   8.428   5.267   0.547
 5760SOL    HW129311   8.506   5.326   0.526
 5760SOL    HW229312   8.344   5.312   0.519
 5761SOL     OW29313   4.089   3.688   6.124
 5761SOL    HW129314   4.136   3.602   6.104
 5761SOL    HW229315   4.152   3.749   6.173
 5762SOL     OW29316   0.366   6.390   6.812
 5762SOL    HW129317   0.375   6.396   6.911
 5762SOL    HW229318   0.281   6.434   6.784
 5763SOL     OW29319   8.386   8.346   6.616
 5763SOL    HW129320   8.349   8.342   6.523
 5763SOL    HW229321   8.394   8.441   6.644
 5764SOL     OW29322   1.596   7.827   1.341
 5764SOL    HW129323   1.655   7.893   1.295
 5764SOL    HW229324   1.577   7.858   1.434
 5765SOL     OW29325   1.794   2.870   0.616
 5765SOL    HW129326   1.853   2.947   0.591
 5765SOL    HW229327   1.841   2.811   0.682
 5766SOL     OW29328   9.082   5.702   5.729
 5766SOL    HW129329   9.094   5.801   5.730
 5766SOL    HW229330   9.134   5.662   5.805
 5767SOL     OW29331   2.291   5.009   5.320
 5767SOL    HW129332   2.220   4.939   5.315
 5767SOL    HW229333   2.367   4.984   5.259
 5768SOL     OW29334   2.566   4.152   1.614
 5768SOL    HW129335   2.507   4.071   1.624
 5768SOL    HW229336   2.661   4.124   1.608
 5769SOL     OW29337   6.509   7.040   6.039
 5769SOL    HW129338   6.493   7.072   6.132
 5769SOL    HW229339   6.601   7.066   6.010
 5770SOL     OW29340   7.457   0.079   0.790
 5770SOL    HW129341   7.468  -0.019   0.806
 5770SOL    HW229342   7.543   0.125   0.810
 5771SOL     OW29343   0.495  -0.007   0.266
 5771SOL    HW129344   0.436  -0.052   0.199
 5771SOL    HW229345   0.440   0.058   0.320
 5772SOL     OW29346   8.842   6.084   4.929
 5772SOL    HW129347   8.919   6.143   4.906
 5772SOL    HW229348   8.871   6.017   4.998
 5773SOL     OW29349   8.188   1.500   0.217
 5773SOL    HW129350   8.126   1.450   0.157
 5773SOL    HW229351   8.264   1.537   0.163
 5774SOL     OW29352   6.330   1.675   5.807
 5774SOL    HW129353   6.290   1.765   5.790
 5774SOL    HW229354   6.256   1.607   5.814
 5775SOL     OW29355   4.585   2.650   6.451
 5775SOL    HW129356   4.530   2.612   6.377
 5775SOL    HW229357   4.660   2.705   6.413
 5776SOL     OW29358   2.940   4.349   5.808
 5776SOL    HW129359   2.868   4.299   5.760
 5776SOL    HW229360   3.028   4.306   5.789
 5777SOL     OW29361   7.280   4.695   1.127
 5777SOL    HW129362   7.289   4.618   1.190
 5777SOL    HW229363   7.366   4.745   1.123
 5778SOL     OW29364   3.537   5.248   0.238
 5778SOL    HW129365   3.545   5.341   0.273
 5778SOL    HW229366   3.449   5.237   0.193
 5779SOL     OW29367   4.633   7.043   1.108
 5779SOL    HW129368   4.567   7.092   1.165
 5779SOL    HW229369   4.597   6.952   1.088
 5780SOL     OW29370   0.564   1.601   0.343
 5780SOL    HW129371   0.522   1.606   0.434
 5780SOL    HW229372   0.614   1.686   0.325
 5781SOL     OW29373   2.025   6.526   1.467
 5781SOL    HW129374   2.085   6.592   1.422
 5781SOL    HW229375   1.995   6.457   1.401
 5782SOL     OW29376   7.264   7.895   5.630
 5782SOL    HW129377   7.334   7.962   5.658
 5782SOL    HW229378   7.235   7.916   5.537
 5783SOL     OW29379   2.013   0.716   6.723
 5783SOL    HW129380   1.993   0.806   6.760
 5783SOL    HW229381   1.998   0.716   6.624
 5784SOL     OW29382   7.328   6.145   1.873
 5784SOL    HW129383   7.376   6.058   1.871
 5784SOL    HW229384   7.379   6.213   1.820
 5785SOL     OW29385   7.412   0.504   0.617
 5785SOL    HW129386   7.339   0.549   0.668
 5785SOL    HW229387   7.498   0.551   0.635
 5786SOL     OW29388   7.922   5.592   6.318
 5786SOL    HW129389   7.937   5.496   6.341
 5786SOL    HW229390   7.884   5.599   6.226
 5787SOL     OW29391   4.753   4.036   1.047
 5787SOL    HW129392   4.825   4.075   0.989
 5787SOL    HW229393   4.704   3.965   0.995
 5788SOL     OW29394   6.142   2.803   0.962
 5788SOL    HW129395   6.216   2.735   0.959
 5788SOL    HW229396   6.055   2.757   0.979
 5789SOL     OW29397   5.814   2.373   1.642
 5789SOL    HW129398   5.762   2.290   1.662
 5789SOL    HW229399   5.755   2.439   1.595
 5790SOL     OW29400   0.199   7.312   5.441
 5790SOL    HW129401   0.116   7.298   5.495
 5790SOL    HW229402   0.211   7.236   5.378
 5791SOL     OW29403   9.066   3.525   6.499
 5791SOL    HW129404   8.998   3.599   6.495
 5791SOL    HW229405   9.104   3.511   6.408
 5792SOL     OW29406   9.463   7.260   5.547
 5792SOL    HW129407   9.391   7.291   5.485
 5792SOL    HW229408   9.444   7.293   5.639
 5793SOL     OW29409   2.787   4.806   5.345
 5793SOL    HW129410   2.745   4.821   5.255
 5793SOL    HW229411   2.877   4.850   5.347
 5794SOL     OW29412   0.250   4.808   0.632
 5794SOL    HW129413   0.169   4.805   0.692
 5794SOL    HW229414   0.231   4.757   0.548
 5795SOL     OW29415   6.594   7.234   6.440
 5795SOL    HW129416   6.549   7.171   6.376
 5795SOL    HW229417   6.564   7.213   6.533
 5796SOL     OW29418   4.531   8.269   6.935
 5796SOL    HW129419   4.505   8.174   6.953
 5796SOL    HW229420   4.566   8.276   6.841
 5797SOL     OW29421   7.462   4.837   0.797
 5797SOL    HW129422   7.513   4.790   0.869
 5797SOL    HW229423   7.431   4.926   0.830
 5798SOL     OW29424   4.837   6.783   6.132
 5798SOL    HW129425   4.853   6.700   6.185
 5798SOL    HW229426   4.746   6.778   6.089
 5799SOL     OW29427   8.656   7.780   5.216
 5799SOL    HW129428   8.721   7.843   5.256
 5799SOL    HW229429   8.704   7.720   5.151
 5800SOL     OW29430   2.469   1.026   6.371
 5800SOL    HW129431   2.488   0.932   6.343
 5800SOL    HW229432   2.421   1.026   6.459
 5801SOL     OW29433   9.189   1.862   6.886
 5801SOL    HW129434   9.104   1.818   6.855
 5801SOL    HW229435   9.171   1.957   6.910
 5802SOL     OW29436   3.029   1.038   6.258
 5802SOL    HW129437   3.117   1.085   6.248
 5802SOL    HW229438   3.039   0.961   6.320
 5803SOL     OW29439   3.070   4.649   1.544
 5803SOL    HW129440   2.996   4.697   1.497
 5803SOL    HW229441   3.033   4.604   1.626
 5804SOL     OW29442   7.856   6.085   0.311
 5804SOL    HW129443   7.829   6.169   0.357
 5804SOL    HW229444   7.916   6.106   0.234
 5805SOL     OW29445   8.472   1.982   1.927
 5805SOL    HW129446   8.566   1.955   1.906
 5805SOL    HW229447   8.449   1.953   2.020
 5806SOL     OW29448   0.941   0.959   1.187
 5806SOL    HW129449   0.923   0.996   1.279
 5806SOL    HW229450   0.878   1.001   1.122
 5807SOL     OW29451   2.001   7.027   0.515
 5807SOL    HW129452   1.948   7.111   0.513
 5807SOL    HW229453   1.960   6.963   0.581
 5808SOL     OW29454   4.868   4.726   1.572
 5808SOL    HW129455   4.964   4.715   1.600
 5808SOL    HW229456   4.808   4.696   1.647
 5809SOL     OW29457   8.319   1.731   6.268
 5809SOL    HW129458   8.234   1.780   6.248
 5809SOL    HW229459   8.357   1.694   6.183
 5810SOL     OW29460   8.514   6.079   6.915
 5810SOL    HW129461   8.599   6.074   6.967
 5810SOL    HW229462   8.466   6.164   6.939
 5811SOL     OW29463   1.282   8.423   5.842
 5811SOL    HW129464   1.319   8.408   5.751
 5811SOL    HW229465   1.260   8.520   5.854
 5812SOL     OW29466   8.814   2.999   0.554
 5812SOL    HW129467   8.906   3.038   0.555
 5812SOL    HW229468   8.777   3.002   0.461
 5813SOL     OW29469   6.541   6.315   6.217
 5813SOL    HW129470   6.445   6.315   6.190
 5813SOL    HW229471   6.583   6.228   6.193
 5814SOL     OW29472   5.100   2.593   1.641
 5814SOL    HW129473   5.011   2.637   1.651
 5814SOL    HW229474   5.147   2.592   1.729
 5815SOL     OW29475   7.519   0.364   1.198
 5815SOL    HW129476   7.435   0.380   1.251
 5815SOL    HW229477   7.546   0.268   1.208
 5816SOL     OW29478   8.919   0.128   6.918
 5816SOL    HW129479   8.927   0.058   6.848
 5816SOL    HW229480   8.845   0.191   6.895
 5817SOL     OW29481   4.700   4.059   0.703
 5817SOL    HW129482   4.638   4.007   0.762
 5817SOL    HW229483   4.710   4.152   0.737
 5818SOL     OW29484   2.150   3.680   5.825
 5818SOL    HW129485   2.101   3.705   5.742
 5818SOL    HW229486   2.089   3.690   5.904
 5819SOL     OW29487   7.074   7.706   0.875
 5819SOL    HW129488   7.086   7.687   0.972
 5819SOL    HW229489   7.140   7.653   0.822
 5820SOL     OW29490   0.557   2.885   0.498
 5820SOL    HW129491   0.545   2.805   0.439
 5820SOL    HW229492   0.613   2.953   0.453
 5821SOL     OW29493   6.344   1.312   6.597
 5821SOL    HW129494   6.424   1.367   6.620
 5821SOL    HW229495   6.347   1.225   6.647
 5822SOL     OW29496   5.754   0.423   5.698
 5822SOL    HW129497   5.736   0.329   5.727
 5822SOL    HW229498   5.690   0.448   5.625
 5823SOL     OW29499   0.629   5.769   6.399
 5823SOL    HW129500   0.709   5.710   6.395
 5823SOL    HW229501   0.547   5.712   6.410
 5824SOL     OW29502   4.022   0.532   6.613
 5824SOL    HW129503   3.978   0.444   6.596
 5824SOL    HW229504   4.029   0.548   6.712
 5825SOL     OW29505   7.190   1.528   1.718
 5825SOL    HW129506   7.277   1.564   1.683
 5825SOL    HW229507   7.123   1.601   1.723
 5826SOL     OW29508   4.558   0.244   6.572
 5826SOL    HW129509   4.472   0.286   6.544
 5826SOL    HW229510   4.630   0.268   6.506
 5827SOL     OW29511   3.748   8.196   1.254
 5827SOL    HW129512   3.657   8.170   1.221
 5827SOL    HW229513   3.818   8.145   1.204
 5828SOL     OW29514   2.872   2.852   1.126
 5828SOL    HW129515   2.881   2.893   1.035
 5828SOL    HW229516   2.787   2.801   1.132
 5829SOL     OW29517   6.377   5.149   5.394
 5829SOL    HW129518   6.313   5.170   5.319
 5829SOL    HW229519   6.424   5.063   5.374
 5830SOL     OW29520   1.358   8.402   5.594
 5830SOL    HW129521   1.282   8.385   5.531
 5830SOL    HW229522   1.411   8.318   5.605
 5831SOL     OW29523   9.390   0.734   1.459
 5831SOL    HW129524   9.442   0.649   1.448
 5831SOL    HW229525   9.293   0.712   1.468
 5832SOL     OW29526   4.142   5.302   6.449
 5832SOL    HW129527   4.098   5.254   6.373
 5832SOL    HW229528   4.210   5.366   6.413
 5833SOL     OW29529   0.687   3.670   0.716
 5833SOL    HW129530   0.746   3.655   0.636
 5833SOL    HW229531   0.724   3.621   0.795
 5834SOL     OW29532   4.899   6.876   5.520
 5834SOL    HW129533   4.842   6.843   5.595
 5834SOL    HW229534   4.922   6.800   5.459
 5835SOL     OW29535   7.983   3.984   1.900
 5835SOL    HW129536   7.999   3.999   1.803
 5835SOL    HW229537   8.018   3.893   1.926
 5836SOL     OW29538   3.472   5.468   1.261
 5836SOL    HW129539   3.552   5.461   1.321
 5836SOL    HW229540   3.492   5.532   1.186
 5837SOL     OW29541   6.788   3.589   0.748
 5837SOL    HW129542   6.766   3.503   0.793
 5837SOL    HW229543   6.722   3.659   0.776
 5838SOL     OW29544   3.798   3.590   1.253
 5838SOL    HW129545   3.863   3.516   1.270
 5838SOL    HW229546   3.748   3.610   1.337
 5839SOL     OW29547   3.604   3.039   6.148
 5839SOL    HW129548   3.566   2.966   6.205
 5839SOL    HW229549   3.587   3.018   6.052
 5840SOL     OW29550   7.411   6.488   1.029
 5840SOL    HW129551   7.461   6.426   0.969
 5840SOL    HW229552   7.453   6.578   1.026
 5841SOL     OW29553   1.954   5.276   0.394
 5841SOL    HW129554   1.862   5.296   0.361
 5841SOL    HW229555   1.965   5.177   0.405
 5842SOL     OW29556   5.177   3.278   0.765
 5842SOL    HW129557   5.267   3.234   0.773
 5842SOL    HW229558   5.106   3.208   0.764
 5843SOL     OW29559   4.927   8.037   6.610
 5843SOL    HW129560   4.934   8.098   6.689
 5843SOL    HW229561   4.994   7.964   6.619
 5844SOL     OW29562   7.477   8.265   0.335
 5844SOL    HW129563   7.420   8.269   0.417
 5844SOL    HW229564   7.446   8.190   0.277
 5845SOL     OW29565   1.856   0.788   5.665
 5845SOL    HW129566   1.943   0.764   5.707
 5845SOL    HW229567   1.864   0.785   5.566
 5846SOL     OW29568   2.443   7.903   4.632
 5846SOL    HW129569   2.513   7.950   4.578
 5846SOL    HW229570   2.448   7.805   4.616
 5847SOL     OW29571   3.901   2.665   1.939
 5847SOL    HW129572   3.918   2.581   1.989
 5847SOL    HW229573   3.854   2.731   1.998
 5848SOL     OW29574   5.013   3.762   6.631
 5848SOL    HW129575   5.024   3.783   6.534
 5848SOL    HW229576   5.042   3.841   6.685
 5849SOL     OW29577   9.160   2.099   6.596
 5849SOL    HW129578   9.147   2.169   6.666
 5849SOL    HW229579   9.256   2.097   6.568
 5850SOL     OW29580   5.675   6.942   6.879
 5850SOL    HW129581   5.713   7.033   6.898
 5850SOL    HW229582   5.740   6.890   6.824
 5851SOL     OW29583   8.090   5.437   6.646
 5851SOL    HW129584   8.159   5.480   6.588
 5851SOL    HW229585   8.016   5.400   6.588
 5852SOL     OW29586   7.598   3.899   5.969
 5852SOL    HW129587   7.529   3.911   5.898
 5852SOL    HW229588   7.659   3.824   5.944
 5853SOL     OW29589   5.022   3.488   0.291
 5853SOL    HW129590   4.982   3.440   0.369
 5853SOL    HW229591   5.000   3.585   0.296
 5854SOL     OW29592   2.566   6.979   6.230
 5854SOL    HW129593   2.492   7.035   6.193
 5854SOL    HW229594   2.529   6.894   6.267
 5855SOL     OW29595   1.250   0.028   6.749
 5855SOL    HW129596   1.308  -0.008   6.822
 5855SOL    HW229597   1.290   0.113   6.714
 5856SOL     OW29598   5.825   1.822   6.640
 5856SOL    HW129599   5.923   1.820   6.662
 5856SOL    HW229600   5.805   1.906   6.588
 5857SOL     OW29601   3.274   6.063   2.126
 5857SOL    HW129602   3.180   6.095   2.126
 5857SOL    HW229603   3.284   5.990   2.194
 5858SOL     OW29604   6.662   4.664   5.712
 5858SOL    HW129605   6.567   4.633   5.708
 5858SOL    HW229606   6.679   4.731   5.640
 5859SOL     OW29607   4.604   1.502   6.612
 5859SOL    HW129608   4.542   1.486   6.689
 5859SOL    HW229609   4.697   1.516   6.647
 5860SOL     OW29610   5.673   6.055   2.053
 5860SOL    HW129611   5.701   6.144   2.089
 5860SOL    HW229612   5.755   6.001   2.032
 5861SOL     OW29613   2.958   7.247   0.334
 5861SOL    HW129614   2.900   7.173   0.302
 5861SOL    HW229615   2.994   7.297   0.255
 5862SOL     OW29616   4.092   4.795   5.969
 5862SOL    HW129617   4.171   4.788   6.029
 5862SOL    HW229618   4.067   4.891   5.956
 5863SOL     OW29619   6.762   0.456   6.189
 5863SOL    HW129620   6.840   0.492   6.241
 5863SOL    HW229621   6.691   0.527   6.184
 5864SOL     OW29622   1.744   6.831   6.908
 5864SOL    HW129623   1.843   6.826   6.893
 5864SOL    HW229624   1.705   6.904   6.851
 5865SOL     OW29625   8.079   7.178   6.762
 5865SOL    HW129626   8.163   7.197   6.814
 5865SOL    HW229627   8.032   7.264   6.743
 5866SOL     OW29628   7.648   2.674   0.401
 5866SOL    HW129629   7.628   2.764   0.363
 5866SOL    HW229630   7.676   2.683   0.496
 5867SOL     OW29631   9.477   4.987   5.805
 5867SOL    HW129632   9.427   4.955   5.725
 5867SOL    HW229633   9.454   5.082   5.823
 5868SOL     OW29634   5.671   4.943   1.548
 5868SOL    HW129635   5.716   4.905   1.629
 5868SOL    HW229636   5.633   5.033   1.569
 5869SOL     OW29637   8.887   6.218   1.263
 5869SOL    HW129638   8.853   6.129   1.294
 5869SOL    HW229639   8.865   6.288   1.331
 5870SOL     OW29640   3.519   7.084   6.297
 5870SOL    HW129641   3.419   7.077   6.293
 5870SOL    HW229642   3.559   7.009   6.245
 5871SOL     OW29643   2.818   8.041   0.217
 5871SOL    HW129644   2.815   8.141   0.218
 5871SOL    HW229645   2.761   8.006   0.142
 5872SOL     OW29646   6.468   8.106   5.828
 5872SOL    HW129647   6.504   8.131   5.737
 5872SOL    HW229648   6.376   8.144   5.839
 5873SOL     OW29649   2.208   7.067   0.767
 5873SOL    HW129650   2.126   7.115   0.800
 5873SOL    HW229651   2.193   6.969   0.771
 5874SOL     OW29652   7.887   0.730   0.736
 5874SOL    HW129653   7.865   0.801   0.804
 5874SOL    HW229654   7.945   0.660   0.779
 5875SOL     OW29655   0.967   0.307   0.998
 5875SOL    HW129656   0.947   0.216   0.961
 5875SOL    HW229657   1.064   0.314   1.021
 5876SOL     OW29658   3.957   5.913   6.340
 5876SOL    HW129659   3.881   5.864   6.382
 5876SOL    HW229660   4.037   5.909   6.400
 5877SOL     OW29661   4.107   7.201   1.279
 5877SOL    HW129662   4.059   7.179   1.364
 5877SOL    HW229663   4.088   7.295   1.253
 5878SOL     OW29664   3.618   6.306   1.374
 5878SOL    HW129665   3.650   6.360   1.452
 5878SOL    HW229666   3.560   6.231   1.406
 5879SOL     OW29667   9.099   0.198   0.655
 5879SOL    HW129668   9.171   0.267   0.652
 5879SOL    HW229669   9.010   0.243   0.661
 5880SOL     OW29670   4.891   2.014   5.630
 5880SOL    HW129671   4.802   1.969   5.638
 5880SOL    HW229672   4.906   2.074   5.708
 5881SOL     OW29673   0.410   2.755   6.181
 5881SOL    HW129674   0.313   2.770   6.164
 5881SOL    HW229675   0.460   2.841   6.170
 5882SOL     OW29676   1.612  -0.034   0.574
 5882SOL    HW129677   1.580  -0.070   0.486
 5882SOL    HW229678   1.567   0.054   0.591
 5883SOL     OW29679   0.818   0.250   0.418
 5883SOL    HW129680   0.805   0.286   0.511
 5883SOL    HW229681   0.864   0.161   0.424
 5884SOL     OW29682   7.396   3.925   5.785
 5884SOL    HW129683   7.380   4.002   5.724
 5884SOL    HW229684   7.343   3.846   5.754
 5885SOL     OW29685   3.150   7.448   5.967
 5885SOL    HW129686   3.178   7.435   6.062
 5885SOL    HW229687   3.149   7.546   5.946
 5886SOL     OW29688   6.578   7.903   6.580
 5886SOL    HW129689   6.537   7.816   6.554
 5886SOL    HW229690   6.521   7.979   6.547
 5887SOL     OW29691   1.414   2.975   0.438
 5887SOL    HW129692   1.414   2.933   0.529
 5887SOL    HW229693   1.475   2.924   0.378
 5888SOL     OW29694   0.525   1.222   6.337
 5888SOL    HW129695   0.427   1.202   6.328
 5888SOL    HW229696   0.576   1.160   6.277
 5889SOL     OW29697   2.798   1.118   1.291
 5889SOL    HW129698   2.797   1.213   1.259
 5889SOL    HW229699   2.707   1.094   1.326
 5890SOL     OW29700   4.496   4.730   1.268
 5890SOL    HW129701   4.538   4.655   1.216
 5890SOL    HW229702   4.565   4.798   1.291
 5891SOL     OW29703   7.481   6.333   6.466
 5891SOL    HW129704   7.516   6.308   6.375
 5891SOL    HW229705   7.542   6.398   6.509
 5892SOL     OW29706   5.847   1.291   0.282
 5892SOL    HW129707   5.806   1.324   0.197
 5892SOL    HW229708   5.855   1.191   0.279
 5893SOL     OW29709   6.213   8.074   0.553
 5893SOL    HW129710   6.126   8.075   0.602
 5893SOL    HW229711   6.253   7.983   0.559
 5894SOL     OW29712   8.208   4.663   1.519
 5894SOL    HW129713   8.175   4.652   1.612
 5894SOL    HW229714   8.224   4.760   1.501
 5895SOL     OW29715   5.069   6.462   6.795
 5895SOL    HW129716   5.095   6.552   6.828
 5895SOL    HW229717   5.116   6.443   6.709
 5896SOL     OW29718   0.753   0.121   5.815
 5896SOL    HW129719   0.762   0.036   5.868
 5896SOL    HW229720   0.732   0.099   5.720
 5897SOL     OW29721   7.388   5.038   6.203
 5897SOL    HW129722   7.480   4.999   6.207
 5897SOL    HW229723   7.389   5.121   6.149
 5898SOL     OW29724   0.337   7.957   1.503
 5898SOL    HW129725   0.430   7.975   1.535
 5898SOL    HW229726   0.285   7.911   1.575
 5899SOL     OW29727   3.729   4.450   6.849
 5899SOL    HW129728   3.717   4.496   6.937
 5899SOL    HW229729   3.641   4.419   6.814
 5900SOL     OW29730   6.859   0.314   5.575
 5900SOL    HW129731   6.785   0.316   5.508
 5900SOL    HW229732   6.883   0.219   5.595
 5901SOL     OW29733   0.495   4.227   5.381
 5901SOL    HW129734   0.442   4.147   5.355
 5901SOL    HW229735   0.593   4.209   5.368
 5902SOL     OW29736   5.021   4.630   6.459
 5902SOL    HW129737   4.958   4.693   6.502
 5902SOL    HW229738   5.056   4.670   6.374
 5903SOL     OW29739   3.298   6.274   6.802
 5903SOL    HW129740   3.347   6.263   6.716
 5903SOL    HW229741   3.363   6.291   6.876
 5904SOL     OW29742   2.858   8.087   1.014
 5904SOL    HW129743   2.869   7.987   1.008
 5904SOL    HW229744   2.927   8.132   0.958
 5905SOL     OW29745   4.921   5.028   6.251
 5905SOL    HW129746   4.871   5.068   6.328
 5905SOL    HW229747   4.965   4.943   6.280
 5906SOL     OW29748   1.383   0.338   4.912
 5906SOL    HW129749   1.324   0.329   4.831
 5906SOL    HW229750   1.409   0.247   4.944
 5907SOL     OW29751   8.125   5.940   5.576
 5907SOL    HW129752   8.121   6.025   5.630
 5907SOL    HW229753   8.035   5.921   5.537
 5908SOL     OW29754   6.826   0.790   1.492
 5908SOL    HW129755   6.780   0.721   1.548
 5908SOL    HW229756   6.915   0.811   1.532
 5909SOL     OW29757   4.361   7.395   6.306
 5909SOL    HW129758   4.333   7.457   6.379
 5909SOL    HW229759   4.460   7.398   6.296
 5910SOL     OW29760   3.331   5.488   6.737
 5910SOL    HW129761   3.430   5.490   6.733
 5910SOL    HW229762   3.300   5.397   6.765
 5911SOL     OW29763   3.233   7.494   1.025
 5911SOL    HW129764   3.193   7.556   0.958
 5911SOL    HW229765   3.188   7.405   1.021
 5912SOL     OW29766   9.046   0.063   0.964
 5912SOL    HW129767   8.983   0.050   0.887
 5912SOL    HW229768   9.132   0.016   0.944
 5913SOL     OW29769   0.516   7.162   6.184
 5913SOL    HW129770   0.492   7.112   6.101
 5913SOL    HW229771   0.603   7.127   6.219
 5914SOL     OW29772   4.329   0.132   4.815
 5914SOL    HW129773   4.410   0.103   4.763
 5914SOL    HW229774   4.248   0.128   4.756
 5915SOL     OW29775   1.530   3.099   6.394
 5915SOL    HW129776   1.450   3.152   6.365
 5915SOL    HW229777   1.555   3.034   6.323
 5916SOL     OW29778   1.290   5.826   5.643
 5916SOL    HW129779   1.194   5.804   5.660
 5916SOL    HW229780   1.320   5.895   5.709
 5917SOL     OW29781   3.724   7.564   0.288
 5917SOL    HW129782   3.814   7.523   0.273
 5917SOL    HW229783   3.670   7.505   0.349
 5918SOL     OW29784   4.666   1.778   6.262
 5918SOL    HW129785   4.760   1.802   6.288
 5918SOL    HW229786   4.624   1.855   6.214
 5919SOL     OW29787   3.782   2.697   6.582
 5919SOL    HW129788   3.825   2.757   6.514
 5919SOL    HW229789   3.778   2.744   6.670
 5920SOL     OW29790   3.520   4.331   5.824
 5920SOL    HW129791   3.480   4.317   5.914
 5920SOL    HW229792   3.457   4.384   5.767
 5921SOL     OW29793   7.379   7.554   5.149
 5921SOL    HW129794   7.361   7.649   5.176
 5921SOL    HW229795   7.442   7.553   5.071
 5922SOL     OW29796   5.572   4.057   6.853
 5922SOL    HW129797   5.632   3.984   6.822
 5922SOL    HW229798   5.614   4.146   6.833
 5923SOL     OW29799   8.722   0.737   6.173
 5923SOL    HW129800   8.626   0.758   6.195
 5923SOL    HW229801   8.755   0.802   6.104
 5924SOL     OW29802   3.722   0.074   1.493
 5924SOL    HW129803   3.702  -0.024   1.486
 5924SOL    HW229804   3.642   0.127   1.465
 5925SOL     OW29805   3.962   3.618   0.981
 5925SOL    HW129806   3.895   3.547   1.002
 5925SOL    HW229807   3.916   3.691   0.930
 5926SOL     OW29808   8.270   4.297   1.137
 5926SOL    HW129809   8.281   4.301   1.038
 5926SOL    HW229810   8.344   4.242   1.177
 5927SOL     OW29811   4.365   1.822   1.171
 5927SOL    HW129812   4.374   1.741   1.228
 5927SOL    HW229813   4.270   1.854   1.173
 5928SOL     OW29814   3.880   0.739   6.485
 5928SOL    HW129815   3.929   0.654   6.507
 5928SOL    HW229816   3.788   0.735   6.524
 5929SOL     OW29817   2.541   8.119   6.295
 5929SOL    HW129818   2.608   8.141   6.366
 5929SOL    HW229819   2.586   8.123   6.205
 5930SOL     OW29820   4.521   8.062   1.363
 5930SOL    HW129821   4.448   8.053   1.295
 5930SOL    HW229822   4.515   7.987   1.428
 5931SOL     OW29823   2.861   3.646   6.481
 5931SOL    HW129824   2.802   3.720   6.450
 5931SOL    HW229825   2.954   3.660   6.447
 5932SOL     OW29826   4.030   2.234   5.805
 5932SOL    HW129827   3.933   2.212   5.801
 5932SOL    HW229828   4.076   2.201   5.723
 5933SOL     OW29829   5.299   4.640   1.518
 5933SOL    HW129830   5.317   4.733   1.486
 5933SOL    HW229831   5.234   4.643   1.594
 5934SOL     OW29832   4.242   7.438   1.502
 5934SOL    HW129833   4.315   7.456   1.567
 5934SOL    HW229834   4.166   7.392   1.548
 5935SOL     OW29835   6.796   1.393   1.531
 5935SOL    HW129836   6.711   1.341   1.521
 5935SOL    HW229837   6.816   1.404   1.628
 5936SOL     OW29838   1.383   0.786   0.364
 5936SOL    HW129839   1.390   0.687   0.363
 5936SOL    HW229840   1.409   0.823   0.275
 5937SOL     OW29841   7.457   2.283   6.714
 5937SOL    HW129842   7.549   2.286   6.673
 5937SOL    HW229843   7.456   2.214   6.787
 5938SOL     OW29844   8.148   3.064   0.444
 5938SOL    HW129845   8.194   2.998   0.503
 5938SOL    HW229846   8.050   3.062   0.461
 5939SOL     OW29847   4.125   1.847   0.249
 5939SOL    HW129848   4.140   1.782   0.323
 5939SOL    HW229849   4.066   1.920   0.280
 5940SOL     OW29850   6.385   6.134   0.593
 5940SOL    HW129851   6.411   6.088   0.508
 5940SOL    HW229852   6.464   6.181   0.631
 5941SOL     OW29853   3.149   1.061   2.252
 5941SOL    HW129854   3.070   1.112   2.219
 5941SOL    HW229855   3.192   1.013   2.175
 5942SOL     OW29856   0.186   7.322   5.074
 5942SOL    HW129857   0.107   7.379   5.052
 5942SOL    HW229858   0.236   7.300   4.990
 5943SOL     OW29859   2.369   7.815   5.997
 5943SOL    HW129860   2.465   7.829   6.019
 5943SOL    HW229861   2.322   7.903   5.993
 5944SOL     OW29862   4.299   3.281   0.463
 5944SOL    HW129863   4.299   3.356   0.396
 5944SOL    HW229864   4.394   3.256   0.484
 5945SOL     OW29865   7.714   0.180   0.819
 5945SOL    HW129866   7.793   0.202   0.877
 5945SOL    HW229867   7.690   0.260   0.764
 5946SOL     OW29868   8.007   0.106   0.290
 5946SOL    HW129869   7.927   0.068   0.244
 5946SOL    HW229870   8.079   0.124   0.222
 5947SOL     OW29871   0.823   4.386   6.452
 5947SOL    HW129872   0.854   4.366   6.359
 5947SOL    HW229873   0.821   4.485   6.466
 5948SOL     OW29874   6.206   5.447   1.659
 5948SOL    HW129875   6.195   5.387   1.738
 5948SOL    HW229876   6.237   5.538   1.689
 5949SOL     OW29877   1.733   0.186   2.124
 5949SOL    HW129878   1.643   0.230   2.120
 5949SOL    HW229879   1.761   0.160   2.032
 5950SOL     OW29880   0.752   6.729   0.784
 5950SOL    HW129881   0.826   6.771   0.835
 5950SOL    HW229882   0.760   6.629   0.791
 5951SOL     OW29883   0.500   2.357   6.043
 5951SOL    HW129884   0.471   2.431   5.983
 5951SOL    HW229885   0.442   2.276   6.028
 5952SOL     OW29886   2.645   0.670   0.597
 5952SOL    HW129887   2.573   0.601   0.599
 5952SOL    HW229888   2.731   0.628   0.570
 5953SOL     OW29889   0.821   6.372   5.607
 5953SOL    HW129890   0.900   6.433   5.614
 5953SOL    HW229891   0.852   6.279   5.586
 5954SOL     OW29892   3.455   0.676   1.071
 5954SOL    HW129893   3.472   0.766   1.113
 5954SOL    HW229894   3.357   0.658   1.071
 5955SOL     OW29895   9.382   3.999   6.205
 5955SOL    HW129896   9.471   3.995   6.158
 5955SOL    HW229897   9.333   3.913   6.189
 5956SOL     OW29898   1.985   3.192   6.714
 5956SOL    HW129899   1.963   3.243   6.797
 5956SOL    HW229900   2.085   3.181   6.708
 5957SOL     OW29901   1.089   4.978   0.980
 5957SOL    HW129902   1.110   4.943   0.889
 5957SOL    HW229903   1.058   4.903   1.039
 5958SOL     OW29904   8.117   0.022   6.545
 5958SOL    HW129905   8.062  -0.062   6.552
 5958SOL    HW229906   8.060   0.096   6.509
 5959SOL     OW29907   6.073   2.753   0.346
 5959SOL    HW129908   6.172   2.740   0.342
 5959SOL    HW229909   6.053   2.847   0.377
 5960SOL     OW29910   1.650   5.673   0.873
 5960SOL    HW129911   1.576   5.699   0.936
 5960SOL    HW229912   1.633   5.715   0.784
 5961SOL     OW29913   6.887   8.313   1.117
 5961SOL    HW129914   6.804   8.299   1.062
 5961SOL    HW229915   6.966   8.275   1.069
 5962SOL     OW29916   6.609   7.370   5.244
 5962SOL    HW129917   6.663   7.304   5.192
 5962SOL    HW229918   6.574   7.326   5.326
 5963SOL     OW29919   4.649   4.306   6.478
 5963SOL    HW129920   4.571   4.364   6.451
 5963SOL    HW229921   4.708   4.357   6.540
 5964SOL     OW29922   5.602   6.346   6.886
 5964SOL    HW129923   5.538   6.418   6.915
 5964SOL    HW229924   5.684   6.349   6.943
 5965SOL     OW29925   0.208   0.812   5.627
 5965SOL    HW129926   0.188   0.718   5.599
 5965SOL    HW229927   0.262   0.811   5.711
 5966SOL     OW29928   2.562   1.545   1.313
 5966SOL    HW129929   2.507   1.614   1.266
 5966SOL    HW229930   2.547   1.552   1.412
 5967SOL     OW29931   7.703   6.026   1.504
 5967SOL    HW129932   7.713   5.980   1.592
 5967SOL    HW229933   7.748   6.115   1.508
 5968SOL     OW29934   8.849   3.271   0.984
 5968SOL    HW129935   8.789   3.251   1.061
 5968SOL    HW229936   8.905   3.191   0.963
 5969SOL     OW29937   6.383   1.466   6.935
 5969SOL    HW129938   6.444   1.545   6.936
 5969SOL    HW229939   6.289   1.497   6.919
 5970SOL     OW29940   8.128   7.137   1.603
 5970SOL    HW129941   8.164   7.153   1.695
 5970SOL    HW229942   8.162   7.208   1.541
 5971SOL     OW29943   6.392   5.580   0.999
 5971SOL    HW129944   6.441   5.589   1.086
 5971SOL    HW229945   6.449   5.532   0.933
 5972SOL     OW29946   2.097   0.357   5.852
 5972SOL    HW129947   2.053   0.446   5.857
 5972SOL    HW229948   2.188   0.366   5.811
 5973SOL     OW29949   8.419   1.736   1.563
 5973SOL    HW129950   8.491   1.804   1.548
 5973SOL    HW229951   8.460   1.652   1.600
 5974SOL     OW29952   3.307   1.193   6.661
 5974SOL    HW129953   3.242   1.120   6.681
 5974SOL    HW229954   3.341   1.232   6.746
 5975SOL     OW29955   5.947   4.420   0.376
 5975SOL    HW129956   5.957   4.339   0.319
 5975SOL    HW229957   5.917   4.394   0.467
 5976SOL     OW29958   7.181   8.300   5.930
 5976SOL    HW129959   7.207   8.357   5.852
 5976SOL    HW229960   7.093   8.256   5.911
 5977SOL     OW29961   7.355   2.803   6.671
 5977SOL    HW129962   7.287   2.876   6.675
 5977SOL    HW229963   7.354   2.751   6.756
 5978SOL     OW29964   5.186   8.017   6.099
 5978SOL    HW129965   5.248   7.944   6.070
 5978SOL    HW229966   5.239   8.093   6.136
 5979SOL     OW29967   7.424   6.936   5.932
 5979SOL    HW129968   7.463   6.966   6.019
 5979SOL    HW229969   7.487   6.872   5.887
 5980SOL     OW29970   1.133   3.369   6.454
 5980SOL    HW129971   1.195   3.396   6.528
 5980SOL    HW229972   1.067   3.302   6.488
 5981SOL     OW29973   7.854   7.333   6.006
 5981SOL    HW129974   7.818   7.266   6.070
 5981SOL    HW229975   7.901   7.406   6.057
 5982SOL     OW29976   4.018   2.077   2.299
 5982SOL    HW129977   4.041   2.054   2.394
 5982SOL    HW229978   4.075   2.154   2.269
 5983SOL     OW29979   6.968   4.003   6.685
 5983SOL    HW129980   6.901   3.997   6.759
 5983SOL    HW229981   7.057   3.970   6.718
 5984SOL     OW29982   3.211   3.122   1.295
 5984SOL    HW129983   3.267   3.049   1.333
 5984SOL    HW229984   3.114   3.103   1.313
 5985SOL     OW29985   7.850   1.191   6.531
 5985SOL    HW129986   7.927   1.165   6.472
 5985SOL    HW229987   7.792   1.112   6.547
 5986SOL     OW29988   4.097   3.096   5.394
 5986SOL    HW129989   4.071   3.076   5.488
 5986SOL    HW229990   4.018   3.084   5.334
 5987SOL     OW29991   7.619   7.329   1.354
 5987SOL    HW129992   7.683   7.388   1.304
 5987SOL    HW229993   7.668   7.278   1.425
 5988SOL     OW29994   0.986   4.728   1.408
 5988SOL    HW129995   1.045   4.675   1.469
 5988SOL    HW229996   0.900   4.748   1.454
 5989SOL     OW29997   1.541   4.239   0.646
 5989SOL    HW129998   1.443   4.249   0.660
 5989SOL    HW229999   1.558   4.213   0.551
 5990SOL     OW30000   8.120   2.297   6.351
 5990SOL    HW130001   8.157   2.363   6.417
 5990SOL    HW230002   8.168   2.210   6.360
 5991SOL     OW30003   6.323   4.635   1.242
 5991SOL    HW130004   6.229   4.617   1.273
 5991SOL    HW230005   6.321   4.687   1.157
 5992SOL     OW30006   7.536   5.403   6.104
 5992SOL    HW130007   7.556   5.407   6.202
 5992SOL    HW230008   7.451   5.352   6.090
 5993SOL     OW30009   8.830   4.452   6.692
 5993SOL    HW130010   8.734   4.471   6.713
 5993SOL    HW230011   8.866   4.523   6.631
 5994SOL     OW30012   9.381   3.399   5.650
 5994SOL    HW130013   9.439   3.376   5.572
 5994SOL    HW230014   9.318   3.473   5.624
 5995SOL     OW30015   7.863   4.951   6.486
 5995SOL    HW130016   7.850   5.030   6.426
 5995SOL    HW230017   7.884   4.870   6.432
 5996SOL     OW30018   2.217   8.357   5.438
 5996SOL    HW130019   2.164   8.285   5.394
 5996SOL    HW230020   2.269   8.407   5.368
 5997SOL     OW30021   2.571   4.292   5.956
 5997SOL    HW130022   2.597   4.267   5.862
 5997SOL    HW230023   2.625   4.238   6.020
 5998SOL     OW30024   0.530   0.993   6.906
 5998SOL    HW130025   0.589   0.935   6.849
 5998SOL    HW230026   0.514   1.080   6.859
 5999SOL     OW30027   6.881   2.275   0.905
 5999SOL    HW130028   6.939   2.241   0.831
 5999SOL    HW230029   6.853   2.370   0.884
 6000SOL     OW30030   7.143   1.687   1.037
 6000SOL    HW130031   7.183   1.773   1.067
 6000SOL    HW230032   7.060   1.705   0.984
 6001SOL     OW30033   2.268   2.147   6.021
 6001SOL    HW130034   2.258   2.211   5.945
 6001SOL    HW230035   2.212   2.179   6.098
 6002SOL     OW30036   8.270   4.932   1.478
 6002SOL    HW130037   8.228   5.008   1.528
 6002SOL    HW230038   8.334   4.968   1.410
 6003SOL     OW30039   0.826   2.186   0.337
 6003SOL    HW130040   0.850   2.158   0.430
 6003SOL    HW230041   0.909   2.211   0.287
 6004SOL     OW30042   4.057   0.478   1.185
 6004SOL    HW130043   4.049   0.496   1.283
 6004SOL    HW230044   3.974   0.509   1.139
 6005SOL     OW30045   0.185   2.381   6.482
 6005SOL    HW130046   0.098   2.371   6.432
 6005SOL    HW230047   0.188   2.314   6.557
 6006SOL     OW30048   4.720   6.862   1.536
 6006SOL    HW130049   4.698   6.855   1.633
 6006SOL    HW230050   4.765   6.777   1.506
 6007SOL     OW30051   4.307   3.353   0.748
 6007SOL    HW130052   4.389   3.408   0.764
 6007SOL    HW230053   4.295   3.339   0.650
 6008SOL     OW30054   2.208   3.098   6.360
 6008SOL    HW130055   2.183   3.187   6.322
 6008SOL    HW230056   2.126   3.041   6.370
 6009SOL     OW30057   2.716   3.484   6.295
 6009SOL    HW130058   2.777   3.500   6.372
 6009SOL    HW230059   2.713   3.565   6.236
 6010SOL     OW30060   1.790   0.524   6.392
 6010SOL    HW130061   1.733   0.586   6.338
 6010SOL    HW230062   1.876   0.570   6.415
 6011SOL     OW30063   1.587   4.118   1.092
 6011SOL    HW130064   1.576   4.122   1.191
 6011SOL    HW230065   1.504   4.081   1.050
 6012SOL     OW30066   1.077   2.028   6.614
 6012SOL    HW130067   1.072   1.933   6.645
 6012SOL    HW230068   1.007   2.044   6.544
 6013SOL     OW30069   4.204   5.415   5.670
 6013SOL    HW130070   4.224   5.435   5.574
 6013SOL    HW230071   4.213   5.317   5.687
 6014SOL     OW30072   5.180   6.498   6.100
 6014SOL    HW130073   5.087   6.463   6.090
 6014SOL    HW230074   5.182   6.568   6.171
 6015SOL     OW30075   1.114   6.562   0.826
 6015SOL    HW130076   1.212   6.546   0.814
 6015SOL    HW230077   1.086   6.536   0.919
 6016SOL     OW30078   0.985   1.710   0.511
 6016SOL    HW130079   0.908   1.707   0.574
 6016SOL    HW230080   0.951   1.719   0.417
 6017SOL     OW30081   1.603   2.883   0.209
 6017SOL    HW130082   1.568   2.798   0.248
 6017SOL    HW230083   1.678   2.862   0.146
 6018SOL     OW30084   3.677   5.799   6.470
 6018SOL    HW130085   3.625   5.881   6.447
 6018SOL    HW230086   3.738   5.819   6.547
 6019SOL     OW30087   1.694   3.793   1.186
 6019SOL    HW130088   1.623   3.838   1.240
 6019SOL    HW230089   1.721   3.707   1.230
 6020SOL     OW30090   8.825   6.329   5.559
 6020SOL    HW130091   8.805   6.235   5.530
 6020SOL    HW230092   8.913   6.357   5.520
 6021SOL     OW30093   2.288   1.845   6.925
 6021SOL    HW130094   2.368   1.830   6.983
 6021SOL    HW230095   2.229   1.914   6.967
 6022SOL     OW30096   3.239   3.721   1.882
 6022SOL    HW130097   3.243   3.819   1.861
 6022SOL    HW230098   3.157   3.682   1.840
 6023SOL     OW30099   6.145   1.460   0.627
 6023SOL    HW130100   6.121   1.460   0.530
 6023SOL    HW230101   6.067   1.492   0.681
 6024SOL     OW30102   4.587   7.100   1.504
 6024SOL    HW130103   4.613   7.003   1.505
 6024SOL    HW230104   4.562   7.129   1.596
 6025SOL     OW30105   6.714   1.479   2.407
 6025SOL    HW130106   6.630   1.534   2.415
 6025SOL    HW230107   6.790   1.538   2.379
 6026SOL     OW30108   3.052   2.004   6.473
 6026SOL    HW130109   3.000   1.924   6.443
 6026SOL    HW230110   3.029   2.026   6.568
 6027SOL     OW30111   5.280   1.728   1.130
 6027SOL    HW130112   5.328   1.641   1.144
 6027SOL    HW230113   5.198   1.712   1.074
 6028SOL     OW30114   8.835   8.329   6.746
 6028SOL    HW130115   8.745   8.302   6.710
 6028SOL    HW230116   8.857   8.272   6.825
 6029SOL     OW30117   4.370   0.810   5.548
 6029SOL    HW130118   4.451   0.807   5.489
 6029SOL    HW230119   4.336   0.717   5.561
 6030SOL     OW30120   6.284   6.650   5.591
 6030SOL    HW130121   6.335   6.565   5.608
 6030SOL    HW230122   6.190   6.627   5.563
 6031SOL     OW30123   3.182   1.898   0.311
 6031SOL    HW130124   3.280   1.918   0.309
 6031SOL    HW230125   3.169   1.799   0.322
 6032SOL     OW30126   5.893   4.991   6.489
 6032SOL    HW130127   5.968   4.929   6.510
 6032SOL    HW230128   5.835   5.001   6.570
 6033SOL     OW30129   3.954   8.386   1.426
 6033SOL    HW130130   3.914   8.353   1.340
 6033SOL    HW230131   3.916   8.476   1.448
 6034SOL     OW30132   5.366   6.492   0.831
 6034SOL    HW130133   5.362   6.499   0.931
 6034SOL    HW230134   5.422   6.414   0.805
 6035SOL     OW30135   2.600   7.741   0.988
 6035SOL    HW130136   2.648   7.657   1.015
 6035SOL    HW230137   2.502   7.731   1.006
 6036SOL     OW30138   3.158   4.042   0.736
 6036SOL    HW130139   3.178   4.055   0.833
 6036SOL    HW230140   3.175   4.128   0.686
 6037SOL     OW30141   9.500   4.103   6.845
 6037SOL    HW130142   9.553   4.177   6.886
 6037SOL    HW230143   9.527   4.015   6.885
 6038SOL     OW30144   1.848   3.671   6.474
 6038SOL    HW130145   1.933   3.718   6.497
 6038SOL    HW230146   1.867   3.592   6.416
 6039SOL     OW30147   4.645   7.614   0.571
 6039SOL    HW130148   4.732   7.626   0.619
 6039SOL    HW230149   4.655   7.641   0.476
 6040SOL     OW30150   7.277   3.699   6.052
 6040SOL    HW130151   7.271   3.762   5.974
 6040SOL    HW230152   7.361   3.645   6.044
 6041SOL     OW30153   1.781   0.508   5.731
 6041SOL    HW130154   1.798   0.599   5.768
 6041SOL    HW230155   1.792   0.440   5.803
 6042SOL     OW30156   8.151   0.979   5.477
 6042SOL    HW130157   8.122   0.911   5.410
 6042SOL    HW230158   8.251   0.983   5.479
 6043SOL     OW30159   3.135   5.715   5.610
 6043SOL    HW130160   3.065   5.776   5.571
 6043SOL    HW230161   3.170   5.756   5.694
 6044SOL     OW30162   2.891   0.488   0.583
 6044SOL    HW130163   2.916   0.463   0.677
 6044SOL    HW230164   2.869   0.405   0.532
 6045SOL     OW30165   2.805   7.109   5.534
 6045SOL    HW130166   2.797   7.132   5.631
 6045SOL    HW230167   2.877   7.041   5.522
 6046SOL     OW30168   8.633   4.418   1.464
 6046SOL    HW130169   8.535   4.435   1.453
 6046SOL    HW230170   8.667   4.466   1.545
 6047SOL     OW30171   8.599   7.372   6.562
 6047SOL    HW130172   8.533   7.360   6.489
 6047SOL    HW230173   8.561   7.432   6.633
 6048SOL     OW30174   0.156   6.267   6.407
 6048SOL    HW130175   0.057   6.272   6.413
 6048SOL    HW230176   0.183   6.246   6.313
 6049SOL     OW30177   0.967   1.199   6.401
 6049SOL    HW130178   1.030   1.253   6.457
 6049SOL    HW230179   0.961   1.240   6.310
 6050SOL     OW30180   1.138   8.324   5.428
 6050SOL    HW130181   1.130   8.231   5.463
 6050SOL    HW230182   1.071   8.382   5.474
 6051SOL     OW30183   2.990   4.046   6.702
 6051SOL    HW130184   2.924   4.000   6.761
 6051SOL    HW230185   2.952   4.057   6.610
 6052SOL     OW30186   4.169   4.224   0.884
 6052SOL    HW130187   4.177   4.126   0.865
 6052SOL    HW230188   4.227   4.247   0.962
 6053SOL     OW30189   9.318   3.759   1.416
 6053SOL    HW130190   9.357   3.700   1.486
 6053SOL    HW230191   9.310   3.852   1.452
 6054SOL     OW30192   3.278   5.401   4.864
 6054SOL    HW130193   3.315   5.314   4.896
 6054SOL    HW230194   3.186   5.414   4.902
 6055SOL     OW30195   7.824   4.525   0.595
 6055SOL    HW130196   7.873   4.596   0.544
 6055SOL    HW230197   7.868   4.512   0.684
 6056SOL     OW30198   9.459   5.183   0.290
 6056SOL    HW130199   9.394   5.134   0.348
 6056SOL    HW230200   9.413   5.263   0.249
 6057SOL     OW30201   6.661   3.617   2.026
 6057SOL    HW130202   6.564   3.636   2.008
 6057SOL    HW230203   6.674   3.598   2.123
 6058SOL     OW30204   4.448   7.836   6.191
 6058SOL    HW130205   4.469   7.820   6.095
 6058SOL    HW230206   4.533   7.836   6.244
 6059SOL     OW30207   0.149   4.235   6.502
 6059SOL    HW130208   0.070   4.175   6.492
 6059SOL    HW230209   0.211   4.222   6.425
 6060SOL     OW30210   0.155   7.044   0.499
 6060SOL    HW130211   0.208   7.007   0.575
 6060SOL    HW230212   0.197   7.129   0.467
 6061SOL     OW30213   1.259   7.207   1.408
 6061SOL    HW130214   1.249   7.282   1.473
 6061SOL    HW230215   1.342   7.155   1.430
 6062SOL     OW30216   5.468   2.635   1.148
 6062SOL    HW130217   5.496   2.557   1.204
 6062SOL    HW230218   5.528   2.713   1.166
 6063SOL     OW30219   5.830   4.318   1.448
 6063SOL    HW130220   5.911   4.360   1.488
 6063SOL    HW230221   5.807   4.234   1.498
 6064SOL     OW30222   4.180   1.506   0.229
 6064SOL    HW130223   4.273   1.473   0.216
 6064SOL    HW230224   4.145   1.541   0.142
 6065SOL     OW30225   7.165   3.010   6.663
 6065SOL    HW130226   7.178   3.103   6.630
 6065SOL    HW230227   7.086   2.969   6.618
 6066SOL     OW30228   7.862   2.937   1.532
 6066SOL    HW130229   7.783   2.945   1.592
 6066SOL    HW230230   7.946   2.943   1.586
 6067SOL     OW30231   4.211   6.144   1.545
 6067SOL    HW130232   4.295   6.113   1.589
 6067SOL    HW230233   4.134   6.088   1.576
 6068SOL     OW30234   8.437   6.864   6.695
 6068SOL    HW130235   8.360   6.872   6.758
 6068SOL    HW230236   8.479   6.954   6.683
 6069SOL     OW30237   3.593   8.286   0.306
 6069SOL    HW130238   3.602   8.198   0.259
 6069SOL    HW230239   3.645   8.356   0.256
 6070SOL     OW30240   4.332   3.420   6.349
 6070SOL    HW130241   4.261   3.427   6.279
 6070SOL    HW230242   4.295   3.447   6.437
 6071SOL     OW30243   8.545   4.687   6.226
 6071SOL    HW130244   8.545   4.651   6.319
 6071SOL    HW230245   8.634   4.727   6.205
 6072SOL     OW30246   7.900   8.067   2.054
 6072SOL    HW130247   7.897   7.978   2.100
 6072SOL    HW230248   7.866   8.137   2.116
 6073SOL     OW30249   2.395   7.645   5.760
 6073SOL    HW130250   2.389   7.731   5.811
 6073SOL    HW230251   2.328   7.580   5.796
 6074SOL     OW30252   1.513   5.527   6.138
 6074SOL    HW130253   1.569   5.510   6.219
 6074SOL    HW230254   1.503   5.442   6.086
 6075SOL     OW30255   5.055   5.589   0.435
 6075SOL    HW130256   4.967   5.636   0.431
 6075SOL    HW230257   5.062   5.540   0.522
 6076SOL     OW30258   8.647   5.025   5.793
 6076SOL    HW130259   8.617   5.103   5.739
 6076SOL    HW230260   8.580   5.006   5.864
 6077SOL     OW30261   7.594   5.824   5.789
 6077SOL    HW130262   7.515   5.885   5.777
 6077SOL    HW230263   7.582   5.770   5.872
 6078SOL     OW30264   5.480   0.412   6.394
 6078SOL    HW130265   5.511   0.320   6.369
 6078SOL    HW230266   5.460   0.464   6.310
 6079SOL     OW30267   4.149   8.396   5.697
 6079SOL    HW130268   4.225   8.348   5.652
 6079SOL    HW230269   4.158   8.495   5.680
 6080SOL     OW30270   0.936   7.315   0.712
 6080SOL    HW130271   0.849   7.340   0.669
 6080SOL    HW230272   0.922   7.235   0.771
 6081SOL     OW30273   3.348   2.806   0.372
 6081SOL    HW130274   3.326   2.894   0.415
 6081SOL    HW230275   3.328   2.811   0.274
 6082SOL     OW30276   1.250   1.712   1.402
 6082SOL    HW130277   1.248   1.629   1.347
 6082SOL    HW230278   1.333   1.764   1.383
 6083SOL     OW30279   1.661   4.677   5.556
 6083SOL    HW130280   1.654   4.742   5.481
 6083SOL    HW230281   1.607   4.595   5.534
 6084SOL     OW30282   3.301   0.465   1.493
 6084SOL    HW130283   3.398   0.442   1.491
 6084SOL    HW230284   3.262   0.437   1.580
 6085SOL     OW30285   6.073   0.489   1.266
 6085SOL    HW130286   6.065   0.540   1.180
 6085SOL    HW230287   6.157   0.516   1.313
 6086SOL     OW30288   8.596   7.491   4.522
 6086SOL    HW130289   8.593   7.399   4.559
 6086SOL    HW230290   8.642   7.490   4.433
 6087SOL     OW30291   6.982   5.112   1.188
 6087SOL    HW130292   7.068   5.062   1.191
 6087SOL    HW230293   6.993   5.199   1.237
 6088SOL     OW30294   8.451   5.785   5.988
 6088SOL    HW130295   8.547   5.755   5.994
 6088SOL    HW230296   8.431   5.811   5.893
 6089SOL     OW30297   9.308   7.221   6.641
 6089SOL    HW130298   9.290   7.177   6.553
 6089SOL    HW230299   9.334   7.316   6.627
 6090SOL     OW30300   6.779   1.458   6.006
 6090SOL    HW130301   6.756   1.495   5.915
 6090SOL    HW230302   6.779   1.358   6.002
 6091SOL     OW30303   9.212   3.654   0.962
 6091SOL    HW130304   9.263   3.700   1.035
 6091SOL    HW230305   9.123   3.624   0.998
 6092SOL     OW30306   0.371   3.823   6.091
 6092SOL    HW130307   0.422   3.847   6.008
 6092SOL    HW230308   0.392   3.729   6.117
 6093SOL     OW30309   9.458   1.829   0.214
 6093SOL    HW130310   9.361   1.853   0.208
 6093SOL    HW230311   9.467   1.730   0.208
 6094SOL     OW30312   0.706   2.599   0.303
 6094SOL    HW130313   0.765   2.569   0.378
 6094SOL    HW230314   0.619   2.551   0.308
 6095SOL     OW30315   0.708   6.494   1.017
 6095SOL    HW130316   0.653   6.417   1.050
 6095SOL    HW230317   0.708   6.567   1.085
 6096SOL     OW30318   1.878   4.585   1.150
 6096SOL    HW130319   1.862   4.624   1.059
 6096SOL    HW230320   1.827   4.637   1.218
 6097SOL     OW30321   1.341   3.278   6.312
 6097SOL    HW130322   1.266   3.331   6.352
 6097SOL    HW230323   1.347   3.297   6.214
 6098SOL     OW30324   5.446   7.147   6.062
 6098SOL    HW130325   5.409   7.086   5.992
 6098SOL    HW230326   5.545   7.152   6.052
 6099SOL     OW30327   9.081   6.350   6.155
 6099SOL    HW130328   9.169   6.388   6.182
 6099SOL    HW230329   9.016   6.359   6.230
 6100SOL     OW30330   4.848   2.628   0.694
 6100SOL    HW130331   4.910   2.706   0.686
 6100SOL    HW230332   4.784   2.643   0.769
 6101SOL     OW30333   5.979   6.331   5.132
 6101SOL    HW130334   5.914   6.260   5.107
 6101SOL    HW230335   5.934   6.399   5.190
 6102SOL     OW30336   6.396   4.247   6.659
 6102SOL    HW130337   6.355   4.210   6.743
 6102SOL    HW230338   6.323   4.271   6.595
 6103SOL     OW30339   7.936   1.310   0.392
 6103SOL    HW130340   7.918   1.404   0.361
 6103SOL    HW230341   7.876   1.247   0.344
 6104SOL     OW30342   1.981   5.567   0.283
 6104SOL    HW130343   1.945   5.659   0.301
 6104SOL    HW230344   2.029   5.533   0.364
 6105SOL     OW30345   8.783   8.205   6.217
 6105SOL    HW130346   8.724   8.178   6.293
 6105SOL    HW230347   8.750   8.162   6.133
 6106SOL     OW30348   2.210   1.149   1.128
 6106SOL    HW130349   2.142   1.103   1.185
 6106SOL    HW230350   2.265   1.209   1.185
 6107SOL     OW30351   3.006   0.718   0.476
 6107SOL    HW130352   3.003   0.620   0.494
 6107SOL    HW230353   3.091   0.756   0.513
 6108SOL     OW30354   2.563   7.287   6.378
 6108SOL    HW130355   2.485   7.325   6.328
 6108SOL    HW230356   2.532   7.221   6.446
 6109SOL     OW30357   7.179   7.311   1.483
 6109SOL    HW130358   7.202   7.217   1.508
 6109SOL    HW230359   7.119   7.350   1.554
 6110SOL     OW30360   3.696   3.999   6.841
 6110SOL    HW130361   3.748   4.071   6.796
 6110SOL    HW230362   3.601   4.030   6.854
 6111SOL     OW30363   5.984   0.839   5.593
 6111SOL    HW130364   5.886   0.841   5.572
 6111SOL    HW230365   6.031   0.906   5.536
 6112SOL     OW30366   3.642   0.373   6.765
 6112SOL    HW130367   3.565   0.347   6.822
 6112SOL    HW230368   3.616   0.368   6.669
 6113SOL     OW30369   1.523   4.689   6.009
 6113SOL    HW130370   1.424   4.700   6.014
 6113SOL    HW230371   1.568   4.760   6.063
 6114SOL     OW30372   2.167   4.734   1.464
 6114SOL    HW130373   2.148   4.799   1.391
 6114SOL    HW230374   2.159   4.779   1.553
 6115SOL     OW30375   2.547   3.147   0.472
 6115SOL    HW130376   2.472   3.104   0.522
 6115SOL    HW230377   2.632   3.135   0.523
 6116SOL     OW30378   7.266   8.011   0.993
 6116SOL    HW130379   7.344   7.992   0.933
 6116SOL    HW230380   7.235   7.925   1.034
 6117SOL     OW30381   6.852   3.361   1.338
 6117SOL    HW130382   6.765   3.389   1.296
 6117SOL    HW230383   6.894   3.439   1.384
 6118SOL     OW30384   7.907   1.138   5.536
 6118SOL    HW130385   7.974   1.066   5.515
 6118SOL    HW230386   7.839   1.143   5.463
 6119SOL     OW30387   8.541   0.448   6.300
 6119SOL    HW130388   8.582   0.514   6.364
 6119SOL    HW230389   8.541   0.487   6.208
 6120SOL     OW30390   2.019   3.097   0.791
 6120SOL    HW130391   2.115   3.110   0.766
 6120SOL    HW230392   2.013   3.072   0.888
 6121SOL     OW30393   2.143   0.993   0.509
 6121SOL    HW130394   2.099   0.984   0.420
 6121SOL    HW230395   2.243   0.988   0.497
 6122SOL     OW30396   3.226   1.249   1.895
 6122SOL    HW130397   3.290   1.325   1.881
 6122SOL    HW230398   3.141   1.285   1.934
 6123SOL     OW30399   7.508   1.552   0.457
 6123SOL    HW130400   7.519   1.592   0.548
 6123SOL    HW230401   7.453   1.613   0.399
 6124SOL     OW30402   0.840   0.672   0.752
 6124SOL    HW130403   0.751   0.632   0.729
 6124SOL    HW230404   0.828   0.742   0.822
 6125SOL     OW30405   3.709   4.796   1.940
 6125SOL    HW130406   3.620   4.822   1.977
 6125SOL    HW230407   3.765   4.755   2.012
 6126SOL     OW30408   9.538   5.245   1.330
 6126SOL    HW130409   9.536   5.331   1.382
 6126SOL    HW230410   9.628   5.203   1.338
 6127SOL     OW30411   0.973   2.831   6.262
 6127SOL    HW130412   0.917   2.781   6.328
 6127SOL    HW230413   0.914   2.884   6.201
 6128SOL     OW30414   4.360   0.842   0.561
 6128SOL    HW130415   4.275   0.803   0.526
 6128SOL    HW230416   4.435   0.779   0.543
 6129SOL     OW30417   8.282   2.212   6.616
 6129SOL    HW130418   8.301   2.117   6.638
 6129SOL    HW230419   8.254   2.261   6.698
 6130SOL     OW30420   7.380   7.566   1.050
 6130SOL    HW130421   7.319   7.632   1.095
 6130SOL    HW230422   7.378   7.480   1.102
 6131SOL     OW30423   4.735   0.773   6.341
 6131SOL    HW130424   4.794   0.846   6.375
 6131SOL    HW230425   4.708   0.714   6.416
 6132SOL     OW30426   7.756   5.383   5.611
 6132SOL    HW130427   7.783   5.381   5.515
 6132SOL    HW230428   7.715   5.472   5.632
 6133SOL     OW30429   4.139   1.217   1.824
 6133SOL    HW130430   4.083   1.221   1.906
 6133SOL    HW230431   4.117   1.134   1.772
 6134SOL     OW30432   6.978   1.823   2.026
 6134SOL    HW130433   6.981   1.830   1.926
 6134SOL    HW230434   6.906   1.758   2.053
 6135SOL     OW30435   4.015   5.656   0.736
 6135SOL    HW130436   4.094   5.714   0.758
 6135SOL    HW230437   4.033   5.605   0.652
 6136SOL     OW30438   6.153   5.257   5.741
 6136SOL    HW130439   6.073   5.257   5.801
 6136SOL    HW230440   6.232   5.296   5.790
 6137SOL     OW30441   4.408   1.662   1.583
 6137SOL    HW130442   4.442   1.751   1.612
 6137SOL    HW230443   4.320   1.672   1.538
 6138SOL     OW30444   6.187   7.405   5.222
 6138SOL    HW130445   6.103   7.456   5.238
 6138SOL    HW230446   6.265   7.468   5.223
 6139SOL     OW30447   4.927   5.964   5.797
 6139SOL    HW130448   4.951   5.922   5.709
 6139SOL    HW230449   4.829   5.987   5.796
 6140SOL     OW30450   7.854   3.243   0.569
 6140SOL    HW130451   7.916   3.321   0.564
 6140SOL    HW230452   7.770   3.271   0.615
 6141SOL     OW30453   6.419   6.879   5.643
 6141SOL    HW130454   6.514   6.866   5.672
 6141SOL    HW230455   6.371   6.791   5.644
 6142SOL     OW30456   5.774   3.246   0.936
 6142SOL    HW130457   5.778   3.166   0.997
 6142SOL    HW230458   5.703   3.308   0.968
 6143SOL     OW30459   7.161   2.257   1.931
 6143SOL    HW130460   7.175   2.160   1.911
 6143SOL    HW230461   7.082   2.267   1.992
 6144SOL     OW30462   0.654   7.304   0.323
 6144SOL    HW130463   0.558   7.322   0.304
 6144SOL    HW230464   0.671   7.313   0.421
 6145SOL     OW30465   0.913   5.125   5.001
 6145SOL    HW130466   0.926   5.207   4.945
 6145SOL    HW230467   0.904   5.045   4.942
 6146SOL     OW30468   4.138   4.365   0.259
 6146SOL    HW130469   4.167   4.283   0.309
 6146SOL    HW230470   4.176   4.364   0.167
 6147SOL     OW30471   1.153   7.555   4.262
 6147SOL    HW130472   1.231   7.550   4.200
 6147SOL    HW230473   1.103   7.640   4.247
 6148SOL     OW30474   3.090   1.085   5.938
 6148SOL    HW130475   3.140   1.036   5.866
 6148SOL    HW230476   3.048   1.020   6.000
 6149SOL     OW30477   6.627   1.321   0.572
 6149SOL    HW130478   6.684   1.363   0.643
 6149SOL    HW230479   6.531   1.330   0.598
 6150SOL     OW30480   2.194   5.459   6.567
 6150SOL    HW130481   2.134   5.450   6.646
 6150SOL    HW230482   2.286   5.483   6.597
 6151SOL     OW30483   4.429   7.469   1.714
 6151SOL    HW130484   4.443   7.371   1.726
 6151SOL    HW230485   4.512   7.519   1.741
 6152SOL     OW30486   3.921   5.393   0.317
 6152SOL    HW130487   3.956   5.410   0.225
 6152SOL    HW230488   3.838   5.447   0.332
 6153SOL     OW30489   6.610   8.346   0.987
 6153SOL    HW130490   6.651   8.258   0.963
 6153SOL    HW230491   6.530   8.362   0.930
 6154SOL     OW30492   1.170   7.804   5.666
 6154SOL    HW130493   1.095   7.784   5.729
 6154SOL    HW230494   1.136   7.804   5.572
 6155SOL     OW30495   1.716   0.412   0.603
 6155SOL    HW130496   1.764   0.500   0.597
 6155SOL    HW230497   1.620   0.428   0.627
 6156SOL     OW30498   3.779   4.081   1.949
 6156SOL    HW130499   3.798   4.109   2.043
 6156SOL    HW230500   3.688   4.113   1.923
 6157SOL     OW30501   9.272   5.463   0.685
 6157SOL    HW130502   9.330   5.382   0.678
 6157SOL    HW230503   9.282   5.503   0.777
 6158SOL     OW30504   0.390   0.894   1.497
 6158SOL    HW130505   0.293   0.915   1.480
 6158SOL    HW230506   0.398   0.840   1.581
 6159SOL     OW30507   9.137   1.785   0.987
 6159SOL    HW130508   9.062   1.831   0.939
 6159SOL    HW230509   9.135   1.810   1.084
 6160SOL     OW30510   1.885   4.822   4.811
 6160SOL    HW130511   1.844   4.857   4.727
 6160SOL    HW230512   1.835   4.742   4.842
 6161SOL     OW30513   2.491   7.569   1.381
 6161SOL    HW130514   2.410   7.555   1.323
 6161SOL    HW230515   2.463   7.612   1.467
 6162SOL     OW30516   3.184   4.240   5.753
 6162SOL    HW130517   3.222   4.186   5.678
 6162SOL    HW230518   3.232   4.218   5.838
 6163SOL     OW30519   2.827   0.859   6.541
 6163SOL    HW130520   2.778   0.832   6.624
 6163SOL    HW230521   2.837   0.958   6.538
 6164SOL     OW30522   3.006   1.707   6.589
 6164SOL    HW130523   2.975   1.620   6.627
 6164SOL    HW230524   2.941   1.737   6.518
 6165SOL     OW30525   3.115   6.864   6.566
 6165SOL    HW130526   3.056   6.942   6.584
 6165SOL    HW230527   3.199   6.896   6.522
 6166SOL     OW30528   4.470   4.099   6.443
 6166SOL    HW130529   4.455   4.115   6.345
 6166SOL    HW230530   4.542   4.160   6.476
 6167SOL     OW30531   4.736   1.771   0.255
 6167SOL    HW130532   4.734   1.787   0.354
 6167SOL    HW230533   4.670   1.831   0.210
 6168SOL     OW30534   0.187   6.142   0.287
 6168SOL    HW130535   0.256   6.071   0.299
 6168SOL    HW230536   0.119   6.112   0.220
 6169SOL     OW30537   7.040   6.980   5.698
 6169SOL    HW130538   7.072   7.052   5.759
 6169SOL    HW230539   7.119   6.931   5.660
 6170SOL     OW30540   5.913   7.725   1.426
 6170SOL    HW130541   5.944   7.696   1.516
 6170SOL    HW230542   5.932   7.822   1.414
 6171SOL     OW30543   7.486   4.856   1.103
 6171SOL    HW130544   7.412   4.898   1.050
 6171SOL    HW230545   7.514   4.919   1.175
 6172SOL     OW30546   6.610   5.790   0.860
 6172SOL    HW130547   6.555   5.840   0.927
 6172SOL    HW230548   6.643   5.854   0.791
 6173SOL     OW30549   4.172   0.183   6.343
 6173SOL    HW130550   4.195   0.114   6.413
 6173SOL    HW230551   4.224   0.165   6.260
 6174SOL     OW30552   0.622   3.364   0.612
 6174SOL    HW130553   0.606   3.454   0.571
 6174SOL    HW230554   0.536   3.330   0.650
 6175SOL     OW30555   0.234   1.341   6.065
 6175SOL    HW130556   0.294   1.341   5.985
 6175SOL    HW230557   0.254   1.422   6.121
 6176SOL     OW30558   4.032   3.894   6.643
 6176SOL    HW130559   4.006   3.971   6.701
 6176SOL    HW230560   4.117   3.854   6.677
 6177SOL     OW30561   5.080   4.288   0.689
 6177SOL    HW130562   5.021   4.352   0.640
 6177SOL    HW230563   5.125   4.335   0.765
 6178SOL     OW30564   7.170   3.439   0.691
 6178SOL    HW130565   7.193   3.366   0.755
 6178SOL    HW230566   7.253   3.488   0.664
 6179SOL     OW30567   8.208   2.163   1.155
 6179SOL    HW130568   8.296   2.204   1.134
 6179SOL    HW230569   8.138   2.234   1.163
 6180SOL     OW30570   0.880   3.363   0.758
 6180SOL    HW130571   0.950   3.387   0.691
 6180SOL    HW230572   0.790   3.384   0.722
 6181SOL     OW30573   3.179   7.769   6.159
 6181SOL    HW130574   3.088   7.791   6.125
 6181SOL    HW230575   3.245   7.834   6.120
 6182SOL     OW30576   4.222   6.840   0.595
 6182SOL    HW130577   4.172   6.823   0.511
 6182SOL    HW230578   4.203   6.767   0.661
 6183SOL     OW30579   1.482   2.641   0.353
 6183SOL    HW130580   1.565   2.644   0.407
 6183SOL    HW230581   1.432   2.556   0.372
 6184SOL     OW30582   3.141   3.630   5.851
 6184SOL    HW130583   3.160   3.550   5.794
 6184SOL    HW230584   3.132   3.711   5.794
 6185SOL     OW30585   2.253   1.496   6.526
 6185SOL    HW130586   2.242   1.462   6.432
 6185SOL    HW230587   2.167   1.487   6.575
 6186SOL     OW30588   1.820   4.213   6.140
 6186SOL    HW130589   1.734   4.236   6.095
 6186SOL    HW230590   1.884   4.289   6.132
 6187SOL     OW30591   4.944   7.193   0.625
 6187SOL    HW130592   5.041   7.214   0.614
 6187SOL    HW230593   4.922   7.184   0.722
 6188SOL     OW30594   1.680   7.209   1.378
 6188SOL    HW130595   1.637   7.135   1.429
 6188SOL    HW230596   1.618   7.287   1.374
 6189SOL     OW30597   7.150   6.998   0.266
 6189SOL    HW130598   7.223   6.931   0.254
 6189SOL    HW230599   7.181   7.072   0.325
 6190SOL     OW30600   9.596   8.023   5.072
 6190SOL    HW130601   9.689   8.018   5.108
 6190SOL    HW230602   9.583   8.112   5.028
 6191SOL     OW30603   0.146   6.476   5.624
 6191SOL    HW130604   0.130   6.557   5.679
 6191SOL    HW230605   0.128   6.394   5.678
 6192SOL     OW30606   8.801   3.794   5.875
 6192SOL    HW130607   8.722   3.826   5.823
 6192SOL    HW230608   8.868   3.753   5.813
 6193SOL     OW30609   5.904   8.400   2.010
 6193SOL    HW130610   5.835   8.330   2.027
 6193SOL    HW230611   5.922   8.450   2.095
 6194SOL     OW30612   7.346   0.278   1.431
 6194SOL    HW130613   7.389   0.197   1.471
 6194SOL    HW230614   7.254   0.290   1.471
 6195SOL     OW30615   6.593   2.700   6.494
 6195SOL    HW130616   6.561   2.746   6.411
 6195SOL    HW230617   6.663   2.757   6.539
 6196SOL     OW30618   2.080   3.664   6.153
 6196SOL    HW130619   2.018   3.632   6.081
 6196SOL    HW230620   2.043   3.640   6.243
 6197SOL     OW30621   6.252   6.051   6.828
 6197SOL    HW130622   6.171   5.994   6.836
 6197SOL    HW230623   6.302   6.026   6.744
 6198SOL     OW30624   3.696   2.973   1.187
 6198SOL    HW130625   3.612   2.993   1.136
 6198SOL    HW230626   3.741   2.893   1.148
 6199SOL     OW30627   1.159   8.224   6.212
 6199SOL    HW130628   1.109   8.275   6.282
 6199SOL    HW230629   1.247   8.267   6.196
 6200SOL     OW30630   7.307   5.310   6.052
 6200SOL    HW130631   7.233   5.318   6.119
 6200SOL    HW230632   7.272   5.268   5.969
 6201SOL     OW30633   9.213   1.529   5.927
 6201SOL    HW130634   9.172   1.619   5.912
 6201SOL    HW230635   9.312   1.535   5.918
 6202SOL     OW30636   6.834   7.335   5.416
 6202SOL    HW130637   6.809   7.243   5.447
 6202SOL    HW230638   6.789   7.354   5.329
 6203SOL     OW30639   1.448   6.858   6.311
 6203SOL    HW130640   1.463   6.919   6.389
 6203SOL    HW230641   1.490   6.769   6.330
 6204SOL     OW30642   8.491   1.120   5.966
 6204SOL    HW130643   8.537   1.044   5.920
 6204SOL    HW230644   8.401   1.134   5.925
 6205SOL     OW30645   2.970   5.883   6.363
 6205SOL    HW130646   2.987   5.981   6.354
 6205SOL    HW230647   3.014   5.849   6.447
 6206SOL     OW30648   3.390   1.333   2.151
 6206SOL    HW130649   3.392   1.233   2.157
 6206SOL    HW230650   3.466   1.371   2.203
 6207SOL     OW30651   4.646   5.993   1.823
 6207SOL    HW130652   4.712   5.946   1.882
 6207SOL    HW230653   4.693   6.029   1.743
 6208SOL     OW30654   1.195   4.519   0.575
 6208SOL    HW130655   1.096   4.522   0.560
 6208SOL    HW230656   1.242   4.502   0.489
 6209SOL     OW30657   1.571   0.675   5.973
 6209SOL    HW130658   1.559   0.774   5.974
 6209SOL    HW230659   1.482   0.630   5.975
 6210SOL     OW30660   6.313   7.468   0.544
 6210SOL    HW130661   6.288   7.376   0.512
 6210SOL    HW230662   6.230   7.520   0.564
 6211SOL     OW30663   1.409   0.204   5.946
 6211SOL    HW130664   1.401   0.276   6.015
 6211SOL    HW230665   1.499   0.161   5.953
 6212SOL     OW30666   3.499   2.921   1.626
 6212SOL    HW130667   3.495   2.930   1.526
 6212SOL    HW230668   3.592   2.943   1.657
 6213SOL     OW30669   2.954   3.430   0.536
 6213SOL    HW130670   3.003   3.352   0.575
 6213SOL    HW230671   2.994   3.455   0.448
 6214SOL     OW30672   5.279   3.404   0.335
 6214SOL    HW130673   5.274   3.322   0.278
 6214SOL    HW230674   5.187   3.438   0.353
 6215SOL     OW30675   6.810   4.920   6.155
 6215SOL    HW130676   6.831   4.919   6.058
 6215SOL    HW230677   6.828   5.011   6.193
 6216SOL     OW30678   2.887   5.557   6.236
 6216SOL    HW130679   2.892   5.646   6.282
 6216SOL    HW230680   2.979   5.519   6.227
 6217SOL     OW30681   3.639   7.851   6.672
 6217SOL    HW130682   3.627   7.934   6.618
 6217SOL    HW230683   3.552   7.802   6.677
 6218SOL     OW30684   4.339   0.525   6.729
 6218SOL    HW130685   4.336   0.458   6.655
 6218SOL    HW230686   4.361   0.615   6.693
 6219SOL     OW30687   6.343   5.986   0.813
 6219SOL    HW130688   6.349   6.037   0.727
 6219SOL    HW230689   6.426   6.003   0.867
 6220SOL     OW30690   0.829   0.740   5.874
 6220SOL    HW130691   0.832   0.840   5.882
 6220SOL    HW230692   0.734   0.709   5.883
 6221SOL     OW30693   8.219   6.092   0.579
 6221SOL    HW130694   8.240   6.141   0.663
 6221SOL    HW230695   8.121   6.074   0.574
 6222SOL     OW30696   4.424   0.015   1.198
 6222SOL    HW130697   4.489  -0.050   1.236
 6222SOL    HW230698   4.333  -0.026   1.198
 6223SOL     OW30699   3.249   7.337   1.796
 6223SOL    HW130700   3.171   7.384   1.755
 6223SOL    HW230701   3.270   7.378   1.885
 6224SOL     OW30702   3.095   7.246   5.550
 6224SOL    HW130703   3.084   7.147   5.546
 6224SOL    HW230704   3.156   7.276   5.477
 6225SOL     OW30705   9.462   7.272   6.260
 6225SOL    HW130706   9.520   7.349   6.289
 6225SOL    HW230707   9.514   7.187   6.266
 6226SOL     OW30708   2.848   0.808   1.639
 6226SOL    HW130709   2.887   0.729   1.685
 6226SOL    HW230710   2.749   0.797   1.631
 6227SOL     OW30711   4.835   3.207   6.849
 6227SOL    HW130712   4.754   3.163   6.811
 6227SOL    HW230713   4.917   3.168   6.808
 6228SOL     OW30714   8.223   4.671   0.747
 6228SOL    HW130715   8.285   4.616   0.691
 6228SOL    HW230716   8.129   4.659   0.714
 6229SOL     OW30717   2.399   2.575   1.202
 6229SOL    HW130718   2.325   2.509   1.215
 6229SOL    HW230719   2.383   2.654   1.261
 6230SOL     OW30720   4.813   0.449   5.594
 6230SOL    HW130721   4.869   0.516   5.544
 6230SOL    HW230722   4.733   0.496   5.634
 6231SOL     OW30723   8.678   3.441   0.407
 6231SOL    HW130724   8.579   3.431   0.411
 6231SOL    HW230725   8.711   3.405   0.319
 6232SOL     OW30726   4.860   0.687   4.947
 6232SOL    HW130727   4.780   0.745   4.957
 6232SOL    HW230728   4.929   0.733   4.892
 6233SOL     OW30729   8.232   6.634   4.882
 6233SOL    HW130730   8.157   6.630   4.948
 6233SOL    HW230731   8.221   6.560   4.816
 6234SOL     OW30732   0.300   5.650   5.021
 6234SOL    HW130733   0.278   5.639   5.118
 6234SOL    HW230734   0.398   5.664   5.010
 6235SOL     OW30735   5.478   5.205   1.431
 6235SOL    HW130736   5.536   5.194   1.512
 6235SOL    HW230737   5.536   5.218   1.350
 6236SOL     OW30738   0.174   3.636   6.679
 6236SOL    HW130739   0.088   3.585   6.674
 6236SOL    HW230740   0.178   3.701   6.602
 6237SOL     OW30741   1.756   6.810   5.183
 6237SOL    HW130742   1.840   6.757   5.197
 6237SOL    HW230743   1.739   6.819   5.084
 6238SOL     OW30744   4.420   2.963   0.355
 6238SOL    HW130745   4.364   2.884   0.329
 6238SOL    HW230746   4.408   3.036   0.287
 6239SOL     OW30747   7.246   4.057   0.937
 6239SOL    HW130748   7.279   3.992   1.005
 6239SOL    HW230749   7.264   4.150   0.969
 6240SOL     OW30750   0.677   6.024   6.910
 6240SOL    HW130751   0.670   5.982   6.819
 6240SOL    HW230752   0.595   6.002   6.962
 6241SOL     OW30753   1.708   7.309   0.665
 6241SOL    HW130754   1.666   7.240   0.724
 6241SOL    HW230755   1.775   7.361   0.718
 6242SOL     OW30756   0.545   0.580   0.262
 6242SOL    HW130757   0.606   0.659   0.260
 6242SOL    HW230758   0.491   0.581   0.347
 6243SOL     OW30759   5.295   6.482   5.279
 6243SOL    HW130760   5.205   6.512   5.250
 6243SOL    HW230761   5.322   6.401   5.226
 6244SOL     OW30762   1.473   1.106   1.027
 6244SOL    HW130763   1.436   1.094   1.119
 6244SOL    HW230764   1.477   1.017   0.981
 6245SOL     OW30765   6.531   5.935   6.764
 6245SOL    HW130766   6.494   5.843   6.752
 6245SOL    HW230767   6.594   5.936   6.841
 6246SOL     OW30768   3.850   2.874   6.365
 6246SOL    HW130769   3.837   2.858   6.267
 6246SOL    HW230770   3.915   2.948   6.379
 6247SOL     OW30771   8.430   2.628   6.322
 6247SOL    HW130772   8.403   2.622   6.226
 6247SOL    HW230773   8.469   2.540   6.351
 6248SOL     OW30774   0.871   7.170   1.622
 6248SOL    HW130775   0.821   7.246   1.664
 6248SOL    HW230776   0.880   7.096   1.688
 6249SOL     OW30777   5.781   0.493   1.117
 6249SOL    HW130778   5.758   0.416   1.176
 6249SOL    HW230779   5.865   0.472   1.067
 6250SOL     OW30780   8.828   7.080   6.711
 6250SOL    HW130781   8.896   7.118   6.773
 6250SOL    HW230782   8.737   7.111   6.738
 6251SOL     OW30783   0.151   1.566   6.511
 6251SOL    HW130784   0.052   1.572   6.519
 6251SOL    HW230785   0.193   1.590   6.598
 6252SOL     OW30786   9.352   2.275   6.106
 6252SOL    HW130787   9.404   2.196   6.074
 6252SOL    HW230788   9.260   2.272   6.066
 6253SOL     OW30789   2.279   7.129   5.658
 6253SOL    HW130790   2.291   7.159   5.564
 6253SOL    HW230791   2.321   7.039   5.670
 6254SOL     OW30792   1.182   6.920   4.726
 6254SOL    HW130793   1.257   6.892   4.666
 6254SOL    HW230794   1.188   6.871   4.813
 6255SOL     OW30795   9.442   0.233   0.895
 6255SOL    HW130796   9.386   0.160   0.856
 6255SOL    HW230797   9.538   0.214   0.877
 6256SOL     OW30798   1.942   7.771   1.111
 6256SOL    HW130799   1.965   7.696   1.173
 6256SOL    HW230800   1.973   7.750   1.019
 6257SOL     OW30801   3.772   7.129   1.218
 6257SOL    HW130802   3.826   7.082   1.288
 6257SOL    HW230803   3.781   7.228   1.230
 6258SOL     OW30804   5.631   7.354   6.827
 6258SOL    HW130805   5.570   7.346   6.748
 6258SOL    HW230806   5.680   7.268   6.840
 6259SOL     OW30807   8.885   3.834   1.044
 6259SOL    HW130808   8.881   3.740   1.078
 6259SOL    HW230809   8.975   3.872   1.065
 6260SOL     OW30810   9.456   2.801   0.571
 6260SOL    HW130811   9.472   2.759   0.481
 6260SOL    HW230812   9.530   2.776   0.633
 6261SOL     OW30813   6.568   0.580   0.793
 6261SOL    HW130814   6.549   0.676   0.770
 6261SOL    HW230815   6.506   0.551   0.866
 6262SOL     OW30816   9.562   1.310   0.774
 6262SOL    HW130817   9.487   1.374   0.792
 6262SOL    HW230818   9.648   1.349   0.807
 6263SOL     OW30819   7.972   3.596   2.020
 6263SOL    HW130820   7.923   3.616   2.104
 6263SOL    HW230821   7.982   3.497   2.011
 6264SOL     OW30822   6.166   0.988   6.705
 6264SOL    HW130823   6.216   0.957   6.624
 6264SOL    HW230824   6.230   1.006   6.779
 6265SOL     OW30825   3.984   4.536   0.701
 6265SOL    HW130826   4.039   4.618   0.714
 6265SOL    HW230827   3.912   4.532   0.771
 6266SOL     OW30828   6.715   1.558   5.748
 6266SOL    HW130829   6.654   1.532   5.673
 6266SOL    HW230830   6.777   1.630   5.718
 6267SOL     OW30831   0.294   0.200   0.612
 6267SOL    HW130832   0.261   0.107   0.628
 6267SOL    HW230833   0.386   0.209   0.651
 6268SOL     OW30834   4.382   4.693   0.745
 6268SOL    HW130835   4.362   4.653   0.656
 6268SOL    HW230836   4.297   4.710   0.794
 6269SOL     OW30837   6.071   6.597   1.165
 6269SOL    HW130838   6.127   6.623   1.087
 6269SOL    HW230839   6.025   6.511   1.146
 6270SOL     OW30840   7.811   2.362   6.194
 6270SOL    HW130841   7.846   2.269   6.205
 6270SOL    HW230842   7.846   2.419   6.268
 6271SOL     OW30843   4.644   3.086   6.709
 6271SOL    HW130844   4.612   2.997   6.675
 6271SOL    HW230845   4.690   3.135   6.635
 6272SOL     OW30846   9.241   5.393   6.582
 6272SOL    HW130847   9.339   5.379   6.574
 6272SOL    HW230848   9.223   5.474   6.638
 6273SOL     OW30849   9.066   3.849   6.729
 6273SOL    HW130850   9.057   3.845   6.828
 6273SOL    HW230851   9.087   3.942   6.700
 6274SOL     OW30852   9.462   8.368   0.872
 6274SOL    HW130853   9.498   8.414   0.953
 6274SOL    HW230854   9.390   8.424   0.831
 6275SOL     OW30855   6.657   2.457   1.471
 6275SOL    HW130856   6.591   2.444   1.397
 6275SOL    HW230857   6.623   2.526   1.535
 6276SOL     OW30858   5.606   4.675   1.480
 6276SOL    HW130859   5.621   4.770   1.507
 6276SOL    HW230860   5.584   4.621   1.561
 6277SOL     OW30861   0.627   7.031   4.076
 6277SOL    HW130862   0.716   6.988   4.090
 6277SOL    HW230863   0.639   7.130   4.069
 6278SOL     OW30864   7.737   1.896   0.799
 6278SOL    HW130865   7.808   1.848   0.851
 6278SOL    HW230866   7.757   1.994   0.797
 6279SOL     OW30867   9.052   4.234   6.078
 6279SOL    HW130868   9.135   4.185   6.051
 6279SOL    HW230869   8.975   4.201   6.023
 6280SOL     OW30870   7.773   7.186   6.247
 6280SOL    HW130871   7.813   7.233   6.326
 6280SOL    HW230872   7.801   7.090   6.249
 6281SOL     OW30873   5.635   5.077   0.332
 6281SOL    HW130874   5.575   5.018   0.386
 6281SOL    HW230875   5.719   5.093   0.382
 6282SOL     OW30876   7.897   3.222   0.237
 6282SOL    HW130877   7.907   3.319   0.260
 6282SOL    HW230878   7.817   3.185   0.284
 6283SOL     OW30879   7.673   2.419   5.816
 6283SOL    HW130880   7.635   2.506   5.786
 6283SOL    HW230881   7.773   2.424   5.814
 6284SOL     OW30882   6.838   3.349   6.062
 6284SOL    HW130883   6.844   3.328   5.964
 6284SOL    HW230884   6.744   3.339   6.092
 6285SOL     OW30885   7.710   4.638   6.814
 6285SOL    HW130886   7.616   4.672   6.816
 6285SOL    HW230887   7.723   4.573   6.889
 6286SOL     OW30888   7.852   2.144   0.813
 6286SOL    HW130889   7.852   2.209   0.737
 6286SOL    HW230890   7.941   2.146   0.859
 6287SOL     OW30891   6.414   4.124   5.008
 6287SOL    HW130892   6.372   4.177   4.935
 6287SOL    HW230893   6.358   4.131   5.091
 6288SOL     OW30894   2.799   2.424   0.253
 6288SOL    HW130895   2.776   2.348   0.193
 6288SOL    HW230896   2.722   2.444   0.313
 6289SOL     OW30897   1.654   6.306   1.367
 6289SOL    HW130898   1.743   6.270   1.341
 6289SOL    HW230899   1.631   6.275   1.460
 6290SOL     OW30900   8.658   7.780   6.254
 6290SOL    HW130901   8.663   7.783   6.154
 6290SOL    HW230902   8.600   7.704   6.283
 6291SOL     OW30903   0.904   7.711   6.871
 6291SOL    HW130904   0.884   7.613   6.873
 6291SOL    HW230905   0.993   7.728   6.914
 6292SOL     OW30906   3.192   6.395   6.138
 6292SOL    HW130907   3.188   6.355   6.046
 6292SOL    HW230908   3.271   6.358   6.186
 6293SOL     OW30909   2.528   4.566   5.760
 6293SOL    HW130910   2.559   4.503   5.688
 6293SOL    HW230911   2.599   4.573   5.830
 6294SOL     OW30912   0.158   8.383   1.100
 6294SOL    HW130913   0.241   8.386   1.045
 6294SOL    HW230914   0.127   8.288   1.107
 6295SOL     OW30915   4.796   0.285   0.401
 6295SOL    HW130916   4.861   0.239   0.462
 6295SOL    HW230917   4.730   0.218   0.366
 6296SOL     OW30918   5.055   0.963   0.790
 6296SOL    HW130919   4.973   1.019   0.791
 6296SOL    HW230920   5.032   0.871   0.758
 6297SOL     OW30921   0.259   4.222   6.235
 6297SOL    HW130922   0.241   4.314   6.202
 6297SOL    HW230923   0.350   4.193   6.207
 6298SOL     OW30924   6.911   4.976   5.524
 6298SOL    HW130925   6.825   4.924   5.523
 6298SOL    HW230926   6.916   5.034   5.443
 6299SOL     OW30927   8.494   7.416   1.155
 6299SOL    HW130928   8.477   7.511   1.129
 6299SOL    HW230929   8.592   7.399   1.158
 6300SOL     OW30930   3.828   3.376   0.792
 6300SOL    HW130931   3.827   3.352   0.695
 6300SOL    HW230932   3.798   3.470   0.804
 6301SOL     OW30933   7.441   5.019   1.488
 6301SOL    HW130934   7.412   5.012   1.584
 6301SOL    HW230935   7.518   4.958   1.473
 6302SOL     OW30936   8.175   6.573   6.324
 6302SOL    HW130937   8.104   6.554   6.257
 6302SOL    HW230938   8.247   6.628   6.282
 6303SOL     OW30939   0.937   6.775   1.518
 6303SOL    HW130940   0.986   6.862   1.507
 6303SOL    HW230941   0.983   6.720   1.587
 6304SOL     OW30942   1.055   7.607   1.094
 6304SOL    HW130943   1.084   7.532   1.035
 6304SOL    HW230944   1.091   7.592   1.187
 6305SOL     OW30945   5.081   0.129   6.571
 6305SOL    HW130946   5.026   0.183   6.633
 6305SOL    HW230947   5.147   0.188   6.524
 6306SOL     OW30948   4.588   2.110   0.920
 6306SOL    HW130949   4.557   2.021   0.888
 6306SOL    HW230950   4.657   2.098   0.992
 6307SOL     OW30951   6.831   6.692   6.335
 6307SOL    HW130952   6.858   6.679   6.239
 6307SOL    HW230953   6.887   6.634   6.393
 6308SOL     OW30954   4.974   4.343   1.059
 6308SOL    HW130955   5.041   4.418   1.054
 6308SOL    HW230956   5.014   4.261   1.018
 6309SOL     OW30957   8.405   3.068   5.827
 6309SOL    HW130958   8.390   3.100   5.733
 6309SOL    HW230959   8.391   2.969   5.831
 6310SOL     OW30960   8.675   0.556   0.484
 6310SOL    HW130961   8.745   0.507   0.536
 6310SOL    HW230962   8.627   0.493   0.424
 6311SOL     OW30963   8.432   6.602   1.635
 6311SOL    HW130964   8.423   6.549   1.719
 6311SOL    HW230965   8.344   6.605   1.587
 6312SOL     OW30966   0.745   0.549   0.479
 6312SOL    HW130967   0.764   0.522   0.573
 6312SOL    HW230968   0.787   0.483   0.416
 6313SOL     OW30969   2.268   2.277   6.406
 6313SOL    HW130970   2.283   2.179   6.410
 6313SOL    HW230971   2.189   2.296   6.347
 6314SOL     OW30972   7.286   7.903   6.003
 6314SOL    HW130973   7.296   7.803   6.001
 6314SOL    HW230974   7.194   7.926   6.034
 6315SOL     OW30975   4.796   3.725   1.652
 6315SOL    HW130976   4.697   3.729   1.657
 6315SOL    HW230977   4.833   3.710   1.744
 6316SOL     OW30978   5.151   2.003   0.443
 6316SOL    HW130979   5.089   2.064   0.492
 6316SOL    HW230980   5.233   2.053   0.417
 6317SOL     OW30981   3.319   6.401   0.742
 6317SOL    HW130982   3.350   6.456   0.819
 6317SOL    HW230983   3.369   6.315   0.739
 6318SOL     OW30984   4.835   6.773   5.791
 6318SOL    HW130985   4.836   6.688   5.844
 6318SOL    HW230986   4.753   6.825   5.814
 6319SOL     OW30987   5.156   4.544   0.410
 6319SOL    HW130988   5.250   4.543   0.445
 6319SOL    HW230989   5.122   4.638   0.408
 6320SOL     OW30990   8.273   2.256   5.590
 6320SOL    HW130991   8.194   2.208   5.552
 6320SOL    HW230992   8.355   2.233   5.537
 6321SOL     OW30993   1.548   6.640   6.897
 6321SOL    HW130994   1.622   6.706   6.910
 6321SOL    HW230995   1.538   6.621   6.799
 6322SOL     OW30996   7.811   7.145   1.818
 6322SOL    HW130997   7.831   7.047   1.820
 6322SOL    HW230998   7.858   7.190   1.894
 6323SOL     OW30999   3.818   0.482   1.665
 6323SOL    HW131000   3.768   0.493   1.751
 6323SOL    HW231001   3.907   0.526   1.672
 6324SOL     OW31002   2.182   7.518   5.928
 6324SOL    HW131003   2.127   7.539   6.009
 6324SOL    HW231004   2.188   7.419   5.916
 6325SOL     OW31005   3.219   8.064   0.762
 6325SOL    HW131006   3.221   7.964   0.756
 6325SOL    HW231007   3.309   8.098   0.787
 6326SOL     OW31008   7.084   4.457   5.625
 6326SOL    HW131009   7.160   4.512   5.591
 6326SOL    HW231010   7.076   4.373   5.571
 6327SOL     OW31011   3.241   6.862   6.930
 6327SOL    HW131012   3.207   6.768   6.932
 6327SOL    HW231013   3.333   6.863   6.892
 6328SOL     OW31014   3.982   8.154   5.865
 6328SOL    HW131015   3.985   8.248   5.831
 6328SOL    HW231016   4.072   8.128   5.900
 6329SOL     OW31017   5.348   7.606   0.363
 6329SOL    HW131018   5.293   7.690   0.365
 6329SOL    HW231019   5.434   7.622   0.411
 6330SOL     OW31020   2.234   6.205   6.613
 6330SOL    HW131021   2.211   6.228   6.519
 6330SOL    HW231022   2.252   6.289   6.665
 6331SOL     OW31023   7.284   0.866   6.775
 6331SOL    HW131024   7.325   0.818   6.853
 6331SOL    HW231025   7.265   0.801   6.701
 6332SOL     OW31026   5.257   3.067   6.649
 6332SOL    HW131027   5.179   3.109   6.603
 6332SOL    HW231028   5.248   2.967   6.645
 6333SOL     OW31029   7.851   4.721   1.012
 6333SOL    HW131030   7.870   4.817   0.993
 6333SOL    HW231031   7.828   4.710   1.109
 6334SOL     OW31032   3.799   7.971   0.759
 6334SOL    HW131033   3.726   7.967   0.691
 6334SOL    HW231034   3.768   7.925   0.842
 6335SOL     OW31035   2.059   8.238   1.878
 6335SOL    HW131036   2.156   8.229   1.902
 6335SOL    HW231037   2.027   8.153   1.837
 6336SOL     OW31038   9.437   0.447   6.037
 6336SOL    HW131039   9.438   0.468   5.939
 6336SOL    HW231040   9.513   0.385   6.059
 6337SOL     OW31041   4.265   4.145   0.341
 6337SOL    HW131042   4.289   4.073   0.406
 6337SOL    HW231043   4.281   4.112   0.248
 6338SOL     OW31044   0.309   0.831   0.438
 6338SOL    HW131045   0.246   0.900   0.403
 6338SOL    HW231046   0.364   0.871   0.511
 6339SOL     OW31047   6.001   0.236   1.369
 6339SOL    HW131048   6.074   0.179   1.332
 6339SOL    HW231049   5.999   0.323   1.321
 6340SOL     OW31050   6.270   7.900   5.841
 6340SOL    HW131051   6.208   7.822   5.831
 6340SOL    HW231052   6.289   7.939   5.751
 6341SOL     OW31053   3.390   5.932   0.430
 6341SOL    HW131054   3.464   5.984   0.389
 6341SOL    HW231055   3.304   5.953   0.383
 6342SOL     OW31056   4.270   7.457   5.667
 6342SOL    HW131057   4.246   7.535   5.609
 6342SOL    HW231058   4.187   7.412   5.698
 6343SOL     OW31059   7.617   4.971   5.052
 6343SOL    HW131060   7.703   4.919   5.052
 6343SOL    HW231061   7.627   5.051   5.111
 6344SOL     OW31062   8.346   1.309   1.034
 6344SOL    HW131063   8.342   1.330   0.936
 6344SOL    HW231064   8.257   1.275   1.064
 6345SOL     OW31065   0.420   0.609   0.498
 6345SOL    HW131066   0.373   0.534   0.545
 6345SOL    HW231067   0.357   0.685   0.485
 6346SOL     OW31068   8.808   6.037   5.845
 6346SOL    HW131069   8.720   6.017   5.802
 6346SOL    HW231070   8.882   6.014   5.782
 6347SOL     OW31071   7.553  -0.055   6.874
 6347SOL    HW131072   7.528  -0.121   6.945
 6347SOL    HW231073   7.518   0.035   6.899
 6348SOL     OW31074   2.373   0.353   6.543
 6348SOL    HW131075   2.431   0.317   6.615
 6348SOL    HW231076   2.285   0.382   6.582
 6349SOL     OW31077   9.418   5.479   6.090
 6349SOL    HW131078   9.368   5.453   6.172
 6349SOL    HW231079   9.508   5.516   6.117
 6350SOL     OW31080   6.500   4.573   6.368
 6350SOL    HW131081   6.574   4.612   6.313
 6350SOL    HW231082   6.533   4.491   6.415
 6351SOL     OW31083   6.429   7.679   6.740
 6351SOL    HW131084   6.371   7.697   6.819
 6351SOL    HW231085   6.377   7.690   6.656
 6352SOL     OW31086   2.950   3.485   0.945
 6352SOL    HW131087   3.028   3.509   0.888
 6352SOL    HW231088   2.914   3.567   0.989
 6353SOL     OW31089   7.277   2.089   0.409
 6353SOL    HW131090   7.203   2.048   0.463
 6353SOL    HW231091   7.249   2.092   0.313
 6354SOL     OW31092   4.230   3.313   1.105
 6354SOL    HW131093   4.146   3.266   1.130
 6354SOL    HW231094   4.210   3.380   1.033
 6355SOL     OW31095   4.055   1.354   1.469
 6355SOL    HW131096   4.129   1.288   1.458
 6355SOL    HW231097   4.071   1.409   1.551
 6356SOL     OW31098   7.946   0.286   6.136
 6356SOL    HW131099   7.898   0.281   6.049
 6356SOL    HW231100   8.045   0.278   6.121
 6357SOL     OW31101   2.031   4.450   6.041
 6357SOL    HW131102   1.942   4.494   6.052
 6357SOL    HW231103   2.100   4.501   6.093
 6358SOL     OW31104   4.011   0.871   1.403
 6358SOL    HW131105   4.038   0.899   1.311
 6358SOL    HW231106   3.971   0.779   1.400
 6359SOL     OW31107   7.722   0.754   4.951
 6359SOL    HW131108   7.790   0.817   4.989
 6359SOL    HW231109   7.668   0.801   4.881
 6360SOL     OW31110   6.003   7.629   6.475
 6360SOL    HW131111   5.921   7.608   6.529
 6360SOL    HW231112   5.992   7.594   6.382
 6361SOL     OW31113   1.603   2.693   5.362
 6361SOL    HW131114   1.696   2.657   5.362
 6361SOL    HW231115   1.605   2.791   5.342
 6362SOL     OW31116   5.756   8.146   5.697
 6362SOL    HW131117   5.720   8.175   5.608
 6362SOL    HW231118   5.842   8.096   5.683
 6363SOL     OW31119   7.036   3.665   0.639
 6363SOL    HW131120   7.097   3.593   0.673
 6363SOL    HW231121   6.942   3.644   0.665
 6364SOL     OW31122   1.643   2.498   6.216
 6364SOL    HW131123   1.583   2.459   6.286
 6364SOL    HW231124   1.590   2.560   6.158
 6365SOL     OW31125   5.834   2.240   1.936
 6365SOL    HW131126   5.888   2.321   1.913
 6365SOL    HW231127   5.794   2.202   1.852
 6366SOL     OW31128   3.459   6.861   5.601
 6366SOL    HW131129   3.364   6.892   5.604
 6366SOL    HW231130   3.509   6.912   5.530
 6367SOL     OW31131   0.148   2.828   1.116
 6367SOL    HW131132   0.225   2.768   1.138
 6367SOL    HW231133   0.077   2.775   1.069
 6368SOL     OW31134   0.822   7.057   5.126
 6368SOL    HW131135   0.737   7.046   5.178
 6368SOL    HW231136   0.859   6.967   5.104
 6369SOL     OW31137   7.477   5.079   6.523
 6369SOL    HW131138   7.400   5.128   6.565
 6369SOL    HW231139   7.490   4.992   6.570
 6370SOL     OW31140   9.277   0.715   0.717
 6370SOL    HW131141   9.350   0.659   0.755
 6370SOL    HW231142   9.193   0.661   0.711
 6371SOL     OW31143   1.130   6.937   5.976
 6371SOL    HW131144   1.039   6.900   5.955
 6371SOL    HW231145   1.197   6.863   5.970
 6372SOL     OW31146   5.823   2.835   1.537
 6372SOL    HW131147   5.800   2.855   1.632
 6372SOL    HW231148   5.830   2.920   1.485
 6373SOL     OW31149   7.760   4.092   2.041
 6373SOL    HW131150   7.839   4.048   2.001
 6373SOL    HW231151   7.750   4.184   2.003
 6374SOL     OW31152   4.465   6.135   5.904
 6374SOL    HW131153   4.407   6.214   5.922
 6374SOL    HW231154   4.531   6.124   5.979
 6375SOL     OW31155   0.526   2.829   5.393
 6375SOL    HW131156   0.511   2.909   5.334
 6375SOL    HW231157   0.522   2.746   5.338
 6376SOL     OW31158   7.412   4.675   6.199
 6376SOL    HW131159   7.489   4.700   6.259
 6376SOL    HW231160   7.333   4.650   6.256
 6377SOL     OW31161   3.653   5.812   6.072
 6377SOL    HW131162   3.711   5.859   6.005
 6377SOL    HW231163   3.613   5.880   6.134
 6378SOL     OW31164   0.906   2.004   6.835
 6378SOL    HW131165   0.962   2.047   6.765
 6378SOL    HW231166   0.866   1.919   6.799
 6379SOL     OW31167   1.877   4.989   1.116
 6379SOL    HW131168   1.790   4.941   1.107
 6379SOL    HW231169   1.898   5.035   1.030
 6380SOL     OW31170   7.960   8.158   0.270
 6380SOL    HW131171   7.963   8.236   0.333
 6380SOL    HW231172   7.964   8.073   0.323
 6381SOL     OW31173   2.864   5.206   6.039
 6381SOL    HW131174   2.864   5.167   6.131
 6381SOL    HW231175   2.951   5.186   5.994
 6382SOL     OW31176   3.813   7.541   6.699
 6382SOL    HW131177   3.721   7.504   6.685
 6382SOL    HW231178   3.845   7.516   6.790
 6383SOL     OW31179   6.378   2.640   0.947
 6383SOL    HW131180   6.425   2.557   0.917
 6383SOL    HW231181   6.413   2.667   1.037
 6384SOL     OW31182   1.533   5.273   1.412
 6384SOL    HW131183   1.589   5.331   1.472
 6384SOL    HW231184   1.540   5.178   1.443
 6385SOL     OW31185   1.479   1.884   5.050
 6385SOL    HW131186   1.566   1.931   5.041
 6385SOL    HW231187   1.470   1.816   4.977
 6386SOL     OW31188   9.565   4.500   6.373
 6386SOL    HW131189   9.625   4.544   6.441
 6386SOL    HW231190   9.581   4.401   6.374
 6387SOL     OW31191   2.702   5.936   6.834
 6387SOL    HW131192   2.648   6.008   6.791
 6387SOL    HW231193   2.749   5.972   6.914
 6388SOL     OW31194   5.420   1.642   6.495
 6388SOL    HW131195   5.496   1.601   6.445
 6388SOL    HW231196   5.334   1.609   6.456
 6389SOL     OW31197   5.010   4.235   5.484
 6389SOL    HW131198   5.090   4.196   5.438
 6389SOL    HW231199   4.931   4.174   5.470
 6390SOL     OW31200   7.090   1.255   1.768
 6390SOL    HW131201   7.161   1.324   1.750
 6390SOL    HW231202   7.008   1.300   1.804
 6391SOL     OW31203   8.314   1.994   6.821
 6391SOL    HW131204   8.410   1.984   6.793
 6391SOL    HW231205   8.257   1.933   6.766
 6392SOL     OW31206   1.795   6.862   0.660
 6392SOL    HW131207   1.764   6.770   0.684
 6392SOL    HW231208   1.773   6.881   0.564
 6393SOL     OW31209   5.381   7.061   0.625
 6393SOL    HW131210   5.443   7.081   0.548
 6393SOL    HW231211   5.306   7.003   0.593
 6394SOL     OW31212   6.024   5.413   5.195
 6394SOL    HW131213   5.977   5.481   5.138
 6394SOL    HW231214   6.121   5.437   5.201
 6395SOL     OW31215   2.226   6.793   0.506
 6395SOL    HW131216   2.185   6.769   0.595
 6395SOL    HW231217   2.206   6.888   0.485
 6396SOL     OW31218   0.213   7.794   4.916
 6396SOL    HW131219   0.192   7.875   4.971
 6396SOL    HW231220   0.312   7.788   4.902
 6397SOL     OW31221   4.068   2.000   2.562
 6397SOL    HW131222   3.986   1.975   2.613
 6397SOL    HW231223   4.078   2.099   2.560
 6398SOL     OW31224   4.693   6.063   5.770
 6398SOL    HW131225   4.604   6.098   5.798
 6398SOL    HW231226   4.704   6.073   5.671
 6399SOL     OW31227   6.469  -0.033   6.936
 6399SOL    HW131228   6.401   0.019   6.884
 6399SOL    HW231229   6.463  -0.008   7.033
 6400SOL     OW31230   4.501   4.394   5.964
 6400SOL    HW131231   4.499   4.295   5.952
 6400SOL    HW231232   4.429   4.436   5.907
 6401SOL     OW31233   3.648   7.835   0.386
 6401SOL    HW131234   3.678   7.914   0.332
 6401SOL    HW231235   3.673   7.751   0.339
 6402SOL     OW31236   3.074   5.173   1.042
 6402SOL    HW131237   3.049   5.268   1.023
 6402SOL    HW231238   3.081   5.158   1.140
 6403SOL     OW31239   9.179   6.109   6.662
 6403SOL    HW131240   9.202   6.097   6.759
 6403SOL    HW231241   9.096   6.165   6.654
 6404SOL     OW31242   8.850   7.001   5.646
 6404SOL    HW131243   8.851   6.902   5.628
 6404SOL    HW231244   8.934   7.027   5.694
 6405SOL     OW31245   3.145   0.268   0.561
 6405SOL    HW131246   3.169   0.243   0.654
 6405SOL    HW231247   3.057   0.228   0.537
 6406SOL     OW31248   6.764   2.742   0.766
 6406SOL    HW131249   6.857   2.748   0.728
 6406SOL    HW231250   6.707   2.814   0.725
 6407SOL     OW31251   2.242   5.626   4.919
 6407SOL    HW131252   2.260   5.653   4.825
 6407SOL    HW231253   2.321   5.646   4.976
 6408SOL     OW31254   8.436   7.972   1.605
 6408SOL    HW131255   8.411   7.919   1.686
 6408SOL    HW231256   8.421   8.069   1.622
 6409SOL     OW31257   8.852   0.441   6.432
 6409SOL    HW131258   8.872   0.343   6.437
 6409SOL    HW231259   8.871   0.474   6.339
 6410SOL     OW31260   4.308   3.857   6.150
 6410SOL    HW131261   4.277   3.929   6.088
 6410SOL    HW231262   4.370   3.796   6.101
 6411SOL     OW31263   3.417   3.274   6.369
 6411SOL    HW131264   3.452   3.196   6.421
 6411SOL    HW231265   3.476   3.353   6.385
 6412SOL     OW31266   4.922   3.304   1.634
 6412SOL    HW131267   4.930   3.396   1.596
 6412SOL    HW231268   5.002   3.250   1.607
 6413SOL     OW31269   0.878   3.516   5.138
 6413SOL    HW131270   0.849   3.610   5.155
 6413SOL    HW231271   0.947   3.515   5.066
 6414SOL     OW31272   8.116   6.305   6.716
 6414SOL    HW131273   8.120   6.244   6.637
 6414SOL    HW231274   8.136   6.399   6.686
 6415SOL     OW31275   7.013   6.373   0.760
 6415SOL    HW131276   7.080   6.343   0.692
 6415SOL    HW231277   7.016   6.473   0.768
 6416SOL     OW31278   8.255   7.286   5.719
 6416SOL    HW131279   8.352   7.280   5.693
 6416SOL    HW231280   8.199   7.247   5.646
 6417SOL     OW31281   9.215   3.785   6.175
 6417SOL    HW131282   9.207   3.686   6.178
 6417SOL    HW231283   9.143   3.826   6.231
 6418SOL     OW31284   4.045   6.825   1.184
 6418SOL    HW131285   4.051   6.725   1.177
 6418SOL    HW231286   3.954   6.851   1.218
 6419SOL     OW31287   2.519   2.985   1.705
 6419SOL    HW131288   2.519   2.887   1.683
 6419SOL    HW231289   2.514   2.997   1.804
 6420SOL     OW31290   5.888   8.417   5.889
 6420SOL    HW131291   5.850   8.331   5.854
 6420SOL    HW231292   5.929   8.401   5.978
 6421SOL     OW31293   7.227   7.570   0.680
 6421SOL    HW131294   7.220   7.622   0.595
 6421SOL    HW231295   7.307   7.511   0.678
 6422SOL     OW31296   9.105   7.941   6.548
 6422SOL    HW131297   9.071   7.848   6.538
 6422SOL    HW231298   9.179   7.957   6.483
 6423SOL     OW31299   3.319   5.292   6.425
 6423SOL    HW131300   3.239   5.232   6.421
 6423SOL    HW231301   3.348   5.315   6.332
 6424SOL     OW31302   4.785   5.334   2.264
 6424SOL    HW131303   4.884   5.347   2.274
 6424SOL    HW231304   4.738   5.421   2.280
 6425SOL     OW31305   2.018   5.354   0.827
 6425SOL    HW131306   2.110   5.314   0.831
 6425SOL    HW231307   1.999   5.403   0.913
 6426SOL     OW31308   4.000   0.894   5.152
 6426SOL    HW131309   4.068   0.837   5.106
 6426SOL    HW231310   4.019   0.897   5.250
 6427SOL     OW31311   3.925   1.617   0.747
 6427SOL    HW131312   3.950   1.704   0.704
 6427SOL    HW231313   4.006   1.558   0.751
 6428SOL     OW31314   4.628   3.900   5.426
 6428SOL    HW131315   4.593   3.810   5.402
 6428SOL    HW231316   4.565   3.970   5.395
 6429SOL     OW31317   7.848   7.068   5.667
 6429SOL    HW131318   7.946   7.072   5.648
 6429SOL    HW231319   7.798   7.066   5.581
 6430SOL     OW31320   1.666   1.506   1.048
 6430SOL    HW131321   1.695   1.440   1.117
 6430SOL    HW231322   1.632   1.456   0.967
 6431SOL     OW31323   3.648   8.107   6.507
 6431SOL    HW131324   3.552   8.116   6.480
 6431SOL    HW231325   3.663   8.152   6.594
 6432SOL     OW31326   9.349   5.987   6.503
 6432SOL    HW131327   9.270   6.035   6.541
 6432SOL    HW231328   9.431   6.010   6.556
 6433SOL     OW31329   1.971   1.781   6.648
 6433SOL    HW131330   1.941   1.711   6.713
 6433SOL    HW231331   2.071   1.781   6.643
 6434SOL     OW31332   5.952   5.749   0.496
 6434SOL    HW131333   6.014   5.806   0.442
 6434SOL    HW231334   6.003   5.670   0.531
 6435SOL     OW31335   4.224   3.589   0.394
 6435SOL    HW131336   4.283   3.538   0.332
 6435SOL    HW231337   4.195   3.674   0.349
 6436SOL     OW31338   5.414   7.040   1.517
 6436SOL    HW131339   5.490   6.980   1.541
 6436SOL    HW231340   5.388   7.094   1.597
 6437SOL     OW31341   6.393   7.685   1.789
 6437SOL    HW131342   6.344   7.624   1.852
 6437SOL    HW231343   6.490   7.660   1.787
 6438SOL     OW31344   4.303   4.423   6.167
 6438SOL    HW131345   4.318   4.375   6.081
 6438SOL    HW231346   4.325   4.520   6.155
 6439SOL     OW31347   4.819   1.940   6.605
 6439SOL    HW131348   4.795   1.933   6.702
 6439SOL    HW231349   4.737   1.963   6.552
 6440SOL     OW31350   4.911   4.010   2.019
 6440SOL    HW131351   4.904   4.104   2.052
 6440SOL    HW231352   4.842   3.953   2.063
 6441SOL     OW31353   4.615   2.940   0.572
 6441SOL    HW131354   4.560   2.942   0.489
 6441SOL    HW231355   4.698   2.995   0.559
 6442SOL     OW31356   1.472   6.757   0.604
 6442SOL    HW131357   1.407   6.720   0.538
 6442SOL    HW231358   1.545   6.806   0.556
 6443SOL     OW31359   6.274   2.923   5.856
 6443SOL    HW131360   6.331   2.852   5.815
 6443SOL    HW231361   6.190   2.934   5.802
 6444SOL     OW31362   2.893   4.991   0.953
 6444SOL    HW131363   2.891   4.899   0.994
 6444SOL    HW231364   2.961   5.046   1.000
 6445SOL     OW31365   1.322   2.199   6.526
 6445SOL    HW131366   1.261   2.153   6.461
 6445SOL    HW231367   1.298   2.171   6.619
 6446SOL     OW31368   2.323   0.885   6.603
 6446SOL    HW131369   2.288   0.899   6.695
 6446SOL    HW231370   2.379   0.802   6.600
 6447SOL     OW31371   3.845   6.143   1.407
 6447SOL    HW131372   3.755   6.181   1.388
 6447SOL    HW231373   3.848   6.048   1.377
 6448SOL     OW31374   1.472   6.004   6.446
 6448SOL    HW131375   1.399   6.001   6.514
 6448SOL    HW231376   1.478   5.915   6.400
 6449SOL     OW31377   3.755   4.175   5.793
 6449SOL    HW131378   3.676   4.234   5.802
 6449SOL    HW231379   3.834   4.228   5.761
 6450SOL     OW31380   4.157   6.690   6.517
 6450SOL    HW131381   4.131   6.755   6.446
 6450SOL    HW231382   4.114   6.716   6.603
 6451SOL     OW31383   3.714   3.702   1.714
 6451SOL    HW131384   3.759   3.685   1.802
 6451SOL    HW231385   3.646   3.774   1.724
 6452SOL     OW31386   3.907   0.503   5.945
 6452SOL    HW131387   3.891   0.519   6.042
 6452SOL    HW231388   3.932   0.589   5.900
 6453SOL     OW31389   5.766   6.803   6.501
 6453SOL    HW131390   5.793   6.759   6.416
 6453SOL    HW231391   5.708   6.882   6.481
 6454SOL     OW31392   3.758   7.977   5.897
 6454SOL    HW131393   3.839   8.035   5.887
 6454SOL    HW231394   3.759   7.933   5.987
 6455SOL     OW31395   6.735   3.988   0.690
 6455SOL    HW131396   6.660   3.923   0.695
 6455SOL    HW231397   6.784   3.989   0.777
 6456SOL     OW31398   0.926   1.095   1.426
 6456SOL    HW131399   0.858   1.167   1.411
 6456SOL    HW231400   0.899   1.040   1.505
 6457SOL     OW31401   3.233   2.643   6.523
 6457SOL    HW131402   3.326   2.671   6.547
 6457SOL    HW231403   3.227   2.543   6.520
 6458SOL     OW31404   2.583   7.444   5.756
 6458SOL    HW131405   2.569   7.381   5.680
 6458SOL    HW231406   2.509   7.511   5.759
 6459SOL     OW31407   0.566   4.118   0.517
 6459SOL    HW131408   0.543   4.021   0.519
 6459SOL    HW231409   0.482   4.171   0.506
 6460SOL     OW31410   0.668   1.323   1.061
 6460SOL    HW131411   0.651   1.391   1.133
 6460SOL    HW231412   0.693   1.236   1.102
 6461SOL     OW31413   9.114   2.214   5.976
 6461SOL    HW131414   9.138   2.150   5.903
 6461SOL    HW231415   9.016   2.234   5.972
 6462SOL     OW31416   7.834   3.891   6.265
 6462SOL    HW131417   7.845   3.807   6.317
 6462SOL    HW231418   7.810   3.966   6.327
 6463SOL     OW31419   7.211   6.389   5.085
 6463SOL    HW131420   7.199   6.299   5.043
 6463SOL    HW231421   7.212   6.460   5.014
 6464SOL     OW31422   5.015   5.489   2.172
 6464SOL    HW131423   5.054   5.536   2.093
 6464SOL    HW231424   5.034   5.391   2.164
 6465SOL     OW31425   2.307   2.838   0.896
 6465SOL    HW131426   2.387   2.863   0.951
 6465SOL    HW231427   2.227   2.888   0.930
 6466SOL     OW31428   2.479   7.877   6.381
 6466SOL    HW131429   2.453   7.913   6.471
 6466SOL    HW231430   2.477   7.952   6.315
 6467SOL     OW31431   5.135   3.826   6.145
 6467SOL    HW131432   5.198   3.769   6.198
 6467SOL    HW231433   5.174   3.846   6.055
 6468SOL     OW31434   1.367   1.236   6.415
 6468SOL    HW131435   1.349   1.153   6.362
 6468SOL    HW231436   1.435   1.292   6.368
 6469SOL     OW31437   3.280   0.494   6.718
 6469SOL    HW131438   3.314   0.425   6.781
 6469SOL    HW231439   3.246   0.573   6.770
 6470SOL     OW31440   2.125   2.464   1.238
 6470SOL    HW131441   2.078   2.421   1.160
 6470SOL    HW231442   2.069   2.538   1.274
 6471SOL     OW31443   3.022   2.838   0.541
 6471SOL    HW131444   3.040   2.870   0.448
 6471SOL    HW231445   3.094   2.871   0.602
 6472SOL     OW31446   5.920   3.842   5.620
 6472SOL    HW131447   5.822   3.819   5.622
 6472SOL    HW231448   5.969   3.787   5.687
 6473SOL     OW31449   3.705   5.198   5.566
 6473SOL    HW131450   3.636   5.126   5.566
 6473SOL    HW231451   3.742   5.209   5.658
 6474SOL     OW31452   7.999   4.468   6.211
 6474SOL    HW131453   7.944   4.541   6.171
 6474SOL    HW231454   8.085   4.461   6.162
 6475SOL     OW31455   8.251   5.647   6.089
 6475SOL    HW131456   8.179   5.713   6.111
 6475SOL    HW231457   8.333   5.697   6.061
 6476SOL     OW31458   1.905   1.089   0.343
 6476SOL    HW131459   1.972   1.147   0.296
 6476SOL    HW231460   1.883   1.127   0.432
 6477SOL     OW31461   2.761   0.854   6.111
 6477SOL    HW131462   2.831   0.840   6.040
 6477SOL    HW231463   2.749   0.770   6.163
 6478SOL     OW31464   7.802   3.779   1.197
 6478SOL    HW131465   7.723   3.804   1.253
 6478SOL    HW231466   7.818   3.849   1.128
 6479SOL     OW31467   7.924   8.137   6.741
 6479SOL    HW131468   7.913   8.164   6.837
 6479SOL    HW231469   7.842   8.088   6.711
 6480SOL     OW31470   5.995   7.383   0.306
 6480SOL    HW131471   5.989   7.304   0.368
 6480SOL    HW231472   5.904   7.421   0.292
 6481SOL     OW31473   3.396   5.768   1.522
 6481SOL    HW131474   3.468   5.803   1.582
 6481SOL    HW231475   3.395   5.668   1.527
 6482SOL     OW31476   4.667   2.252   5.880
 6482SOL    HW131477   4.757   2.210   5.880
 6482SOL    HW231478   4.657   2.312   5.800
 6483SOL     OW31479   0.400   6.779   5.286
 6483SOL    HW131480   0.473   6.717   5.256
 6483SOL    HW231481   0.357   6.821   5.206
 6484SOL     OW31482   5.608   5.912   5.835
 6484SOL    HW131483   5.622   6.007   5.863
 6484SOL    HW231484   5.545   5.910   5.757
 6485SOL     OW31485   1.463   3.182   1.309
 6485SOL    HW131486   1.557   3.161   1.335
 6485SOL    HW231487   1.407   3.195   1.391
 6486SOL     OW31488   7.670   0.172   0.482
 6486SOL    HW131489   7.746   0.236   0.487
 6486SOL    HW231490   7.589   0.212   0.525
 6487SOL     OW31491   7.397   4.070   0.675
 6487SOL    HW131492   7.346   4.033   0.596
 6487SOL    HW231493   7.338   4.069   0.756
 6488SOL     OW31494   9.164   2.170   1.080
 6488SOL    HW131495   9.261   2.182   1.058
 6488SOL    HW231496   9.154   2.098   1.148
 6489SOL     OW31497   4.835   2.256   1.281
 6489SOL    HW131498   4.809   2.277   1.375
 6489SOL    HW231499   4.791   2.321   1.219
 6490SOL     OW31500   0.392   7.566   0.768
 6490SOL    HW131501   0.383   7.615   0.855
 6490SOL    HW231502   0.422   7.472   0.786
 6491SOL     OW31503   3.575   8.124   5.352
 6491SOL    HW131504   3.629   8.158   5.275
 6491SOL    HW231505   3.569   8.194   5.422
 6492SOL     OW31506   5.831   7.553   5.845
 6492SOL    HW131507   5.867   7.461   5.828
 6492SOL    HW231508   5.820   7.565   5.944
 6493SOL     OW31509   0.556   5.526   5.386
 6493SOL    HW131510   0.601   5.465   5.322
 6493SOL    HW231511   0.480   5.572   5.341
 6494SOL     OW31512   2.363   5.279   1.086
 6494SOL    HW131513   2.323   5.240   1.169
 6494SOL    HW231514   2.331   5.374   1.076
 6495SOL     OW31515   3.051   3.175   0.642
 6495SOL    HW131516   3.080   3.085   0.611
 6495SOL    HW231517   3.115   3.208   0.712
 6496SOL     OW31518   2.648   3.678   0.669
 6496SOL    HW131519   2.604   3.741   0.606
 6496SOL    HW231520   2.747   3.693   0.667
 6497SOL     OW31521   3.126   7.320   1.253
 6497SOL    HW131522   3.157   7.415   1.252
 6497SOL    HW231523   3.198   7.261   1.290
 6498SOL     OW31524   0.244   2.902   5.854
 6498SOL    HW131525   0.314   2.880   5.786
 6498SOL    HW231526   0.215   2.997   5.843
 6499SOL     OW31527   3.566   6.342   1.856
 6499SOL    HW131528   3.518   6.291   1.927
 6499SOL    HW231529   3.499   6.395   1.803
 6500SOL     OW31530   0.888   2.044   6.391
 6500SOL    HW131531   0.812   2.102   6.420
 6500SOL    HW231532   0.918   2.071   6.300
 6501SOL     OW31533   1.513   0.411   5.697
 6501SOL    HW131534   1.603   0.455   5.703
 6501SOL    HW231535   1.524   0.313   5.686
 6502SOL     OW31536   7.925   6.876   0.739
 6502SOL    HW131537   7.929   6.788   0.787
 6502SOL    HW231538   8.008   6.888   0.685
 6503SOL     OW31539   9.132   0.832   6.445
 6503SOL    HW131540   9.045   0.835   6.396
 6503SOL    HW231541   9.189   0.909   6.416
 6504SOL     OW31542   8.346   8.292   6.085
 6504SOL    HW131543   8.327   8.247   6.172
 6504SOL    HW231544   8.260   8.316   6.040
 6505SOL     OW31545   6.558   6.364   6.897
 6505SOL    HW131546   6.640   6.307   6.885
 6505SOL    HW231547   6.561   6.408   6.987
 6506SOL     OW31548   6.483   2.259   1.256
 6506SOL    HW131549   6.548   2.307   1.198
 6506SOL    HW231550   6.399   2.240   1.205
 6507SOL     OW31551   7.079   6.240   1.037
 6507SOL    HW131552   7.058   6.264   1.131
 6507SOL    HW231553   7.073   6.321   0.979
 6508SOL     OW31554   6.367   5.965   0.330
 6508SOL    HW131555   6.280   5.943   0.375
 6508SOL    HW231556   6.350   5.999   0.238
 6509SOL     OW31557   1.267   5.676   5.916
 6509SOL    HW131558   1.339   5.696   5.849
 6509SOL    HW231559   1.180   5.711   5.882
 6510SOL     OW31560   5.184   8.080   5.367
 6510SOL    HW131561   5.174   7.990   5.410
 6510SOL    HW231562   5.127   8.084   5.285
 6511SOL     OW31563   1.292   4.792   6.864
 6511SOL    HW131564   1.273   4.761   6.770
 6511SOL    HW231565   1.390   4.790   6.880
 6512SOL     OW31566   2.750   6.213   0.478
 6512SOL    HW131567   2.654   6.200   0.504
 6512SOL    HW231568   2.755   6.261   0.391
 6513SOL     OW31569   2.093   1.279   1.404
 6513SOL    HW131570   2.066   1.251   1.497
 6513SOL    HW231571   2.059   1.371   1.385
 6514SOL     OW31572   8.244   0.832   0.795
 6514SOL    HW131573   8.236   0.864   0.890
 6514SOL    HW231574   8.278   0.905   0.737
 6515SOL     OW31575   1.972   6.272   1.837
 6515SOL    HW131576   1.970   6.182   1.880
 6515SOL    HW231577   1.987   6.262   1.738
 6516SOL     OW31578   6.845   6.861   5.880
 6516SOL    HW131579   6.916   6.879   5.811
 6516SOL    HW231580   6.867   6.777   5.929
 6517SOL     OW31581   2.736   2.829   0.253
 6517SOL    HW131582   2.747   2.920   0.213
 6517SOL    HW231583   2.801   2.767   0.211
 6518SOL     OW31584   3.588   3.576   1.091
 6518SOL    HW131585   3.525   3.515   1.139
 6518SOL    HW231586   3.670   3.590   1.146
 6519SOL     OW31587   0.174   7.480   6.242
 6519SOL    HW131588   0.240   7.415   6.205
 6519SOL    HW231589   0.219   7.567   6.260
 6520SOL     OW31590   8.651   8.098   6.933
 6520SOL    HW131591   8.598   8.139   6.859
 6520SOL    HW231592   8.720   8.163   6.964
 6521SOL     OW31593   2.539   5.335   6.574
 6521SOL    HW131594   2.508   5.297   6.487
 6521SOL    HW231595   2.485   5.417   6.596
 6522SOL     OW31596   9.148   0.892   6.734
 6522SOL    HW131597   9.055   0.867   6.760
 6522SOL    HW231598   9.162   0.871   6.637
 6523SOL     OW31599   2.416   6.899   5.741
 6523SOL    HW131600   2.450   6.879   5.649
 6523SOL    HW231601   2.493   6.912   5.803
 6524SOL     OW31602   3.476   2.976   1.023
 6524SOL    HW131603   3.377   2.975   1.013
 6524SOL    HW231604   3.515   3.052   0.972
 6525SOL     OW31605   6.389   7.767   6.122
 6525SOL    HW131606   6.332   7.821   6.184
 6525SOL    HW231607   6.331   7.700   6.074
 6526SOL     OW31608   3.128   6.075   0.321
 6526SOL    HW131609   3.085   6.129   0.249
 6526SOL    HW231610   3.138   6.131   0.403
 6527SOL     OW31611   4.985   8.264   4.759
 6527SOL    HW131612   4.934   8.181   4.739
 6527SOL    HW231613   5.059   8.274   4.692
 6528SOL     OW31614   0.935   1.563   0.262
 6528SOL    HW131615   0.853   1.587   0.212
 6528SOL    HW231616   1.005   1.529   0.199
 6529SOL     OW31617   4.452   2.910   0.790
 6529SOL    HW131618   4.448   2.992   0.847
 6529SOL    HW231619   4.529   2.918   0.726
 6530SOL     OW31620   8.399   3.163   6.843
 6530SOL    HW131621   8.299   3.165   6.840
 6530SOL    HW231622   8.435   3.188   6.754
 6531SOL     OW31623   3.434   3.552   1.781
 6531SOL    HW131624   3.524   3.570   1.820
 6531SOL    HW231625   3.365   3.602   1.833
 6532SOL     OW31626   5.381   5.726   0.398
 6532SOL    HW131627   5.408   5.731   0.494
 6532SOL    HW231628   5.297   5.778   0.384
 6533SOL     OW31629   9.315   4.012   0.569
 6533SOL    HW131630   9.263   3.960   0.636
 6533SOL    HW231631   9.357   3.949   0.503
 6534SOL     OW31632   3.066   7.834   6.729
 6534SOL    HW131633   3.078   7.932   6.714
 6534SOL    HW231634   3.141   7.800   6.785
 6535SOL     OW31635   3.437   2.618   6.203
 6535SOL    HW131636   3.470   2.555   6.273
 6535SOL    HW231637   3.386   2.567   6.134
 6536SOL     OW31638   0.419   5.229   5.423
 6536SOL    HW131639   0.396   5.240   5.327
 6536SOL    HW231640   0.387   5.140   5.456
 6537SOL     OW31641   3.198   3.149   0.285
 6537SOL    HW131642   3.121   3.087   0.269
 6537SOL    HW231643   3.164   3.242   0.297
 6538SOL     OW31644   1.364   1.819   6.640
 6538SOL    HW131645   1.403   1.759   6.569
 6538SOL    HW231646   1.267   1.800   6.650
 6539SOL     OW31647   5.167   0.267   0.775
 6539SOL    HW131648   5.161   0.300   0.870
 6539SOL    HW231649   5.261   0.244   0.753
 6540SOL     OW31650   2.398   8.312   5.635
 6540SOL    HW131651   2.316   8.314   5.577
 6540SOL    HW231652   2.460   8.386   5.609
 6541SOL     OW31653   2.773   4.514   6.368
 6541SOL    HW131654   2.868   4.482   6.365
 6541SOL    HW231655   2.772   4.612   6.389
 6542SOL     OW31656   4.256   5.125   5.953
 6542SOL    HW131657   4.353   5.102   5.957
 6542SOL    HW231658   4.231   5.146   5.858
 6543SOL     OW31659   6.865   6.973   6.912
 6543SOL    HW131660   6.825   7.026   6.838
 6543SOL    HW231661   6.963   6.989   6.915
 6544SOL     OW31662   1.892   1.950   1.338
 6544SOL    HW131663   1.866   2.046   1.346
 6544SOL    HW231664   1.946   1.923   1.418
 6545SOL     OW31665   2.950   2.102   1.489
 6545SOL    HW131666   2.952   2.180   1.426
 6545SOL    HW231667   2.954   2.017   1.437
 6546SOL     OW31668   4.484   0.261   1.339
 6546SOL    HW131669   4.392   0.290   1.364
 6546SOL    HW231670   4.479   0.188   1.271
 6547SOL     OW31671   3.173   4.376   0.976
 6547SOL    HW131672   3.174   4.280   1.006
 6547SOL    HW231673   3.230   4.386   0.895
 6548SOL     OW31674   2.799   3.317   2.009
 6548SOL    HW131675   2.706   3.307   1.974
 6548SOL    HW231676   2.809   3.405   2.054
 6549SOL     OW31677   7.082   2.354   1.606
 6549SOL    HW131678   7.126   2.441   1.626
 6549SOL    HW231679   6.998   2.370   1.553
 6550SOL     OW31680   5.462   4.517   0.851
 6550SOL    HW131681   5.502   4.468   0.774
 6550SOL    HW231682   5.460   4.615   0.832
 6551SOL     OW31683   9.146   0.085   6.285
 6551SOL    HW131684   9.229   0.029   6.281
 6551SOL    HW231685   9.067   0.025   6.301
 6552SOL     OW31686   6.470   7.483   6.413
 6552SOL    HW131687   6.458   7.431   6.329
 6552SOL    HW231688   6.501   7.422   6.486
 6553SOL     OW31689   8.179   1.782   6.655
 6553SOL    HW131690   8.120   1.801   6.577
 6553SOL    HW231691   8.167   1.687   6.684
 6554SOL     OW31692   3.618   5.908   0.932
 6554SOL    HW131693   3.592   5.950   1.019
 6554SOL    HW231694   3.536   5.891   0.877
 6555SOL     OW31695   2.435   4.184   6.689
 6555SOL    HW131696   2.492   4.239   6.627
 6555SOL    HW231697   2.343   4.224   6.692
 6556SOL     OW31698   2.611   0.647   2.012
 6556SOL    HW131699   2.661   0.611   1.933
 6556SOL    HW231700   2.595   0.573   2.077
 6557SOL     OW31701   3.985   3.467   0.410
 6557SOL    HW131702   3.928   3.490   0.332
 6557SOL    HW231703   4.073   3.515   0.402
 6558SOL     OW31704   5.353   3.136   1.326
 6558SOL    HW131705   5.298   3.113   1.406
 6558SOL    HW231706   5.335   3.069   1.253
 6559SOL     OW31707   3.991   4.327   5.732
 6559SOL    HW131708   4.035   4.239   5.716
 6559SOL    HW231709   3.948   4.359   5.648
 6560SOL     OW31710   9.276   2.547   0.649
 6560SOL    HW131711   9.316   2.638   0.658
 6560SOL    HW231712   9.187   2.545   0.694
 6561SOL     OW31713   4.826   4.402   5.658
 6561SOL    HW131714   4.881   4.352   5.591
 6561SOL    HW231715   4.817   4.347   5.741
 6562SOL     OW31716   7.074   1.971   0.528
 6562SOL    HW131717   6.999   1.940   0.470
 6562SOL    HW231718   7.043   2.047   0.585
 6563SOL     OW31719   7.073   0.119   6.206
 6563SOL    HW131720   7.163   0.108   6.248
 6563SOL    HW231721   7.028   0.029   6.201
 6564SOL     OW31722   4.792   5.393   6.206
 6564SOL    HW131723   4.752   5.331   6.139
 6564SOL    HW231724   4.885   5.364   6.226
 6565SOL     OW31725   8.733   2.088   5.397
 6565SOL    HW131726   8.781   2.120   5.315
 6565SOL    HW231727   8.673   2.011   5.373
 6566SOL     OW31728   3.790   0.775   6.925
 6566SOL    HW131729   3.859   0.815   6.864
 6566SOL    HW231730   3.807   0.676   6.933
 6567SOL     OW31731   3.326   8.019   1.482
 6567SOL    HW131732   3.272   8.080   1.538
 6567SOL    HW231733   3.368   7.948   1.539
 6568SOL     OW31734   5.586   1.877   0.938
 6568SOL    HW131735   5.506   1.928   0.908
 6568SOL    HW231736   5.576   1.781   0.913
 6569SOL     OW31737   5.993   6.074   1.796
 6569SOL    HW131738   6.034   6.027   1.874
 6569SOL    HW231739   5.947   6.158   1.826
 6570SOL     OW31740   8.051   2.072   0.585
 6570SOL    HW131741   8.069   2.094   0.681
 6570SOL    HW231742   7.952   2.072   0.569
 6571SOL     OW31743   4.664   2.552   5.802
 6571SOL    HW131744   4.675   2.526   5.706
 6571SOL    HW231745   4.570   2.533   5.831
 6572SOL     OW31746   5.092   1.228   1.669
 6572SOL    HW131747   5.178   1.222   1.719
 6572SOL    HW231748   5.034   1.297   1.712
 6573SOL     OW31749   5.128   7.312   0.269
 6573SOL    HW131750   5.071   7.353   0.340
 6573SOL    HW231751   5.127   7.369   0.187
 6574SOL     OW31752   5.972   7.970   5.691
 6574SOL    HW131753   6.004   7.974   5.596
 6574SOL    HW231754   6.051   7.959   5.752
 6575SOL     OW31755   8.727   2.877   5.970
 6575SOL    HW131756   8.761   2.954   5.916
 6575SOL    HW231757   8.744   2.895   6.067
 6576SOL     OW31758   1.482   4.323   6.284
 6576SOL    HW131759   1.494   4.244   6.344
 6576SOL    HW231760   1.429   4.296   6.204
 6577SOL     OW31761   5.461   5.630   6.766
 6577SOL    HW131762   5.481   5.728   6.761
 6577SOL    HW231763   5.480   5.596   6.858
 6578SOL     OW31764   8.503   2.453   6.046
 6578SOL    HW131765   8.581   2.509   6.073
 6578SOL    HW231766   8.440   2.508   5.991
 6579SOL     OW31767   0.134   8.231   6.673
 6579SOL    HW131768   0.039   8.207   6.652
 6579SOL    HW231769   0.162   8.185   6.757
 6580SOL     OW31770   0.792   6.786   1.132
 6580SOL    HW131771   0.832   6.877   1.143
 6580SOL    HW231772   0.695   6.795   1.110
 6581SOL     OW31773   6.357   5.992   1.190
 6581SOL    HW131774   6.330   6.042   1.272
 6581SOL    HW231775   6.354   5.893   1.208
 6582SOL     OW31776   3.469   7.723   6.060
 6582SOL    HW131777   3.458   7.725   5.960
 6582SOL    HW231778   3.410   7.652   6.098
 6583SOL     OW31779   7.357   7.394   1.267
 6583SOL    HW131780   7.281   7.402   1.332
 6583SOL    HW231781   7.440   7.369   1.318
 6584SOL     OW31782   4.808   7.403   6.037
 6584SOL    HW131783   4.842   7.496   6.054
 6584SOL    HW231784   4.857   7.365   5.958
 6585SOL     OW31785   4.833   6.293   5.822
 6585SOL    HW131786   4.821   6.195   5.806
 6585SOL    HW231787   4.748   6.341   5.799
 6586SOL     OW31788   4.745   7.532   1.633
 6586SOL    HW131789   4.833   7.578   1.622
 6586SOL    HW231790   4.707   7.554   1.723
 6587SOL     OW31791   7.620   7.324   6.473
 6587SOL    HW131792   7.719   7.328   6.481
 6587SOL    HW231793   7.583   7.265   6.545
 6588SOL     OW31794   0.914   1.098   0.534
 6588SOL    HW131795   0.823   1.130   0.509
 6588SOL    HW231796   0.981   1.132   0.467
 6589SOL     OW31797   8.947   2.739   6.250
 6589SOL    HW131798   8.996   2.688   6.180
 6589SOL    HW231799   8.963   2.697   6.339
 6590SOL     OW31800   1.440   0.505   0.647
 6590SOL    HW131801   1.380   0.507   0.727
 6590SOL    HW231802   1.486   0.593   0.638
 6591SOL     OW31803   9.364   4.699   5.264
 6591SOL    HW131804   9.381   4.797   5.279
 6591SOL    HW231805   9.266   4.684   5.250
 6592SOL     OW31806   0.555   7.168   1.235
 6592SOL    HW131807   0.470   7.198   1.190
 6592SOL    HW231808   0.562   7.069   1.228
 6593SOL     OW31809   5.765   7.552   6.609
 6593SOL    HW131810   5.763   7.589   6.702
 6593SOL    HW231811   5.673   7.525   6.582
 6594SOL     OW31812   2.298   1.464   1.712
 6594SOL    HW131813   2.366   1.445   1.642
 6594SOL    HW231814   2.255   1.553   1.694
 6595SOL     OW31815   4.953   3.548   1.101
 6595SOL    HW131816   4.921   3.592   1.185
 6595SOL    HW231817   5.013   3.472   1.124
 6596SOL     OW31818   3.148   6.336   1.038
 6596SOL    HW131819   3.227   6.378   1.081
 6596SOL    HW231820   3.070   6.399   1.043
 6597SOL     OW31821   8.921   3.543   0.992
 6597SOL    HW131822   8.896   3.447   0.977
 6597SOL    HW231823   8.906   3.595   0.907
 6598SOL     OW31824   3.502   6.917   6.822
 6598SOL    HW131825   3.490   6.978   6.744
 6598SOL    HW231826   3.595   6.927   6.858
 6599SOL     OW31827   8.658   7.048   5.157
 6599SOL    HW131828   8.584   7.006   5.106
 6599SOL    HW231829   8.733   7.070   5.096
 6600SOL     OW31830   8.628   5.132   0.232
 6600SOL    HW131831   8.552   5.196   0.223
 6600SOL    HW231832   8.597   5.052   0.283
 6601SOL     OW31833   4.225   2.156   0.552
 6601SOL    HW131834   4.179   2.124   0.469
 6601SOL    HW231835   4.263   2.247   0.535
 6602SOL     OW31836   0.934   2.687   0.805
 6602SOL    HW131837   0.968   2.722   0.891
 6602SOL    HW231838   0.853   2.739   0.777
 6603SOL     OW31839   0.800   1.214   5.808
 6603SOL    HW131840   0.705   1.242   5.826
 6603SOL    HW231841   0.857   1.296   5.799
 6604SOL     OW31842   6.651   0.955   1.918
 6604SOL    HW131843   6.715   0.880   1.903
 6604SOL    HW231844   6.644   1.011   1.835
 6605SOL     OW31845   1.369   4.745   0.650
 6605SOL    HW131846   1.313   4.662   0.644
 6605SOL    HW231847   1.426   4.752   0.568
 6606SOL     OW31848   6.601   7.817   0.296
 6606SOL    HW131849   6.546   7.734   0.292
 6606SOL    HW231850   6.698   7.793   0.299
 6607SOL     OW31851   5.416   1.842   0.535
 6607SOL    HW131852   5.427   1.941   0.543
 6607SOL    HW231853   5.320   1.820   0.517
 6608SOL     OW31854   7.379   0.867   0.587
 6608SOL    HW131855   7.467   0.851   0.632
 6608SOL    HW231856   7.345   0.958   0.611
 6609SOL     OW31857   1.018   5.770   5.794
 6609SOL    HW131858   0.932   5.719   5.789
 6609SOL    HW231859   0.997   5.867   5.809
 6610SOL     OW31860   8.393   0.723   5.528
 6610SOL    HW131861   8.436   0.633   5.524
 6610SOL    HW231862   8.422   0.776   5.448
 6611SOL     OW31863   7.632   5.868   1.016
 6611SOL    HW131864   7.591   5.951   1.053
 6611SOL    HW231865   7.594   5.789   1.065
 6612SOL     OW31866   2.281   7.786   1.102
 6612SOL    HW131867   2.257   7.798   1.198
 6612SOL    HW231868   2.217   7.836   1.045
 6613SOL     OW31869   4.302   7.596   5.902
 6613SOL    HW131870   4.216   7.644   5.919
 6613SOL    HW231871   4.311   7.575   5.805
 6614SOL     OW31872   2.730   6.261   6.499
 6614SOL    HW131873   2.737   6.359   6.522
 6614SOL    HW231874   2.704   6.251   6.403
 6615SOL     OW31875   9.043   1.453   6.643
 6615SOL    HW131876   9.058   1.365   6.687
 6615SOL    HW231877   8.944   1.471   6.637
 6616SOL     OW31878   4.597   3.715   0.682
 6616SOL    HW131879   4.569   3.701   0.587
 6616SOL    HW231880   4.697   3.721   0.687
 6617SOL     OW31881   7.483   2.664   0.825
 6617SOL    HW131882   7.433   2.696   0.906
 6617SOL    HW231883   7.580   2.655   0.848
 6618SOL     OW31884   6.480   6.878   5.329
 6618SOL    HW131885   6.515   6.786   5.310
 6618SOL    HW231886   6.444   6.882   5.422
 6619SOL     OW31887   4.122   5.733   5.398
 6619SOL    HW131888   4.167   5.810   5.443
 6619SOL    HW231889   4.088   5.762   5.308
 6620SOL     OW31890   1.205   6.959   5.330
 6620SOL    HW131891   1.114   6.988   5.302
 6620SOL    HW231892   1.225   6.868   5.292
 6621SOL     OW31893   4.965   5.802   2.018
 6621SOL    HW131894   4.968   5.867   1.942
 6621SOL    HW231895   5.044   5.741   2.014
 6622SOL     OW31896   3.973   8.013   1.449
 6622SOL    HW131897   3.987   8.110   1.468
 6622SOL    HW231898   4.050   7.960   1.482
 6623SOL     OW31899   5.272   7.045   0.885
 6623SOL    HW131900   5.219   7.129   0.898
 6623SOL    HW231901   5.346   7.062   0.819
 6624SOL     OW31902   8.906   5.952   0.625
 6624SOL    HW131903   8.827   5.901   0.590
 6624SOL    HW231904   8.928   5.921   0.717
 6625SOL     OW31905   9.508   4.934   6.909
 6625SOL    HW131906   9.547   4.891   6.990
 6625SOL    HW231907   9.476   5.026   6.931
 6626SOL     OW31908   7.752   4.053   1.445
 6626SOL    HW131909   7.697   4.124   1.488
 6626SOL    HW231910   7.837   4.039   1.497
 6627SOL     OW31911   2.244   2.449   0.955
 6627SOL    HW131912   2.316   2.443   1.024
 6627SOL    HW231913   2.272   2.513   0.883
 6628SOL     OW31914   8.436   1.052   0.446
 6628SOL    HW131915   8.475   0.960   0.441
 6628SOL    HW231916   8.374   1.058   0.524
 6629SOL     OW31917   8.198   4.387   0.872
 6629SOL    HW131918   8.183   4.341   0.785
 6629SOL    HW231919   8.291   4.422   0.876
 6630SOL     OW31920   9.001   7.792   1.185
 6630SOL    HW131921   9.095   7.760   1.175
 6630SOL    HW231922   8.937   7.716   1.175
 6631SOL     OW31923   5.095   3.611   1.693
 6631SOL    HW131924   5.056   3.597   1.602
 6631SOL    HW231925   5.021   3.609   1.761
 6632SOL     OW31926   3.099   8.224   0.268
 6632SOL    HW131927   3.127   8.206   0.362
 6632SOL    HW231928   3.093   8.138   0.218
 6633SOL     OW31929   9.470   8.133   6.166
 6633SOL    HW131930   9.499   8.228   6.178
 6633SOL    HW231931   9.447   8.117   6.070
 6634SOL     OW31932   3.759   1.645   1.139
 6634SOL    HW131933   3.665   1.664   1.112
 6634SOL    HW231934   3.762   1.564   1.198
 6635SOL     OW31935   2.112   7.906   0.893
 6635SOL    HW131936   2.013   7.896   0.888
 6635SOL    HW231937   2.145   7.952   0.810
 6636SOL     OW31938   6.372   2.760   0.681
 6636SOL    HW131939   6.390   2.752   0.779
 6636SOL    HW231940   6.317   2.842   0.665
 6637SOL     OW31941   6.169   0.149   0.727
 6637SOL    HW131942   6.137   0.201   0.647
 6637SOL    HW231943   6.156   0.051   0.710
 6638SOL     OW31944   7.856   4.300   5.310
 6638SOL    HW131945   7.907   4.230   5.260
 6638SOL    HW231946   7.833   4.375   5.248
 6639SOL     OW31947   4.412   0.641   2.081
 6639SOL    HW131948   4.343   0.627   2.152
 6639SOL    HW231949   4.497   0.671   2.123
 6640SOL     OW31950   6.884   6.905   1.199
 6640SOL    HW131951   6.801   6.860   1.233
 6640SOL    HW231952   6.927   6.847   1.131
 6641SOL     OW31953   7.614   1.156   0.755
 6641SOL    HW131954   7.662   1.185   0.838
 6641SOL    HW231955   7.651   1.206   0.677
 6642SOL     OW31956   6.773   3.022   6.137
 6642SOL    HW131957   6.851   2.960   6.125
 6642SOL    HW231958   6.689   2.974   6.111
 6643SOL     OW31959   3.758   2.854   0.938
 6643SOL    HW131960   3.662   2.879   0.928
 6643SOL    HW231961   3.810   2.892   0.862
 6644SOL     OW31962   5.521   1.218   0.750
 6644SOL    HW131963   5.480   1.256   0.667
 6644SOL    HW231964   5.555   1.292   0.807
 6645SOL     OW31965   6.173   7.057   6.399
 6645SOL    HW131966   6.139   7.146   6.431
 6645SOL    HW231967   6.187   6.997   6.477
 6646SOL     OW31968   9.438   8.093   0.750
 6646SOL    HW131969   9.455   8.007   0.799
 6646SOL    HW231970   9.481   8.169   0.800
 6647SOL     OW31971   2.313   3.113   5.727
 6647SOL    HW131972   2.312   3.183   5.799
 6647SOL    HW231973   2.406   3.077   5.718
 6648SOL     OW31974   6.547   2.816   1.861
 6648SOL    HW131975   6.450   2.827   1.878
 6648SOL    HW231976   6.583   2.743   1.920
 6649SOL     OW31977   1.794   0.255   6.475
 6649SOL    HW131978   1.767   0.347   6.448
 6649SOL    HW231979   1.720   0.191   6.456
 6650SOL     OW31980   2.920   3.534   1.355
 6650SOL    HW131981   2.880   3.497   1.271
 6650SOL    HW231982   2.858   3.600   1.396
 6651SOL     OW31983   5.532  -0.040   0.713
 6651SOL    HW131984   5.452  -0.095   0.693
 6651SOL    HW231985   5.504   0.050   0.746
 6652SOL     OW31986   1.237   2.502   6.888
 6652SOL    HW131987   1.275   2.445   6.962
 6652SOL    HW231988   1.262   2.598   6.904
 6653SOL     OW31989   9.307   3.393   0.369
 6653SOL    HW131990   9.344   3.301   0.361
 6653SOL    HW231991   9.306   3.421   0.465
 6654SOL     OW31992   5.299   7.596   6.558
 6654SOL    HW131993   5.314   7.599   6.656
 6654SOL    HW231994   5.247   7.514   6.534
 6655SOL     OW31995   7.979   5.322   6.376
 6655SOL    HW131996   8.075   5.333   6.351
 6655SOL    HW231997   7.939   5.247   6.324
 6656SOL     OW31998   3.000   0.886   0.261
 6656SOL    HW131999   3.001   0.840   0.350
 6656SOL    HW232000   2.911   0.929   0.246
 6657SOL     OW32001   3.304   3.834   1.031
 6657SOL    HW132002   3.220   3.799   1.072
 6657SOL    HW232003   3.343   3.765   0.969
 6658SOL     OW32004   3.870   1.970   6.750
 6658SOL    HW132005   3.907   1.935   6.664
 6658SOL    HW232006   3.932   2.039   6.787
 6659SOL     OW32007   8.630   4.670   6.489
 6659SOL    HW132008   8.708   4.722   6.522
 6659SOL    HW232009   8.551   4.686   6.548
 6660SOL     OW32010   6.681   6.667   0.550
 6660SOL    HW132011   6.658   6.742   0.487
 6660SOL    HW232012   6.780   6.664   0.564
 6661SOL     OW32013   9.079   7.563   0.403
 6661SOL    HW132014   9.033   7.484   0.445
 6661SOL    HW232015   9.043   7.647   0.443
 6662SOL     OW32016   5.636   1.048   0.952
 6662SOL    HW132017   5.725   1.037   0.908
 6662SOL    HW232018   5.580   1.112   0.899
 6663SOL     OW32019   0.608   1.112   6.063
 6663SOL    HW132020   0.677   1.080   5.999
 6663SOL    HW232021   0.605   1.212   6.061
 6664SOL     OW32022   5.615   4.242   6.442
 6664SOL    HW132023   5.677   4.308   6.398
 6664SOL    HW232024   5.543   4.216   6.377
 6665SOL     OW32025   2.848   4.758   6.431
 6665SOL    HW132026   2.815   4.846   6.467
 6665SOL    HW232027   2.948   4.762   6.421
 6666SOL     OW32028   2.600   3.751   0.392
 6666SOL    HW132029   2.645   3.777   0.306
 6666SOL    HW232030   2.584   3.652   0.392
 6667SOL     OW32031   3.826   0.556   6.235
 6667SOL    HW132032   3.825   0.642   6.285
 6667SOL    HW232033   3.885   0.491   6.282
 6668SOL     OW32034   5.964   7.347   6.660
 6668SOL    HW132035   5.957   7.264   6.714
 6668SOL    HW232036   5.873   7.389   6.651
 6669SOL     OW32037   0.889   3.866   0.319
 6669SOL    HW132038   0.946   3.811   0.259
 6669SOL    HW232039   0.868   3.953   0.274
 6670SOL     OW32040   5.906   1.265   5.923
 6670SOL    HW132041   5.955   1.214   5.852
 6670SOL    HW232042   5.838   1.325   5.880
 6671SOL     OW32043   4.105   0.082   5.262
 6671SOL    HW132044   4.057  -0.006   5.257
 6671SOL    HW232045   4.098   0.129   5.173
 6672SOL     OW32046   9.464   8.074   0.340
 6672SOL    HW132047   9.454   8.153   0.401
 6672SOL    HW232048   9.466   7.990   0.395
 6673SOL     OW32049   4.259   0.428   0.997
 6673SOL    HW132050   4.189   0.431   1.069
 6673SOL    HW232051   4.290   0.334   0.985
 6674SOL     OW32052   8.739   1.308   5.109
 6674SOL    HW132053   8.799   1.384   5.133
 6674SOL    HW232054   8.696   1.326   5.020
 6675SOL     OW32055   7.572   1.472   1.282
 6675SOL    HW132056   7.488   1.493   1.231
 6675SOL    HW232057   7.581   1.373   1.293
 6676SOL     OW32058   4.895   3.389   6.037
 6676SOL    HW132059   4.880   3.326   5.960
 6676SOL    HW232060   4.993   3.401   6.050
 6677SOL     OW32061   6.068   4.708   6.833
 6677SOL    HW132062   6.093   4.753   6.919
 6677SOL    HW232063   6.070   4.609   6.845
 6678SOL     OW32064   5.284   1.154   6.440
 6678SOL    HW132065   5.258   1.108   6.355
 6678SOL    HW232066   5.253   1.101   6.518
 6679SOL     OW32067   4.339   3.856   6.434
 6679SOL    HW132068   4.307   3.855   6.339
 6679SOL    HW232069   4.395   3.937   6.449
 6680SOL     OW32070   2.014   7.505   1.190
 6680SOL    HW132071   1.983   7.412   1.209
 6680SOL    HW232072   2.093   7.526   1.248
 6681SOL     OW32073   5.295   2.855   1.278
 6681SOL    HW132074   5.319   2.758   1.267
 6681SOL    HW232075   5.197   2.863   1.295
 6682SOL     OW32076   8.084   7.713   1.276
 6682SOL    HW132077   8.072   7.731   1.373
 6682SOL    HW232078   8.063   7.617   1.257
 6683SOL     OW32079   3.145   3.251   6.387
 6683SOL    HW132080   3.099   3.293   6.309
 6683SOL    HW232081   3.243   3.272   6.384
 6684SOL     OW32082   2.447   0.658   6.626
 6684SOL    HW132083   2.442   0.636   6.723
 6684SOL    HW232084   2.415   0.579   6.573
 6685SOL     OW32085   4.701   3.949   6.350
 6685SOL    HW132086   4.778   3.910   6.400
 6685SOL    HW232087   4.634   3.986   6.415
 6686SOL     OW32088   9.558   5.763   5.925
 6686SOL    HW132089   9.555   5.701   6.004
 6686SOL    HW232090   9.542   5.711   5.841
 6687SOL     OW32091   6.903   8.155   0.246
 6687SOL    HW132092   6.884   8.127   0.340
 6687SOL    HW232093   6.825   8.206   0.210
 6688SOL     OW32094   5.950   2.652   6.004
 6688SOL    HW132095   5.999   2.673   5.919
 6688SOL    HW232096   5.899   2.732   6.034
 6689SOL     OW32097   7.924   6.128   0.727
 6689SOL    HW132098   7.881   6.141   0.637
 6689SOL    HW232099   7.854   6.134   0.798
 6690SOL     OW32100   4.190   6.031   0.603
 6690SOL    HW132101   4.153   6.099   0.540
 6690SOL    HW232102   4.166   5.939   0.571
 6691SOL     OW32103   9.273   5.341   6.920
 6691SOL    HW132104   9.262   5.439   6.907
 6691SOL    HW232105   9.183   5.297   6.921
 6692SOL     OW32106   4.713   2.245   6.918
 6692SOL    HW132107   4.706   2.312   6.992
 6692SOL    HW232108   4.769   2.168   6.949
 6693SOL     OW32109   9.593   6.722   5.769
 6693SOL    HW132110   9.603   6.819   5.746
 6693SOL    HW232111   9.640   6.703   5.855
 6694SOL     OW32112   6.219   2.759   6.694
 6694SOL    HW132113   6.150   2.808   6.642
 6694SOL    HW232114   6.176   2.687   6.748
 6695SOL     OW32115   8.263   1.888   1.736
 6695SOL    HW132116   8.351   1.910   1.778
 6695SOL    HW232117   8.278   1.841   1.649
 6696SOL     OW32118   3.453   0.444   6.282
 6696SOL    HW132119   3.457   0.431   6.382
 6696SOL    HW232120   3.485   0.535   6.258
 6697SOL     OW32121   1.576   6.604   6.292
 6697SOL    HW132122   1.517   6.549   6.351
 6697SOL    HW232123   1.668   6.563   6.290
 6698SOL     OW32124   4.527   5.757   1.604
 6698SOL    HW132125   4.592   5.768   1.529
 6698SOL    HW232126   4.468   5.678   1.586
 6699SOL     OW32127   4.177   2.595   6.028
 6699SOL    HW132128   4.189   2.694   6.026
 6699SOL    HW232129   4.087   2.573   6.065
 6700SOL     OW32130   0.884   2.097   0.649
 6700SOL    HW132131   0.793   2.064   0.675
 6700SOL    HW232132   0.890   2.195   0.669
 6701SOL     OW32133   9.559   3.368   6.786
 6701SOL    HW132134   9.592   3.355   6.880
 6701SOL    HW232135   9.630   3.414   6.733
 6702SOL     OW32136   0.687  -0.021   0.997
 6702SOL    HW132137   0.607  -0.076   0.972
 6702SOL    HW232138   0.657   0.068   1.031
 6703SOL     OW32139   2.666   6.734   4.960
 6703SOL    HW132140   2.765   6.729   4.949
 6703SOL    HW232141   2.624   6.756   4.872
 6704SOL     OW32142   3.180   2.396   1.411
 6704SOL    HW132143   3.105   2.418   1.474
 6704SOL    HW232144   3.153   2.417   1.317
 6705SOL     OW32145   4.477   1.896   0.714
 6705SOL    HW132146   4.380   1.873   0.717
 6705SOL    HW232147   4.530   1.827   0.763
 6706SOL     OW32148   2.885   6.623   0.490
 6706SOL    HW132149   2.930   6.655   0.573
 6706SOL    HW232150   2.796   6.582   0.514
 6707SOL     OW32151   2.378   6.498   5.786
 6707SOL    HW132152   2.299   6.518   5.728
 6707SOL    HW232153   2.351   6.504   5.882
 6708SOL     OW32154   2.167   5.314   5.951
 6708SOL    HW132155   2.246   5.368   5.925
 6708SOL    HW232156   2.116   5.286   5.869
 6709SOL     OW32157   5.802   2.406   1.075
 6709SOL    HW132158   5.725   2.364   1.028
 6709SOL    HW232159   5.881   2.344   1.073
 6710SOL     OW32160   7.359   2.040   0.698
 6710SOL    HW132161   7.426   2.101   0.655
 6710SOL    HW232162   7.360   1.952   0.652
 6711SOL     OW32163   9.360   1.464   0.860
 6711SOL    HW132164   9.323   1.546   0.816
 6711SOL    HW232165   9.353   1.473   0.959
 6712SOL     OW32166   4.501   7.953   2.243
 6712SOL    HW132167   4.542   8.031   2.291
 6712SOL    HW232168   4.412   7.933   2.283
 6713SOL     OW32169   9.277   3.366   1.309
 6713SOL    HW132170   9.232   3.277   1.309
 6713SOL    HW232171   9.285   3.400   1.403
 6714SOL     OW32172   0.338   5.756   4.670
 6714SOL    HW132173   0.276   5.807   4.729
 6714SOL    HW232174   0.308   5.661   4.663
 6715SOL     OW32175   0.228   8.366   5.860
 6715SOL    HW132176   0.275   8.440   5.908
 6715SOL    HW232177   0.256   8.366   5.764
 6716SOL     OW32178   4.551   1.090   0.959
 6716SOL    HW132179   4.603   1.030   1.018
 6716SOL    HW232180   4.462   1.049   0.939
 6717SOL     OW32181   1.878   4.003   5.265
 6717SOL    HW132182   1.943   3.927   5.273
 6717SOL    HW232183   1.844   4.007   5.171
 6718SOL     OW32184   6.562   5.603   6.640
 6718SOL    HW132185   6.471   5.642   6.656
 6718SOL    HW232186   6.570   5.574   6.545
 6719SOL     OW32187   4.727   6.361   1.464
 6719SOL    HW132188   4.748   6.360   1.367
 6719SOL    HW232189   4.786   6.427   1.511
 6720SOL     OW32190   8.949   1.254   1.044
 6720SOL    HW132191   8.998   1.169   1.025
 6720SOL    HW232192   8.933   1.261   1.142
 6721SOL     OW32193   1.424   6.369   5.858
 6721SOL    HW132194   1.438   6.467   5.872
 6721SOL    HW232195   1.428   6.321   5.945
 6722SOL     OW32196   1.100   3.040   5.640
 6722SOL    HW132197   1.199   3.045   5.651
 6722SOL    HW232198   1.078   3.034   5.543
 6723SOL     OW32199   0.740   6.174   6.614
 6723SOL    HW132200   0.672   6.210   6.551
 6723SOL    HW232201   0.767   6.246   6.679
 6724SOL     OW32202   5.518   2.148   6.564
 6724SOL    HW132203   5.436   2.097   6.592
 6724SOL    HW232204   5.540   2.216   6.634
 6725SOL     OW32205   5.606   0.225   1.674
 6725SOL    HW132206   5.574   0.300   1.615
 6725SOL    HW232207   5.687   0.183   1.633
 6726SOL     OW32208   4.271   7.516   1.223
 6726SOL    HW132209   4.282   7.457   1.304
 6726SOL    HW232210   4.174   7.537   1.210
 6727SOL     OW32211   6.367   0.484   1.014
 6727SOL    HW132212   6.310   0.404   1.030
 6727SOL    HW232213   6.310   0.566   1.010
 6728SOL     OW32214   3.068   8.301   1.530
 6728SOL    HW132215   2.997   8.312   1.600
 6728SOL    HW232216   3.096   8.391   1.498
 6729SOL     OW32217   3.080  -0.009   0.211
 6729SOL    HW132218   3.096  -0.107   0.210
 6729SOL    HW232219   2.990   0.011   0.171
 6730SOL     OW32220   4.408   8.099   5.347
 6730SOL    HW132221   4.451   8.022   5.298
 6730SOL    HW232222   4.324   8.126   5.300
 6731SOL     OW32223   4.091  -0.052   0.320
 6731SOL    HW132224   4.046  -0.132   0.359
 6731SOL    HW232225   4.187  -0.072   0.302
 6732SOL     OW32226   4.469   6.839   0.383
 6732SOL    HW132227   4.377   6.878   0.372
 6732SOL    HW232228   4.519   6.847   0.297
 6733SOL     OW32229   7.196   8.047   0.519
 6733SOL    HW132230   7.244   7.978   0.574
 6733SOL    HW232231   7.185   8.014   0.426
 6734SOL     OW32232   8.063   7.599   0.908
 6734SOL    HW132233   8.029   7.666   0.842
 6734SOL    HW232234   8.162   7.592   0.900
 6735SOL     OW32235   8.133   5.900   6.286
 6735SOL    HW132236   8.057   5.949   6.328
 6735SOL    HW232237   8.142   5.927   6.190
 6736SOL     OW32238   9.111   0.529   6.579
 6736SOL    HW132239   9.099   0.618   6.535
 6736SOL    HW232240   9.126   0.459   6.509
 6737SOL     OW32241   2.678   7.887   5.358
 6737SOL    HW132242   2.771   7.907   5.326
 6737SOL    HW232243   2.619   7.871   5.279
 6738SOL     OW32244   2.218   3.786   0.758
 6738SOL    HW132245   2.137   3.843   0.775
 6738SOL    HW232246   2.190   3.691   0.747
 6739SOL     OW32247   7.236  -0.003   0.993
 6739SOL    HW132248   7.162   0.030   1.051
 6739SOL    HW232249   7.322  -0.001   1.044
 6740SOL     OW32250   2.206   7.241   5.908
 6740SOL    HW132251   2.246   7.220   5.819
 6740SOL    HW232252   2.111   7.211   5.911
 6741SOL     OW32253   9.447   8.419   1.665
 6741SOL    HW132254   9.476   8.512   1.689
 6741SOL    HW232255   9.498   8.353   1.720
 6742SOL     OW32256   8.215   2.165   5.852
 6742SOL    HW132257   8.154   2.095   5.814
 6742SOL    HW232258   8.275   2.201   5.780
 6743SOL     OW32259   7.376   8.397   1.459
 6743SOL    HW132260   7.385   8.472   1.524
 6743SOL    HW232261   7.428   8.318   1.492
 6744SOL     OW32262   8.270   5.935   0.341
 6744SOL    HW132263   8.356   5.986   0.331
 6744SOL    HW232264   8.209   5.985   0.402
 6745SOL     OW32265   0.960   1.292   6.141
 6745SOL    HW132266   0.989   1.216   6.083
 6745SOL    HW232267   0.947   1.374   6.086
 6746SOL     OW32268   6.100   6.065   0.375
 6746SOL    HW132269   6.056   6.107   0.455
 6746SOL    HW232270   6.059   6.103   0.292
 6747SOL     OW32271   8.540   5.002   0.470
 6747SOL    HW132272   8.500   5.090   0.496
 6747SOL    HW232273   8.543   4.942   0.550
 6748SOL     OW32274   1.973   3.337   0.203
 6748SOL    HW132275   2.062   3.298   0.226
 6748SOL    HW232276   1.982   3.435   0.190
 6749SOL     OW32277   6.819   6.105   4.921
 6749SOL    HW132278   6.857   6.063   5.003
 6749SOL    HW232279   6.767   6.036   4.870
 6750SOL     OW32280   8.593   4.472   1.197
 6750SOL    HW132281   8.572   4.398   1.133
 6750SOL    HW232282   8.605   4.434   1.289
 6751SOL     OW32283   6.159   0.046   6.273
 6751SOL    HW132284   6.088   0.116   6.265
 6751SOL    HW232285   6.217   0.049   6.191
 6752SOL     OW32286   5.868   4.871   1.750
 6752SOL    HW132287   5.778   4.873   1.793
 6752SOL    HW232288   5.931   4.929   1.801
 6753SOL     OW32289   4.964   0.196   0.603
 6753SOL    HW132290   5.048   0.238   0.639
 6753SOL    HW232291   4.903   0.172   0.679
 6754SOL     OW32292   3.034   1.717   1.070
 6754SOL    HW132293   3.079   1.710   1.159
 6754SOL    HW232294   2.940   1.748   1.083
 6755SOL     OW32295   0.787   5.310   0.205
 6755SOL    HW132296   0.818   5.406   0.201
 6755SOL    HW232297   0.749   5.283   0.117
 6756SOL     OW32298   3.281   0.326   1.028
 6756SOL    HW132299   3.259   0.315   1.125
 6756SOL    HW232300   3.380   0.325   1.017
 6757SOL     OW32301   8.782   0.327   6.735
 6757SOL    HW132302   8.692   0.295   6.706
 6757SOL    HW232303   8.835   0.354   6.655
 6758SOL     OW32304   1.446   3.567   6.370
 6758SOL    HW132305   1.370   3.532   6.316
 6758SOL    HW232306   1.530   3.563   6.316
 6759SOL     OW32307   8.574   2.045   0.340
 6759SOL    HW132308   8.503   2.071   0.406
 6759SOL    HW232309   8.633   2.124   0.322
 6760SOL     OW32310   8.392   0.866   5.764
 6760SOL    HW132311   8.394   0.957   5.722
 6760SOL    HW232312   8.381   0.797   5.693
 6761SOL     OW32313   7.572   7.655   0.704
 6761SOL    HW132314   7.571   7.706   0.790
 6761SOL    HW232315   7.598   7.560   0.722
 6762SOL     OW32316   8.768   2.093   1.052
 6762SOL    HW132317   8.761   2.193   1.059
 6762SOL    HW232318   8.817   2.058   1.131
 6763SOL     OW32319   4.304   5.240   6.674
 6763SOL    HW132320   4.220   5.244   6.618
 6763SOL    HW232321   4.356   5.324   6.661
 6764SOL     OW32322   8.829   8.052   5.963
 6764SOL    HW132323   8.745   8.106   5.952
 6764SOL    HW232324   8.820   7.967   5.911
 6765SOL     OW32325   4.464   4.969   6.475
 6765SOL    HW132326   4.479   4.997   6.570
 6765SOL    HW232327   4.366   4.961   6.458
 6766SOL     OW32328   2.773   2.531   1.437
 6766SOL    HW132329   2.686   2.508   1.393
 6766SOL    HW232330   2.776   2.488   1.528
 6767SOL     OW32331   4.291   1.593   2.089
 6767SOL    HW132332   4.370   1.532   2.097
 6767SOL    HW232333   4.207   1.540   2.095
 6768SOL     OW32334   4.928   8.431   0.214
 6768SOL    HW132335   5.014   8.474   0.240
 6768SOL    HW232336   4.866   8.499   0.177
 6769SOL     OW32337   6.778   5.060   6.861
 6769SOL    HW132338   6.875   5.036   6.852
 6769SOL    HW232339   6.753   5.124   6.789
 6770SOL     OW32340   2.242   3.240   0.247
 6770SOL    HW132341   2.275   3.157   0.292
 6770SOL    HW232342   2.247   3.229   0.148
 6771SOL     OW32343   8.054   1.749   0.236
 6771SOL    HW132344   8.112   1.670   0.253
 6771SOL    HW232345   8.046   1.804   0.319
 6772SOL     OW32346   1.662   7.618   0.251
 6772SOL    HW132347   1.665   7.518   0.246
 6772SOL    HW232348   1.593   7.652   0.187
 6773SOL     OW32349   0.762   1.730   0.908
 6773SOL    HW132350   0.748   1.751   1.005
 6773SOL    HW232351   0.848   1.771   0.877
 6774SOL     OW32352   5.281   2.027   6.623
 6774SOL    HW132353   5.281   2.028   6.723
 6774SOL    HW232354   5.226   2.102   6.588
 6775SOL     OW32355   4.204   0.284   1.417
 6775SOL    HW132356   4.106   0.275   1.434
 6775SOL    HW232357   4.252   0.301   1.503
 6776SOL     OW32358   2.261   0.254   5.280
 6776SOL    HW132359   2.274   0.306   5.195
 6776SOL    HW232360   2.194   0.182   5.265
 6777SOL     OW32361   1.330   0.195   0.575
 6777SOL    HW132362   1.297   0.120   0.632
 6777SOL    HW232363   1.315   0.282   0.622
 6778SOL     OW32364   2.801   0.743   5.754
 6778SOL    HW132365   2.755   0.828   5.727
 6778SOL    HW232366   2.755   0.665   5.713
 6779SOL     OW32367   0.936   8.410   0.682
 6779SOL    HW132368   0.983   8.468   0.616
 6779SOL    HW232369   0.992   8.329   0.701
 6780SOL     OW32370   3.212   0.724   1.419
 6780SOL    HW132371   3.244   0.634   1.392
 6780SOL    HW232372   3.121   0.740   1.381
 6781SOL     OW32373   2.139   7.251   6.352
 6781SOL    HW132374   2.187   7.208   6.428
 6781SOL    HW232375   2.103   7.340   6.382
 6782SOL     OW32376   8.300   2.056   0.427
 6782SOL    HW132377   8.213   2.046   0.475
 6782SOL    HW232378   8.288   2.027   0.331
 6783SOL     OW32379   0.463   4.427   1.663
 6783SOL    HW132380   0.441   4.523   1.648
 6783SOL    HW232381   0.411   4.392   1.740
 6784SOL     OW32382   2.401   5.791   1.606
 6784SOL    HW132383   2.361   5.703   1.633
 6784SOL    HW232384   2.501   5.782   1.602
 6785SOL     OW32385   4.322   4.283   1.677
 6785SOL    HW132386   4.328   4.381   1.663
 6785SOL    HW232387   4.289   4.264   1.770
 6786SOL     OW32388   1.349   6.588   1.361
 6786SOL    HW132389   1.337   6.590   1.262
 6786SOL    HW232390   1.323   6.676   1.400
 6787SOL     OW32391   6.052   7.047   5.586
 6787SOL    HW132392   6.136   7.059   5.639
 6787SOL    HW232393   6.014   6.956   5.604
 6788SOL     OW32394   1.546   3.968   6.090
 6788SOL    HW132395   1.643   3.945   6.096
 6788SOL    HW232396   1.533   4.039   6.020
 6789SOL     OW32397   7.453   6.062   6.515
 6789SOL    HW132398   7.463   6.155   6.479
 6789SOL    HW232399   7.356   6.038   6.519
 6790SOL     OW32400   1.380   5.626   0.490
 6790SOL    HW132401   1.338   5.635   0.400
 6790SOL    HW232402   1.331   5.683   0.555
 6791SOL     OW32403   7.057   3.249   1.189
 6791SOL    HW132404   6.988   3.294   1.246
 6791SOL    HW232405   7.135   3.310   1.177
 6792SOL     OW32406   8.485   6.010   0.549
 6792SOL    HW132407   8.398   6.061   0.553
 6792SOL    HW232408   8.521   5.998   0.641
 6793SOL     OW32409   4.167   2.813   1.878
 6793SOL    HW132410   4.220   2.837   1.959
 6793SOL    HW232411   4.101   2.742   1.902
 6794SOL     OW32412   7.396   3.410   2.052
 6794SOL    HW132413   7.367   3.470   2.126
 6794SOL    HW232414   7.326   3.407   1.982
 6795SOL     OW32415   7.803   8.395   6.209
 6795SOL    HW132416   7.765   8.485   6.228
 6795SOL    HW232417   7.852   8.397   6.122
 6796SOL     OW32418   5.057   6.876   5.988
 6796SOL    HW132419   5.101   6.794   5.952
 6796SOL    HW232420   4.973   6.849   6.037
 6797SOL     OW32421   4.574   3.417   6.526
 6797SOL    HW132422   4.652   3.475   6.550
 6797SOL    HW232423   4.548   3.434   6.431
 6798SOL     OW32424   0.471   3.552   6.078
 6798SOL    HW132425   0.563   3.561   6.116
 6798SOL    HW232426   0.475   3.496   5.995
 6799SOL     OW32427   9.122   4.701   6.196
 6799SOL    HW132428   9.216   4.692   6.230
 6799SOL    HW232429   9.108   4.639   6.119
 6800SOL     OW32430   1.577   1.434   0.803
 6800SOL    HW132431   1.608   1.392   0.718
 6800SOL    HW232432   1.492   1.390   0.833
 6801SOL     OW32433   8.443   1.950   5.638
 6801SOL    HW132434   8.394   1.866   5.659
 6801SOL    HW232435   8.467   1.952   5.541
 6802SOL     OW32436   3.812   4.702   5.962
 6802SOL    HW132437   3.902   4.740   5.983
 6802SOL    HW232438   3.821   4.607   5.935
 6803SOL     OW32439   5.621   3.193   5.959
 6803SOL    HW132440   5.558   3.246   6.015
 6803SOL    HW232441   5.571   3.151   5.883
 6804SOL     OW32442   8.490   7.771   0.302
 6804SOL    HW132443   8.551   7.766   0.381
 6804SOL    HW232444   8.535   7.820   0.228
 6805SOL     OW32445   1.262   7.490   0.742
 6805SOL    HW132446   1.361   7.483   0.756
 6805SOL    HW232447   1.244   7.553   0.667
 6806SOL     OW32448   4.765   5.333   6.611
 6806SOL    HW132449   4.730   5.253   6.563
 6806SOL    HW232450   4.864   5.337   6.604
 6807SOL     OW32451   3.261   6.135   5.684
 6807SOL    HW132452   3.274   6.100   5.591
 6807SOL    HW232453   3.291   6.065   5.750
 6808SOL     OW32454   7.760   3.139   5.968
 6808SOL    HW132455   7.727   3.228   6.000
 6808SOL    HW232456   7.846   3.152   5.919
 6809SOL     OW32457   8.151   7.057   4.886
 6809SOL    HW132458   8.109   7.042   4.976
 6809SOL    HW232459   8.082   7.092   4.823
 6810SOL     OW32460   6.996   8.103   0.779
 6810SOL    HW132461   7.094   8.104   0.799
 6810SOL    HW232462   6.951   8.034   0.836
 6811SOL     OW32463   4.594   0.541   5.716
 6811SOL    HW132464   4.547   0.530   5.629
 6811SOL    HW232465   4.531   0.577   5.784
 6812SOL     OW32466   3.581   7.738   5.159
 6812SOL    HW132467   3.591   7.646   5.198
 6812SOL    HW232468   3.657   7.756   5.097
 6813SOL     OW32469   6.121   5.573   0.647
 6813SOL    HW132470   6.192   5.643   0.653
 6813SOL    HW232471   6.116   5.523   0.733
 6814SOL     OW32472   0.842   1.769   6.318
 6814SOL    HW132473   0.796   1.843   6.368
 6814SOL    HW232474   0.885   1.806   6.236
 6815SOL     OW32475   7.984   2.684   0.866
 6815SOL    HW132476   8.037   2.604   0.894
 6815SOL    HW232477   8.028   2.727   0.787
 6816SOL     OW32478   8.945   6.692   5.517
 6816SOL    HW132479   9.022   6.629   5.505
 6816SOL    HW232480   8.859   6.642   5.510
 6817SOL     OW32481   5.924   3.728   0.205
 6817SOL    HW132482   5.896   3.666   0.278
 6817SOL    HW232483   5.999   3.686   0.154
 6818SOL     OW32484   5.272   1.337   5.023
 6818SOL    HW132485   5.269   1.417   4.963
 6818SOL    HW232486   5.184   1.289   5.019
 6819SOL     OW32487   1.382   5.349   0.395
 6819SOL    HW132488   1.365   5.441   0.360
 6819SOL    HW232489   1.349   5.343   0.489
 6820SOL     OW32490   5.931   3.241   0.564
 6820SOL    HW132491   5.920   3.256   0.466
 6820SOL    HW232492   5.861   3.177   0.596
 6821SOL     OW32493   3.575   7.876   0.926
 6821SOL    HW132494   3.643   7.854   0.996
 6821SOL    HW232495   3.495   7.917   0.968
 6822SOL     OW32496   6.359   4.639   0.243
 6822SOL    HW132497   6.402   4.717   0.289
 6822SOL    HW232498   6.351   4.657   0.145
 6823SOL     OW32499   2.029   2.720   0.471
 6823SOL    HW132500   2.026   2.704   0.570
 6823SOL    HW232501   1.996   2.638   0.423
 6824SOL     OW32502   7.495   7.774   5.456
 6824SOL    HW132503   7.433   7.779   5.377
 6824SOL    HW232504   7.441   7.761   5.539
 6825SOL     OW32505   1.943   7.152   5.874
 6825SOL    HW132506   1.896   7.235   5.844
 6825SOL    HW232507   1.876   7.079   5.887
 6826SOL     OW32508   3.339   7.800   5.250
 6826SOL    HW132509   3.434   7.784   5.224
 6826SOL    HW232510   3.336   7.863   5.328
 6827SOL     OW32511   9.100   5.436   0.429
 6827SOL    HW132512   9.020   5.377   0.445
 6827SOL    HW232513   9.174   5.407   0.490
 6828SOL     OW32514   4.539   1.445   2.178
 6828SOL    HW132515   4.551   1.346   2.183
 6828SOL    HW232516   4.629   1.489   2.177
 6829SOL     OW32517   9.350  -0.061   6.378
 6829SOL    HW132518   9.448  -0.079   6.375
 6829SOL    HW232519   9.332   0.016   6.439
 6830SOL     OW32520   8.919   5.914   4.672
 6830SOL    HW132521   8.875   5.948   4.589
 6830SOL    HW232522   8.901   5.977   4.747
 6831SOL     OW32523   9.451   6.307   1.535
 6831SOL    HW132524   9.362   6.273   1.502
 6831SOL    HW232525   9.522   6.239   1.517
 6832SOL     OW32526   1.768   5.250   6.782
 6832SOL    HW132527   1.728   5.249   6.873
 6832SOL    HW232528   1.739   5.332   6.733
 6833SOL     OW32529   9.298   3.515   1.985
 6833SOL    HW132530   9.291   3.482   2.079
 6833SOL    HW232531   9.221   3.481   1.932
 6834SOL     OW32532   8.399   2.316   0.526
 6834SOL    HW132533   8.366   2.224   0.502
 6834SOL    HW232534   8.352   2.384   0.470
 6835SOL     OW32535   9.188   4.788   5.882
 6835SOL    HW132536   9.255   4.805   5.955
 6835SOL    HW232537   9.224   4.718   5.820
 6836SOL     OW32538   2.034   2.383   1.635
 6836SOL    HW132539   2.046   2.472   1.678
 6836SOL    HW232540   1.983   2.323   1.697
 6837SOL     OW32541   3.763   2.879   6.811
 6837SOL    HW132542   3.853   2.923   6.816
 6837SOL    HW232543   3.697   2.932   6.864
 6838SOL     OW32544   5.940   3.936   5.929
 6838SOL    HW132545   5.965   3.839   5.927
 6838SOL    HW232546   5.860   3.950   5.871
 6839SOL     OW32547   6.333   4.761   0.978
 6839SOL    HW132548   6.320   4.769   0.879
 6839SOL    HW232549   6.408   4.821   1.006
 6840SOL     OW32550   5.500   1.113   5.591
 6840SOL    HW132551   5.516   1.104   5.690
 6840SOL    HW232552   5.405   1.091   5.571
 6841SOL     OW32553   5.742   3.091   6.216
 6841SOL    HW132554   5.708   3.111   6.124
 6841SOL    HW232555   5.702   3.156   6.281
 6842SOL     OW32556   3.330   5.444   0.871
 6842SOL    HW132557   3.421   5.402   0.864
 6842SOL    HW232558   3.316   5.479   0.964
 6843SOL     OW32559   9.031   5.701   6.909
 6843SOL    HW132560   8.954   5.747   6.866
 6843SOL    HW232561   8.998   5.640   6.981
 6844SOL     OW32562   3.092   8.406   0.502
 6844SOL    HW132563   3.186   8.424   0.528
 6844SOL    HW232564   3.077   8.432   0.407
 6845SOL     OW32565   2.544   2.461   2.459
 6845SOL    HW132566   2.605   2.530   2.421
 6845SOL    HW232567   2.449   2.490   2.445
 6846SOL     OW32568   2.407   1.015   0.749
 6846SOL    HW132569   2.457   1.101   0.756
 6846SOL    HW232570   2.320   1.023   0.798
 6847SOL     OW32571   5.830   7.790   6.873
 6847SOL    HW132572   5.851   7.807   6.969
 6847SOL    HW232573   5.916   7.785   6.821
 6848SOL     OW32574   9.557   5.356   0.758
 6848SOL    HW132575   9.525   5.270   0.719
 6848SOL    HW232576   9.530   5.361   0.854
 6849SOL     OW32577   7.276   5.254   6.642
 6849SOL    HW132578   7.246   5.314   6.568
 6849SOL    HW232579   7.200   5.238   6.705
 6850SOL     OW32580   4.323   5.561   1.581
 6850SOL    HW132581   4.240   5.510   1.559
 6850SOL    HW232582   4.393   5.499   1.616
 6851SOL     OW32583   5.357   3.649   6.178
 6851SOL    HW132584   5.451   3.614   6.183
 6851SOL    HW232585   5.304   3.592   6.115
 6852SOL     OW32586   7.075   7.942   0.282
 6852SOL    HW132587   7.075   7.870   0.212
 6852SOL    HW232588   7.020   8.019   0.250
 6853SOL     OW32589   7.151   2.123   1.389
 6853SOL    HW132590   7.193   2.144   1.301
 6853SOL    HW232591   7.136   2.208   1.440
 6854SOL     OW32592   2.254   0.971   6.870
 6854SOL    HW132593   2.158   0.955   6.891
 6854SOL    HW232594   2.287   1.049   6.923
 6855SOL     OW32595   3.223   2.147   1.929
 6855SOL    HW132596   3.162   2.222   1.952
 6855SOL    HW232597   3.308   2.183   1.891
 6856SOL     OW32598   5.057   5.470   6.918
 6856SOL    HW132599   5.040   5.512   7.007
 6856SOL    HW232600   5.098   5.380   6.930
 6857SOL     OW32601   2.033   4.414   1.326
 6857SOL    HW132602   1.982   4.373   1.251
 6857SOL    HW232603   1.987   4.496   1.358
 6858SOL     OW32604   3.482   4.386   6.710
 6858SOL    HW132605   3.470   4.482   6.735
 6858SOL    HW232606   3.401   4.334   6.737
 6859SOL     OW32607   4.126   4.102   1.235
 6859SOL    HW132608   4.088   4.120   1.326
 6859SOL    HW232609   4.173   4.183   1.201
 6860SOL     OW32610   4.110   4.124   1.538
 6860SOL    HW132611   4.075   4.122   1.632
 6860SOL    HW232612   4.189   4.185   1.534
 6861SOL     OW32613   5.023   7.684   1.623
 6861SOL    HW132614   5.099   7.674   1.688
 6861SOL    HW232615   5.057   7.669   1.530
 6862SOL     OW32616   8.270   1.811   1.344
 6862SOL    HW132617   8.329   1.784   1.420
 6862SOL    HW232618   8.202   1.877   1.376
 6863SOL     OW32619   7.654   4.965   6.186
 6863SOL    HW132620   7.633   4.891   6.250
 6863SOL    HW232621   7.744   5.002   6.207
 6864SOL     OW32622   0.486   6.053   1.109
 6864SOL    HW132623   0.490   5.967   1.059
 6864SOL    HW232624   0.486   6.035   1.207
 6865SOL     OW32625   2.695   8.316   0.490
 6865SOL    HW132626   2.688   8.384   0.563
 6865SOL    HW232627   2.694   8.224   0.530
 6866SOL     OW32628   3.781   7.506   5.010
 6866SOL    HW132629   3.762   7.412   4.980
 6866SOL    HW232630   3.865   7.507   5.063
 6867SOL     OW32631   1.300   4.277   6.079
 6867SOL    HW132632   1.333   4.259   5.987
 6867SOL    HW232633   1.203   4.251   6.085
 6868SOL     OW32634   5.252   7.811   1.728
 6868SOL    HW132635   5.313   7.890   1.728
 6868SOL    HW232636   5.296   7.735   1.777
 6869SOL     OW32637   1.512   4.952   0.765
 6869SOL    HW132638   1.458   4.876   0.728
 6869SOL    HW232639   1.481   5.038   0.723
 6870SOL     OW32640   1.251   6.015   1.069
 6870SOL    HW132641   1.327   6.049   1.014
 6870SOL    HW232642   1.286   5.963   1.147
 6871SOL     OW32643   7.451   6.771   6.640
 6871SOL    HW132644   7.470   6.782   6.543
 6871SOL    HW232645   7.531   6.732   6.685
 6872SOL     OW32646   4.488   5.877   6.647
 6872SOL    HW132647   4.536   5.889   6.560
 6872SOL    HW232648   4.555   5.863   6.720
 6873SOL     OW32649   9.208   5.530   5.916
 6873SOL    HW132650   9.140   5.458   5.934
 6873SOL    HW232651   9.279   5.526   5.987
 6874SOL     OW32652   1.251   7.571   0.469
 6874SOL    HW132653   1.271   7.542   0.375
 6874SOL    HW232654   1.191   7.503   0.512
 6875SOL     OW32655   8.703   2.840   5.389
 6875SOL    HW132656   8.774   2.796   5.334
 6875SOL    HW232657   8.669   2.921   5.340
 6876SOL     OW32658   8.463   7.971   5.344
 6876SOL    HW132659   8.461   8.049   5.281
 6876SOL    HW232660   8.493   7.889   5.296
 6877SOL     OW32661   2.773   1.422   1.234
 6877SOL    HW132662   2.691   1.470   1.262
 6877SOL    HW232663   2.851   1.453   1.288
 6878SOL     OW32664   3.333   7.549   0.520
 6878SOL    HW132665   3.272   7.475   0.550
 6878SOL    HW232666   3.407   7.560   0.587
 6879SOL     OW32667   6.909   5.685   5.846
 6879SOL    HW132668   6.941   5.751   5.914
 6879SOL    HW232669   6.810   5.673   5.856
 6880SOL     OW32670   4.322   0.391   1.631
 6880SOL    HW132671   4.343   0.303   1.672
 6880SOL    HW232672   4.388   0.459   1.661
 6881SOL     OW32673   3.516   2.859   2.304
 6881SOL    HW132674   3.529   2.765   2.336
 6881SOL    HW232675   3.456   2.908   2.367
 6882SOL     OW32676   5.224   6.231   6.387
 6882SOL    HW132677   5.297   6.184   6.437
 6882SOL    HW232678   5.137   6.220   6.436
 6883SOL     OW32679   0.795   5.263   0.723
 6883SOL    HW132680   0.729   5.215   0.782
 6883SOL    HW232681   0.855   5.197   0.678
 6884SOL     OW32682   4.010   7.329   0.941
 6884SOL    HW132683   4.022   7.345   0.844
 6884SOL    HW232684   4.049   7.240   0.965
 6885SOL     OW32685   5.153   1.709   0.684
 6885SOL    HW132686   5.171   1.794   0.734
 6885SOL    HW232687   5.231   1.647   0.695
 6886SOL     OW32688   1.827   0.660   0.562
 6886SOL    HW132689   1.879   0.707   0.632
 6886SOL    HW232690   1.857   0.690   0.471
 6887SOL     OW32691   5.200   8.317   1.978
 6887SOL    HW132692   5.295   8.326   2.007
 6887SOL    HW232693   5.141   8.314   2.058
 6888SOL     OW32694   9.412   0.064   0.513
 6888SOL    HW132695   9.380   0.138   0.454
 6888SOL    HW232696   9.440  -0.014   0.457
 6889SOL     OW32697   4.902   2.090   0.299
 6889SOL    HW132698   4.971   2.021   0.277
 6889SOL    HW232699   4.928   2.137   0.383
 6890SOL     OW32700   3.828   1.936   2.694
 6890SOL    HW132701   3.836   1.837   2.685
 6890SOL    HW232702   3.740   1.959   2.737
 6891SOL     OW32703   5.133   2.244   6.809
 6891SOL    HW132704   5.056   2.242   6.746
 6891SOL    HW232705   5.101   2.225   6.902
 6892SOL     OW32706   8.588   6.656   6.279
 6892SOL    HW132707   8.634   6.587   6.336
 6892SOL    HW232708   8.556   6.613   6.195
 6893SOL     OW32709   5.140   7.162   1.431
 6893SOL    HW132710   5.066   7.094   1.423
 6893SOL    HW232711   5.226   7.121   1.403
 6894SOL     OW32712   8.271   2.365   1.377
 6894SOL    HW132713   8.182   2.333   1.408
 6894SOL    HW232714   8.262   2.404   1.285
 6895SOL     OW32715   0.407   2.579   5.918
 6895SOL    HW132716   0.401   2.660   5.976
 6895SOL    HW232717   0.315   2.549   5.893
 6896SOL     OW32718   7.739   5.791   0.765
 6896SOL    HW132719   7.709   5.818   0.857
 6896SOL    HW232720   7.832   5.824   0.749
 6897SOL     OW32721   3.546   1.972   1.835
 6897SOL    HW132722   3.607   1.964   1.756
 6897SOL    HW232723   3.499   1.886   1.850
 6898SOL     OW32724   3.927   6.841   1.825
 6898SOL    HW132725   3.968   6.828   1.735
 6898SOL    HW232726   3.986   6.899   1.881
 6899SOL     OW32727   7.602   4.761   6.381
 6899SOL    HW132728   7.673   4.715   6.435
 6899SOL    HW232729   7.518   4.769   6.435
 6900SOL     OW32730   5.450   2.208   0.702
 6900SOL    HW132731   5.397   2.289   0.728
 6900SOL    HW232732   5.437   2.137   0.771
 6901SOL     OW32733   5.045   8.312   1.751
 6901SOL    HW132734   5.119   8.272   1.697
 6901SOL    HW232735   5.077   8.331   1.844
 6902SOL     OW32736   9.466   5.717   1.013
 6902SOL    HW132737   9.445   5.734   1.110
 6902SOL    HW232738   9.557   5.751   0.992
 6903SOL     OW32739   0.662   6.811   4.926
 6903SOL    HW132740   0.605   6.770   4.997
 6903SOL    HW232741   0.631   6.779   4.836
 6904SOL     OW32742   7.513   5.245   6.806
 6904SOL    HW132743   7.592   5.209   6.756
 6904SOL    HW232744   7.443   5.276   6.742
 6905SOL     OW32745   9.472   6.083   6.848
 6905SOL    HW132746   9.432   6.172   6.871
 6905SOL    HW232747   9.499   6.082   6.752
 6906SOL     OW32748   1.635   4.589   6.322
 6906SOL    HW132749   1.588   4.501   6.321
 6906SOL    HW232750   1.709   4.587   6.389
 6907SOL     OW32751   1.144   5.793   0.926
 6907SOL    HW132752   1.196   5.856   0.983
 6907SOL    HW232753   1.157   5.699   0.959
 6908SOL     OW32754   0.154   7.908   0.485
 6908SOL    HW132755   0.204   7.845   0.544
 6908SOL    HW232756   0.175   7.887   0.389
 6909SOL     OW32757   7.534   2.031   6.879
 6909SOL    HW132758   7.443   1.993   6.870
 6909SOL    HW232759   7.601   1.968   6.840
 6910SOL     OW32760   1.989   0.337   2.086
 6910SOL    HW132761   1.926   0.270   2.125
 6910SOL    HW232762   1.938   0.404   2.033
 6911SOL     OW32763   1.121   5.118   1.427
 6911SOL    HW132764   1.142   5.216   1.429
 6911SOL    HW232765   1.205   5.066   1.438
 6912SOL     OW32766   3.528   4.668   6.012
 6912SOL    HW132767   3.615   4.666   5.963
 6912SOL    HW232768   3.472   4.591   5.983
 6913SOL     OW32769   5.549   4.791   0.763
 6913SOL    HW132770   5.517   4.832   0.679
 6913SOL    HW232771   5.551   4.860   0.836
 6914SOL     OW32772   7.055   5.533   5.613
 6914SOL    HW132773   7.010   5.598   5.675
 6914SOL    HW232774   7.099   5.460   5.667
 6915SOL     OW32775   3.298   4.403   6.481
 6915SOL    HW132776   3.342   4.434   6.396
 6915SOL    HW232777   3.360   4.418   6.558
 6916SOL     OW32778   3.374   0.252   6.113
 6916SOL    HW132779   3.413   0.325   6.169
 6916SOL    HW232780   3.383   0.165   6.162
 6917SOL     OW32781   0.898   0.696   5.585
 6917SOL    HW132782   0.878   0.705   5.683
 6917SOL    HW232783   0.985   0.743   5.566
 6918SOL     OW32784   6.624   4.344   0.930
 6918SOL    HW132785   6.530   4.378   0.935
 6918SOL    HW232786   6.632   4.279   0.855
 6919SOL     OW32787   2.943   5.114   5.696
 6919SOL    HW132788   2.929   5.195   5.638
 6919SOL    HW232789   2.952   5.033   5.638
 6920SOL     OW32790   1.491   8.140   0.572
 6920SOL    HW132791   1.444   8.212   0.623
 6920SOL    HW232792   1.536   8.078   0.636
 6921SOL     OW32793   1.896   8.335   6.086
 6921SOL    HW132794   1.839   8.400   6.137
 6921SOL    HW232795   1.987   8.374   6.072
 6922SOL     OW32796   6.199   2.528   5.591
 6922SOL    HW132797   6.244   2.535   5.680
 6922SOL    HW232798   6.257   2.572   5.521
 6923SOL     OW32799   0.945   1.878   0.783
 6923SOL    HW132800   0.931   1.964   0.734
 6923SOL    HW232801   1.040   1.849   0.772
 6924SOL     OW32802   3.262   0.433   1.764
 6924SOL    HW132803   3.337   0.389   1.815
 6924SOL    HW232804   3.199   0.362   1.732
 6925SOL     OW32805   2.867   0.225   0.511
 6925SOL    HW132806   2.774   0.221   0.475
 6925SOL    HW232807   2.864   0.229   0.611
 6926SOL     OW32808   6.239   7.470   1.449
 6926SOL    HW132809   6.267   7.474   1.353
 6926SOL    HW232810   6.183   7.550   1.471
 6927SOL     OW32811   0.540   3.016   6.192
 6927SOL    HW132812   0.478   3.075   6.246
 6927SOL    HW232813   0.605   2.971   6.253
 6928SOL     OW32814   9.116   4.759   0.637
 6928SOL    HW132815   9.062   4.821   0.579
 6928SOL    HW232816   9.188   4.717   0.582
 6929SOL     OW32817   2.144   2.689   6.458
 6929SOL    HW132818   2.129   2.671   6.361
 6929SOL    HW232819   2.066   2.654   6.511
 6930SOL     OW32820   0.942   4.429   6.149
 6930SOL    HW132821   0.968   4.509   6.094
 6930SOL    HW232822   1.024   4.392   6.194
 6931SOL     OW32823   4.128   4.224   6.229
 6931SOL    HW132824   4.148   4.152   6.163
 6931SOL    HW232825   4.194   4.298   6.219
 6932SOL     OW32826   3.528   2.236   1.903
 6932SOL    HW132827   3.525   2.139   1.882
 6932SOL    HW232828   3.596   2.253   1.975
 6933SOL     OW32829   9.228   1.822   5.953
 6933SOL    HW132830   9.211   1.889   6.025
 6933SOL    HW232831   9.318   1.781   5.967
 6934SOL     OW32832   5.642   0.213   0.208
 6934SOL    HW132833   5.568   0.278   0.191
 6934SOL    HW232834   5.606   0.134   0.258
 6935SOL     OW32835   0.607   1.629   6.584
 6935SOL    HW132836   0.575   1.595   6.496
 6935SOL    HW232837   0.574   1.568   6.657
 6936SOL     OW32838   1.206   6.346   6.593
 6936SOL    HW132839   1.144   6.383   6.524
 6936SOL    HW232840   1.154   6.309   6.670
 6937SOL     OW32841   3.086   3.928   1.404
 6937SOL    HW132842   3.057   3.994   1.335
 6937SOL    HW232843   3.075   3.968   1.495
 6938SOL     OW32844   5.880   7.300   5.787
 6938SOL    HW132845   5.812   7.236   5.752
 6938SOL    HW232846   5.924   7.346   5.710
 6939SOL     OW32847   0.990   7.211   5.275
 6939SOL    HW132848   0.940   7.180   5.356
 6939SOL    HW232849   0.938   7.188   5.193
 6940SOL     OW32850   2.017   6.999   0.249
 6940SOL    HW132851   2.011   6.900   0.240
 6940SOL    HW232852   2.020   7.024   0.346
 6941SOL     OW32853   6.323   5.652   6.107
 6941SOL    HW132854   6.270   5.582   6.059
 6941SOL    HW232855   6.288   5.661   6.200
 6942SOL     OW32856   0.919   5.068   0.584
 6942SOL    HW132857   0.862   4.990   0.558
 6942SOL    HW232858   0.958   5.109   0.501
 6943SOL     OW32859   8.513   7.835   6.586
 6943SOL    HW132860   8.476   7.755   6.632
 6943SOL    HW232861   8.484   7.834   6.490
 6944SOL     OW32862   1.285   6.708   5.245
 6944SOL    HW132863   1.344   6.651   5.188
 6944SOL    HW232864   1.209   6.653   5.279
 6945SOL     OW32865   9.199   0.114   6.764
 6945SOL    HW132866   9.232   0.125   6.671
 6945SOL    HW232867   9.109   0.157   6.774
 6946SOL     OW32868   0.136   5.026   0.896
 6946SOL    HW132869   0.178   4.938   0.918
 6946SOL    HW232870   0.036   5.016   0.898
 6947SOL     OW32871   8.258   8.282   6.340
 6947SOL    HW132872   8.165   8.308   6.365
 6947SOL    HW232873   8.268   8.182   6.347
 6948SOL     OW32874   4.884   4.507   0.631
 6948SOL    HW132875   4.786   4.509   0.612
 6948SOL    HW232876   4.925   4.595   0.607
 6949SOL     OW32877   5.419   5.637   1.455
 6949SOL    HW132878   5.321   5.641   1.474
 6949SOL    HW232879   5.441   5.699   1.379
 6950SOL     OW32880   1.088   8.213   1.054
 6950SOL    HW132881   1.158   8.282   1.036
 6950SOL    HW232882   1.127   8.122   1.039
 6951SOL     OW32883   6.489   2.046   5.798
 6951SOL    HW132884   6.399   2.075   5.766
 6951SOL    HW232885   6.553   2.047   5.722
 6952SOL     OW32886   2.308   2.833   6.606
 6952SOL    HW132887   2.239   2.768   6.574
 6952SOL    HW232888   2.332   2.896   6.531
 6953SOL     OW32889   5.321   1.822   6.863
 6953SOL    HW132890   5.343   1.902   6.919
 6953SOL    HW232891   5.398   1.802   6.803
 6954SOL     OW32892   3.785   5.957   5.905
 6954SOL    HW132893   3.873   5.949   5.860
 6954SOL    HW232894   3.717   5.993   5.841
 6955SOL     OW32895   8.460   3.274   6.390
 6955SOL    HW132896   8.410   3.354   6.356
 6955SOL    HW232897   8.395   3.207   6.426
 6956SOL     OW32898   1.468   1.062   0.427
 6956SOL    HW132899   1.381   1.107   0.409
 6956SOL    HW232900   1.463   0.967   0.396
 6957SOL     OW32901   4.240   4.384   1.392
 6957SOL    HW132902   4.145   4.408   1.370
 6957SOL    HW232903   4.247   4.366   1.491
 6958SOL     OW32904   9.386   4.671   6.225
 6958SOL    HW132905   9.428   4.712   6.144
 6958SOL    HW232906   9.451   4.608   6.268
 6959SOL     OW32907   1.668   0.047   6.570
 6959SOL    HW132908   1.659  -0.051   6.552
 6959SOL    HW232909   1.750   0.063   6.624
 6960SOL     OW32910   1.878   2.212   1.408
 6960SOL    HW132911   1.813   2.278   1.371
 6960SOL    HW232912   1.936   2.258   1.476
 6961SOL     OW32913   3.326   7.712   1.469
 6961SOL    HW132914   3.351   7.662   1.386
 6961SOL    HW232915   3.301   7.806   1.444
 6962SOL     OW32916   0.353   1.367   5.810
 6962SOL    HW132917   0.336   1.271   5.788
 6962SOL    HW232918   0.286   1.425   5.764
 6963SOL     OW32919   1.185   5.023   1.912
 6963SOL    HW132920   1.196   4.933   1.953
 6963SOL    HW232921   1.254   5.036   1.841
 6964SOL     OW32922   3.821   7.378   5.707
 6964SOL    HW132923   3.894   7.446   5.706
 6964SOL    HW232924   3.844   7.307   5.774
 6965SOL     OW32925   3.802   2.881   2.094
 6965SOL    HW132926   3.825   2.861   2.189
 6965SOL    HW232927   3.715   2.932   2.091
 6966SOL     OW32928   4.184   4.975   6.442
 6966SOL    HW132929   4.205   5.054   6.386
 6966SOL    HW232930   4.085   4.961   6.445
 6967SOL     OW32931   4.377   3.717   1.137
 6967SOL    HW132932   4.465   3.682   1.169
 6967SOL    HW232933   4.375   3.816   1.147
 6968SOL     OW32934   0.314   5.063   1.426
 6968SOL    HW132935   0.321   5.122   1.507
 6968SOL    HW232936   0.400   5.014   1.412
 6969SOL     OW32937   0.933   7.050   6.193
 6969SOL    HW132938   0.989   6.977   6.156
 6969SOL    HW232939   0.919   7.120   6.123
 6970SOL     OW32940   6.035   0.257   6.150
 6970SOL    HW132941   6.060   0.350   6.177
 6970SOL    HW232942   5.980   0.261   6.066
 6971SOL     OW32943   1.043   0.434   0.643
 6971SOL    HW132944   1.080   0.491   0.570
 6971SOL    HW232945   0.953   0.468   0.670
 6972SOL     OW32946   5.103   4.267   1.345
 6972SOL    HW132947   5.194   4.265   1.385
 6972SOL    HW232948   5.079   4.361   1.322
 6973SOL     OW32949   1.870   8.084   6.242
 6973SOL    HW132950   1.895   8.170   6.199
 6973SOL    HW232951   1.848   8.100   6.339
 6974SOL     OW32952   4.803   5.814   5.353
 6974SOL    HW132953   4.747   5.878   5.301
 6974SOL    HW232954   4.797   5.723   5.311
 6975SOL     OW32955   6.062   0.980   6.033
 6975SOL    HW132956   6.087   0.950   5.941
 6975SOL    HW232957   5.980   0.930   6.063
 6976SOL     OW32958   0.814   5.816   4.783
 6976SOL    HW132959   0.719   5.806   4.812
 6976SOL    HW232960   0.826   5.906   4.741
 6977SOL     OW32961   0.431   7.369   1.032
 6977SOL    HW132962   0.395   7.462   1.028
 6977SOL    HW232963   0.368   7.312   1.086
 6978SOL     OW32964   8.967   0.610   0.748
 6978SOL    HW132965   9.004   0.627   0.839
 6978SOL    HW232966   8.915   0.690   0.718
 6979SOL     OW32967   4.157   6.400   5.236
 6979SOL    HW132968   4.219   6.364   5.166
 6979SOL    HW232969   4.068   6.420   5.194
 6980SOL     OW32970   0.606   1.045   5.170
 6980SOL    HW132971   0.570   1.037   5.077
 6980SOL    HW232972   0.681   1.111   5.172
 6981SOL     OW32973   5.239   3.816   0.448
 6981SOL    HW132974   5.184   3.779   0.374
 6981SOL    HW232975   5.179   3.848   0.521
 6982SOL     OW32976   6.687   5.958   6.429
 6982SOL    HW132977   6.600   6.004   6.412
 6982SOL    HW232978   6.681   5.863   6.397
 6983SOL     OW32979   8.659   8.436   0.728
 6983SOL    HW132980   8.622   8.477   0.811
 6983SOL    HW232981   8.635   8.339   0.726
 6984SOL     OW32982   6.317   5.507   5.363
 6984SOL    HW132983   6.292   5.518   5.267
 6984SOL    HW232984   6.248   5.453   5.410
 6985SOL     OW32985   1.017   3.004   5.388
 6985SOL    HW132986   0.940   3.034   5.330
 6985SOL    HW232987   1.099   2.994   5.332
 6986SOL     OW32988   1.127   7.213   4.779
 6986SOL    HW132989   1.199   7.248   4.719
 6986SOL    HW232990   1.139   7.115   4.792
 6987SOL     OW32991   8.031   4.834   6.914
 6987SOL    HW132992   7.965   4.876   6.852
 6987SOL    HW232993   8.061   4.901   6.982
 6988SOL     OW32994   2.792   1.492   1.715
 6988SOL    HW132995   2.744   1.419   1.668
 6988SOL    HW232996   2.751   1.509   1.805
 6989SOL     OW32997   6.644   7.519   6.667
 6989SOL    HW132998   6.637   7.423   6.696
 6989SOL    HW232999   6.576   7.573   6.717
 6990SOL     OW33000   3.499   5.137   6.062
 6990SOL    HW133001   3.416   5.084   6.042
 6990SOL    HW233002   3.576   5.097   6.013
 6991SOL     OW33003   5.569   2.571   0.293
 6991SOL    HW133004   5.520   2.655   0.318
 6991SOL    HW233005   5.666   2.592   0.280
 6992SOL     OW33006   5.633   7.361   0.592
 6992SOL    HW133007   5.626   7.336   0.688
 6992SOL    HW233008   5.547   7.340   0.545
 6993SOL     OW33009   4.134   2.086   6.693
 6993SOL    HW133010   4.174   2.160   6.747
 6993SOL    HW233011   4.205   2.020   6.670
 6994SOL     OW33012   5.605   4.610   1.077
 6994SOL    HW133013   5.584   4.565   0.990
 6994SOL    HW233014   5.654   4.546   1.136
 6995SOL     OW33015   1.126   6.145   0.782
 6995SOL    HW133016   1.154   6.114   0.873
 6995SOL    HW233017   1.205   6.184   0.735
 6996SOL     OW33018   5.828   0.479   1.632
 6996SOL    HW133019   5.913   0.482   1.684
 6996SOL    HW233020   5.828   0.400   1.572
 6997SOL     OW33021   8.498   2.247   5.417
 6997SOL    HW133022   8.594   2.271   5.401
 6997SOL    HW233023   8.481   2.155   5.382
 6998SOL     OW33024   2.003   4.078   6.680
 6998SOL    HW133025   1.929   4.107   6.740
 6998SOL    HW233026   2.055   4.005   6.725
 6999SOL     OW33027   4.121   6.974   1.967
 6999SOL    HW133028   4.053   7.046   1.984
 6999SOL    HW233029   4.177   6.961   2.049
 7000SOL     OW33030   1.291   8.031   6.852
 7000SOL    HW133031   1.239   7.947   6.836
 7000SOL    HW233032   1.352   8.018   6.931
 7001SOL     OW33033   1.627   8.123   5.974
 7001SOL    HW133034   1.641   8.032   5.935
 7001SOL    HW233035   1.658   8.192   5.908
 7002SOL     OW33036   1.339   5.136   6.306
 7002SOL    HW133037   1.302   5.170   6.220
 7002SOL    HW233038   1.304   5.044   6.323
 7003SOL     OW33039   6.816   7.381   0.511
 7003SOL    HW133040   6.742   7.433   0.554
 7003SOL    HW233041   6.780   7.331   0.432
 7004SOL     OW33042   4.603   0.872   1.136
 7004SOL    HW133043   4.642   0.783   1.113
 7004SOL    HW233044   4.518   0.860   1.186
 7005SOL     OW33045   6.850   7.557   5.917
 7005SOL    HW133046   6.859   7.644   5.966
 7005SOL    HW233047   6.814   7.488   5.980
 7006SOL     OW33048   4.517   7.174   0.726
 7006SOL    HW133049   4.433   7.121   0.740
 7006SOL    HW233050   4.500   7.247   0.660
 7007SOL     OW33051   4.457   6.428   1.341
 7007SOL    HW133052   4.533   6.377   1.301
 7007SOL    HW233053   4.400   6.367   1.396
 7008SOL     OW33054   1.950   0.238   6.714
 7008SOL    HW133055   1.936   0.160   6.775
 7008SOL    HW233056   1.888   0.231   6.636
 7009SOL     OW33057   5.930   2.728   6.770
 7009SOL    HW133058   5.844   2.773   6.746
 7009SOL    HW233059   5.964   2.765   6.856
 7010SOL     OW33060   9.332   6.028   5.456
 7010SOL    HW133061   9.365   6.121   5.446
 7010SOL    HW233062   9.277   6.003   5.377
 7011SOL     OW33063   4.502   2.991   6.246
 7011SOL    HW133064   4.510   3.091   6.241
 7011SOL    HW233065   4.576   2.955   6.302
 7012SOL     OW33066   6.514   2.950   6.007
 7012SOL    HW133067   6.433   2.950   5.948
 7012SOL    HW233068   6.589   2.901   5.963
 7013SOL     OW33069   4.041   5.457   6.819
 7013SOL    HW133070   4.001   5.435   6.730
 7013SOL    HW233071   4.140   5.468   6.808
 7014SOL     OW33072   2.012   6.749   1.188
 7014SOL    HW133073   2.103   6.781   1.212
 7014SOL    HW233074   1.943   6.809   1.230
 7015SOL     OW33075   4.825   1.107   0.916
 7015SOL    HW133076   4.727   1.101   0.896
 7015SOL    HW233077   4.840   1.097   1.014
 7016SOL     OW33078   5.967   0.598   6.568
 7016SOL    HW133079   6.057   0.556   6.580
 7016SOL    HW233080   5.969   0.660   6.489
 7017SOL     OW33081   1.616   6.071   5.246
 7017SOL    HW133082   1.668   6.005   5.192
 7017SOL    HW233083   1.577   6.025   5.326
 7018SOL     OW33084   6.758   7.562   0.828
 7018SOL    HW133085   6.818   7.489   0.796
 7018SOL    HW233086   6.764   7.640   0.766
 7019SOL     OW33087   4.734   4.271   1.186
 7019SOL    HW133088   4.707   4.189   1.135
 7019SOL    HW233089   4.828   4.296   1.161
 7020SOL     OW33090   1.396   2.848   6.607
 7020SOL    HW133091   1.345   2.905   6.672
 7020SOL    HW233092   1.346   2.842   6.521
 7021SOL     OW33093   7.389   0.554   5.863
 7021SOL    HW133094   7.413   0.516   5.953
 7021SOL    HW233095   7.456   0.625   5.838
 7022SOL     OW33096   0.221   4.484   6.141
 7022SOL    HW133097   0.164   4.507   6.220
 7022SOL    HW233098   0.241   4.568   6.090
 7023SOL     OW33099   2.041   0.331   6.373
 7023SOL    HW133100   2.019   0.372   6.285
 7023SOL    HW233101   1.960   0.283   6.408
 7024SOL     OW33102   7.164   3.610   6.304
 7024SOL    HW133103   7.217   3.672   6.246
 7024SOL    HW233104   7.078   3.587   6.259
 7025SOL     OW33105   7.171   0.645   0.675
 7025SOL    HW133106   7.153   0.620   0.579
 7025SOL    HW233107   7.190   0.743   0.680
 7026SOL     OW33108   0.964   2.853   1.293
 7026SOL    HW133109   0.890   2.909   1.331
 7026SOL    HW233110   1.006   2.902   1.216
 7027SOL     OW33111   4.551   5.757   0.640
 7027SOL    HW133112   4.491   5.731   0.716
 7027SOL    HW233113   4.533   5.697   0.562
 7028SOL     OW33114   6.810   7.829   5.961
 7028SOL    HW133115   6.822   7.866   5.870
 7028SOL    HW233116   6.740   7.881   6.010
 7029SOL     OW33117   5.182   6.661   5.884
 7029SOL    HW133118   5.214   6.610   5.964
 7029SOL    HW233119   5.145   6.598   5.816
 7030SOL     OW33120   6.861   2.030   2.185
 7030SOL    HW133121   6.931   1.966   2.151
 7030SOL    HW233122   6.774   2.011   2.141
 7031SOL     OW33123   2.913   1.124   6.764
 7031SOL    HW133124   2.874   1.138   6.673
 7031SOL    HW233125   2.841   1.095   6.827
 7032SOL     OW33126   6.433   8.372   6.124
 7032SOL    HW133127   6.404   8.297   6.183
 7032SOL    HW233128   6.532   8.370   6.112
 7033SOL     OW33129   1.903   1.294   6.255
 7033SOL    HW133130   1.988   1.347   6.251
 7033SOL    HW233131   1.918   1.205   6.213
 7034SOL     OW33132   2.321   5.704   0.834
 7034SOL    HW133133   2.228   5.689   0.867
 7034SOL    HW233134   2.386   5.668   0.901
 7035SOL     OW33135   5.553   2.442   6.778
 7035SOL    HW133136   5.650   2.450   6.754
 7035SOL    HW233137   5.539   2.473   6.872
 7036SOL     OW33138   0.421   6.251   6.580
 7036SOL    HW133139   0.325   6.220   6.577
 7036SOL    HW233140   0.437   6.300   6.665
 7037SOL     OW33141   5.519   7.151   1.074
 7037SOL    HW133142   5.612   7.167   1.041
 7037SOL    HW233143   5.503   7.205   1.157
 7038SOL     OW33144   0.943   1.368   5.611
 7038SOL    HW133145   0.858   1.420   5.611
 7038SOL    HW233146   0.947   1.310   5.531
 7039SOL     OW33147   0.715   3.546   6.157
 7039SOL    HW133148   0.776   3.604   6.211
 7039SOL    HW233149   0.707   3.456   6.200
 7040SOL     OW33150   4.797   5.134   6.042
 7040SOL    HW133151   4.859   5.169   5.972
 7040SOL    HW233152   4.848   5.085   6.112
 7041SOL     OW33153   4.203   1.923   1.806
 7041SOL    HW133154   4.157   2.012   1.807
 7041SOL    HW233155   4.299   1.934   1.831
 7042SOL     OW33156   0.485   4.049   6.265
 7042SOL    HW133157   0.494   3.958   6.223
 7042SOL    HW233158   0.488   4.040   6.365
 7043SOL     OW33159   3.753   5.154   0.377
 7043SOL    HW133160   3.673   5.168   0.319
 7043SOL    HW233161   3.831   5.202   0.337
 7044SOL     OW33162   4.373   2.017   5.699
 7044SOL    HW133163   4.289   1.964   5.703
 7044SOL    HW233164   4.382   2.072   5.782
 7045SOL     OW33165   4.957   5.785   5.604
 7045SOL    HW133166   5.046   5.765   5.563
 7045SOL    HW233167   4.892   5.809   5.532
 7046SOL     OW33168   4.550   7.640   6.641
 7046SOL    HW133169   4.643   7.671   6.663
 7046SOL    HW233170   4.497   7.715   6.603
 7047SOL     OW33171   3.762   2.252   0.349
 7047SOL    HW133172   3.745   2.268   0.447
 7047SOL    HW233173   3.690   2.194   0.312
 7048SOL     OW33174   8.593   3.832   0.423
 7048SOL    HW133175   8.675   3.815   0.368
 7048SOL    HW233176   8.520   3.770   0.392
 7049SOL     OW33177   1.622   5.516   0.500
 7049SOL    HW133178   1.634   5.476   0.591
 7049SOL    HW233179   1.530   5.553   0.491
 7050SOL     OW33180   6.892   7.951   1.212
 7050SOL    HW133181   6.793   7.950   1.226
 7050SOL    HW233182   6.938   7.908   1.290
 7051SOL     OW33183   8.285   0.744   5.983
 7051SOL    HW133184   8.313   0.804   5.909
 7051SOL    HW233185   8.186   0.740   5.988
 7052SOL     OW33186   5.476   5.734   0.652
 7052SOL    HW133187   5.553   5.687   0.696
 7052SOL    HW233188   5.500   5.830   0.637
 7053SOL     OW33189   1.719   6.006   1.041
 7053SOL    HW133190   1.781   5.952   0.984
 7053SOL    HW233191   1.747   5.999   1.137
 7054SOL     OW33192   4.367   1.777   0.385
 7054SOL    HW133193   4.332   1.798   0.476
 7054SOL    HW233194   4.378   1.862   0.333
 7055SOL     OW33195   9.362   0.663   6.774
 7055SOL    HW133196   9.439   0.704   6.824
 7055SOL    HW233197   9.291   0.732   6.762
 7056SOL     OW33198   4.416   2.963   6.003
 7056SOL    HW133199   4.394   3.058   5.982
 7056SOL    HW233200   4.468   2.959   6.088
 7057SOL     OW33201   9.063   0.691   6.036
 7057SOL    HW133202   9.121   0.764   6.073
 7057SOL    HW233203   8.977   0.730   6.005
 7058SOL     OW33204   6.909   7.289   5.833
 7058SOL    HW133205   6.948   7.333   5.752
 7058SOL    HW233206   6.959   7.320   5.914
 7059SOL     OW33207   1.510   0.889   6.414
 7059SOL    HW133208   1.494   0.813   6.478
 7059SOL    HW233209   1.567   0.958   6.458
 7060SOL     OW33210   6.087   3.454   0.586
 7060SOL    HW133211   6.041   3.365   0.587
 7060SOL    HW233212   6.089   3.491   0.679
 7061SOL     OW33213   1.289   8.417   1.012
 7061SOL    HW133214   1.280   8.487   1.083
 7061SOL    HW233215   1.372   8.363   1.028
 7062SOL     OW33216   9.253   3.115   6.012
 7062SOL    HW133217   9.330   3.135   5.952
 7062SOL    HW233218   9.174   3.170   5.984
 7063SOL     OW33219   5.610   3.692   1.356
 7063SOL    HW133220   5.518   3.721   1.328
 7063SOL    HW233221   5.652   3.764   1.410
 7064SOL     OW33222   9.579   7.303   5.921
 7064SOL    HW133223   9.590   7.291   6.020
 7064SOL    HW233224   9.612   7.394   5.895
 7065SOL     OW33225   6.141   5.003   5.434
 7065SOL    HW133226   6.073   5.019   5.362
 7065SOL    HW233227   6.209   5.077   5.432
 7066SOL     OW33228   3.006   4.999   6.253
 7066SOL    HW133229   2.913   4.984   6.287
 7066SOL    HW233230   3.054   5.063   6.312
 7067SOL     OW33231   5.703   5.678   0.941
 7067SOL    HW133232   5.671   5.767   0.973
 7067SOL    HW233233   5.717   5.618   1.019
 7068SOL     OW33234   4.507   0.800   6.167
 7068SOL    HW133235   4.427   0.752   6.203
 7068SOL    HW233236   4.587   0.777   6.222
 7069SOL     OW33237   7.652   1.330   0.537
 7069SOL    HW133238   7.740   1.331   0.489
 7069SOL    HW233239   7.597   1.408   0.506
 7070SOL     OW33240   0.238   8.420   0.640
 7070SOL    HW133241   0.266   8.324   0.641
 7070SOL    HW233242   0.141   8.426   0.617
 7071SOL     OW33243   6.112   6.042   1.083
 7071SOL    HW133244   6.208   6.025   1.104
 7071SOL    HW233245   6.056   6.020   1.163
 7072SOL     OW33246   1.277   1.112   6.861
 7072SOL    HW133247   1.211   1.043   6.832
 7072SOL    HW233248   1.236   1.170   6.932
 7073SOL     OW33249   7.926   6.118   6.196
 7073SOL    HW133250   7.887   6.082   6.111
 7073SOL    HW233251   7.882   6.074   6.274
 7074SOL     OW33252   0.948   0.640   1.679
 7074SOL    HW133253   0.983   0.663   1.770
 7074SOL    HW233254   0.861   0.688   1.664
 7075SOL     OW33255   5.234   8.235   0.558
 7075SOL    HW133256   5.203   8.141   0.543
 7075SOL    HW233257   5.334   8.236   0.563
 7076SOL     OW33258   0.234   2.148   5.855
 7076SOL    HW133259   0.205   2.182   5.944
 7076SOL    HW233260   0.219   2.049   5.850
 7077SOL     OW33261   0.350   0.268   4.799
 7077SOL    HW133262   0.413   0.322   4.854
 7077SOL    HW233263   0.296   0.329   4.741
 7078SOL     OW33264   1.344  -0.044   6.320
 7078SOL    HW133265   1.384  -0.066   6.231
 7078SOL    HW233266   1.385  -0.103   6.391
 7079SOL     OW33267   6.313   5.484   1.346
 7079SOL    HW133268   6.375   5.413   1.380
 7079SOL    HW233269   6.274   5.456   1.259
 7080SOL     OW33270   2.266   0.660   0.521
 7080SOL    HW133271   2.314   0.748   0.515
 7080SOL    HW233272   2.319   0.597   0.578
 7081SOL     OW33273   2.717   5.993   0.704
 7081SOL    HW133274   2.759   5.935   0.774
 7081SOL    HW233275   2.713   5.942   0.618
 7082SOL     OW33276   8.958   0.431   0.395
 7082SOL    HW133277   8.905   0.439   0.310
 7082SOL    HW233278   9.050   0.467   0.379
 7083SOL     OW33279   0.158   2.781   6.096
 7083SOL    HW133280   0.164   2.820   6.004
 7083SOL    HW233281   0.062   2.766   6.119
 7084SOL     OW33282   8.742   5.638   6.017
 7084SOL    HW133283   8.838   5.651   5.991
 7084SOL    HW233284   8.727   5.679   6.107
 7085SOL     OW33285   8.414   8.069   0.662
 7085SOL    HW133286   8.329   8.117   0.638
 7085SOL    HW233287   8.478   8.074   0.585
 7086SOL     OW33288   6.626   0.836   1.294
 7086SOL    HW133289   6.703   0.830   1.357
 7086SOL    HW233290   6.585   0.745   1.283
 7087SOL     OW33291   1.916   4.154   0.538
 7087SOL    HW133292   1.959   4.236   0.502
 7087SOL    HW233293   1.829   4.177   0.582
 7088SOL     OW33294   0.740   8.387   0.294
 7088SOL    HW133295   0.653   8.413   0.250
 7088SOL    HW233296   0.733   8.403   0.392
 7089SOL     OW33297   7.096   5.120   1.527
 7089SOL    HW133298   7.042   5.075   1.598
 7089SOL    HW233299   7.117   5.055   1.454
 7090SOL     OW33300   2.074   1.182   1.665
 7090SOL    HW133301   2.155   1.124   1.652
 7090SOL    HW233302   2.089   1.241   1.745
 7091SOL     OW33303   3.414   8.393   1.412
 7091SOL    HW133304   3.441   8.316   1.468
 7091SOL    HW233305   3.492   8.424   1.357
 7092SOL     OW33306   3.910   4.698   6.920
 7092SOL    HW133307   3.852   4.779   6.913
 7092SOL    HW233308   3.871   4.625   6.863
 7093SOL     OW33309   0.383   7.185   4.399
 7093SOL    HW133310   0.418   7.144   4.483
 7093SOL    HW233311   0.384   7.118   4.326
 7094SOL     OW33312   8.866   5.770   6.515
 7094SOL    HW133313   8.835   5.865   6.527
 7094SOL    HW233314   8.908   5.760   6.425
 7095SOL     OW33315   9.574   7.738   6.014
 7095SOL    HW133316   9.567   7.826   5.968
 7095SOL    HW233317   9.621   7.673   5.954
 7096SOL     OW33318   5.527   6.118   0.407
 7096SOL    HW133319   5.586   6.066   0.345
 7096SOL    HW233320   5.511   6.210   0.369
 7097SOL     OW33321   4.180   2.851   6.040
 7097SOL    HW133322   4.110   2.908   5.997
 7097SOL    HW233323   4.271   2.887   6.017
 7098SOL     OW33324   4.994   5.286   5.490
 7098SOL    HW133325   4.994   5.199   5.440
 7098SOL    HW233326   4.908   5.295   5.540
 7099SOL     OW33327   1.489   5.602   1.452
 7099SOL    HW133328   1.570   5.661   1.447
 7099SOL    HW233329   1.502   5.534   1.523
 7100SOL     OW33330   6.353  -0.002   6.516
 7100SOL    HW133331   6.448  -0.012   6.484
 7100SOL    HW233332   6.291  -0.010   6.439
 7101SOL     OW33333   4.175   4.716   6.357
 7101SOL    HW133334   4.193   4.688   6.263
 7101SOL    HW233335   4.206   4.809   6.371
 7102SOL     OW33336   2.911   6.268   0.851
 7102SOL    HW133337   2.945   6.207   0.923
 7102SOL    HW233338   2.859   6.215   0.784
 7103SOL     OW33339   7.492   6.316   1.573
 7103SOL    HW133340   7.451   6.395   1.619
 7103SOL    HW233341   7.590   6.314   1.590
 7104SOL     OW33342   0.458   4.584   6.394
 7104SOL    HW133343   0.517   4.507   6.420
 7104SOL    HW233344   0.363   4.562   6.417
 7105SOL     OW33345   7.760   0.945   5.692
 7105SOL    HW133346   7.679   0.965   5.637
 7105SOL    HW233347   7.840   0.990   5.651
 7106SOL     OW33348   8.346   5.066   5.787
 7106SOL    HW133349   8.322   4.974   5.758
 7106SOL    HW233350   8.264   5.115   5.816
 7107SOL     OW33351   0.205   5.512   6.033
 7107SOL    HW133352   0.251   5.593   6.070
 7107SOL    HW233353   0.264   5.469   5.965
 7108SOL     OW33354   0.964   6.642   1.254
 7108SOL    HW133355   0.955   6.672   1.349
 7108SOL    HW233356   0.895   6.689   1.198
 7109SOL     OW33357   9.311   4.092   1.465
 7109SOL    HW133358   9.357   4.133   1.544
 7109SOL    HW233359   9.254   4.161   1.420
 7110SOL     OW33360   6.076   4.390   6.740
 7110SOL    HW133361   5.982   4.423   6.735
 7110SOL    HW233362   6.113   4.381   6.647
 7111SOL     OW33363   3.676   8.285   6.736
 7111SOL    HW133364   3.754   8.327   6.783
 7111SOL    HW233365   3.618   8.357   6.697
 7112SOL     OW33366   5.249   3.912   1.147
 7112SOL    HW133367   5.170   3.956   1.190
 7112SOL    HW233368   5.324   3.978   1.139
 7113SOL     OW33369   1.155   3.083   0.950
 7113SOL    HW133370   1.111   3.136   1.022
 7113SOL    HW233371   1.132   3.121   0.860
 7114SOL     OW33372   4.451   6.839   0.820
 7114SOL    HW133373   4.395   6.910   0.863
 7114SOL    HW233374   4.394   6.760   0.797
 7115SOL     OW33375   2.560   2.937   0.948
 7115SOL    HW133376   2.575   2.947   0.850
 7115SOL    HW233377   2.578   3.025   0.993
 7116SOL     OW33378   6.832   7.242   0.872
 7116SOL    HW133379   6.931   7.238   0.856
 7116SOL    HW233380   6.812   7.197   0.959
 7117SOL     OW33381   5.443   6.681   5.797
 7117SOL    HW133382   5.501   6.600   5.802
 7117SOL    HW233383   5.370   6.674   5.865
 7118SOL     OW33384   9.521   1.702   6.008
 7118SOL    HW133385   9.521   1.624   5.945
 7118SOL    HW233386   9.563   1.675   6.095
 7119SOL     OW33387   1.939   4.403   0.863
 7119SOL    HW133388   1.859   4.356   0.826
 7119SOL    HW233389   2.001   4.337   0.903
 7120SOL     OW33390   8.880   0.797   6.403
 7120SOL    HW133391   8.818   0.763   6.332
 7120SOL    HW233392   8.869   0.743   6.486
 7121SOL     OW33393   1.109   0.676   1.460
 7121SOL    HW133394   1.047   0.651   1.534
 7121SOL    HW233395   1.203   0.656   1.487
 7122SOL     OW33396   5.588   7.606   1.637
 7122SOL    HW133397   5.669   7.652   1.673
 7122SOL    HW233398   5.519   7.600   1.709
 7123SOL     OW33399   7.761   6.954   6.603
 7123SOL    HW133400   7.694   6.927   6.534
 7123SOL    HW233401   7.851   6.960   6.561
 7124SOL     OW33402   6.417   4.379   1.283
 7124SOL    HW133403   6.373   4.465   1.257
 7124SOL    HW233404   6.425   4.375   1.382
 7125SOL     OW33405   1.817   3.240   6.500
 7125SOL    HW133406   1.885   3.245   6.574
 7125SOL    HW233407   1.735   3.291   6.526
 7126SOL     OW33408   0.886   8.028   5.591
 7126SOL    HW133409   0.908   8.103   5.653
 7126SOL    HW233410   0.831   7.960   5.639
 7127SOL     OW33411   1.482   8.417   6.073
 7127SOL    HW133412   1.400   8.456   6.032
 7127SOL    HW233413   1.561   8.473   6.047
 7128SOL     OW33414   9.452   7.855   0.855
 7128SOL    HW133415   9.365   7.818   0.822
 7128SOL    HW233416   9.508   7.781   0.892
 7129SOL     OW33417   3.554   0.936   2.394
 7129SOL    HW133418   3.587   0.933   2.488
 7129SOL    HW233419   3.514   0.848   2.369
 7130SOL     OW33420   5.127   5.297   5.916
 7130SOL    HW133421   5.080   5.365   5.860
 7130SOL    HW233422   5.127   5.209   5.868
 7131SOL     OW33423   3.138   4.747   6.482
 7131SOL    HW133424   3.228   4.708   6.465
 7131SOL    HW233425   3.148   4.839   6.519
 7132SOL     OW33426   2.567   3.201   6.300
 7132SOL    HW133427   2.657   3.217   6.341
 7132SOL    HW233428   2.579   3.167   6.206
 7133SOL     OW33429   0.411   4.846   6.598
 7133SOL    HW133430   0.416   4.843   6.698
 7133SOL    HW233431   0.502   4.869   6.561
 7134SOL     OW33432   5.166   6.043   6.705
 7134SOL    HW133433   5.114   6.091   6.634
 7134SOL    HW233434   5.187   6.106   6.779
 7135SOL     OW33435   2.248   1.300   6.314
 7135SOL    HW133436   2.205   1.220   6.355
 7135SOL    HW233437   2.298   1.272   6.231
 7136SOL     OW33438   2.629   7.740   6.032
 7136SOL    HW133439   2.574   7.657   6.041
 7136SOL    HW233440   2.710   7.733   6.090
 7137SOL     OW33441   6.123   5.463   6.047
 7137SOL    HW133442   6.202   5.402   6.053
 7137SOL    HW233443   6.059   5.443   6.122
 7138SOL     OW33444   8.404   6.663   1.133
 7138SOL    HW133445   8.504   6.672   1.125
 7138SOL    HW233446   8.382   6.582   1.186
 7139SOL     OW33447   1.364   1.601   6.456
 7139SOL    HW133448   1.305   1.627   6.380
 7139SOL    HW233449   1.322   1.524   6.505
 7140SOL     OW33450   2.212   6.248   6.342
 7140SOL    HW133451   2.294   6.288   6.301
 7140SOL    HW233452   2.130   6.289   6.300
 7141SOL     OW33453   2.553   7.941   0.472
 7141SOL    HW133454   2.539   7.876   0.546
 7141SOL    HW233455   2.615   7.903   0.404
 7142SOL     OW33456   0.553   6.492   4.254
 7142SOL    HW133457   0.650   6.469   4.255
 7142SOL    HW233458   0.536   6.567   4.318
 7143SOL     OW33459   5.449   2.930   0.751
 7143SOL    HW133460   5.374   2.949   0.688
 7143SOL    HW233461   5.452   2.999   0.823
 7144SOL     OW33462   2.386   7.304   6.809
 7144SOL    HW133463   2.467   7.303   6.868
 7144SOL    HW233464   2.344   7.394   6.810
 7145SOL     OW33465   1.400   5.572   5.209
 7145SOL    HW133466   1.483   5.534   5.167
 7145SOL    HW233467   1.344   5.616   5.139
 7146SOL     OW33468   9.538   3.939   1.784
 7146SOL    HW133469   9.475   4.002   1.738
 7146SOL    HW233470   9.565   3.978   1.872
 7147SOL     OW33471   8.988   5.736   6.278
 7147SOL    HW133472   8.962   5.780   6.193
 7147SOL    HW233473   9.013   5.641   6.260
 7148SOL     OW33474   2.278   7.588   6.783
 7148SOL    HW133475   2.335   7.658   6.825
 7148SOL    HW233476   2.274   7.602   6.684
 7149SOL     OW33477   0.216   2.167   6.658
 7149SOL    HW133478   0.194   2.091   6.720
 7149SOL    HW233479   0.303   2.148   6.612
 7150SOL     OW33480   1.946   0.280   5.403
 7150SOL    HW133481   2.018   0.271   5.334
 7150SOL    HW233482   1.955   0.369   5.448
 7151SOL     OW33483   7.078   5.202   5.103
 7151SOL    HW133484   7.032   5.187   5.015
 7151SOL    HW233485   7.177   5.208   5.088
 7152SOL     OW33486   5.419   7.288   0.320
 7152SOL    HW133487   5.469   7.327   0.244
 7152SOL    HW233488   5.330   7.333   0.329
 7153SOL     OW33489   0.526   3.116   0.333
 7153SOL    HW133490   0.454   3.050   0.357
 7153SOL    HW233491   0.511   3.201   0.383
 7154SOL     OW33492   8.971   4.922   5.985
 7154SOL    HW133493   8.957   4.907   6.083
 7154SOL    HW233494   9.047   4.866   5.953
 7155SOL     OW33495   4.497   8.371   0.851
 7155SOL    HW133496   4.593   8.362   0.824
 7155SOL    HW233497   4.486   8.340   0.946
 7156SOL     OW33498   2.227   0.678   6.863
 7156SOL    HW133499   2.253   0.771   6.885
 7156SOL    HW233500   2.138   0.678   6.817
 7157SOL     OW33501   7.904   2.988   0.976
 7157SOL    HW133502   7.982   3.011   1.033
 7157SOL    HW233503   7.876   2.893   0.995
 7158SOL     OW33504   1.221   5.257   5.676
 7158SOL    HW133505   1.306   5.279   5.628
 7158SOL    HW233506   1.203   5.327   5.745
 7159SOL     OW33507   0.671   1.052   1.109
 7159SOL    HW133508   0.642   0.976   1.051
 7159SOL    HW233509   0.653   1.030   1.205
 7160SOL     OW33510   6.605   8.075   0.606
 7160SOL    HW133511   6.559   8.155   0.568
 7160SOL    HW233512   6.689   8.057   0.553
 7161SOL     OW33513   2.229   5.974   0.957
 7161SOL    HW133514   2.316   5.932   0.933
 7161SOL    HW233515   2.194   5.933   1.041
 7162SOL     OW33516   4.222   7.773   0.259
 7162SOL    HW133517   4.264   7.856   0.222
 7162SOL    HW233518   4.123   7.775   0.242
 7163SOL     OW33519   6.830   1.864   6.586
 7163SOL    HW133520   6.763   1.806   6.539
 7163SOL    HW233521   6.921   1.823   6.576
 7164SOL     OW33522   1.834   3.923   5.811
 7164SOL    HW133523   1.783   3.857   5.757
 7164SOL    HW233524   1.800   4.016   5.791
 7165SOL     OW33525   2.529   0.951   6.852
 7165SOL    HW133526   2.436   0.927   6.880
 7165SOL    HW233527   2.528   1.042   6.809
 7166SOL     OW33528   3.086   7.539   5.460
 7166SOL    HW133529   3.107   7.634   5.486
 7166SOL    HW233530   3.170   7.495   5.427
 7167SOL     OW33531   0.594   5.120   0.891
 7167SOL    HW133532   0.501   5.156   0.902
 7167SOL    HW233533   0.589   5.023   0.868
 7168SOL     OW33534   5.990   2.052   0.507
 7168SOL    HW133535   5.943   2.132   0.543
 7168SOL    HW233536   5.942   1.969   0.534
 7169SOL     OW33537   7.125   0.945   5.804
 7169SOL    HW133538   7.044   0.975   5.855
 7169SOL    HW233539   7.118   0.975   5.709
 7170SOL     OW33540   6.231   6.664   1.383
 7170SOL    HW133541   6.317   6.615   1.368
 7170SOL    HW233542   6.173   6.655   1.301
 7171SOL     OW33543   6.141   2.967   0.764
 7171SOL    HW133544   6.109   2.927   0.850
 7171SOL    HW233545   6.204   3.042   0.783
 7172SOL     OW33546   0.781   8.061   5.970
 7172SOL    HW133547   0.756   8.121   5.893
 7172SOL    HW233548   0.880   8.064   5.983
 7173SOL     OW33549   8.382   7.407   6.927
 7173SOL    HW133550   8.336   7.475   6.984
 7173SOL    HW233551   8.476   7.437   6.908
 7174SOL     OW33552   4.122   2.631   6.784
 7174SOL    HW133553   4.057   2.556   6.778
 7174SOL    HW233554   4.149   2.660   6.692
 7175SOL     OW33555   6.049   0.286   5.634
 7175SOL    HW133556   6.122   0.245   5.580
 7175SOL    HW233557   5.973   0.221   5.643
 7176SOL     OW33558   1.715   7.353   6.248
 7176SOL    HW133559   1.745   7.448   6.232
 7176SOL    HW233560   1.667   7.320   6.167
 7177SOL     OW33561   9.109   2.561   6.836
 7177SOL    HW133562   9.111   2.610   6.923
 7177SOL    HW233563   9.029   2.590   6.783
 7178SOL     OW33564   8.427   6.909   5.129
 7178SOL    HW133565   8.428   6.823   5.180
 7178SOL    HW233566   8.372   6.898   5.046
 7179SOL     OW33567   1.110   4.475   5.808
 7179SOL    HW133568   1.201   4.469   5.849
 7179SOL    HW233569   1.118   4.493   5.710
 7180SOL     OW33570   6.597   1.620   6.908
 7180SOL    HW133571   6.637   1.710   6.924
 7180SOL    HW233572   6.641   1.553   6.969
 7181SOL     OW33573   1.941   6.455   1.205
 7181SOL    HW133574   1.896   6.409   1.129
 7181SOL    HW233575   1.968   6.547   1.176
 7182SOL     OW33576   2.225   5.196   0.838
 7182SOL    HW133577   2.288   5.201   0.915
 7182SOL    HW233578   2.186   5.105   0.832
 7183SOL     OW33579   4.022   1.473   1.757
 7183SOL    HW133580   4.089   1.546   1.751
 7183SOL    HW233581   4.068   1.386   1.777
 7184SOL     OW33582   0.345   6.532   5.997
 7184SOL    HW133583   0.297   6.619   6.000
 7184SOL    HW233584   0.284   6.459   6.029
 7185SOL     OW33585   7.745   7.238   1.588
 7185SOL    HW133586   7.742   7.194   1.677
 7185SOL    HW233587   7.807   7.317   1.591
 7186SOL     OW33588   3.951   0.341   6.371
 7186SOL    HW133589   4.038   0.290   6.371
 7186SOL    HW233590   3.896   0.310   6.449
 7187SOL     OW33591   3.439   4.018   0.445
 7187SOL    HW133592   3.361   3.982   0.495
 7187SOL    HW233593   3.433   4.117   0.439
 7188SOL     OW33594   0.147   8.420   6.371
 7188SOL    HW133595   0.183   8.360   6.443
 7188SOL    HW233596   0.185   8.511   6.382
 7189SOL     OW33597   3.773   1.427   1.342
 7189SOL    HW133598   3.795   1.334   1.373
 7189SOL    HW233599   3.814   1.493   1.406
 7190SOL     OW33600   1.775   4.976   0.644
 7190SOL    HW133601   1.680   4.958   0.666
 7190SOL    HW233602   1.784   4.997   0.546
 7191SOL     OW33603   4.164   5.448   1.107
 7191SOL    HW133604   4.109   5.525   1.140
 7191SOL    HW233605   4.179   5.383   1.181
 7192SOL     OW33606   9.477   7.082   5.141
 7192SOL    HW133607   9.496   7.034   5.055
 7192SOL    HW233608   9.532   7.165   5.146
 7193SOL     OW33609   5.734   4.784   6.053
 7193SOL    HW133610   5.644   4.758   6.016
 7193SOL    HW233611   5.790   4.703   6.067
 7194SOL     OW33612   3.239   5.088   5.839
 7194SOL    HW133613   3.294   5.016   5.882
 7194SOL    HW233614   3.215   5.059   5.746
 7195SOL     OW33615   8.355   2.556   1.565
 7195SOL    HW133616   8.388   2.518   1.652
 7195SOL    HW233617   8.335   2.482   1.502
 7196SOL     OW33618   2.742   7.616   1.288
 7196SOL    HW133619   2.803   7.600   1.366
 7196SOL    HW233620   2.648   7.592   1.314
 7197SOL     OW33621   0.262   2.380   0.904
 7197SOL    HW133622   0.319   2.298   0.907
 7197SOL    HW233623   0.317   2.459   0.933
 7198SOL     OW33624   8.803   7.040   6.077
 7198SOL    HW133625   8.771   6.951   6.042
 7198SOL    HW233626   8.735   7.075   6.142
 7199SOL     OW33627   9.434   2.284   0.285
 7199SOL    HW133628   9.477   2.219   0.349
 7199SOL    HW233629   9.501   2.312   0.216
 7200SOL     OW33630   2.118   3.288   5.290
 7200SOL    HW133631   2.174   3.323   5.214
 7200SOL    HW233632   2.059   3.214   5.257
 7201SOL     OW33633   6.921   8.425   6.810
 7201SOL    HW133634   6.932   8.374   6.725
 7201SOL    HW233635   6.845   8.388   6.862
 7202SOL     OW33636   3.240   7.028   6.264
 7202SOL    HW133637   3.263   6.930   6.258
 7202SOL    HW233638   3.154   7.045   6.216
 7203SOL     OW33639   5.757   8.346   6.342
 7203SOL    HW133640   5.670   8.367   6.297
 7203SOL    HW233641   5.783   8.423   6.400
 7204SOL     OW33642   6.381   6.445   0.916
 7204SOL    HW133643   6.445   6.380   0.875
 7204SOL    HW233644   6.310   6.396   0.965
 7205SOL     OW33645   0.521   6.080   6.016
 7205SOL    HW133646   0.489   6.037   6.101
 7205SOL    HW233647   0.540   6.177   6.033
 7206SOL     OW33648   8.828   7.849   5.789
 7206SOL    HW133649   8.880   7.767   5.812
 7206SOL    HW233650   8.732   7.826   5.776
 7207SOL     OW33651   0.818   2.407   1.631
 7207SOL    HW133652   0.813   2.473   1.706
 7207SOL    HW233653   0.913   2.384   1.612
 7208SOL     OW33654   5.660   4.869   2.119
 7208SOL    HW133655   5.638   4.786   2.170
 7208SOL    HW233656   5.609   4.946   2.156
 7209SOL     OW33657   5.359   4.266   1.476
 7209SOL    HW133658   5.433   4.298   1.417
 7209SOL    HW233659   5.397   4.229   1.561
 7210SOL     OW33660   2.636   3.463   0.423
 7210SOL    HW133661   2.725   3.438   0.461
 7210SOL    HW233662   2.565   3.449   0.492
 7211SOL     OW33663   4.126   0.861   5.408
 7211SOL    HW133664   4.205   0.840   5.465
 7211SOL    HW233665   4.051   0.896   5.465
 7212SOL     OW33666   1.559   2.124   1.164
 7212SOL    HW133667   1.589   2.104   1.257
 7212SOL    HW233668   1.506   2.209   1.164
 7213SOL     OW33669   4.567   1.982   6.099
 7213SOL    HW133670   4.551   1.973   6.001
 7213SOL    HW233671   4.567   2.078   6.125
 7214SOL     OW33672   7.971   6.966   6.230
 7214SOL    HW133673   8.035   6.969   6.153
 7214SOL    HW233674   8.021   6.983   6.315
 7215SOL     OW33675   2.904   7.617   6.808
 7215SOL    HW133676   2.957   7.581   6.885
 7215SOL    HW233677   2.937   7.709   6.785
 7216SOL     OW33678   6.488   7.809   5.302
 7216SOL    HW133679   6.570   7.800   5.358
 7216SOL    HW233680   6.493   7.894   5.249
 7217SOL     OW33681   1.698   7.846   6.231
 7217SOL    HW133682   1.776   7.909   6.228
 7217SOL    HW233683   1.614   7.897   6.213
 7218SOL     OW33684   1.655   3.765   0.691
 7218SOL    HW133685   1.728   3.807   0.745
 7218SOL    HW233686   1.570   3.764   0.744
 7219SOL     OW33687   3.022   2.372   6.018
 7219SOL    HW133688   3.079   2.340   5.942
 7219SOL    HW233689   3.026   2.307   6.093
 7220SOL     OW33690   8.061   1.057   6.447
 7220SOL    HW133691   8.083   1.034   6.353
 7220SOL    HW233692   8.024   0.977   6.494
 7221SOL     OW33693   7.873   2.826   6.367
 7221SOL    HW133694   7.894   2.750   6.306
 7221SOL    HW233695   7.788   2.806   6.417
 7222SOL     OW33696   0.728   6.611   6.597
 7222SOL    HW133697   0.664   6.683   6.624
 7222SOL    HW233698   0.803   6.652   6.545
 7223SOL     OW33699   1.332   1.625   5.964
 7223SOL    HW133700   1.296   1.609   6.056
 7223SOL    HW233701   1.293   1.558   5.901
 7224SOL     OW33702   3.107   3.567   0.753
 7224SOL    HW133703   3.187   3.582   0.695
 7224SOL    HW233704   3.029   3.540   0.696
 7225SOL     OW33705   6.476   1.684   1.740
 7225SOL    HW133706   6.451   1.779   1.722
 7225SOL    HW233707   6.430   1.624   1.675
 7226SOL     OW33708   0.245   2.332   0.427
 7226SOL    HW133709   0.184   2.391   0.479
 7226SOL    HW233710   0.295   2.271   0.489
 7227SOL     OW33711   8.444   0.793   6.262
 7227SOL    HW133712   8.429   0.721   6.330
 7227SOL    HW233713   8.389   0.774   6.180
 7228SOL     OW33714   0.439   7.787   0.622
 7228SOL    HW133715   0.418   7.714   0.688
 7228SOL    HW233716   0.528   7.827   0.644
 7229SOL     OW33717   0.986   0.175   1.422
 7229SOL    HW133718   0.958   0.247   1.359
 7229SOL    HW233719   1.001   0.090   1.370
 7230SOL     OW33720   0.675   2.166   6.086
 7230SOL    HW133721   0.623   2.251   6.082
 7230SOL    HW233722   0.771   2.186   6.106
 7231SOL     OW33723   6.810   0.153   6.271
 7231SOL    HW133724   6.908   0.155   6.256
 7231SOL    HW233725   6.766   0.223   6.214
 7232SOL     OW33726   3.752   6.157   6.881
 7232SOL    HW133727   3.786   6.250   6.899
 7232SOL    HW233728   3.820   6.108   6.828
 7233SOL     OW33729   2.546   7.614   6.839
 7233SOL    HW133730   2.513   7.522   6.821
 7233SOL    HW233731   2.637   7.609   6.879
 7234SOL     OW33732   7.366   3.544   6.965
 7234SOL    HW133733   7.277   3.497   6.959
 7234SOL    HW233734   7.428   3.490   7.021
 7235SOL     OW33735   0.280   1.463   6.892
 7235SOL    HW133736   0.353   1.520   6.930
 7235SOL    HW233737   0.195   1.481   6.942
 7236SOL     OW33738   3.993   6.261   6.928
 7236SOL    HW133739   3.979   6.299   7.019
 7236SOL    HW233740   4.088   6.273   6.901
 7237SOL     OW33741   0.358   5.260   7.057
 7237SOL    HW133742   0.359   5.162   7.079
 7237SOL    HW233743   0.280   5.281   7.000
 7238SOL     OW33744   6.679   6.378   7.051
 7238SOL    HW133745   6.749   6.419   6.992
 7238SOL    HW233746   6.594   6.371   7.001
 7239SOL     OW33747   4.773   1.842   6.949
 7239SOL    HW133748   4.714   1.895   7.009
 7239SOL    HW233749   4.740   1.748   6.945
 7240SOL     OW33750   1.899   8.005   6.935
 7240SOL    HW133751   1.968   8.036   7.001
 7240SOL    HW233752   1.808   8.016   6.973
 7241SOL     OW33753   4.659   6.323   6.771
 7241SOL    HW133754   4.609   6.308   6.857
 7241SOL    HW233755   4.603   6.293   6.694
 7242SOL     OW33756   2.293   8.353   6.757
 7242SOL    HW133757   2.318   8.268   6.804
 7242SOL    HW233758   2.357   8.424   6.782
 7243SOL     OW33759   5.423   5.282   6.945
 7243SOL    HW133760   5.346   5.277   7.009
 7243SOL    HW233761   5.492   5.345   6.980
 7244SOL     OW33762   5.846   4.815   6.978
 7244SOL    HW133763   5.850   4.722   6.940
 7244SOL    HW233764   5.853   4.881   6.904
 7245SOL     OW33765   9.433   3.463   6.981
 7245SOL    HW133766   9.380   3.388   7.021
 7245SOL    HW233767   9.528   3.434   6.972
 7246SOL     OW33768   2.667   2.036   6.801
 7246SOL    HW133769   2.653   2.033   6.701
 7246SOL    HW233770   2.751   1.987   6.824
 7247SOL     OW33771   3.045   1.549   6.990
 7247SOL    HW133772   2.993   1.564   6.905
 7247SOL    HW233773   3.013   1.612   7.060
 7248SOL     OW33774   1.580   7.070   6.849
 7248SOL    HW133775   1.666   7.116   6.877
 7248SOL    HW233776   1.530   7.130   6.788
 7249SOL     OW33777   4.583   8.036   6.820
 7249SOL    HW133778   4.602   7.972   6.895
 7249SOL    HW233779   4.574   8.128   6.856
 7250SOL     OW33780   5.406   4.036   7.004
 7250SOL    HW133781   5.465   3.960   7.031
 7250SOL    HW233782   5.449   4.122   7.031
 7251SOL     OW33783   1.665   5.376   6.972
 7251SOL    HW133784   1.717   5.293   6.952
 7251SOL    HW233785   1.727   5.452   6.985
 7252SOL     OW33786   4.111   1.316   6.945
 7252SOL    HW133787   4.028   1.287   6.993
 7252SOL    HW233788   4.153   1.238   6.900
 7253SOL     OW33789   4.712   5.384   6.999
 7253SOL    HW133790   4.766   5.433   6.930
 7253SOL    HW233791   4.689   5.294   6.966
 7254SOL     OW33792   0.730   6.909   6.920
 7254SOL    HW133793   0.658   6.840   6.936
 7254SOL    HW233794   0.746   6.959   7.004
 7255SOL     OW33795   4.123   4.030   6.992
 7255SOL    HW133796   4.222   4.041   7.000
 7255SOL    HW233797   4.099   4.006   6.899
 7256SOL     OW33798   5.354   2.269   6.916
 7256SOL    HW133799   5.313   2.334   6.981
 7256SOL    HW233800   5.319   2.286   6.825
 7257SOL     OW33801   6.266   7.913   6.786
 7257SOL    HW133802   6.300   7.871   6.871
 7257SOL    HW233803   6.331   7.981   6.755
 7258SOL     OW33804   8.061   0.436   7.022
 7258SOL    HW133805   8.087   0.390   7.107
 7258SOL    HW233806   8.004   0.514   7.042
 7259SOL     OW33807   5.698   5.499   7.024
 7259SOL    HW133808   5.618   5.530   6.972
 7259SOL    HW233809   5.670   5.475   7.116
 7260SOL     OW33810   2.253   7.169   6.852
 7260SOL    HW133811   2.241   7.121   6.764
 7260SOL    HW233812   2.250   7.267   6.836
 7261SOL     OW33813   2.213   3.944   7.046
 7261SOL    HW133814   2.154   4.019   7.013
 7261SOL    HW233815   2.308   3.966   7.028
 7262SOL     OW33816   0.105   6.095   7.033
 7262SOL    HW133817   0.102   5.995   7.029
 7262SOL    HW233818   0.047   6.132   6.961
 7263SOL     OW33819   7.993   5.885   6.881
 7263SOL    HW133820   8.052   5.806   6.898
 7263SOL    HW233821   7.984   5.937   6.966
 7264SOL     OW33822   2.967   3.672   6.901
 7264SOL    HW133823   2.962   3.573   6.917
 7264SOL    HW233824   2.909   3.718   6.968
 7265SOL     OW33825   2.650   7.401   6.755
 7265SOL    HW133826   2.662   7.315   6.705
 7265SOL    HW233827   2.588   7.387   6.831
 7266SOL     OW33828   3.547   0.590   6.969
 7266SOL    HW133829   3.602   0.609   7.051
 7266SOL    HW233830   3.451   0.610   6.988
 7267SOL     OW33831   5.074   3.291   6.936
 7267SOL    HW133832   5.139   3.357   6.897
 7267SOL    HW233833   5.001   3.275   6.870
 7268SOL     OW33834   7.082   4.119   7.010
 7268SOL    HW133835   7.125   4.037   6.970
 7268SOL    HW233836   7.101   4.122   7.107
 7269SOL     OW33837   1.390   5.337   6.905
 7269SOL    HW133838   1.298   5.338   6.945
 7269SOL    HW233839   1.383   5.350   6.807
 7270SOL     OW33840   5.040   3.836   6.957
 7270SOL    HW133841   5.021   3.795   6.867
 7270SOL    HW233842   5.137   3.857   6.963
 7271SOL     OW33843   8.460   4.472   6.958
 7271SOL    HW133844   8.470   4.469   7.058
 7271SOL    HW233845   8.499   4.557   6.924
 7272SOL     OW33846   4.674   1.690   6.794
 7272SOL    HW133847   4.770   1.680   6.766
 7272SOL    HW233848   4.641   1.603   6.830
 7273SOL     OW33849   7.968   5.651   7.068
 7273SOL    HW133850   8.056   5.701   7.064
 7273SOL    HW233851   7.978   5.565   7.020
 7274SOL     OW33852   1.313   5.151   6.872
 7274SOL    HW133853   1.305   5.070   6.813
 7274SOL    HW233854   1.291   5.233   6.820
 7275SOL     OW33855   5.223   0.494   6.782
 7275SOL    HW133856   5.258   0.437   6.708
 7275SOL    HW233857   5.234   0.447   6.869
 7276SOL     OW33858   2.155   5.832   7.052
 7276SOL    HW133859   2.084   5.904   7.054
 7276SOL    HW233860   2.139   5.773   6.974
 7277SOL     OW33861   9.073   8.323   6.845
 7277SOL    HW133862   9.080   8.283   6.754
 7277SOL    HW233863   9.156   8.304   6.896
 7278SOL     OW33864   6.129   3.430   6.944
 7278SOL    HW133865   6.190   3.417   6.865
 7278SOL    HW233866   6.034   3.423   6.913
 7279SOL     OW33867   8.983   6.950   6.771
 7279SOL    HW133868   9.057   6.918   6.711
 7279SOL    HW233869   8.896   6.914   6.738
 7280SOL     OW33870   9.185   0.199   6.772
 7280SOL    HW133871   9.226   0.290   6.755
 7280SOL    HW233872   9.181   0.183   6.870
 7281SOL     OW33873   0.233   3.201   6.806
 7281SOL    HW133874   0.260   3.289   6.765
 7281SOL    HW233875   0.168   3.156   6.746
 7282SOL     OW33876   6.179   6.080   7.050
 7282SOL    HW133877   6.108   6.109   6.984
 7282SOL    HW233878   6.266   6.120   7.024
 7283SOL     OW33879   3.919   2.260   6.909
 7283SOL    HW133880   3.994   2.300   6.856
 7283SOL    HW233881   3.832   2.288   6.869
 7284SOL     OW33882   2.994   1.224   6.970
 7284SOL    HW133883   3.031   1.157   6.906
 7284SOL    HW233884   2.906   1.257   6.936
 7285SOL     OW33885   5.711   2.787   6.889
 7285SOL    HW133886   5.697   2.688   6.880
 7285SOL    HW233887   5.793   2.804   6.943
 7286SOL     OW33888   4.123   2.198   7.013
 7286SOL    HW133889   4.193   2.240   6.955
 7286SOL    HW233890   4.065   2.140   6.958
 7287SOL     OW33891   7.921   7.054   6.800
 7287SOL    HW133892   7.994   7.065   6.868
 7287SOL    HW233893   7.873   7.141   6.789
 7288SOL     OW33894   8.707   4.977   6.808
 7288SOL    HW133895   8.745   4.921   6.882
 7288SOL    HW233896   8.680   5.065   6.844
 7289SOL     OW33897   3.783   8.387   6.740
 7289SOL    HW133898   3.722   8.465   6.760
 7289SOL    HW233899   3.789   8.329   6.820
 7290SOL     OW33900   9.420   2.944   6.916
 7290SOL    HW133901   9.459   2.943   7.009
 7290SOL    HW233902   9.411   2.850   6.883
 7291SOL     OW33903   7.305   6.069   6.818
 7291SOL    HW133904   7.373   6.123   6.767
 7291SOL    HW233905   7.218   6.118   6.820
 7292SOL     OW33906   2.426   8.141   6.960
 7292SOL    HW133907   2.442   8.189   7.046
 7292SOL    HW233908   2.405   8.046   6.978
 7293SOL     OW33909   5.410   2.817   6.953
 7293SOL    HW133910   5.380   2.877   6.878
 7293SOL    HW233911   5.446   2.733   6.916
 7294SOL     OW33912   9.311   6.619   6.781
 7294SOL    HW133913   9.389   6.598   6.722
 7294SOL    HW233914   9.227   6.589   6.737
 7295SOL     OW33915   7.255   6.491   6.842
 7295SOL    HW133916   7.267   6.493   6.941
 7295SOL    HW233917   7.309   6.417   6.803
 7296SOL     OW33918   3.249   1.489   6.758
 7296SOL    HW133919   3.305   1.439   6.824
 7296SOL    HW233920   3.309   1.533   6.691
 7297SOL     OW33921   7.810   7.815   6.771
 7297SOL    HW133922   7.756   7.740   6.811
 7297SOL    HW233923   7.901   7.814   6.812
 7298SOL     OW33924   6.586   8.307   6.891
 7298SOL    HW133925   6.644   8.287   6.811
 7298SOL    HW233926   6.623   8.261   6.971
 7299SOL     OW33927   2.565   5.575   6.727
 7299SOL    HW133928   2.583   5.482   6.694
 7299SOL    HW233929   2.530   5.571   6.820
 7300SOL     OW33930   0.534   3.018   6.947
 7300SOL    HW133931   0.622   3.036   6.903
 7300SOL    HW233932   0.465   3.001   6.878
 7301SOL     OW33933   0.232   7.025   6.865
 7301SOL    HW133934   0.223   6.931   6.900
 7301SOL    HW233935   0.188   7.032   6.776
 7302SOL     OW33936   0.069   4.863   6.992
 7302SOL    HW133937   0.120   4.801   7.052
 7302SOL    HW233938   0.028   4.811   6.918
 7303SOL     OW33939   2.674   2.475   6.917
 7303SOL    HW133940   2.633   2.521   6.996
 7303SOL    HW233941   2.767   2.448   6.939
 7304SOL     OW33942   4.204   0.115   6.877
 7304SOL    HW133943   4.208   0.019   6.849
 7304SOL    HW233944   4.163   0.169   6.805
 7305SOL     OW33945   0.085   3.815   6.864
 7305SOL    HW133946  -0.005   3.829   6.820
 7305SOL    HW233947   0.137   3.749   6.811
 7306SOL     OW33948   5.489   8.144   6.878
 7306SOL    HW133949   5.461   8.053   6.912
 7306SOL    HW233950   5.561   8.132   6.810
 7307SOL     OW33951   7.545   6.213   6.977
 7307SOL    HW133952   7.566   6.236   7.073
 7307SOL    HW233953   7.623   6.233   6.920
 7308SOL     OW33954   9.167   7.452   7.012
 7308SOL    HW133955   9.246   7.401   7.048
 7308SOL    HW233956   9.160   7.539   7.058
 7309SOL     OW33957   4.090   1.540   6.976
 7309SOL    HW133958   4.077   1.460   7.034
 7309SOL    HW233959   4.155   1.519   6.903
 7310SOL     OW33960   6.669   5.396   6.985
 7310SOL    HW133961   6.681   5.323   6.917
 7310SOL    HW233962   6.590   5.451   6.960
 7311SOL     OW33963   6.285   7.084   6.828
 7311SOL    HW133964   6.330   6.996   6.809
 7311SOL    HW233965   6.230   7.110   6.749
 7312SOL     OW33966   0.309   6.786   6.712
 7312SOL    HW133967   0.255   6.783   6.796
 7312SOL    HW233968   0.404   6.766   6.733
 7313SOL     OW33969   2.014   0.795   6.786
 7313SOL    HW133970   1.961   0.716   6.819
 7313SOL    HW233971   2.084   0.818   6.853
 7314SOL     OW33972   9.057   3.134   6.975
 7314SOL    HW133973   9.015   3.073   7.042
 7314SOL    HW233974   9.119   3.196   7.021
 7315SOL     OW33975   6.977   1.517   6.916
 7315SOL    HW133976   7.015   1.465   6.993
 7315SOL    HW233977   6.926   1.595   6.952
 7316SOL     OW33978   7.212   7.333   7.012
 7316SOL    HW133979   7.140   7.402   7.017
 7316SOL    HW233980   7.254   7.323   7.101
 7317SOL     OW33981   2.369   0.675   6.808
 7317SOL    HW133982   2.352   0.745   6.878
 7317SOL    HW233983   2.306   0.687   6.732
 7318SOL     OW33984   4.732   6.100   6.856
 7318SOL    HW133985   4.714   6.138   6.947
 7318SOL    HW233986   4.824   6.063   6.854
 7319SOL     OW33987   2.483   1.855   6.951
 7319SOL    HW133988   2.420   1.782   6.922
 7319SOL    HW233989   2.531   1.891   6.872
 7320SOL     OW33990   1.641   1.920   6.989
 7320SOL    HW133991   1.576   1.902   7.064
 7320SOL    HW233992   1.733   1.897   7.019
 7321SOL     OW33993   5.623   4.869   6.985
 7321SOL    HW133994   5.696   4.856   7.053
 7321SOL    HW233995   5.540   4.898   7.030
 7322SOL     OW33996   8.520   6.082   6.739
 7322SOL    HW133997   8.570   6.130   6.811
 7322SOL    HW233998   8.449   6.026   6.780
 7323SOL     OW33999   7.780   4.596   6.880
 7323SOL    HW134000   7.842   4.610   6.802
 7323SOL    HW234001   7.712   4.528   6.857
 7324SOL     OW34002   4.858   0.758   6.944
 7324SOL    HW134003   4.911   0.696   6.887
 7324SOL    HW234004   4.771   0.777   6.901
 7325SOL     OW34005   8.503   2.197   6.999
 7325SOL    HW134006   8.554   2.116   6.969
 7325SOL    HW234007   8.524   2.217   7.093
 7326SOL     OW34008   2.050   2.702   6.911
 7326SOL    HW134009   2.006   2.670   6.827
 7326SOL    HW234010   2.130   2.757   6.888
 7327SOL     OW34011   7.484   0.026   6.861
 7327SOL    HW134012   7.482   0.087   6.781
 7327SOL    HW234013   7.494  -0.068   6.830
 7328SOL     OW34014   0.971   0.624   6.987
 7328SOL    HW134015   0.888   0.571   7.007
 7328SOL    HW234016   0.979   0.637   6.889
 7329SOL     OW34017   4.465   6.760   6.971
 7329SOL    HW134018   4.409   6.699   6.913
 7329SOL    HW234019   4.485   6.843   6.921
 7330SOL     OW34020   6.837   6.033   6.768
 7330SOL    HW134021   6.840   5.997   6.674
 7330SOL    HW234022   6.743   6.053   6.793
 7331SOL     OW34023   7.123   5.078   6.938
 7331SOL    HW134024   7.024   5.079   6.955
 7331SOL    HW234025   7.167   5.021   7.006
 7332SOL     OW34026   9.071   2.604   6.982
 7332SOL    HW134027   9.065   2.519   7.036
 7332SOL    HW234028   9.151   2.655   7.010
 7333SOL     OW34029   8.132   2.175   6.989
 7333SOL    HW134030   8.210   2.236   6.969
 7333SOL    HW234031   8.092   2.201   7.076
 7334SOL     OW34032   3.827   0.208   6.802
 7334SOL    HW134033   3.881   0.292   6.788
 7334SOL    HW234034   3.735   0.222   6.766
 7335SOL     OW34035   2.196   5.367   7.014
 7335SOL    HW134036   2.223   5.463   6.999
 7335SOL    HW234037   2.101   5.355   6.989
 7336SOL     OW34038   0.483   4.903   6.834
 7336SOL    HW134039   0.501   4.990   6.788
 7336SOL    HW234040   0.561   4.843   6.823
 7337SOL     OW34041   4.186   3.649   6.910
 7337SOL    HW134042   4.134   3.689   6.986
 7337SOL    HW234043   4.248   3.580   6.946
 7338SOL     OW34044   1.193   3.816   6.999
 7338SOL    HW134045   1.276   3.816   7.054
 7338SOL    HW234046   1.118   3.856   7.051
 7339SOL     OW34047   0.338   2.779   6.816
 7339SOL    HW134048   0.324   2.741   6.908
 7339SOL    HW234049   0.387   2.865   6.824
 7340SOL     OW34050   5.570   2.235   7.000
 7340SOL    HW134051   5.609   2.230   7.093
 7340SOL    HW234052   5.478   2.198   7.002
 7341SOL     OW34053   1.963   3.117   6.965
 7341SOL    HW134054   1.949   3.026   6.926
 7341SOL    HW234055   1.971   3.110   7.064
 7342SOL     OW34056   3.426   8.466   6.716
 7342SOL    HW134057   3.441   8.476   6.814
 7342SOL    HW234058   3.406   8.555   6.676
 7343SOL     OW34059   7.693   0.231   7.057
 7343SOL    HW134060   7.764   0.255   6.989
 7343SOL    HW234061   7.657   0.141   7.036
 7344SOL     OW34062   3.150   3.348   6.920
 7344SOL    HW134063   3.096   3.294   6.855
 7344SOL    HW234064   3.155   3.299   7.007
 7345SOL     OW34065   3.449   1.246   6.755
 7345SOL    HW134066   3.429   1.302   6.836
 7345SOL    HW234067   3.399   1.161   6.761
 7346SOL     OW34068   4.113   5.188   6.754
 7346SOL    HW134069   4.082   5.208   6.847
 7346SOL    HW234070   4.035   5.182   6.693
 7347SOL     OW34071   4.257   6.460   6.833
 7347SOL    HW134072   4.283   6.377   6.783
 7347SOL    HW234073   4.206   6.520   6.773
 7348SOL     OW34074   1.534   5.702   6.891
 7348SOL    HW134075   1.634   5.698   6.899
 7348SOL    HW234076   1.500   5.780   6.943
 7349SOL     OW34077   7.007   3.714   6.776
 7349SOL    HW134078   6.936   3.750   6.837
 7349SOL    HW234079   7.017   3.616   6.792
 7350SOL     OW34080   4.521   5.243   6.921
 7350SOL    HW134081   4.442   5.286   6.877
 7350SOL    HW234082   4.590   5.223   6.853
 7351SOL     OW34083   3.787   0.700   6.811
 7351SOL    HW134084   3.758   0.703   6.907
 7351SOL    HW234085   3.756   0.783   6.765
 7352SOL     OW34086   4.947   5.897   6.748
 7352SOL    HW134087   4.880   5.890   6.822
 7352SOL    HW234088   5.035   5.863   6.781
 7353SOL     OW34089   7.679   4.194   7.044
 7353SOL    HW134090   7.602   4.130   7.051
 7353SOL    HW234091   7.723   4.182   6.956
 7354SOL     OW34092   8.933   8.188   6.728
 7354SOL    HW134093   8.839   8.159   6.745
 7354SOL    HW234094   8.993   8.146   6.795
 7355SOL     OW34095   1.170   2.215   6.988
 7355SOL    HW134096   1.256   2.184   7.028
 7355SOL    HW234097   1.174   2.204   6.889
 7356SOL     OW34098   5.405   1.480   6.801
 7356SOL    HW134099   5.356   1.403   6.845
 7356SOL    HW234100   5.373   1.566   6.840
 7357SOL     OW34101   0.951   7.273   7.083
 7357SOL    HW134102   0.992   7.363   7.062
 7357SOL    HW234103   0.934   7.224   6.998
 7358SOL     OW34104   0.321   4.072   6.991
 7358SOL    HW134105   0.370   4.037   6.910
 7358SOL    HW234106   0.386   4.107   7.057
 7359SOL     OW34107   4.945   1.145   6.756
 7359SOL    HW134108   4.962   1.057   6.802
 7359SOL    HW234109   4.975   1.138   6.661
 7360SOL     OW34110   1.702   1.441   6.852
 7360SOL    HW134111   1.632   1.509   6.827
 7360SOL    HW234112   1.781   1.488   6.891
 7361SOL     OW34113   2.303   7.681   6.961
 7361SOL    HW134114   2.376   7.707   7.025
 7361SOL    HW234115   2.275   7.761   6.909
 7362SOL     OW34116   0.688   4.450   6.851
 7362SOL    HW134117   0.589   4.435   6.848
 7362SOL    HW234118   0.728   4.425   6.764
 7363SOL     OW34119   0.096   4.223   6.720
 7363SOL    HW134120   0.075   4.227   6.818
 7363SOL    HW234121   0.194   4.212   6.708
 7364SOL     OW34122   0.550   3.622   6.960
 7364SOL    HW134123   0.552   3.588   6.865
 7364SOL    HW234124   0.642   3.629   6.995
 7365SOL     OW34125   2.059   3.466   6.900
 7365SOL    HW134126   2.083   3.507   6.811
 7365SOL    HW234127   2.111   3.382   6.911
 7366SOL     OW34128   6.184   0.957   6.949
 7366SOL    HW134129   6.278   0.922   6.948
 7366SOL    HW234130   6.126   0.898   6.894
 7367SOL     OW34131   2.589   0.182   7.040
 7367SOL    HW134132   2.594   0.167   6.940
 7367SOL    HW234133   2.620   0.274   7.061
 7368SOL     OW34134   1.717   2.450   6.982
 7368SOL    HW134135   1.785   2.429   7.052
 7368SOL    HW234136   1.630   2.409   7.007
 7369SOL     OW34137   2.669   0.405   6.959
 7369SOL    HW134138   2.745   0.441   7.014
 7369SOL    HW234139   2.583   0.434   6.999
 7370SOL     OW34140   4.335   1.456   7.018
 7370SOL    HW134141   4.314   1.409   6.931
 7370SOL    HW234142   4.252   1.465   7.071
 7371SOL     OW34143   8.656   4.249   6.953
 7371SOL    HW134144   8.608   4.333   6.926
 7371SOL    HW234145   8.731   4.232   6.890
 7372SOL     OW34146   1.615   4.447   6.798
 7372SOL    HW134147   1.614   4.369   6.735
 7372SOL    HW234148   1.694   4.441   6.857
 7373SOL     OW34149   7.042   1.255   6.815
 7373SOL    HW134150   7.032   1.239   6.914
 7373SOL    HW234151   7.111   1.325   6.799
 7374SOL     OW34152   6.338   3.412   6.962
 7374SOL    HW134153   6.364   3.489   7.021
 7374SOL    HW234154   6.275   3.353   7.011
 7375SOL     OW34155   3.126   5.696   7.010
 7375SOL    HW134156   3.124   5.614   6.952
 7375SOL    HW234157   3.107   5.776   6.954
 7376SOL     OW34158   2.866   4.174   6.965
 7376SOL    HW134159   2.867   4.193   7.063
 7376SOL    HW234160   2.803   4.098   6.947
 7377SOL     OW34161   5.775   1.493   6.924
 7377SOL    HW134162   5.742   1.582   6.891
 7377SOL    HW234163   5.858   1.468   6.875
 7378SOL     OW34164   6.585   1.949   6.799
 7378SOL    HW134165   6.599   1.889   6.719
 7378SOL    HW234166   6.499   1.998   6.789
 7379SOL     OW34167   1.024   4.379   6.772
 7379SOL    HW134168   1.067   4.312   6.710
 7379SOL    HW234169   1.068   4.467   6.761
 7380SOL     OW34170   5.580   2.022   6.762
 7380SOL    HW134171   5.668   2.069   6.768
 7380SOL    HW234172   5.519   2.057   6.831
 7381SOL     OW34173   3.842   5.224   6.830
 7381SOL    HW134174   3.883   5.132   6.839
 7381SOL    HW234175   3.880   5.284   6.899
 7382SOL     OW34176   3.402   7.241   6.962
 7382SOL    HW134177   3.377   7.299   6.883
 7382SOL    HW234178   3.431   7.152   6.930
 7383SOL     OW34179   1.447   7.565   7.076
 7383SOL    HW134180   1.365   7.522   7.036
 7383SOL    HW234181   1.509   7.494   7.108
 7384SOL     OW34182   1.286   1.472   6.742
 7384SOL    HW134183   1.355   1.506   6.806
 7384SOL    HW234184   1.197   1.472   6.786
 7385SOL     OW34185   2.190   1.846   6.842
 7385SOL    HW134186   2.245   1.770   6.807
 7385SOL    HW234187   2.245   1.902   6.903
 7386SOL     OW34188   5.200   2.073   6.787
 7386SOL    HW134189   5.255   2.030   6.715
 7386SOL    HW234190   5.105   2.048   6.775
 7387SOL     OW34191   8.276   6.992   7.027
 7387SOL    HW134192   8.216   6.938   6.967
 7387SOL    HW234193   8.362   6.943   7.041
 7388SOL     OW34194   8.308   8.310   6.969
 7388SOL    HW134195   8.342   8.390   7.017
 7388SOL    HW234196   8.258   8.251   7.033
 7389SOL     OW34197   3.760   4.940   6.861
 7389SOL    HW134198   3.741   4.901   6.952
 7389SOL    HW234199   3.683   4.994   6.832
 7390SOL     OW34200   9.317   1.976   6.814
 7390SOL    HW134201   9.365   1.942   6.896
 7390SOL    HW234202   9.304   2.074   6.822
 7391SOL     OW34203   0.729   4.888   7.081
 7391SOL    HW134204   0.768   4.913   6.992
 7391SOL    HW234205   0.741   4.791   7.096
 7392SOL     OW34206   0.939   5.830   6.767
 7392SOL    HW134207   0.968   5.926   6.773
 7392SOL    HW234208   0.996   5.783   6.701
 7393SOL     OW34209   8.536   2.791   7.036
 7393SOL    HW134210   8.456   2.733   7.025
 7393SOL    HW234211   8.618   2.735   7.036
 7394SOL     OW34212   8.657   3.733   7.035
 7394SOL    HW134213   8.586   3.769   7.096
 7394SOL    HW234214   8.620   3.657   6.982
 7395SOL     OW34215   2.350   7.420   6.948
 7395SOL    HW134216   2.341   7.346   7.015
 7395SOL    HW234217   2.401   7.495   6.988
 7396SOL     OW34218   0.525   3.854   6.771
 7396SOL    HW134219   0.607   3.856   6.829
 7396SOL    HW234220   0.507   3.946   6.737
 7397SOL     OW34221   2.136   4.986   6.787
 7397SOL    HW134222   2.052   4.973   6.840
 7397SOL    HW234223   2.182   5.069   6.819
 7398SOL     OW34224   3.561   3.389   6.881
 7398SOL    HW134225   3.525   3.342   6.962
 7398SOL    HW234226   3.653   3.421   6.900
 7399SOL     OW34227   3.971   3.148   6.895
 7399SOL    HW134228   3.985   3.160   6.796
 7399SOL    HW234229   3.954   3.051   6.914
 7400SOL     OW34230   4.768   8.154   6.829
 7400SOL    HW134231   4.798   8.088   6.899
 7400SOL    HW234232   4.770   8.245   6.867
 7401SOL     OW34233   4.483   4.098   7.040
 7401SOL    HW134234   4.531   4.051   6.965
 7401SOL    HW234235   4.405   4.044   7.069
 7402SOL     OW34236   8.999   6.416   7.049
 7402SOL    HW134237   8.997   6.451   7.144
 7402SOL    HW234238   8.972   6.488   6.987
 7403SOL     OW34239   9.248   7.892   6.960
 7403SOL    HW134240   9.310   7.822   6.925
 7403SOL    HW234241   9.207   7.860   7.045
 7404SOL     OW34242   5.576   3.277   7.073
 7404SOL    HW134243   5.604   3.205   7.008
 7404SOL    HW234244   5.506   3.240   7.133
 7405SOL     OW34245   6.262   1.579   6.896
 7405SOL    HW134246   6.315   1.524   6.962
 7405SOL    HW234247   6.269   1.675   6.920
 7406SOL     OW34248   7.950   0.056   6.983
 7406SOL    HW134249   7.856   0.022   6.969
 7406SOL    HW234250   7.967   0.132   6.921
 7407SOL     OW34251   6.396   1.735   7.037
 7407SOL    HW134252   6.427   1.823   7.074
 7407SOL    HW234253   6.328   1.696   7.097
 7408SOL     OW34254   7.365   7.587   6.835
 7408SOL    HW134255   7.460   7.595   6.867
 7408SOL    HW234256   7.307   7.560   6.911
 7409SOL     OW34257   8.686   3.202   6.859
 7409SOL    HW134258   8.640   3.228   6.945
 7409SOL    HW234259   8.637   3.243   6.782
 7410SOL     OW34260   1.416   3.121   7.020
 7410SOL    HW134261   1.454   3.036   6.982
 7410SOL    HW234262   1.485   3.192   7.016
 7411SOL     OW34263   9.192   5.348   6.927
 7411SOL    HW134264   9.281   5.386   6.954
 7411SOL    HW234265   9.122   5.417   6.937
 7412SOL     OW34266   5.028   7.206   6.853
 7412SOL    HW134267   5.053   7.137   6.785
 7412SOL    HW234268   4.967   7.273   6.812
 7413SOL     OW34269   0.581   2.168   6.795
 7413SOL    HW134270   0.552   2.155   6.700
 7413SOL    HW234271   0.676   2.142   6.804
 7414SOL     OW34272   4.311   4.885   6.765
 7414SOL    HW134273   4.334   4.971   6.718
 7414SOL    HW234274   4.285   4.904   6.859
 7415SOL     OW34275   7.664   2.490   6.921
 7415SOL    HW134276   7.730   2.562   6.945
 7415SOL    HW234277   7.572   2.529   6.919
 7416SOL     OW34278   1.531   5.007   6.723
 7416SOL    HW134279   1.485   5.037   6.807
 7416SOL    HW234280   1.619   4.966   6.746
 7417SOL     OW34281   7.377   1.669   6.848
 7417SOL    HW134282   7.330   1.668   6.759
 7417SOL    HW234283   7.402   1.762   6.871
 7418SOL     OW34284   8.525   2.995   6.851
 7418SOL    HW134285   8.559   2.939   6.927
 7418SOL    HW234286   8.601   3.041   6.808
 7419SOL     OW34287   9.381   5.205   6.764
 7419SOL    HW134288   9.365   5.208   6.863
 7419SOL    HW234289   9.437   5.282   6.737
 7420SOL     OW34290   8.279   1.312   6.855
 7420SOL    HW134291   8.285   1.226   6.907
 7420SOL    HW234292   8.344   1.377   6.893
 7421SOL     OW34293   8.555   7.015   6.943
 7421SOL    HW134294   8.609   6.932   6.930
 7421SOL    HW234295   8.491   7.003   7.018
 7422SOL     OW34296   3.022   7.026   7.054
 7422SOL    HW134297   3.115   6.995   7.076
 7422SOL    HW234298   2.956   6.960   7.088
 7423SOL     OW34299   4.847   6.305   6.739
 7423SOL    HW134300   4.846   6.298   6.839
 7423SOL    HW234301   4.814   6.219   6.700
 7424SOL     OW34302   9.154   3.717   7.039
 7424SOL    HW134303   9.062   3.754   7.057
 7424SOL    HW234304   9.158   3.623   7.071
 7425SOL     OW34305   4.615   0.619   6.950
 7425SOL    HW134306   4.707   0.642   6.918
 7425SOL    HW234307   4.581   0.693   7.007
 7426SOL     OW34308   0.899   3.515   6.974
 7426SOL    HW134309   0.843   3.432   6.971
 7426SOL    HW234310   0.994   3.489   6.988
 7427SOL     OW34311   4.229   4.657   6.787
 7427SOL    HW134312   4.234   4.572   6.839
 7427SOL    HW234313   4.233   4.637   6.690
 7428SOL     OW34314   3.558   4.144   6.880
 7428SOL    HW134315   3.570   4.096   6.968
 7428SOL    HW234316   3.476   4.199   6.884
 7429SOL     OW34317   5.116   1.365   6.915
 7429SOL    HW134318   5.118   1.366   6.815
 7429SOL    HW234319   5.174   1.438   6.950
 7430SOL     OW34320   8.442   5.803   6.782
 7430SOL    HW134321   8.368   5.772   6.843
 7430SOL    HW234322   8.525   5.753   6.803
 7431SOL     OW34323   5.571   0.062   7.032
 7431SOL    HW134324   5.612   0.150   7.055
 7431SOL    HW234325   5.623  -0.011   7.074
 7432SOL     OW34326   6.019   3.298   6.759
 7432SOL    HW134327   6.102   3.355   6.750
 7432SOL    HW234328   5.967   3.327   6.839
 7433SOL     OW34329   8.081   3.143   6.781
 7433SOL    HW134330   8.140   3.080   6.731
 7433SOL    HW234331   7.987   3.130   6.752
 7434SOL     OW34332   5.302   6.429   6.871
 7434SOL    HW134333   5.316   6.350   6.810
 7434SOL    HW234334   5.239   6.493   6.828
 7435SOL     OW34335   0.049   8.128   7.046
 7435SOL    HW134336  -0.030   8.079   7.005
 7435SOL    HW234337   0.042   8.124   7.145
 7436SOL     OW34338   0.458   4.404   7.060
 7436SOL    HW134339   0.469   4.310   7.025
 7436SOL    HW234340   0.378   4.445   7.018
 7437SOL     OW34341   1.747   0.112   6.840
 7437SOL    HW134342   1.725   0.048   6.767
 7437SOL    HW234343   1.689   0.193   6.832
 7438SOL     OW34344   3.765   1.581   7.095
 7438SOL    HW134345   3.711   1.553   7.015
 7438SOL    HW234346   3.857   1.543   7.087
 7439SOL     OW34347   2.059   2.175   6.946
 7439SOL    HW134348   2.130   2.219   7.002
 7439SOL    HW234349   2.012   2.107   7.001
 7440SOL     OW34350   3.694   2.871   6.812
 7440SOL    HW134351   3.694   2.968   6.838
 7440SOL    HW234352   3.735   2.817   6.884
 7441SOL     OW34353   7.352   3.219   6.933
 7441SOL    HW134354   7.304   3.150   6.878
 7441SOL    HW234355   7.357   3.304   6.880
 7442SOL     OW34356   8.414   6.373   7.052
 7442SOL    HW134357   8.361   6.312   6.993
 7442SOL    HW234358   8.469   6.318   7.115
 7443SOL     OW34359   9.330   5.751   6.812
 7443SOL    HW134360   9.383   5.801   6.881
 7443SOL    HW234361   9.365   5.658   6.804
 7444SOL     OW34362   5.134   7.495   6.833
 7444SOL    HW134363   5.210   7.553   6.800
 7444SOL    HW234364   5.053   7.513   6.778
 7445SOL     OW34365   2.816   7.975   6.924
 7445SOL    HW134366   2.885   7.909   6.955
 7445SOL    HW234367   2.857   8.035   6.855
 7446SOL     OW34368   3.803   4.713   7.044
 7446SOL    HW134369   3.746   4.685   7.121
 7446SOL    HW234370   3.883   4.653   7.038
 7447SOL     OW34371   4.925   5.343   7.044
 7447SOL    HW134372   4.900   5.387   7.131
 7447SOL    HW234373   4.910   5.245   7.051
 7448SOL     OW34374   6.635   8.461   6.803
 7448SOL    HW134375   6.724   8.505   6.814
 7448SOL    HW234376   6.635   8.406   6.720
 7449SOL     OW34377   5.914   2.085   6.881
 7449SOL    HW134378   6.011   2.060   6.877
 7449SOL    HW234379   5.905   2.182   6.900
 7450SOL     OW34380   4.606   1.290   6.974
 7450SOL    HW134381   4.649   1.336   6.895
 7450SOL    HW234382   4.620   1.192   6.966
 7451SOL     OW34383   7.550   0.715   6.879
 7451SOL    HW134384   7.455   0.737   6.902
 7451SOL    HW234385   7.560   0.712   6.780
 7452SOL     OW34386   2.392   5.947   6.860
 7452SOL    HW134387   2.452   6.023   6.886
 7452SOL    HW234388   2.318   5.981   6.803
 7453SOL     OW34389   4.820   3.126   7.097
 7453SOL    HW134390   4.800   3.202   7.035
 7453SOL    HW234391   4.818   3.041   7.046
 7454SOL     OW34392   5.876   4.206   7.034
 7454SOL    HW134393   5.881   4.123   6.977
 7454SOL    HW234394   5.885   4.286   6.976
 7455SOL     OW34395   0.297   2.141   6.888
 7455SOL    HW134396   0.234   2.177   6.818
 7455SOL    HW234397   0.389   2.173   6.869
 7456SOL     OW34398   7.583   3.592   6.848
 7456SOL    HW134399   7.509   3.660   6.844
 7456SOL    HW234400   7.546   3.502   6.829
 7457SOL     OW34401   1.812   2.153   6.834
 7457SOL    HW134402   1.893   2.099   6.810
 7457SOL    HW234403   1.753   2.162   6.754
 7458SOL     OW34404   0.389   3.491   7.078
 7458SOL    HW134405   0.481   3.460   7.055
 7458SOL    HW234406   0.328   3.476   7.001
 7459SOL     OW34407   8.554   7.320   6.998
 7459SOL    HW134408   8.596   7.382   6.930
 7459SOL    HW234409   8.548   7.229   6.960
 7460SOL     OW34410   6.444   5.113   6.821
 7460SOL    HW134411   6.517   5.113   6.752
 7460SOL    HW234412   6.362   5.073   6.781
 7461SOL     OW34413   2.705   1.469   6.804
 7461SOL    HW134414   2.745   1.562   6.806
 7461SOL    HW234415   2.654   1.458   6.720
 7462SOL     OW34416   6.463   0.437   6.774
 7462SOL    HW134417   6.432   0.459   6.681
 7462SOL    HW234418   6.562   0.439   6.776
 7463SOL     OW34419   5.908   5.698   6.786
 7463SOL    HW134420   5.986   5.639   6.762
 7463SOL    HW234421   5.909   5.715   6.884
 7464SOL     OW34422   6.795   7.080   7.006
 7464SOL    HW134423   6.746   7.084   7.094
 7464SOL    HW234424   6.864   7.151   7.004
 7465SOL     OW34425   8.856   0.199   6.897
 7465SOL    HW134426   8.898   0.136   6.962
 7465SOL    HW234427   8.833   0.284   6.943
 7466SOL     OW34428   1.571   8.223   6.967
 7466SOL    HW134429   1.633   8.302   6.968
 7466SOL    HW234430   1.624   8.140   6.975
 7467SOL     OW34431   3.368   7.616   6.815
 7467SOL    HW134432   3.268   7.628   6.816
 7467SOL    HW234433   3.411   7.696   6.856
 7468SOL     OW34434   8.881   6.105   7.073
 7468SOL    HW134435   8.869   6.195   7.030
 7468SOL    HW234436   8.803   6.047   7.051
 7469SOL     OW34437   7.948   5.289   6.795
 7469SOL    HW134438   7.903   5.319   6.711
 7469SOL    HW234439   8.046   5.304   6.787
 7470SOL     OW34440   9.018   5.734   6.840
 7470SOL    HW134441   9.024   5.831   6.818
 7470SOL    HW234442   8.955   5.689   6.777
 7471SOL     OW34443   3.860   3.746   6.913
 7471SOL    HW134444   3.864   3.821   6.846
 7471SOL    HW234445   3.898   3.664   6.872
 7472SOL     OW34446   0.011   0.462   6.929
 7472SOL    HW134447  -0.015   0.415   7.014
 7472SOL    HW234448   0.110   0.466   6.924
 7473SOL     OW34449   3.841   4.567   6.838
 7473SOL    HW134450   3.905   4.630   6.882
 7473SOL    HW234451   3.767   4.546   6.901
 7474SOL     OW34452   4.408   2.609   6.982
 7474SOL    HW134453   4.348   2.607   6.902
 7474SOL    HW234454   4.438   2.517   7.004
 7475SOL     OW34455   7.891   2.013   6.787
 7475SOL    HW134456   7.892   1.989   6.885
 7475SOL    HW234457   7.801   2.046   6.762
 7476SOL     OW34458   4.617   3.438   6.979
 7476SOL    HW134459   4.650   3.503   6.911
 7476SOL    HW234460   4.615   3.347   6.940
 7477SOL     OW34461   2.380   2.124   6.912
 7477SOL    HW134462   2.411   2.031   6.935
 7477SOL    HW234463   2.367   2.176   6.996
 7478SOL     OW34464   3.091   0.769   7.067
 7478SOL    HW134465   3.062   0.837   6.998
 7478SOL    HW234466   3.165   0.715   7.029
 7479SOL     OW34467   1.955   3.943   7.019
 7479SOL    HW134468   2.009   3.966   6.937
 7479SOL    HW234469   1.888   3.873   6.996
 7480SOL     OW34470   5.145   5.655   7.099
 7480SOL    HW134471   5.068   5.644   7.036
 7480SOL    HW234472   5.219   5.702   7.053
 7481SOL     OW34473   7.143   1.917   6.758
 7481SOL    HW134474   7.177   1.905   6.664
 7481SOL    HW234475   7.176   2.003   6.795
 7482SOL     OW34476   9.342   2.227   6.819
 7482SOL    HW134477   9.355   2.325   6.803
 7482SOL    HW234478   9.265   2.214   6.881
 7483SOL     OW34479   2.656   5.812   6.834
 7483SOL    HW134480   2.671   5.742   6.904
 7483SOL    HW234481   2.678   5.902   6.871
 7484SOL     OW34482   7.421   6.991   6.993
 7484SOL    HW134483   7.381   7.050   6.923
 7484SOL    HW234484   7.500   6.944   6.956
 7485SOL     OW34485   8.370   7.334   6.726
 7485SOL    HW134486   8.280   7.293   6.742
 7485SOL    HW234487   8.418   7.343   6.812
 7486SOL     OW34488   2.067   1.643   6.818
 7486SOL    HW134489   2.126   1.684   6.888
 7486SOL    HW234490   1.975   1.636   6.853
 7487SOL     OW34491   0.248   1.761   6.904
 7487SOL    HW134492   0.345   1.735   6.911
 7487SOL    HW234493   0.199   1.726   6.982
 7488SOL     OW34494   0.372   6.300   6.866
 7488SOL    HW134495   0.413   6.271   6.780
 7488SOL    HW234496   0.372   6.223   6.930
 7489SOL     OW34497   3.583   6.909   6.771
 7489SOL    HW134498   3.654   6.936   6.706
 7489SOL    HW234499   3.525   6.987   6.791
 7490SOL     OW34500   0.114   5.228   6.793
 7490SOL    HW134501   0.073   5.319   6.797
 7490SOL    HW234502   0.204   5.231   6.837
 7491SOL     OW34503   3.948   5.904   7.038
 7491SOL    HW134504   3.938   5.947   7.128
 7491SOL    HW234505   4.030   5.939   6.994
 7492SOL     OW34506   4.447   2.891   6.988
 7492SOL    HW134507   4.422   2.819   7.053
 7492SOL    HW234508   4.499   2.962   7.035
 7493SOL     OW34509   6.593   7.549   6.988
 7493SOL    HW134510   6.562   7.624   7.047
 7493SOL    HW234511   6.515   7.504   6.946
 7494SOL     OW34512   1.044   0.264   6.766
 7494SOL    HW134513   1.032   0.206   6.848
 7494SOL    HW234514   1.097   0.345   6.791
 7495SOL     OW34515   2.965   0.551   6.794
 7495SOL    HW134516   2.919   0.576   6.880
 7495SOL    HW234517   3.045   0.496   6.814
 7496SOL     OW34518   8.902   3.514   6.935
 7496SOL    HW134519   8.882   3.603   6.892
 7496SOL    HW234520   8.860   3.441   6.883
 7497SOL     OW34521   0.415   6.037   6.768
 7497SOL    HW134522   0.402   5.975   6.690
 7497SOL    HW234523   0.329   6.050   6.815
 7498SOL     OW34524   5.356   6.799   6.858
 7498SOL    HW134525   5.265   6.808   6.900
 7498SOL    HW234526   5.426   6.817   6.926
 7499SOL     OW34527   4.378   5.894   7.055
 7499SOL    HW134528   4.341   5.824   6.993
 7499SOL    HW234529   4.390   5.979   7.005
 7500SOL     OW34530   5.607   7.923   6.882
 7500SOL    HW134531   5.545   7.880   6.949
 7500SOL    HW234532   5.555   7.952   6.802
 7501SOL     OW34533   2.086   0.578   7.018
 7501SOL    HW134534   2.089   0.650   6.948
 7501SOL    HW234535   2.093   0.489   6.974
 7502SOL     OW34536   2.722   4.698   6.759
 7502SOL    HW134537   2.763   4.776   6.710
 7502SOL    HW234538   2.790   4.657   6.818
 7503SOL     OW34539   2.426   7.761   6.847
 7503SOL    HW134540   2.449   7.838   6.908
 7503SOL    HW234541   2.490   7.760   6.771
 7504SOL     OW34542   5.620   4.268   6.884
 7504SOL    HW134543   5.577   4.182   6.910
 7504SOL    HW234544   5.568   4.344   6.922
 7505SOL     OW34545   2.295   2.541   7.039
 7505SOL    HW134546   2.237   2.605   6.987
 7505SOL    HW234547   2.248   2.515   7.123
 7506SOL     OW34548   7.249   6.773   6.857
 7506SOL    HW134549   7.179   6.749   6.789
 7506SOL    HW234550   7.321   6.826   6.814
 7507SOL     OW34551   1.243   2.874   6.892
 7507SOL    HW134552   1.286   2.827   6.970
 7507SOL    HW234553   1.151   2.903   6.917
 7508SOL     OW34554   8.122   5.066   6.822
 7508SOL    HW134555   8.052   5.058   6.751
 7508SOL    HW234556   8.188   5.135   6.796
 7509SOL     OW34557   5.132   1.738   6.774
 7509SOL    HW134558   5.076   1.720   6.856
 7509SOL    HW234559   5.212   1.790   6.800
 7510SOL     OW34560   8.052   4.280   7.004
 7510SOL    HW134561   7.969   4.225   6.990
 7510SOL    HW234562   8.045   4.363   6.950
 7511SOL     OW34563   3.867   3.576   7.038
 7511SOL    HW134564   3.929   3.532   7.104
 7511SOL    HW234565   3.821   3.653   7.081
 7512SOL     OW34566   0.879   2.372   7.004
 7512SOL    HW134567   0.944   2.311   6.959
 7512SOL    HW234568   0.807   2.318   7.046
 7513SOL     OW34569   1.152   4.591   6.922
 7513SOL    HW134570   1.185   4.684   6.903
 7513SOL    HW234571   1.191   4.528   6.856
 7514SOL     OW34572   7.928   4.931   6.781
 7514SOL    HW134573   7.876   4.905   6.699
 7514SOL    HW234574   7.867   4.977   6.845
 7515SOL     OW34575   8.326   1.944   7.054
 7515SOL    HW134576   8.380   1.983   6.979
 7515SOL    HW234577   8.312   2.014   7.124
 7516SOL     OW34578   7.772   6.569   7.030
 7516SOL    HW134579   7.697   6.556   6.964
 7516SOL    HW234580   7.857   6.584   6.980
 7517SOL     OW34581   7.127   0.256   6.850
 7517SOL    HW134582   7.101   0.211   6.936
 7517SOL    HW234583   7.218   0.225   6.823
 7518SOL     OW34584   6.681   4.588   6.756
 7518SOL    HW134585   6.669   4.645   6.838
 7518SOL    HW234586   6.595   4.580   6.708
 7519SOL     OW34587   7.755   8.136   6.778
 7519SOL    HW134588   7.846   8.118   6.739
 7519SOL    HW234589   7.685   8.109   6.713
 7520SOL     OW34590   2.311   4.889   7.023
 7520SOL    HW134591   2.354   4.803   6.995
 7520SOL    HW234592   2.271   4.933   6.943
 7521SOL     OW34593   9.167   1.805   6.723
 7521SOL    HW134594   9.264   1.826   6.736
 7521SOL    HW234595   9.112   1.880   6.759
 7522SOL     OW34596   6.007   0.028   6.975
 7522SOL    HW134597   5.963   0.107   6.932
 7522SOL    HW234598   6.093   0.009   6.928
 7523SOL     OW34599   2.906   5.751   6.781
 7523SOL    HW134600   2.849   5.773   6.701
 7523SOL    HW234601   2.901   5.826   6.846
 7524SOL     OW34602   1.300   8.012   6.920
 7524SOL    HW134603   1.310   8.090   6.983
 7524SOL    HW234604   1.383   8.002   6.867
 7525SOL     OW34605   3.776   4.022   6.780
 7525SOL    HW134606   3.867   4.034   6.820
 7525SOL    HW234607   3.712   3.994   6.850
 7526SOL     OW34608   4.331   1.798   6.871
 7526SOL    HW134609   4.383   1.731   6.816
 7526SOL    HW234610   4.317   1.762   6.962
 7527SOL     OW34611   4.578   0.936   6.796
 7527SOL    HW134612   4.648   0.995   6.755
 7527SOL    HW234613   4.550   0.975   6.883
 7528SOL     OW34614   0.636   5.459   7.050
 7528SOL    HW134615   0.574   5.383   7.030
 7528SOL    HW234616   0.627   5.485   7.146
 7529SOL     OW34617   4.610   2.213   6.949
 7529SOL    HW134618   4.643   2.203   7.043
 7529SOL    HW234619   4.685   2.196   6.886
 7530SOL     OW34620   8.487   6.512   6.794
 7530SOL    HW134621   8.470   6.444   6.866
 7530SOL    HW234622   8.548   6.582   6.829
 7531SOL     OW34623   6.756   3.846   7.035
 7531SOL    HW134624   6.711   3.838   6.945
 7531SOL    HW234625   6.844   3.799   7.031
 7532SOL     OW34626   5.036   0.213   6.833
 7532SOL    HW134627   4.987   0.241   6.750
 7532SOL    HW234628   5.132   0.201   6.813
 7533SOL     OW34629   8.904   5.153   7.056
 7533SOL    HW134630   8.857   5.188   6.975
 7533SOL    HW234631   8.889   5.055   7.062
 7534SOL     OW34632   0.018   2.514   6.861
 7534SOL    HW134633  -0.046   2.473   6.927
 7534SOL    HW234634   0.111   2.501   6.893
 7535SOL     OW34635   6.750   6.725   6.827
 7535SOL    HW134636   6.727   6.693   6.734
 7535SOL    HW234637   6.669   6.762   6.870
 7536SOL     OW34638   7.428   5.024   6.740
 7536SOL    HW134639   7.486   5.073   6.807
 7536SOL    HW234640   7.352   4.981   6.788
 7537SOL     OW34641   3.616   6.665   6.842
 7537SOL    HW134642   3.561   6.721   6.779
 7537SOL    HW234643   3.679   6.608   6.789
 7538SOL     OW34644   3.698   0.990   6.834
 7538SOL    HW134645   3.600   1.006   6.849
 7538SOL    HW234646   3.751   1.056   6.886
 7539SOL     OW34647   6.594   4.148   6.723
 7539SOL    HW134648   6.523   4.143   6.793
 7539SOL    HW234649   6.641   4.236   6.729
 7540SOL     OW34650   3.552   5.596   6.906
 7540SOL    HW134651   3.527   5.693   6.914
 7540SOL    HW234652   3.538   5.566   6.812
 7541SOL     OW34653   3.069   1.794   6.842
 7541SOL    HW134654   3.088   1.888   6.813
 7541SOL    HW234655   3.106   1.780   6.934
 7542SOL     OW34656   2.945   6.544   6.721
 7542SOL    HW134657   2.973   6.493   6.803
 7542SOL    HW234658   2.912   6.634   6.747
 7543SOL     OW34659   7.387   2.206   6.966
 7543SOL    HW134660   7.299   2.172   7.000
 7543SOL    HW234661   7.381   2.221   6.868
 7544SOL     OW34662   6.572   7.180   7.114
 7544SOL    HW134663   6.488   7.187   7.059
 7544SOL    HW234664   6.650   7.198   7.056
 7545SOL     OW34665   0.474   8.397   6.945
 7545SOL    HW134666   0.530   8.476   6.918
 7545SOL    HW234667   0.495   8.320   6.886
 7546SOL     OW34668   0.885   6.009   6.914
 7546SOL    HW134669   0.974   5.963   6.928
 7546SOL    HW234670   0.813   5.953   6.954
 7547SOL     OW34671   5.577   5.061   6.710
 7547SOL    HW134672   5.609   5.002   6.785
 7547SOL    HW234673   5.484   5.090   6.728
 7548SOL     OW34674   9.259   7.347   6.901
 7548SOL    HW134675   9.215   7.291   6.972
 7548SOL    HW234676   9.340   7.390   6.939
 7549SOL     OW34677   6.037   1.236   7.062
 7549SOL    HW134678   6.018   1.334   7.072
 7549SOL    HW234679   6.128   1.217   7.095
 7550SOL     OW34680   4.203   2.776   6.763
 7550SOL    HW134681   4.272   2.847   6.749
 7550SOL    HW234682   4.248   2.689   6.783
 7551SOL     OW34683   1.487   0.268   7.023
 7551SOL    HW134684   1.449   0.196   6.965
 7551SOL    HW234685   1.553   0.321   6.970
 7552SOL     OW34686   8.282   6.651   6.843
 7552SOL    HW134687   8.219   6.653   6.922
 7552SOL    HW234688   8.303   6.744   6.816
 7553SOL     OW34689   5.073   4.186   6.995
 7553SOL    HW134690   5.118   4.208   7.083
 7553SOL    HW234691   4.997   4.125   7.011
 7554SOL     OW34692   5.946   7.290   7.014
 7554SOL    HW134693   5.863   7.340   6.989
 7554SOL    HW234694   6.001   7.274   6.933
 7555SOL     OW34695   2.995   2.367   6.929
 7555SOL    HW134696   2.935   2.439   6.891
 7555SOL    HW234697   2.971   2.279   6.888
 7556SOL     OW34698   6.903   2.703   6.813
 7556SOL    HW134699   6.962   2.688   6.734
 7556SOL    HW234700   6.912   2.797   6.843
 7557SOL     OW34701   5.605   1.669   6.754
 7557SOL    HW134702   5.634   1.749   6.807
 7557SOL    HW234703   5.684   1.610   6.738
 7558SOL     OW34704   2.603   6.184   6.949
 7558SOL    HW134705   2.549   6.269   6.953
 7558SOL    HW234706   2.698   6.206   6.932
 7559SOL     OW34707   3.201   2.942   6.887
 7559SOL    HW134708   3.211   2.950   6.787
 7559SOL    HW234709   3.147   2.861   6.908
 7560SOL     OW34710   0.965   1.381   7.036
 7560SOL    HW134711   1.038   1.449   7.033
 7560SOL    HW234712   0.880   1.422   7.005
 7561SOL     OW34713   5.331   5.169   6.834
 7561SOL    HW134714   5.374   5.080   6.818
 7561SOL    HW234715   5.292   5.172   6.925
 7562SOL     OW34716   1.439   3.630   6.816
 7562SOL    HW134717   1.492   3.701   6.863
 7562SOL    HW234718   1.362   3.603   6.872
 7563SOL     OW34719   7.516   1.993   6.915
 7563SOL    HW134720   7.448   2.022   6.847
 7563SOL    HW234721   7.607   1.999   6.876
 7564SOL     OW34722   8.706   5.745   7.009
 7564SOL    HW134723   8.739   5.828   7.056
 7564SOL    HW234724   8.783   5.685   6.990
 7565SOL     OW34725   3.406   3.509   6.858
 7565SOL    HW134726   3.377   3.450   6.782
 7565SOL    HW234727   3.400   3.604   6.830
 7566SOL     OW34728   9.041   4.026   7.026
 7566SOL    HW134729   9.090   4.080   6.957
 7566SOL    HW234730   9.056   3.929   7.008
 7567SOL     OW34731   8.288   3.465   7.020
 7567SOL    HW134732   8.188   3.464   7.027
 7567SOL    HW234733   8.315   3.493   6.928
 7568SOL     OW34734   8.227   7.462   6.798
 7568SOL    HW134735   8.226   7.407   6.882
 7568SOL    HW234736   8.310   7.515   6.795
 7569SOL     OW34737   0.399   6.496   6.923
 7569SOL    HW134738   0.456   6.441   6.985
 7569SOL    HW234739   0.445   6.506   6.836
 7570SOL     OW34740   8.742   2.591   6.873
 7570SOL    HW134741   8.759   2.589   6.972
 7570SOL    HW234742   8.647   2.614   6.856
 7571SOL     OW34743   7.638   3.989   6.821
 7571SOL    HW134744   7.702   4.060   6.853
 7571SOL    HW234745   7.545   4.020   6.836
 7572SOL     OW34746   7.183   0.872   6.997
 7572SOL    HW134747   7.268   0.888   7.047
 7572SOL    HW234748   7.120   0.948   7.013
 7573SOL     OW34749   4.829   6.866   6.884
 7573SOL    HW134750   4.892   6.917   6.944
 7573SOL    HW234751   4.878   6.791   6.842
 7574SOL     OW34752   1.893   0.272   7.012
 7574SOL    HW134753   1.903   0.341   6.940
 7574SOL    HW234754   1.966   0.284   7.079
 7575SOL     OW34755   9.103   4.792   7.001
 7575SOL    HW134756   9.114   4.728   6.924
 7575SOL    HW234757   9.137   4.749   7.084
 7576SOL     OW34758   1.501   1.243   6.906
 7576SOL    HW134759   1.461   1.233   6.997
 7576SOL    HW234760   1.591   1.284   6.915
 7577SOL     OW34761   3.301   8.329   6.770
 7577SOL    HW134762   3.201   8.337   6.764
 7577SOL    HW234763   3.324   8.243   6.814
 7578SOL     OW34764   3.417   3.883   6.723
 7578SOL    HW134765   3.358   3.964   6.710
 7578SOL    HW234766   3.390   3.836   6.807
 7579SOL     OW34767   6.213   5.576   6.928
 7579SOL    HW134768   6.171   5.623   7.007
 7579SOL    HW234769   6.312   5.585   6.934
 7580SOL     OW34770   0.948   3.231   6.856
 7580SOL    HW134771   0.933   3.319   6.901
 7580SOL    HW234772   0.962   3.161   6.924
 7581SOL     OW34773   3.671   1.841   6.934
 7581SOL    HW134774   3.597   1.841   7.002
 7581SOL    HW234775   3.752   1.799   6.973
 7582SOL     OW34776   4.116   4.470   6.933
 7582SOL    HW134777   4.053   4.433   7.002
 7582SOL    HW234778   4.105   4.419   6.848
 7583SOL     OW34779   1.499   2.560   7.048
 7583SOL    HW134780   1.478   2.505   6.967
 7583SOL    HW234781   1.543   2.645   7.020
 7584SOL     OW34782   5.735   8.036   7.003
 7584SOL    HW134783   5.803   8.035   7.077
 7584SOL    HW234784   5.650   8.074   7.037
 7585SOL     OW34785   6.795   4.357   6.764
 7585SOL    HW134786   6.758   4.375   6.855
 7585SOL    HW234787   6.882   4.309   6.773
 7586SOL     OW34788   5.988   8.259   7.048
 7586SOL    HW134789   5.975   8.317   6.967
 7586SOL    HW234790   6.080   8.222   7.048
 7587SOL     OW34791   1.962   5.549   6.987
 7587SOL    HW134792   2.032   5.616   6.957
 7587SOL    HW234793   1.935   5.493   6.910
 7588SOL     OW34794   8.601   3.489   6.844
 7588SOL    HW134795   8.674   3.428   6.876
 7588SOL    HW234796   8.516   3.468   6.890
 7589SOL     OW34797   3.110   7.904   6.808
 7589SOL    HW134798   3.046   7.854   6.748
 7589SOL    HW234799   3.070   7.993   6.831
 7590SOL     OW34800   8.502   7.691   6.753
 7590SOL    HW134801   8.465   7.665   6.842
 7590SOL    HW234802   8.590   7.737   6.766
 7591SOL     OW34803   3.610   6.247   7.012
 7591SOL    HW134804   3.607   6.243   7.113
 7591SOL    HW234805   3.519   6.227   6.976
 7592SOL     OW34806   1.094   8.232   6.885
 7592SOL    HW134807   1.009   8.285   6.889
 7592SOL    HW234808   1.104   8.181   6.970
 7593SOL     OW34809   9.331   4.960   6.926
 7593SOL    HW134810   9.369   4.894   6.992
 7593SOL    HW234811   9.325   5.049   6.969
 7594SOL     OW34812   8.007   6.564   6.775
 7594SOL    HW134813   7.954   6.634   6.726
 7594SOL    HW234814   8.086   6.538   6.720
 7595SOL     OW34815   3.617   7.533   7.011
 7595SOL    HW134816   3.708   7.512   6.973
 7595SOL    HW234817   3.547   7.505   6.947
 7596SOL     OW34818   4.878   6.694   6.990
 7596SOL    HW134819   4.976   6.703   7.010
 7596SOL    HW234820   4.866   6.628   6.916
 7597SOL     OW34821   2.546   6.522   6.923
 7597SOL    HW134822   2.568   6.555   7.016
 7597SOL    HW234823   2.611   6.451   6.897
 7598SOL     OW34824   9.490   2.263   6.954
 7598SOL    HW134825   9.553   2.302   7.022
 7598SOL    HW234826   9.400   2.254   6.995
 7599SOL     OW34827   7.823   7.369   6.961
 7599SOL    HW134828   7.876   7.396   6.879
 7599SOL    HW234829   7.757   7.300   6.936
 7600SOL     OW34830   8.603   8.080   6.751
 7600SOL    HW134831   8.673   8.016   6.783
 7600SOL    HW234832   8.546   8.036   6.682
 7601SOL     OW34833   4.024   0.643   6.830
 7601SOL    HW134834   3.967   0.666   6.751
 7601SOL    HW234835   4.096   0.582   6.801
 7602SOL     OW34836   5.321   4.374   7.037
 7602SOL    HW134837   5.232   4.419   7.046
 7602SOL    HW234838   5.351   4.379   6.942
 7603SOL     OW34839   6.673   4.870   6.796
 7603SOL    HW134840   6.664   4.942   6.865
 7603SOL    HW234841   6.733   4.798   6.831
 7604SOL     OW34842   5.816   2.439   6.959
 7604SOL    HW134843   5.760   2.495   6.898
 7604SOL    HW234844   5.760   2.404   7.033
 7605SOL     OW34845   1.088   1.063   7.077
 7605SOL    HW134846   1.074   1.157   7.045
 7605SOL    HW234847   1.151   1.017   7.015
 7606SOL     OW34848   4.703   2.480   6.779
 7606SOL    HW134849   4.693   2.498   6.877
 7606SOL    HW234850   4.641   2.407   6.752
 7607SOL     OW34851   0.818   6.217   6.984
 7607SOL    HW134852   0.853   6.181   7.071
 7607SOL    HW234853   0.724   6.190   6.972
 7608SOL     OW34854   3.515   1.495   7.065
 7608SOL    HW134855   3.571   1.441   7.002
 7608SOL    HW234856   3.442   1.438   7.101
 7609SOL     OW34857   4.305   7.058   6.882
 7609SOL    HW134858   4.396   7.090   6.854
 7609SOL    HW234859   4.262   7.010   6.807
 7610SOL     OW34860   1.767   3.960   6.949
 7610SOL    HW134861   1.811   3.917   6.870
 7610SOL    HW234862   1.669   3.965   6.934
 7611SOL     OW34863   0.075   1.937   6.753
 7611SOL    HW134864   0.105   1.877   6.679
 7611SOL    HW234865   0.008   1.889   6.809
 7612SOL     OW34866   7.714   0.599   6.743
 7612SOL    HW134867   7.617   0.572   6.747
 7612SOL    HW234868   7.723   0.694   6.770
 7613SOL     OW34869   4.166   7.930   6.901
 7613SOL    HW134870   4.089   7.901   6.959
 7613SOL    HW234871   4.170   7.873   6.820
 7614SOL     OW34872   7.371   8.021   6.767
 7614SOL    HW134873   7.366   7.922   6.783
 7614SOL    HW234874   7.310   8.045   6.692
 7615SOL     OW34875   3.335   6.766   6.808
 7615SOL    HW134876   3.271   6.801   6.877
 7615SOL    HW234877   3.391   6.695   6.848
 7616SOL     OW34878   0.078   5.708   6.895
 7616SOL    HW134879   0.135   5.670   6.822
 7616SOL    HW234880   0.112   5.676   6.983
 7617SOL     OW34881   4.657   7.663   6.890
 7617SOL    HW134882   4.629   7.715   6.971
 7617SOL    HW234883   4.595   7.587   6.876
 7618SOL     OW34884   5.377   0.083   6.999
 7618SOL    HW134885   5.400   0.062   7.094
 7618SOL    HW234886   5.364   0.181   6.989
 7619SOL     OW34887   1.990   6.867   7.021
 7619SOL    HW134888   1.960   6.774   7.040
 7619SOL    HW234889   1.987   6.921   7.105
 7620SOL     OW34890   2.836   3.645   6.770
 7620SOL    HW134891   2.847   3.546   6.784
 7620SOL    HW234892   2.743   3.664   6.742
 7621SOL     OW34893   1.312   7.785   7.051
 7621SOL    HW134894   1.271   7.842   6.978
 7621SOL    HW234895   1.395   7.743   7.016
 7622SOL     OW34896   4.702   0.223   6.950
 7622SOL    HW134897   4.709   0.262   6.857
 7622SOL    HW234898   4.611   0.188   6.964
 7623SOL     OW34899   3.952   8.007   6.887
 7623SOL    HW134900   3.852   8.011   6.884
 7623SOL    HW234901   3.983   7.916   6.860
 7624SOL     OW34902   0.199   4.670   6.795
 7624SOL    HW134903   0.298   4.666   6.814
 7624SOL    HW234904   0.186   4.680   6.697
 7625SOL     OW34905   7.035   0.692   6.780
 7625SOL    HW134906   7.049   0.598   6.810
 7625SOL    HW234907   6.937   0.709   6.771
 7626SOL     OW34908   0.740   0.067   6.975
 7626SOL    HW134909   0.654   0.064   7.027
 7626SOL    HW234910   0.792  -0.015   6.994
 7627SOL     OW34911   4.975   3.376   6.709
 7627SOL    HW134912   5.012   3.440   6.777
 7627SOL    HW234913   4.905   3.320   6.752
 7628SOL     OW34914   4.766   1.075   6.854
 7628SOL    HW134915   4.816   1.029   6.780
 7628SOL    HW234916   4.825   1.082   6.934
 7629SOL     OW34917   9.190   1.562   7.003
 7629SOL    HW134918   9.136   1.611   6.934
 7629SOL    HW234919   9.277   1.535   6.964
 7630SOL     OW34920   2.170   0.198   6.861
 7630SOL    HW134921   2.070   0.212   6.856
 7630SOL    HW234922   2.208   0.199   6.769
 7631SOL     OW34923   1.159   7.520   6.969
 7631SOL    HW134924   1.139   7.435   6.920
 7631SOL    HW234925   1.211   7.581   6.910
 7632SOL     OW34926   4.287   3.181   6.942
 7632SOL    HW134927   4.280   3.164   7.040
 7632SOL    HW234928   4.289   3.279   6.925
 7633SOL     OW34929   9.253   2.775   7.061
 7633SOL    HW134930   9.291   2.682   7.063
 7633SOL    HW234931   9.157   2.772   7.085
 7634SOL     OW34932   8.826   7.259   6.917
 7634SOL    HW134933   8.865   7.177   6.874
 7634SOL    HW234934   8.728   7.246   6.930
 7635SOL     OW34935   8.138   1.509   6.874
 7635SOL    HW134936   8.148   1.533   6.971
 7635SOL    HW234937   8.091   1.422   6.866
 7636SOL     OW34938   8.277   2.328   6.784
 7636SOL    HW134939   8.208   2.376   6.838
 7636SOL    HW234940   8.299   2.242   6.829
 7637SOL     OW34941   1.035   4.787   6.871
 7637SOL    HW134942   1.105   4.810   6.940
 7637SOL    HW234943   0.945   4.809   6.907
 7638SOL     OW34944   5.412   1.015   6.920
 7638SOL    HW134945   5.444   1.089   6.979
 7638SOL    HW234946   5.352   0.955   6.971
 7639SOL     OW34947   7.874   1.547   6.777
 7639SOL    HW134948   7.960   1.591   6.749
 7639SOL    HW234949   7.844   1.587   6.863
 7640SOL     OW34950   6.738   3.683   6.885
 7640SOL    HW134951   6.651   3.648   6.851
 7640SOL    HW234952   6.801   3.696   6.809
 7641SOL     OW34953   3.106   7.281   6.944
 7641SOL    HW134954   3.009   7.264   6.966
 7641SOL    HW234955   3.161   7.262   7.024
 7642SOL     OW34956   6.253   4.644   6.984
 7642SOL    HW134957   6.210   4.715   6.928
 7642SOL    HW234958   6.292   4.685   7.065
 7643SOL     OW34959   4.435   5.507   6.998
 7643SOL    HW134960   4.365   5.577   6.978
 7643SOL    HW234961   4.502   5.506   6.925
 7644SOL     OW34962   8.874   1.034   7.043
 7644SOL    HW134963   8.777   1.049   7.024
 7644SOL    HW234964   8.929   1.072   6.970
 7645SOL     OW34965   7.654   6.007   6.855
 7645SOL    HW134966   7.562   5.985   6.890
 7645SOL    HW234967   7.647   6.042   6.763
 7646SOL     OW34968   0.058   3.634   6.983
 7646SOL    HW134969   0.001   3.684   6.917
 7646SOL    HW234970   0.151   3.669   6.981
 7647SOL     OW34971   3.187   4.159   6.948
 7647SOL    HW134972   3.152   4.081   6.895
 7647SOL    HW234973   3.205   4.130   7.041
 7648SOL     OW34974   6.434   6.686   6.883
 7648SOL    HW134975   6.353   6.639   6.847
 7648SOL    HW234976   6.516   6.636   6.856
 7649SOL     OW34977   9.425   6.999   6.844
 7649SOL    HW134978   9.496   7.003   6.774
 7649SOL    HW234979   9.347   6.948   6.809
 7650SOL     OW34980   3.420   6.387   6.877
 7650SOL    HW134981   3.380   6.422   6.792
 7650SOL    HW234982   3.509   6.427   6.891
 7651SOL     OW34983   4.806   2.002   6.827
 7651SOL    HW134984   4.711   1.983   6.853
 7651SOL    HW234985   4.853   2.043   6.904
 7652SOL     OW34986   1.658   7.548   6.969
 7652SOL    HW134987   1.664   7.648   6.976
 7652SOL    HW234988   1.566   7.522   6.942
 7653SOL     OW34989   6.277   5.806   6.959
 7653SOL    HW134990   6.343   5.863   7.010
 7653SOL    HW234991   6.189   5.851   6.958
 7654SOL     OW34992   4.020   5.627   6.803
 7654SOL    HW134993   4.107   5.578   6.813
 7654SOL    HW234994   3.955   5.595   6.871
 7655SOL     OW34995   0.604   6.629   6.780
 7655SOL    HW134996   0.587   6.563   6.854
 7655SOL    HW234997   0.619   6.580   6.695
 7656SOL     OW34998   4.366   6.239   6.937
 7656SOL    HW134999   4.276   6.203   6.909
 7656SOL    HW235000   4.382   6.326   6.893
 7657SOL     OW35001   3.907   1.956   6.971
 7657SOL    HW135002   3.972   1.994   6.904
 7657SOL    HW235003   3.855   1.883   6.929
 7658SOL     OW35004   5.168   5.066   6.862
 7658SOL    HW135005   5.140   5.019   6.946
 7658SOL    HW235006   5.149   5.164   6.871
 7659SOL     OW35007   2.841   1.108   7.009
 7659SOL    HW135008   2.911   1.046   6.972
 7659SOL    HW235009   2.751   1.076   6.982
 7660SOL     OW35010   0.794   2.849   6.801
 7660SOL    HW135011   0.734   2.863   6.721
 7660SOL    HW235012   0.815   2.937   6.843
 7661SOL     OW35013   3.959   7.042   7.059
 7661SOL    HW135014   3.981   7.116   7.123
 7661SOL    HW235015   3.920   7.081   6.976
 7662SOL     OW35016   0.232   5.006   7.045
 7662SOL    HW135017   0.218   5.061   6.962
 7662SOL    HW235018   0.329   4.985   7.055
 7663SOL     OW35019   1.605   6.636   6.815
 7663SOL    HW135020   1.581   6.541   6.792
 7663SOL    HW235021   1.530   6.696   6.789
 7664SOL     OW35022   3.041   6.338   6.884
 7664SOL    HW135023   3.124   6.371   6.930
 7664SOL    HW235024   2.985   6.287   6.949
 7665SOL     OW35025   2.993   5.015   7.032
 7665SOL    HW135026   3.041   4.990   7.116
 7665SOL    HW235027   3.058   5.048   6.965
 7666SOL     OW35028   5.100   6.717   6.805
 7666SOL    HW135029   5.151   6.803   6.798
 7666SOL    HW235030   5.036   6.723   6.881
 7667SOL     OW35031   6.442   5.456   7.040
 7667SOL    HW135032   6.411   5.376   7.092
 7667SOL    HW235033   6.521   5.496   7.085
 7668SOL     OW35034   5.661   1.127   6.885
 7668SOL    HW135035   5.672   1.225   6.867
 7668SOL    HW235036   5.744   1.092   6.927
 7669SOL     OW35037   7.585   2.820   7.052
 7669SOL    HW135038   7.608   2.776   6.965
 7669SOL    HW235039   7.525   2.897   7.035
 7670SOL     OW35040   4.530   3.618   6.871
 7670SOL    HW135041   4.436   3.589   6.891
 7670SOL    HW235042   4.528   3.696   6.809
 7671SOL     OW35043   8.112   2.835   6.946
 7671SOL    HW135044   8.068   2.870   7.030
 7671SOL    HW235045   8.166   2.755   6.968
 7672SOL     OW35046   0.859   3.850   6.731
 7672SOL    HW135047   0.943   3.795   6.726
 7672SOL    HW235048   0.798   3.810   6.799
 7673SOL     OW35049   9.220   8.176   6.777
 7673SOL    HW135050   9.259   8.178   6.870
 7673SOL    HW235051   9.283   8.219   6.714
 7674SOL     OW35052   6.539   6.908   6.955
 7674SOL    HW135053   6.574   6.904   6.861
 7674SOL    HW235054   6.506   7.000   6.973
 7675SOL     OW35055   7.101   5.915   6.937
 7675SOL    HW135056   7.052   5.968   7.007
 7675SOL    HW235057   7.038   5.851   6.894
 7676SOL     OW35058   1.758   0.622   6.900
 7676SOL    HW135059   1.708   0.562   6.964
 7676SOL    HW235060   1.836   0.662   6.947
 7677SOL     OW35061   4.104   7.554   6.976
 7677SOL    HW135062   4.030   7.618   6.951
 7677SOL    HW235063   4.139   7.511   6.894
 7678SOL     OW35064   3.424   0.755   6.777
 7678SOL    HW135065   3.494   0.821   6.747
 7678SOL    HW235066   3.380   0.790   6.859
 7679SOL     OW35067   7.139   3.211   6.761
 7679SOL    HW135068   7.074   3.166   6.824
 7679SOL    HW235069   7.088   3.263   6.693
 7680SOL     OW35070   2.692   1.088   6.834
 7680SOL    HW135071   2.632   1.162   6.801
 7680SOL    HW235072   2.636   1.015   6.872
 7681SOL     OW35073   6.520   2.658   6.792
 7681SOL    HW135074   6.451   2.701   6.850
 7681SOL    HW235075   6.575   2.728   6.748
 7682SOL     OW35076   6.090   5.917   6.847
 7682SOL    HW135077   6.054   5.960   6.930
 7682SOL    HW235078   6.015   5.872   6.799
 7683SOL     OW35079   2.716   7.160   6.980
 7683SOL    HW135080   2.661   7.195   6.904
 7683SOL    HW235081   2.733   7.063   6.966
 7684SOL     OW35082   5.199   1.135   6.982
 7684SOL    HW135083   5.114   1.125   7.035
 7684SOL    HW235084   5.276   1.139   7.045
 7685SOL     OW35085   2.079   8.280   6.746
 7685SOL    HW135086   2.106   8.184   6.745
 7685SOL    HW235087   2.039   8.302   6.835
 7686SOL     OW35088   3.836   7.830   6.772
 7686SOL    HW135089   3.849   7.730   6.774
 7686SOL    HW235090   3.777   7.854   6.697
 7687SOL     OW35091   2.256   7.935   6.714
 7687SOL    HW135092   2.202   7.908   6.794
 7687SOL    HW235093   2.348   7.898   6.722
 7688SOL     OW35094   1.494   1.599   6.978
 7688SOL    HW135095   1.425   1.597   6.905
 7688SOL    HW235096   1.576   1.644   6.944
 7689SOL     OW35097   3.713   4.174   7.047
 7689SOL    HW135098   3.665   4.260   7.068
 7689SOL    HW235099   3.775   4.188   6.970
 7690SOL     OW35100   6.743   1.777   6.972
 7690SOL    HW135101   6.784   1.853   6.922
 7690SOL    HW235102   6.748   1.695   6.917
 7691SOL     OW35103   4.488   0.453   6.768
 7691SOL    HW135104   4.561   0.394   6.733
 7691SOL    HW235105   4.409   0.447   6.709
 7692SOL     OW35106   1.880   7.108   6.826
 7692SOL    HW135107   1.855   7.201   6.858
 7692SOL    HW235108   1.876   7.045   6.902
 7693SOL     OW35109   5.297   6.095   6.996
 7693SOL    HW135110   5.294   6.001   7.033
 7693SOL    HW235111   5.320   6.092   6.900
 7694SOL     OW35112   1.593   3.082   6.811
 7694SOL    HW135113   1.630   2.997   6.772
 7694SOL    HW235114   1.667   3.148   6.823
 7695SOL     OW35115   2.659   3.239   6.798
 7695SOL    HW135116   2.561   3.227   6.779
 7695SOL    HW235117   2.712   3.181   6.737
 7696SOL     OW35118   5.313   5.681   6.904
 7696SOL    HW135119   5.394   5.710   6.852
 7696SOL    HW235120   5.244   5.753   6.901
 7697SOL     OW35121   7.316   1.408   7.004
 7697SOL    HW135122   7.381   1.401   7.081
 7697SOL    HW235123   7.238   1.463   7.032
 7698SOL     OW35124   2.515   5.128   6.999
 7698SOL    HW135125   2.450   5.107   7.073
 7698SOL    HW235126   2.604   5.090   7.022
 7699SOL     OW35127   5.977   7.551   6.831
 7699SOL    HW135128   6.013   7.464   6.798
 7699SOL    HW235129   6.038   7.625   6.802
 7700SOL     OW35130   6.436   4.928   6.984
 7700SOL    HW135131   6.386   4.879   7.057
 7700SOL    HW235132   6.522   4.963   7.021
 7701SOL     OW35133   1.366   2.504   6.806
 7701SOL    HW135134   1.302   2.530   6.878
 7701SOL    HW235135   1.390   2.408   6.816
 7702SOL     OW35136   4.753   3.988   6.865
 7702SOL    HW135137   4.821   3.937   6.917
 7702SOL    HW235138   4.759   4.085   6.888
 7703SOL     OW35139   6.275   0.615   6.757
 7703SOL    HW135140   6.372   0.636   6.748
 7703SOL    HW235141   6.242   0.648   6.844
 7704SOL     OW35142   4.715   1.438   7.111
 7704SOL    HW135143   4.700   1.490   7.026
 7704SOL    HW235144   4.773   1.360   7.091
 7705SOL     OW35145   4.708   5.682   6.986
 7705SOL    HW135146   4.652   5.719   6.911
 7705SOL    HW235147   4.802   5.714   6.976
 7706SOL     OW35148   4.260   7.226   7.006
 7706SOL    HW135149   4.301   7.219   6.915
 7706SOL    HW235150   4.319   7.179   7.072
 7707SOL     OW35151   8.272   0.927   6.766
 7707SOL    HW135152   8.322   0.892   6.846
 7707SOL    HW235153   8.240   1.020   6.785
 7708SOL     OW35154   6.016   5.341   6.788
 7708SOL    HW135155   6.083   5.367   6.858
 7708SOL    HW235156   5.930   5.319   6.832
 7709SOL     OW35157   0.951   4.037   6.860
 7709SOL    HW135158   1.046   4.070   6.871
 7709SOL    HW235159   0.917   4.064   6.770
 7710SOL     OW35160   0.600   2.563   6.976
 7710SOL    HW135161   0.504   2.535   6.983
 7710SOL    HW235162   0.616   2.602   6.886
 7711SOL     OW35163   6.989   6.851   6.863
 7711SOL    HW135164   6.922   6.821   6.794
 7711SOL    HW235165   7.047   6.921   6.823
 7712SOL     OW35166   3.369   5.961   7.053
 7712SOL    HW135167   3.302   6.005   6.993
 7712SOL    HW235168   3.455   5.952   7.005
 7713SOL     OW35169   7.141   8.183   6.877
 7713SOL    HW135170   7.234   8.181   6.841
 7713SOL    HW235171   7.113   8.091   6.903
 7714SOL     OW35172   5.694   7.605   7.014
 7714SOL    HW135173   5.621   7.560   7.065
 7714SOL    HW235174   5.776   7.608   7.070
 7715SOL     OW35175   3.163   6.841   6.703
 7715SOL    HW135176   3.092   6.809   6.766
 7715SOL    HW235177   3.230   6.894   6.753
 7716SOL     OW35178   6.090   7.097   6.940
 7716SOL    HW135179   6.050   7.037   6.870
 7716SOL    HW235180   6.154   7.160   6.898
 7717SOL     OW35181   4.056   2.619   6.952
 7717SOL    HW135182   4.045   2.687   6.880
 7717SOL    HW235183   3.968   2.581   6.976
 7718SOL     OW35184   4.576   4.842   6.815
 7718SOL    HW135185   4.537   4.765   6.866
 7718SOL    HW235186   4.510   4.916   6.811
 7719SOL     OW35187   5.132   2.858   7.040
 7719SOL    HW135188   5.185   2.775   7.020
 7719SOL    HW235189   5.044   2.833   7.079
 7720SOL     OW35190   3.220   6.574   7.015
 7720SOL    HW135191   3.281   6.618   6.948
 7720SOL    HW235192   3.125   6.589   6.988
 7721SOL     OW35193   7.595   4.356   7.005
 7721SOL    HW135194   7.679   4.365   6.952
 7721SOL    HW235195   7.527   4.309   6.950
 7722SOL     OW35196   1.924   5.145   6.923
 7722SOL    HW135197   1.879   5.223   6.879
 7722SOL    HW235198   2.023   5.155   6.914
 7723SOL     OW35199   1.367   5.746   6.742
 7723SOL    HW135200   1.331   5.703   6.826
 7723SOL    HW235201   1.463   5.767   6.754
 7724SOL     OW35202   1.068   4.977   7.075
 7724SOL    HW135203   1.106   4.896   7.120
 7724SOL    HW235204   1.041   4.954   6.982
 7725SOL     OW35205   0.372   8.238   7.083
 7725SOL    HW135206   0.469   8.216   7.100
 7725SOL    HW235207   0.347   8.207   6.992
 7726SOL     OW35208   5.281   3.090   6.917
 7726SOL    HW135209   5.235   3.098   7.006
 7726SOL    HW235210   5.231   3.027   6.859
 7727SOL     OW35211   4.467   3.424   6.736
 7727SOL    HW135212   4.470   3.475   6.822
 7727SOL    HW235213   4.410   3.343   6.746
 7728SOL     OW35214   7.859   7.188   6.977
 7728SOL    HW135215   7.792   7.117   7.002
 7728SOL    HW235216   7.950   7.157   7.003
 7729SOL     OW35217   8.764   4.534   7.093
 7729SOL    HW135218   8.755   4.467   7.020
 7729SOL    HW235219   8.860   4.563   7.100
 7730SOL     OW35220   2.306   3.429   6.999
 7730SOL    HW135221   2.357   3.344   6.984
 7730SOL    HW235222   2.333   3.470   7.085
 7731SOL     OW35223   6.328   0.080   7.032
 7731SOL    HW135224   6.245   0.137   7.028
 7731SOL    HW235225   6.358   0.060   6.939
 7732SOL     OW35226   6.194   5.214   7.018
 7732SOL    HW135227   6.166   5.291   7.077
 7732SOL    HW235228   6.121   5.146   7.017
 7733SOL     OW35229   7.869   1.432   6.980
 7733SOL    HW135230   7.936   1.391   6.918
 7733SOL    HW235231   7.795   1.471   6.928
 7734SOL     OW35232   0.576   7.780   6.777
 7734SOL    HW135233   0.488   7.739   6.804
 7734SOL    HW235234   0.582   7.782   6.678
 7735SOL     OW35235   0.541   1.174   6.942
 7735SOL    HW135236   0.471   1.102   6.932
 7735SOL    HW235237   0.509   1.257   6.898
 7736SOL     OW35238   4.838   4.975   6.883
 7736SOL    HW135239   4.844   5.025   6.796
 7736SOL    HW235240   4.768   5.016   6.940
 7737SOL     OW35241   1.790   3.329   6.937
 7737SOL    HW135242   1.851   3.298   6.864
 7737SOL    HW235243   1.802   3.271   7.017
 7738SOL     OW35244   5.752   8.340   6.939
 7738SOL    HW135245   5.817   8.375   6.871
 7738SOL    HW235246   5.729   8.246   6.918
 7739SOL     OW35247   6.934   7.849   6.930
 7739SOL    HW135248   6.892   7.792   7.001
 7739SOL    HW235249   7.013   7.896   6.967
 7740SOL     OW35250   7.345   3.926   6.843
 7740SOL    HW135251   7.421   3.944   6.780
 7740SOL    HW235252   7.365   3.966   6.932
 7741SOL     OW35253   3.215   7.063   6.940
 7741SOL    HW135254   3.270   7.144   6.922
 7741SOL    HW235255   3.171   7.033   6.857
 7742SOL     OW35256   3.177   5.480   7.038
 7742SOL    HW135257   3.273   5.505   7.053
 7742SOL    HW235258   3.153   5.405   7.099
 7743SOL     OW35259   7.027   4.324   6.919
 7743SOL    HW135260   6.935   4.342   6.954
 7743SOL    HW235261   7.021   4.272   6.834
 7744SOL     OW35262   2.601   3.790   6.841
 7744SOL    HW135263   2.503   3.768   6.839
 7744SOL    HW235264   2.614   3.884   6.812
 7745SOL     OW35265   6.666   1.454   6.714
 7745SOL    HW135266   6.648   1.507   6.797
 7745SOL    HW235267   6.659   1.357   6.735
 7746SOL     OW35268   2.451   4.104   6.865
 7746SOL    HW135269   2.427   4.095   6.962
 7746SOL    HW235270   2.445   4.200   6.839
 7747SOL     OW35271   7.140   5.315   6.856
 7747SOL    HW135272   7.079   5.326   6.777
 7747SOL    HW235273   7.206   5.390   6.857
 7748SOL     OW35274   3.440   5.379   7.023
 7748SOL    HW135275   3.430   5.417   6.930
 7748SOL    HW235276   3.537   5.367   7.043
 7749SOL     OW35277   8.353   5.939   6.912
 7749SOL    HW135278   8.327   5.945   6.815
 7749SOL    HW235279   8.443   5.978   6.925
 7750SOL     OW35280   9.184   3.367   6.964
 7750SOL    HW135281   9.160   3.291   6.902
 7750SOL    HW235282   9.217   3.331   7.050
 7751SOL     OW35283   7.991   1.752   6.775
 7751SOL    HW135284   7.904   1.721   6.736
 7751SOL    HW235285   8.053   1.777   6.702
 7752SOL     OW35286   2.226   2.842   6.754
 7752SOL    HW135287   2.251   2.761   6.700
 7752SOL    HW235288   2.127   2.852   6.753
 7753SOL     OW35289   8.841   7.660   6.717
 7753SOL    HW135290   8.910   7.656   6.789
 7753SOL    HW235291   8.759   7.612   6.747
 7754SOL     OW35292   7.880   6.229   6.830
 7754SOL    HW135293   7.920   6.289   6.760
 7754SOL    HW235294   7.937   6.231   6.912
 7755SOL     OW35295   2.500   3.014   6.836
 7755SOL    HW135296   2.549   2.957   6.902
 7755SOL    HW235297   2.486   3.105   6.875
 7756SOL     OW35298   7.442   0.290   6.890
 7756SOL    HW135299   7.479   0.233   6.815
 7756SOL    HW235300   7.360   0.336   6.859
 7757SOL     OW35301   7.065   7.075   7.026
 7757SOL    HW135302   7.162   7.053   7.038
 7757SOL    HW235303   7.034   7.040   6.939
 7758SOL     OW35304   4.850   3.483   6.958
 7758SOL    HW135305   4.906   3.444   6.884
 7758SOL    HW235306   4.784   3.547   6.919
 7759SOL     OW35307   8.806   5.473   6.927
 7759SOL    HW135308   8.736   5.451   6.996
 7759SOL    HW235309   8.896   5.459   6.965
 7760SOL     OW35310   5.404   7.402   6.778
 7760SOL    HW135311   5.424   7.455   6.861
 7760SOL    HW235312   5.306   7.384   6.773
 7761SOL     OW35313   4.418   0.125   6.933
 7761SOL    HW135314   4.443   0.214   6.895
 7761SOL    HW235315   4.464   0.112   7.021
 7762SOL     OW35316   5.200   7.733   6.939
 7762SOL    HW135317   5.164   7.653   6.987
 7762SOL    HW235318   5.216   7.710   6.844
 7763SOL     OW35319   3.604   5.175   7.032
 7763SOL    HW135320   3.515   5.170   6.985
 7763SOL    HW235321   3.656   5.251   6.994
 7764SOL     OW35322   0.590   6.344   7.049
 7764SOL    HW135323   0.627   6.417   6.991
 7764SOL    HW235324   0.516   6.380   7.105
 7765SOL     OW35325   5.007   8.164   6.723
 7765SOL    HW135326   5.091   8.198   6.768
 7765SOL    HW235327   4.990   8.071   6.752
 7766SOL     OW35328   0.615   8.107   7.045
 7766SOL    HW135329   0.607   8.206   7.060
 7766SOL    HW235330   0.711   8.083   7.038
 7767SOL     OW35331   6.708   0.224   6.880
 7767SOL    HW135332   6.649   0.305   6.869
 7767SOL    HW235333   6.680   0.154   6.816
 7768SOL     OW35334   7.857   8.273   6.973
 7768SOL    HW135335   7.777   8.288   6.913
 7768SOL    HW235336   7.899   8.186   6.950
 7769SOL     OW35337   8.507   4.797   7.096
 7769SOL    HW135338   8.441   4.724   7.076
 7769SOL    HW235339   8.483   4.878   7.045
 7770SOL     OW35340   0.917   6.698   7.026
 7770SOL    HW135341   0.982   6.732   7.095
 7770SOL    HW235342   0.827   6.734   7.047
 7771SOL     OW35343   8.947   1.555   6.795
 7771SOL    HW135344   8.945   1.486   6.869
 7771SOL    HW235345   8.899   1.636   6.825
 7772SOL     OW35346   8.268   8.005   7.012
 7772SOL    HW135347   8.245   8.075   7.079
 7772SOL    HW235348   8.256   7.915   7.053
 7773SOL     OW35349   1.838   0.992   6.934
 7773SOL    HW135350   1.869   1.034   7.019
 7773SOL    HW235351   1.831   0.893   6.946
 7774SOL     OW35352   1.740   2.786   7.081
 7774SOL    HW135353   1.644   2.754   7.080
 7774SOL    HW235354   1.753   2.852   7.008
 7775SOL     OW35355   1.291   1.020   6.820
 7775SOL    HW135356   1.244   0.933   6.802
 7775SOL    HW235357   1.384   1.001   6.849
 7776SOL     OW35358   8.180   4.864   6.820
 7776SOL    HW135359   8.154   4.790   6.883
 7776SOL    HW235360   8.249   4.921   6.863
 7777SOL     OW35361   4.052   0.958   6.960
 7777SOL    HW135362   4.115   0.917   6.894
 7777SOL    HW235363   3.962   0.965   6.920
 7778SOL     OW35364   0.785   1.586   7.023
 7778SOL    HW135365   0.759   1.520   6.952
 7778SOL    HW235366   0.765   1.678   6.992
 7779SOL     OW35367   0.393   7.438   6.764
 7779SOL    HW135368   0.377   7.531   6.799
 7779SOL    HW235369   0.370   7.372   6.835
 7780SOL     OW35370   1.217   5.488   6.843
 7780SOL    HW135371   1.286   5.505   6.772
 7780SOL    HW235372   1.209   5.568   6.901
 7781SOL     OW35373   9.181   5.545   7.083
 7781SOL    HW135374   9.192   5.612   7.008
 7781SOL    HW235375   9.109   5.481   7.060
 7782SOL     OW35376   0.810   4.703   6.871
 7782SOL    HW135377   0.772   4.759   6.944
 7782SOL    HW235378   0.831   4.612   6.907
 7783SOL     OW35379   5.710   6.136   6.866
 7783SOL    HW135380   5.673   6.144   6.773
 7783SOL    HW235381   5.800   6.094   6.862
 7784SOL     OW35382   2.359   6.833   6.964
 7784SOL    HW135383   2.273   6.802   7.005
 7784SOL    HW235384   2.424   6.855   7.036
 7785SOL     OW35385   4.909   8.332   6.861
 7785SOL    HW135386   4.879   8.313   6.954
 7785SOL    HW235387   4.975   8.407   6.862
 7786SOL     OW35388   5.522   7.023   7.097
 7786SOL    HW135389   5.621   7.002   7.098
 7786SOL    HW235390   5.502   7.086   7.024
 7787SOL     OW35391   3.654   3.704   7.030
 7787SOL    HW135392   3.619   3.770   7.097
 7787SOL    HW235393   3.651   3.613   7.070
 7788SOL     OW35394   2.259   1.267   6.931
 7788SOL    HW135395   2.273   1.339   6.862
 7788SOL    HW235396   2.282   1.179   6.892
 7789SOL     OW35397   6.749   2.540   6.973
 7789SOL    HW135398   6.803   2.456   6.978
 7789SOL    HW235399   6.719   2.555   6.879
 7790SOL     OW35400   5.423   4.213   6.812
 7790SOL    HW135401   5.380   4.252   6.894
 7790SOL    HW235402   5.497   4.271   6.783
 7791SOL     OW35403   5.970   4.916   6.733
 7791SOL    HW135404   6.042   4.856   6.698
 7791SOL    HW235405   6.011   4.994   6.778
 7792SOL     OW35406   6.191   4.872   6.802
 7792SOL    HW135407   6.220   4.879   6.898
 7792SOL    HW235408   6.178   4.777   6.778
 7793SOL     OW35409   7.686   8.453   6.904
 7793SOL    HW135410   7.702   8.423   6.999
 7793SOL    HW235411   7.736   8.537   6.888
 7794SOL     OW35412   3.927   6.732   6.966
 7794SOL    HW135413   3.902   6.720   6.869
 7794SOL    HW235414   3.934   6.829   6.986
 7795SOL     OW35415   1.926   0.057   7.037
 7795SOL    HW135416   1.953   0.033   7.131
 7795SOL    HW235417   1.851   0.122   7.041
 7796SOL     OW35418   9.117   1.392   6.862
 7796SOL    HW135419   9.169   1.478   6.853
 7796SOL    HW235420   9.097   1.356   6.772
 7797SOL     OW35421   9.162   0.870   6.815
 7797SOL    HW135422   9.219   0.929   6.757
 7797SOL    HW235423   9.152   0.781   6.773
 7798SOL     OW35424   1.300   0.382   6.932
 7798SOL    HW135425   1.294   0.394   7.031
 7798SOL    HW235426   1.275   0.288   6.909
 7799SOL     OW35427   4.527   1.910   6.946
 7799SOL    HW135428   4.546   1.865   6.859
 7799SOL    HW235429   4.432   1.941   6.947
 7800SOL     OW35430   5.235   3.616   7.069
 7800SOL    HW135431   5.316   3.556   7.069
 7800SOL    HW235432   5.233   3.667   6.984
 7801SOL     OW35433   8.117   0.153   6.757
 7801SOL    HW135434   8.179   0.120   6.829
 7801SOL    HW235435   8.054   0.219   6.796
 7802SOL     OW35436   2.969   0.157   7.051
 7802SOL    HW135437   2.955   0.249   7.087
 7802SOL    HW235438   2.888   0.102   7.069
 7803SOL     OW35439   6.186   6.512   7.017
 7803SOL    HW135440   6.197   6.548   6.924
 7803SOL    HW235441   6.095   6.471   7.026
 7804SOL     OW35442   9.477   1.352   7.055
 7804SOL    HW135443   9.439   1.431   7.104
 7804SOL    HW235444   9.451   1.357   6.959
 7805SOL     OW35445   7.883   1.003   6.766
 7805SOL    HW135446   7.961   1.050   6.807
 7805SOL    HW235447   7.908   0.909   6.747
 7806SOL     OW35448   8.305   4.589   7.042
 7806SOL    HW135449   8.280   4.541   7.127
 7806SOL    HW235450   8.235   4.573   6.973
 7807SOL     OW35451   7.597   7.338   6.756
 7807SOL    HW135452   7.604   7.320   6.657
 7807SOL    HW235453   7.668   7.288   6.804
 7808SOL     OW35454   2.815   6.400   6.813
 7808SOL    HW135455   2.829   6.446   6.901
 7808SOL    HW235456   2.719   6.406   6.787
 7809SOL     OW35457   7.434   7.397   6.722
 7809SOL    HW135458   7.381   7.398   6.808
 7809SOL    HW235459   7.464   7.490   6.702
 7810SOL     OW35460   5.747   3.091   6.881
 7810SOL    HW135461   5.817   3.088   6.952
 7810SOL    HW235462   5.657   3.085   6.923
 7811SOL     OW35463   5.993   8.167   6.869
 7811SOL    HW135464   5.913   8.165   6.929
 7811SOL    HW235465   6.057   8.097   6.897
 7812SOL     OW35466   3.677   0.088   6.855
 7812SOL    HW135467   3.647   0.012   6.913
 7812SOL    HW235468   3.684   0.170   6.911
 7813SOL     OW35469   2.818   5.013   6.943
 7813SOL    HW135470   2.741   4.999   6.880
 7813SOL    HW235471   2.815   5.105   6.980
 7814SOL     OW35472   7.963   6.920   6.915
 7814SOL    HW135473   7.995   6.837   6.962
 7814SOL    HW235474   7.974   6.909   6.817
 7815SOL     OW35475   3.144   4.841   6.949
 7815SOL    HW135476   3.179   4.935   6.950
 7815SOL    HW235477   3.101   4.822   6.862
 7816SOL     OW35478   9.412   5.996   6.930
 7816SOL    HW135479   9.324   5.956   6.903
 7816SOL    HW235480   9.475   5.992   6.854
 7817SOL     OW35481   7.065   4.829   6.769
 7817SOL    HW135482   7.052   4.737   6.807
 7817SOL    HW235483   7.142   4.873   6.815
 7818SOL     OW35484   6.856   5.505   6.852
 7818SOL    HW135485   6.808   5.428   6.809
 7818SOL    HW235486   6.873   5.575   6.784
 7819SOL     OW35487   5.638   6.765   6.856
 7819SOL    HW135488   5.736   6.782   6.844
 7819SOL    HW235489   5.590   6.789   6.772
 7820SOL     OW35490   5.964   4.618   6.805
 7820SOL    HW135491   6.028   4.622   6.728
 7820SOL    HW235492   5.890   4.556   6.783
 7821SOL     OW35493   0.266   2.564   6.993
 7821SOL    HW135494   0.280   2.546   6.895
 7821SOL    HW235495   0.195   2.633   7.003
 7822SOL     OW35496   2.612   2.236   6.888
 7822SOL    HW135497   2.614   2.263   6.985
 7822SOL    HW235498   2.706   2.227   6.855
 7823SOL     OW35499   2.645   3.528   6.808
 7823SOL    HW135500   2.593   3.601   6.763
 7823SOL    HW235501   2.636   3.444   6.756
 7824SOL     OW35502   4.325   7.518   6.994
 7824SOL    HW135503   4.411   7.518   6.942
 7824SOL    HW235504   4.321   7.438   7.053
 7825SOL     OW35505   0.733   1.947   7.030
 7825SOL    HW135506   0.723   1.851   7.000
 7825SOL    HW235507   0.691   2.007   6.963
 7826SOL     OW35508   0.471   3.214   6.744
 7826SOL    HW135509   0.415   3.226   6.826
 7826SOL    HW235510   0.545   3.150   6.764
 7827SOL     OW35511   5.642   5.238   6.716
 7827SOL    HW135512   5.680   5.242   6.809
 7827SOL    HW235513   5.543   5.237   6.721
 7828SOL     OW35514   9.042   2.097   7.049
 7828SOL    HW135515   9.102   2.051   6.982
 7828SOL    HW235516   8.953   2.112   7.009
 7829SOL     OW35517   6.058   0.302   6.770
 7829SOL    HW135518   6.100   0.219   6.732
 7829SOL    HW235519   6.129   0.367   6.794
 7830SOL     OW35520   0.711   3.313   7.029
 7830SOL    HW135521   0.734   3.227   6.983
 7830SOL    HW235522   0.633   3.299   7.089
 7831SOL     OW35523   7.010   6.077   6.773
 7831SOL    HW135524   7.065   6.107   6.694
 7831SOL    HW235525   7.043   5.988   6.803
 7832SOL     OW35526   3.008   5.997   7.027
 7832SOL    HW135527   2.964   5.919   6.981
 7832SOL    HW235528   3.104   6.000   7.001
 7833SOL     OW35529   9.278   3.086   6.861
 7833SOL    HW135530   9.266   3.179   6.898
 7833SOL    HW235531   9.364   3.082   6.812
 7834SOL     OW35532   4.779   4.672   6.912
 7834SOL    HW135533   4.858   4.696   6.969
 7834SOL    HW235534   4.793   4.707   6.820
 7835SOL     OW35535   6.462   4.485   6.943
 7835SOL    HW135536   6.395   4.494   7.018
 7835SOL    HW235537   6.541   4.434   6.975
 7836SOL     OW35538   6.277   7.593   6.975
 7836SOL    HW135539   6.321   7.530   7.040
 7836SOL    HW235540   6.307   7.571   6.883
 7837SOL     OW35541   0.978   0.021   6.904
 7837SOL    HW135542   0.938   0.114   6.910
 7837SOL    HW235543   1.075   0.028   6.886
 7838SOL     OW35544   4.096   1.857   7.027
 7838SOL    HW135545   4.095   1.940   7.083
 7838SOL    HW235546   4.013   1.805   7.044
 7839SOL     OW35547   7.311   0.602   6.890
 7839SOL    HW135548   7.386   0.539   6.870
 7839SOL    HW235549   7.239   0.589   6.822
 7840SOL     OW35550   5.339   4.684   6.812
 7840SOL    HW135551   5.352   4.589   6.842
 7840SOL    HW235552   5.283   4.732   6.879
 7841SOL     OW35553   9.404   7.571   7.030
 7841SOL    HW135554   9.440   7.630   7.103
 7841SOL    HW235555   9.379   7.483   7.069
 7842SOL     OW35556   4.966   1.573   6.975
 7842SOL    HW135557   4.927   1.664   6.954
 7842SOL    HW235558   5.053   1.563   6.928
 7843SOL     OW35559   5.426   2.459   6.822
 7843SOL    HW135560   5.508   2.514   6.803
 7843SOL    HW235561   5.346   2.517   6.819
 7844SOL     OW35562   0.436   1.942   6.797
 7844SOL    HW135563   0.526   1.912   6.764
 7844SOL    HW235564   0.364   1.891   6.750
 7845SOL     OW35565   7.672   3.840   6.931
 7845SOL    HW135566   7.694   3.744   6.952
 7845SOL    HW235567   7.580   3.844   6.893
 7846SOL     OW35568   3.131   0.979   6.718
 7846SOL    HW135569   3.136   1.015   6.812
 7846SOL    HW235570   3.222   0.980   6.678
 7847SOL     OW35571   0.496   5.192   6.841
 7847SOL    HW135572   0.524   5.155   6.930
 7847SOL    HW235573   0.544   5.143   6.769
 7848SOL     OW35574   3.703   6.424   6.870
 7848SOL    HW135575   3.645   6.386   6.942
 7848SOL    HW235576   3.760   6.496   6.908
 7849SOL     OW35577   1.979   4.369   7.049
 7849SOL    HW135578   1.908   4.402   7.111
 7849SOL    HW235579   1.959   4.401   6.957
 7850SOL     OW35580   3.807   7.045   6.856
 7850SOL    HW135581   3.735   7.011   6.794
 7850SOL    HW235582   3.884   6.982   6.854
 7851SOL     OW35583   8.862   3.810   6.916
 7851SOL    HW135584   8.866   3.764   6.826
 7851SOL    HW235585   8.905   3.900   6.909
 7852SOL     OW35586   2.115   1.165   7.051
 7852SOL    HW135587   2.049   1.231   7.087
 7852SOL    HW235588   2.087   1.138   6.959
 7853SOL     OW35589   7.428   2.734   6.952
 7853SOL    HW135590   7.358   2.717   7.022
 7853SOL    HW235591   7.388   2.786   6.877
 7854SOL     OW35592   2.592   1.683   6.732
 7854SOL    HW135593   2.641   1.740   6.799
 7854SOL    HW235594   2.506   1.653   6.772
 7855SOL     OW35595   4.065   4.976   6.854
 7855SOL    HW135596   4.031   5.036   6.782
 7855SOL    HW235597   4.055   4.881   6.826
 7856SOL     OW35598   0.030   2.832   7.105
 7856SOL    HW135599  -0.063   2.806   7.078
 7856SOL    HW235600   0.081   2.859   7.024
 7857SOL     OW35601   8.119   7.723   6.822
 7857SOL    HW135602   8.105   7.669   6.738
 7857SOL    HW235603   8.212   7.711   6.853
 7858SOL     OW35604   9.053   4.510   6.843
 7858SOL    HW135605   9.020   4.578   6.910
 7858SOL    HW235606   9.056   4.420   6.887
 7859SOL     OW35607   0.949   7.912   6.780
 7859SOL    HW135608   0.965   7.822   6.820
 7859SOL    HW235609   0.852   7.925   6.765
 7860SOL     OW35610   7.034   1.783   6.962
 7860SOL    HW135611   6.966   1.853   6.982
 7860SOL    HW235612   6.992   1.709   6.910
 7861SOL     OW35613   5.188   0.985   6.748
 7861SOL    HW135614   5.142   0.926   6.815
 7861SOL    HW235615   5.272   1.020   6.788
 7862SOL     OW35616   6.467   8.032   6.993
 7862SOL    HW135617   6.393   8.031   6.926
 7862SOL    HW235618   6.462   8.116   7.046
 7863SOL     OW35619   5.051   6.091   6.936
 7863SOL    HW135620   5.094   6.119   6.849
 7863SOL    HW235621   4.998   6.008   6.921
 7864SOL     OW35622   4.676   6.896   6.808
 7864SOL    HW135623   4.618   6.977   6.824
 7864SOL    HW235624   4.665   6.867   6.714
 7865SOL     OW35625   8.218   5.496   6.845
 7865SOL    HW135626   8.276   5.453   6.915
 7865SOL    HW235627   8.245   5.591   6.834
 7866SOL     OW35628   1.412   4.674   6.864
 7866SOL    HW135629   1.356   4.615   6.805
 7866SOL    HW235630   1.493   4.624   6.893
 7867SOL     OW35631   4.762   0.042   7.032
 7867SOL    HW135632   4.840  -0.017   7.054
 7867SOL    HW235633   4.683  -0.013   7.009
 7868SOL     OW35634   0.866   5.428   6.926
 7868SOL    HW135635   0.915   5.503   6.882
 7868SOL    HW235636   0.772   5.427   6.897
 7869SOL     OW35637   5.183   5.355   7.043
 7869SOL    HW135638   5.122   5.332   6.966
 7869SOL    HW235639   5.153   5.440   7.085
 7870SOL     OW35640   8.892   2.981   6.812
 7870SOL    HW135641   8.866   2.990   6.715
 7870SOL    HW235642   8.897   2.885   6.836
 7871SOL     OW35643   8.806   7.865   6.897
 7871SOL    HW135644   8.779   7.789   6.957
 7871SOL    HW235645   8.826   7.829   6.806
 7872SOL     OW35646   8.449   2.465   6.889
 7872SOL    HW135647   8.510   2.524   6.835
 7872SOL    HW235648   8.479   2.370   6.881
 7873SOL     OW35649   1.072   1.987   6.724
 7873SOL    HW135650   1.044   1.949   6.813
 7873SOL    HW235651   1.027   2.074   6.710
 7874SOL     OW35652   9.081   6.047   6.778
 7874SOL    HW135653   9.129   6.135   6.780
 7874SOL    HW235654   9.100   6.001   6.692
 7875SOL     OW35655   1.364   5.965   6.889
 7875SOL    HW135656   1.270   5.999   6.902
 7875SOL    HW235657   1.361   5.869   6.863
 7876SOL     OW35658   0.581   1.505   7.031
 7876SOL    HW135659   0.553   1.573   7.100
 7876SOL    HW235660   0.574   1.414   7.069
 7877SOL     OW35661   7.719   3.064   7.019
 7877SOL    HW135662   7.631   3.041   6.977
 7877SOL    HW235663   7.775   3.113   6.953
 7878SOL     OW35664   5.512   1.286   6.724
 7878SOL    HW135665   5.558   1.368   6.759
 7878SOL    HW235666   5.490   1.226   6.800
 7879SOL     OW35667   7.563   0.501   6.927
 7879SOL    HW135668   7.505   0.580   6.948
 7879SOL    HW235669   7.564   0.439   7.005
 7880SOL     OW35670   9.012   0.031   6.947
 7880SOL    HW135671   9.052   0.123   6.936
 7880SOL    HW235672   9.084  -0.036   6.951
 7881SOL     OW35673   5.986   0.908   6.829
 7881SOL    HW135674   5.966   0.889   6.732
 7881SOL    HW235675   6.012   1.004   6.838
 7882SOL     OW35676   3.883   1.226   6.970
 7882SOL    HW135677   3.835   1.283   7.037
 7882SOL    HW235678   3.834   1.140   6.958
 7883SOL     OW35679   8.474   1.465   6.949
 7883SOL    HW135680   8.424   1.552   6.939
 7883SOL    HW235681   8.461   1.429   7.040
 7884SOL     OW35682   0.296   2.348   6.817
 7884SOL    HW135683   0.301   2.442   6.782
 7884SOL    HW235684   0.388   2.315   6.835
 7885SOL     OW35685   2.605   6.787   6.980
 7885SOL    HW135686   2.614   6.688   6.969
 7885SOL    HW235687   2.548   6.823   6.907
 7886SOL     OW35688   7.654   2.211   6.854
 7886SOL    HW135689   7.560   2.197   6.886
 7886SOL    HW235690   7.666   2.305   6.826
 7887SOL     OW35691   7.618   1.680   6.899
 7887SOL    HW135692   7.706   1.700   6.855
 7887SOL    HW235693   7.615   1.726   6.988
 7888SOL     OW35694   2.274   6.138   6.801
 7888SOL    HW135695   2.277   6.114   6.899
 7888SOL    HW235696   2.193   6.193   6.783
 7889SOL     OW35697   8.068   0.730   6.940
 7889SOL    HW135698   8.167   0.741   6.938
 7889SOL    HW235699   8.024   0.819   6.931
 7890SOL     OW35700   7.197   2.649   7.040
 7890SOL    HW135701   7.173   2.719   6.972
 7890SOL    HW235702   7.260   2.584   6.999
 7891SOL     OW35703   4.115   3.450   7.047
 7891SOL    HW135704   4.191   3.390   7.018
 7891SOL    HW235705   4.137   3.544   7.023
 7892SOL     OW35706   3.247   1.213   7.000
 7892SOL    HW135707   3.266   1.142   6.931
 7892SOL    HW235708   3.181   1.278   6.964
 7893SOL     OW35709   1.837   7.635   6.779
 7893SOL    HW135710   1.766   7.585   6.829
 7893SOL    HW235711   1.921   7.582   6.776
 7894SOL     OW35712   3.669   2.098   7.029
 7894SOL    HW135713   3.674   2.026   7.098
 7894SOL    HW235714   3.759   2.138   7.016
 7895SOL     OW35715   5.273   7.245   6.920
 7895SOL    HW135716   5.206   7.280   6.854
 7895SOL    HW235717   5.297   7.151   6.895
 7896SOL     OW35718   5.318   4.935   7.035
 7896SOL    HW135719   5.332   5.005   6.964
 7896SOL    HW235720   5.304   4.847   6.992
 7897SOL     OW35721   3.080   7.778   6.947
 7897SOL    HW135722   3.131   7.729   6.875
 7897SOL    HW235723   2.988   7.795   6.916
 7898SOL     OW35724   7.219   2.301   6.826
 7898SOL    HW135725   7.207   2.222   6.887
 7898SOL    HW235726   7.201   2.385   6.876
 7899SOL     OW35727   2.331   5.638   6.736
 7899SOL    HW135728   2.403   5.579   6.698
 7899SOL    HW235729   2.294   5.596   6.818
 7900SOL     OW35730   6.805   5.794   6.880
 7900SOL    HW135731   6.718   5.755   6.849
 7900SOL    HW235732   6.840   5.738   6.955
 7901SOL     OW35733   9.124   4.241   6.816
 7901SOL    HW135734   9.160   4.330   6.787
 7901SOL    HW235735   9.105   4.185   6.736
 7902SOL     OW35736   5.076   2.562   6.824
 7902SOL    HW135737   5.035   2.490   6.767
 7902SOL    HW235738   5.173   2.571   6.802
 7903SOL     OW35739   6.900   6.641   6.945
 7903SOL    HW135740   6.830   6.615   7.012
 7903SOL    HW235741   6.990   6.633   6.987
 7904SOL     OW35742   1.232   1.256   6.975
 7904SOL    HW135743   1.225   1.165   6.934
 7904SOL    HW235744   1.175   1.261   7.056
 7905SOL     OW35745   1.126   3.244   6.946
 7905SOL    HW135746   1.035   3.258   6.986
 7905SOL    HW235747   1.192   3.224   7.018
 7906SOL     OW35748   0.429   7.141   6.987
 7906SOL    HW135749   0.456   7.134   6.891
 7906SOL    HW235750   0.436   7.052   7.030
 7907SOL     OW35751   3.782   5.424   6.960
 7907SOL    HW135752   3.718   5.462   6.893
 7907SOL    HW235753   3.873   5.420   6.921
 7908SOL     OW35754   1.818   3.570   6.880
 7908SOL    HW135755   1.774   3.485   6.849
 7908SOL    HW235756   1.827   3.632   6.803
 7909SOL     OW35757   0.305   5.592   7.078
 7909SOL    HW135758   0.263   5.565   6.991
 7909SOL    HW235759   0.285   5.687   7.097
 7910SOL     OW35760   2.052   7.293   6.952
 7910SOL    HW135761   1.970   7.325   6.903
 7910SOL    HW235762   2.029   7.275   7.047
 7911SOL     OW35763   8.762   2.830   6.756
 7911SOL    HW135764   8.693   2.791   6.818
 7911SOL    HW235765   8.734   2.920   6.728
 7912SOL     OW35766   3.486   0.467   6.830
 7912SOL    HW135767   3.534   0.460   6.742
 7912SOL    HW235768   3.448   0.558   6.840
 7913SOL     OW35769   5.948   7.809   6.972
 7913SOL    HW135770   5.884   7.746   7.017
 7913SOL    HW235771   5.898   7.885   6.932
 7914SOL     OW35772   1.750   5.638   6.795
 7914SOL    HW135773   1.778   5.632   6.891
 7914SOL    HW235774   1.738   5.547   6.758
 7915SOL     OW35775   0.196   7.732   6.800
 7915SOL    HW135776   0.218   7.816   6.849
 7915SOL    HW235777   0.247   7.729   6.714
 7916SOL     OW35778   1.865   6.077   7.018
 7916SOL    HW135779   1.903   6.094   7.110
 7916SOL    HW235780   1.796   6.006   7.024
 7917SOL     OW35781   6.867   8.422   7.071
 7917SOL    HW135782   6.857   8.363   6.990
 7917SOL    HW235783   6.874   8.365   7.153
 7918SOL     OW35784   8.414   5.463   7.010
 7918SOL    HW135785   8.481   5.502   7.074
 7918SOL    HW235786   8.339   5.423   7.061
 7919SOL     OW35787   0.645   6.073   6.872
 7919SOL    HW135788   0.580   6.143   6.844
 7919SOL    HW235789   0.601   6.011   6.937
 7920SOL     OW35790   2.262   1.551   6.843
 7920SOL    HW135791   2.197   1.551   6.767
 7920SOL    HW235792   2.352   1.577   6.810
 7921SOL     OW35793   2.835   0.865   6.881
 7921SOL    HW135794   2.795   0.896   6.968
 7921SOL    HW235795   2.934   0.867   6.887
 7922SOL     OW35796   3.422   2.981   6.772
 7922SOL    HW135797   3.337   2.999   6.722
 7922SOL    HW235798   3.498   3.021   6.723
 7923SOL     OW35799   9.375   8.432   6.778
 7923SOL    HW135800   9.414   8.525   6.770
 7923SOL    HW235801   9.417   8.373   6.710
 7924SOL     OW35802   5.093   7.015   7.024
 7924SOL    HW135803   5.121   6.962   6.944
 7924SOL    HW235804   4.993   7.022   7.026
 7925SOL     OW35805   8.377   5.107   6.912
 7925SOL    HW135806   8.410   5.047   6.839
 7925SOL    HW235807   8.310   5.171   6.876
 7926SOL     OW35808   3.263   6.254   7.028
 7926SOL    HW135809   3.236   6.184   6.960
 7926SOL    HW235810   3.259   6.344   6.986
 7927SOL     OW35811   2.786   2.994   6.777
 7927SOL    HW135812   2.717   3.039   6.720
 7927SOL    HW235813   2.772   3.018   6.873
 7928SOL     OW35814   7.348   5.745   7.029
 7928SOL    HW135815   7.319   5.841   7.038
 7928SOL    HW235816   7.358   5.705   7.119
 7929SOL     OW35817   2.066   1.468   7.091
 7929SOL    HW135818   2.070   1.368   7.083
 7929SOL    HW235819   1.987   1.503   7.042
 7930SOL     OW35820   1.353   0.060   6.889
 7930SOL    HW135821   1.415   0.080   6.813
 7930SOL    HW235822   1.316  -0.031   6.880
 7931SOL     OW35823   2.374   6.411   7.034
 7931SOL    HW135824   2.329   6.345   6.972
 7931SOL    HW235825   2.389   6.496   6.986
 7932SOL     OW35826   4.385   7.813   6.830
 7932SOL    HW135827   4.445   7.887   6.799
 7932SOL    HW235828   4.309   7.804   6.766
 7933SOL     OW35829   3.195   0.422   6.709
 7933SOL    HW135830   3.129   0.381   6.772
 7933SOL    HW235831   3.283   0.431   6.754
 7934SOL     OW35832   0.785   4.209   6.779
 7934SOL    HW135833   0.881   4.238   6.778
 7934SOL    HW235834   0.727   4.288   6.799
 7935SOL     OW35835   2.790   1.697   7.001
 7935SOL    HW135836   2.869   1.697   7.063
 7935SOL    HW235837   2.785   1.609   6.954
 7936SOL     OW35838   0.968   7.497   6.813
 7936SOL    HW135839   1.068   7.509   6.816
 7936SOL    HW235840   0.928   7.533   6.896
 7937SOL     OW35841   2.710   6.167   6.753
 7937SOL    HW135842   2.658   6.253   6.752
 7937SOL    HW235843   2.648   6.091   6.739
 7938SOL     OW35844   8.442   1.238   6.759
 7938SOL    HW135845   8.502   1.277   6.829
 7938SOL    HW235846   8.482   1.252   6.669
 7939SOL     OW35847   8.439   5.209   6.757
 7939SOL    HW135848   8.425   5.302   6.790
 7939SOL    HW235849   8.536   5.188   6.757
 7940SOL     OW35850   4.930   2.760   6.820
 7940SOL    HW135851   4.990   2.738   6.897
 7940SOL    HW235852   4.910   2.678   6.769
 7941SOL     OW35853   0.846   8.279   7.010
 7941SOL    HW135854   0.796   8.199   6.975
 7941SOL    HW235855   0.794   8.320   7.085
 7942SOL     OW35856   9.196   6.983   7.021
 7942SOL    HW135857   9.164   6.990   7.116
 7942SOL    HW235858   9.277   6.925   7.018
 7943SOL     OW35859   5.170   2.375   7.049
 7943SOL    HW135860   5.156   2.365   7.148
 7943SOL    HW235861   5.085   2.400   7.006
 7944SOL     OW35862   5.504   6.474   6.927
 7944SOL    HW135863   5.461   6.543   6.986
 7944SOL    HW235864   5.534   6.397   6.982
 7945SOL     OW35865   0.302   3.886   6.824
 7945SOL    HW135866   0.246   3.923   6.749
 7945SOL    HW235867   0.243   3.834   6.885
 7946SOL     OW35868   4.463   8.221   6.780
 7946SOL    HW135869   4.545   8.267   6.742
 7946SOL    HW235870   4.406   8.190   6.706
 7947SOL     OW35871   2.131   2.295   6.826
 7947SOL    HW135872   2.151   2.202   6.796
 7947SOL    HW235873   2.086   2.345   6.752
 7948SOL     OW35874   6.835   8.131   6.980
 7948SOL    HW135875   6.838   8.040   7.022
 7948SOL    HW235876   6.824   8.200   7.050
 7949SOL     OW35877   1.000   2.895   6.992
 7949SOL    HW135878   1.036   2.929   7.079
 7949SOL    HW235879   0.928   2.829   7.010
 7950SOL     OW35880   4.295   5.691   6.889
 7950SOL    HW135881   4.380   5.690   6.835
 7950SOL    HW235882   4.219   5.665   6.831
 7951SOL     OW35883   0.607   4.159   6.993
 7951SOL    HW135884   0.632   4.068   7.029
 7951SOL    HW235885   0.626   4.228   7.062
 7952SOL     OW35886   1.277   1.649   6.811
 7952SOL    HW135887   1.255   1.746   6.827
 7952SOL    HW235888   1.359   1.643   6.755
 7953SOL     OW35889   6.279   8.306   6.848
 7953SOL    HW135890   6.248   8.316   6.943
 7953SOL    HW235891   6.272   8.211   6.820
 7954SOL     OW35892   3.423   1.802   7.007
 7954SOL    HW135893   3.398   1.806   7.104
 7954SOL    HW235894   3.359   1.744   6.958
 7955SOL     OW35895   1.046   1.701   6.900
 7955SOL    HW135896   1.145   1.689   6.893
 7955SOL    HW235897   1.020   1.711   6.995
 7956SOL     OW35898   6.549   3.498   6.992
 7956SOL    HW135899   6.503   3.546   7.067
 7956SOL    HW235900   6.631   3.453   7.027
 7957SOL     OW35901   1.011   5.351   7.002
 7957SOL    HW135902   1.053   5.327   7.089
 7957SOL    HW235903   1.040   5.443   6.976
 7958SOL     OW35904   2.398   1.105   7.019
 7958SOL    HW135905   2.304   1.118   7.052
 7958SOL    HW235906   2.442   1.193   7.009
 7959SOL     OW35907   0.128   0.061   6.716
 7959SOL    HW135908   0.070   0.137   6.746
 7959SOL    HW235909   0.142  -0.002   6.792
 7960SOL     OW35910   1.552   4.866   6.939
 7960SOL    HW135911   1.640   4.846   6.895
 7960SOL    HW235912   1.522   4.787   6.992
 7961SOL     OW35913   0.869   2.673   6.919
 7961SOL    HW135914   0.793   2.676   6.854
 7961SOL    HW235915   0.952   2.701   6.874
 7962SOL     OW35916   7.906   7.582   6.953
 7962SOL    HW135917   7.856   7.528   7.021
 7962SOL    HW235918   7.963   7.649   6.999
 7963SOL     OW35919   4.739   7.856   7.041
 7963SOL    HW135920   4.705   7.863   7.135
 7963SOL    HW235921   4.779   7.766   7.026
 7964SOL     OW35922   3.223   3.559   6.904
 7964SOL    HW135923   3.276   3.608   6.974
 7964SOL    HW235924   3.129   3.549   6.935
 7965SOL     OW35925   2.750   0.621   7.004
 7965SOL    HW135926   2.679   0.680   7.044
 7965SOL    HW235927   2.839   0.653   7.034
 7966SOL     OW35928   2.509   7.020   7.007
 7966SOL    HW135929   2.593   7.018   7.062
 7966SOL    HW235930   2.454   7.098   7.034
 7967SOL     OW35931   0.429   7.961   6.805
 7967SOL    HW135932   0.398   8.048   6.764
 7967SOL    HW235933   0.476   7.908   6.736
 7968SOL     OW35934   1.692   7.334   6.893
 7968SOL    HW135935   1.714   7.260   6.829
 7968SOL    HW235936   1.612   7.309   6.947
 7969SOL     OW35937   8.064   8.404   7.017
 7969SOL    HW135938   8.082   8.381   6.921
 7969SOL    HW235939   7.970   8.379   7.039
 7970SOL     OW35940   9.307   0.463   6.840
 7970SOL    HW135941   9.354   0.408   6.909
 7970SOL    HW235942   9.374   0.510   6.783
 7971SOL     OW35943   3.865   7.367   6.872
 7971SOL    HW135944   3.843   7.396   6.966
 7971SOL    HW235945   3.803   7.294   6.845
 7972SOL     OW35946   0.049   0.982   6.759
 7972SOL    HW135947   0.073   0.884   6.756
 7972SOL    HW235948   0.090   1.023   6.839
 7973SOL     OW35949   5.578   5.947   6.762
 7973SOL    HW135950   5.601   5.910   6.671
 7973SOL    HW235951   5.652   5.925   6.825
 7974SOL     OW35952   8.228   2.977   6.852
 7974SOL    HW135953   8.141   3.016   6.884
 7974SOL    HW235954   8.270   2.924   6.925
 7975SOL     OW35955   3.290   5.831   6.960
 7975SOL    HW135956   3.221   5.837   6.887
 7975SOL    HW235957   3.322   5.737   6.969
 7976SOL     OW35958   4.574   7.451   7.005
 7976SOL    HW135959   4.614   7.439   7.096
 7976SOL    HW235960   4.501   7.384   6.992
 7977SOL     OW35961   4.518   1.653   7.003
 7977SOL    HW135962   4.539   1.587   6.930
 7977SOL    HW235963   4.458   1.610   7.069
 7978SOL     OW35964   6.374   6.423   6.881
 7978SOL    HW135965   6.378   6.499   6.814
 7978SOL    HW235966   6.459   6.371   6.875
 7979SOL     OW35967   0.848   2.264   6.845
 7979SOL    HW135968   0.911   2.192   6.877
 7979SOL    HW235969   0.755   2.238   6.866
 7980SOL     OW35970   7.157   2.908   6.850
 7980SOL    HW135971   7.092   2.855   6.905
 7980SOL    HW235972   7.244   2.859   6.847
 7981SOL     OW35973   2.867   7.572   6.934
 7981SOL    HW135974   2.961   7.554   6.903
 7981SOL    HW235975   2.869   7.640   7.006
 7982SOL     OW35976   1.765   6.771   6.867
 7982SOL    HW135977   1.845   6.758   6.927
 7982SOL    HW235978   1.795   6.813   6.782
 7983SOL     OW35979   6.797   4.539   6.951
 7983SOL    HW135980   6.864   4.523   6.878
 7983SOL    HW235981   6.713   4.490   6.931
 7984SOL     OW35982   8.517   7.515   6.972
 7984SOL    HW135983   8.432   7.530   7.023
 7984SOL    HW235984   8.594   7.544   7.027
 7985SOL     OW35985   0.210   7.512   6.912
 7985SOL    HW135986   0.169   7.449   6.978
 7985SOL    HW235987   0.285   7.561   6.954
 7986SOL     OW35988   7.893   2.258   6.941
 7986SOL    HW135989   7.902   2.186   7.010
 7986SOL    HW235990   7.921   2.345   6.980
 7987SOL     OW35991   5.822   6.643   7.050
 7987SOL    HW135992   5.859   6.578   7.117
 7987SOL    HW235993   5.765   6.594   6.985
 7988SOL     OW35994   9.412   0.798   6.892
 7988SOL    HW135995   9.325   0.757   6.920
 7988SOL    HW235996   9.479   0.786   6.964
 7989SOL     OW35997   5.884   6.352   7.007
 7989SOL    HW135998   5.919   6.262   7.034
 7989SOL    HW235999   5.952   6.421   7.028
 7990SOL     OW36000   3.147   7.606   7.052
 7990SOL    HW136001   3.062   7.552   7.043
 7990SOL    HW236002   3.189   7.617   6.963
 7991SOL     OW36003   4.387   0.803   6.938
 7991SOL    HW136004   4.354   0.779   7.030
 7991SOL    HW236005   4.485   0.787   6.934
 7992SOL     OW36006   9.445   4.393   6.786
 7992SOL    HW136007   9.514   4.427   6.851
 7992SOL    HW236008   9.358   4.386   6.832
 7993SOL     OW36009   2.449   1.444   6.893
 7993SOL    HW136010   2.452   1.356   6.845
 7993SOL    HW236011   2.494   1.514   6.838
 7994SOL     OW36012   8.697   0.302   7.016
 7994SOL    HW136013   8.712   0.333   7.110
 7994SOL    HW236014   8.599   0.305   6.996
 7995SOL     OW36015   9.073   7.689   6.950
 7995SOL    HW136016   9.065   7.786   6.976
 7995SOL    HW236017   8.983   7.646   6.954
 7996SOL     OW36018   7.892   2.645   6.999
 7996SOL    HW136019   7.969   2.688   6.952
 7996SOL    HW236020   7.862   2.704   7.073
 7997SOL     OW36021   9.031   2.808   6.941
 7997SOL    HW136022   9.064   2.757   6.861
 7997SOL    HW236023   9.023   2.904   6.917
 7998SOL     OW36024   6.105   7.834   6.861
 7998SOL    HW136025   6.077   7.739   6.879
 7998SOL    HW236026   6.130   7.878   6.946
 7999SOL     OW36027   0.272   1.083   6.887
 7999SOL    HW136028   0.220   1.162   6.920
 7999SOL    HW236029   0.231   0.999   6.922
 8000SOL     OW36030   6.917   5.164   6.859
 8000SOL    HW136031   6.842   5.190   6.797
 8000SOL    HW236032   7.001   5.155   6.807
 8001SOL     OW36033   6.337   1.322   7.050
 8001SOL    HW136034   6.263   1.388   7.036
 8001SOL    HW236035   6.384   1.341   7.135
 8002SOL     OW36036   4.073   8.253   7.009
 8002SOL    HW136037   4.133   8.205   6.944
 8002SOL    HW236038   4.052   8.193   7.085
 8003SOL     OW36039   6.278   7.362   6.833
 8003SOL    HW136040   6.238   7.319   6.915
 8003SOL    HW236041   6.353   7.305   6.799
 8004SOL     OW36042   1.153   2.684   6.803
 8004SOL    HW136043   1.089   2.646   6.871
 8004SOL    HW236044   1.242   2.697   6.846
 8005SOL     OW36045   2.833   2.608   7.028
 8005SOL    HW136046   2.854   2.553   7.110
 8005SOL    HW236047   2.847   2.704   7.048
 8006SOL     OW36048   3.274   7.406   7.066
 8006SOL    HW136049   3.278   7.373   6.971
 8006SOL    HW236050   3.182   7.393   7.101
 8007SOL     OW36051   7.372   2.512   6.743
 8007SOL    HW136052   7.317   2.583   6.789
 8007SOL    HW236053   7.467   2.521   6.772
 8008SOL     OW36054   6.332   6.817   7.034
 8008SOL    HW136055   6.422   6.773   7.030
 8008SOL    HW236056   6.272   6.775   6.967
 8009SOL     OW36057   4.320   3.893   6.918
 8009SOL    HW136058   4.420   3.894   6.922
 8009SOL    HW236059   4.284   3.915   7.008
 8010SOL     OW36060   7.563   3.231   6.828
 8010SOL    HW136061   7.529   3.177   6.750
 8010SOL    HW236062   7.517   3.320   6.829
 8011SOL     OW36063   0.585   5.754   6.968
 8011SOL    HW136064   0.510   5.750   7.035
 8011SOL    HW236065   0.670   5.726   7.011
 8012SOL     OW36066   5.874   1.665   6.778
 8012SOL    HW136067   5.819   1.748   6.786
 8012SOL    HW236068   5.948   1.668   6.845
 8013SOL     OW36069   3.665   0.369   7.043
 8013SOL    HW136070   3.719   0.317   6.976
 8013SOL    HW236071   3.710   0.455   7.062
 8014SOL     OW36072   6.917   2.389   6.853
 8014SOL    HW136073   6.996   2.338   6.817
 8014SOL    HW236074   6.838   2.329   6.858
 8015SOL     OW36075   8.306   3.214   6.811
 8015SOL    HW136076   8.393   3.237   6.855
 8015SOL    HW236077   8.230   3.252   6.863
 8016SOL     OW36078   8.133   6.444   6.933
 8016SOL    HW136079   8.219   6.417   6.889
 8016SOL    HW236080   8.058   6.394   6.893
 8017SOL     OW36081   4.692   6.671   6.917
 8017SOL    HW136082   4.665   6.751   6.862
 8017SOL    HW236083   4.638   6.669   7.001
 8018SOL     OW36084   8.953   2.322   6.769
 8018SOL    HW136085   8.963   2.235   6.819
 8018SOL    HW236086   8.960   2.398   6.833
 8019SOL     OW36087   9.350   1.168   6.844
 8019SOL    HW136088   9.277   1.200   6.905
 8019SOL    HW236089   9.429   1.142   6.898
 8020SOL     OW36090   7.374   8.375   6.941
 8020SOL    HW136091   7.348   8.282   6.970
 8020SOL    HW236092   7.322   8.441   6.994
 8021SOL     OW36093   0.516   2.401   6.722
 8021SOL    HW136094   0.570   2.317   6.707
 8021SOL    HW236095   0.514   2.421   6.820
 8022SOL     OW36096   6.390   1.973   6.926
 8022SOL    HW136097   6.326   1.920   6.870
 8022SOL    HW236098   6.456   1.911   6.968
 8023SOL     OW36099   0.041   4.016   6.954
 8023SOL    HW136100   0.066   3.929   6.998
 8023SOL    HW236101  -0.001   4.076   7.021
 8024SOL     OW36102   8.107   4.134   7.107
 8024SOL    HW136103   8.022   4.107   7.060
 8024SOL    HW236104   8.176   4.158   7.039
 8025SOL     OW36105   4.474   6.607   6.793
 8025SOL    HW136106   4.392   6.553   6.771
 8025SOL    HW236107   4.549   6.545   6.812
 8026SOL     OW36108   7.710   4.983   7.011
 8026SOL    HW136109   7.721   4.964   6.912
 8026SOL    HW236110   7.614   4.971   7.036
 8027SOL     OW36111   1.901   8.259   6.925
 8027SOL    HW136112   1.861   8.348   6.949
 8027SOL    HW236113   1.851   8.221   6.847
 8028SOL     OW36114   2.314   3.723   7.081
 8028SOL    HW136115   2.362   3.763   7.003
 8028SOL    HW236116   2.240   3.666   7.048
 8029SOL     OW36117   5.922   2.661   6.946
 8029SOL    HW136118   5.895   2.574   6.987
 8029SOL    HW236119   5.981   2.711   7.008
 8030SOL     OW36120   9.291   3.862   6.732
 8030SOL    HW136121   9.351   3.872   6.812
 8030SOL    HW236122   9.203   3.905   6.752
 8031SOL     OW36123   7.800   6.790   6.879
 8031SOL    HW136124   7.722   6.820   6.935
 8031SOL    HW236125   7.795   6.835   6.790
 8032SOL     OW36126   4.246   0.637   6.920
 8032SOL    HW136127   4.265   0.671   6.828
 8032SOL    HW236128   4.298   0.554   6.936
 8033SOL     OW36129   0.747   5.874   6.731
 8033SOL    HW136130   0.758   5.799   6.797
 8033SOL    HW236131   0.668   5.929   6.757
 8034SOL     OW36132   4.623   2.635   6.850
 8034SOL    HW136133   4.712   2.674   6.872
 8034SOL    HW236134   4.589   2.674   6.765
 8035SOL     OW36135   3.605   7.131   6.834
 8035SOL    HW136136   3.665   7.192   6.781
 8035SOL    HW236137   3.616   7.151   6.931
 8036SOL     OW36138   2.376   0.918   6.811
 8036SOL    HW136139   2.334   0.843   6.758
 8036SOL    HW236140   2.316   0.998   6.807
 8037SOL     OW36141   3.138   0.062   6.874
 8037SOL    HW136142   3.143  -0.038   6.864
 8037SOL    HW236143   3.080   0.084   6.951
 8038SOL     OW36144   4.359   8.468   6.737
 8038SOL    HW136145   4.361   8.443   6.835
 8038SOL    HW236146   4.328   8.389   6.684
 8039SOL     OW36147   0.753   0.929   6.829
 8039SOL    HW136148   0.732   0.982   6.747
 8039SOL    HW236149   0.715   0.837   6.820
 8040SOL     OW36150   1.246   4.197   6.834
 8040SOL    HW136151   1.205   4.289   6.826
 8040SOL    HW236152   1.331   4.204   6.885
 8041SOL     OW36153   7.279   2.985   6.999
 8041SOL    HW136154   7.297   3.076   7.037
 8041SOL    HW236155   7.332   2.972   6.917
 8042SOL     OW36156   1.064   0.811   6.882
 8042SOL    HW136157   1.091   0.798   6.978
 8042SOL    HW236158   1.087   0.730   6.830
 8043SOL     OW36159   1.386   0.731   7.040
 8043SOL    HW136160   1.444   0.812   7.054
 8043SOL    HW236161   1.335   0.741   6.955
 8044SOL     OW36162   6.846   1.409   6.830
 8044SOL    HW136163   6.784   1.459   6.891
 8044SOL    HW236164   6.818   1.423   6.735
 8045SOL     OW36165   1.642   2.075   6.867
 8045SOL    HW136166   1.724   2.035   6.906
 8045SOL    HW236167   1.563   2.019   6.889
 8046SOL     OW36168   1.632   7.892   6.897
 8046SOL    HW136169   1.608   7.800   6.932
 8046SOL    HW236170   1.691   7.937   6.963
 8047SOL     OW36171   8.615   5.583   6.950
 8047SOL    HW136172   8.568   5.497   6.927
 8047SOL    HW236173   8.615   5.642   6.870
 8048SOL     OW36174   8.647   6.357   6.905
 8048SOL    HW136175   8.603   6.352   6.814
 8048SOL    HW236176   8.742   6.382   6.894
 8049SOL     OW36177   5.645   4.536   6.941
 8049SOL    HW136178   5.664   4.624   6.897
 8049SOL    HW236179   5.547   4.519   6.940
 8050SOL     OW36180   1.393   1.827   6.957
 8050SOL    HW136181   1.405   1.748   7.019
 8050SOL    HW236182   1.421   1.910   7.004
 8051SOL     OW36183   2.168   5.282   6.839
 8051SOL    HW136184   2.154   5.234   6.926
 8051SOL    HW236185   2.199   5.375   6.857
 8052SOL     OW36186   8.721   7.044   6.736
 8052SOL    HW136187   8.691   7.099   6.815
 8052SOL    HW236188   8.658   6.968   6.723
 8053SOL     OW36189   9.143   0.616   7.015
 8053SOL    HW136190   9.209   0.660   6.954
 8053SOL    HW236191   9.083   0.556   6.963
 8054SOL     OW36192   7.544   8.347   7.032
 8054SOL    HW136193   7.457   8.316   7.071
 8054SOL    HW236194   7.541   8.446   7.019
 8055SOL     OW36195   1.509   2.138   7.041
 8055SOL    HW136196   1.486   2.079   7.119
 8055SOL    HW236197   1.600   2.175   7.054
 8056SOL     OW36198   4.889   2.453   6.945
 8056SOL    HW136199   4.959   2.422   6.879
 8056SOL    HW236200   4.933   2.508   7.015
 8057SOL     OW36201   6.965   0.901   6.708
 8057SOL    HW136202   7.039   0.895   6.776
 8057SOL    HW236203   6.888   0.951   6.747
 8058SOL     OW36204   6.445   4.721   6.879
 8058SOL    HW136205   6.411   4.627   6.879
 8058SOL    HW236206   6.394   4.774   6.812
 8059SOL     OW36207   8.064   2.050   6.766
 8059SOL    HW136208   8.056   1.952   6.783
 8059SOL    HW236209   8.108   2.094   6.844
 8060SOL     OW36210   5.540   7.338   7.028
 8060SOL    HW136211   5.477   7.356   6.951
 8060SOL    HW236212   5.634   7.347   6.996
 8061SOL     OW36213   1.126   6.081   6.973
 8061SOL    HW136214   1.122   5.998   6.917
 8061SOL    HW236215   1.086   6.063   7.063
 8062SOL     OW36216   4.927   7.619   6.989
 8062SOL    HW136217   4.937   7.687   6.915
 8062SOL    HW236218   4.900   7.532   6.949
 8063SOL     OW36219   6.813   4.121   6.990
 8063SOL    HW136220   6.879   4.118   6.915
 8063SOL    HW236221   6.722   4.139   6.954
 8064SOL     OW36222   4.356   1.037   6.791
 8064SOL    HW136223   4.341   1.090   6.707
 8064SOL    HW236224   4.281   1.055   6.854
 8065SOL     OW36225   7.969   5.502   6.873
 8065SOL    HW136226   7.894   5.561   6.901
 8065SOL    HW236227   7.978   5.426   6.937
 8066SOL     OW36228   8.109   7.989   6.912
 8066SOL    HW136229   8.110   8.049   6.993
 8066SOL    HW236230   8.075   7.900   6.939
 8067SOL     OW36231   4.009   3.841   7.067
 8067SOL    HW136232   4.019   3.844   6.967
 8067SOL    HW236233   3.972   3.928   7.099
 8068SOL     OW36234   4.803   0.503   6.845
 8068SOL    HW136235   4.870   0.516   6.772
 8068SOL    HW236236   4.742   0.428   6.821
 8069SOL     OW36237   4.865   0.106   6.871
 8069SOL    HW136238   4.919   0.076   6.792
 8069SOL    HW236239   4.771   0.121   6.842
 8070SOL     OW36240   7.832   4.010   6.943
 8070SOL    HW136241   7.820   3.933   6.879
 8070SOL    HW236242   7.877   3.978   7.026
 8071SOL     OW36243   6.992   5.655   7.035
 8071SOL    HW136244   6.937   5.591   6.981
 8071SOL    HW236245   7.020   5.731   6.978
 8072SOL     OW36246   8.087   1.299   7.004
 8072SOL    HW136247   8.046   1.208   7.018
 8072SOL    HW236248   8.129   1.330   7.089
 8073SOL     OW36249   7.007   7.284   6.853
 8073SOL    HW136250   6.985   7.374   6.891
 8073SOL    HW236251   7.088   7.248   6.897
 8074SOL     OW36252   1.551   3.458   6.797
 8074SOL    HW136253   1.566   3.509   6.882
 8074SOL    HW236254   1.491   3.381   6.815
 8075SOL     OW36255   5.434   8.387   6.966
 8075SOL    HW136256   5.534   8.378   6.973
 8075SOL    HW236257   5.412   8.458   6.900
 8076SOL     OW36258   4.137   7.330   6.765
 8076SOL    HW136259   4.051   7.278   6.763
 8076SOL    HW236260   4.122   7.419   6.724
 8077SOL     OW36261   2.910   5.195   7.096
 8077SOL    HW136262   3.002   5.170   7.127
 8077SOL    HW236263   2.913   5.219   7.000
 8078SOL     OW36264   8.966   1.258   7.072
 8078SOL    HW136265   8.922   1.343   7.044
 8078SOL    HW236266   9.035   1.233   7.005
 8079SOL     OW36267   2.963   3.186   6.822
 8079SOL    HW136268   2.946   3.119   6.895
 8079SOL    HW236269   2.879   3.237   6.805
 8080SOL     OW36270   2.898   4.505   6.932
 8080SOL    HW136271   2.926   4.484   7.027
 8080SOL    HW236272   2.827   4.574   6.933
 8081SOL     OW36273   9.005   0.453   6.862
 8081SOL    HW136274   8.963   0.500   6.784
 8081SOL    HW236275   8.936   0.397   6.908
 8082SOL     OW36276   2.481   2.330   6.782
 8082SOL    HW136277   2.529   2.384   6.712
 8082SOL    HW236278   2.453   2.243   6.743
 8083SOL     OW36279   4.081   6.414   7.104
 8083SOL    HW136280   4.011   6.467   7.053
 8083SOL    HW236281   4.160   6.399   7.045
 8084SOL     OW36282   7.859   0.578   6.946
 8084SOL    HW136283   7.915   0.568   6.863
 8084SOL    HW236284   7.764   0.588   6.921
 8085SOL     OW36285   0.588   4.716   6.931
 8085SOL    HW136286   0.610   4.619   6.942
 8085SOL    HW236287   0.490   4.729   6.940
 8086SOL     OW36288   2.586   7.989   6.770
 8086SOL    HW136289   2.683   7.972   6.791
 8086SOL    HW236290   2.535   7.904   6.777
 8087SOL     OW36291   8.578   1.002   6.922
 8087SOL    HW136292   8.555   0.920   6.868
 8087SOL    HW236293   8.577   1.082   6.863
 8088SOL     OW36294   2.840   3.862   7.043
 8088SOL    HW136295   2.919   3.889   6.986
 8088SOL    HW236296   2.838   3.917   7.125
 8089SOL     OW36297   6.438   8.324   7.008
 8089SOL    HW136298   6.448   8.415   6.966
 8089SOL    HW236299   6.469   8.327   7.102
 8090SOL     OW36300   4.236   6.794   6.756
 8090SOL    HW136301   4.236   6.694   6.767
 8090SOL    HW236302   4.317   6.832   6.799
 8091SOL     OW36303   0.301   4.894   6.862
 8091SOL    HW136304   0.306   4.821   6.930
 8091SOL    HW236305   0.334   4.978   6.901
 8092SOL     OW36306   0.732   2.473   6.787
 8092SOL    HW136307   0.754   2.409   6.861
 8092SOL    HW236308   0.686   2.425   6.714
 8093SOL     OW36309   5.822   1.252   6.772
 8093SOL    HW136310   5.882   1.307   6.714
 8093SOL    HW236311   5.794   1.171   6.723
 8094SOL     OW36312   4.085   2.432   6.800
 8094SOL    HW136313   4.021   2.490   6.748
 8094SOL    HW236314   4.176   2.440   6.761
 8095SOL     OW36315   5.003   2.923   6.900
 8095SOL    HW136316   5.054   3.006   6.922
 8095SOL    HW236317   4.929   2.912   6.965
 8096SOL     OW36318   5.042   1.916   6.877
 8096SOL    HW136319   4.994   2.003   6.864
 8096SOL    HW236320   5.111   1.906   6.805
 8097SOL     OW36321   8.811   5.867   6.906
 8097SOL    HW136322   8.795   5.785   6.849
 8097SOL    HW236323   8.903   5.900   6.890
 8098SOL     OW36324   7.531   4.824   6.924
 8098SOL    HW136325   7.594   4.748   6.943
 8098SOL    HW236326   7.492   4.857   7.009
 8099SOL     OW36327   8.098   7.286   6.900
 8099SOL    HW136328   8.182   7.295   6.954
 8099SOL    HW236329   8.027   7.342   6.940
 8100SOL     OW36330   6.140   6.698   6.721
 8100SOL    HW136331   6.043   6.709   6.697
 8100SOL    HW236332   6.165   6.764   6.791
 8101SOL     OW36333   4.212   5.451   6.972
 8101SOL    HW136334   4.294   5.420   7.020
 8101SOL    HW236335   4.201   5.398   6.888
 8102SOL     OW36336   1.407   4.346   6.876
 8102SOL    HW136337   1.443   4.308   6.790
 8102SOL    HW236338   1.350   4.424   6.856
 8103SOL     OW36339   9.337   0.143   7.028
 8103SOL    HW136340   9.298   0.199   6.954
 8103SOL    HW236341   9.428   0.112   7.001
 8104SOL     OW36342   3.345   7.960   6.838
 8104SOL    HW136343   3.265   7.902   6.825
 8104SOL    HW236344   3.375   7.954   6.933
 8105SOL     OW36345   2.045   1.837   6.996
 8105SOL    HW136346   1.969   1.892   6.961
 8105SOL    HW236347   2.046   1.841   7.095
 8106SOL     OW36348   0.141   0.724   6.756
 8106SOL    HW136349   0.090   0.708   6.841
 8106SOL    HW236350   0.231   0.760   6.778
 8107SOL     OW36351   0.814   7.706   6.925
 8107SOL    HW136352   0.808   7.690   7.023
 8107SOL    HW236353   0.794   7.802   6.906
 8108SOL     OW36354   1.001   2.458   6.826
 8108SOL    HW136355   1.087   2.507   6.844
 8108SOL    HW236356   0.968   2.479   6.735
 8109SOL     OW36357   7.642   7.860   6.840
 8109SOL    HW136358   7.631   7.795   6.765
 8109SOL    HW236359   7.575   7.933   6.831
 8110SOL     OW36360   5.305   7.940   6.972
 8110SOL    HW136361   5.321   8.028   7.017
 8110SOL    HW236362   5.301   7.953   6.873
 8111SOL     OW36363   2.063   7.659   6.902
 8111SOL    HW136364   2.076   7.737   6.839
 8111SOL    HW236365   1.968   7.630   6.898
 8112X2IT   H1836366   0.413   5.647   6.920
 8112X2IT    N436367   0.449   5.592   6.844
 8112X2IT   H1736368   0.548   5.598   6.825
 8112X2IT   C1436369   0.383   5.476   6.817
 8112X2IT    O536370   0.272   5.447   6.858
 8112X2IT    O436371   0.458   5.398   6.734
 8112X2IT   C1336372   0.398   5.273   6.691
 8112X2IT   C1036373   0.304   5.295   6.571
 8112X2IT    C936374   0.244   5.166   6.519
 8112X2IT    C436375   0.277   5.148   6.386
 8112X2IT    C536376   0.234   5.030   6.304
 8112X2IT    O136377   0.264   5.025   6.184
 8112X2IT    C636378   0.157   4.929   6.372
 8112X2IT   C1236379   0.111   4.807   6.296
 8112X2IT    C736380   0.124   4.947   6.505
 8112X2IT    C836381   0.167   5.068   6.588
 8112X2IT    O236382   0.135   5.072   6.708
 8112X2IT    N336383   0.051   4.859   6.577
 8112X2IT   H1536384   0.016   4.773   6.539
 8112X2IT   H1636385   0.034   4.882   6.675
 8112X2IT    N236386   0.345   5.254   6.336
 8112X2IT    C336387   0.449   5.254   6.232
 8112X2IT    C236388   0.569   5.313   6.307
 8112X2IT    H236389   0.651   5.356   6.250
 8112X2IT    N136390   0.596   5.243   6.434
 8112X2IT   H1436391   0.692   5.260   6.463
 8112X2IT    C136392   0.523   5.371   6.435
 8112X2IT    H136393   0.567   5.460   6.479
 8112X2IT   C1136394   0.372   5.355   6.443
 8112X2IT    O336395   0.322   5.483   6.409
 8112X2IT   C1536396   0.184   5.491   6.369
 8113X2IT   H1836397   9.321   0.844   0.431
 8113X2IT    N436398   9.235   0.797   0.405
 8113X2IT   H1736399   9.225   0.700   0.432
 8113X2IT   C1436400   9.124   0.876   0.396
 8113X2IT    O536401   9.124   0.997   0.390
 8113X2IT    O436402   9.012   0.797   0.391
 8113X2IT   C1336403   8.887   0.867   0.375
 8113X2IT   C1036404   8.859   0.900   0.227
 8113X2IT    C936405   8.725   0.966   0.205
 8113X2IT    C436406   8.649   0.891   0.117
 8113X2IT    C536407   8.510   0.929   0.074
 8113X2IT    O136408   8.450   0.858  -0.008
 8113X2IT    C636409   8.455   1.049   0.133
 8113X2IT   C1236410   8.315   1.092   0.094
 8113X2IT    C736411   8.531   1.124   0.220
 8113X2IT    C836412   8.673   1.085   0.262
 8113X2IT    O236413   8.732   1.158   0.344
 8113X2IT    N336414   8.490   1.238   0.277
 8113X2IT   H1536415   8.398   1.277   0.262
 8113X2IT   H1636416   8.554   1.284   0.341
 8113X2IT    N236417   8.717   0.785   0.068
 8113X2IT    C336418   8.663   0.653   0.031
 8113X2IT    C236419   8.740   0.559   0.123
 8113X2IT    H236420   8.749   0.454   0.099
 8113X2IT    N136421   8.732   0.601   0.265
 8113X2IT   H1436422   8.753   0.522   0.326
 8113X2IT    C136423   8.853   0.634   0.186
 8113X2IT    H136424   8.948   0.588   0.210
 8113X2IT   C1136425   8.852   0.775   0.130
 8113X2IT    O336426   8.955   0.775   0.033
 8113X2IT   C1536427   8.954   0.880  -0.063
 8114X2IT   H1836428   7.967   4.020   6.504
 8114X2IT    N436429   8.039   3.983   6.563
 8114X2IT   H1736430   8.011   3.917   6.634
 8114X2IT   C1436431   8.163   3.970   6.506
 8114X2IT    O536432   8.199   4.024   6.403
 8114X2IT    O436433   8.242   3.891   6.584
 8114X2IT   C1336434   8.378   3.874   6.540
 8114X2IT   C1036435   8.467   3.991   6.585
 8114X2IT    C936436   8.612   3.974   6.546
 8114X2IT    C436437   8.692   3.977   6.659
 8114X2IT    C536438   8.842   3.962   6.656
 8114X2IT    O136439   8.906   3.970   6.762
 8114X2IT    C636440   8.902   3.939   6.527
 8114X2IT   C1236441   9.052   3.923   6.517
 8114X2IT    C736442   8.822   3.937   6.414
 8114X2IT    C836443   8.670   3.953   6.418
 8114X2IT    O236444   8.607   3.945   6.311
 8114X2IT    N336445   8.869   3.919   6.290
 8114X2IT   H1536446   8.966   3.904   6.269
 8114X2IT   H1636447   8.800   3.917   6.214
 8114X2IT    N236448   8.621   4.004   6.772
 8114X2IT    C336449   8.646   3.954   6.908
 8114X2IT    C236450   8.517   3.879   6.939
 8114X2IT    H236451   8.490   3.859   7.043
 8114X2IT    N136452   8.483   3.781   6.834
 8114X2IT   H1436453   8.420   3.710   6.873
 8114X2IT    C136454   8.415   3.912   6.836
 8114X2IT    H136455   8.309   3.919   6.858
 8114X2IT   C1136456   8.476   4.013   6.741
 8114X2IT    O336457   8.421   4.137   6.782
 8114X2IT   C1536458   8.487   4.256   6.737
 8115X2IT   H1836459   4.895   6.808   0.700
 8115X2IT    N436460   4.899   6.712   0.729
 8115X2IT   H1736461   4.987   6.678   0.763
 8115X2IT   C1436462   4.783   6.658   0.778
 8115X2IT    O536463   4.672   6.706   0.765
 8115X2IT    O436464   4.810   6.540   0.840
 8115X2IT   C1336465   4.696   6.467   0.891
 8115X2IT   C1036466   4.628   6.384   0.782
 8115X2IT    C936467   4.512   6.301   0.833
 8115X2IT    C436468   4.534   6.167   0.807
 8115X2IT    C536469   4.439   6.058   0.846
 8115X2IT    O136470   4.465   5.940   0.815
 8115X2IT    C636471   4.320   6.098   0.917
 8115X2IT   C1236472   4.220   5.993   0.959
 8115X2IT    C736473   4.298   6.232   0.941
 8115X2IT    C836474   4.395   6.343   0.901
 8115X2IT    O236475   4.367   6.460   0.932
 8115X2IT    N336476   4.189   6.279   1.005
 8115X2IT   H1536477   4.116   6.220   1.040
 8115X2IT   H1636478   4.184   6.381   1.019
 8115X2IT    N236479   4.648   6.147   0.736
 8115X2IT    C336480   4.740   6.032   0.743
 8115X2IT    C236481   4.871   6.098   0.784
 8115X2IT    H236482   4.965   6.046   0.766
 8115X2IT    N136483   4.856   6.184   0.903
 8115X2IT   H1436484   4.947   6.197   0.947
 8115X2IT    C136485   4.859   6.245   0.769
 8115X2IT    H136486   4.941   6.309   0.739
 8115X2IT   C1136487   4.720   6.275   0.714
 8115X2IT    O336488   4.743   6.300   0.576
 8115X2IT   C1536489   4.629   6.293   0.489
 8116X2IT   H1836490   2.636   2.505   1.161
 8116X2IT    N436491   2.599   2.417   1.131
 8116X2IT   H1736492   2.502   2.397   1.154
 8116X2IT   C1436493   2.652   2.365   1.016
 8116X2IT    O536494   2.756   2.401   0.964
 8116X2IT    O436495   2.573   2.263   0.970
 8116X2IT   C1336496   2.620   2.194   0.853
 8116X2IT   C1036497   2.723   2.085   0.889
 8116X2IT    C936498   2.770   2.006   0.769
 8116X2IT    C436499   2.743   1.872   0.788
 8116X2IT    C536500   2.777   1.765   0.687
 8116X2IT    O136501   2.753   1.646   0.714
 8116X2IT    C636502   2.836   1.809   0.564
 8116X2IT   C1236503   2.872   1.707   0.458
 8116X2IT    C736504   2.863   1.944   0.545
 8116X2IT    C836505   2.829   2.051   0.649
 8116X2IT    O236506   2.854   2.169   0.620
 8116X2IT    N336507   2.920   1.994   0.435
 8116X2IT   H1536508   2.946   1.938   0.356
 8116X2IT   H1636509   2.934   2.095   0.431
 8116X2IT    N236510   2.692   1.846   0.911
 8116X2IT    C336511   2.595   1.742   0.948
 8116X2IT    C236512   2.479   1.825   1.004
 8116X2IT    H236513   2.406   1.778   1.069
 8116X2IT    N136514   2.436   1.931   0.910
 8116X2IT   H1436515   2.340   1.960   0.933
 8116X2IT    C136516   2.524   1.965   1.024
 8116X2IT    H136517   2.488   2.027   1.104
 8116X2IT   C1136518   2.671   1.973   0.986
 8116X2IT    O336519   2.738   1.972   1.111
 8116X2IT   C1536520   2.878   1.940   1.109
 8117X2IT   H1836521   7.368   4.537  -0.452
 8117X2IT    N436522   7.341   4.478  -0.375
 8117X2IT   H1736523   7.343   4.378  -0.390
 8117X2IT   C1436524   7.366   4.526  -0.249
 8117X2IT    O536525   7.393   4.642  -0.223
 8117X2IT    O436526   7.354   4.426  -0.158
 8117X2IT   C1336527   7.371   4.464  -0.019
 8117X2IT   C1036528   7.242   4.522   0.040
 8117X2IT    C936529   7.254   4.556   0.187
 8117X2IT    C436530   7.159   4.487   0.260
 8117X2IT    C536531   7.144   4.498   0.409
 8117X2IT    O136532   7.054   4.435   0.466
 8117X2IT    C636533   7.238   4.584   0.477
 8117X2IT   C1236534   7.229   4.599   0.627
 8117X2IT    C736535   7.332   4.654   0.403
 8117X2IT    C836536   7.345   4.643   0.251
 8117X2IT    O236537   7.436   4.707   0.196
 8117X2IT    N336538   7.422   4.737   0.458
 8117X2IT   H1536539   7.428   4.755   0.556
 8117X2IT   H1636540   7.488   4.783   0.394
 8117X2IT    N236541   7.076   4.415   0.181
 8117X2IT    C336542   7.012   4.286   0.211
 8117X2IT    C236543   7.067   4.196   0.101
 8117X2IT    H236544   7.015   4.104   0.075
 8117X2IT    N136545   7.215   4.201   0.093
 8117X2IT   H1436546   7.249   4.117   0.045
 8117X2IT    C136547   7.134   4.279  -0.002
 8117X2IT    H136548   7.133   4.255  -0.108
 8117X2IT   C1136549   7.117   4.425   0.038
 8117X2IT    O336550   7.012   4.472  -0.045
 8117X2IT   C1536551   6.947   4.593  -0.005
 8118X2IT   H1836552   8.636  -0.091   7.049
 8118X2IT    N436553   8.570  -0.023   7.018
 8118X2IT   H1736554   8.504  -0.051   6.947
 8118X2IT   C1436555   8.532   0.072   7.110
 8118X2IT    O536556   8.591   0.096   7.214
 8118X2IT    O436557   8.422   0.138   7.066
 8118X2IT   C1336558   8.374   0.246   7.150
 8118X2IT   C1036559   8.452   0.376   7.123
 8118X2IT    C936560   8.401   0.493   7.204
 8118X2IT    C436561   8.362   0.596   7.120
 8118X2IT    C536562   8.305   0.726   7.169
 8118X2IT    O136563   8.276   0.814   7.086
 8118X2IT    C636564   8.289   0.741   7.311
 8118X2IT   C1236565   8.232   0.870   7.367
 8118X2IT    C736566   8.329   0.638   7.395
 8118X2IT    C836567   8.387   0.506   7.345
 8118X2IT    O236568   8.415   0.419   7.429
 8118X2IT    N336569   8.319   0.643   7.529
 8118X2IT   H1536570   8.282   0.722   7.578
 8118X2IT   H1636571   8.351   0.561   7.581
 8118X2IT    N236572   8.388   0.568   6.990
 8118X2IT    C336573   8.311   0.610   6.872
 8118X2IT    C236574   8.271   0.476   6.810
 8118X2IT    H236575   8.242   0.471   6.705
 8118X2IT    N136576   8.206   0.386   6.908
 8118X2IT   H1436577   8.151   0.316   6.859
 8118X2IT    C136578   8.349   0.367   6.875
 8118X2IT    H136579   8.382   0.279   6.822
 8118X2IT   C1136580   8.443   0.431   6.976
 8118X2IT    O336581   8.569   0.431   6.910
 8118X2IT   C1536582   8.670   0.518   6.962
 8119X2IT   H1836583   5.299   0.774   7.124
 8119X2IT    N436584   5.345   0.694   7.085
 8119X2IT   H1736585   5.334   0.606   7.133
 8119X2IT   C1436586   5.364   0.694   6.950
 8119X2IT    O536587   5.354   0.792   6.878
 8119X2IT    O436588   5.399   0.570   6.907
 8119X2IT   C1336589   5.428   0.556   6.767
 8119X2IT   C1036590   5.573   0.599   6.735
 8119X2IT    C936591   5.610   0.580   6.589
 8119X2IT    C436592   5.719   0.496   6.578
 8119X2IT    C536593   5.781   0.455   6.447
 8119X2IT    O136594   5.881   0.382   6.447
 8119X2IT    C636595   5.718   0.507   6.328
 8119X2IT   C1236596   5.775   0.469   6.193
 8119X2IT    C736597   5.609   0.591   6.339
 8119X2IT    C836598   5.548   0.632   6.473
 8119X2IT    O236599   5.448   0.706   6.471
 8119X2IT    N336600   5.546   0.646   6.234
 8119X2IT   H1536601   5.572   0.628   6.139
 8119X2IT   H1636602   5.465   0.706   6.254
 8119X2IT    N236603   5.769   0.460   6.700
 8119X2IT    C336604   5.832   0.333   6.738
 8119X2IT    C236605   5.740   0.283   6.849
 8119X2IT    H236606   5.777   0.209   6.920
 8119X2IT    N136607   5.598   0.281   6.807
 8119X2IT   H1436608   5.546   0.217   6.868
 8119X2IT    C136609   5.649   0.393   6.890
 8119X2IT    H136610   5.615   0.406   6.992
 8119X2IT   C1136611   5.685   0.516   6.809
 8119X2IT    O336612   5.761   0.595   6.899
 8119X2IT   C1536613   5.842   0.699   6.842
 8120X2IT   H1836614   6.094   7.606   1.003
 8120X2IT    N436615   6.077   7.665   1.083
 8120X2IT   H1736616   5.982   7.675   1.114
 8120X2IT   C1436617   6.178   7.675   1.174
 8120X2IT    O536618   6.294   7.641   1.155
 8120X2IT    O436619   6.132   7.732   1.289
 8120X2IT   C1336620   6.229   7.754   1.393
 8120X2IT   C1036621   6.307   7.885   1.370
 8120X2IT    C936622   6.405   7.916   1.481
 8120X2IT    C436623   6.377   8.039   1.537
 8120X2IT    C536624   6.455   8.099   1.651
 8120X2IT    O136625   6.424   8.212   1.693
 8120X2IT    C636626   6.564   8.020   1.703
 8120X2IT   C1236627   6.646   8.075   1.818
 8120X2IT    C736628   6.593   7.898   1.646
 8120X2IT    C836629   6.513   7.838   1.530
 8120X2IT    O236630   6.545   7.725   1.489
 8120X2IT    N336631   6.693   7.818   1.686
 8120X2IT   H1536632   6.754   7.841   1.763
 8120X2IT   H1636633   6.704   7.729   1.638
 8120X2IT    N236634   6.275   8.102   1.474
 8120X2IT    C336635   6.174   8.192   1.532
 8120X2IT    C236636   6.044   8.119   1.500
 8120X2IT    H236637   5.950   8.174   1.499
 8120X2IT    N136638   6.046   7.978   1.544
 8120X2IT   H1436639   5.950   7.943   1.553
 8120X2IT    C136640   6.071   8.010   1.402
 8120X2IT    H136641   6.000   7.981   1.325
 8120X2IT   C1136642   6.218   8.016   1.366
 8120X2IT    O336643   6.221   8.080   1.240
 8120X2IT   C1536644   6.346   8.134   1.197
 8121X2IT   H1836645   8.132   5.245   7.103
 8121X2IT    N436646   8.058   5.271   7.040
 8121X2IT   H1736647   8.075   5.257   6.941
 8121X2IT   C1436648   7.930   5.260   7.088
 8121X2IT    O536649   7.900   5.249   7.205
 8121X2IT    O436650   7.841   5.267   6.985
 8121X2IT   C1336651   7.702   5.263   7.021
 8121X2IT   C1036652   7.651   5.402   7.063
 8121X2IT    C936653   7.503   5.404   7.095
 8121X2IT    C436654   7.437   5.495   7.014
 8121X2IT    C536655   7.290   5.521   7.020
 8121X2IT    O136656   7.240   5.607   6.946
 8121X2IT    C636657   7.214   5.442   7.114
 8121X2IT   C1236658   7.064   5.463   7.125
 8121X2IT    C736659   7.280   5.352   7.196
 8121X2IT    C836660   7.430   5.327   7.190
 8121X2IT    O236661   7.478   5.240   7.265
 8121X2IT    N336662   7.218   5.276   7.287
 8121X2IT   H1536663   7.119   5.278   7.303
 8121X2IT   H1636664   7.276   5.211   7.341
 8121X2IT    N236665   7.523   5.564   6.935
 8121X2IT    C336666   7.500   5.615   6.799
 8121X2IT    C236667   7.607   5.543   6.718
 8121X2IT    H236668   7.638   5.583   6.622
 8121X2IT    N136669   7.605   5.396   6.740
 8121X2IT   H1436670   7.651   5.350   6.662
 8121X2IT    C136671   7.704   5.479   6.811
 8121X2IT    H136672   7.810   5.470   6.789
 8121X2IT   C1136673   7.663   5.514   6.953
 8121X2IT    O336674   7.751   5.618   6.990
 8121X2IT   C1536675   7.714   5.699   7.102
 8122X2IT   H1836676   6.043   5.117   6.134
 8122X2IT    N436677   6.019   5.212   6.156
 8122X2IT   H1736678   6.081   5.284   6.123
 8122X2IT   C1436679   5.886   5.239   6.171
 8122X2IT    O536680   5.798   5.156   6.185
 8122X2IT    O436681   5.866   5.374   6.170
 8122X2IT   C1336682   5.730   5.418   6.191
 8122X2IT   C1036683   5.694   5.423   6.340
 8122X2IT    C936684   5.555   5.476   6.367
 8122X2IT    C436685   5.561   5.587   6.449
 8122X2IT    C536686   5.440   5.664   6.494
 8122X2IT    O136687   5.454   5.760   6.570
 8122X2IT    C636688   5.312   5.618   6.444
 8122X2IT   C1236689   5.186   5.692   6.485
 8122X2IT    C736690   5.307   5.507   6.363
 8122X2IT    C836691   5.430   5.428   6.318
 8122X2IT    O236692   5.414   5.332   6.242
 8122X2IT    N336693   5.193   5.456   6.314
 8122X2IT   H1536694   5.102   5.496   6.331
 8122X2IT   H1636695   5.200   5.374   6.253
 8122X2IT    N236696   5.687   5.613   6.490
 8122X2IT    C336697   5.748   5.745   6.518
 8122X2IT    C236698   5.863   5.748   6.419
 8122X2IT    H236699   5.947   5.816   6.436
 8122X2IT    N136700   5.820   5.718   6.281
 8122X2IT   H1436701   5.890   5.755   6.215
 8122X2IT    C136702   5.884   5.613   6.362
 8122X2IT    H136703   5.981   5.574   6.336
 8122X2IT   C1136704   5.784   5.519   6.428
 8122X2IT    O336705   5.860   5.450   6.525
 8122X2IT   C1536706   5.788   5.382   6.629
 8123X2IT   H1836707   4.762   7.172   6.962
 8123X2IT    N436708   4.682   7.171   6.902
 8123X2IT   H1736709   4.596   7.210   6.939
 8123X2IT   C1436710   4.706   7.180   6.768
 8123X2IT    O536711   4.814   7.161   6.714
 8123X2IT    O436712   4.590   7.209   6.702
 8123X2IT   C1336713   4.598   7.215   6.558
 8123X2IT   C1036714   4.588   7.074   6.495
 8123X2IT    C936715   4.590   7.077   6.344
 8123X2IT    C436716   4.476   7.017   6.294
 8123X2IT    C536717   4.446   7.004   6.147
 8123X2IT    O136718   4.342   6.946   6.112
 8123X2IT    C636719   4.542   7.060   6.056
 8123X2IT   C1236720   4.518   7.051   5.907
 8123X2IT    C736721   4.657   7.119   6.106
 8123X2IT    C836722   4.687   7.131   6.256
 8123X2IT    O236723   4.791   7.190   6.290
 8123X2IT    N336724   4.753   7.172   6.029
 8123X2IT   H1536725   4.749   7.174   5.929
 8123X2IT   H1636726   4.833   7.214   6.077
 8123X2IT    N236727   4.398   6.966   6.392
 8123X2IT    C336728   4.251   6.956   6.396
 8123X2IT    C236729   4.216   7.038   6.520
 8123X2IT    H236730   4.120   7.023   6.569
 8123X2IT    N136731   4.278   7.172   6.517
 8123X2IT   H1436732   4.226   7.234   6.580
 8123X2IT    C136733   4.340   7.065   6.597
 8123X2IT    H136734   4.342   7.070   6.705
 8123X2IT   C1136735   4.456   6.996   6.526
 8123X2IT    O336736   4.477   6.878   6.602
 8123X2IT   C1536737   4.553   6.774   6.540
 8124X2IT   H1836738   0.829   0.729   7.096
 8124X2IT    N436739   0.752   0.672   7.066
 8124X2IT   H1736740   0.671   0.668   7.127
 8124X2IT   C1436741   0.735   0.659   6.931
 8124X2IT    O536742   0.819   0.686   6.847
 8124X2IT    O436743   0.612   0.606   6.905
 8124X2IT   C1336744   0.583   0.580   6.766
 8124X2IT   C1036745   0.640   0.444   6.721
 8124X2IT    C936746   0.606   0.410   6.578
 8124X2IT    C436747   0.537   0.290   6.573
 8124X2IT    C536748   0.488   0.227   6.446
 8124X2IT    O136749   0.431   0.117   6.450
 8124X2IT    C636750   0.511   0.301   6.324
 8124X2IT   C1236751   0.463   0.243   6.192
 8124X2IT    C736752   0.580   0.420   6.329
 8124X2IT    C836753   0.631   0.483   6.459
 8124X2IT    O236754   0.688   0.593   6.452
 8124X2IT    N336755   0.608   0.495   6.221
 8124X2IT   H1536756   0.580   0.470   6.128
 8124X2IT   H1636757   0.659   0.583   6.237
 8124X2IT    N236758   0.528   0.231   6.695
 8124X2IT    C336759   0.418   0.148   6.747
 8124X2IT    C236760   0.372   0.227   6.869
 8124X2IT    H236761   0.316   0.178   6.947
 8124X2IT    N136762   0.344   0.369   6.836
 8124X2IT   H1436763   0.283   0.409   6.907
 8124X2IT    C136764   0.473   0.333   6.899
 8124X2IT    H136765   0.496   0.365   7.000
 8124X2IT   C1136766   0.587   0.319   6.800
 8124X2IT    O336767   0.688   0.253   6.873
 8124X2IT   C1536768   0.794   0.191   6.798
 8125X2IT   H1836769   3.079   7.707   0.756
 8125X2IT    N436770   3.002   7.688   0.695
 8125X2IT   H1736771   2.993   7.745   0.613
 8125X2IT   C1436772   2.958   7.559   0.691
 8125X2IT    O536773   2.984   7.473   0.773
 8125X2IT    O436774   2.875   7.541   0.584
 8125X2IT   C1336775   2.815   7.410   0.571
 8125X2IT   C1036776   2.689   7.397   0.658
 8125X2IT    C936777   2.619   7.264   0.642
 8125X2IT    C436778   2.489   7.284   0.601
 8125X2IT    C536779   2.392   7.172   0.574
 8125X2IT    O136780   2.275   7.199   0.541
 8125X2IT    C636781   2.442   7.038   0.591
 8125X2IT   C1236782   2.349   6.920   0.565
 8125X2IT    C736783   2.572   7.018   0.633
 8125X2IT    C836784   2.670   7.133   0.660
 8125X2IT    O236785   2.786   7.104   0.693
 8125X2IT    N336786   2.627   6.898   0.653
 8125X2IT   H1536787   2.577   6.812   0.637
 8125X2IT   H1636788   2.725   6.895   0.682
 8125X2IT    N236789   2.456   7.415   0.594
 8125X2IT    C336790   2.363   7.481   0.501
 8125X2IT    C236791   2.454   7.582   0.431
 8125X2IT    H236792   2.411   7.668   0.381
 8125X2IT    N136793   2.576   7.518   0.377
 8125X2IT   H1436794   2.616   7.578   0.303
 8125X2IT    C136795   2.583   7.591   0.505
 8125X2IT    H136796   2.639   7.683   0.513
 8125X2IT   C1136797   2.574   7.500   0.626
 8125X2IT    O336798   2.548   7.589   0.734
 8125X2IT   C1536799   2.496   7.532   0.855
 8126X2IT   H1836800   3.476   5.025   6.737
 8126X2IT    N436801   3.466   4.929   6.764
 8126X2IT   H1736802   3.474   4.859   6.691
 8126X2IT   C1436803   3.505   4.897   6.891
 8126X2IT    O536804   3.525   4.977   6.980
 8126X2IT    O436805   3.515   4.761   6.904
 8126X2IT   C1336806   3.550   4.712   7.035
 8126X2IT   C1036807   3.426   4.702   7.126
 8126X2IT    C936808   3.457   4.645   7.262
 8126X2IT    C436809   3.381   4.532   7.284
 8126X2IT    C536810   3.387   4.450   7.410
 8126X2IT    O136811   3.313   4.352   7.423
 8126X2IT    C636812   3.482   4.493   7.510
 8126X2IT   C1236813   3.495   4.414   7.639
 8126X2IT    C736814   3.558   4.606   7.488
 8126X2IT    C836815   3.549   4.689   7.360
 8126X2IT    O236816   3.625   4.787   7.349
 8126X2IT    N336817   3.647   4.655   7.575
 8126X2IT   H1536818   3.667   4.611   7.664
 8126X2IT   H1636819   3.699   4.739   7.548
 8126X2IT    N236820   3.293   4.508   7.183
 8126X2IT    C336821   3.246   4.378   7.133
 8126X2IT    C236822   3.292   4.381   6.988
 8126X2IT    H236823   3.244   4.315   6.915
 8126X2IT    N136824   3.436   4.413   6.975
 8126X2IT   H1436825   3.470   4.380   6.884
 8126X2IT    C136826   3.335   4.518   6.952
 8126X2IT    H136827   3.320   4.561   6.854
 8126X2IT   C1136828   3.312   4.607   7.074
 8126X2IT    O336829   3.192   4.676   7.044
 8126X2IT   C1536830   3.123   4.738   7.153
 8127X2IT   H1836831   7.897   3.976   0.087
 8127X2IT    N436832   7.948   3.991   0.172
 8127X2IT   H1736833   7.988   4.083   0.186
 8127X2IT   C1436834   7.909   3.919   0.281
 8127X2IT    O536835   7.838   3.820   0.278
 8127X2IT    O436836   7.965   3.971   0.394
 8127X2IT   C1336837   7.938   3.900   0.517
 8127X2IT   C1036838   8.033   3.781   0.536
 8127X2IT    C936839   8.012   3.708   0.667
 8127X2IT    C436840   8.129   3.708   0.740
 8127X2IT    C536841   8.143   3.645   0.876
 8127X2IT    O136842   8.253   3.646   0.933
 8127X2IT    C636843   8.024   3.584   0.931
 8127X2IT   C1236844   8.030   3.519   1.068
 8127X2IT    C736845   7.907   3.584   0.857
 8127X2IT    C836846   7.895   3.648   0.719
 8127X2IT    O236847   7.784   3.646   0.663
 8127X2IT    N336848   7.792   3.529   0.899
 8127X2IT   H1536849   7.782   3.484   0.989
 8127X2IT   H1636850   7.711   3.536   0.837
 8127X2IT    N236851   8.232   3.764   0.672
 8127X2IT    C336852   8.345   3.841   0.727
 8127X2IT    C236853   8.329   3.976   0.657
 8127X2IT    H236854   8.414   4.043   0.650
 8127X2IT    N136855   8.193   4.031   0.672
 8127X2IT   H1436856   8.195   4.132   0.656
 8127X2IT    C136857   8.231   3.963   0.547
 8127X2IT    H136858   8.239   4.018   0.454
 8127X2IT   C1136859   8.186   3.817   0.541
 8127X2IT    O336860   8.260   3.763   0.433
 8127X2IT   C1536861   8.269   3.620   0.426
 8128X2IT   H1836862   6.841   0.716   7.595
 8128X2IT    N436863   6.808   0.785   7.530
 8128X2IT   H1736864   6.817   0.882   7.557
 8128X2IT   C1436865   6.816   0.753   7.398
 8128X2IT    O536866   6.832   0.640   7.354
 8128X2IT    O436867   6.797   0.864   7.321
 8128X2IT   C1336868   6.796   0.844   7.178
 8128X2IT   C1036869   6.658   0.799   7.129
 8128X2IT    C936870   6.650   0.783   6.979
 8128X2IT    C436871   6.551   0.864   6.927
 8128X2IT    C536872   6.518   0.873   6.781
 8128X2IT    O136873   6.425   0.946   6.744
 8128X2IT    C636874   6.598   0.793   6.692
 8128X2IT   C1236875   6.570   0.798   6.543
 8128X2IT    C736876   6.697   0.711   6.744
 8128X2IT    C836877   6.729   0.702   6.893
 8128X2IT    O236878   6.822   0.629   6.928
 8128X2IT    N336879   6.775   0.632   6.669
 8128X2IT   H1536880   6.769   0.627   6.569
 8128X2IT   H1636881   6.846   0.577   6.718
 8128X2IT    N236882   6.482   0.929   7.025
 8128X2IT    C336883   6.422   1.063   7.019
 8128X2IT    C236884   6.494   1.136   7.131
 8128X2IT    H236885   6.450   1.226   7.174
 8128X2IT    N136886   6.641   1.124   7.120
 8128X2IT   H1436887   6.685   1.200   7.173
 8128X2IT    C136888   6.568   1.038   7.214
 8128X2IT    H136889   6.581   1.049   7.321
 8128X2IT   C1136890   6.540   0.899   7.159
 8128X2IT    O336891   6.443   0.846   7.247
 8128X2IT   C1536892   6.367   0.733   7.201
 8129X2IT   H1836893   5.363   1.025   1.125
 8129X2IT    N436894   5.298   0.952   1.100
 8129X2IT   H1736895   5.214   0.980   1.051
 8129X2IT   C1436896   5.352   0.829   1.074
 8129X2IT    O536897   5.464   0.794   1.106
 8129X2IT    O436898   5.260   0.750   1.012
 8129X2IT   C1336899   5.300   0.614   0.985
 8129X2IT   C1036900   5.281   0.524   1.108
 8129X2IT    C936901   5.316   0.379   1.082
 8129X2IT    C436902   5.207   0.298   1.108
 8129X2IT    C536903   5.208   0.149   1.091
 8129X2IT    O136904   5.106   0.084   1.120
 8129X2IT    C636905   5.330   0.090   1.042
 8129X2IT   C1236906   5.337  -0.060   1.022
 8129X2IT    C736907   5.439   0.171   1.017
 8129X2IT    C836908   5.438   0.323   1.035
 8129X2IT    O236909   5.540   0.386   1.005
 8129X2IT    N336910   5.557   0.126   0.973
 8129X2IT   H1536911   5.575   0.029   0.953
 8129X2IT   H1636912   5.631   0.195   0.956
 8129X2IT    N236913   5.102   0.368   1.158
 8129X2IT    C336914   4.959   0.343   1.138
 8129X2IT    C236915   4.912   0.472   1.072
 8129X2IT    H236916   4.806   0.498   1.074
 8129X2IT    N136917   4.994   0.508   0.954
 8129X2IT   H1436918   4.941   0.571   0.894
 8129X2IT    C136919   5.018   0.575   1.084
 8129X2IT    H136920   4.998   0.680   1.096
 8129X2IT   C1136921   5.134   0.514   1.162
 8129X2IT    O336922   5.118   0.568   1.292
 8129X2IT   C1536923   5.187   0.501   1.399
 8130X2IT   H1836924   2.692   5.951   6.191
 8130X2IT    N436925   2.605   5.917   6.228
 8130X2IT   H1736926   2.602   5.897   6.327
 8130X2IT   C1436927   2.491   5.957   6.164
 8130X2IT    O536928   2.486   6.008   6.053
 8130X2IT    O436929   2.382   5.929   6.242
 8130X2IT   C1336930   2.253   5.961   6.185
 8130X2IT   C1036931   2.204   5.849   6.091
 8130X2IT    C936932   2.067   5.875   6.034
 8130X2IT    C436933   1.981   5.772   6.068
 8130X2IT    C536934   1.836   5.767   6.028
 8130X2IT    O136935   1.768   5.669   6.060
 8130X2IT    C636936   1.786   5.880   5.953
 8130X2IT   C1236937   1.641   5.881   5.910
 8130X2IT    C736938   1.872   5.982   5.918
 8130X2IT    C836939   2.020   5.985   5.959
 8130X2IT    O236940   2.087   6.085   5.926
 8130X2IT    N336941   1.836   6.090   5.847
 8130X2IT   H1536942   1.742   6.104   5.814
 8130X2IT   H1636943   1.908   6.160   5.829
 8130X2IT    N236944   2.044   5.672   6.135
 8130X2IT    C336945   1.990   5.585   6.240
 8130X2IT    C236946   2.082   5.615   6.357
 8130X2IT    H236947   2.090   5.544   6.439
 8130X2IT    N136948   2.093   5.760   6.385
 8130X2IT   H1436949   2.125   5.774   6.481
 8130X2IT    C136950   2.200   5.692   6.309
 8130X2IT    H136951   2.299   5.681   6.352
 8130X2IT   C1136952   2.187   5.708   6.159
 8130X2IT    O336953   2.276   5.610   6.106
 8130X2IT   C1536954   2.258   5.573   5.969
 8131X2IT   H1836955   9.009   6.905   0.692
 8131X2IT    N436956   9.014   6.958   0.607
 8131X2IT   H1736957   9.048   7.053   0.614
 8131X2IT   C1436958   9.037   6.887   0.492
 8131X2IT    O536959   9.025   6.766   0.480
 8131X2IT    O436960   9.072   6.972   0.391
 8131X2IT   C1336961   9.093   6.912   0.262
 8131X2IT   C1036962   8.960   6.892   0.187
 8131X2IT    C936963   8.978   6.835   0.048
 8131X2IT    C436964   8.923   6.921  -0.046
 8131X2IT    C536965   8.925   6.895  -0.194
 8131X2IT    O136966   8.870   6.975  -0.271
 8131X2IT    C636967   8.991   6.774  -0.238
 8131X2IT   C1236968   8.997   6.742  -0.386
 8131X2IT    C736969   9.045   6.689  -0.144
 8131X2IT    C836970   9.042   6.716   0.007
 8131X2IT    O236971   9.098   6.634   0.082
 8131X2IT    N336972   9.108   6.574  -0.175
 8131X2IT   H1536973   9.120   6.542  -0.269
 8131X2IT   H1636974   9.145   6.519  -0.097
 8131X2IT    N236975   8.860   7.026   0.011
 8131X2IT    C336976   8.849   7.164  -0.040
 8131X2IT    C236977   8.917   7.245   0.069
 8131X2IT    H236978   8.896   7.352   0.078
 8131X2IT    N136979   9.051   7.193   0.102
 8131X2IT   H1436980   9.106   7.267   0.148
 8131X2IT    C136981   8.937   7.160   0.189
 8131X2IT    H136982   8.931   7.197   0.290
 8131X2IT   C1136983   8.877   7.023   0.159
 8131X2IT    O336984   8.752   7.025   0.227
 8131X2IT   C1536985   8.655   6.927   0.187
 8132X2IT   H1836986   0.605   2.837   0.996
 8132X2IT    N436987   0.535   2.908   1.010
 8132X2IT   H1736988   0.525   2.944   1.104
 8132X2IT   C1436989   0.509   2.990   0.905
 8132X2IT    O536990   0.541   2.969   0.789
 8132X2IT    O436991   0.437   3.099   0.947
 8132X2IT   C1336992   0.396   3.192   0.844
 8132X2IT   C1036993   0.267   3.145   0.774
 8132X2IT    C936994   0.217   3.243   0.671
 8132X2IT    C436995   0.088   3.283   0.701
 8132X2IT    C536996   0.009   3.381   0.619
 8132X2IT    O136997  -0.107   3.408   0.652
 8132X2IT    C636998   0.076   3.437   0.504
 8132X2IT   C1236999   0.002   3.537   0.417
 8132X2IT    C737000   0.204   3.396   0.473
 8132X2IT    C837001   0.283   3.296   0.557
 8132X2IT    O237002   0.400   3.270   0.522
 8132X2IT    N337003   0.273   3.442   0.367
 8132X2IT   H1537004   0.237   3.509   0.303
 8132X2IT   H1637005   0.368   3.406   0.355
 8132X2IT    N237006   0.039   3.217   0.809
 8132X2IT    C337007  -0.055   3.268   0.911
 8132X2IT    C237008   0.026   3.256   1.039
 8132X2IT    H237009  -0.025   3.254   1.135
 8132X2IT    N137010   0.159   3.320   1.028
 8132X2IT   H1437011   0.195   3.340   1.121
 8132X2IT    C137012   0.147   3.173   1.013
 8132X2IT    H137013   0.190   3.107   1.087
 8132X2IT   C1137014   0.142   3.127   0.868
 8132X2IT    O337015   0.097   2.993   0.876
 8132X2IT   C1537016   0.045   2.935   0.756
 8133X2IT   H1837017   6.108   6.117   6.545
 8133X2IT    N437018   6.112   6.065   6.460
 8133X2IT   H1737019   6.082   5.969   6.463
 8133X2IT   C1437020   6.095   6.136   6.344
 8133X2IT    O537021   6.103   6.257   6.334
 8133X2IT    O437022   6.072   6.051   6.240
 8133X2IT   C1337023   6.058   6.112   6.110
 8133X2IT   C1037024   6.196   6.138   6.046
 8133X2IT    C937025   6.186   6.196   5.906
 8133X2IT    C437026   6.251   6.114   5.816
 8133X2IT    C537027   6.260   6.141   5.669
 8133X2IT    O137028   6.324   6.064   5.596
 8133X2IT    C637029   6.192   6.259   5.621
 8133X2IT   C1237030   6.197   6.293   5.473
 8133X2IT    C737031   6.128   6.342   5.711
 8133X2IT    C837032   6.120   6.313   5.861
 8133X2IT    O237033   6.056   6.391   5.933
 8133X2IT    N337034   6.064   6.454   5.677
 8133X2IT   H1537035   6.057   6.487   5.582
 8133X2IT   H1637036   6.018   6.507   5.752
 8133X2IT    N237037   6.314   6.010   5.877
 8133X2IT    C337038   6.335   5.874   5.826
 8133X2IT    C237039   6.262   5.788   5.929
 8133X2IT    H237040   6.286   5.682   5.938
 8133X2IT    N137041   6.123   5.834   5.952
 8133X2IT   H1437042   6.068   5.758   5.992
 8133X2IT    C137043   6.229   5.871   6.047
 8133X2IT    H137044   6.229   5.833   6.148
 8133X2IT   C1137045   6.286   6.011   6.024
 8133X2IT    O337046   6.405   6.013   6.101
 8133X2IT   C1537047   6.500   6.115   6.070
 8134X2IT   H1837048   2.691   8.314   5.740
 8134X2IT    N437049   2.715   8.386   5.805
 8134X2IT   H1737050   2.724   8.480   5.769
 8134X2IT   C1437051   2.673   8.368   5.934
 8134X2IT    O537052   2.634   8.262   5.981
 8134X2IT    O437053   2.684   8.485   6.003
 8134X2IT   C1337054   2.649   8.479   6.143
 8134X2IT   C1037055   2.766   8.427   6.229
 8134X2IT    C937056   2.735   8.427   6.377
 8134X2IT    C437057   2.827   8.504   6.445
 8134X2IT    C537058   2.825   8.525   6.594
 8134X2IT    O137059   2.913   8.594   6.647
 8134X2IT    C637060   2.717   8.462   6.666
 8134X2IT   C1237061   2.709   8.480   6.816
 8134X2IT    C737062   2.626   8.384   6.598
 8134X2IT    C837063   2.630   8.362   6.447
 8134X2IT    O237064   2.540   8.293   6.395
 8134X2IT    N337065   2.524   8.319   6.657
 8134X2IT   H1537066   2.506   8.324   6.756
 8134X2IT   H1637067   2.462   8.265   6.596
 8134X2IT    N237068   2.924   8.553   6.363
 8134X2IT    C337069   2.995   8.681   6.373
 8134X2IT    C237070   2.960   8.748   6.241
 8134X2IT    H237071   3.023   8.829   6.203
 8134X2IT    N137072   2.814   8.750   6.216
 8134X2IT   H1437073   2.792   8.823   6.148
 8134X2IT    C137074   2.898   8.648   6.150
 8134X2IT    H137075   2.912   8.649   6.043
 8134X2IT   C1137076   2.897   8.514   6.222
 8134X2IT    O337077   3.006   8.444   6.165
 8134X2IT   C1537078   3.056   8.330   6.237
 8135X2IT   H1837079   5.737   4.377   0.892
 8135X2IT    N437080   5.762   4.312   0.820
 8135X2IT   H1737081   5.800   4.351   0.734
 8135X2IT   C1437082   5.803   4.188   0.860
 8135X2IT    O537083   5.785   4.141   0.971
 8135X2IT    O437084   5.863   4.123   0.756
 8135X2IT   C1337085   5.905   3.987   0.782
 8135X2IT   C1037086   5.789   3.888   0.767
 8135X2IT    C937087   5.831   3.744   0.786
 8135X2IT    C437088   5.802   3.670   0.674
 8135X2IT    C537089   5.832   3.523   0.660
 8135X2IT    O137090   5.799   3.464   0.556
 8135X2IT    C637091   5.897   3.460   0.772
 8135X2IT   C1237092   5.931   3.312   0.764
 8135X2IT    C737093   5.926   3.534   0.885
 8135X2IT    C837094   5.894   3.683   0.898
 8135X2IT    O237095   5.928   3.741   1.002
 8135X2IT    N337096   5.985   3.484   0.994
 8135X2IT   H1537097   6.014   3.388   1.002
 8135X2IT   H1637098   6.002   3.548   1.072
 8135X2IT    N237099   5.736   3.743   0.580
 8135X2IT    C337100   5.745   3.730   0.433
 8135X2IT    C237101   5.794   3.868   0.392
 8135X2IT    H237102   5.780   3.903   0.290
 8135X2IT    N137103   5.916   3.909   0.467
 8135X2IT   H1437104   5.965   3.982   0.414
 8135X2IT    C137105   5.784   3.961   0.508
 8135X2IT    H137106   5.761   4.066   0.497
 8135X2IT   C1137107   5.722   3.884   0.624
 8135X2IT    O337108   5.587   3.926   0.625
 8135X2IT   C1537109   5.494   3.845   0.697
 8136X2IT   H1837110   5.048   4.723   6.754
 8136X2IT    N437111   4.962   4.672   6.748
 8136X2IT   H1737112   4.922   4.659   6.656
 8136X2IT   C1437113   4.941   4.577   6.844
 8136X2IT    O537114   5.003   4.568   6.949
 8136X2IT    O437115   4.836   4.497   6.808
 8136X2IT   C1337116   4.798   4.395   6.903
 8136X2IT   C1037117   4.704   4.452   7.011
 8136X2IT    C937118   4.656   4.347   7.109
 8136X2IT    C437119   4.518   4.342   7.109
 8136X2IT    C537120   4.438   4.247   7.194
 8136X2IT    O137121   4.314   4.252   7.190
 8136X2IT    C637122   4.513   4.157   7.277
 8136X2IT   C1237123   4.439   4.059   7.366
 8136X2IT    C737124   4.651   4.163   7.278
 8136X2IT    C837125   4.732   4.260   7.192
 8136X2IT    O237126   4.855   4.254   7.197
 8136X2IT    N337127   4.729   4.084   7.354
 8136X2IT   H1537128   4.693   4.013   7.415
 8136X2IT   H1637129   4.830   4.097   7.345
 8136X2IT    N237130   4.463   4.436   7.028
 8136X2IT    C337131   4.339   4.427   6.950
 8136X2IT    C237132   4.390   4.449   6.808
 8136X2IT    H237133   4.320   4.481   6.730
 8136X2IT    N137134   4.501   4.358   6.773
 8136X2IT   H1437135   4.509   4.350   6.672
 8136X2IT    C137136   4.530   4.498   6.812
 8136X2IT    H137137   4.570   4.568   6.740
 8136X2IT   C1137138   4.569   4.513   6.958
 8136X2IT    O337139   4.559   4.652   6.982
 8136X2IT   C1537140   4.552   4.695   7.119
 8137X2IT   H1837141   3.727   8.081   0.323
 8137X2IT    N437142   3.774   8.152   0.377
 8137X2IT   H1737143   3.844   8.207   0.330
 8137X2IT   C1437144   3.700   8.208   0.478
 8137X2IT    O537145   3.597   8.162   0.524
 8137X2IT    O437146   3.762   8.321   0.522
 8137X2IT   C1337147   3.700   8.388   0.634
 8137X2IT   C1037148   3.740   8.325   0.768
 8137X2IT    C937149   3.682   8.396   0.888
 8137X2IT    C437150   3.784   8.439   0.971
 8137X2IT    C537151   3.761   8.515   1.099
 8137X2IT    O137152   3.858   8.546   1.170
 8137X2IT    C637153   3.624   8.545   1.132
 8137X2IT   C1237154   3.593   8.622   1.259
 8137X2IT    C737155   3.522   8.501   1.049
 8137X2IT    C837156   3.547   8.424   0.919
 8137X2IT    O237157   3.449   8.393   0.850
 8137X2IT    N337158   3.392   8.523   1.072
 8137X2IT   H1537159   3.358   8.574   1.152
 8137X2IT   H1637160   3.325   8.488   1.003
 8137X2IT    N237161   3.906   8.398   0.929
 8137X2IT    C337162   4.035   8.469   0.942
 8137X2IT    C237163   4.077   8.487   0.797
 8137X2IT    H237164   4.182   8.505   0.773
 8137X2IT    N137165   3.971   8.549   0.715
 8137X2IT   H1437166   4.013   8.591   0.631
 8137X2IT    C137167   3.991   8.403   0.710
 8137X2IT    H137168   4.027   8.355   0.620
 8137X2IT   C1137169   3.895   8.326   0.799
 8137X2IT    O337170   3.951   8.196   0.806
 8137X2IT   C1537171   3.906   8.111   0.912
 8138X2IT   H1837172   7.080   1.194   6.473
 8138X2IT    N437173   7.156   1.227   6.528
 8138X2IT   H1737174   7.201   1.312   6.498
 8138X2IT   C1437175   7.153   1.198   6.662
 8138X2IT    O537176   7.081   1.114   6.713
 8138X2IT    O437177   7.244   1.274   6.728
 8138X2IT   C1337178   7.256   1.250   6.870
 8138X2IT   C1037179   7.349   1.130   6.899
 8138X2IT    C937180   7.370   1.105   7.046
 8138X2IT    C437181   7.505   1.111   7.077
 8138X2IT    C537182   7.560   1.092   7.215
 8138X2IT    O137183   7.682   1.096   7.233
 8138X2IT    C637184   7.464   1.069   7.320
 8138X2IT   C1237185   7.513   1.049   7.462
 8138X2IT    C737186   7.329   1.061   7.289
 8138X2IT    C837187   7.274   1.081   7.148
 8138X2IT    O237188   7.151   1.076   7.132
 8138X2IT    N337189   7.233   1.038   7.380
 8138X2IT   H1537190   7.251   1.025   7.478
 8138X2IT   H1637191   7.136   1.037   7.346
 8138X2IT    N237192   7.582   1.129   6.967
 8138X2IT    C337193   7.708   1.203   6.956
 8138X2IT    C237194   7.674   1.310   6.853
 8138X2IT    H237195   7.755   1.360   6.799
 8138X2IT    N137196   7.552   1.385   6.888
 8138X2IT   H1437197   7.552   1.475   6.839
 8138X2IT    C137198   7.545   1.277   6.788
 8138X2IT    H137199   7.524   1.299   6.684
 8138X2IT   C1137200   7.497   1.145   6.845
 8138X2IT    O337201   7.529   1.050   6.745
 8138X2IT   C1537202   7.532   0.912   6.784
 8139X2IT   H1837203   3.786   2.403   7.054
 8139X2IT    N437204   3.705   2.350   7.027
 8139X2IT   H1737205   3.695   2.258   7.068
 8139X2IT   C1437206   3.594   2.422   6.996
 8139X2IT    O537207   3.592   2.541   6.970
 8139X2IT    O437208   3.485   2.340   6.992
 8139X2IT   C1337209   3.360   2.401   6.953
 8139X2IT   C1037210   3.347   2.410   6.800
 8139X2IT    C937211   3.215   2.467   6.755
 8139X2IT    C437212   3.149   2.377   6.673
 8139X2IT    C537213   3.014   2.402   6.612
 8139X2IT    O137214   2.965   2.317   6.536
 8139X2IT    C637215   2.951   2.528   6.644
 8139X2IT   C1237216   2.815   2.560   6.586
 8139X2IT    C737217   3.017   2.618   6.725
 8139X2IT    C837218   3.155   2.592   6.787
 8139X2IT    O237219   3.203   2.678   6.862
 8139X2IT    N337220   2.967   2.738   6.760
 8139X2IT   H1537221   2.877   2.771   6.730
 8139X2IT   H1637222   3.024   2.796   6.822
 8139X2IT    N237223   3.224   2.267   6.648
 8139X2IT    C337224   3.177   2.129   6.627
 8139X2IT    C237225   3.246   2.054   6.741
 8139X2IT    H237226   3.259   1.946   6.734
 8139X2IT    N137227   3.223   2.117   6.872
 8139X2IT   H1437228   3.239   2.048   6.946
 8139X2IT    C137229   3.350   2.141   6.801
 8139X2IT    H137230   3.443   2.103   6.841
 8139X2IT   C1137231   3.352   2.272   6.724
 8139X2IT    O337232   3.464   2.260   6.639
 8139X2IT   C1537233   3.471   2.349   6.527
 8140X2IT   H1837234   2.938   5.980   0.188
 8140X2IT    N437235   2.854   5.933   0.159
 8140X2IT   H1737236   2.810   5.966   0.074
 8140X2IT   C1437237   2.842   5.802   0.195
 8140X2IT    O537238   2.909   5.745   0.279
 8140X2IT    O437239   2.740   5.744   0.125
 8140X2IT   C1337240   2.711   5.606   0.156
 8140X2IT   C1037241   2.620   5.595   0.280
 8140X2IT    C937242   2.582   5.452   0.313
 8140X2IT    C437243   2.444   5.438   0.312
 8140X2IT    C537244   2.373   5.309   0.340
 8140X2IT    O137245   2.249   5.307   0.341
 8140X2IT    C637246   2.456   5.194   0.365
 8140X2IT   C1237247   2.390   5.060   0.393
 8140X2IT    C737248   2.593   5.208   0.367
 8140X2IT    C837249   2.665   5.341   0.339
 8140X2IT    O237250   2.789   5.341   0.339
 8140X2IT    N337251   2.678   5.107   0.391
 8140X2IT   H1537252   2.648   5.013   0.409
 8140X2IT   H1637253   2.778   5.129   0.388
 8140X2IT    N237254   2.381   5.557   0.291
 8140X2IT    C337255   2.254   5.580   0.221
 8140X2IT    C237256   2.296   5.673   0.108
 8140X2IT    H237257   2.222   5.735   0.058
 8140X2IT    N137258   2.410   5.620   0.031
 8140X2IT   H1437259   2.413   5.664  -0.061
 8140X2IT    C137260   2.434   5.723   0.134
 8140X2IT    H137261   2.467   5.822   0.106
 8140X2IT   C1137262   2.480   5.666   0.267
 8140X2IT    O337263   2.464   5.773   0.358
 8140X2IT   C1537264   2.461   5.741   0.498
 8141X2IT   H1837265   5.433   3.742   6.485
 8141X2IT    N437266   5.492   3.738   6.566
 8141X2IT   H1737267   5.446   3.737   6.656
 8141X2IT   C1437268   5.611   3.672   6.551
 8141X2IT    O537269   5.663   3.644   6.445
 8141X2IT    O437270   5.665   3.646   6.674
 8141X2IT   C1337271   5.794   3.582   6.674
 8141X2IT   C1037272   5.907   3.685   6.656
 8141X2IT    C937273   6.045   3.623   6.662
 8141X2IT    C437274   6.119   3.682   6.763
 8141X2IT    C537275   6.260   3.643   6.797
 8141X2IT    O137276   6.321   3.704   6.887
 8141X2IT    C637277   6.318   3.536   6.720
 8141X2IT   C1237278   6.460   3.491   6.749
 8141X2IT    C737279   6.244   3.478   6.618
 8141X2IT    C837280   6.101   3.519   6.584
 8141X2IT    O237281   6.042   3.457   6.494
 8141X2IT    N337282   6.290   3.379   6.540
 8141X2IT   H1537283   6.381   3.338   6.550
 8141X2IT   H1637284   6.226   3.342   6.469
 8141X2IT    N237285   6.053   3.784   6.823
 8141X2IT    C337286   6.059   3.826   6.964
 8141X2IT    C237287   5.915   3.810   7.009
 8141X2IT    H237288   5.880   3.863   7.098
 8141X2IT    N137289   5.862   3.675   6.979
 8141X2IT   H1437290   5.782   3.656   7.040
 8141X2IT    C137291   5.828   3.789   6.891
 8141X2IT    H137292   5.726   3.826   6.885
 8141X2IT   C1137293   5.915   3.797   6.767
 8141X2IT    O337294   5.891   3.927   6.716
 8141X2IT   C1537295   5.986   3.979   6.622
 8142X2IT   H1837296   9.086   7.519   5.825
 8142X2IT    N437297   9.065   7.476   5.913
 8142X2IT   H1737298   9.002   7.397   5.912
 8142X2IT   C1437299   9.162   7.482   6.008
 8142X2IT    O537300   9.259   7.557   6.005
 8142X2IT    O437301   9.134   7.395   6.110
 8142X2IT   C1337302   9.226   7.395   6.221
 8142X2IT   C1037303   9.192   7.508   6.321
 8142X2IT    C937304   9.282   7.507   6.443
 8142X2IT    C437305   9.206   7.495   6.557
 8142X2IT    C537306   9.264   7.490   6.696
 8142X2IT    O137307   9.188   7.483   6.794
 8142X2IT    C637308   9.408   7.496   6.706
 8142X2IT   C1237309   9.473   7.491   6.843
 8142X2IT    C737310   9.483   7.509   6.591
 8142X2IT    C837311   9.423   7.515   6.451
 8142X2IT    O237312   9.501   7.522   6.354
 8142X2IT    N337313   9.617   7.517   6.591
 8142X2IT   H1537314   9.673   7.513   6.674
 8142X2IT   H1637315   9.663   7.525   6.500
 8142X2IT    N237316   9.073   7.496   6.531
 8142X2IT    C337317   8.966   7.424   6.603
 8142X2IT    C237318   8.907   7.336   6.493
 8142X2IT    H237319   8.807   7.296   6.504
 8142X2IT    N137320   9.011   7.257   6.423
 8142X2IT   H1437321   8.967   7.176   6.377
 8142X2IT    C137322   8.959   7.380   6.361
 8142X2IT    H137323   8.901   7.376   6.270
 8142X2IT   C1137324   9.048   7.501   6.384
 8142X2IT    O337325   8.967   7.612   6.348
 8142X2IT   C1537326   9.008   7.741   6.395
 8143X2IT   H1837327   0.157   6.515  -0.236
 8143X2IT    N437328   0.168   6.599  -0.182
 8143X2IT   H1737329   0.124   6.683  -0.218
 8143X2IT   C1437330   0.179   6.583  -0.047
 8143X2IT    O537331   0.206   6.478   0.010
 8143X2IT    O437332   0.162   6.703   0.016
 8143X2IT   C1337333   0.178   6.703   0.160
 8143X2IT   C1037334   0.326   6.714   0.199
 8143X2IT    C937335   0.347   6.721   0.349
 8143X2IT    C437336   0.414   6.838   0.382
 8143X2IT    C537337   0.450   6.876   0.523
 8143X2IT    O137338   0.514   6.981   0.543
 8143X2IT    C637339   0.408   6.786   0.627
 8143X2IT   C1237340   0.441   6.819   0.771
 8143X2IT    C737341   0.342   6.669   0.594
 8143X2IT    C837342   0.307   6.631   0.450
 8143X2IT    O237343   0.243   6.526   0.432
 8143X2IT    N337344   0.301   6.578   0.683
 8143X2IT   H1537345   0.314   6.589   0.782
 8143X2IT   H1637346   0.251   6.496   0.647
 8143X2IT    N237347   0.451   6.909   0.273
 8143X2IT    C337348   0.461   7.055   0.259
 8143X2IT    C237349   0.361   7.084   0.147
 8143X2IT    H237350   0.368   7.177   0.091
 8143X2IT    N137351   0.228   7.025   0.174
 8143X2IT   H1437352   0.157   7.073   0.118
 8143X2IT    C137353   0.322   6.957   0.082
 8143X2IT    H137354   0.299   6.949  -0.023
 8143X2IT   C1137355   0.400   6.844   0.148
 8143X2IT    O337356   0.504   6.816   0.057
 8143X2IT   C1537357   0.617   6.743   0.106
 8144X2IT   H1837358   6.225   2.937   6.605
 8144X2IT    N437359   6.308   2.992   6.617
 8144X2IT   H1737360   6.351   3.031   6.534
 8144X2IT   C1437361   6.319   3.061   6.735
 8144X2IT    O537362   6.253   3.041   6.835
 8144X2IT    O437363   6.418   3.155   6.725
 8144X2IT   C1337364   6.445   3.231   6.844
 8144X2IT   C1037365   6.539   3.155   6.940
 8144X2IT    C937366   6.576   3.234   7.063
 8144X2IT    C437367   6.713   3.249   7.071
 8144X2IT    C537368   6.783   3.323   7.182
 8144X2IT    O137369   6.907   3.328   7.183
 8144X2IT    C637370   6.698   3.385   7.281
 8144X2IT   C1237371   6.762   3.462   7.395
 8144X2IT    C737372   6.561   3.370   7.273
 8144X2IT    C837373   6.491   3.293   7.160
 8144X2IT    O237374   6.367   3.290   7.161
 8144X2IT    N337375   6.475   3.422   7.361
 8144X2IT   H1537376   6.504   3.477   7.440
 8144X2IT   H1637377   6.375   3.406   7.345
 8144X2IT    N237378   6.778   3.181   6.973
 8144X2IT    C337379   6.903   3.217   6.906
 8144X2IT    C237380   6.860   3.229   6.761
 8144X2IT    H237381   6.934   3.222   6.681
 8144X2IT    N137382   6.743   3.318   6.744
 8144X2IT   H1437383   6.739   3.351   6.647
 8144X2IT    C137384   6.724   3.172   6.745
 8144X2IT    H137385   6.691   3.120   6.656
 8144X2IT   C1137386   6.680   3.118   6.880
 8144X2IT    O337387   6.700   2.978   6.869
 8144X2IT   C1537388   6.705   2.903   6.991
 8145X2IT   H1837389   7.126   6.837   6.217
 8145X2IT    N437390   7.164   6.930   6.216
 8145X2IT   H1737391   7.203   6.963   6.128
 8145X2IT   C1437392   7.107   7.020   6.301
 8145X2IT    O537393   7.036   6.992   6.396
 8145X2IT    O437394   7.145   7.147   6.267
 8145X2IT   C1337395   7.098   7.253   6.353
 8145X2IT   C1037396   7.187   7.269   6.477
 8145X2IT    C937397   7.145   7.383   6.567
 8145X2IT    C437398   7.249   7.473   6.582
 8145X2IT    C537399   7.240   7.599   6.663
 8145X2IT    O137400   7.339   7.672   6.674
 8145X2IT    C637401   7.112   7.626   6.726
 8145X2IT   C1237402   7.096   7.751   6.810
 8145X2IT    C737403   7.009   7.536   6.712
 8145X2IT    C837404   7.020   7.407   6.629
 8145X2IT    O237405   6.919   7.336   6.619
 8145X2IT    N337406   6.888   7.551   6.768
 8145X2IT   H1537407   6.863   7.631   6.824
 8145X2IT   H1637408   6.818   7.479   6.749
 8145X2IT    N237409   7.362   7.431   6.520
 8145X2IT    C337410   7.466   7.513   6.456
 8145X2IT    C237411   7.463   7.461   6.313
 8145X2IT    H237412   7.550   7.477   6.248
 8145X2IT    N137413   7.327   7.462   6.255
 8145X2IT   H1437414   7.333   7.461   6.153
 8145X2IT    C137415   7.384   7.336   6.307
 8145X2IT    H137416   7.407   7.254   6.240
 8145X2IT   C1137417   7.338   7.303   6.448
 8145X2IT    O337418   7.427   7.201   6.490
 8145X2IT   C1537419   7.435   7.175   6.631
 8146X2IT   H1837420   1.556   1.734   5.521
 8146X2IT    N437421   1.557   1.807   5.590
 8146X2IT   H1737422   1.517   1.896   5.564
 8146X2IT   C1437423   1.551   1.768   5.721
 8146X2IT    O537424   1.572   1.655   5.761
 8146X2IT    O437425   1.523   1.875   5.801
 8146X2IT   C1337426   1.521   1.850   5.943
 8146X2IT   C1037427   1.662   1.854   6.003
 8146X2IT    C937428   1.663   1.834   6.153
 8146X2IT    C437429   1.723   1.943   6.215
 8146X2IT    C537430   1.740   1.956   6.363
 8146X2IT    O137431   1.798   2.055   6.410
 8146X2IT    C637432   1.686   1.849   6.444
 8146X2IT   C1237433   1.699   1.856   6.595
 8146X2IT    C737434   1.627   1.740   6.382
 8146X2IT    C837435   1.612   1.727   6.230
 8146X2IT    O237436   1.553   1.627   6.186
 8146X2IT    N337437   1.576   1.635   6.448
 8146X2IT   H1537438   1.576   1.628   6.549
 8146X2IT   H1637439   1.534   1.560   6.392
 8146X2IT    N237440   1.772   2.032   6.125
 8146X2IT    C337441   1.781   2.178   6.139
 8146X2IT    C237442   1.696   2.226   6.022
 8146X2IT    H237443   1.709   2.328   5.984
 8146X2IT    N137444   1.562   2.164   6.020
 8146X2IT   H1437445   1.498   2.222   5.964
 8146X2IT    C137446   1.668   2.112   5.931
 8146X2IT    H137447   1.660   2.123   5.823
 8146X2IT   C1137448   1.739   1.990   5.986
 8146X2IT    O337449   1.855   1.978   5.905
 8146X2IT   C1537450   1.962   1.897   5.956
 8147X2IT   H1837451   6.790   2.111   7.180
 8147X2IT    N437452   6.723   2.181   7.152
 8147X2IT   H1737453   6.690   2.244   7.224
 8147X2IT   C1437454   6.731   2.225   7.023
 8147X2IT    O537455   6.791   2.169   6.933
 8147X2IT    O437456   6.657   2.339   7.009
 8147X2IT   C1337457   6.650   2.394   6.876
 8147X2IT   C1037458   6.542   2.324   6.792
 8147X2IT    C937459   6.527   2.384   6.653
 8147X2IT    C437460   6.397   2.428   6.634
 8147X2IT    C537461   6.349   2.493   6.508
 8147X2IT    O137462   6.230   2.526   6.498
 8147X2IT    C637463   6.447   2.512   6.403
 8147X2IT   C1237464   6.404   2.577   6.273
 8147X2IT    C737465   6.576   2.467   6.422
 8147X2IT    C837466   6.624   2.400   6.551
 8147X2IT    O237467   6.743   2.367   6.559
 8147X2IT    N337468   6.673   2.478   6.330
 8147X2IT   H1537469   6.659   2.521   6.241
 8147X2IT   H1637470   6.766   2.443   6.356
 8147X2IT    N237471   6.317   2.399   6.740
 8147X2IT    C337472   6.203   2.476   6.791
 8147X2IT    C237473   6.247   2.507   6.934
 8147X2IT    H237474   6.172   2.534   7.008
 8147X2IT    N137475   6.382   2.567   6.939
 8147X2IT   H1437476   6.393   2.617   7.028
 8147X2IT    C137477   6.365   2.424   6.968
 8147X2IT    H137478   6.383   2.384   7.067
 8147X2IT   C1137479   6.395   2.334   6.849
 8147X2IT    O337480   6.342   2.208   6.885
 8147X2IT   C1537481   6.320   2.114   6.780
 8148X2IT   H1837482   7.090   5.778   0.651
 8148X2IT    N437483   7.083   5.852   0.583
 8148X2IT   H1737484   7.163   5.912   0.573
 8148X2IT   C1437485   7.004   5.827   0.475
 8148X2IT    O537486   6.921   5.737   0.467
 8148X2IT    O437487   7.027   5.920   0.377
 8148X2IT   C1337488   6.945   5.910   0.259
 8148X2IT   C1037489   6.809   5.979   0.279
 8148X2IT    C937490   6.723   5.977   0.155
 8148X2IT    C437491   6.691   6.106   0.117
 8148X2IT    C537492   6.607   6.139  -0.003
 8148X2IT    O137493   6.579   6.258  -0.027
 8148X2IT    C637494   6.562   6.028  -0.083
 8148X2IT   C1237495   6.477   6.055  -0.206
 8148X2IT    C737496   6.593   5.899  -0.045
 8148X2IT    C837497   6.678   5.866   0.078
 8148X2IT    O237498   6.704   5.747   0.100
 8148X2IT    N337499   6.555   5.790  -0.112
 8148X2IT   H1537500   6.500   5.793  -0.196
 8148X2IT   H1637501   6.585   5.699  -0.076
 8148X2IT    N237502   6.737   6.198   0.205
 8148X2IT    C337503   6.783   6.335   0.177
 8148X2IT    C237504   6.927   6.331   0.227
 8148X2IT    H237505   6.978   6.424   0.251
 8148X2IT    N137506   7.003   6.218   0.170
 8148X2IT   H1437507   7.103   6.238   0.176
 8148X2IT    C137508   6.948   6.207   0.307
 8148X2IT    H137509   7.014   6.203   0.392
 8148X2IT   C1137510   6.816   6.132   0.313
 8148X2IT    O337511   6.766   6.162   0.442
 8148X2IT   C1537512   6.626   6.139   0.465
 8149X2IT   H1837513   1.183   4.008   5.743
 8149X2IT    N437514   1.183   3.933   5.810
 8149X2IT   H1737515   1.196   3.839   5.774
 8149X2IT   C1437516   1.230   3.963   5.935
 8149X2IT    O537517   1.244   4.076   5.979
 8149X2IT    O437518   1.254   3.849   6.005
 8149X2IT   C1337519   1.298   3.865   6.141
 8149X2IT   C1037520   1.179   3.887   6.236
 8149X2IT    C937521   1.219   3.898   6.381
 8149X2IT    C437522   1.156   3.801   6.456
 8149X2IT    C537523   1.175   3.783   6.604
 8149X2IT    O137524   1.111   3.696   6.664
 8149X2IT    C637525   1.268   3.873   6.668
 8149X2IT   C1237526   1.293   3.861   6.817
 8149X2IT    C737527   1.331   3.971   6.593
 8149X2IT    C837528   1.310   3.988   6.443
 8149X2IT    O237529   1.375   4.076   6.385
 8149X2IT    N337530   1.418   4.060   6.644
 8149X2IT   H1537531   1.444   4.061   6.741
 8149X2IT   H1637532   1.459   4.127   6.579
 8149X2IT    N237533   1.068   3.728   6.382
 8149X2IT    C337534   1.033   3.586   6.398
 8149X2IT    C237535   1.073   3.528   6.263
 8149X2IT    H237536   1.031   3.434   6.230
 8149X2IT    N137537   1.213   3.563   6.226
 8149X2IT   H1437538   1.247   3.496   6.157
 8149X2IT    C137539   1.101   3.639   6.168
 8149X2IT    H137540   1.079   3.633   6.062
 8149X2IT   C1137541   1.073   3.770   6.239
 8149X2IT    O337542   0.946   3.809   6.192
 8149X2IT   C1537543   0.875   3.908   6.268
 8150X2IT   H1837544   8.682   1.484   7.383
 8150X2IT    N437545   8.710   1.546   7.309
 8150X2IT   H1737546   8.779   1.616   7.331
 8150X2IT   C1437547   8.707   1.494   7.182
 8150X2IT    O537548   8.647   1.393   7.149
 8150X2IT    O437549   8.776   1.575   7.097
 8150X2IT   C1337550   8.776   1.537   6.958
 8150X2IT   C1037551   8.649   1.586   6.886
 8150X2IT    C937552   8.647   1.554   6.739
 8150X2IT    C437553   8.635   1.670   6.665
 8150X2IT    C537554   8.631   1.674   6.514
 8150X2IT    O137555   8.616   1.782   6.456
 8150X2IT    C637556   8.645   1.547   6.447
 8150X2IT   C1237557   8.642   1.544   6.295
 8150X2IT    C737558   8.656   1.431   6.521
 8150X2IT    C837559   8.659   1.429   6.674
 8150X2IT    O237560   8.674   1.319   6.730
 8150X2IT    N337561   8.667   1.309   6.467
 8150X2IT   H1537562   8.669   1.292   6.368
 8150X2IT   H1637563   8.676   1.230   6.531
 8150X2IT    N237564   8.619   1.779   6.743
 8150X2IT    C337565   8.666   1.917   6.718
 8150X2IT    C237566   8.757   1.942   6.838
 8150X2IT    H237567   8.782   2.044   6.867
 8150X2IT    N137568   8.858   1.835   6.855
 8150X2IT   H1437569   8.936   1.870   6.910
 8150X2IT    C137570   8.737   1.835   6.939
 8150X2IT    H137571   8.743   1.852   7.045
 8150X2IT   C1137572   8.628   1.742   6.887
 8150X2IT    O337573   8.512   1.782   6.959
 8150X2IT   C1537574   8.385   1.741   6.907
 8151X2IT   H1837575   3.778   8.192  -0.333
 8151X2IT    N437576   3.692   8.200  -0.283
 8151X2IT   H1737577   3.635   8.117  -0.276
 8151X2IT   C1437578   3.688   8.292  -0.182
 8151X2IT    O537579   3.769   8.382  -0.167
 8151X2IT    O437580   3.578   8.271  -0.104
 8151X2IT   C1337581   3.558   8.365   0.003
 8151X2IT   C1037582   3.487   8.493  -0.046
 8151X2IT    C937583   3.457   8.591   0.064
 8151X2IT    C437584   3.322   8.617   0.071
 8151X2IT    C537585   3.258   8.710   0.170
 8151X2IT    O137586   3.136   8.730   0.166
 8151X2IT    C637587   3.347   8.772   0.266
 8151X2IT   C1237588   3.290   8.867   0.369
 8151X2IT    C737589   3.483   8.747   0.259
 8151X2IT    C837590   3.546   8.653   0.156
 8151X2IT    O237591   3.669   8.634   0.162
 8151X2IT    N337592   3.573   8.802   0.342
 8151X2IT   H1537593   3.549   8.865   0.416
 8151X2IT   H1637594   3.671   8.775   0.328
 8151X2IT    N237595   3.253   8.554  -0.028
 8151X2IT    C337596   3.116   8.500  -0.024
 8151X2IT    C237597   3.139   8.352  -0.054
 8151X2IT    H237598   3.057   8.291  -0.090
 8151X2IT    N137599   3.242   8.292   0.034
 8151X2IT   H1437600   3.230   8.191   0.036
 8151X2IT    C137601   3.278   8.333  -0.103
 8151X2IT    H137602   3.304   8.259  -0.178
 8151X2IT   C1137603   3.345   8.470  -0.110
 8151X2IT    O337604   3.340   8.503  -0.247
 8151X2IT   C1537605   3.359   8.641  -0.281
 8152X2IT   H1837606   1.959   6.507   7.139
 8152X2IT    N437607   2.001   6.516   7.049
 8152X2IT   H1737608   2.089   6.566   7.043
 8152X2IT   C1437609   1.975   6.416   6.959
 8152X2IT    O537610   1.886   6.334   6.970
 8152X2IT    O437611   2.061   6.426   6.853
 8152X2IT   C1337612   2.041   6.330   6.747
 8152X2IT   C1037613   1.931   6.376   6.650
 8152X2IT    C937614   1.912   6.282   6.533
 8152X2IT    C437615   1.931   6.350   6.414
 8152X2IT    C537616   1.920   6.286   6.278
 8152X2IT    O137617   1.935   6.355   6.177
 8152X2IT    C637618   1.891   6.145   6.276
 8152X2IT   C1237619   1.879   6.073   6.143
 8152X2IT    C737620   1.871   6.077   6.395
 8152X2IT    C837621   1.882   6.144   6.532
 8152X2IT    O237622   1.866   6.073   6.633
 8152X2IT    N337623   1.842   5.947   6.403
 8152X2IT   H1537624   1.833   5.887   6.323
 8152X2IT   H1637625   1.831   5.907   6.497
 8152X2IT    N237626   1.953   6.483   6.433
 8152X2IT    C337627   2.037   6.573   6.353
 8152X2IT    C237628   2.138   6.622   6.456
 8152X2IT    H237629   2.193   6.714   6.438
 8152X2IT    N137630   2.203   6.510   6.529
 8152X2IT   H1437631   2.291   6.543   6.569
 8152X2IT    C137632   2.092   6.584   6.592
 8152X2IT    H137633   2.109   6.645   6.680
 8152X2IT   C1137634   1.957   6.514   6.578
 8152X2IT    O337635   1.863   6.614   6.614
 8152X2IT   C1537636   1.727   6.592   6.575
 8153X2IT   H1837637   7.777   0.280   6.708
 8153X2IT    N437638   7.737   0.311   6.621
 8153X2IT   H1737639   7.692   0.401   6.620
 8153X2IT   C1437640   7.797   0.265   6.507
 8153X2IT    O537641   7.875   0.172   6.501
 8153X2IT    O437642   7.753   0.338   6.399
 8153X2IT   C1337643   7.803   0.296   6.271
 8153X2IT   C1037644   7.722   0.179   6.213
 8153X2IT    C937645   7.767   0.138   6.075
 8153X2IT    C437646   7.662   0.147   5.986
 8153X2IT    C537647   7.672   0.114   5.840
 8153X2IT    O137648   7.572   0.122   5.768
 8153X2IT    C637649   7.802   0.073   5.792
 8153X2IT   C1237650   7.821   0.039   5.646
 8153X2IT    C737651   7.907   0.063   5.882
 8153X2IT    C837652   7.895   0.096   6.031
 8153X2IT    O237653   7.996   0.087   6.101
 8153X2IT    N337654   8.031   0.024   5.848
 8153X2IT   H1537655   8.057  -0.000   5.754
 8153X2IT   H1637656   8.101   0.021   5.922
 8153X2IT    N237657   7.545   0.183   6.047
 8153X2IT    C337658   7.436   0.264   5.992
 8153X2IT    C237659   7.430   0.381   6.090
 8153X2IT    H237660   7.340   0.441   6.097
 8153X2IT    N137661   7.563   0.444   6.108
 8153X2IT   H1437662   7.550   0.539   6.144
 8153X2IT    C137663   7.513   0.349   6.209
 8153X2IT    H137664   7.488   0.383   6.309
 8153X2IT   C1137665   7.568   0.208   6.192
 8153X2IT    O337666   7.485   0.128   6.274
 8153X2IT   C1537667   7.486  -0.013   6.250
 8154X2IT   H1837668   3.408   1.452   0.486
 8154X2IT    N437669   3.461   1.421   0.566
 8154X2IT   H1737670   3.561   1.440   0.565
 8154X2IT   C1437671   3.395   1.417   0.685
 8154X2IT    O537672   3.274   1.421   0.699
 8154X2IT    O437673   3.485   1.405   0.787
 8154X2IT   C1337674   3.430   1.393   0.920
 8154X2IT   C1037675   3.388   1.248   0.951
 8154X2IT    C937676   3.335   1.230   1.091
 8154X2IT    C437677   3.410   1.136   1.159
 8154X2IT    C537678   3.385   1.095   1.301
 8154X2IT    O137679   3.456   1.006   1.352
 8154X2IT    C637680   3.278   1.162   1.370
 8154X2IT   C1237681   3.247   1.126   1.514
 8154X2IT    C737682   3.202   1.256   1.302
 8154X2IT    C837683   3.228   1.296   1.157
 8154X2IT    O237684   3.156   1.384   1.107
 8154X2IT    N337685   3.099   1.322   1.357
 8154X2IT   H1537686   3.069   1.309   1.452
 8154X2IT   H1637687   3.051   1.390   1.297
 8154X2IT    N237688   3.504   1.079   1.079
 8154X2IT    C337689   3.638   1.030   1.117
 8154X2IT    C237690   3.729   1.116   1.030
 8154X2IT    H237691   3.831   1.082   1.010
 8154X2IT    N137692   3.700   1.260   1.043
 8154X2IT   H1437693   3.782   1.314   1.013
 8154X2IT    C137694   3.648   1.185   0.927
 8154X2IT    H137695   3.684   1.206   0.827
 8154X2IT   C1137696   3.504   1.141   0.944
 8154X2IT    O337697   3.485   1.046   0.841
 8154X2IT   C1537698   3.372   0.958   0.854
 8155X2IT   H1837699   4.518   5.474   0.372
 8155X2IT    N437700   4.482   5.392   0.418
 8155X2IT   H1737701   4.549   5.322   0.445
 8155X2IT   C1437702   4.369   5.409   0.492
 8155X2IT    O537703   4.294   5.505   0.486
 8155X2IT    O437704   4.349   5.300   0.572
 8155X2IT   C1337705   4.229   5.300   0.652
 8155X2IT   C1037706   4.108   5.251   0.572
 8155X2IT    C937707   3.981   5.244   0.654
 8155X2IT    C437708   3.931   5.115   0.653
 8155X2IT    C537709   3.806   5.073   0.725
 8155X2IT    O137710   3.767   4.956   0.715
 8155X2IT    C637711   3.740   5.174   0.803
 8155X2IT   C1237712   3.613   5.138   0.879
 8155X2IT    C737713   3.789   5.303   0.803
 8155X2IT    C837714   3.916   5.345   0.728
 8155X2IT    O237715   3.954   5.463   0.740
 8155X2IT    N337716   3.733   5.404   0.871
 8155X2IT   H1537717   3.650   5.394   0.927
 8155X2IT   H1637718   3.779   5.496   0.866
 8155X2IT    N237719   4.003   5.033   0.571
 8155X2IT    C337720   4.029   4.889   0.588
 8155X2IT    C237721   4.181   4.884   0.596
 8155X2IT    H237722   4.233   4.791   0.576
 8155X2IT    N137723   4.235   4.978   0.697
 8155X2IT   H1437724   4.329   4.948   0.724
 8155X2IT    C137725   4.236   5.015   0.555
 8155X2IT    H137726   4.330   5.026   0.501
 8155X2IT   C1137727   4.120   5.105   0.514
 8155X2IT    O337728   4.121   5.101   0.373
 8155X2IT   C1537729   4.002   5.143   0.306
 8156X2IT   H1837730   9.163   8.162  -0.084
 8156X2IT    N437731   9.122   8.213  -0.008
 8156X2IT   H1737732   9.099   8.310  -0.024
 8156X2IT   C1437733   9.045   8.140   0.079
 8156X2IT    O537734   9.045   8.018   0.088
 8156X2IT    O437735   8.971   8.224   0.157
 8156X2IT   C1337736   8.890   8.161   0.258
 8156X2IT   C1037737   8.972   8.130   0.385
 8156X2IT    C937738   8.889   8.071   0.496
 8156X2IT    C437739   8.897   8.150   0.610
 8156X2IT    C537740   8.826   8.120   0.738
 8156X2IT    O137741   8.842   8.194   0.836
 8156X2IT    C637742   8.741   8.003   0.739
 8156X2IT   C1237743   8.666   7.967   0.866
 8156X2IT    C737744   8.734   7.923   0.626
 8156X2IT    C837745   8.808   7.955   0.496
 8156X2IT    O237746   8.790   7.879   0.399
 8156X2IT    N337747   8.660   7.812   0.618
 8156X2IT   H1537748   8.603   7.777   0.694
 8156X2IT   H1637749   8.660   7.761   0.529
 8156X2IT    N237750   8.984   8.253   0.594
 8156X2IT    C337751   8.976   8.388   0.652
 8156X2IT    C237752   8.970   8.477   0.529
 8156X2IT    H237753   8.996   8.582   0.537
 8156X2IT    N137754   8.864   8.435   0.434
 8156X2IT   H1437755   8.840   8.513   0.373
 8156X2IT    C137756   9.004   8.396   0.409
 8156X2IT    H137757   9.058   8.437   0.324
 8156X2IT   C1137758   9.038   8.255   0.455
 8156X2IT    O337759   9.179   8.251   0.453
 8156X2IT   C1537760   9.242   8.146   0.527
 8157X2IT   H1837761   1.168   6.933   6.976
 8157X2IT    N437762   1.099   6.999   6.945
 8157X2IT   H1737763   1.035   7.035   7.015
 8157X2IT   C1437764   1.134   7.080   6.840
 8157X2IT    O537765   1.228   7.059   6.765
 8157X2IT    O437766   1.046   7.184   6.830
 8157X2IT   C1337767   1.067   7.273   6.719
 8157X2IT   C1037768   1.004   7.219   6.590
 8157X2IT    C937769   1.017   7.313   6.473
 8157X2IT    C437770   0.892   7.346   6.423
 8157X2IT    C537771   0.870   7.439   6.307
 8157X2IT    O137772   0.755   7.459   6.266
 8157X2IT    C637773   0.988   7.498   6.248
 8157X2IT   C1237774   0.972   7.593   6.131
 8157X2IT    C737775   1.112   7.465   6.297
 8157X2IT    C837776   1.134   7.369   6.415
 8157X2IT    O237777   1.250   7.350   6.454
 8157X2IT    N337778   1.228   7.513   6.248
 8157X2IT   H1537779   1.232   7.579   6.172
 8157X2IT   H1637780   1.314   7.483   6.293
 8157X2IT    N237781   0.793   7.278   6.486
 8157X2IT    C337782   0.656   7.324   6.514
 8157X2IT    C237783   0.650   7.317   6.666
 8157X2IT    H237784   0.553   7.313   6.716
 8157X2IT    N137785   0.763   7.389   6.730
 8157X2IT   H1437786   0.738   7.412   6.826
 8157X2IT    C137787   0.767   7.242   6.716
 8157X2IT    H137788   0.764   7.178   6.804
 8157X2IT   C1137789   0.848   7.195   6.596
 8157X2IT    O337790   0.813   7.058   6.582
 8157X2IT   C1537791   0.842   6.996   6.456
 8158X2IT   H1837792   2.723   4.371   6.511
 8158X2IT    N437793   2.693   4.416   6.596
 8158X2IT   H1737794   2.766   4.449   6.658
 8158X2IT   C1437795   2.574   4.484   6.590
 8158X2IT    O537796   2.490   4.471   6.503
 8158X2IT    O437797   2.562   4.565   6.700
 8158X2IT   C1337798   2.438   4.637   6.711
 8158X2IT   C1037799   2.327   4.551   6.774
 8158X2IT    C937800   2.198   4.625   6.794
 8158X2IT    C437801   2.162   4.623   6.928
 8158X2IT    C537802   2.038   4.689   6.982
 8158X2IT    O137803   2.011   4.679   7.103
 8158X2IT    C637804   1.956   4.760   6.887
 8158X2IT   C1237805   1.830   4.830   6.936
 8158X2IT    C737806   1.992   4.762   6.754
 8158X2IT    C837807   2.117   4.694   6.700
 8158X2IT    O237808   2.142   4.705   6.578
 8158X2IT    N337809   1.921   4.824   6.658
 8158X2IT   H1537810   1.837   4.875   6.677
 8158X2IT   H1637811   1.958   4.820   6.563
 8158X2IT    N237812   2.246   4.548   7.002
 8158X2IT    C337813   2.286   4.569   7.143
 8158X2IT    C237814   2.437   4.586   7.131
 8158X2IT    H237815   2.500   4.570   7.218
 8158X2IT    N137816   2.475   4.688   7.031
 8158X2IT   H1437817   2.570   4.721   7.050
 8158X2IT    C137818   2.481   4.545   6.995
 8158X2IT    H137819   2.576   4.497   6.975
 8158X2IT   C1137820   2.359   4.497   6.919
 8158X2IT    O337821   2.368   4.356   6.924
 8158X2IT   C1537822   2.250   4.281   6.896
 8159X2IT   H1837823   1.038   6.128   6.540
 8159X2IT    N437824   1.047   6.208   6.600
 8159X2IT   H1737825   1.026   6.298   6.560
 8159X2IT   C1437826   1.023   6.187   6.733
 8159X2IT    O537827   1.019   6.077   6.787
 8159X2IT    O437828   1.007   6.306   6.797
 8159X2IT   C1337829   0.988   6.299   6.940
 8159X2IT   C1037830   1.122   6.287   7.015
 8159X2IT    C937831   1.106   6.287   7.165
 8159X2IT    C437832   1.179   6.391   7.221
 8159X2IT    C537833   1.184   6.419   7.368
 8159X2IT    O137834   1.255   6.512   7.409
 8159X2IT    C637835   1.106   6.334   7.453
 8159X2IT   C1237836   1.106   6.357   7.603
 8159X2IT    C737837   1.034   6.229   7.398
 8159X2IT    C837838   1.030   6.201   7.247
 8159X2IT    O237839   0.959   6.107   7.208
 8159X2IT    N337840   0.960   6.143   7.469
 8159X2IT   H1537841   0.949   6.149   7.569
 8159X2IT   H1637842   0.909   6.071   7.417
 8159X2IT    N237843   1.250   6.459   7.128
 8159X2IT    C337844   1.284   6.602   7.126
 8159X2IT    C237845   1.220   6.648   6.996
 8159X2IT    H237846   1.254   6.741   6.949
 8159X2IT    N137847   1.077   6.609   6.986
 8159X2IT   H1437848   1.030   6.670   6.919
 8159X2IT    C137849   1.180   6.530   6.916
 8159X2IT    H137850   1.183   6.529   6.807
 8159X2IT   C1137851   1.223   6.406   6.991
 8159X2IT    O337852   1.342   6.365   6.925
 8159X2IT   C1537853   1.427   6.274   6.996
 8160X2IT   H1837854  -0.174   3.885  -0.082
 8160X2IT    N437855  -0.155   3.976  -0.043
 8160X2IT   H1737856  -0.217   4.051  -0.070
 8160X2IT   C1437857  -0.095   3.979   0.080
 8160X2IT    O537858  -0.040   3.884   0.133
 8160X2IT    O437859  -0.103   4.104   0.132
 8160X2IT   C1337860  -0.038   4.124   0.260
 8160X2IT   C1037861   0.112   4.151   0.242
 8160X2IT    C937862   0.183   4.179   0.373
 8160X2IT    C437863   0.244   4.303   0.369
 8160X2IT    C537864   0.322   4.362   0.483
 8160X2IT    O137865   0.377   4.472   0.468
 8160X2IT    C637866   0.329   4.283   0.604
 8160X2IT   C1237867   0.406   4.337   0.723
 8160X2IT    C737868   0.269   4.159   0.608
 8160X2IT    C837869   0.190   4.100   0.490
 8160X2IT    O237870   0.136   3.989   0.507
 8160X2IT    N337871   0.271   4.078   0.715
 8160X2IT   H1537872   0.317   4.102   0.801
 8160X2IT   H1637873   0.221   3.989   0.707
 8160X2IT    N237874   0.232   4.361   0.247
 8160X2IT    C337875   0.221   4.505   0.216
 8160X2IT    C237876   0.086   4.512   0.145
 8160X2IT    H237877   0.063   4.597   0.081
 8160X2IT    N137878  -0.022   4.448   0.223
 8160X2IT   H1437879  -0.112   4.483   0.192
 8160X2IT    C137880   0.041   4.374   0.111
 8160X2IT    H137881  -0.015   4.351   0.022
 8160X2IT   C1137882   0.149   4.277   0.156
 8160X2IT    O337883   0.218   4.244   0.037
 8160X2IT   C1537884   0.348   4.186   0.050
 8161X2IT   H1837885   3.126   2.545   0.657
 8161X2IT    N437886   3.131   2.569   0.754
 8161X2IT   H1737887   3.069   2.641   0.788
 8161X2IT   C1437888   3.169   2.469   0.840
 8161X2IT    O537889   3.222   2.364   0.806
 8161X2IT    O437890   3.143   2.506   0.969
 8161X2IT   C1337891   3.184   2.412   1.071
 8161X2IT   C1037892   3.333   2.429   1.106
 8161X2IT    C937893   3.378   2.337   1.217
 8161X2IT    C437894   3.430   2.412   1.322
 8161X2IT    C537895   3.483   2.352   1.449
 8161X2IT    O137896   3.531   2.426   1.536
 8161X2IT    C637897   3.475   2.208   1.461
 8161X2IT   C1237898   3.527   2.141   1.586
 8161X2IT    C737899   3.424   2.134   1.355
 8161X2IT    C837900   3.371   2.196   1.226
 8161X2IT    O237901   3.324   2.120   1.140
 8161X2IT    N337902   3.415   2.000   1.356
 8161X2IT   H1537903   3.444   1.943   1.434
 8161X2IT   H1637904   3.374   1.955   1.274
 8161X2IT    N237905   3.434   2.544   1.293
 8161X2IT    C337906   3.417   2.657   1.386
 8161X2IT    C237907   3.296   2.729   1.327
 8161X2IT    H237908   3.278   2.834   1.352
 8161X2IT    N137909   3.181   2.638   1.306
 8161X2IT   H1437910   3.095   2.692   1.300
 8161X2IT    C137911   3.268   2.675   1.192
 8161X2IT    H137912   3.229   2.736   1.111
 8161X2IT   C1137913   3.374   2.571   1.160
 8161X2IT    O337914   3.464   2.639   1.074
 8161X2IT   C1537915   3.594   2.581   1.057
   9.48825   8.49895   7.17654
