UNITED ATOM STRUCTURE FOR MOLECULE UNK
12394
    0X2IT   H18    1   3.092   2.352   2.583
    0X2IT    N4    2   3.026   2.419   2.548
    0X2IT   H17    3   3.059   2.484   2.478
    0X2IT   C14    4   2.895   2.380   2.546
    0X2IT    O5    5   2.849   2.285   2.607
    0X2IT    O4    6   2.822   2.466   2.469
    0X2IT   C13    7   2.680   2.441   2.463
    0X2IT   C10    8   2.607   2.502   2.584
    0X2IT    C9    9   2.457   2.484   2.578
    0X2IT    C4   10   2.394   2.607   2.582
    0X2IT    C5   11   2.245   2.625   2.577
    0X2IT    O1   12   2.197   2.739   2.585
    0X2IT    C6   13   2.166   2.505   2.564
    0X2IT   C12   14   2.015   2.516   2.558
    0X2IT    C7   15   2.229   2.382   2.561
    0X2IT    C8   16   2.381   2.365   2.567
    0X2IT    O2   17   2.427   2.250   2.559
    0X2IT    N3   18   2.164   2.265   2.551
    0X2IT   H15   19   2.064   2.258   2.544
    0X2IT   H16   20   2.221   2.180   2.548
    0X2IT    N2   21   2.482   2.709   2.599
    0X2IT    C3   22   2.473   2.846   2.546
    0X2IT    C2   23   2.599   2.856   2.461
    0X2IT    H2   24   2.639   2.954   2.435
    0X2IT    N1   25   2.611   2.744   2.365
    0X2IT   H14   26   2.674   2.771   2.289
    0X2IT    C1   27   2.688   2.741   2.491
    0X2IT    H1   28   2.796   2.748   2.490
    0X2IT   C11   29   2.622   2.658   2.600
    0X2IT    O3   30   2.691   2.695   2.718
    0X2IT   C15   31   2.628   2.664   2.843
    1X2IT   H18   32   2.466   1.506   4.876
    1X2IT    N4   33   2.565   1.492   4.886
    1X2IT   H17   34   2.601   1.400   4.868
    1X2IT   C14   35   2.644   1.601   4.862
    1X2IT    O5   36   2.606   1.716   4.856
    1X2IT    O4   37   2.775   1.561   4.849
    1X2IT   C13   38   2.871   1.667   4.829
    1X2IT   C10   39   2.913   1.731   4.963
    1X2IT    C9   40   3.019   1.837   4.947
    1X2IT    C4   41   3.131   1.805   5.022
    1X2IT    C5   42   3.255   1.889   5.028
    1X2IT    O1   43   3.349   1.853   5.101
    1X2IT    C6   44   3.256   2.008   4.948
    1X2IT   C12   45   3.378   2.097   4.949
    1X2IT    C7   46   3.144   2.041   4.873
    1X2IT    C8   47   3.018   1.955   4.869
    1X2IT    O2   48   2.925   1.992   4.795
    1X2IT    N3   49   3.135   2.151   4.797
    1X2IT   H15   50   3.210   2.217   4.787
    1X2IT   H16   51   3.048   2.165   4.745
    1X2IT    N2   52   3.112   1.692   5.096
    1X2IT    C3   53   3.211   1.590   5.133
    1X2IT    C2   54   3.153   1.464   5.070
    1X2IT    H2   55   3.185   1.366   5.106
    1X2IT    N1   56   3.121   1.482   4.927
    1X2IT   H14   57   3.117   1.391   4.881
    1X2IT    C1   58   3.014   1.490   5.027
    1X2IT    H1   59   2.936   1.415   5.031
    1X2IT   C11   60   2.978   1.632   5.067
    1X2IT    O3   61   2.901   1.617   5.185
    1X2IT   C15   62   2.884   1.733   5.268
    2X2IT   H18   63   2.461   1.970   3.794
    2X2IT    N4   64   2.427   2.052   3.747
    2X2IT   H17   65   2.328   2.070   3.752
    2X2IT   C14   66   2.514   2.158   3.741
    2X2IT    O5   67   2.634   2.152   3.761
    2X2IT    O4   68   2.446   2.271   3.705
    2X2IT   C13   69   2.526   2.390   3.688
    2X2IT   C10   70   2.590   2.395   3.548
    2X2IT    C9   71   2.669   2.522   3.524
    2X2IT    C4   72   2.620   2.588   3.413
    2X2IT    C5   73   2.675   2.718   3.362
    2X2IT    O1   74   2.626   2.768   3.259
    2X2IT    C6   75   2.784   2.776   3.437
    2X2IT   C12   76   2.844   2.907   3.390
    2X2IT    C7   77   2.834   2.709   3.547
    2X2IT    C8   78   2.777   2.576   3.598
    2X2IT    O2   79   2.827   2.527   3.700
    2X2IT    N3   80   2.936   2.754   3.621
    2X2IT   H15   81   2.983   2.841   3.603
    2X2IT   H16   82   2.964   2.697   3.702
    2X2IT    N2   83   2.521   2.518   3.352
    2X2IT    C3   84   2.403   2.571   3.280
    2X2IT    C2   85   2.288   2.512   3.360
    2X2IT    H2   86   2.189   2.505   3.315
    2X2IT    N1   87   2.300   2.538   3.505
    2X2IT   H14   88   2.208   2.529   3.549
    2X2IT    C1   89   2.340   2.407   3.451
    2X2IT    H1   90   2.284   2.318   3.477
    2X2IT   C11   91   2.489   2.394   3.427
    2X2IT    O3   92   2.501   2.278   3.346
    2X2IT   C15   93   2.625   2.261   3.275
    3X2IT   H18   94   2.729   0.271   3.315
    3X2IT    N4   95   2.666   0.336   3.270
    3X2IT   H17   96   2.655   0.426   3.315
    3X2IT   C14   97   2.656   0.327   3.135
    3X2IT    O5   98   2.692   0.232   3.067
    3X2IT    O4   99   2.594   0.438   3.085
    3X2IT   C13  100   2.570   0.440   2.943
    3X2IT   C10  101   2.441   0.364   2.907
    3X2IT    C9  102   2.408   0.369   2.760
    3X2IT    C4  103   2.283   0.425   2.740
    3X2IT    C5  104   2.220   0.445   2.605
    3X2IT    O1  105   2.106   0.493   2.598
    3X2IT    C6  106   2.299   0.406   2.491
    3X2IT   C12  107   2.242   0.424   2.352
    3X2IT    C7  108   2.424   0.349   2.510
    3X2IT    C8  109   2.486   0.328   2.649
    3X2IT    O2  110   2.600   0.280   2.654
    3X2IT    N3  111   2.503   0.308   2.411
    3X2IT   H15  112   2.479   0.316   2.314
    3X2IT   H16  113   2.594   0.269   2.437
    3X2IT    N2  114   2.220   0.452   2.858
    3X2IT    C3  115   2.127   0.562   2.888
    3X2IT    C2  116   2.199   0.635   3.000
    3X2IT    H2  117   2.143   0.701   3.066
    3X2IT    N1  118   2.339   0.669   2.965
    3X2IT   H14  119   2.372   0.745   3.024
    3X2IT    C1  120   2.311   0.551   3.050
    3X2IT    H1  121   2.342   0.550   3.154
    3X2IT   C11  122   2.309   0.420   2.973
    3X2IT    O3  123   2.249   0.329   3.063
    3X2IT   C15  124   2.198   0.207   3.007
    4X2IT   H18  125   0.337   2.250   1.571
    4X2IT    N4  126   0.425   2.298   1.566
    4X2IT   H17  127   0.492   2.279   1.638
    4X2IT   C14  128   0.469   2.328   1.440
    4X2IT    O5  129   0.401   2.328   1.339
    4X2IT    O4  130   0.601   2.364   1.445
    4X2IT   C13  131   0.660   2.406   1.320
    4X2IT   C10  132   0.631   2.554   1.291
    4X2IT    C9  133   0.697   2.604   1.164
    4X2IT    C4  134   0.780   2.711   1.193
    4X2IT    C5  135   0.861   2.783   1.090
    4X2IT    O1  136   0.930   2.881   1.123
    4X2IT    C6  137   0.853   2.734   0.954
    4X2IT   C12  138   0.933   2.802   0.845
    4X2IT    C7  139   0.769   2.627   0.926
    4X2IT    C8  140   0.686   2.555   1.032
    4X2IT    O2  141   0.618   2.458   0.996
    4X2IT    N3  142   0.754   2.575   0.803
    4X2IT   H15  143   0.802   2.610   0.722
    4X2IT   H16  144   0.690   2.495   0.794
    4X2IT    N2  145   0.773   2.748   1.323
    4X2IT    C3  146   0.880   2.803   1.407
    4X2IT    C2  147   0.890   2.700   1.519
    4X2IT    H2  148   0.936   2.727   1.614
    4X2IT    N1  149   0.906   2.562   1.467
    4X2IT   H14  150   0.946   2.503   1.540
    4X2IT    C1  151   0.773   2.609   1.512
    4X2IT    H1  152   0.727   2.566   1.600
    4X2IT   C11  153   0.683   2.656   1.399
    4X2IT    O3  154   0.579   2.726   1.464
    4X2IT   C15  155   0.500   2.814   1.385
    5X2IT   H18  156   0.989   0.637   0.496
    5X2IT    N4  157   1.010   0.602   0.404
    5X2IT   H17  158   1.001   0.668   0.328
    5X2IT   C14  159   1.104   0.503   0.396
    5X2IT    O5  160   1.142   0.435   0.490
    5X2IT    O4  161   1.145   0.488   0.267
    5X2IT   C13  162   1.239   0.381   0.242
    5X2IT   C10  163   1.168   0.246   0.226
    5X2IT    C9  164   1.262   0.133   0.193
    5X2IT    C4  165   1.226   0.073   0.073
    5X2IT    C5  166   1.300  -0.042   0.011
    5X2IT    O1  167   1.258  -0.091  -0.095
    5X2IT    C6  168   1.417  -0.089   0.081
    5X2IT   C12  169   1.496  -0.204   0.023
    5X2IT    C7  170   1.452  -0.030   0.201
    5X2IT    C8  171   1.376   0.087   0.264
    5X2IT    O2  172   1.420   0.134   0.370
    5X2IT    N3  173   1.558  -0.068   0.274
    5X2IT   H15  174   1.620  -0.142   0.247
    5X2IT   H16  175   1.576  -0.017   0.361
    5X2IT    N2  176   1.112   0.126   0.022
    5X2IT    C3  177   1.075   0.144  -0.119
    5X2IT    C2  178   1.056   0.295  -0.129
    5X2IT    H2  179   0.997   0.336  -0.210
    5X2IT    N1  180   1.172   0.370  -0.076
    5X2IT   H14  181   1.172   0.464  -0.115
    5X2IT    C1  182   1.052   0.353   0.008
    5X2IT    H1  183   0.990   0.438   0.034
    5X2IT   C11  184   1.064   0.239   0.108
    5X2IT    O3  185   0.931   0.218   0.152
    5X2IT   C15  186   0.902   0.094   0.217
    6X2IT   H18  187   4.175   2.660   4.004
    6X2IT    N4  188   4.206   2.728   3.937
    6X2IT   H17  189   4.141   2.802   3.914
    6X2IT   C14  190   4.340   2.754   3.934
    6X2IT    O5  191   4.426   2.684   3.984
    6X2IT    O4  192   4.364   2.868   3.863
    6X2IT   C13  193   4.502   2.905   3.846
    6X2IT   C10  194   4.566   2.829   3.728
    6X2IT    C9  195   4.709   2.869   3.702
    6X2IT    C4  196   4.723   2.916   3.573
    6X2IT    C5  197   4.853   2.966   3.515
    6X2IT    O1  198   4.857   3.003   3.397
    6X2IT    C6  199   4.967   2.966   3.603
    6X2IT   C12  200   5.101   3.014   3.552
    6X2IT    C7  201   4.953   2.918   3.732
    6X2IT    C8  202   4.821   2.867   3.790
    6X2IT    O2  203   4.819   2.830   3.909
    6X2IT    N3  204   5.054   2.912   3.821
    6X2IT   H15  205   5.147   2.943   3.800
    6X2IT   H16  206   5.032   2.876   3.914
    6X2IT    N2  207   4.608   2.906   3.502
    6X2IT    C3  208   4.558   2.995   3.396
    6X2IT    C2  209   4.425   3.042   3.454
    6X2IT    H2  210   4.349   3.083   3.387
    6X2IT    N1  211   4.440   3.097   3.591
    6X2IT   H14  212   4.361   3.158   3.612
    6X2IT    C1  213   4.390   2.959   3.572
    6X2IT    H1  214   4.288   2.933   3.597
    6X2IT   C11  215   4.498   2.853   3.588
    6X2IT    O3  216   4.440   2.736   3.534
    6X2IT   C15  217   4.528   2.629   3.499
    7X2IT   H18  218   4.057   4.018   0.905
    7X2IT    N4  219   4.153   4.048   0.905
    7X2IT   H17  220   4.189   4.089   0.820
    7X2IT   C14  221   4.202   4.091   1.025
    7X2IT    O5  222   4.151   4.070   1.134
    7X2IT    O4  223   4.320   4.157   1.006
    7X2IT   C13  224   4.388   4.203   1.125
    7X2IT   C10  225   4.472   4.091   1.189
    7X2IT    C9  226   4.550   4.136   1.310
    7X2IT    C4  227   4.685   4.115   1.291
    7X2IT    C5  228   4.791   4.149   1.392
    7X2IT    O1  229   4.909   4.123   1.367
    7X2IT    C6  230   4.745   4.212   1.513
    7X2IT   C12  231   4.847   4.250   1.619
    7X2IT    C7  232   4.610   4.233   1.533
    7X2IT    C8  233   4.503   4.196   1.430
    7X2IT    O2  234   4.385   4.223   1.456
    7X2IT    N3  235   4.558   4.289   1.643
    7X2IT   H15  236   4.614   4.320   1.721
    7X2IT   H16  237   4.456   4.301   1.646
    7X2IT    N2  238   4.710   4.051   1.174
    7X2IT    C3  239   4.828   4.066   1.086
    7X2IT    C2  240   4.765   4.113   0.956
    7X2IT    H2  241   4.819   4.102   0.862
    7X2IT    N1  242   4.676   4.230   0.975
    7X2IT   H14  243   4.664   4.279   0.886
    7X2IT    C1  244   4.617   4.095   0.962
    7X2IT    H1  245   4.557   4.069   0.877
    7X2IT   C11  246   4.585   4.031   1.096
    7X2IT    O3  247   4.563   3.894   1.065
    7X2IT   C15  248   4.568   3.800   1.173
    8X2IT   H18  249   1.571   2.680   3.468
    8X2IT    N4  250   1.592   2.607   3.534
    8X2IT   H17  251   1.655   2.534   3.503
    8X2IT   C14  252   1.591   2.642   3.666
    8X2IT    O5  253   1.539   2.743   3.711
    8X2IT    O4  254   1.651   2.545   3.740
    8X2IT   C13  255   1.650   2.565   3.883
    8X2IT   C10  256   1.518   2.519   3.946
    8X2IT    C9  257   1.516   2.532   4.097
    8X2IT    C4  258   1.492   2.409   4.155
    8X2IT    C5  259   1.485   2.386   4.304
    8X2IT    O1  260   1.459   2.273   4.347
    8X2IT    C6  261   1.508   2.502   4.387
    8X2IT   C12  262   1.502   2.486   4.538
    8X2IT    C7  263   1.531   2.625   4.329
    8X2IT    C8  264   1.537   2.646   4.178
    8X2IT    O2  265   1.563   2.760   4.136
    8X2IT    N3  266   1.552   2.738   4.399
    8X2IT   H15  267   1.553   2.741   4.499
    8X2IT   H16  268   1.569   2.823   4.345
    8X2IT    N2  269   1.468   2.312   4.063
    8X2IT    C3  270   1.502   2.169   4.071
    8X2IT    C2  271   1.593   2.151   3.950
    8X2IT    H2  272   1.609   2.052   3.908
    8X2IT    N1  273   1.703   2.250   3.948
    8X2IT   H14  274   1.779   2.215   3.889
    8X2IT    C1  275   1.584   2.272   3.863
    8X2IT    H1  276   1.592   2.267   3.755
    8X2IT   C11  277   1.483   2.366   3.925
    8X2IT    O3  278   1.366   2.347   3.848
    8X2IT   C15  279   1.242   2.393   3.904
    9X2IT   H18  280   1.219   2.719   3.927
    9X2IT    N4  281   1.184   2.712   4.020
    9X2IT   H17  282   1.232   2.764   4.092
    9X2IT   C14  283   1.049   2.691   4.034
    9X2IT    O5  284   0.975   2.652   3.945
    9X2IT    O4  285   1.011   2.714   4.162
    9X2IT   C13  286   0.872   2.689   4.193
    9X2IT   C10  287   0.847   2.540   4.222
    9X2IT    C9  288   0.704   2.511   4.262
    9X2IT    C4  289   0.700   2.452   4.387
    9X2IT    C5  290   0.573   2.411   4.456
    9X2IT    O1  291   0.579   2.355   4.566
    9X2IT    C6  292   0.450   2.439   4.386
    9X2IT   C12  293   0.318   2.400   4.450
    9X2IT    C7  294   0.454   2.497   4.261
    9X2IT    C8  295   0.584   2.537   4.191
    9X2IT    O2  296   0.576   2.593   4.080
    9X2IT    N3  297   0.345   2.525   4.188
    9X2IT   H15  298   0.251   2.506   4.219
    9X2IT   H16  299   0.360   2.569   4.097
    9X2IT    N2  300   0.824   2.429   4.436
    9X2IT    C3  301   0.867   2.432   4.577
    9X2IT    C2  302   0.974   2.540   4.575
    9X2IT    H2  303   1.049   2.544   4.655
    9X2IT    N1  304   0.926   2.666   4.513
    9X2IT   H14  305   0.985   2.744   4.544
    9X2IT    C1  306   1.009   2.573   4.434
    9X2IT    H1  307   1.109   2.600   4.403
    9X2IT   C11  308   0.928   2.481   4.344
    9X2IT    O3  309   1.020   2.381   4.305
    9X2IT   C15  310   0.966   2.260   4.251
   10X2IT   H18  311   2.882   4.537   2.302
   10X2IT    N4  312   2.852   4.516   2.396
   10X2IT   H17  313   2.866   4.420   2.427
   10X2IT   C14  314   2.859   4.617   2.487
   10X2IT    O5  315   2.871   4.736   2.459
   10X2IT    O4  316   2.847   4.568   2.613
   10X2IT   C13  317   2.846   4.665   2.720
   10X2IT   C10  318   2.706   4.725   2.740
   10X2IT    C9  319   2.698   4.822   2.856
   10X2IT    C4  320   2.604   4.780   2.947
   10X2IT    C5  321   2.572   4.853   3.075
   10X2IT    O1  322   2.483   4.811   3.149
   10X2IT    C6  323   2.649   4.973   3.101
   10X2IT   C12  324   2.623   5.051   3.228
   10X2IT    C7  325   2.743   5.015   3.009
   10X2IT    C8  326   2.774   4.940   2.879
   10X2IT    O2  327   2.863   4.984   2.805
   10X2IT    N3  328   2.818   5.125   3.023
   10X2IT   H15  329   2.812   5.186   3.104
   10X2IT   H16  330   2.885   5.146   2.949
   10X2IT    N2  331   2.538   4.669   2.906
   10X2IT    C3  332   2.484   4.559   2.988
   10X2IT    C2  333   2.559   4.439   2.933
   10X2IT    H2  334   2.519   4.339   2.949
   10X2IT    N1  335   2.706   4.460   2.931
   10X2IT   H14  336   2.753   4.369   2.928
   10X2IT    C1  337   2.627   4.476   2.807
   10X2IT    H1  338   2.640   4.407   2.724
   10X2IT   C11  339   2.593   4.621   2.776
   10X2IT    O3  340   2.493   4.611   2.676
   10X2IT   C15  341   2.412   4.728   2.653
   11X2IT   H18  342   0.735   3.687   4.769
   11X2IT    N4  343   0.793   3.743   4.709
   11X2IT   H17  344   0.892   3.742   4.727
   11X2IT   C14  345   0.748   3.760   4.581
   11X2IT    O5  346   0.635   3.738   4.542
   11X2IT    O4  347   0.849   3.810   4.503
   11X2IT   C13  348   0.814   3.840   4.366
   11X2IT   C10  349   0.748   3.978   4.353
   11X2IT    C9  350   0.717   4.016   4.210
   11X2IT    C4  351   0.780   4.134   4.177
   11X2IT    C5  352   0.771   4.200   4.042
   11X2IT    O1  353   0.828   4.308   4.023
   11X2IT    C6  354   0.693   4.131   3.942
   11X2IT   C12  355   0.679   4.191   3.804
   11X2IT    C7  356   0.629   4.013   3.976
   11X2IT    C8  357   0.638   3.948   4.114
   11X2IT    O2  358   0.580   3.839   4.132
   11X2IT    N3  359   0.552   3.942   3.891
   11X2IT   H15  360   0.537   3.970   3.795
   11X2IT   H16  361   0.511   3.856   3.926
   11X2IT    N2  362   0.845   4.189   4.283
   11X2IT    C3  363   0.970   4.267   4.282
   11X2IT    C2  364   1.062   4.183   4.369
   11X2IT    H2  365   1.150   4.228   4.415
   11X2IT    N1  366   1.067   4.042   4.325
   11X2IT   H14  367   1.152   3.998   4.361
   11X2IT    C1  368   0.982   4.080   4.440
   11X2IT    H1  369   1.005   4.045   4.540
   11X2IT   C11  370   0.836   4.100   4.402
   11X2IT    O3  371   0.780   4.166   4.514
   11X2IT   C15  372   0.655   4.234   4.494
   12X2IT   H18  373   4.093   3.725   3.753
   12X2IT    N4  374   4.082   3.796   3.823
   12X2IT   H17  375   4.147   3.874   3.820
   12X2IT   C14  376   3.956   3.816   3.871
   12X2IT    O5  377   3.862   3.739   3.857
   12X2IT    O4  378   3.951   3.933   3.940
   12X2IT   C13  379   3.824   3.965   4.002
   12X2IT   C10  380   3.809   3.894   4.138
   12X2IT    C9  381   3.681   3.930   4.210
   12X2IT    C4  382   3.709   3.984   4.334
   12X2IT    C5  383   3.604   4.031   4.431
   12X2IT    O1  384   3.639   4.075   4.541
   12X2IT    C6  385   3.467   4.021   4.387
   12X2IT   C12  386   3.356   4.067   4.479
   12X2IT    C7  387   3.439   3.965   4.263
   12X2IT    C8  388   3.547   3.917   4.166
   12X2IT    O2  389   3.510   3.873   4.056
   12X2IT    N3  390   3.315   3.950   4.215
   12X2IT   H15  391   3.232   3.978   4.265
   12X2IT   H16  392   3.306   3.909   4.122
   12X2IT    N2  393   3.842   3.983   4.361
   12X2IT    C3  394   3.919   4.080   4.440
   12X2IT    C2  395   4.021   4.130   4.338
   12X2IT    H2  396   4.113   4.178   4.372
   12X2IT    N1  397   3.957   4.175   4.212
   12X2IT   H14  398   4.021   4.238   4.163
   12X2IT    C1  399   4.019   4.041   4.219
   12X2IT    H1  400   4.108   4.019   4.161
   12X2IT   C11  401   3.919   3.930   4.245
   12X2IT    O3  402   4.000   3.819   4.281
   12X2IT   C15  403   3.935   3.711   4.349
   13X2IT   H18  404   0.765   2.370   1.982
   13X2IT    N4  405   0.834   2.298   1.976
   13X2IT   H17  406   0.855   2.261   1.884
   13X2IT   C14  407   0.933   2.300   2.071
   13X2IT    O5  408   0.929   2.363   2.175
   13X2IT    O4  409   1.035   2.217   2.033
   13X2IT   C13  410   1.144   2.204   2.127
   13X2IT   C10  411   1.112   2.101   2.236
   13X2IT    C9  412   1.226   2.079   2.333
   13X2IT    C4  413   1.264   1.946   2.333
   13X2IT    C5  414   1.376   1.891   2.417
   13X2IT    O1  415   1.400   1.770   2.414
   13X2IT    C6  416   1.447   1.986   2.499
   13X2IT   C12  417   1.561   1.937   2.586
   13X2IT    C7  418   1.409   2.118   2.500
   13X2IT    C8  419   1.294   2.173   2.414
   13X2IT    O2  420   1.271   2.295   2.419
   13X2IT    N3  421   1.468   2.213   2.574
   13X2IT   H15  422   1.546   2.195   2.635
   13X2IT   H16  423   1.432   2.309   2.565
   13X2IT    N2  424   1.184   1.870   2.254
   13X2IT    C3  425   1.221   1.751   2.176
   13X2IT    C2  426   1.186   1.794   2.034
   13X2IT    H2  427   1.171   1.719   1.957
   13X2IT    N1  428   1.248   1.924   1.998
   13X2IT   H14  429   1.253   1.932   1.896
   13X2IT    C1  430   1.106   1.919   2.038
   13X2IT    H1  431   1.027   1.941   1.967
   13X2IT   C11  432   1.083   1.955   2.185
   13X2IT    O3  433   0.951   1.912   2.210
   13X2IT   C15  434   0.913   1.896   2.348
   14X2IT   H18  435   2.700   3.709   4.502
   14X2IT    N4  436   2.677   3.754   4.589
   14X2IT   H17  437   2.603   3.712   4.644
   14X2IT   C14  438   2.779   3.819   4.652
   14X2IT    O5  439   2.885   3.851   4.601
   14X2IT    O4  440   2.743   3.847   4.781
   14X2IT   C13  441   2.839   3.922   4.858
   14X2IT   C10  442   2.827   4.073   4.832
   14X2IT    C9  443   2.921   4.156   4.916
   14X2IT    C4  444   2.849   4.247   4.992
   14X2IT    C5  445   2.912   4.345   5.087
   14X2IT    O1  446   2.840   4.425   5.148
   14X2IT    C6  447   3.056   4.338   5.101
   14X2IT   C12  448   3.125   4.433   5.196
   14X2IT    C7  449   3.127   4.247   5.025
   14X2IT    C8  450   3.062   4.149   4.927
   14X2IT    O2  451   3.135   4.069   4.867
   14X2IT    N3  452   3.261   4.235   5.030
   14X2IT   H15  453   3.319   4.290   5.090
   14X2IT   H16  454   3.303   4.163   4.970
   14X2IT    N2  455   2.717   4.244   4.963
   14X2IT    C3  456   2.604   4.269   5.055
   14X2IT    C2  457   2.528   4.137   5.049
   14X2IT    H2  458   2.423   4.133   5.079
   14X2IT    N1  459   2.616   4.020   5.075
   14X2IT   H14  460   2.559   3.941   5.104
   14X2IT    C1  461   2.580   4.055   4.936
   14X2IT    H1  462   2.517   3.990   4.877
   14X2IT   C11  463   2.686   4.137   4.865
   14X2IT    O3  464   2.620   4.187   4.750
   14X2IT   C15  465   2.681   4.298   4.683
   15X2IT   H18  466   1.622   0.350   3.992
   15X2IT    N4  467   1.712   0.343   4.037
   15X2IT   H17  468   1.787   0.301   3.983
   15X2IT   C14  469   1.742   0.440   4.129
   15X2IT    O5  470   1.662   0.515   4.181
   15X2IT    O4  471   1.876   0.436   4.158
   15X2IT   C13  472   1.921   0.528   4.259
   15X2IT   C10  473   1.898   0.472   4.401
   15X2IT    C9  474   1.951   0.563   4.510
   15X2IT    C4  475   2.044   0.496   4.587
   15X2IT    C5  476   2.116   0.557   4.703
   15X2IT    O1  477   2.195   0.488   4.769
   15X2IT    C6  478   2.087   0.696   4.731
   15X2IT   C12  479   2.156   0.764   4.847
   15X2IT    C7  480   1.993   0.763   4.655
   15X2IT    C8  481   1.920   0.698   4.537
   15X2IT    O2  482   1.841   0.769   4.472
   15X2IT    N3  483   1.958   0.891   4.674
   15X2IT   H15  484   1.998   0.948   4.746
   15X2IT   H16  485   1.889   0.930   4.610
   15X2IT    N2  486   2.056   0.366   4.550
   15X2IT    C3  487   2.177   0.282   4.555
   15X2IT    C2  488   2.194   0.242   4.409
   15X2IT    H2  489   2.254   0.155   4.383
   15X2IT    N1  490   2.193   0.360   4.319
   15X2IT   H14  491   2.239   0.335   4.230
   15X2IT    C1  492   2.071   0.278   4.333
   15X2IT    H1  493   2.034   0.219   4.250
   15X2IT   C11  494   1.971   0.336   4.432
   15X2IT    O3  495   1.881   0.230   4.456
   15X2IT   C15  496   1.798   0.240   4.573
   16X2IT   H18  497   3.999   5.197   2.760
   16X2IT    N4  498   3.948   5.117   2.793
   16X2IT   H17  499   3.973   5.080   2.883
   16X2IT   C14  500   3.819   5.105   2.749
   16X2IT    O5  501   3.770   5.166   2.656
   16X2IT    O4  502   3.753   5.011   2.824
   16X2IT   C13  503   3.617   4.983   2.785
   16X2IT   C10  504   3.612   4.881   2.669
   16X2IT    C9  505   3.470   4.844   2.630
   16X2IT    C4  506   3.452   4.707   2.642
   16X2IT    C5  507   3.323   4.637   2.612
   16X2IT    O1  508   3.317   4.514   2.622
   16X2IT    C6  509   3.212   4.720   2.571
   16X2IT   C12  510   3.079   4.656   2.540
   16X2IT    C7  511   3.231   4.857   2.559
   16X2IT    C8  512   3.363   4.927   2.589
   16X2IT    O2  513   3.367   5.051   2.579
   16X2IT    N3  514   3.135   4.942   2.520
   16X2IT   H15  515   3.041   4.913   2.498
   16X2IT   H16  516   3.159   5.041   2.516
   16X2IT    N2  517   3.567   4.643   2.677
   16X2IT    C3  518   3.582   4.523   2.759
   16X2IT    C2  519   3.668   4.573   2.874
   16X2IT    H2  520   3.724   4.501   2.935
   16X2IT    N1  521   3.613   4.695   2.937
   16X2IT   H14  522   3.651   4.705   3.031
   16X2IT    C1  523   3.724   4.706   2.840
   16X2IT    H1  524   3.822   4.739   2.871
   16X2IT   C11  525   3.677   4.741   2.700
   16X2IT    O3  526   3.790   4.714   2.618
   16X2IT   C15  527   3.767   4.700   2.477
   17X2IT   H18  528   1.895   2.979   3.953
   17X2IT    N4  529   1.889   2.977   3.853
   17X2IT   H17  530   1.809   2.931   3.812
   17X2IT   C14  531   1.947   3.082   3.787
   17X2IT    O5  532   2.026   3.161   3.835
   17X2IT    O4  533   1.906   3.083   3.656
   17X2IT   C13  534   1.964   3.184   3.572
   17X2IT   C10  535   2.102   3.141   3.519
   17X2IT    C9  536   2.163   3.242   3.424
   17X2IT    C4  537   2.189   3.183   3.302
   17X2IT    C5  538   2.249   3.256   3.185
   17X2IT    O1  539   2.271   3.194   3.080
   17X2IT    C6  540   2.277   3.396   3.204
   17X2IT   C12  541   2.338   3.475   3.090
   17X2IT    C7  542   2.253   3.454   3.327
   17X2IT    C8  543   2.192   3.379   3.445
   17X2IT    O2  544   2.170   3.442   3.550
   17X2IT    N3  545   2.278   3.583   3.354
   17X2IT   H15  546   2.316   3.647   3.287
   17X2IT   H16  547   2.254   3.616   3.448
   17X2IT    N2  548   2.160   3.050   3.302
   17X2IT    C3  549   2.110   2.968   3.190
   17X2IT    C2  550   1.978   2.916   3.245
   17X2IT    H2  551   1.932   2.827   3.201
   17X2IT    N1  552   1.892   3.025   3.297
   17X2IT   H14  553   1.795   2.993   3.300
   17X2IT    C1  554   1.971   2.943   3.391
   17X2IT    H1  555   1.923   2.877   3.461
   17X2IT   C11  556   2.102   3.009   3.433
   17X2IT    O3  557   2.176   2.904   3.493
   17X2IT   C15  558   2.317   2.924   3.507
   18X2IT   H18  559   1.979   2.146   2.470
   18X2IT    N4  560   2.062   2.095   2.492
   18X2IT   H17  561   2.074   2.065   2.587
   18X2IT   C14  562   2.116   2.020   2.391
   18X2IT    O5  563   2.088   2.030   2.273
   18X2IT    O4  564   2.209   1.934   2.442
   18X2IT   C13  565   2.280   1.852   2.346
   18X2IT   C10  566   2.398   1.928   2.283
   18X2IT    C9  567   2.478   1.844   2.186
   18X2IT    C4  568   2.610   1.838   2.227
   18X2IT    C5  569   2.717   1.762   2.154
   18X2IT    O1  570   2.834   1.765   2.195
   18X2IT    C6  571   2.675   1.689   2.037
   18X2IT   C12  572   2.778   1.609   1.959
   18X2IT    C7  573   2.543   1.695   1.996
   18X2IT    C8  574   2.436   1.774   2.071
   18X2IT    O2  575   2.319   1.770   2.027
   18X2IT    N3  576   2.495   1.632   1.887
   18X2IT   H15  577   2.552   1.574   1.828
   18X2IT   H16  578   2.396   1.643   1.867
   18X2IT    N2  579   2.634   1.916   2.336
   18X2IT    C3  580   2.729   1.892   2.445
   18X2IT    C2  581   2.638   1.886   2.567
   18X2IT    H2  582   2.680   1.903   2.666
   18X2IT    N1  583   2.527   1.791   2.549
   18X2IT   H14  584   2.490   1.764   2.641
   18X2IT    C1  585   2.503   1.935   2.530
   18X2IT    H1  586   2.440   1.990   2.598
   18X2IT   C11  587   2.507   1.978   2.384
   18X2IT    O3  588   2.517   2.119   2.390
   18X2IT   C15  589   2.561   2.187   2.272
   19X2IT   H18  590   2.559   3.325   0.228
   19X2IT    N4  591   2.608   3.348   0.312
   19X2IT   H17  592   2.562   3.411   0.377
   19X2IT   C14  593   2.692   3.252   0.362
   19X2IT    O5  594   2.733   3.155   0.300
   19X2IT    O4  595   2.727   3.282   0.490
   19X2IT   C13  596   2.821   3.193   0.553
   19X2IT   C10  597   2.966   3.227   0.515
   19X2IT    C9  598   3.068   3.140   0.585
   19X2IT    C4  599   3.155   3.218   0.658
   19X2IT    C5  600   3.268   3.163   0.740
   19X2IT    O1  601   3.344   3.241   0.800
   19X2IT    C6  602   3.282   3.019   0.743
   19X2IT   C12  603   3.393   2.957   0.824
   19X2IT    C7  604   3.195   2.941   0.669
   19X2IT    C8  605   3.080   2.999   0.585
   19X2IT    O2  606   3.006   2.919   0.526
   19X2IT    N3  607   3.201   2.807   0.664
   19X2IT   H15  608   3.268   2.753   0.714
   19X2IT   H16  609   3.130   2.760   0.607
   19X2IT    N2  610   3.132   3.351   0.641
   19X2IT    C3  611   3.150   3.459   0.739
   19X2IT    C2  612   3.009   3.516   0.750
   19X2IT    H2  613   2.995   3.617   0.789
   19X2IT    N1  614   2.908   3.412   0.778
   19X2IT   H14  615   2.825   3.455   0.819
   19X2IT    C1  616   2.925   3.462   0.641
   19X2IT    H1  617   2.847   3.519   0.592
   19X2IT   C11  618   3.013   3.372   0.554
   19X2IT    O3  619   3.044   3.453   0.442
   19X2IT   C15  620   3.155   3.412   0.361
   20X2IT   H18  621   4.227   3.168   2.827
   20X2IT    N4  622   4.214   3.253   2.776
   20X2IT   H17  623   4.123   3.297   2.782
   20X2IT   C14  624   4.324   3.332   2.760
   20X2IT    O5  625   4.439   3.296   2.777
   20X2IT    O4  626   4.286   3.457   2.719
   20X2IT   C13  627   4.393   3.550   2.691
   20X2IT   C10  628   4.450   3.530   2.550
   20X2IT    C9  629   4.558   3.630   2.514
   20X2IT    C4  630   4.523   3.700   2.401
   20X2IT    C5  631   4.607   3.808   2.339
   20X2IT    O1  632   4.569   3.864   2.235
   20X2IT    C6  633   4.731   3.840   2.407
   20X2IT   C12  634   4.821   3.948   2.350
   20X2IT    C7  635   4.767   3.768   2.520
   20X2IT    C8  636   4.680   3.658   2.581
   20X2IT    O2  637   4.720   3.603   2.685
   20X2IT    N3  638   4.881   3.789   2.588
   20X2IT   H15  639   4.948   3.859   2.563
   20X2IT   H16  640   4.896   3.731   2.671
   20X2IT    N2  641   4.406   3.656   2.347
   20X2IT    C3  642   4.303   3.734   2.277
   20X2IT    C2  643   4.180   3.711   2.364
   20X2IT    H2  644   4.081   3.728   2.322
   20X2IT    N1  645   4.206   3.742   2.506
   20X2IT   H14  646   4.117   3.759   2.554
   20X2IT    C1  647   4.207   3.601   2.460
   20X2IT    H1  648   4.131   3.532   2.493
   20X2IT   C11  649   4.347   3.548   2.432
   20X2IT    O3  650   4.325   3.429   2.359
   20X2IT   C15  651   4.436   3.376   2.285
   21X2IT   H18  652   4.395   2.247   2.075
   21X2IT    N4  653   4.326   2.296   2.128
   21X2IT   H17  654   4.235   2.309   2.085
   21X2IT   C14  655   4.333   2.284   2.264
   21X2IT    O5  656   4.430   2.244   2.326
   21X2IT    O4  657   4.218   2.329   2.321
   21X2IT   C13  658   4.214   2.329   2.465
   21X2IT   C10  659   4.280   2.455   2.523
   21X2IT    C9  660   4.272   2.462   2.674
   21X2IT    C4  661   4.207   2.578   2.713
   21X2IT    C5  662   4.182   2.616   2.856
   21X2IT    O1  663   4.127   2.724   2.882
   21X2IT    C6  664   4.226   2.522   2.956
   21X2IT   C12  665   4.202   2.553   3.103
   21X2IT    C7  666   4.291   2.406   2.918
   21X2IT    C8  667   4.317   2.369   2.771
   21X2IT    O2  668   4.373   2.261   2.748
   21X2IT    N3  669   4.337   2.314   3.003
   21X2IT   H15  670   4.326   2.321   3.103
   21X2IT   H16  671   4.382   2.231   2.963
   21X2IT    N2  672   4.177   2.658   2.607
   21X2IT    C3  673   4.061   2.747   2.592
   21X2IT    C2  674   3.994   2.690   2.467
   21X2IT    H2  675   3.925   2.752   2.410
   21X2IT    N1  676   3.969   2.544   2.478
   21X2IT   H14  677   3.896   2.517   2.413
   21X2IT    C1  678   4.085   2.594   2.401
   21X2IT    H1  679   4.090   2.581   2.294
   21X2IT   C11  680   4.215   2.592   2.479
   21X2IT    O3  681   4.303   2.672   2.403
   21X2IT   C15  682   4.421   2.721   2.468
   22X2IT   H18  683   0.903   2.859   4.646
   22X2IT    N4  684   0.977   2.910   4.601
   22X2IT   H17  685   1.065   2.914   4.650
   22X2IT   C14  686   0.976   2.913   4.465
   22X2IT    O5  687   0.881   2.883   4.395
   22X2IT    O4  688   1.096   2.958   4.418
   22X2IT   C13  689   1.107   2.972   4.275
   22X2IT   C10  690   1.049   3.106   4.227
   22X2IT    C9  691   1.065   3.128   4.078
   22X2IT    C4  692   1.136   3.244   4.055
   22X2IT    C5  693   1.170   3.295   3.917
   22X2IT    O1  694   1.231   3.403   3.906
   22X2IT    C6  695   1.128   3.214   3.806
   22X2IT   C12  696   1.160   3.259   3.665
   22X2IT    C7  697   1.056   3.098   3.830
   22X2IT    C8  698   1.021   3.048   3.970
   22X2IT    O2  699   0.960   2.940   3.980
   22X2IT    N3  700   1.011   3.017   3.733
   22X2IT   H15  701   1.027   3.034   3.635
   22X2IT   H16  702   0.960   2.933   3.762
   22X2IT    N2  703   1.164   3.311   4.169
   22X2IT    C3  704   1.282   3.393   4.200
   22X2IT    C2  705   1.341   3.321   4.320
   22X2IT    H2  706   1.410   3.374   4.387
   22X2IT    N1  707   1.360   3.177   4.296
   22X2IT   H14  708   1.429   3.140   4.361
   22X2IT    C1  709   1.243   3.223   4.372
   22X2IT    H1  710   1.232   3.200   4.477
   22X2IT   C11  711   1.116   3.235   4.288
   22X2IT    O3  712   1.028   3.311   4.368
   22X2IT   C15  713   0.916   3.371   4.303
   23X2IT   H18  714   1.492   2.268   4.714
   23X2IT    N4  715   1.525   2.176   4.690
   23X2IT   H17  716   1.471   2.098   4.723
   23X2IT   C14  717   1.593   2.165   4.571
   23X2IT    O5  718   1.640   2.258   4.508
   23X2IT    O4  719   1.605   2.034   4.537
   23X2IT   C13  720   1.680   2.006   4.417
   23X2IT   C10  721   1.831   2.002   4.445
   23X2IT    C9  722   1.913   1.967   4.323
   23X2IT    C4  723   1.989   1.854   4.348
   23X2IT    C5  724   2.081   1.791   4.248
   23X2IT    O1  725   2.148   1.692   4.280
   23X2IT    C6  726   2.087   1.853   4.118
   23X2IT   C12  727   2.178   1.794   4.011
   23X2IT    C7  728   2.012   1.966   4.093
   23X2IT    C8  729   1.919   2.030   4.197
   23X2IT    O2  730   1.853   2.129   4.162
   23X2IT    N3  731   2.012   2.032   3.976
   23X2IT   H15  732   2.066   2.003   3.896
   23X2IT   H16  733   1.951   2.114   3.969
   23X2IT    N2  734   1.976   1.811   4.476
   23X2IT    C3  735   1.981   1.672   4.526
   23X2IT    C2  736   1.843   1.657   4.591
   23X2IT    H2  737   1.827   1.579   4.665
   23X2IT    N1  738   1.734   1.695   4.499
   23X2IT   H14  739   1.646   1.652   4.530
   23X2IT    C1  740   1.779   1.790   4.602
   23X2IT    H1  741   1.714   1.818   4.685
   23X2IT   C11  742   1.877   1.894   4.550
   23X2IT    O3  743   1.933   1.951   4.667
   23X2IT   C15  744   2.055   2.024   4.653
   24X2IT   H18  745   3.799   2.623   3.825
   24X2IT    N4  746   3.786   2.565   3.744
   24X2IT   H17  747   3.835   2.592   3.660
   24X2IT   C14  748   3.762   2.433   3.767
   24X2IT    O5  749   3.728   2.385   3.874
   24X2IT    O4  750   3.778   2.362   3.652
   24X2IT   C13  751   3.750   2.220   3.660
   24X2IT   C10  752   3.599   2.193   3.645
   24X2IT    C9  753   3.565   2.045   3.645
   24X2IT    C4  754   3.499   2.011   3.529
   24X2IT    C5  755   3.453   1.872   3.497
   24X2IT    O1  756   3.391   1.851   3.392
   24X2IT    C6  757   3.482   1.770   3.595
   24X2IT   C12  758   3.438   1.627   3.569
   24X2IT    C7  759   3.547   1.805   3.712
   24X2IT    C8  760   3.594   1.947   3.743
   24X2IT    O2  761   3.655   1.966   3.849
   24X2IT    N3  762   3.578   1.717   3.809
   24X2IT   H15  763   3.556   1.619   3.804
   24X2IT   H16  764   3.627   1.754   3.891
   24X2IT    N2  765   3.475   2.119   3.450
   24X2IT    C3  766   3.471   2.124   3.303
   24X2IT    C2  767   3.581   2.225   3.272
   24X2IT    H2  768   3.582   2.276   3.175
   24X2IT    N1  769   3.709   2.191   3.338
   24X2IT   H14  770   3.786   2.238   3.289
   24X2IT    C1  771   3.622   2.294   3.397
   24X2IT    H1  772   3.653   2.398   3.400
   24X2IT   C11  773   3.534   2.242   3.510
   24X2IT    O3  774   3.438   2.344   3.528
   24X2IT   C15  775   3.319   2.308   3.600
   25X2IT   H18  776   3.474   1.359   3.475
   25X2IT    N4  777   3.396   1.397   3.425
   25X2IT   H17  778   3.326   1.445   3.480
   25X2IT   C14  779   3.418   1.436   3.296
   25X2IT    O5  780   3.515   1.404   3.229
   25X2IT    O4  781   3.314   1.512   3.252
   25X2IT   C13  782   3.321   1.556   3.114
   25X2IT   C10  783   3.270   1.447   3.018
   25X2IT    C9  784   3.269   1.490   2.874
   25X2IT    C4  785   3.141   1.481   2.822
   25X2IT    C5  786   3.105   1.518   2.681
   25X2IT    O1  787   2.988   1.503   2.642
   25X2IT    C6  788   3.212   1.569   2.598
   25X2IT   C12  789   3.182   1.608   2.455
   25X2IT    C7  790   3.340   1.577   2.650
   25X2IT    C8  791   3.375   1.538   2.793
   25X2IT    O2  792   3.493   1.554   2.831
   25X2IT    N3  793   3.446   1.621   2.580
   25X2IT   H15  794   3.440   1.652   2.485
   25X2IT   H16  795   3.536   1.624   2.629
   25X2IT    N2  796   3.054   1.427   2.911
   25X2IT    C3  797   2.910   1.458   2.926
   25X2IT    C2  798   2.904   1.508   3.070
   25X2IT    H2  799   2.808   1.508   3.123
   25X2IT    N1  800   3.002   1.616   3.096
   25X2IT   H14  801   2.972   1.669   3.178
   25X2IT    C1  802   3.031   1.477   3.139
   25X2IT    H1  803   3.037   1.452   3.244
   25X2IT   C11  804   3.120   1.402   3.041
   25X2IT    O3  805   3.109   1.267   3.081
   25X2IT   C15  806   3.149   1.167   2.987
   26X2IT   H18  807  -0.183   2.003   1.576
   26X2IT    N4  808  -0.114   2.029   1.644
   26X2IT   H17  809  -0.057   2.110   1.623
   26X2IT   C14  810  -0.145   2.002   1.775
   26X2IT    O5  811  -0.232   1.926   1.812
   26X2IT    O4  812  -0.060   2.070   1.857
   26X2IT   C13  813  -0.076   2.046   1.999
   26X2IT   C10  814  -0.002   1.919   2.043
   26X2IT    C9  815  -0.011   1.894   2.192
   26X2IT    C4  816   0.116   1.888   2.247
   26X2IT    C5  817   0.143   1.865   2.393
   26X2IT    O1  818   0.260   1.857   2.433
   26X2IT    C6  819   0.027   1.852   2.478
   26X2IT   C12  820   0.047   1.830   2.627
   26X2IT    C7  821  -0.099   1.858   2.423
   26X2IT    C8  822  -0.126   1.880   2.274
   26X2IT    O2  823  -0.244   1.887   2.236
   26X2IT    N3  824  -0.212   1.845   2.495
   26X2IT   H15  825  -0.214   1.832   2.594
   26X2IT   H16  826  -0.301   1.852   2.443
   26X2IT    N2  827   0.213   1.897   2.152
   26X2IT    C3  828   0.346   1.958   2.165
   26X2IT    C2  829   0.342   2.067   2.058
   26X2IT    H2  830   0.435   2.108   2.020
   26X2IT    N1  831   0.223   2.154   2.071
   26X2IT   H14  832   0.240   2.242   2.023
   26X2IT    C1  833   0.224   2.045   1.971
   26X2IT    H1  834   0.224   2.068   1.865
   26X2IT   C11  835   0.153   1.919   2.018
   26X2IT    O3  836   0.194   1.820   1.925
   26X2IT   C15  837   0.176   1.683   1.963
   27X2IT   H18  838   2.654   1.280   1.148
   27X2IT    N4  839   2.583   1.255   1.082
   27X2IT   H17  840   2.488   1.247   1.117
   27X2IT   C14  841   2.602   1.296   0.953
   27X2IT    O5  842   2.708   1.334   0.906
   27X2IT    O4  843   2.486   1.283   0.882
   27X2IT   C13  844   2.493   1.316   0.742
   27X2IT   C10  845   2.545   1.198   0.659
   27X2IT    C9  846   2.548   1.227   0.510
   27X2IT    C4  847   2.471   1.134   0.443
   27X2IT    C5  848   2.451   1.134   0.294
   27X2IT    O1  849   2.384   1.044   0.241
   27X2IT    C6  850   2.515   1.240   0.220
   27X2IT   C12  851   2.498   1.246   0.070
   27X2IT    C7  852   2.592   1.333   0.288
   27X2IT    C8  853   2.612   1.331   0.440
   27X2IT    O2  854   2.680   1.422   0.490
   27X2IT    N3  855   2.657   1.434   0.228
   27X2IT   H15  856   2.653   1.451   0.129
   27X2IT   H16  857   2.710   1.498   0.288
   27X2IT    N2  858   2.422   1.038   0.526
   27X2IT    C3  859   2.294   0.966   0.515
   27X2IT    C2  860   2.226   1.003   0.646
   27X2IT    H2  861   2.145   0.941   0.685
   27X2IT    N1  862   2.223   1.149   0.669
   27X2IT   H14  863   2.149   1.171   0.736
   27X2IT    C1  864   2.324   1.066   0.737
   27X2IT    H1  865   2.323   1.054   0.845
   27X2IT   C11  866   2.459   1.066   0.667
   27X2IT    O3  867   2.529   0.959   0.726
   27X2IT   C15  868   2.644   0.908   0.656
   28X2IT   H18  869   0.823   3.401   0.148
   28X2IT    N4  870   0.843   3.498   0.129
   28X2IT   H17  871   0.859   3.524   0.033
   28X2IT   C14  872   0.785   3.589   0.214
   28X2IT    O5  873   0.737   3.563   0.323
   28X2IT    O4  874   0.793   3.714   0.160
   28X2IT   C13  875   0.742   3.822   0.242
   28X2IT   C10  876   0.846   3.869   0.344
   28X2IT    C9  877   0.799   3.986   0.427
   28X2IT    C4  878   0.886   4.093   0.413
   28X2IT    C5  879   0.867   4.225   0.481
   28X2IT    O1  880   0.952   4.314   0.465
   28X2IT    C6  881   0.750   4.240   0.563
   28X2IT   C12  882   0.725   4.371   0.634
   28X2IT    C7  883   0.664   4.133   0.578
   28X2IT    C8  884   0.684   3.998   0.509
   28X2IT    O2  885   0.598   3.910   0.526
   28X2IT    N3  886   0.553   4.136   0.654
   28X2IT   H15  887   0.523   4.218   0.705
   28X2IT   H16  888   0.495   4.052   0.657
   28X2IT    N2  889   0.993   4.061   0.336
   28X2IT    C3  890   1.068   4.149   0.245
   28X2IT    C2  891   1.051   4.079   0.111
   28X2IT    H2  892   1.121   4.099   0.030
   28X2IT    N1  893   0.909   4.050   0.080
   28X2IT   H14  894   0.899   4.036  -0.021
   28X2IT    C1  895   0.996   3.943   0.134
   28X2IT    H1  896   1.022   3.857   0.072
   28X2IT   C11  897   0.981   3.922   0.284
   28X2IT    O3  898   1.093   3.843   0.319
   28X2IT   C15  899   1.129   3.838   0.457
   29X2IT   H18  900   2.136   1.409   4.196
   29X2IT    N4  901   2.183   1.349   4.261
   29X2IT   H17  902   2.125   1.289   4.318
   29X2IT   C14  903   2.308   1.307   4.227
   29X2IT    O5  904   2.377   1.357   4.139
   29X2IT    O4  905   2.347   1.204   4.307
   29X2IT   C13  906   2.480   1.154   4.286
   29X2IT   C10  907   2.585   1.238   4.360
   29X2IT    C9  908   2.725   1.185   4.347
   29X2IT    C4  909   2.779   1.158   4.471
   29X2IT    C5  910   2.917   1.102   4.493
   29X2IT    O1  911   2.958   1.085   4.609
   29X2IT    C6  912   2.994   1.074   4.375
   29X2IT   C12  913   3.134   1.018   4.390
   29X2IT    C7  914   2.941   1.102   4.250
   29X2IT    C8  915   2.801   1.159   4.229
   29X2IT    O2  916   2.762   1.176   4.113
   29X2IT    N3  917   3.007   1.081   4.135
   29X2IT   H15  918   3.099   1.042   4.131
   29X2IT   H16  919   2.957   1.104   4.049
   29X2IT    N2  920   2.695   1.194   4.572
   29X2IT    C3  921   2.678   1.130   4.703
   29X2IT    C2  922   2.531   1.091   4.701
   29X2IT    H2  923   2.479   1.072   4.795
   29X2IT    N1  924   2.495   1.014   4.580
   29X2IT   H14  925   2.409   0.961   4.597
   29X2IT    C1  926   2.464   1.158   4.587
   29X2IT    H1  927   2.361   1.192   4.590
   29X2IT   C11  928   2.566   1.246   4.517
   29X2IT    O3  929   2.537   1.376   4.563
   29X2IT   C15  930   2.639   1.476   4.546
   30X2IT   H18  931   0.585   2.156   0.298
   30X2IT    N4  932   0.621   2.091   0.365
   30X2IT   H17  933   0.664   2.007   0.329
   30X2IT   C14  934   0.668   2.144   0.482
   30X2IT    O5  935   0.644   2.256   0.523
   30X2IT    O4  936   0.741   2.050   0.549
   30X2IT   C13  937   0.791   2.090   0.679
   30X2IT   C10  938   0.685   2.072   0.788
   30X2IT    C9  939   0.736   2.106   0.927
   30X2IT    C4  940   0.722   1.996   1.010
   30X2IT    C5  941   0.764   1.996   1.155
   30X2IT    O1  942   0.745   1.895   1.223
   30X2IT    C6  943   0.824   2.117   1.205
   30X2IT   C12  944   0.869   2.124   1.349
   30X2IT    C7  945   0.836   2.227   1.121
   30X2IT    C8  946   0.793   2.226   0.974
   30X2IT    O2  947   0.812   2.329   0.907
   30X2IT    N3  948   0.889   2.344   1.159
   30X2IT   H15  949   0.925   2.361   1.252
   30X2IT   H16  950   0.895   2.418   1.088
   30X2IT    N2  951   0.660   1.892   0.949
   30X2IT    C3  952   0.683   1.748   0.971
   30X2IT    C2  953   0.725   1.702   0.832
   30X2IT    H2  954   0.717   1.596   0.806
   30X2IT    N1  955   0.836   1.783   0.777
   30X2IT   H14  956   0.884   1.730   0.704
   30X2IT    C1  957   0.698   1.809   0.733
   30X2IT    H1  958   0.667   1.789   0.631
   30X2IT   C11  959   0.632   1.925   0.807
   30X2IT    O3  960   0.494   1.911   0.776
   30X2IT   C15  961   0.401   1.981   0.860
   31X2IT   H18  962   0.999   1.661   3.531
   31X2IT    N4  963   0.917   1.714   3.505
   31X2IT   H17  964   0.887   1.785   3.570
   31X2IT   C14  965   0.895   1.730   3.372
   31X2IT    O5  966   0.947   1.666   3.283
   31X2IT    O4  967   0.801   1.828   3.352
   31X2IT   C13  968   0.761   1.852   3.216
   31X2IT   C10  969   0.654   1.752   3.169
   31X2IT    C9  970   0.605   1.778   3.029
   31X2IT    C4  971   0.468   1.799   3.029
   31X2IT    C5  972   0.388   1.828   2.906
   31X2IT    O1  973   0.265   1.842   2.915
   31X2IT    C6  974   0.461   1.838   2.782
   31X2IT   C12  975   0.386   1.868   2.653
   31X2IT    C7  976   0.598   1.816   2.782
   31X2IT    C8  977   0.678   1.785   2.908
   31X2IT    O2  978   0.801   1.772   2.897
   31X2IT    N3  979   0.674   1.821   2.671
   31X2IT   H15  980   0.638   1.842   2.580
   31X2IT   H16  981   0.774   1.805   2.683
   31X2IT    N2  982   0.414   1.781   3.152
   31X2IT    C3  983   0.299   1.852   3.211
   31X2IT    C2  984   0.361   1.918   3.334
   31X2IT    H2  985   0.297   1.949   3.416
   31X2IT    N1  986   0.482   1.996   3.301
   31X2IT   H14  987   0.499   2.064   3.375
   31X2IT    C1  988   0.496   1.860   3.358
   31X2IT    H1  989   0.537   1.846   3.457
   31X2IT   C11  990   0.520   1.753   3.253
   31X2IT    O3  991   0.497   1.632   3.322
   31X2IT   C15  992   0.474   1.515   3.242
   32X2IT   H18  993   0.496   2.625   0.411
   32X2IT    N4  994   0.509   2.671   0.322
   32X2IT   H17  995   0.436   2.658   0.253
   32X2IT   C14  996   0.581   2.787   0.322
   32X2IT    O5  997   0.653   2.824   0.413
   32X2IT    O4  998   0.565   2.852   0.204
   32X2IT   C13  999   0.640   2.974   0.187
   32X2IT   C10 1000   0.784   2.945   0.141
   32X2IT    C9 1001   0.865   3.070   0.115
   32X2IT    C4 1002   0.910   3.072  -0.015
   32X2IT    C5 1003   0.993   3.183  -0.073
   32X2IT    O1 1004   1.033   3.175  -0.191
   32X2IT    C6 1005   1.022   3.294   0.014
   32X2IT   C12 1006   1.105   3.410  -0.038
   32X2IT    C7 1007   0.978   3.292   0.145
   32X2IT    C8 1008   0.894   3.177   0.203
   32X2IT    O2 1009   0.856   3.188   0.321
   32X2IT    N3 1010   1.002   3.389   0.234
   32X2IT   H15 1011   1.053   3.472   0.212
   32X2IT   H16 1012   0.962   3.377   0.328
   32X2IT    N2 1013   0.878   2.959  -0.082
   32X2IT    C3 1014   0.847   2.944  -0.225
   32X2IT    C2 1015   0.705   2.888  -0.221
   32X2IT    H2 1016   0.665   2.835  -0.308
   32X2IT    N1 1017   0.615   2.969  -0.137
   32X2IT   H14 1018   0.518   2.951  -0.164
   32X2IT    C1 1019   0.673   2.845  -0.083
   32X2IT    H1 1020   0.610   2.760  -0.061
   32X2IT   C11 1021   0.796   2.869   0.003
   32X2IT    O3 1022   0.854   2.740   0.016
   32X2IT   C15 1023   0.991   2.734   0.059
   33X2IT   H18 1024   3.883   4.832   3.761
   33X2IT    N4 1025   3.929   4.744   3.747
   33X2IT   H17 1026   4.021   4.733   3.787
   33X2IT   C14 1027   3.848   4.635   3.737
   33X2IT    O5 1028   3.728   4.638   3.715
   33X2IT    O4 1029   3.921   4.520   3.750
   33X2IT   C13 1030   3.850   4.396   3.734
   33X2IT   C10 1031   3.834   4.358   3.586
   33X2IT    C9 1032   3.765   4.225   3.566
   33X2IT    C4 1033   3.847   4.140   3.494
   33X2IT    C5 1034   3.809   3.999   3.458
   33X2IT    O1 1035   3.887   3.931   3.390
   33X2IT    C6 1036   3.681   3.952   3.504
   33X2IT   C12 1037   3.637   3.811   3.471
   33X2IT    C7 1038   3.599   4.038   3.575
   33X2IT    C8 1039   3.638   4.182   3.611
   33X2IT    O2 1040   3.558   4.249   3.679
   33X2IT    N3 1041   3.477   4.005   3.621
   33X2IT   H15 1042   3.437   3.914   3.607
   33X2IT   H16 1043   3.426   4.076   3.673
   33X2IT    N2 1044   3.962   4.200   3.454
   33X2IT    C3 1045   4.095   4.140   3.438
   33X2IT    C2 1046   4.179   4.221   3.536
   33X2IT    H2 1047   4.287   4.224   3.524
   33X2IT    N1 1048   4.120   4.225   3.671
   33X2IT   H14 1049   4.192   4.249   3.739
   33X2IT    C1 1050   4.102   4.340   3.580
   33X2IT    H1 1051   4.148   4.436   3.602
   33X2IT   C11 1052   3.969   4.339   3.507
   33X2IT    O3 1053   3.986   4.434   3.403
   33X2IT   C15 1054   3.893   4.429   3.294
   34X2IT   H18 1055   2.507   0.220   0.099
   34X2IT    N4 1056   2.459   0.249   0.183
   34X2IT   H17 1057   2.362   0.274   0.174
   34X2IT   C14 1058   2.503   0.195   0.300
   34X2IT    O5 1059   2.610   0.137   0.315
   34X2IT    O4 1060   2.412   0.217   0.399
   34X2IT   C13 1061   2.449   0.171   0.531
   34X2IT   C10 1062   2.539   0.272   0.603
   34X2IT    C9 1063   2.574   0.231   0.744
   34X2IT    C4 1064   2.532   0.327   0.834
   34X2IT    C5 1065   2.551   0.317   0.983
   34X2IT    O1 1066   2.514   0.410   1.056
   34X2IT    C6 1067   2.613   0.196   1.032
   34X2IT   C12 1068   2.634   0.179   1.181
   34X2IT    C7 1069   2.655   0.100   0.942
   34X2IT    C8 1070   2.636   0.112   0.790
   34X2IT    O2 1071   2.674   0.018   0.719
   34X2IT    N3 1072   2.715  -0.015   0.978
   34X2IT   H15 1073   2.733  -0.040   1.073
   34X2IT   H16 1074   2.740  -0.079   0.903
   34X2IT    N2 1075   2.480   0.436   0.772
   34X2IT    C3 1076   2.372   0.524   0.819
   34X2IT    C2 1077   2.268   0.510   0.709
   34X2IT    H2 1078   2.192   0.586   0.696
   34X2IT    N1 1079   2.236   0.368   0.680
   34X2IT   H14 1080   2.145   0.362   0.634
   34X2IT    C1 1081   2.330   0.441   0.592
   34X2IT    H1 1082   2.303   0.463   0.490
   34X2IT   C11 1083   2.476   0.415   0.625
   34X2IT    O3 1084   2.545   0.517   0.554
   34X2IT   C15 1085   2.680   0.544   0.595
   35X2IT   H18 1086   3.354   1.474   4.686
   35X2IT    N4 1087   3.406   1.560   4.681
   35X2IT   H17 1088   3.367   1.640   4.728
   35X2IT   C14 1089   3.542   1.549   4.671
   35X2IT    O5 1090   3.602   1.447   4.641
   35X2IT    O4 1091   3.601   1.669   4.696
   35X2IT   C13 1092   3.744   1.674   4.683
   35X2IT   C10 1093   3.786   1.694   4.536
   35X2IT    C9 1094   3.936   1.707   4.519
   35X2IT    C4 1095   3.967   1.828   4.459
   35X2IT    C5 1096   4.107   1.872   4.428
   35X2IT    O1 1097   4.126   1.980   4.370
   35X2IT    C6 1098   4.213   1.783   4.467
   35X2IT   C12 1099   4.357   1.821   4.439
   35X2IT    C7 1100   4.182   1.662   4.526
   35X2IT    C8 1101   4.039   1.617   4.557
   35X2IT    O2 1102   4.023   1.508   4.614
   35X2IT    N3 1103   4.274   1.571   4.565
   35X2IT   H15 1104   4.373   1.585   4.554
   35X2IT   H16 1105   4.239   1.486   4.609
   35X2IT    N2 1106   3.856   1.897   4.424
   35X2IT    C3 1107   3.838   2.044   4.421
   35X2IT    C2 1108   3.724   2.064   4.520
   35X2IT    H2 1109   3.665   2.155   4.516
   35X2IT    N1 1110   3.750   1.998   4.650
   35X2IT   H14 1111   3.691   2.041   4.722
   35X2IT    C1 1112   3.662   1.933   4.551
   35X2IT    H1 1113   3.556   1.920   4.571
   35X2IT   C11 1114   3.733   1.826   4.469
   35X2IT    O3 1115   3.644   1.801   4.361
   35X2IT   C15 1116   3.698   1.735   4.246
   36X2IT   H18 1117   1.065   1.002   1.987
   36X2IT    N4 1118   1.092   0.907   1.970
   36X2IT   H17 1119   1.189   0.890   1.945
   36X2IT   C14 1120   1.023   0.811   2.038
   36X2IT    O5 1121   0.917   0.828   2.095
   36X2IT    O4 1122   1.089   0.691   2.029
   36X2IT   C13 1123   1.024   0.578   2.091
   36X2IT   C10 1124   0.918   0.516   1.998
   36X2IT    C9 1125   0.852   0.394   2.057
   36X2IT    C4 1126   0.870   0.285   1.973
   36X2IT    C5 1127   0.818   0.147   2.002
   36X2IT    O1 1128   0.836   0.057   1.919
   36X2IT    C6 1129   0.749   0.130   2.127
   36X2IT   C12 1130   0.694  -0.007   2.163
   36X2IT    C7 1131   0.730   0.238   2.211
   36X2IT    C8 1132   0.782   0.378   2.180
   36X2IT    O2 1133   0.763   0.468   2.264
   36X2IT    N3 1134   0.664   0.232   2.328
   36X2IT   H15 1135   0.625   0.147   2.364
   36X2IT   H16 1136   0.658   0.318   2.382
   36X2IT    N2 1137   0.934   0.319   1.858
   36X2IT    C3 1138   1.027   0.238   1.778
   36X2IT    C2 1139   1.153   0.323   1.781
   36X2IT    H2 1140   1.230   0.307   1.705
   36X2IT    N1 1141   1.193   0.361   1.918
   36X2IT   H14 1142   1.292   0.385   1.919
   36X2IT    C1 1143   1.122   0.458   1.833
   36X2IT    H1 1144   1.171   0.548   1.798
   36X2IT   C11 1145   0.972   0.463   1.860
   36X2IT    O3 1146   0.919   0.534   1.750
   36X2IT   C15 1147   0.778   0.523   1.726
   37X2IT   H18 1148   1.430   2.941   1.081
   37X2IT    N4 1149   1.519   2.936   1.035
   37X2IT   H17 1150   1.523   2.887   0.947
   37X2IT   C14 1151   1.606   3.039   1.057
   37X2IT    O5 1152   1.595   3.121   1.147
   37X2IT    O4 1153   1.708   3.035   0.967
   37X2IT   C13 1154   1.811   3.135   0.983
   37X2IT   C10 1155   1.915   3.093   1.088
   37X2IT    C9 1156   2.028   3.192   1.103
   37X2IT    C4 1157   2.149   3.129   1.079
   37X2IT    C5 1158   2.282   3.199   1.084
   37X2IT    O1 1159   2.386   3.135   1.064
   37X2IT    C6 1160   2.279   3.341   1.113
   37X2IT   C12 1161   2.410   3.417   1.120
   37X2IT    C7 1162   2.158   3.403   1.139
   37X2IT    C8 1163   2.024   3.330   1.134
   37X2IT    O2 1164   1.921   3.396   1.154
   37X2IT    N3 1165   2.146   3.533   1.168
   37X2IT   H15 1166   2.224   3.596   1.174
   37X2IT   H16 1167   2.051   3.568   1.184
   37X2IT    N2 1168   2.135   2.996   1.057
   37X2IT    C3 1169   2.215   2.909   0.969
   37X2IT    C2 1170   2.109   2.856   0.872
   37X2IT    H2 1171   2.129   2.765   0.816
   37X2IT    N1 1172   2.030   2.965   0.811
   37X2IT   H14 1173   1.987   2.931   0.725
   37X2IT    C1 1174   1.974   2.888   0.924
   37X2IT    H1 1175   1.889   2.823   0.911
   37X2IT   C11 1176   1.991   2.958   1.058
   37X2IT    O3 1177   1.963   2.857   1.154
   37X2IT   C15 1178   2.008   2.880   1.288
   38X2IT   H18 1179   1.798   2.653   0.906
   38X2IT    N4 1180   1.825   2.654   0.809
   38X2IT   H17 1181   1.915   2.613   0.787
   38X2IT   C14 1182   1.724   2.649   0.717
   38X2IT    O5 1183   1.607   2.671   0.740
   38X2IT    O4 1184   1.776   2.620   0.594
   38X2IT   C13 1185   1.681   2.617   0.485
   38X2IT   C10 1186   1.654   2.759   0.430
   38X2IT    C9 1187   1.561   2.760   0.311
   38X2IT    C4 1188   1.623   2.819   0.203
   38X2IT    C5 1189   1.559   2.835   0.068
   38X2IT    O1 1190   1.621   2.892  -0.023
   38X2IT    C6 1191   1.425   2.782   0.054
   38X2IT   C12 1192   1.354   2.795  -0.079
   38X2IT    C7 1193   1.363   2.724   0.163
   38X2IT    C8 1194   1.429   2.709   0.300
   38X2IT    O2 1195   1.366   2.652   0.389
   38X2IT    N3 1196   1.238   2.675   0.160
   38X2IT   H15 1197   1.181   2.675   0.077
   38X2IT   H16 1198   1.203   2.633   0.246
   38X2IT    N2 1199   1.746   2.867   0.234
   38X2IT    C3 1200   1.865   2.874   0.147
   38X2IT    C2 1201   1.966   2.789   0.224
   38X2IT    H2 1202   2.072   2.801   0.204
   38X2IT    N1 1203   1.912   2.656   0.258
   38X2IT   H14 1204   1.989   2.591   0.277
   38X2IT    C1 1205   1.914   2.762   0.360
   38X2IT    H1 1206   1.978   2.754   0.447
   38X2IT   C11 1207   1.781   2.834   0.375
   38X2IT    O3 1208   1.813   2.950   0.450
   38X2IT   C15 1209   1.718   3.058   0.447
   39X2IT   H18 1210   4.652   0.775   2.954
   39X2IT    N4 1211   4.629   0.700   3.016
   39X2IT   H17 1212   4.601   0.613   2.973
   39X2IT   C14 1213   4.693   0.698   3.136
   39X2IT    O5 1214   4.754   0.791   3.185
   39X2IT    O4 1215   4.675   0.576   3.196
   39X2IT   C13 1216   4.732   0.562   3.328
   39X2IT   C10 1217   4.639   0.618   3.436
   39X2IT    C9 1218   4.692   0.598   3.576
   39X2IT    C4 1219   4.602   0.526   3.652
   39X2IT    C5 1220   4.624   0.489   3.796
   39X2IT    O1 1221   4.535   0.427   3.857
   39X2IT    C6 1222   4.749   0.528   3.854
   39X2IT   C12 1223   4.778   0.493   3.999
   39X2IT    C7 1224   4.839   0.601   3.779
   39X2IT    C8 1225   4.815   0.640   3.633
   39X2IT    O2 1226   4.905   0.702   3.573
   39X2IT    N3 1227   4.958   0.644   3.825
   39X2IT   H15 1228   4.990   0.626   3.918
   39X2IT   H16 1229   5.017   0.696   3.760
   39X2IT    N2 1230   4.487   0.501   3.584
   39X2IT    C3 1231   4.400   0.383   3.594
   39X2IT    C2 1232   4.404   0.327   3.453
   39X2IT    H2 1233   4.325   0.260   3.419
   39X2IT    N1 1234   4.542   0.308   3.403
   39X2IT   H14 1235   4.542   0.241   3.326
   39X2IT    C1 1236   4.465   0.427   3.362
   39X2IT    H1 1237   4.434   0.440   3.259
   39X2IT   C11 1238   4.497   0.551   3.444
   39X2IT    O3 1239   4.392   0.641   3.413
   39X2IT   C15 1240   4.371   0.751   3.502
   40SOL     OW 1241   0.230   0.628   0.113
   40SOL    HW1 1242   0.137   0.626   0.150
   40SOL    HW2 1243   0.231   0.589   0.021
   41SOL     OW 1244   0.225   0.275   0.996
   41SOL    HW1 1245   0.260   0.258   1.088
   41SOL    HW2 1246   0.137   0.230   0.984
   42SOL     OW 1247   0.019   0.368   0.647
   42SOL    HW1 1248  -0.063   0.411   0.686
   42SOL    HW2 1249  -0.009   0.295   0.584
   43SOL     OW 1250   0.569   1.275   1.165
   43SOL    HW1 1251   0.476   1.268   1.128
   43SOL    HW2 1252   0.580   1.364   1.209
   44SOL     OW 1253   1.555   1.511   0.703
   44SOL    HW1 1254   1.498   1.495   0.784
   44SOL    HW2 1255   1.496   1.521   0.623
   45SOL     OW 1256   1.135   0.703   0.717
   45SOL    HW1 1257   1.192   0.781   0.692
   45SOL    HW2 1258   1.075   0.729   0.793
   46SOL     OW 1259   1.755   0.607   0.231
   46SOL    HW1 1260   1.743   0.594   0.132
   46SOL    HW2 1261   1.725   0.526   0.280
   47SOL     OW 1262   0.768   1.144   1.023
   47SOL    HW1 1263   0.690   1.161   1.083
   47SOL    HW2 1264   0.802   1.231   0.987
   48SOL     OW 1265   0.850   0.798   1.823
   48SOL    HW1 1266   0.846   0.874   1.888
   48SOL    HW2 1267   0.872   0.834   1.732
   49SOL     OW 1268   0.685   1.012   0.665
   49SOL    HW1 1269   0.754   0.996   0.735
   49SOL    HW2 1270   0.612   1.069   0.703
   50SOL     OW 1271   0.686   1.161   1.803
   50SOL    HW1 1272   0.746   1.240   1.817
   50SOL    HW2 1273   0.600   1.192   1.762
   51SOL     OW 1274   0.335   1.435   1.061
   51SOL    HW1 1275   0.257   1.404   1.008
   51SOL    HW2 1276   0.393   1.493   1.004
   52SOL     OW 1277   1.460   1.505   1.339
   52SOL    HW1 1278   1.484   1.599   1.365
   52SOL    HW2 1279   1.444   1.451   1.421
   53SOL     OW 1280   0.438   0.392   1.499
   53SOL    HW1 1281   0.520   0.336   1.508
   53SOL    HW2 1282   0.357   0.334   1.503
   54SOL     OW 1283   1.603   0.447   0.737
   54SOL    HW1 1284   1.529   0.493   0.687
   54SOL    HW2 1285   1.654   0.515   0.790
   55SOL     OW 1286   0.231   1.713   0.483
   55SOL    HW1 1287   0.265   1.790   0.537
   55SOL    HW2 1288   0.275   1.713   0.393
   56SOL     OW 1289   1.127   1.341   1.690
   56SOL    HW1 1290   1.174   1.341   1.778
   56SOL    HW2 1291   1.079   1.254   1.679
   57SOL     OW 1292   0.230   1.434   0.538
   57SOL    HW1 1293   0.204   1.530   0.538
   57SOL    HW2 1294   0.159   1.380   0.583
   58SOL     OW 1295   0.240   1.091   0.886
   58SOL    HW1 1296   0.254   1.007   0.938
   58SOL    HW2 1297   0.185   1.155   0.941
   59SOL     OW 1298   0.620   1.786   1.439
   59SOL    HW1 1299   0.528   1.769   1.474
   59SOL    HW2 1300   0.648   1.878   1.465
   60SOL     OW 1301   0.606   0.964   0.123
   60SOL    HW1 1302   0.613   1.048   0.069
   60SOL    HW2 1303   0.652   0.977   0.211
   61SOL     OW 1304   1.594   0.114   1.480
   61SOL    HW1 1305   1.576   0.181   1.408
   61SOL    HW2 1306   1.591   0.160   1.569
   62SOL     OW 1307   0.122   0.643   0.563
   62SOL    HW1 1308   0.077   0.555   0.580
   62SOL    HW2 1309   0.121   0.697   0.647
   63SOL     OW 1310   1.842   1.767   0.359
   63SOL    HW1 1311   1.896   1.738   0.439
   63SOL    HW2 1312   1.872   1.857   0.330
   64SOL     OW 1313   0.027   1.596   0.117
   64SOL    HW1 1314   0.008   1.500   0.138
   64SOL    HW2 1315  -0.006   1.654   0.192
   65SOL     OW 1316   1.689   0.922   0.612
   65SOL    HW1 1317   1.784   0.893   0.620
   65SOL    HW2 1318   1.681   0.987   0.537
   66SOL     OW 1319   1.641   1.108   0.432
   66SOL    HW1 1320   1.727   1.110   0.380
   66SOL    HW2 1321   1.655   1.155   0.520
   67SOL     OW 1322   0.113   0.737   1.597
   67SOL    HW1 1323   0.201   0.724   1.642
   67SOL    HW2 1324   0.100   0.834   1.575
   68SOL     OW 1325   0.613   1.365   0.726
   68SOL    HW1 1326   0.564   1.278   0.735
   68SOL    HW2 1327   0.590   1.408   0.639
   69SOL     OW 1328   1.293   1.228   1.423
   69SOL    HW1 1329   1.330   1.155   1.365
   69SOL    HW2 1330   1.345   1.233   1.508
   70SOL     OW 1331   0.809   0.004   0.502
   70SOL    HW1 1332   0.849   0.095   0.493
   70SOL    HW2 1333   0.709   0.012   0.508
   71SOL     OW 1334   0.197   0.976   1.264
   71SOL    HW1 1335   0.286   0.931   1.250
   71SOL    HW2 1336   0.124   0.911   1.245
   72SOL     OW 1337   1.525   0.999   0.190
   72SOL    HW1 1338   1.462   0.923   0.203
   72SOL    HW2 1339   1.573   1.017   0.276
   73SOL     OW 1340   1.187   1.792   1.616
   73SOL    HW1 1341   1.211   1.852   1.540
   73SOL    HW2 1342   1.194   1.697   1.586
   74SOL     OW 1343   0.317   0.251   1.801
   74SOL    HW1 1344   0.388   0.322   1.807
   74SOL    HW2 1345   0.229   0.290   1.829
   75SOL     OW 1346   1.466   1.417   0.953
   75SOL    HW1 1347   1.407   1.423   1.033
   75SOL    HW2 1348   1.451   1.329   0.907
   76SOL     OW 1349   1.667   1.714   0.572
   76SOL    HW1 1350   1.626   1.691   0.484
   76SOL    HW2 1351   1.649   1.640   0.637
   77SOL     OW 1352   0.598   0.729   0.270
   77SOL    HW1 1353   0.622   0.798   0.202
   77SOL    HW2 1354   0.520   0.762   0.324
   78SOL     OW 1355   1.281   0.345   0.944
   78SOL    HW1 1356   1.195   0.295   0.931
   78SOL    HW2 1357   1.343   0.291   1.000
   79SOL     OW 1358   1.576   1.662   0.307
   79SOL    HW1 1359   1.665   1.708   0.310
   79SOL    HW2 1360   1.555   1.638   0.212
   80SOL     OW 1361   0.807   0.605   1.465
   80SOL    HW1 1362   0.760   0.602   1.554
   80SOL    HW2 1363   0.756   0.550   1.399
   81SOL     OW 1364   1.394   0.469   1.674
   81SOL    HW1 1365   1.374   0.512   1.762
   81SOL    HW2 1366   1.472   0.407   1.683
   82SOL     OW 1367   0.973   0.890   1.572
   82SOL    HW1 1368   1.019   0.806   1.543
   82SOL    HW2 1369   0.917   0.924   1.497
   83SOL     OW 1370   0.991   0.410   1.242
   83SOL    HW1 1371   0.914   0.444   1.296
   83SOL    HW2 1372   0.957   0.359   1.163
   84SOL     OW 1373   0.076   0.811   0.789
   84SOL    HW1 1374   0.175   0.799   0.798
   84SOL    HW2 1375   0.052   0.906   0.810
   85SOL     OW 1376   0.130   1.821   1.571
   85SOL    HW1 1377   0.120   1.806   1.670
   85SOL    HW2 1378   0.044   1.857   1.535
   86SOL     OW 1379   1.719   0.585   1.831
   86SOL    HW1 1380   1.693   0.674   1.795
   86SOL    HW2 1381   1.717   0.517   1.758
   87SOL     OW 1382   1.362   1.144   0.545
   87SOL    HW1 1383   1.445   1.115   0.497
   87SOL    HW2 1384   1.313   1.211   0.489
   88SOL     OW 1385   0.550   0.196   0.885
   88SOL    HW1 1386   0.545   0.191   0.985
   88SOL    HW2 1387   0.552   0.292   0.856
   89SOL     OW 1388   1.008   1.456   0.477
   89SOL    HW1 1389   0.962   1.528   0.425
   89SOL    HW2 1390   1.004   1.476   0.575
   90SOL     OW 1391   1.795   1.066   0.873
   90SOL    HW1 1392   1.733   1.051   0.797
   90SOL    HW2 1393   1.743   1.077   0.958
   91SOL     OW 1394   1.227   1.550   1.506
   91SOL    HW1 1395   1.233   1.473   1.570
   91SOL    HW2 1396   1.175   1.524   1.426
   92SOL     OW 1397   0.321   0.943   0.242
   92SOL    HW1 1398   0.403   0.982   0.200
   92SOL    HW2 1399   0.294   0.861   0.193
   93SOL     OW 1400   1.458   0.735   0.728
   93SOL    HW1 1401   1.453   0.670   0.803
   93SOL    HW2 1402   1.538   0.794   0.741
   94SOL     OW 1403   0.461   1.266   1.727
   94SOL    HW1 1404   0.411   1.267   1.641
   94SOL    HW2 1405   0.398   1.248   1.803
   95SOL     OW 1406   1.111   1.776   0.237
   95SOL    HW1 1407   1.051   1.714   0.287
   95SOL    HW2 1408   1.142   1.732   0.152
   96SOL     OW 1409   0.202   0.285   1.498
   96SOL    HW1 1410   0.122   0.345   1.485
   96SOL    HW2 1411   0.192   0.236   1.584
   97SOL     OW 1412   1.632   1.377   0.081
   97SOL    HW1 1413   1.600   1.471   0.071
   97SOL    HW2 1414   1.556   1.314   0.069
   98SOL     OW 1415   0.464   1.743   0.323
   98SOL    HW1 1416   0.497   1.782   0.409
   98SOL    HW2 1417   0.540   1.736   0.258
   99SOL     OW 1418   0.249   1.785   1.241
   99SOL    HW1 1419   0.306   1.720   1.291
   99SOL    HW2 1420   0.233   1.752   1.148
  100SOL     OW 1421   0.382   0.700   0.480
  100SOL    HW1 1422   0.427   0.610   0.477
  100SOL    HW2 1423   0.288   0.689   0.513
  101SOL     OW 1424   1.547   0.222   1.729
  101SOL    HW1 1425   1.542   0.259   1.821
  101SOL    HW2 1426   1.475   0.153   1.717
  102SOL     OW 1427   0.614   0.122   0.117
  102SOL    HW1 1428   0.712   0.100   0.124
  102SOL    HW2 1429   0.583   0.105   0.024
  103SOL     OW 1430   0.781   0.264   1.749
  103SOL    HW1 1431   0.848   0.203   1.792
  103SOL    HW2 1432   0.708   0.283   1.814
  104SOL     OW 1433   0.888   1.514   1.195
  104SOL    HW1 1434   0.865   1.489   1.101
  104SOL    HW2 1435   0.949   1.445   1.234
  105SOL     OW 1436   1.351   0.590   1.433
  105SOL    HW1 1437   1.379   0.547   1.518
  105SOL    HW2 1438   1.376   0.686   1.434
  106SOL     OW 1439   0.803   1.402   0.924
  106SOL    HW1 1440   0.893   1.416   0.882
  106SOL    HW2 1441   0.732   1.404   0.853
  107SOL     OW 1442   0.922   0.503   0.899
  107SOL    HW1 1443   0.897   0.494   0.803
  107SOL    HW2 1444   0.970   0.421   0.930
  108SOL     OW 1445   0.539   0.064   0.512
  108SOL    HW1 1446   0.458   0.065   0.570
  108SOL    HW2 1447   0.542   0.147   0.457
  109SOL     OW 1448   1.434   1.188   0.041
  109SOL    HW1 1449   1.466   1.112   0.098
  109SOL    HW2 1450   1.342   1.215   0.071
  110SOL     OW 1451   0.297   0.035   0.171
  110SOL    HW1 1452   0.346   0.119   0.150
  110SOL    HW2 1453   0.359  -0.030   0.216
  111SOL     OW 1454   0.935   0.236   0.480
  111SOL    HW1 1455   0.887   0.277   0.402
  111SOL    HW2 1456   1.034   0.234   0.461
  112SOL     OW 1457   1.076   0.683   1.464
  112SOL    HW1 1458   0.996   0.622   1.467
  112SOL    HW2 1459   1.157   0.630   1.440
  113SOL     OW 1460   1.227   1.570   0.793
  113SOL    HW1 1461   1.248   1.644   0.728
  113SOL    HW2 1462   1.295   1.570   0.866
  114SOL     OW 1463   0.459   1.152   0.741
  114SOL    HW1 1464   0.388   1.125   0.806
  114SOL    HW2 1465   0.433   1.124   0.648
  115SOL     OW 1466   1.271   1.797   0.591
  115SOL    HW1 1467   1.315   1.861   0.527
  115SOL    HW2 1468   1.221   1.849   0.661
  116SOL     OW 1469   0.078   0.556   1.386
  116SOL    HW1 1470   0.170   0.555   1.345
  116SOL    HW2 1471   0.072   0.630   1.453
  117SOL     OW 1472   0.561   0.222   1.147
  117SOL    HW1 1473   0.599   0.138   1.184
  117SOL    HW2 1474   0.473   0.241   1.191
  118SOL     OW 1475   0.866   0.454   0.642
  118SOL    HW1 1476   0.834   0.526   0.580
  118SOL    HW2 1477   0.890   0.373   0.589
  119SOL     OW 1478   1.017   0.039   0.753
  119SOL    HW1 1479   0.945   0.044   0.684
  119SOL    HW2 1480   0.993  -0.030   0.822
  120SOL     OW 1481   1.429   1.173   0.867
  120SOL    HW1 1482   1.374   1.089   0.860
  120SOL    HW2 1483   1.455   1.202   0.775
  121SOL     OW 1484   1.466   0.590   0.992
  121SOL    HW1 1485   1.436   0.495   0.999
  121SOL    HW2 1486   1.539   0.606   1.058
  122SOL     OW 1487   1.857   0.833   0.377
  122SOL    HW1 1488   1.899   0.769   0.441
  122SOL    HW2 1489   1.819   0.782   0.299
  123SOL     OW 1490   0.488   1.385   0.174
  123SOL    HW1 1491   0.401   1.370   0.221
  123SOL    HW2 1492   0.471   1.411   0.079
  124SOL     OW 1493   1.664   1.280   0.657
  124SOL    HW1 1494   1.763   1.288   0.671
  124SOL    HW2 1495   1.619   1.364   0.688
  125SOL     OW 1496   1.390   0.575   0.078
  125SOL    HW1 1497   1.336   0.554   0.159
  125SOL    HW2 1498   1.481   0.534   0.087
  126SOL     OW 1499   0.527   0.256   0.328
  126SOL    HW1 1500   0.554   0.197   0.253
  126SOL    HW2 1501   0.527   0.351   0.297
  127SOL     OW 1502   1.754   1.223   1.588
  127SOL    HW1 1503   1.845   1.184   1.575
  127SOL    HW2 1504   1.762   1.319   1.612
  128SOL     OW 1505   1.064   1.347   1.340
  128SOL    HW1 1506   0.984   1.324   1.395
  128SOL    HW2 1507   1.147   1.321   1.389
  129SOL     OW 1508   1.592   1.629   1.625
  129SOL    HW1 1509   1.619   1.663   1.535
  129SOL    HW2 1510   1.671   1.591   1.671
  130SOL     OW 1511   1.111   1.195   1.100
  130SOL    HW1 1512   1.071   1.239   1.181
  130SOL    HW2 1513   1.070   1.232   1.017
  131SOL     OW 1514   1.638   1.099   1.079
  131SOL    HW1 1515   1.643   1.180   1.138
  131SOL    HW2 1516   1.552   1.101   1.028
  132SOL     OW 1517   0.915   0.089   1.402
  132SOL    HW1 1518   0.940   0.069   1.307
  132SOL    HW2 1519   0.987   0.145   1.444
  133SOL     OW 1520   0.980   1.116   1.719
  133SOL    HW1 1521   0.881   1.122   1.729
  133SOL    HW2 1522   1.003   1.036   1.663
  134SOL     OW 1523   0.705   1.050   0.368
  134SOL    HW1 1524   0.691   1.057   0.467
  134SOL    HW2 1525   0.789   0.999   0.350
  135SOL     OW 1526   0.410   0.813   1.251
  135SOL    HW1 1527   0.496   0.825   1.301
  135SOL    HW2 1528   0.368   0.726   1.278
  136SOL     OW 1529   1.274   0.386   1.262
  136SOL    HW1 1530   1.295   0.460   1.326
  136SOL    HW2 1531   1.185   0.403   1.219
  137SOL     OW 1532   0.064   1.564   1.331
  137SOL    HW1 1533   0.018   1.646   1.297
  137SOL    HW2 1534   0.162   1.583   1.340
  138SOL     OW 1535   0.367   1.100   0.501
  138SOL    HW1 1536   0.360   1.183   0.445
  138SOL    HW2 1537   0.371   1.020   0.441
  139SOL     OW 1538   0.566   0.537   0.865
  139SOL    HW1 1539   0.578   0.603   0.791
  139SOL    HW2 1540   0.612   0.571   0.948
  140SOL     OW 1541   1.252   1.348   0.388
  140SOL    HW1 1542   1.302   1.425   0.428
  140SOL    HW2 1543   1.157   1.350   0.420
  141SOL     OW 1544   1.272   1.445   1.142
  141SOL    HW1 1545   1.319   1.458   1.229
  141SOL    HW2 1546   1.206   1.371   1.151
  142SOL     OW 1547   1.582   0.639   0.472
  142SOL    HW1 1548   1.551   0.700   0.545
  142SOL    HW2 1549   1.632   0.691   0.403
  143SOL     OW 1550   0.354   1.510   1.329
  143SOL    HW1 1551   0.333   1.466   1.242
  143SOL    HW2 1552   0.451   1.536   1.332
  144SOL     OW 1553   0.402   0.751   1.598
  144SOL    HW1 1554   0.470   0.806   1.551
  144SOL    HW2 1555   0.442   0.663   1.625
  145SOL     OW 1556   1.587   0.779   1.670
  145SOL    HW1 1557   1.495   0.817   1.665
  145SOL    HW2 1558   1.647   0.826   1.605
  146SOL     OW 1559   0.504   0.050   1.740
  146SOL    HW1 1560   0.462  -0.007   1.670
  146SOL    HW2 1561   0.438   0.119   1.772
  147SOL     OW 1562   0.573   0.870   1.029
  147SOL    HW1 1563   0.617   0.959   1.020
  147SOL    HW2 1564   0.510   0.870   1.106
  148SOL     OW 1565   1.360   0.862   1.045
  148SOL    HW1 1566   1.285   0.862   0.979
  148SOL    HW2 1567   1.397   0.770   1.054
  149SOL     OW 1568   0.307   0.213   1.231
  149SOL    HW1 1569   0.284   0.250   1.321
  149SOL    HW2 1570   0.277   0.118   1.225
  150SOL     OW 1571   0.037   1.310   1.282
  150SOL    HW1 1572   0.090   1.261   1.350
  150SOL    HW2 1573   0.059   1.408   1.287
  151SOL     OW 1574   0.732   0.634   1.064
  151SOL    HW1 1575   0.791   0.608   0.988
  151SOL    HW2 1576   0.704   0.730   1.053
  152SOL     OW 1577   1.728   0.935   1.854
  152SOL    HW1 1578   1.682   0.928   1.765
  152SOL    HW2 1579   1.666   0.979   1.920
  153SOL     OW 1580   0.307   0.063   0.618
  153SOL    HW1 1581   0.296   0.157   0.651
  153SOL    HW2 1582   0.302   0.000   0.695
  154SOL     OW 1583   1.622   0.367   0.374
  154SOL    HW1 1584   1.624   0.291   0.438
  154SOL    HW2 1585   1.574   0.444   0.414
  155SOL     OW 1586   1.023   0.766   0.966
  155SOL    HW1 1587   1.038   0.787   1.062
  155SOL    HW2 1588   0.993   0.671   0.957
  156SOL     OW 1589   0.980   1.573   1.700
  156SOL    HW1 1590   0.960   1.617   1.612
  156SOL    HW2 1591   1.019   1.482   1.684
  157SOL     OW 1592   1.859   1.518   1.605
  157SOL    HW1 1593   1.873   1.545   1.510
  157SOL    HW2 1594   1.942   1.540   1.658
  158SOL     OW 1595   0.350   0.898   1.804
  158SOL    HW1 1596   0.426   0.942   1.852
  158SOL    HW2 1597   0.385   0.851   1.722
  159SOL     OW 1598   1.540   0.274   0.125
  159SOL    HW1 1599   1.479   0.199   0.148
  159SOL    HW2 1600   1.562   0.326   0.208
  160SOL     OW 1601   1.303   0.838   0.042
  160SOL    HW1 1602   1.337   0.745   0.057
  160SOL    HW2 1603   1.321   0.865  -0.053
  161SOL     OW 1604   1.068   1.333   0.849
  161SOL    HW1 1605   1.075   1.249   0.794
  161SOL    HW2 1606   1.130   1.402   0.813
  162SOL     OW 1607   0.319   0.810   0.949
  162SOL    HW1 1608   0.412   0.846   0.954
  162SOL    HW2 1609   0.313   0.725   1.001
  163SOL     OW 1610   0.339   0.509   1.006
  163SOL    HW1 1611   0.287   0.426   0.989
  163SOL    HW2 1612   0.416   0.514   0.942
  164SOL     OW 1613   1.160   0.207   1.477
  164SOL    HW1 1614   1.160   0.271   1.554
  164SOL    HW2 1615   1.188   0.255   1.394
  165SOL     OW 1616   0.008   1.326   0.200
  165SOL    HW1 1617  -0.085   1.347   0.169
  165SOL    HW2 1618   0.018   1.227   0.213
  166SOL     OW 1619   0.088   1.801   0.927
  166SOL    HW1 1620   0.046   1.715   0.900
  166SOL    HW2 1621   0.182   1.804   0.893
  167SOL     OW 1622   1.002   0.796   1.238
  167SOL    HW1 1623   1.043   0.764   1.324
  167SOL    HW2 1624   0.906   0.769   1.235
  168SOL     OW 1625   0.040   0.544   1.114
  168SOL    HW1 1626   0.125   0.511   1.073
  168SOL    HW2 1627   0.053   0.559   1.212
  169SOL     OW 1628   0.189   0.520   1.722
  169SOL    HW1 1629   0.248   0.480   1.652
  169SOL    HW2 1630   0.131   0.591   1.681
  170SOL     OW 1631   1.369   0.950   1.660
  170SOL    HW1 1632   1.408   1.039   1.680
  170SOL    HW2 1633   1.379   0.930   1.563
  171SOL     OW 1634   0.815   0.572   0.325
  171SOL    HW1 1635   0.822   0.483   0.279
  171SOL    HW2 1636   0.721   0.606   0.317
  172SOL     OW 1637   1.657   0.604   1.206
  172SOL    HW1 1638   1.619   0.535   1.268
  172SOL    HW2 1639   1.739   0.568   1.162
  173SOL     OW 1640   0.671   0.464   1.269
  173SOL    HW1 1641   0.637   0.375   1.239
  173SOL    HW2 1642   0.697   0.518   1.189
  174SOL     OW 1643   0.930   1.678   1.465
  174SOL    HW1 1644   0.906   1.660   1.370
  174SOL    HW2 1645   0.960   1.772   1.475
  175SOL     OW 1646   0.473   0.500   0.191
  175SOL    HW1 1647   0.534   0.580   0.195
  175SOL    HW2 1648   0.378   0.531   0.198
  176SOL     OW 1649   0.159   1.137   1.466
  176SOL    HW1 1650   0.181   1.076   1.542
  176SOL    HW2 1651   0.169   1.088   1.380
  177SOL     OW 1652   1.347   1.059   1.234
  177SOL    HW1 1653   1.371   0.996   1.160
  177SOL    HW2 1654   1.257   1.099   1.216
  178SOL     OW 1655   1.302   0.855   0.309
  178SOL    HW1 1656   1.216   0.824   0.351
  178SOL    HW2 1657   1.298   0.841   0.210
  179SOL     OW 1658   1.759   1.747   1.154
  179SOL    HW1 1659   1.820   1.777   1.081
  179SOL    HW2 1660   1.721   1.658   1.132
  180SOL     OW 1661   1.252   1.731   1.128
  180SOL    HW1 1662   1.336   1.736   1.074
  180SOL    HW2 1663   1.229   1.635   1.146
  181SOL     OW 1664   0.083   1.258   1.022
  181SOL    HW1 1665   0.078   1.257   1.122
  181SOL    HW2 1666   0.000   1.217   0.984
  182SOL     OW 1667   0.688   1.662   1.716
  182SOL    HW1 1668   0.632   1.743   1.725
  182SOL    HW2 1669   0.740   1.666   1.630
  183SOL     OW 1670   1.726   0.135   0.523
  183SOL    HW1 1671   1.799   0.118   0.456
  183SOL    HW2 1672   1.695   0.048   0.561
  184SOL     OW 1673   1.388   1.573   0.477
  184SOL    HW1 1674   1.455   1.585   0.403
  184SOL    HW2 1675   1.348   1.662   0.500
  185SOL     OW 1676   1.280   0.927   0.672
  185SOL    HW1 1677   1.340   0.846   0.674
  185SOL    HW2 1678   1.320   0.996   0.612
  186SOL     OW 1679   0.830   1.273   1.422
  186SOL    HW1 1680   0.825   1.306   1.517
  186SOL    HW2 1681   0.744   1.292   1.376
  187SOL     OW 1682   0.672   1.616   0.154
  187SOL    HW1 1683   0.681   1.626   0.055
  187SOL    HW2 1684   0.632   1.527   0.175
  188SOL     OW 1685   1.650   1.720   1.394
  188SOL    HW1 1686   1.703   1.730   1.310
  188SOL    HW2 1687   1.623   1.810   1.428
  189SOL     OW 1688   1.841   0.175   0.963
  189SOL    HW1 1689   1.880   0.090   0.927
  189SOL    HW2 1690   1.743   0.177   0.944
  190SOL     OW 1691   0.263   0.326   0.720
  190SOL    HW1 1692   0.184   0.377   0.686
  190SOL    HW2 1693   0.254   0.311   0.818
  191SOL     OW 1694   1.194   1.612   0.031
  191SOL    HW1 1695   1.200   1.519   0.068
  191SOL    HW2 1696   1.135   1.612  -0.049
  192SOL     OW 1697   0.822   1.002   1.372
  192SOL    HW1 1698   0.862   1.001   1.280
  192SOL    HW2 1699   0.832   1.094   1.412
  193SOL     OW 1700   0.916   0.910   0.291
  193SOL    HW1 1701   0.979   0.948   0.223
  193SOL    HW2 1702   0.956   0.827   0.330
  194SOL     OW 1703   1.504   1.607   0.044
  194SOL    HW1 1704   1.412   1.644   0.051
  194SOL    HW2 1705   1.542   1.627  -0.046
  195SOL     OW 1706   0.372   1.288   1.490
  195SOL    HW1 1707   0.359   1.381   1.456
  195SOL    HW2 1708   0.288   1.236   1.477
  196SOL     OW 1709   1.614   1.292   1.289
  196SOL    HW1 1710   1.674   1.295   1.369
  196SOL    HW2 1711   1.539   1.356   1.302
  197SOL     OW 1712   1.039   1.098   0.696
  197SOL    HW1 1713   0.969   1.051   0.750
  197SOL    HW2 1714   1.098   1.030   0.653
  198SOL     OW 1715   1.014   0.236   0.971
  198SOL    HW1 1716   1.006   0.200   0.878
  198SOL    HW2 1717   1.012   0.160   1.036
  199SOL     OW 1718   0.590   1.487   0.491
  199SOL    HW1 1719   0.632   1.429   0.421
  199SOL    HW2 1720   0.546   1.566   0.447
  200SOL     OW 1721   1.709   0.385   1.381
  200SOL    HW1 1722   1.782   0.454   1.385
  200SOL    HW2 1723   1.737   0.310   1.322
  201SOL     OW 1724   0.255   1.348   0.290
  201SOL    HW1 1725   0.159   1.349   0.263
  201SOL    HW2 1726   0.267   1.401   0.374
  202SOL     OW 1727   0.105   1.013   1.726
  202SOL    HW1 1728   0.028   0.980   1.780
  202SOL    HW2 1729   0.190   0.983   1.768
  203SOL     OW 1730   0.672   0.203   1.489
  203SOL    HW1 1731   0.762   0.187   1.449
  203SOL    HW2 1732   0.680   0.208   1.588
  204SOL     OW 1733   0.075   0.345   0.033
  204SOL    HW1 1734  -0.017   0.317   0.004
  204SOL    HW2 1735   0.106   0.422  -0.023
  205SOL     OW 1736   1.440   0.856   1.398
  205SOL    HW1 1737   1.383   0.908   1.335
  205SOL    HW2 1738   1.536   0.868   1.374
  206SOL     OW 1739   0.072   0.166   0.318
  206SOL    HW1 1740   0.055   0.249   0.264
  206SOL    HW2 1741   0.162   0.129   0.296
  207SOL     OW 1742   1.183   1.335   0.119
  207SOL    HW1 1743   1.084   1.324   0.121
  207SOL    HW2 1744   1.217   1.350   0.212
  208SOL     OW 1745   0.613   0.842   1.431
  208SOL    HW1 1746   0.669   0.923   1.414
  208SOL    HW2 1747   0.672   0.762   1.434
  209SOL     OW 1748   1.493   1.767   0.959
  209SOL    HW1 1749   1.526   1.831   0.890
  209SOL    HW2 1750   1.559   1.761   1.034
  210SOL     OW 1751   1.450   1.220   1.633
  210SOL    HW1 1752   1.441   1.210   1.732
  210SOL    HW2 1753   1.546   1.213   1.607
  211SOL     OW 1754   0.390   1.741   1.560
  211SOL    HW1 1755   0.299   1.782   1.558
  211SOL    HW2 1756   0.383   1.647   1.592
  212SOL     OW 1757   1.674   0.883   1.254
  212SOL    HW1 1758   1.647   0.794   1.217
  212SOL    HW2 1759   1.675   0.951   1.181
  213SOL     OW 1760   0.594   0.745   0.652
  213SOL    HW1 1761   0.644   0.830   0.633
  213SOL    HW2 1762   0.506   0.747   0.604
  214SOL     OW 1763   1.777   0.342   1.642
  214SOL    HW1 1764   1.760   0.373   1.548
  214SOL    HW2 1765   1.693   0.305   1.680
  215SOL     OW 1766   1.730   0.934   1.517
  215SOL    HW1 1767   1.768   1.025   1.532
  215SOL    HW2 1768   1.722   0.917   1.418
  216SOL     OW 1769   0.859   1.374   0.016
  216SOL    HW1 1770   0.813   1.389   0.104
  216SOL    HW2 1771   0.903   1.459  -0.014
  217SOL     OW 1772   0.859   0.956   0.861
  217SOL    HW1 1773   0.913   0.887   0.909
  217SOL    HW2 1774   0.827   1.025   0.927
  218SOL     OW 1775   1.083   0.984   0.087
  218SOL    HW1 1776   1.060   1.037   0.005
  218SOL    HW2 1777   1.164   0.928   0.068
  219SOL     OW 1778   1.861   1.569   0.851
  219SOL    HW1 1779   1.790   1.557   0.781
  219SOL    HW2 1780   1.862   1.490   0.911
  220SOL     OW 1781   0.221   1.314   1.844
  220SOL    HW1 1782   0.156   1.241   1.823
  220SOL    HW2 1783   0.225   1.328   1.942
  221SOL     OW 1784   0.079   1.240   0.653
  221SOL    HW1 1785   0.078   1.193   0.741
  221SOL    HW2 1786   0.161   1.212   0.602
  222SOL     OW 1787   0.672   1.391   1.624
  222SOL    HW1 1788   0.594   1.341   1.662
  222SOL    HW2 1789   0.669   1.486   1.655
  223SOL     OW 1790   1.824   0.192   1.227
  223SOL    HW1 1791   1.820   0.102   1.271
  223SOL    HW2 1792   1.827   0.181   1.128
  224SOL     OW 1793   0.428   0.424   0.520
  224SOL    HW1 1794   0.458   0.352   0.458
  224SOL    HW2 1795   0.389   0.384   0.603
  225SOL     OW 1796   1.705   1.487   1.104
  225SOL    HW1 1797   1.612   1.462   1.077
  225SOL    HW2 1798   1.731   1.437   1.186
  226SOL     OW 1799   0.317   0.547   1.280
  226SOL    HW1 1800   0.355   0.488   1.352
  226SOL    HW2 1801   0.357   0.521   1.192
  227SOL     OW 1802   1.424   0.214   1.112
  227SOL    HW1 1803   1.476   0.149   1.167
  227SOL    HW2 1804   1.375   0.277   1.173
  228SOL     OW 1805   1.001   0.034   1.154
  228SOL    HW1 1806   0.938  -0.038   1.123
  228SOL    HW2 1807   1.094  -0.002   1.154
  229SOL     OW 1808   0.770   1.330   0.301
  229SOL    HW1 1809   0.724   1.243   0.318
  229SOL    HW2 1810   0.861   1.327   0.342
  230SOL     OW 1811   0.618   1.567   1.284
  230SOL    HW1 1812   0.613   1.649   1.341
  230SOL    HW2 1813   0.707   1.564   1.239
  231SOL     OW 1814   1.300   0.453   0.691
  231SOL    HW1 1815   1.241   0.533   0.695
  231SOL    HW2 1816   1.315   0.418   0.784
  232SOL     OW 1817   1.593   0.221   0.882
  232SOL    HW1 1818   1.509   0.220   0.936
  232SOL    HW2 1819   1.595   0.304   0.826
  233SOL     OW 1820   0.039   1.077   0.300
  233SOL    HW1 1821   0.138   1.066   0.291
  233SOL    HW2 1822  -0.001   0.991   0.332
  234SOL     OW 1823   0.875   1.646   0.337
  234SOL    HW1 1824   0.798   1.611   0.283
  234SOL    HW2 1825   0.843   1.717   0.399
  235SOL     OW 1826   0.230   0.628   1.975
  235SOL    HW1 1827   0.137   0.626   2.012
  235SOL    HW2 1828   0.231   0.589   1.883
  236SOL     OW 1829   0.225   0.275   2.858
  236SOL    HW1 1830   0.260   0.258   2.950
  236SOL    HW2 1831   0.137   0.230   2.846
  237SOL     OW 1832   0.019   0.368   2.509
  237SOL    HW1 1833  -0.063   0.411   2.548
  237SOL    HW2 1834  -0.009   0.295   2.446
  238SOL     OW 1835   0.569   1.275   3.027
  238SOL    HW1 1836   0.476   1.268   2.990
  238SOL    HW2 1837   0.580   1.364   3.071
  239SOL     OW 1838   1.555   1.511   2.565
  239SOL    HW1 1839   1.498   1.495   2.646
  239SOL    HW2 1840   1.496   1.521   2.485
  240SOL     OW 1841   1.135   0.703   2.579
  240SOL    HW1 1842   1.192   0.781   2.554
  240SOL    HW2 1843   1.075   0.729   2.655
  241SOL     OW 1844   1.755   0.607   2.093
  241SOL    HW1 1845   1.743   0.594   1.994
  241SOL    HW2 1846   1.725   0.526   2.142
  242SOL     OW 1847   0.768   1.144   2.885
  242SOL    HW1 1848   0.690   1.161   2.945
  242SOL    HW2 1849   0.802   1.231   2.849
  243SOL     OW 1850   0.850   0.798   3.685
  243SOL    HW1 1851   0.846   0.874   3.750
  243SOL    HW2 1852   0.872   0.834   3.594
  244SOL     OW 1853   0.685   1.012   2.527
  244SOL    HW1 1854   0.754   0.996   2.597
  244SOL    HW2 1855   0.612   1.069   2.565
  245SOL     OW 1856   0.686   1.161   3.665
  245SOL    HW1 1857   0.746   1.240   3.679
  245SOL    HW2 1858   0.600   1.192   3.624
  246SOL     OW 1859   0.335   1.435   2.923
  246SOL    HW1 1860   0.257   1.404   2.870
  246SOL    HW2 1861   0.393   1.493   2.866
  247SOL     OW 1862   1.460   1.505   3.201
  247SOL    HW1 1863   1.484   1.599   3.227
  247SOL    HW2 1864   1.444   1.451   3.283
  248SOL     OW 1865   0.438   0.392   3.361
  248SOL    HW1 1866   0.520   0.336   3.370
  248SOL    HW2 1867   0.357   0.334   3.365
  249SOL     OW 1868   1.603   0.447   2.599
  249SOL    HW1 1869   1.529   0.493   2.549
  249SOL    HW2 1870   1.654   0.515   2.652
  250SOL     OW 1871   1.127   1.341   3.552
  250SOL    HW1 1872   1.174   1.341   3.640
  250SOL    HW2 1873   1.079   1.254   3.541
  251SOL     OW 1874   0.230   1.434   2.400
  251SOL    HW1 1875   0.204   1.530   2.400
  251SOL    HW2 1876   0.159   1.380   2.445
  252SOL     OW 1877   0.240   1.091   2.748
  252SOL    HW1 1878   0.254   1.007   2.800
  252SOL    HW2 1879   0.185   1.155   2.803
  253SOL     OW 1880   0.606   0.964   1.985
  253SOL    HW1 1881   0.613   1.048   1.931
  253SOL    HW2 1882   0.652   0.977   2.073
  254SOL     OW 1883   1.594   0.114   3.342
  254SOL    HW1 1884   1.576   0.181   3.270
  254SOL    HW2 1885   1.591   0.160   3.431
  255SOL     OW 1886   0.122   0.643   2.425
  255SOL    HW1 1887   0.077   0.555   2.442
  255SOL    HW2 1888   0.121   0.697   2.509
  256SOL     OW 1889   1.842   1.767   2.221
  256SOL    HW1 1890   1.896   1.738   2.301
  256SOL    HW2 1891   1.872   1.857   2.192
  257SOL     OW 1892   1.689   0.922   2.474
  257SOL    HW1 1893   1.784   0.893   2.482
  257SOL    HW2 1894   1.681   0.987   2.399
  258SOL     OW 1895   1.641   1.108   2.294
  258SOL    HW1 1896   1.727   1.110   2.242
  258SOL    HW2 1897   1.655   1.155   2.382
  259SOL     OW 1898   0.113   0.737   3.459
  259SOL    HW1 1899   0.201   0.724   3.504
  259SOL    HW2 1900   0.100   0.834   3.437
  260SOL     OW 1901   0.613   1.365   2.588
  260SOL    HW1 1902   0.564   1.278   2.597
  260SOL    HW2 1903   0.590   1.408   2.501
  261SOL     OW 1904   1.293   1.228   3.285
  261SOL    HW1 1905   1.330   1.155   3.227
  261SOL    HW2 1906   1.345   1.233   3.370
  262SOL     OW 1907   0.809   0.004   2.364
  262SOL    HW1 1908   0.849   0.095   2.355
  262SOL    HW2 1909   0.709   0.012   2.370
  263SOL     OW 1910   0.197   0.976   3.126
  263SOL    HW1 1911   0.286   0.931   3.112
  263SOL    HW2 1912   0.124   0.911   3.107
  264SOL     OW 1913   1.525   0.999   2.052
  264SOL    HW1 1914   1.462   0.923   2.065
  264SOL    HW2 1915   1.573   1.017   2.138
  265SOL     OW 1916   1.187   1.792   3.478
  265SOL    HW1 1917   1.211   1.852   3.402
  265SOL    HW2 1918   1.194   1.697   3.448
  266SOL     OW 1919   0.317   0.251   3.663
  266SOL    HW1 1920   0.388   0.322   3.669
  266SOL    HW2 1921   0.229   0.290   3.691
  267SOL     OW 1922   1.466   1.417   2.815
  267SOL    HW1 1923   1.407   1.423   2.895
  267SOL    HW2 1924   1.451   1.329   2.769
  268SOL     OW 1925   1.667   1.714   2.434
  268SOL    HW1 1926   1.626   1.691   2.346
  268SOL    HW2 1927   1.649   1.640   2.499
  269SOL     OW 1928   0.598   0.729   2.132
  269SOL    HW1 1929   0.622   0.798   2.064
  269SOL    HW2 1930   0.520   0.762   2.186
  270SOL     OW 1931   1.281   0.345   2.806
  270SOL    HW1 1932   1.195   0.295   2.793
  270SOL    HW2 1933   1.343   0.291   2.862
  271SOL     OW 1934   1.576   1.662   2.169
  271SOL    HW1 1935   1.665   1.708   2.172
  271SOL    HW2 1936   1.555   1.638   2.074
  272SOL     OW 1937   0.807   0.605   3.327
  272SOL    HW1 1938   0.760   0.602   3.416
  272SOL    HW2 1939   0.756   0.550   3.261
  273SOL     OW 1940   1.394   0.469   3.536
  273SOL    HW1 1941   1.374   0.512   3.624
  273SOL    HW2 1942   1.472   0.407   3.545
  274SOL     OW 1943   0.973   0.890   3.434
  274SOL    HW1 1944   1.019   0.806   3.405
  274SOL    HW2 1945   0.917   0.924   3.359
  275SOL     OW 1946   0.991   0.410   3.104
  275SOL    HW1 1947   0.914   0.444   3.158
  275SOL    HW2 1948   0.957   0.359   3.025
  276SOL     OW 1949   1.041   0.701   2.291
  276SOL    HW1 1950   1.067   0.697   2.387
  276SOL    HW2 1951   0.956   0.650   2.277
  277SOL     OW 1952   0.076   0.811   2.651
  277SOL    HW1 1953   0.175   0.799   2.660
  277SOL    HW2 1954   0.052   0.906   2.672
  278SOL     OW 1955   0.130   1.821   3.433
  278SOL    HW1 1956   0.120   1.806   3.532
  278SOL    HW2 1957   0.044   1.857   3.397
  279SOL     OW 1958   1.719   0.585   3.693
  279SOL    HW1 1959   1.693   0.674   3.657
  279SOL    HW2 1960   1.717   0.517   3.620
  280SOL     OW 1961   1.362   1.144   2.407
  280SOL    HW1 1962   1.445   1.115   2.359
  280SOL    HW2 1963   1.313   1.211   2.351
  281SOL     OW 1964   0.550   0.196   2.747
  281SOL    HW1 1965   0.545   0.191   2.847
  281SOL    HW2 1966   0.552   0.292   2.718
  282SOL     OW 1967   1.008   1.456   2.339
  282SOL    HW1 1968   0.962   1.528   2.287
  282SOL    HW2 1969   1.004   1.476   2.437
  283SOL     OW 1970   1.795   1.066   2.735
  283SOL    HW1 1971   1.733   1.051   2.659
  283SOL    HW2 1972   1.743   1.077   2.820
  284SOL     OW 1973   1.227   1.550   3.368
  284SOL    HW1 1974   1.233   1.473   3.432
  284SOL    HW2 1975   1.175   1.524   3.288
  285SOL     OW 1976   0.321   0.943   2.104
  285SOL    HW1 1977   0.403   0.982   2.062
  285SOL    HW2 1978   0.294   0.861   2.055
  286SOL     OW 1979   1.458   0.735   2.590
  286SOL    HW1 1980   1.453   0.670   2.665
  286SOL    HW2 1981   1.538   0.794   2.603
  287SOL     OW 1982   0.461   1.266   3.589
  287SOL    HW1 1983   0.411   1.267   3.503
  287SOL    HW2 1984   0.398   1.248   3.665
  288SOL     OW 1985   0.202   0.285   3.360
  288SOL    HW1 1986   0.122   0.345   3.347
  288SOL    HW2 1987   0.192   0.236   3.446
  289SOL     OW 1988   1.632   1.377   1.943
  289SOL    HW1 1989   1.600   1.471   1.933
  289SOL    HW2 1990   1.556   1.314   1.931
  290SOL     OW 1991   0.464   1.743   2.185
  290SOL    HW1 1992   0.497   1.782   2.271
  290SOL    HW2 1993   0.540   1.736   2.120
  291SOL     OW 1994   1.400   0.107   2.288
  291SOL    HW1 1995   1.376   0.070   2.198
  291SOL    HW2 1996   1.499   0.123   2.292
  292SOL     OW 1997   0.940   1.698   2.766
  292SOL    HW1 1998   1.020   1.641   2.787
  292SOL    HW2 1999   0.891   1.658   2.689
  293SOL     OW 2000   0.382   0.700   2.342
  293SOL    HW1 2001   0.427   0.610   2.339
  293SOL    HW2 2002   0.288   0.689   2.375
  294SOL     OW 2003   1.547   0.222   3.591
  294SOL    HW1 2004   1.542   0.259   3.683
  294SOL    HW2 2005   1.475   0.153   3.579
  295SOL     OW 2006   0.781   0.264   3.611
  295SOL    HW1 2007   0.848   0.203   3.654
  295SOL    HW2 2008   0.708   0.283   3.676
  296SOL     OW 2009   0.888   1.514   3.057
  296SOL    HW1 2010   0.865   1.489   2.963
  296SOL    HW2 2011   0.949   1.445   3.096
  297SOL     OW 2012   1.351   0.590   3.295
  297SOL    HW1 2013   1.379   0.547   3.380
  297SOL    HW2 2014   1.376   0.686   3.296
  298SOL     OW 2015   0.803   1.402   2.786
  298SOL    HW1 2016   0.893   1.416   2.744
  298SOL    HW2 2017   0.732   1.404   2.715
  299SOL     OW 2018   0.922   0.503   2.761
  299SOL    HW1 2019   0.897   0.494   2.665
  299SOL    HW2 2020   0.970   0.421   2.792
  300SOL     OW 2021   1.434   1.188   1.903
  300SOL    HW1 2022   1.466   1.112   1.960
  300SOL    HW2 2023   1.342   1.215   1.933
  301SOL     OW 2024   0.297   0.035   2.033
  301SOL    HW1 2025   0.346   0.119   2.012
  301SOL    HW2 2026   0.359  -0.030   2.078
  302SOL     OW 2027   0.935   0.236   2.342
  302SOL    HW1 2028   0.887   0.277   2.264
  302SOL    HW2 2029   1.034   0.234   2.323
  303SOL     OW 2030   1.076   0.683   3.326
  303SOL    HW1 2031   0.996   0.622   3.329
  303SOL    HW2 2032   1.157   0.630   3.302
  304SOL     OW 2033   1.227   1.570   2.655
  304SOL    HW1 2034   1.248   1.644   2.590
  304SOL    HW2 2035   1.295   1.570   2.728
  305SOL     OW 2036   0.459   1.152   2.603
  305SOL    HW1 2037   0.388   1.125   2.668
  305SOL    HW2 2038   0.433   1.124   2.510
  306SOL     OW 2039   0.078   0.556   3.248
  306SOL    HW1 2040   0.170   0.555   3.207
  306SOL    HW2 2041   0.072   0.630   3.315
  307SOL     OW 2042   0.561   0.222   3.009
  307SOL    HW1 2043   0.599   0.138   3.046
  307SOL    HW2 2044   0.473   0.241   3.053
  308SOL     OW 2045   0.866   0.454   2.504
  308SOL    HW1 2046   0.834   0.526   2.442
  308SOL    HW2 2047   0.890   0.373   2.451
  309SOL     OW 2048   1.017   0.039   2.615
  309SOL    HW1 2049   0.945   0.044   2.546
  309SOL    HW2 2050   0.993  -0.030   2.684
  310SOL     OW 2051   1.429   1.173   2.729
  310SOL    HW1 2052   1.374   1.089   2.722
  310SOL    HW2 2053   1.455   1.202   2.637
  311SOL     OW 2054   1.466   0.590   2.854
  311SOL    HW1 2055   1.436   0.495   2.861
  311SOL    HW2 2056   1.539   0.606   2.920
  312SOL     OW 2057   1.857   0.833   2.239
  312SOL    HW1 2058   1.899   0.769   2.303
  312SOL    HW2 2059   1.819   0.782   2.161
  313SOL     OW 2060   0.488   1.385   2.036
  313SOL    HW1 2061   0.401   1.370   2.083
  313SOL    HW2 2062   0.471   1.411   1.941
  314SOL     OW 2063   1.664   1.280   2.519
  314SOL    HW1 2064   1.763   1.288   2.533
  314SOL    HW2 2065   1.619   1.364   2.550
  315SOL     OW 2066   1.390   0.575   1.940
  315SOL    HW1 2067   1.336   0.554   2.021
  315SOL    HW2 2068   1.481   0.534   1.949
  316SOL     OW 2069   0.527   0.256   2.190
  316SOL    HW1 2070   0.554   0.197   2.115
  316SOL    HW2 2071   0.527   0.351   2.159
  317SOL     OW 2072   1.754   1.223   3.450
  317SOL    HW1 2073   1.845   1.184   3.437
  317SOL    HW2 2074   1.762   1.319   3.474
  318SOL     OW 2075   1.064   1.347   3.202
  318SOL    HW1 2076   0.984   1.324   3.257
  318SOL    HW2 2077   1.147   1.321   3.251
  319SOL     OW 2078   1.592   1.629   3.487
  319SOL    HW1 2079   1.619   1.663   3.397
  319SOL    HW2 2080   1.671   1.591   3.533
  320SOL     OW 2081   1.111   1.195   2.962
  320SOL    HW1 2082   1.071   1.239   3.043
  320SOL    HW2 2083   1.070   1.232   2.879
  321SOL     OW 2084   1.638   1.099   2.941
  321SOL    HW1 2085   1.643   1.180   3.000
  321SOL    HW2 2086   1.552   1.101   2.890
  322SOL     OW 2087   0.915   0.089   3.264
  322SOL    HW1 2088   0.940   0.069   3.169
  322SOL    HW2 2089   0.987   0.145   3.306
  323SOL     OW 2090   0.980   1.116   3.581
  323SOL    HW1 2091   0.881   1.122   3.591
  323SOL    HW2 2092   1.003   1.036   3.525
  324SOL     OW 2093   0.705   1.050   2.230
  324SOL    HW1 2094   0.691   1.057   2.329
  324SOL    HW2 2095   0.789   0.999   2.212
  325SOL     OW 2096   0.410   0.813   3.113
  325SOL    HW1 2097   0.496   0.825   3.163
  325SOL    HW2 2098   0.368   0.726   3.140
  326SOL     OW 2099   1.274   0.386   3.124
  326SOL    HW1 2100   1.295   0.460   3.188
  326SOL    HW2 2101   1.185   0.403   3.081
  327SOL     OW 2102   0.064   1.564   3.193
  327SOL    HW1 2103   0.018   1.646   3.159
  327SOL    HW2 2104   0.162   1.583   3.202
  328SOL     OW 2105   0.367   1.100   2.363
  328SOL    HW1 2106   0.360   1.183   2.307
  328SOL    HW2 2107   0.371   1.020   2.303
  329SOL     OW 2108   0.566   0.537   2.727
  329SOL    HW1 2109   0.578   0.603   2.653
  329SOL    HW2 2110   0.612   0.571   2.810
  330SOL     OW 2111   1.252   1.348   2.250
  330SOL    HW1 2112   1.302   1.425   2.290
  330SOL    HW2 2113   1.157   1.350   2.282
  331SOL     OW 2114   1.272   1.445   3.004
  331SOL    HW1 2115   1.319   1.458   3.091
  331SOL    HW2 2116   1.206   1.371   3.013
  332SOL     OW 2117   1.582   0.639   2.334
  332SOL    HW1 2118   1.551   0.700   2.407
  332SOL    HW2 2119   1.632   0.691   2.265
  333SOL     OW 2120   0.402   0.751   3.460
  333SOL    HW1 2121   0.470   0.806   3.413
  333SOL    HW2 2122   0.442   0.663   3.487
  334SOL     OW 2123   1.587   0.779   3.532
  334SOL    HW1 2124   1.495   0.817   3.527
  334SOL    HW2 2125   1.647   0.826   3.467
  335SOL     OW 2126   1.013   0.105   3.632
  335SOL    HW1 2127   1.019   0.190   3.580
  335SOL    HW2 2128   1.045   0.029   3.575
  336SOL     OW 2129   0.504   0.050   3.602
  336SOL    HW1 2130   0.462  -0.007   3.532
  336SOL    HW2 2131   0.438   0.119   3.634
  337SOL     OW 2132   0.573   0.870   2.891
  337SOL    HW1 2133   0.617   0.959   2.882
  337SOL    HW2 2134   0.510   0.870   2.968
  338SOL     OW 2135   1.360   0.862   2.907
  338SOL    HW1 2136   1.285   0.862   2.841
  338SOL    HW2 2137   1.397   0.770   2.916
  339SOL     OW 2138   1.209   0.525   2.137
  339SOL    HW1 2139   1.222   0.441   2.191
  339SOL    HW2 2140   1.180   0.599   2.197
  340SOL     OW 2141   0.307   0.213   3.093
  340SOL    HW1 2142   0.284   0.250   3.183
  340SOL    HW2 2143   0.277   0.118   3.087
  341SOL     OW 2144   0.037   1.310   3.144
  341SOL    HW1 2145   0.090   1.261   3.212
  341SOL    HW2 2146   0.059   1.408   3.149
  342SOL     OW 2147   0.732   0.634   2.926
  342SOL    HW1 2148   0.791   0.608   2.850
  342SOL    HW2 2149   0.704   0.730   2.915
  343SOL     OW 2150   1.728   0.935   3.716
  343SOL    HW1 2151   1.682   0.928   3.627
  343SOL    HW2 2152   1.666   0.979   3.782
  344SOL     OW 2153   0.307   0.063   2.480
  344SOL    HW1 2154   0.296   0.157   2.513
  344SOL    HW2 2155   0.302   0.000   2.557
  345SOL     OW 2156   1.622   0.367   2.236
  345SOL    HW1 2157   1.624   0.291   2.300
  345SOL    HW2 2158   1.574   0.444   2.276
  346SOL     OW 2159   1.023   0.766   2.828
  346SOL    HW1 2160   1.038   0.787   2.924
  346SOL    HW2 2161   0.993   0.671   2.819
  347SOL     OW 2162   1.859   1.518   3.467
  347SOL    HW1 2163   1.873   1.545   3.372
  347SOL    HW2 2164   1.942   1.540   3.520
  348SOL     OW 2165   0.350   0.898   3.666
  348SOL    HW1 2166   0.426   0.942   3.714
  348SOL    HW2 2167   0.385   0.851   3.584
  349SOL     OW 2168   1.540   0.274   1.987
  349SOL    HW1 2169   1.479   0.199   2.010
  349SOL    HW2 2170   1.562   0.326   2.070
  350SOL     OW 2171   1.068   1.333   2.711
  350SOL    HW1 2172   1.075   1.249   2.656
  350SOL    HW2 2173   1.130   1.402   2.675
  351SOL     OW 2174   0.319   0.810   2.811
  351SOL    HW1 2175   0.412   0.846   2.816
  351SOL    HW2 2176   0.313   0.725   2.863
  352SOL     OW 2177   0.339   0.509   2.868
  352SOL    HW1 2178   0.287   0.426   2.851
  352SOL    HW2 2179   0.416   0.514   2.804
  353SOL     OW 2180   1.138   0.380   3.540
  353SOL    HW1 2181   1.093   0.443   3.604
  353SOL    HW2 2182   1.231   0.411   3.523
  354SOL     OW 2183   1.160   0.207   3.339
  354SOL    HW1 2184   1.160   0.271   3.416
  354SOL    HW2 2185   1.188   0.255   3.256
  355SOL     OW 2186   0.008   1.326   2.062
  355SOL    HW1 2187  -0.085   1.347   2.031
  355SOL    HW2 2188   0.018   1.227   2.075
  356SOL     OW 2189   0.504   1.568   2.772
  356SOL    HW1 2190   0.570   1.642   2.781
  356SOL    HW2 2191   0.548   1.489   2.730
  357SOL     OW 2192   1.002   0.796   3.100
  357SOL    HW1 2193   1.043   0.764   3.186
  357SOL    HW2 2194   0.906   0.769   3.097
  358SOL     OW 2195   0.040   0.544   2.976
  358SOL    HW1 2196   0.125   0.511   2.935
  358SOL    HW2 2197   0.053   0.559   3.074
  359SOL     OW 2198   0.189   0.520   3.584
  359SOL    HW1 2199   0.248   0.480   3.514
  359SOL    HW2 2200   0.131   0.591   3.543
  360SOL     OW 2201   1.369   0.950   3.522
  360SOL    HW1 2202   1.408   1.039   3.542
  360SOL    HW2 2203   1.379   0.930   3.425
  361SOL     OW 2204   1.657   0.604   3.068
  361SOL    HW1 2205   1.619   0.535   3.130
  361SOL    HW2 2206   1.739   0.568   3.024
  362SOL     OW 2207   0.252   1.564   3.606
  362SOL    HW1 2208   0.222   1.621   3.682
  362SOL    HW2 2209   0.245   1.467   3.632
  363SOL     OW 2210   0.671   0.464   3.131
  363SOL    HW1 2211   0.637   0.375   3.101
  363SOL    HW2 2212   0.697   0.518   3.051
  364SOL     OW 2213   0.473   0.500   2.053
  364SOL    HW1 2214   0.534   0.580   2.057
  364SOL    HW2 2215   0.378   0.531   2.060
  365SOL     OW 2216   0.159   1.137   3.328
  365SOL    HW1 2217   0.181   1.076   3.404
  365SOL    HW2 2218   0.169   1.088   3.242
  366SOL     OW 2219   1.347   1.059   3.096
  366SOL    HW1 2220   1.371   0.996   3.022
  366SOL    HW2 2221   1.257   1.099   3.078
  367SOL     OW 2222   1.302   0.855   2.171
  367SOL    HW1 2223   1.216   0.824   2.213
  367SOL    HW2 2224   1.298   0.841   2.072
  368SOL     OW 2225   1.759   1.747   3.016
  368SOL    HW1 2226   1.820   1.777   2.943
  368SOL    HW2 2227   1.721   1.658   2.994
  369SOL     OW 2228   1.252   1.731   2.990
  369SOL    HW1 2229   1.336   1.736   2.936
  369SOL    HW2 2230   1.229   1.635   3.008
  370SOL     OW 2231   0.083   1.258   2.884
  370SOL    HW1 2232   0.078   1.257   2.984
  370SOL    HW2 2233   0.000   1.217   2.846
  371SOL     OW 2234   0.688   1.662   3.578
  371SOL    HW1 2235   0.632   1.743   3.587
  371SOL    HW2 2236   0.740   1.666   3.492
  372SOL     OW 2237   1.726   0.135   2.385
  372SOL    HW1 2238   1.799   0.118   2.318
  372SOL    HW2 2239   1.695   0.048   2.423
  373SOL     OW 2240   0.130   1.794   3.713
  373SOL    HW1 2241   0.089   1.720   3.766
  373SOL    HW2 2242   0.194   1.845   3.771
  374SOL     OW 2243   1.280   0.927   2.534
  374SOL    HW1 2244   1.340   0.846   2.536
  374SOL    HW2 2245   1.320   0.996   2.474
  375SOL     OW 2246   0.830   1.273   3.284
  375SOL    HW1 2247   0.825   1.306   3.379
  375SOL    HW2 2248   0.744   1.292   3.238
  376SOL     OW 2249   0.672   1.616   2.016
  376SOL    HW1 2250   0.681   1.626   1.917
  376SOL    HW2 2251   0.632   1.527   2.037
  377SOL     OW 2252   1.650   1.720   3.256
  377SOL    HW1 2253   1.703   1.730   3.172
  377SOL    HW2 2254   1.623   1.810   3.290
  378SOL     OW 2255   1.841   0.175   2.825
  378SOL    HW1 2256   1.880   0.090   2.789
  378SOL    HW2 2257   1.743   0.177   2.806
  379SOL     OW 2258   0.263   0.326   2.582
  379SOL    HW1 2259   0.184   0.377   2.548
  379SOL    HW2 2260   0.254   0.311   2.680
  380SOL     OW 2261   0.822   1.002   3.234
  380SOL    HW1 2262   0.862   1.001   3.142
  380SOL    HW2 2263   0.832   1.094   3.274
  381SOL     OW 2264   1.504   1.607   1.906
  381SOL    HW1 2265   1.412   1.644   1.913
  381SOL    HW2 2266   1.542   1.627   1.816
  382SOL     OW 2267   0.372   1.288   3.352
  382SOL    HW1 2268   0.359   1.381   3.318
  382SOL    HW2 2269   0.288   1.236   3.339
  383SOL     OW 2270   1.614   1.292   3.151
  383SOL    HW1 2271   1.674   1.295   3.231
  383SOL    HW2 2272   1.539   1.356   3.164
  384SOL     OW 2273   1.039   1.098   2.558
  384SOL    HW1 2274   0.969   1.051   2.612
  384SOL    HW2 2275   1.098   1.030   2.515
  385SOL     OW 2276   1.014   0.236   2.833
  385SOL    HW1 2277   1.006   0.200   2.740
  385SOL    HW2 2278   1.012   0.160   2.898
  386SOL     OW 2279   0.590   1.487   2.353
  386SOL    HW1 2280   0.632   1.429   2.283
  386SOL    HW2 2281   0.546   1.566   2.309
  387SOL     OW 2282   1.709   0.385   3.243
  387SOL    HW1 2283   1.782   0.454   3.247
  387SOL    HW2 2284   1.737   0.310   3.184
  388SOL     OW 2285   0.255   1.348   2.152
  388SOL    HW1 2286   0.159   1.349   2.125
  388SOL    HW2 2287   0.267   1.401   2.236
  389SOL     OW 2288   0.105   1.013   3.588
  389SOL    HW1 2289   0.028   0.980   3.642
  389SOL    HW2 2290   0.190   0.983   3.630
  390SOL     OW 2291   0.672   0.203   3.351
  390SOL    HW1 2292   0.762   0.187   3.311
  390SOL    HW2 2293   0.680   0.208   3.450
  391SOL     OW 2294   0.075   0.345   1.895
  391SOL    HW1 2295  -0.017   0.317   1.866
  391SOL    HW2 2296   0.106   0.422   1.839
  392SOL     OW 2297   1.440   0.856   3.260
  392SOL    HW1 2298   1.383   0.908   3.197
  392SOL    HW2 2299   1.536   0.868   3.236
  393SOL     OW 2300   0.072   0.166   2.180
  393SOL    HW1 2301   0.055   0.249   2.126
  393SOL    HW2 2302   0.162   0.129   2.158
  394SOL     OW 2303   1.183   1.335   1.981
  394SOL    HW1 2304   1.084   1.324   1.983
  394SOL    HW2 2305   1.217   1.350   2.074
  395SOL     OW 2306   0.613   0.842   3.293
  395SOL    HW1 2307   0.669   0.923   3.276
  395SOL    HW2 2308   0.672   0.762   3.296
  396SOL     OW 2309   1.493   1.767   2.821
  396SOL    HW1 2310   1.526   1.831   2.752
  396SOL    HW2 2311   1.559   1.761   2.896
  397SOL     OW 2312   0.716   0.565   3.570
  397SOL    HW1 2313   0.735   0.630   3.644
  397SOL    HW2 2314   0.776   0.485   3.579
  398SOL     OW 2315   1.450   1.220   3.495
  398SOL    HW1 2316   1.441   1.210   3.594
  398SOL    HW2 2317   1.546   1.213   3.469
  399SOL     OW 2318   1.674   0.883   3.116
  399SOL    HW1 2319   1.647   0.794   3.079
  399SOL    HW2 2320   1.675   0.951   3.043
  400SOL     OW 2321   1.225   0.325   2.311
  400SOL    HW1 2322   1.290   0.251   2.300
  400SOL    HW2 2323   1.245   0.375   2.395
  401SOL     OW 2324   0.594   0.745   2.514
  401SOL    HW1 2325   0.644   0.830   2.495
  401SOL    HW2 2326   0.506   0.747   2.466
  402SOL     OW 2327   1.777   0.342   3.504
  402SOL    HW1 2328   1.760   0.373   3.410
  402SOL    HW2 2329   1.693   0.305   3.542
  403SOL     OW 2330   1.730   0.934   3.379
  403SOL    HW1 2331   1.768   1.025   3.394
  403SOL    HW2 2332   1.722   0.917   3.280
  404SOL     OW 2333   0.859   1.374   1.878
  404SOL    HW1 2334   0.813   1.389   1.966
  404SOL    HW2 2335   0.903   1.459   1.848
  405SOL     OW 2336   0.859   0.956   2.723
  405SOL    HW1 2337   0.913   0.887   2.771
  405SOL    HW2 2338   0.827   1.025   2.789
  406SOL     OW 2339   1.861   1.569   2.713
  406SOL    HW1 2340   1.790   1.557   2.643
  406SOL    HW2 2341   1.862   1.490   2.773
  407SOL     OW 2342   0.221   1.314   3.706
  407SOL    HW1 2343   0.156   1.241   3.685
  407SOL    HW2 2344   0.225   1.328   3.804
  408SOL     OW 2345   0.079   1.240   2.515
  408SOL    HW1 2346   0.078   1.193   2.603
  408SOL    HW2 2347   0.161   1.212   2.464
  409SOL     OW 2348   0.672   1.391   3.486
  409SOL    HW1 2349   0.594   1.341   3.524
  409SOL    HW2 2350   0.669   1.486   3.517
  410SOL     OW 2351   1.824   0.192   3.089
  410SOL    HW1 2352   1.820   0.102   3.133
  410SOL    HW2 2353   1.827   0.181   2.990
  411SOL     OW 2354   0.428   0.424   2.382
  411SOL    HW1 2355   0.458   0.352   2.320
  411SOL    HW2 2356   0.389   0.384   2.465
  412SOL     OW 2357   1.705   1.487   2.966
  412SOL    HW1 2358   1.612   1.462   2.939
  412SOL    HW2 2359   1.731   1.437   3.048
  413SOL     OW 2360   0.317   0.547   3.142
  413SOL    HW1 2361   0.355   0.488   3.214
  413SOL    HW2 2362   0.357   0.521   3.054
  414SOL     OW 2363   0.812   1.586   2.549
  414SOL    HW1 2364   0.844   1.596   2.455
  414SOL    HW2 2365   0.733   1.524   2.551
  415SOL     OW 2366   1.424   0.214   2.974
  415SOL    HW1 2367   1.476   0.149   3.029
  415SOL    HW2 2368   1.375   0.277   3.035
  416SOL     OW 2369   1.001   0.034   3.016
  416SOL    HW1 2370   0.938  -0.038   2.985
  416SOL    HW2 2371   1.094  -0.002   3.016
  417SOL     OW 2372   0.770   1.330   2.163
  417SOL    HW1 2373   0.724   1.243   2.180
  417SOL    HW2 2374   0.861   1.327   2.204
  418SOL     OW 2375   1.352   0.052   2.030
  418SOL    HW1 2376   1.387   0.011   1.946
  418SOL    HW2 2377   1.262   0.014   2.050
  419SOL     OW 2378   1.300   0.453   2.553
  419SOL    HW1 2379   1.241   0.533   2.557
  419SOL    HW2 2380   1.315   0.418   2.646
  420SOL     OW 2381   1.593   0.221   2.744
  420SOL    HW1 2382   1.509   0.220   2.798
  420SOL    HW2 2383   1.595   0.304   2.688
  421SOL     OW 2384   0.039   1.077   2.162
  421SOL    HW1 2385   0.138   1.066   2.153
  421SOL    HW2 2386  -0.001   0.991   2.194
  422SOL     OW 2387   0.875   1.646   2.199
  422SOL    HW1 2388   0.798   1.611   2.145
  422SOL    HW2 2389   0.843   1.717   2.261
  423SOL     OW 2390   0.230   0.628   3.837
  423SOL    HW1 2391   0.137   0.626   3.874
  423SOL    HW2 2392   0.231   0.589   3.745
  424SOL     OW 2393   0.225   0.275   4.720
  424SOL    HW1 2394   0.260   0.258   4.812
  424SOL    HW2 2395   0.137   0.230   4.708
  425SOL     OW 2396   0.019   0.368   4.371
  425SOL    HW1 2397  -0.063   0.411   4.410
  425SOL    HW2 2398  -0.009   0.295   4.308
  426SOL     OW 2399   0.569   1.275   4.889
  426SOL    HW1 2400   0.476   1.268   4.852
  426SOL    HW2 2401   0.580   1.364   4.933
  427SOL     OW 2402   1.555   1.511   4.427
  427SOL    HW1 2403   1.498   1.495   4.508
  427SOL    HW2 2404   1.496   1.521   4.347
  428SOL     OW 2405   1.135   0.703   4.441
  428SOL    HW1 2406   1.192   0.781   4.416
  428SOL    HW2 2407   1.075   0.729   4.517
  429SOL     OW 2408   0.768   1.144   4.747
  429SOL    HW1 2409   0.690   1.161   4.807
  429SOL    HW2 2410   0.802   1.231   4.711
  430SOL     OW 2411   0.685   1.012   4.389
  430SOL    HW1 2412   0.754   0.996   4.459
  430SOL    HW2 2413   0.612   1.069   4.427
  431SOL     OW 2414   0.335   1.435   4.785
  431SOL    HW1 2415   0.257   1.404   4.732
  431SOL    HW2 2416   0.393   1.493   4.728
  432SOL     OW 2417   1.603   0.447   4.461
  432SOL    HW1 2418   1.529   0.493   4.411
  432SOL    HW2 2419   1.654   0.515   4.514
  433SOL     OW 2420   0.231   1.713   4.207
  433SOL    HW1 2421   0.265   1.790   4.261
  433SOL    HW2 2422   0.275   1.713   4.117
  434SOL     OW 2423   0.230   1.434   4.262
  434SOL    HW1 2424   0.204   1.530   4.262
  434SOL    HW2 2425   0.159   1.380   4.307
  435SOL     OW 2426   0.240   1.091   4.610
  435SOL    HW1 2427   0.254   1.007   4.662
  435SOL    HW2 2428   0.185   1.155   4.665
  436SOL     OW 2429   0.620   1.786   5.163
  436SOL    HW1 2430   0.528   1.769   5.198
  436SOL    HW2 2431   0.648   1.878   5.189
  437SOL     OW 2432   0.606   0.964   3.847
  437SOL    HW1 2433   0.613   1.048   3.793
  437SOL    HW2 2434   0.652   0.977   3.935
  438SOL     OW 2435   0.122   0.643   4.287
  438SOL    HW1 2436   0.077   0.555   4.304
  438SOL    HW2 2437   0.121   0.697   4.371
  439SOL     OW 2438   1.842   1.767   4.083
  439SOL    HW1 2439   1.896   1.738   4.163
  439SOL    HW2 2440   1.872   1.857   4.054
  440SOL     OW 2441   0.027   1.596   3.841
  440SOL    HW1 2442   0.008   1.500   3.862
  440SOL    HW2 2443  -0.006   1.654   3.916
  441SOL     OW 2444   1.689   0.922   4.336
  441SOL    HW1 2445   1.784   0.893   4.344
  441SOL    HW2 2446   1.681   0.987   4.261
  442SOL     OW 2447   1.641   1.108   4.156
  442SOL    HW1 2448   1.727   1.110   4.104
  442SOL    HW2 2449   1.655   1.155   4.244
  443SOL     OW 2450   0.613   1.365   4.450
  443SOL    HW1 2451   0.564   1.278   4.459
  443SOL    HW2 2452   0.590   1.408   4.363
  444SOL     OW 2453   0.809   0.004   4.226
  444SOL    HW1 2454   0.849   0.095   4.217
  444SOL    HW2 2455   0.709   0.012   4.232
  445SOL     OW 2456   0.197   0.976   4.988
  445SOL    HW1 2457   0.286   0.931   4.974
  445SOL    HW2 2458   0.124   0.911   4.969
  446SOL     OW 2459   1.525   0.999   3.914
  446SOL    HW1 2460   1.462   0.923   3.927
  446SOL    HW2 2461   1.573   1.017   4.000
  447SOL     OW 2462   1.466   1.417   4.677
  447SOL    HW1 2463   1.407   1.423   4.757
  447SOL    HW2 2464   1.451   1.329   4.631
  448SOL     OW 2465   1.667   1.714   4.296
  448SOL    HW1 2466   1.626   1.691   4.208
  448SOL    HW2 2467   1.649   1.640   4.361
  449SOL     OW 2468   0.598   0.729   3.994
  449SOL    HW1 2469   0.622   0.798   3.926
  449SOL    HW2 2470   0.520   0.762   4.048
  450SOL     OW 2471   1.281   0.345   4.668
  450SOL    HW1 2472   1.195   0.295   4.655
  450SOL    HW2 2473   1.343   0.291   4.724
  451SOL     OW 2474   1.576   1.662   4.031
  451SOL    HW1 2475   1.665   1.708   4.034
  451SOL    HW2 2476   1.555   1.638   3.936
  452SOL     OW 2477   1.041   0.701   4.153
  452SOL    HW1 2478   1.067   0.697   4.249
  452SOL    HW2 2479   0.956   0.650   4.139
  453SOL     OW 2480   0.076   0.811   4.513
  453SOL    HW1 2481   0.175   0.799   4.522
  453SOL    HW2 2482   0.052   0.906   4.534
  454SOL     OW 2483   0.130   1.821   5.295
  454SOL    HW1 2484   0.120   1.806   5.394
  454SOL    HW2 2485   0.044   1.857   5.259
  455SOL     OW 2486   0.865   0.348   3.919
  455SOL    HW1 2487   0.924   0.411   3.870
  455SOL    HW2 2488   0.884   0.254   3.890
  456SOL     OW 2489   1.362   1.144   4.269
  456SOL    HW1 2490   1.445   1.115   4.221
  456SOL    HW2 2491   1.313   1.211   4.213
  457SOL     OW 2492   0.550   0.196   4.609
  457SOL    HW1 2493   0.545   0.191   4.709
  457SOL    HW2 2494   0.552   0.292   4.580
  458SOL     OW 2495   1.008   1.456   4.201
  458SOL    HW1 2496   0.962   1.528   4.149
  458SOL    HW2 2497   1.004   1.476   4.299
  459SOL     OW 2498   0.351   1.801   4.577
  459SOL    HW1 2499   0.401   1.715   4.583
  459SOL    HW2 2500   0.416   1.878   4.574
  460SOL     OW 2501   1.795   1.066   4.597
  460SOL    HW1 2502   1.733   1.051   4.521
  460SOL    HW2 2503   1.743   1.077   4.682
  461SOL     OW 2504   0.321   0.943   3.966
  461SOL    HW1 2505   0.403   0.982   3.924
  461SOL    HW2 2506   0.294   0.861   3.917
  462SOL     OW 2507   1.458   0.735   4.452
  462SOL    HW1 2508   1.453   0.670   4.527
  462SOL    HW2 2509   1.538   0.794   4.465
  463SOL     OW 2510   1.111   1.776   3.961
  463SOL    HW1 2511   1.051   1.714   4.011
  463SOL    HW2 2512   1.142   1.732   3.876
  464SOL     OW 2513   1.632   1.377   3.805
  464SOL    HW1 2514   1.600   1.471   3.795
  464SOL    HW2 2515   1.556   1.314   3.793
  465SOL     OW 2516   0.464   1.743   4.047
  465SOL    HW1 2517   0.497   1.782   4.133
  465SOL    HW2 2518   0.540   1.736   3.982
  466SOL     OW 2519   1.400   0.107   4.150
  466SOL    HW1 2520   1.376   0.070   4.060
  466SOL    HW2 2521   1.499   0.123   4.154
  467SOL     OW 2522   0.249   1.785   4.965
  467SOL    HW1 2523   0.306   1.720   5.015
  467SOL    HW2 2524   0.233   1.752   4.872
  468SOL     OW 2525   0.940   1.698   4.628
  468SOL    HW1 2526   1.020   1.641   4.649
  468SOL    HW2 2527   0.891   1.658   4.551
  469SOL     OW 2528   0.382   0.700   4.204
  469SOL    HW1 2529   0.427   0.610   4.201
  469SOL    HW2 2530   0.288   0.689   4.237
  470SOL     OW 2531   0.614   0.122   3.841
  470SOL    HW1 2532   0.712   0.100   3.848
  470SOL    HW2 2533   0.583   0.105   3.748
  471SOL     OW 2534   0.803   1.402   4.648
  471SOL    HW1 2535   0.893   1.416   4.606
  471SOL    HW2 2536   0.732   1.404   4.577
  472SOL     OW 2537   0.922   0.503   4.623
  472SOL    HW1 2538   0.897   0.494   4.527
  472SOL    HW2 2539   0.970   0.421   4.654
  473SOL     OW 2540   0.539   0.064   4.236
  473SOL    HW1 2541   0.458   0.065   4.294
  473SOL    HW2 2542   0.542   0.147   4.181
  474SOL     OW 2543   1.434   1.188   3.765
  474SOL    HW1 2544   1.466   1.112   3.822
  474SOL    HW2 2545   1.342   1.215   3.795
  475SOL     OW 2546   0.297   0.035   3.895
  475SOL    HW1 2547   0.346   0.119   3.874
  475SOL    HW2 2548   0.359  -0.030   3.940
  476SOL     OW 2549   0.935   0.236   4.204
  476SOL    HW1 2550   0.887   0.277   4.126
  476SOL    HW2 2551   1.034   0.234   4.185
  477SOL     OW 2552   1.227   1.570   4.517
  477SOL    HW1 2553   1.248   1.644   4.452
  477SOL    HW2 2554   1.295   1.570   4.590
  478SOL     OW 2555   0.459   1.152   4.465
  478SOL    HW1 2556   0.388   1.125   4.530
  478SOL    HW2 2557   0.433   1.124   4.372
  479SOL     OW 2558   1.271   1.797   4.315
  479SOL    HW1 2559   1.315   1.861   4.251
  479SOL    HW2 2560   1.221   1.849   4.385
  480SOL     OW 2561   1.032   0.549   3.740
  480SOL    HW1 2562   0.991   0.631   3.701
  480SOL    HW2 2563   1.096   0.575   3.813
  481SOL     OW 2564   0.561   0.222   4.871
  481SOL    HW1 2565   0.599   0.138   4.908
  481SOL    HW2 2566   0.473   0.241   4.915
  482SOL     OW 2567   0.866   0.454   4.366
  482SOL    HW1 2568   0.834   0.526   4.304
  482SOL    HW2 2569   0.890   0.373   4.313
  483SOL     OW 2570   1.017   0.039   4.477
  483SOL    HW1 2571   0.945   0.044   4.408
  483SOL    HW2 2572   0.993  -0.030   4.546
  484SOL     OW 2573   1.429   1.173   4.591
  484SOL    HW1 2574   1.374   1.089   4.584
  484SOL    HW2 2575   1.455   1.202   4.499
  485SOL     OW 2576   1.466   0.590   4.716
  485SOL    HW1 2577   1.436   0.495   4.723
  485SOL    HW2 2578   1.539   0.606   4.782
  486SOL     OW 2579   1.857   0.833   4.101
  486SOL    HW1 2580   1.899   0.769   4.165
  486SOL    HW2 2581   1.819   0.782   4.023
  487SOL     OW 2582   0.488   1.385   3.898
  487SOL    HW1 2583   0.401   1.370   3.945
  487SOL    HW2 2584   0.471   1.411   3.803
  488SOL     OW 2585   1.664   1.280   4.381
  488SOL    HW1 2586   1.763   1.288   4.395
  488SOL    HW2 2587   1.619   1.364   4.412
  489SOL     OW 2588   1.390   0.575   3.802
  489SOL    HW1 2589   1.336   0.554   3.883
  489SOL    HW2 2590   1.481   0.534   3.811
  490SOL     OW 2591   0.527   0.256   4.052
  490SOL    HW1 2592   0.554   0.197   3.977
  490SOL    HW2 2593   0.527   0.351   4.021
  491SOL     OW 2594   1.111   1.195   4.824
  491SOL    HW1 2595   1.071   1.239   4.905
  491SOL    HW2 2596   1.070   1.232   4.741
  492SOL     OW 2597   1.638   1.099   4.803
  492SOL    HW1 2598   1.643   1.180   4.862
  492SOL    HW2 2599   1.552   1.101   4.752
  493SOL     OW 2600   0.705   1.050   4.092
  493SOL    HW1 2601   0.691   1.057   4.191
  493SOL    HW2 2602   0.789   0.999   4.074
  494SOL     OW 2603   0.410   0.813   4.975
  494SOL    HW1 2604   0.496   0.825   5.025
  494SOL    HW2 2605   0.368   0.726   5.002
  495SOL     OW 2606   0.367   1.100   4.225
  495SOL    HW1 2607   0.360   1.183   4.169
  495SOL    HW2 2608   0.371   1.020   4.165
  496SOL     OW 2609   0.566   0.537   4.589
  496SOL    HW1 2610   0.578   0.603   4.515
  496SOL    HW2 2611   0.612   0.571   4.672
  497SOL     OW 2612   1.252   1.348   4.112
  497SOL    HW1 2613   1.302   1.425   4.152
  497SOL    HW2 2614   1.157   1.350   4.144
  498SOL     OW 2615   1.272   1.445   4.866
  498SOL    HW1 2616   1.319   1.458   4.953
  498SOL    HW2 2617   1.206   1.371   4.875
  499SOL     OW 2618   0.354   1.510   5.053
  499SOL    HW1 2619   0.333   1.466   4.966
  499SOL    HW2 2620   0.451   1.536   5.056
  500SOL     OW 2621   0.573   0.870   4.753
  500SOL    HW1 2622   0.617   0.959   4.744
  500SOL    HW2 2623   0.510   0.870   4.830
  501SOL     OW 2624   1.360   0.862   4.769
  501SOL    HW1 2625   1.285   0.862   4.703
  501SOL    HW2 2626   1.397   0.770   4.778
  502SOL     OW 2627   1.209   0.525   3.999
  502SOL    HW1 2628   1.222   0.441   4.053
  502SOL    HW2 2629   1.180   0.599   4.059
  503SOL     OW 2630   0.307   0.213   4.955
  503SOL    HW1 2631   0.284   0.250   5.045
  503SOL    HW2 2632   0.277   0.118   4.949
  504SOL     OW 2633   0.037   1.310   5.006
  504SOL    HW1 2634   0.090   1.261   5.074
  504SOL    HW2 2635   0.059   1.408   5.011
  505SOL     OW 2636   0.732   0.634   4.788
  505SOL    HW1 2637   0.791   0.608   4.712
  505SOL    HW2 2638   0.704   0.730   4.777
  506SOL     OW 2639   0.307   0.063   4.342
  506SOL    HW1 2640   0.296   0.157   4.375
  506SOL    HW2 2641   0.302   0.000   4.419
  507SOL     OW 2642   1.023   0.766   4.690
  507SOL    HW1 2643   1.038   0.787   4.786
  507SOL    HW2 2644   0.993   0.671   4.681
  508SOL     OW 2645   1.303   0.838   3.766
  508SOL    HW1 2646   1.337   0.745   3.781
  508SOL    HW2 2647   1.321   0.865   3.671
  509SOL     OW 2648   1.068   1.333   4.573
  509SOL    HW1 2649   1.075   1.249   4.518
  509SOL    HW2 2650   1.130   1.402   4.537
  510SOL     OW 2651   0.319   0.810   4.673
  510SOL    HW1 2652   0.412   0.846   4.678
  510SOL    HW2 2653   0.313   0.725   4.725
  511SOL     OW 2654   0.339   0.509   4.730
  511SOL    HW1 2655   0.287   0.426   4.713
  511SOL    HW2 2656   0.416   0.514   4.666
  512SOL     OW 2657   0.008   1.326   3.924
  512SOL    HW1 2658  -0.085   1.347   3.893
  512SOL    HW2 2659   0.018   1.227   3.937
  513SOL     OW 2660   0.088   1.801   4.651
  513SOL    HW1 2661   0.046   1.715   4.624
  513SOL    HW2 2662   0.182   1.804   4.617
  514SOL     OW 2663   0.504   1.568   4.634
  514SOL    HW1 2664   0.570   1.642   4.643
  514SOL    HW2 2665   0.548   1.489   4.592
  515SOL     OW 2666   1.002   0.796   4.962
  515SOL    HW1 2667   1.043   0.764   5.048
  515SOL    HW2 2668   0.906   0.769   4.959
  516SOL     OW 2669   0.040   0.544   4.838
  516SOL    HW1 2670   0.125   0.511   4.797
  516SOL    HW2 2671   0.053   0.559   4.936
  517SOL     OW 2672   0.815   0.572   4.049
  517SOL    HW1 2673   0.822   0.483   4.003
  517SOL    HW2 2674   0.721   0.606   4.041
  518SOL     OW 2675   1.657   0.604   4.930
  518SOL    HW1 2676   1.619   0.535   4.992
  518SOL    HW2 2677   1.739   0.568   4.886
  519SOL     OW 2678   0.671   0.464   4.993
  519SOL    HW1 2679   0.637   0.375   4.963
  519SOL    HW2 2680   0.697   0.518   4.913
  520SOL     OW 2681   0.930   1.678   5.189
  520SOL    HW1 2682   0.906   1.660   5.094
  520SOL    HW2 2683   0.960   1.772   5.199
  521SOL     OW 2684   0.473   0.500   3.915
  521SOL    HW1 2685   0.534   0.580   3.919
  521SOL    HW2 2686   0.378   0.531   3.922
  522SOL     OW 2687   1.347   1.059   4.958
  522SOL    HW1 2688   1.371   0.996   4.884
  522SOL    HW2 2689   1.257   1.099   4.940
  523SOL     OW 2690   1.302   0.855   4.033
  523SOL    HW1 2691   1.216   0.824   4.075
  523SOL    HW2 2692   1.298   0.841   3.934
  524SOL     OW 2693   1.759   1.747   4.878
  524SOL    HW1 2694   1.820   1.777   4.805
  524SOL    HW2 2695   1.721   1.658   4.856
  525SOL     OW 2696   1.252   1.731   4.852
  525SOL    HW1 2697   1.336   1.736   4.798
  525SOL    HW2 2698   1.229   1.635   4.870
  526SOL     OW 2699   0.083   1.258   4.746
  526SOL    HW1 2700   0.078   1.257   4.846
  526SOL    HW2 2701   0.000   1.217   4.708
  527SOL     OW 2702   1.726   0.135   4.247
  527SOL    HW1 2703   1.799   0.118   4.180
  527SOL    HW2 2704   1.695   0.048   4.285
  528SOL     OW 2705   1.388   1.573   4.201
  528SOL    HW1 2706   1.455   1.585   4.127
  528SOL    HW2 2707   1.348   1.662   4.224
  529SOL     OW 2708   1.280   0.927   4.396
  529SOL    HW1 2709   1.340   0.846   4.398
  529SOL    HW2 2710   1.320   0.996   4.336
  530SOL     OW 2711   0.672   1.616   3.878
  530SOL    HW1 2712   0.681   1.626   3.779
  530SOL    HW2 2713   0.632   1.527   3.899
  531SOL     OW 2714   1.650   1.720   5.118
  531SOL    HW1 2715   1.703   1.730   5.034
  531SOL    HW2 2716   1.623   1.810   5.152
  532SOL     OW 2717   0.263   0.326   4.444
  532SOL    HW1 2718   0.184   0.377   4.410
  532SOL    HW2 2719   0.254   0.311   4.542
  533SOL     OW 2720   1.194   1.612   3.755
  533SOL    HW1 2721   1.200   1.519   3.792
  533SOL    HW2 2722   1.135   1.612   3.675
  534SOL     OW 2723   0.822   1.002   5.096
  534SOL    HW1 2724   0.862   1.001   5.004
  534SOL    HW2 2725   0.832   1.094   5.136
  535SOL     OW 2726   0.916   0.910   4.015
  535SOL    HW1 2727   0.979   0.948   3.947
  535SOL    HW2 2728   0.956   0.827   4.054
  536SOL     OW 2729   1.504   1.607   3.768
  536SOL    HW1 2730   1.412   1.644   3.775
  536SOL    HW2 2731   1.542   1.627   3.678
  537SOL     OW 2732   1.039   1.098   4.420
  537SOL    HW1 2733   0.969   1.051   4.474
  537SOL    HW2 2734   1.098   1.030   4.377
  538SOL     OW 2735   1.014   0.236   4.695
  538SOL    HW1 2736   1.006   0.200   4.602
  538SOL    HW2 2737   1.012   0.160   4.760
  539SOL     OW 2738   0.590   1.487   4.215
  539SOL    HW1 2739   0.632   1.429   4.145
  539SOL    HW2 2740   0.546   1.566   4.171
  540SOL     OW 2741   1.709   0.385   5.105
  540SOL    HW1 2742   1.782   0.454   5.109
  540SOL    HW2 2743   1.737   0.310   5.046
  541SOL     OW 2744   0.255   1.348   4.014
  541SOL    HW1 2745   0.159   1.349   3.987
  541SOL    HW2 2746   0.267   1.401   4.098
  542SOL     OW 2747   0.075   0.345   3.757
  542SOL    HW1 2748  -0.017   0.317   3.728
  542SOL    HW2 2749   0.106   0.422   3.701
  543SOL     OW 2750   0.072   0.166   4.042
  543SOL    HW1 2751   0.055   0.249   3.988
  543SOL    HW2 2752   0.162   0.129   4.020
  544SOL     OW 2753   1.183   1.335   3.843
  544SOL    HW1 2754   1.084   1.324   3.845
  544SOL    HW2 2755   1.217   1.350   3.936
  545SOL     OW 2756   1.493   1.767   4.683
  545SOL    HW1 2757   1.526   1.831   4.614
  545SOL    HW2 2758   1.559   1.761   4.758
  546SOL     OW 2759   1.450   1.220   5.357
  546SOL    HW1 2760   1.441   1.210   5.456
  546SOL    HW2 2761   1.546   1.213   5.331
  547SOL     OW 2762   1.674   0.883   4.978
  547SOL    HW1 2763   1.647   0.794   4.941
  547SOL    HW2 2764   1.675   0.951   4.905
  548SOL     OW 2765   1.225   0.325   4.173
  548SOL    HW1 2766   1.290   0.251   4.162
  548SOL    HW2 2767   1.245   0.375   4.257
  549SOL     OW 2768   0.594   0.745   4.376
  549SOL    HW1 2769   0.644   0.830   4.357
  549SOL    HW2 2770   0.506   0.747   4.328
  550SOL     OW 2771   1.730   0.934   5.241
  550SOL    HW1 2772   1.768   1.025   5.256
  550SOL    HW2 2773   1.722   0.917   5.142
  551SOL     OW 2774   0.859   1.374   3.740
  551SOL    HW1 2775   0.813   1.389   3.828
  551SOL    HW2 2776   0.903   1.459   3.710
  552SOL     OW 2777   0.661   1.790   4.677
  552SOL    HW1 2778   0.615   1.878   4.664
  552SOL    HW2 2779   0.760   1.802   4.670
  553SOL     OW 2780   0.859   0.956   4.585
  553SOL    HW1 2781   0.913   0.887   4.633
  553SOL    HW2 2782   0.827   1.025   4.651
  554SOL     OW 2783   1.083   0.984   3.811
  554SOL    HW1 2784   1.060   1.037   3.729
  554SOL    HW2 2785   1.164   0.928   3.792
  555SOL     OW 2786   0.079   1.240   4.377
  555SOL    HW1 2787   0.078   1.193   4.465
  555SOL    HW2 2788   0.161   1.212   4.326
  556SOL     OW 2789   1.824   0.192   4.951
  556SOL    HW1 2790   1.820   0.102   4.995
  556SOL    HW2 2791   1.827   0.181   4.852
  557SOL     OW 2792   0.428   0.424   4.244
  557SOL    HW1 2793   0.458   0.352   4.182
  557SOL    HW2 2794   0.389   0.384   4.327
  558SOL     OW 2795   1.705   1.487   4.828
  558SOL    HW1 2796   1.612   1.462   4.801
  558SOL    HW2 2797   1.731   1.437   4.910
  559SOL     OW 2798   0.812   1.586   4.411
  559SOL    HW1 2799   0.844   1.596   4.317
  559SOL    HW2 2800   0.733   1.524   4.413
  560SOL     OW 2801   1.424   0.214   4.836
  560SOL    HW1 2802   1.476   0.149   4.891
  560SOL    HW2 2803   1.375   0.277   4.897
  561SOL     OW 2804   0.770   1.330   4.025
  561SOL    HW1 2805   0.724   1.243   4.042
  561SOL    HW2 2806   0.861   1.327   4.066
  562SOL     OW 2807   1.352   0.052   3.892
  562SOL    HW1 2808   1.387   0.011   3.808
  562SOL    HW2 2809   1.262   0.014   3.912
  563SOL     OW 2810   1.300   0.453   4.415
  563SOL    HW1 2811   1.241   0.533   4.419
  563SOL    HW2 2812   1.315   0.418   4.508
  564SOL     OW 2813   1.593   0.221   4.606
  564SOL    HW1 2814   1.509   0.220   4.660
  564SOL    HW2 2815   1.595   0.304   4.550
  565SOL     OW 2816   0.039   1.077   4.024
  565SOL    HW1 2817   0.138   1.066   4.015
  565SOL    HW2 2818  -0.001   0.991   4.056
  566SOL     OW 2819   0.875   1.646   4.061
  566SOL    HW1 2820   0.798   1.611   4.007
  566SOL    HW2 2821   0.843   1.717   4.123
  567SOL     OW 2822   0.230   2.490   0.113
  567SOL    HW1 2823   0.137   2.488   0.150
  567SOL    HW2 2824   0.231   2.451   0.021
  568SOL     OW 2825   0.225   2.137   0.996
  568SOL    HW1 2826   0.260   2.120   1.088
  568SOL    HW2 2827   0.137   2.092   0.984
  569SOL     OW 2828   0.019   2.230   0.647
  569SOL    HW1 2829  -0.063   2.273   0.686
  569SOL    HW2 2830  -0.009   2.157   0.584
  570SOL     OW 2831   0.569   3.137   1.165
  570SOL    HW1 2832   0.476   3.130   1.128
  570SOL    HW2 2833   0.580   3.226   1.209
  571SOL     OW 2834   1.555   3.373   0.703
  571SOL    HW1 2835   1.498   3.357   0.784
  571SOL    HW2 2836   1.496   3.383   0.623
  572SOL     OW 2837   1.135   2.565   0.717
  572SOL    HW1 2838   1.192   2.643   0.692
  572SOL    HW2 2839   1.075   2.591   0.793
  573SOL     OW 2840   1.755   2.469   0.231
  573SOL    HW1 2841   1.743   2.456   0.132
  573SOL    HW2 2842   1.725   2.388   0.280
  574SOL     OW 2843   0.768   3.006   1.023
  574SOL    HW1 2844   0.690   3.023   1.083
  574SOL    HW2 2845   0.802   3.093   0.987
  575SOL     OW 2846   0.850   2.660   1.823
  575SOL    HW1 2847   0.846   2.736   1.888
  575SOL    HW2 2848   0.872   2.696   1.732
  576SOL     OW 2849   0.685   2.874   0.665
  576SOL    HW1 2850   0.754   2.858   0.735
  576SOL    HW2 2851   0.612   2.931   0.703
  577SOL     OW 2852   0.686   3.023   1.803
  577SOL    HW1 2853   0.746   3.102   1.817
  577SOL    HW2 2854   0.600   3.054   1.762
  578SOL     OW 2855   0.335   3.297   1.061
  578SOL    HW1 2856   0.257   3.266   1.008
  578SOL    HW2 2857   0.393   3.355   1.004
  579SOL     OW 2858   1.460   3.367   1.339
  579SOL    HW1 2859   1.484   3.461   1.365
  579SOL    HW2 2860   1.444   3.313   1.421
  580SOL     OW 2861   1.603   2.309   0.737
  580SOL    HW1 2862   1.529   2.355   0.687
  580SOL    HW2 2863   1.654   2.377   0.790
  581SOL     OW 2864   0.231   3.575   0.483
  581SOL    HW1 2865   0.265   3.652   0.537
  581SOL    HW2 2866   0.275   3.575   0.393
  582SOL     OW 2867   1.127   3.203   1.690
  582SOL    HW1 2868   1.174   3.203   1.778
  582SOL    HW2 2869   1.079   3.116   1.679
  583SOL     OW 2870   0.230   3.296   0.538
  583SOL    HW1 2871   0.204   3.392   0.538
  583SOL    HW2 2872   0.159   3.242   0.583
  584SOL     OW 2873   0.240   2.953   0.886
  584SOL    HW1 2874   0.254   2.869   0.938
  584SOL    HW2 2875   0.185   3.017   0.941
  585SOL     OW 2876   0.620   3.648   1.439
  585SOL    HW1 2877   0.528   3.631   1.474
  585SOL    HW2 2878   0.648   3.740   1.465
  586SOL     OW 2879   1.594   1.976   1.480
  586SOL    HW1 2880   1.576   2.043   1.408
  586SOL    HW2 2881   1.591   2.022   1.569
  587SOL     OW 2882   0.122   2.505   0.563
  587SOL    HW1 2883   0.077   2.417   0.580
  587SOL    HW2 2884   0.121   2.559   0.647
  588SOL     OW 2885   1.842   3.629   0.359
  588SOL    HW1 2886   1.896   3.600   0.439
  588SOL    HW2 2887   1.872   3.719   0.330
  589SOL     OW 2888   0.027   3.458   0.117
  589SOL    HW1 2889   0.008   3.362   0.138
  589SOL    HW2 2890  -0.006   3.516   0.192
  590SOL     OW 2891   0.113   2.599   1.597
  590SOL    HW1 2892   0.201   2.586   1.642
  590SOL    HW2 2893   0.100   2.696   1.575
  591SOL     OW 2894   0.613   3.227   0.726
  591SOL    HW1 2895   0.564   3.140   0.735
  591SOL    HW2 2896   0.590   3.270   0.639
  592SOL     OW 2897   1.293   3.090   1.423
  592SOL    HW1 2898   1.330   3.017   1.365
  592SOL    HW2 2899   1.345   3.095   1.508
  593SOL     OW 2900   0.197   2.838   1.264
  593SOL    HW1 2901   0.286   2.793   1.250
  593SOL    HW2 2902   0.124   2.773   1.245
  594SOL     OW 2903   1.187   3.654   1.616
  594SOL    HW1 2904   1.211   3.714   1.540
  594SOL    HW2 2905   1.194   3.559   1.586
  595SOL     OW 2906   1.466   3.279   0.953
  595SOL    HW1 2907   1.407   3.285   1.033
  595SOL    HW2 2908   1.451   3.191   0.907
  596SOL     OW 2909   1.667   3.576   0.572
  596SOL    HW1 2910   1.626   3.553   0.484
  596SOL    HW2 2911   1.649   3.502   0.637
  597SOL     OW 2912   1.281   2.207   0.944
  597SOL    HW1 2913   1.195   2.157   0.931
  597SOL    HW2 2914   1.343   2.153   1.000
  598SOL     OW 2915   1.576   3.524   0.307
  598SOL    HW1 2916   1.665   3.570   0.310
  598SOL    HW2 2917   1.555   3.500   0.212
  599SOL     OW 2918   1.394   2.331   1.674
  599SOL    HW1 2919   1.374   2.374   1.762
  599SOL    HW2 2920   1.472   2.269   1.683
  600SOL     OW 2921   1.041   2.563   0.429
  600SOL    HW1 2922   1.067   2.559   0.525
  600SOL    HW2 2923   0.956   2.512   0.415
  601SOL     OW 2924   0.076   2.673   0.789
  601SOL    HW1 2925   0.175   2.661   0.798
  601SOL    HW2 2926   0.052   2.768   0.810
  602SOL     OW 2927   0.130   3.683   1.571
  602SOL    HW1 2928   0.120   3.668   1.670
  602SOL    HW2 2929   0.044   3.719   1.535
  603SOL     OW 2930   0.865   2.210   0.195
  603SOL    HW1 2931   0.924   2.273   0.146
  603SOL    HW2 2932   0.884   2.116   0.166
  604SOL     OW 2933   1.719   2.447   1.831
  604SOL    HW1 2934   1.693   2.536   1.795
  604SOL    HW2 2935   1.717   2.379   1.758
  605SOL     OW 2936   1.362   3.006   0.545
  605SOL    HW1 2937   1.445   2.977   0.497
  605SOL    HW2 2938   1.313   3.073   0.489
  606SOL     OW 2939   0.351   3.663   0.853
  606SOL    HW1 2940   0.401   3.577   0.859
  606SOL    HW2 2941   0.416   3.740   0.850
  607SOL     OW 2942   1.227   3.412   1.506
  607SOL    HW1 2943   1.233   3.335   1.570
  607SOL    HW2 2944   1.175   3.386   1.426
  608SOL     OW 2945   0.321   2.805   0.242
  608SOL    HW1 2946   0.403   2.844   0.200
  608SOL    HW2 2947   0.294   2.723   0.193
  609SOL     OW 2948   0.461   3.128   1.727
  609SOL    HW1 2949   0.411   3.129   1.641
  609SOL    HW2 2950   0.398   3.110   1.803
  610SOL     OW 2951   0.202   2.147   1.498
  610SOL    HW1 2952   0.122   2.207   1.485
  610SOL    HW2 2953   0.192   2.098   1.584
  611SOL     OW 2954   1.632   3.239   0.081
  611SOL    HW1 2955   1.600   3.333   0.071
  611SOL    HW2 2956   1.556   3.176   0.069
  612SOL     OW 2957   0.464   3.605   0.323
  612SOL    HW1 2958   0.497   3.644   0.409
  612SOL    HW2 2959   0.540   3.598   0.258
  613SOL     OW 2960   1.400   1.969   0.426
  613SOL    HW1 2961   1.376   1.932   0.336
  613SOL    HW2 2962   1.499   1.985   0.430
  614SOL     OW 2963   0.249   3.647   1.241
  614SOL    HW1 2964   0.306   3.582   1.291
  614SOL    HW2 2965   0.233   3.614   1.148
  615SOL     OW 2966   0.940   3.560   0.904
  615SOL    HW1 2967   1.020   3.503   0.925
  615SOL    HW2 2968   0.891   3.520   0.827
  616SOL     OW 2969   1.547   2.084   1.729
  616SOL    HW1 2970   1.542   2.121   1.821
  616SOL    HW2 2971   1.475   2.015   1.717
  617SOL     OW 2972   0.781   2.126   1.749
  617SOL    HW1 2973   0.848   2.065   1.792
  617SOL    HW2 2974   0.708   2.145   1.814
  618SOL     OW 2975   0.888   3.376   1.195
  618SOL    HW1 2976   0.865   3.351   1.101
  618SOL    HW2 2977   0.949   3.307   1.234
  619SOL     OW 2978   1.351   2.452   1.433
  619SOL    HW1 2979   1.379   2.409   1.518
  619SOL    HW2 2980   1.376   2.548   1.434
  620SOL     OW 2981   0.803   3.264   0.924
  620SOL    HW1 2982   0.893   3.278   0.882
  620SOL    HW2 2983   0.732   3.266   0.853
  621SOL     OW 2984   1.434   3.050   0.041
  621SOL    HW1 2985   1.466   2.974   0.098
  621SOL    HW2 2986   1.342   3.077   0.071
  622SOL     OW 2987   0.297   1.897   0.171
  622SOL    HW1 2988   0.346   1.981   0.150
  622SOL    HW2 2989   0.359   1.832   0.216
  623SOL     OW 2990   0.935   2.098   0.480
  623SOL    HW1 2991   0.887   2.139   0.402
  623SOL    HW2 2992   1.034   2.096   0.461
  624SOL     OW 2993   1.227   3.432   0.793
  624SOL    HW1 2994   1.248   3.506   0.728
  624SOL    HW2 2995   1.295   3.432   0.866
  625SOL     OW 2996   0.459   3.014   0.741
  625SOL    HW1 2997   0.388   2.987   0.806
  625SOL    HW2 2998   0.433   2.986   0.648
  626SOL     OW 2999   1.271   3.659   0.591
  626SOL    HW1 3000   1.315   3.723   0.527
  626SOL    HW2 3001   1.221   3.711   0.661
  627SOL     OW 3002   1.032   2.411   0.016
  627SOL    HW1 3003   0.991   2.493  -0.023
  627SOL    HW2 3004   1.096   2.437   0.089
  628SOL     OW 3005   0.078   2.418   1.386
  628SOL    HW1 3006   0.170   2.417   1.345
  628SOL    HW2 3007   0.072   2.492   1.453
  629SOL     OW 3008   0.561   2.084   1.147
  629SOL    HW1 3009   0.599   2.000   1.184
  629SOL    HW2 3010   0.473   2.103   1.191
  630SOL     OW 3011   0.866   2.316   0.642
  630SOL    HW1 3012   0.834   2.388   0.580
  630SOL    HW2 3013   0.890   2.235   0.589
  631SOL     OW 3014   1.017   1.901   0.753
  631SOL    HW1 3015   0.945   1.906   0.684
  631SOL    HW2 3016   0.993   1.832   0.822
  632SOL     OW 3017   1.429   3.035   0.867
  632SOL    HW1 3018   1.374   2.951   0.860
  632SOL    HW2 3019   1.455   3.064   0.775
  633SOL     OW 3020   1.466   2.452   0.992
  633SOL    HW1 3021   1.436   2.357   0.999
  633SOL    HW2 3022   1.539   2.468   1.058
  634SOL     OW 3023   0.488   3.247   0.174
  634SOL    HW1 3024   0.401   3.232   0.221
  634SOL    HW2 3025   0.471   3.273   0.079
  635SOL     OW 3026   1.664   3.142   0.657
  635SOL    HW1 3027   1.763   3.150   0.671
  635SOL    HW2 3028   1.619   3.226   0.688
  636SOL     OW 3029   1.390   2.437   0.078
  636SOL    HW1 3030   1.336   2.416   0.159
  636SOL    HW2 3031   1.481   2.396   0.087
  637SOL     OW 3032   1.754   3.085   1.588
  637SOL    HW1 3033   1.845   3.046   1.575
  637SOL    HW2 3034   1.762   3.181   1.612
  638SOL     OW 3035   1.064   3.209   1.340
  638SOL    HW1 3036   0.984   3.186   1.395
  638SOL    HW2 3037   1.147   3.183   1.389
  639SOL     OW 3038   1.592   3.491   1.625
  639SOL    HW1 3039   1.619   3.525   1.535
  639SOL    HW2 3040   1.671   3.453   1.671
  640SOL     OW 3041   1.111   3.057   1.100
  640SOL    HW1 3042   1.071   3.101   1.181
  640SOL    HW2 3043   1.070   3.094   1.017
  641SOL     OW 3044   0.915   1.951   1.402
  641SOL    HW1 3045   0.940   1.931   1.307
  641SOL    HW2 3046   0.987   2.007   1.444
  642SOL     OW 3047   0.980   2.978   1.719
  642SOL    HW1 3048   0.881   2.984   1.729
  642SOL    HW2 3049   1.003   2.898   1.663
  643SOL     OW 3050   1.274   2.248   1.262
  643SOL    HW1 3051   1.295   2.322   1.326
  643SOL    HW2 3052   1.185   2.265   1.219
  644SOL     OW 3053   0.064   3.426   1.331
  644SOL    HW1 3054   0.018   3.508   1.297
  644SOL    HW2 3055   0.162   3.445   1.340
  645SOL     OW 3056   0.367   2.962   0.501
  645SOL    HW1 3057   0.360   3.045   0.445
  645SOL    HW2 3058   0.371   2.882   0.441
  646SOL     OW 3059   1.252   3.210   0.388
  646SOL    HW1 3060   1.302   3.287   0.428
  646SOL    HW2 3061   1.157   3.212   0.420
  647SOL     OW 3062   1.272   3.307   1.142
  647SOL    HW1 3063   1.319   3.320   1.229
  647SOL    HW2 3064   1.206   3.233   1.151
  648SOL     OW 3065   0.354   3.372   1.329
  648SOL    HW1 3066   0.333   3.328   1.242
  648SOL    HW2 3067   0.451   3.398   1.332
  649SOL     OW 3068   1.587   2.641   1.670
  649SOL    HW1 3069   1.495   2.679   1.665
  649SOL    HW2 3070   1.647   2.688   1.605
  650SOL     OW 3071   1.013   1.967   1.770
  650SOL    HW1 3072   1.019   2.052   1.718
  650SOL    HW2 3073   1.045   1.891   1.713
  651SOL     OW 3074   0.504   1.912   1.740
  651SOL    HW1 3075   0.462   1.855   1.670
  651SOL    HW2 3076   0.438   1.981   1.772
  652SOL     OW 3077   0.573   2.732   1.029
  652SOL    HW1 3078   0.617   2.821   1.020
  652SOL    HW2 3079   0.510   2.732   1.106
  653SOL     OW 3080   1.360   2.724   1.045
  653SOL    HW1 3081   1.285   2.724   0.979
  653SOL    HW2 3082   1.397   2.632   1.054
  654SOL     OW 3083   1.209   2.387   0.275
  654SOL    HW1 3084   1.222   2.303   0.329
  654SOL    HW2 3085   1.180   2.461   0.335
  655SOL     OW 3086   0.307   2.075   1.231
  655SOL    HW1 3087   0.284   2.112   1.321
  655SOL    HW2 3088   0.277   1.980   1.225
  656SOL     OW 3089   0.037   3.172   1.282
  656SOL    HW1 3090   0.090   3.123   1.350
  656SOL    HW2 3091   0.059   3.270   1.287
  657SOL     OW 3092   1.728   2.797   1.854
  657SOL    HW1 3093   1.682   2.790   1.765
  657SOL    HW2 3094   1.666   2.841   1.920
  658SOL     OW 3095   0.307   1.925   0.618
  658SOL    HW1 3096   0.296   2.019   0.651
  658SOL    HW2 3097   0.302   1.862   0.695
  659SOL     OW 3098   1.622   2.229   0.374
  659SOL    HW1 3099   1.624   2.153   0.438
  659SOL    HW2 3100   1.574   2.306   0.414
  660SOL     OW 3101   1.023   2.628   0.966
  660SOL    HW1 3102   1.038   2.649   1.062
  660SOL    HW2 3103   0.993   2.533   0.957
  661SOL     OW 3104   0.980   3.435   1.700
  661SOL    HW1 3105   0.960   3.479   1.612
  661SOL    HW2 3106   1.019   3.344   1.684
  662SOL     OW 3107   1.859   3.380   1.605
  662SOL    HW1 3108   1.873   3.407   1.510
  662SOL    HW2 3109   1.942   3.402   1.658
  663SOL     OW 3110   0.350   2.760   1.804
  663SOL    HW1 3111   0.426   2.804   1.852
  663SOL    HW2 3112   0.385   2.713   1.722
  664SOL     OW 3113   1.540   2.136   0.125
  664SOL    HW1 3114   1.479   2.061   0.148
  664SOL    HW2 3115   1.562   2.188   0.208
  665SOL     OW 3116   1.068   3.195   0.849
  665SOL    HW1 3117   1.075   3.111   0.794
  665SOL    HW2 3118   1.130   3.264   0.813
  666SOL     OW 3119   0.319   2.672   0.949
  666SOL    HW1 3120   0.412   2.708   0.954
  666SOL    HW2 3121   0.313   2.587   1.001
  667SOL     OW 3122   0.339   2.371   1.006
  667SOL    HW1 3123   0.287   2.288   0.989
  667SOL    HW2 3124   0.416   2.376   0.942
  668SOL     OW 3125   1.138   2.242   1.678
  668SOL    HW1 3126   1.093   2.305   1.742
  668SOL    HW2 3127   1.231   2.273   1.661
  669SOL     OW 3128   1.160   2.069   1.477
  669SOL    HW1 3129   1.160   2.133   1.554
  669SOL    HW2 3130   1.188   2.117   1.394
  670SOL     OW 3131   0.008   3.188   0.200
  670SOL    HW1 3132  -0.085   3.209   0.169
  670SOL    HW2 3133   0.018   3.089   0.213
  671SOL     OW 3134   0.088   3.663   0.927
  671SOL    HW1 3135   0.046   3.577   0.900
  671SOL    HW2 3136   0.182   3.666   0.893
  672SOL     OW 3137   0.504   3.430   0.910
  672SOL    HW1 3138   0.570   3.504   0.919
  672SOL    HW2 3139   0.548   3.351   0.868
  673SOL     OW 3140   0.040   2.406   1.114
  673SOL    HW1 3141   0.125   2.373   1.073
  673SOL    HW2 3142   0.053   2.421   1.212
  674SOL     OW 3143   0.189   2.382   1.722
  674SOL    HW1 3144   0.248   2.342   1.652
  674SOL    HW2 3145   0.131   2.453   1.681
  675SOL     OW 3146   1.369   2.812   1.660
  675SOL    HW1 3147   1.408   2.901   1.680
  675SOL    HW2 3148   1.379   2.792   1.563
  676SOL     OW 3149   0.815   2.434   0.325
  676SOL    HW1 3150   0.822   2.345   0.279
  676SOL    HW2 3151   0.721   2.468   0.317
  677SOL     OW 3152   1.657   2.466   1.206
  677SOL    HW1 3153   1.619   2.397   1.268
  677SOL    HW2 3154   1.739   2.430   1.162
  678SOL     OW 3155   0.252   3.426   1.744
  678SOL    HW1 3156   0.222   3.483   1.820
  678SOL    HW2 3157   0.245   3.329   1.770
  679SOL     OW 3158   0.930   3.540   1.465
  679SOL    HW1 3159   0.906   3.522   1.370
  679SOL    HW2 3160   0.960   3.634   1.475
  680SOL     OW 3161   0.473   2.362   0.191
  680SOL    HW1 3162   0.534   2.442   0.195
  680SOL    HW2 3163   0.378   2.393   0.198
  681SOL     OW 3164   0.159   2.999   1.466
  681SOL    HW1 3165   0.181   2.938   1.542
  681SOL    HW2 3166   0.169   2.950   1.380
  682SOL     OW 3167   1.759   3.609   1.154
  682SOL    HW1 3168   1.820   3.639   1.081
  682SOL    HW2 3169   1.721   3.520   1.132
  683SOL     OW 3170   1.252   3.593   1.128
  683SOL    HW1 3171   1.336   3.598   1.074
  683SOL    HW2 3172   1.229   3.497   1.146
  684SOL     OW 3173   0.083   3.120   1.022
  684SOL    HW1 3174   0.078   3.119   1.122
  684SOL    HW2 3175   0.000   3.079   0.984
  685SOL     OW 3176   0.688   3.524   1.716
  685SOL    HW1 3177   0.632   3.605   1.725
  685SOL    HW2 3178   0.740   3.528   1.630
  686SOL     OW 3179   0.903   1.948   0.133
  686SOL    HW1 3180   0.954   1.949   0.047
  686SOL    HW2 3181   0.959   1.906   0.204
  687SOL     OW 3182   1.726   1.997   0.523
  687SOL    HW1 3183   1.799   1.980   0.456
  687SOL    HW2 3184   1.695   1.910   0.561
  688SOL     OW 3185   1.388   3.435   0.477
  688SOL    HW1 3186   1.455   3.447   0.403
  688SOL    HW2 3187   1.348   3.524   0.500
  689SOL     OW 3188   0.130   3.656   1.851
  689SOL    HW1 3189   0.089   3.582   1.904
  689SOL    HW2 3190   0.194   3.707   1.909
  690SOL     OW 3191   1.280   2.789   0.672
  690SOL    HW1 3192   1.340   2.708   0.674
  690SOL    HW2 3193   1.320   2.858   0.612
  691SOL     OW 3194   0.830   3.135   1.422
  691SOL    HW1 3195   0.825   3.168   1.517
  691SOL    HW2 3196   0.744   3.154   1.376
  692SOL     OW 3197   1.650   3.582   1.394
  692SOL    HW1 3198   1.703   3.592   1.310
  692SOL    HW2 3199   1.623   3.672   1.428
  693SOL     OW 3200   1.841   2.037   0.963
  693SOL    HW1 3201   1.880   1.952   0.927
  693SOL    HW2 3202   1.743   2.039   0.944
  694SOL     OW 3203   0.263   2.188   0.720
  694SOL    HW1 3204   0.184   2.239   0.686
  694SOL    HW2 3205   0.254   2.173   0.818
  695SOL     OW 3206   0.916   2.772   0.291
  695SOL    HW1 3207   0.979   2.810   0.223
  695SOL    HW2 3208   0.956   2.689   0.330
  696SOL     OW 3209   1.504   3.469   0.044
  696SOL    HW1 3210   1.412   3.506   0.051
  696SOL    HW2 3211   1.542   3.489  -0.046
  697SOL     OW 3212   0.372   3.150   1.490
  697SOL    HW1 3213   0.359   3.243   1.456
  697SOL    HW2 3214   0.288   3.098   1.477
  698SOL     OW 3215   1.014   2.098   0.971
  698SOL    HW1 3216   1.006   2.062   0.878
  698SOL    HW2 3217   1.012   2.022   1.036
  699SOL     OW 3218   0.590   3.349   0.491
  699SOL    HW1 3219   0.632   3.291   0.421
  699SOL    HW2 3220   0.546   3.428   0.447
  700SOL     OW 3221   1.709   2.247   1.381
  700SOL    HW1 3222   1.782   2.316   1.385
  700SOL    HW2 3223   1.737   2.172   1.322
  701SOL     OW 3224   0.255   3.210   0.290
  701SOL    HW1 3225   0.159   3.211   0.263
  701SOL    HW2 3226   0.267   3.263   0.374
  702SOL     OW 3227   0.105   2.875   1.726
  702SOL    HW1 3228   0.028   2.842   1.780
  702SOL    HW2 3229   0.190   2.845   1.768
  703SOL     OW 3230   0.075   2.207   0.033
  703SOL    HW1 3231  -0.017   2.179   0.004
  703SOL    HW2 3232   0.106   2.284  -0.023
  704SOL     OW 3233   1.440   2.718   1.398
  704SOL    HW1 3234   1.383   2.770   1.335
  704SOL    HW2 3235   1.536   2.730   1.374
  705SOL     OW 3236   0.072   2.028   0.318
  705SOL    HW1 3237   0.055   2.111   0.264
  705SOL    HW2 3238   0.162   1.991   0.296
  706SOL     OW 3239   1.493   3.629   0.959
  706SOL    HW1 3240   1.526   3.693   0.890
  706SOL    HW2 3241   1.559   3.623   1.034
  707SOL     OW 3242   0.716   2.427   1.708
  707SOL    HW1 3243   0.735   2.492   1.782
  707SOL    HW2 3244   0.776   2.347   1.717
  708SOL     OW 3245   1.450   3.082   1.633
  708SOL    HW1 3246   1.441   3.072   1.732
  708SOL    HW2 3247   1.546   3.075   1.607
  709SOL     OW 3248   0.390   3.603   1.560
  709SOL    HW1 3249   0.299   3.644   1.558
  709SOL    HW2 3250   0.383   3.509   1.592
  710SOL     OW 3251   1.674   2.745   1.254
  710SOL    HW1 3252   1.647   2.656   1.217
  710SOL    HW2 3253   1.675   2.813   1.181
  711SOL     OW 3254   1.225   2.187   0.449
  711SOL    HW1 3255   1.290   2.113   0.438
  711SOL    HW2 3256   1.245   2.237   0.533
  712SOL     OW 3257   0.594   2.607   0.652
  712SOL    HW1 3258   0.644   2.692   0.633
  712SOL    HW2 3259   0.506   2.609   0.604
  713SOL     OW 3260   1.777   2.204   1.642
  713SOL    HW1 3261   1.760   2.235   1.548
  713SOL    HW2 3262   1.693   2.167   1.680
  714SOL     OW 3263   1.730   2.796   1.517
  714SOL    HW1 3264   1.768   2.887   1.532
  714SOL    HW2 3265   1.722   2.779   1.418
  715SOL     OW 3266   0.661   3.652   0.953
  715SOL    HW1 3267   0.615   3.740   0.940
  715SOL    HW2 3268   0.760   3.664   0.946
  716SOL     OW 3269   1.861   3.431   0.851
  716SOL    HW1 3270   1.790   3.419   0.781
  716SOL    HW2 3271   1.862   3.352   0.911
  717SOL     OW 3272   0.221   3.176   1.844
  717SOL    HW1 3273   0.156   3.103   1.823
  717SOL    HW2 3274   0.225   3.190   1.942
  718SOL     OW 3275   0.079   3.102   0.653
  718SOL    HW1 3276   0.078   3.055   0.741
  718SOL    HW2 3277   0.161   3.074   0.602
  719SOL     OW 3278   0.672   3.253   1.624
  719SOL    HW1 3279   0.594   3.203   1.662
  719SOL    HW2 3280   0.669   3.348   1.655
  720SOL     OW 3281   1.824   2.054   1.227
  720SOL    HW1 3282   1.820   1.964   1.271
  720SOL    HW2 3283   1.827   2.043   1.128
  721SOL     OW 3284   0.428   2.286   0.520
  721SOL    HW1 3285   0.458   2.214   0.458
  721SOL    HW2 3286   0.389   2.246   0.603
  722SOL     OW 3287   1.705   3.349   1.104
  722SOL    HW1 3288   1.612   3.324   1.077
  722SOL    HW2 3289   1.731   3.299   1.186
  723SOL     OW 3290   0.812   3.448   0.687
  723SOL    HW1 3291   0.844   3.458   0.593
  723SOL    HW2 3292   0.733   3.386   0.689
  724SOL     OW 3293   1.424   2.076   1.112
  724SOL    HW1 3294   1.476   2.011   1.167
  724SOL    HW2 3295   1.375   2.139   1.173
  725SOL     OW 3296   1.001   1.896   1.154
  725SOL    HW1 3297   0.938   1.824   1.123
  725SOL    HW2 3298   1.094   1.860   1.154
  726SOL     OW 3299   0.618   3.429   1.284
  726SOL    HW1 3300   0.613   3.511   1.341
  726SOL    HW2 3301   0.707   3.426   1.239
  727SOL     OW 3302   1.352   1.914   0.168
  727SOL    HW1 3303   1.387   1.873   0.084
  727SOL    HW2 3304   1.262   1.876   0.188
  728SOL     OW 3305   1.300   2.315   0.691
  728SOL    HW1 3306   1.241   2.395   0.695
  728SOL    HW2 3307   1.315   2.280   0.784
  729SOL     OW 3308   1.593   2.083   0.882
  729SOL    HW1 3309   1.509   2.082   0.936
  729SOL    HW2 3310   1.595   2.166   0.826
  730SOL     OW 3311   0.039   2.939   0.300
  730SOL    HW1 3312   0.138   2.928   0.291
  730SOL    HW2 3313  -0.001   2.853   0.332
  731SOL     OW 3314   0.230   2.490   1.975
  731SOL    HW1 3315   0.137   2.488   2.012
  731SOL    HW2 3316   0.231   2.451   1.883
  732SOL     OW 3317   0.225   2.137   2.858
  732SOL    HW1 3318   0.260   2.120   2.950
  732SOL    HW2 3319   0.137   2.092   2.846
  733SOL     OW 3320   0.019   2.230   2.509
  733SOL    HW1 3321  -0.063   2.273   2.548
  733SOL    HW2 3322  -0.009   2.157   2.446
  734SOL     OW 3323   0.569   3.137   3.027
  734SOL    HW1 3324   0.476   3.130   2.990
  734SOL    HW2 3325   0.580   3.226   3.071
  735SOL     OW 3326   1.555   3.373   2.565
  735SOL    HW1 3327   1.498   3.357   2.646
  735SOL    HW2 3328   1.496   3.383   2.485
  736SOL     OW 3329   1.135   2.565   2.579
  736SOL    HW1 3330   1.192   2.643   2.554
  736SOL    HW2 3331   1.075   2.591   2.655
  737SOL     OW 3332   1.755   2.469   2.093
  737SOL    HW1 3333   1.743   2.456   1.994
  737SOL    HW2 3334   1.725   2.388   2.142
  738SOL     OW 3335   0.768   3.006   2.885
  738SOL    HW1 3336   0.690   3.023   2.945
  738SOL    HW2 3337   0.802   3.093   2.849
  739SOL     OW 3338   0.850   2.660   3.685
  739SOL    HW1 3339   0.846   2.736   3.750
  739SOL    HW2 3340   0.872   2.696   3.594
  740SOL     OW 3341   0.685   2.874   2.527
  740SOL    HW1 3342   0.754   2.858   2.597
  740SOL    HW2 3343   0.612   2.931   2.565
  741SOL     OW 3344   0.686   3.023   3.665
  741SOL    HW1 3345   0.746   3.102   3.679
  741SOL    HW2 3346   0.600   3.054   3.624
  742SOL     OW 3347   0.335   3.297   2.923
  742SOL    HW1 3348   0.257   3.266   2.870
  742SOL    HW2 3349   0.393   3.355   2.866
  743SOL     OW 3350   1.460   3.367   3.201
  743SOL    HW1 3351   1.484   3.461   3.227
  743SOL    HW2 3352   1.444   3.313   3.283
  744SOL     OW 3353   0.231   3.575   2.345
  744SOL    HW1 3354   0.265   3.652   2.399
  744SOL    HW2 3355   0.275   3.575   2.255
  745SOL     OW 3356   0.230   3.296   2.400
  745SOL    HW1 3357   0.204   3.392   2.400
  745SOL    HW2 3358   0.159   3.242   2.445
  746SOL     OW 3359   0.240   2.953   2.748
  746SOL    HW1 3360   0.254   2.869   2.800
  746SOL    HW2 3361   0.185   3.017   2.803
  747SOL     OW 3362   0.620   3.648   3.301
  747SOL    HW1 3363   0.528   3.631   3.336
  747SOL    HW2 3364   0.648   3.740   3.327
  748SOL     OW 3365   0.606   2.826   1.985
  748SOL    HW1 3366   0.613   2.910   1.931
  748SOL    HW2 3367   0.652   2.839   2.073
  749SOL     OW 3368   1.594   1.976   3.342
  749SOL    HW1 3369   1.576   2.043   3.270
  749SOL    HW2 3370   1.591   2.022   3.431
  750SOL     OW 3371   0.122   2.505   2.425
  750SOL    HW1 3372   0.077   2.417   2.442
  750SOL    HW2 3373   0.121   2.559   2.509
  751SOL     OW 3374   1.842   3.629   2.221
  751SOL    HW1 3375   1.896   3.600   2.301
  751SOL    HW2 3376   1.872   3.719   2.192
  752SOL     OW 3377   0.027   3.458   1.979
  752SOL    HW1 3378   0.008   3.362   2.000
  752SOL    HW2 3379  -0.006   3.516   2.054
  753SOL     OW 3380   1.689   2.784   2.474
  753SOL    HW1 3381   1.784   2.755   2.482
  753SOL    HW2 3382   1.681   2.849   2.399
  754SOL     OW 3383   1.641   2.970   2.294
  754SOL    HW1 3384   1.727   2.972   2.242
  754SOL    HW2 3385   1.655   3.017   2.382
  755SOL     OW 3386   0.113   2.599   3.459
  755SOL    HW1 3387   0.201   2.586   3.504
  755SOL    HW2 3388   0.100   2.696   3.437
  756SOL     OW 3389   0.613   3.227   2.588
  756SOL    HW1 3390   0.564   3.140   2.597
  756SOL    HW2 3391   0.590   3.270   2.501
  757SOL     OW 3392   1.293   3.090   3.285
  757SOL    HW1 3393   1.330   3.017   3.227
  757SOL    HW2 3394   1.345   3.095   3.370
  758SOL     OW 3395   0.197   2.838   3.126
  758SOL    HW1 3396   0.286   2.793   3.112
  758SOL    HW2 3397   0.124   2.773   3.107
  759SOL     OW 3398   1.525   2.861   2.052
  759SOL    HW1 3399   1.462   2.785   2.065
  759SOL    HW2 3400   1.573   2.879   2.138
  760SOL     OW 3401   1.187   3.654   3.478
  760SOL    HW1 3402   1.211   3.714   3.402
  760SOL    HW2 3403   1.194   3.559   3.448
  761SOL     OW 3404   0.317   2.113   3.663
  761SOL    HW1 3405   0.388   2.184   3.669
  761SOL    HW2 3406   0.229   2.152   3.691
  762SOL     OW 3407   1.466   3.279   2.815
  762SOL    HW1 3408   1.407   3.285   2.895
  762SOL    HW2 3409   1.451   3.191   2.769
  763SOL     OW 3410   1.667   3.576   2.434
  763SOL    HW1 3411   1.626   3.553   2.346
  763SOL    HW2 3412   1.649   3.502   2.499
  764SOL     OW 3413   0.598   2.591   2.132
  764SOL    HW1 3414   0.622   2.660   2.064
  764SOL    HW2 3415   0.520   2.624   2.186
  765SOL     OW 3416   1.281   2.207   2.806
  765SOL    HW1 3417   1.195   2.157   2.793
  765SOL    HW2 3418   1.343   2.153   2.862
  766SOL     OW 3419   1.576   3.524   2.169
  766SOL    HW1 3420   1.665   3.570   2.172
  766SOL    HW2 3421   1.555   3.500   2.074
  767SOL     OW 3422   0.807   2.467   3.327
  767SOL    HW1 3423   0.760   2.464   3.416
  767SOL    HW2 3424   0.756   2.412   3.261
  768SOL     OW 3425   1.394   2.331   3.536
  768SOL    HW1 3426   1.374   2.374   3.624
  768SOL    HW2 3427   1.472   2.269   3.545
  769SOL     OW 3428   0.973   2.752   3.434
  769SOL    HW1 3429   1.019   2.668   3.405
  769SOL    HW2 3430   0.917   2.786   3.359
  770SOL     OW 3431   0.991   2.272   3.104
  770SOL    HW1 3432   0.914   2.306   3.158
  770SOL    HW2 3433   0.957   2.221   3.025
  771SOL     OW 3434   1.041   2.563   2.291
  771SOL    HW1 3435   1.067   2.559   2.387
  771SOL    HW2 3436   0.956   2.512   2.277
  772SOL     OW 3437   0.076   2.673   2.651
  772SOL    HW1 3438   0.175   2.661   2.660
  772SOL    HW2 3439   0.052   2.768   2.672
  773SOL     OW 3440   0.130   3.683   3.433
  773SOL    HW1 3441   0.120   3.668   3.532
  773SOL    HW2 3442   0.044   3.719   3.397
  774SOL     OW 3443   1.362   3.006   2.407
  774SOL    HW1 3444   1.445   2.977   2.359
  774SOL    HW2 3445   1.313   3.073   2.351
  775SOL     OW 3446   0.550   2.058   2.747
  775SOL    HW1 3447   0.545   2.053   2.847
  775SOL    HW2 3448   0.552   2.154   2.718
  776SOL     OW 3449   1.008   3.318   2.339
  776SOL    HW1 3450   0.962   3.390   2.287
  776SOL    HW2 3451   1.004   3.338   2.437
  777SOL     OW 3452   0.351   3.663   2.715
  777SOL    HW1 3453   0.401   3.577   2.721
  777SOL    HW2 3454   0.416   3.740   2.712
  778SOL     OW 3455   1.795   2.928   2.735
  778SOL    HW1 3456   1.733   2.913   2.659
  778SOL    HW2 3457   1.743   2.939   2.820
  779SOL     OW 3458   1.227   3.412   3.368
  779SOL    HW1 3459   1.233   3.335   3.432
  779SOL    HW2 3460   1.175   3.386   3.288
  780SOL     OW 3461   0.321   2.805   2.104
  780SOL    HW1 3462   0.403   2.844   2.062
  780SOL    HW2 3463   0.294   2.723   2.055
  781SOL     OW 3464   1.458   2.597   2.590
  781SOL    HW1 3465   1.453   2.532   2.665
  781SOL    HW2 3466   1.538   2.656   2.603
  782SOL     OW 3467   0.461   3.128   3.589
  782SOL    HW1 3468   0.411   3.129   3.503
  782SOL    HW2 3469   0.398   3.110   3.665
  783SOL     OW 3470   1.111   3.638   2.099
  783SOL    HW1 3471   1.051   3.576   2.149
  783SOL    HW2 3472   1.142   3.594   2.014
  784SOL     OW 3473   0.202   2.147   3.360
  784SOL    HW1 3474   0.122   2.207   3.347
  784SOL    HW2 3475   0.192   2.098   3.446
  785SOL     OW 3476   1.632   3.239   1.943
  785SOL    HW1 3477   1.600   3.333   1.933
  785SOL    HW2 3478   1.556   3.176   1.931
  786SOL     OW 3479   0.464   3.605   2.185
  786SOL    HW1 3480   0.497   3.644   2.271
  786SOL    HW2 3481   0.540   3.598   2.120
  787SOL     OW 3482   0.249   3.647   3.103
  787SOL    HW1 3483   0.306   3.582   3.153
  787SOL    HW2 3484   0.233   3.614   3.010
  788SOL     OW 3485   0.940   3.560   2.766
  788SOL    HW1 3486   1.020   3.503   2.787
  788SOL    HW2 3487   0.891   3.520   2.689
  789SOL     OW 3488   0.382   2.562   2.342
  789SOL    HW1 3489   0.427   2.472   2.339
  789SOL    HW2 3490   0.288   2.551   2.375
  790SOL     OW 3491   1.547   2.084   3.591
  790SOL    HW1 3492   1.542   2.121   3.683
  790SOL    HW2 3493   1.475   2.015   3.579
  791SOL     OW 3494   0.614   1.984   1.979
  791SOL    HW1 3495   0.712   1.962   1.986
  791SOL    HW2 3496   0.583   1.967   1.886
  792SOL     OW 3497   0.781   2.126   3.611
  792SOL    HW1 3498   0.848   2.065   3.654
  792SOL    HW2 3499   0.708   2.145   3.676
  793SOL     OW 3500   0.888   3.376   3.057
  793SOL    HW1 3501   0.865   3.351   2.963
  793SOL    HW2 3502   0.949   3.307   3.096
  794SOL     OW 3503   1.351   2.452   3.295
  794SOL    HW1 3504   1.379   2.409   3.380
  794SOL    HW2 3505   1.376   2.548   3.296
  795SOL     OW 3506   0.803   3.264   2.786
  795SOL    HW1 3507   0.893   3.278   2.744
  795SOL    HW2 3508   0.732   3.266   2.715
  796SOL     OW 3509   0.922   2.365   2.761
  796SOL    HW1 3510   0.897   2.356   2.665
  796SOL    HW2 3511   0.970   2.283   2.792
  797SOL     OW 3512   0.539   1.926   2.374
  797SOL    HW1 3513   0.458   1.927   2.432
  797SOL    HW2 3514   0.542   2.009   2.319
  798SOL     OW 3515   1.434   3.050   1.903
  798SOL    HW1 3516   1.466   2.974   1.960
  798SOL    HW2 3517   1.342   3.077   1.933
  799SOL     OW 3518   1.076   2.545   3.326
  799SOL    HW1 3519   0.996   2.484   3.329
  799SOL    HW2 3520   1.157   2.492   3.302
  800SOL     OW 3521   1.227   3.432   2.655
  800SOL    HW1 3522   1.248   3.506   2.590
  800SOL    HW2 3523   1.295   3.432   2.728
  801SOL     OW 3524   0.459   3.014   2.603
  801SOL    HW1 3525   0.388   2.987   2.668
  801SOL    HW2 3526   0.433   2.986   2.510
  802SOL     OW 3527   1.271   3.659   2.453
  802SOL    HW1 3528   1.315   3.723   2.389
  802SOL    HW2 3529   1.221   3.711   2.523
  803SOL     OW 3530   1.032   2.411   1.878
  803SOL    HW1 3531   0.991   2.493   1.839
  803SOL    HW2 3532   1.096   2.437   1.951
  804SOL     OW 3533   0.078   2.418   3.248
  804SOL    HW1 3534   0.170   2.417   3.207
  804SOL    HW2 3535   0.072   2.492   3.315
  805SOL     OW 3536   0.561   2.084   3.009
  805SOL    HW1 3537   0.599   2.000   3.046
  805SOL    HW2 3538   0.473   2.103   3.053
  806SOL     OW 3539   0.866   2.316   2.504
  806SOL    HW1 3540   0.834   2.388   2.442
  806SOL    HW2 3541   0.890   2.235   2.451
  807SOL     OW 3542   1.017   1.901   2.615
  807SOL    HW1 3543   0.945   1.906   2.546
  807SOL    HW2 3544   0.993   1.832   2.684
  808SOL     OW 3545   1.429   3.035   2.729
  808SOL    HW1 3546   1.374   2.951   2.722
  808SOL    HW2 3547   1.455   3.064   2.637
  809SOL     OW 3548   1.466   2.452   2.854
  809SOL    HW1 3549   1.436   2.357   2.861
  809SOL    HW2 3550   1.539   2.468   2.920
  810SOL     OW 3551   1.857   2.695   2.239
  810SOL    HW1 3552   1.899   2.631   2.303
  810SOL    HW2 3553   1.819   2.644   2.161
  811SOL     OW 3554   0.488   3.247   2.036
  811SOL    HW1 3555   0.401   3.232   2.083
  811SOL    HW2 3556   0.471   3.273   1.941
  812SOL     OW 3557   1.664   3.142   2.519
  812SOL    HW1 3558   1.763   3.150   2.533
  812SOL    HW2 3559   1.619   3.226   2.550
  813SOL     OW 3560   1.390   2.437   1.940
  813SOL    HW1 3561   1.336   2.416   2.021
  813SOL    HW2 3562   1.481   2.396   1.949
  814SOL     OW 3563   0.527   2.118   2.190
  814SOL    HW1 3564   0.554   2.059   2.115
  814SOL    HW2 3565   0.527   2.213   2.159
  815SOL     OW 3566   1.064   3.209   3.202
  815SOL    HW1 3567   0.984   3.186   3.257
  815SOL    HW2 3568   1.147   3.183   3.251
  816SOL     OW 3569   1.592   3.491   3.487
  816SOL    HW1 3570   1.619   3.525   3.397
  816SOL    HW2 3571   1.671   3.453   3.533
  817SOL     OW 3572   1.111   3.057   2.962
  817SOL    HW1 3573   1.071   3.101   3.043
  817SOL    HW2 3574   1.070   3.094   2.879
  818SOL     OW 3575   1.638   2.961   2.941
  818SOL    HW1 3576   1.643   3.042   3.000
  818SOL    HW2 3577   1.552   2.963   2.890
  819SOL     OW 3578   0.915   1.951   3.264
  819SOL    HW1 3579   0.940   1.931   3.169
  819SOL    HW2 3580   0.987   2.007   3.306
  820SOL     OW 3581   0.705   2.912   2.230
  820SOL    HW1 3582   0.691   2.919   2.329
  820SOL    HW2 3583   0.789   2.861   2.212
  821SOL     OW 3584   0.410   2.675   3.113
  821SOL    HW1 3585   0.496   2.687   3.163
  821SOL    HW2 3586   0.368   2.588   3.140
  822SOL     OW 3587   1.274   2.248   3.124
  822SOL    HW1 3588   1.295   2.322   3.188
  822SOL    HW2 3589   1.185   2.265   3.081
  823SOL     OW 3590   0.064   3.426   3.193
  823SOL    HW1 3591   0.018   3.508   3.159
  823SOL    HW2 3592   0.162   3.445   3.202
  824SOL     OW 3593   0.367   2.962   2.363
  824SOL    HW1 3594   0.360   3.045   2.307
  824SOL    HW2 3595   0.371   2.882   2.303
  825SOL     OW 3596   0.566   2.399   2.727
  825SOL    HW1 3597   0.578   2.465   2.653
  825SOL    HW2 3598   0.612   2.433   2.810
  826SOL     OW 3599   1.252   3.210   2.250
  826SOL    HW1 3600   1.302   3.287   2.290
  826SOL    HW2 3601   1.157   3.212   2.282
  827SOL     OW 3602   1.272   3.307   3.004
  827SOL    HW1 3603   1.319   3.320   3.091
  827SOL    HW2 3604   1.206   3.233   3.013
  828SOL     OW 3605   1.582   2.501   2.334
  828SOL    HW1 3606   1.551   2.562   2.407
  828SOL    HW2 3607   1.632   2.553   2.265
  829SOL     OW 3608   0.354   3.372   3.191
  829SOL    HW1 3609   0.333   3.328   3.104
  829SOL    HW2 3610   0.451   3.398   3.194
  830SOL     OW 3611   0.402   2.613   3.460
  830SOL    HW1 3612   0.470   2.668   3.413
  830SOL    HW2 3613   0.442   2.525   3.487
  831SOL     OW 3614   1.013   1.967   3.632
  831SOL    HW1 3615   1.019   2.052   3.580
  831SOL    HW2 3616   1.045   1.891   3.575
  832SOL     OW 3617   0.573   2.732   2.891
  832SOL    HW1 3618   0.617   2.821   2.882
  832SOL    HW2 3619   0.510   2.732   2.968
  833SOL     OW 3620   1.360   2.724   2.907
  833SOL    HW1 3621   1.285   2.724   2.841
  833SOL    HW2 3622   1.397   2.632   2.916
  834SOL     OW 3623   0.307   2.075   3.093
  834SOL    HW1 3624   0.284   2.112   3.183
  834SOL    HW2 3625   0.277   1.980   3.087
  835SOL     OW 3626   0.037   3.172   3.144
  835SOL    HW1 3627   0.090   3.123   3.212
  835SOL    HW2 3628   0.059   3.270   3.149
  836SOL     OW 3629   0.732   2.496   2.926
  836SOL    HW1 3630   0.791   2.470   2.850
  836SOL    HW2 3631   0.704   2.592   2.915
  837SOL     OW 3632   1.728   2.797   3.716
  837SOL    HW1 3633   1.682   2.790   3.627
  837SOL    HW2 3634   1.666   2.841   3.782
  838SOL     OW 3635   1.622   2.229   2.236
  838SOL    HW1 3636   1.624   2.153   2.300
  838SOL    HW2 3637   1.574   2.306   2.276
  839SOL     OW 3638   1.023   2.628   2.828
  839SOL    HW1 3639   1.038   2.649   2.924
  839SOL    HW2 3640   0.993   2.533   2.819
  840SOL     OW 3641   0.980   3.435   3.562
  840SOL    HW1 3642   0.960   3.479   3.474
  840SOL    HW2 3643   1.019   3.344   3.546
  841SOL     OW 3644   1.859   3.380   3.467
  841SOL    HW1 3645   1.873   3.407   3.372
  841SOL    HW2 3646   1.942   3.402   3.520
  842SOL     OW 3647   0.350   2.760   3.666
  842SOL    HW1 3648   0.426   2.804   3.714
  842SOL    HW2 3649   0.385   2.713   3.584
  843SOL     OW 3650   1.540   2.136   1.987
  843SOL    HW1 3651   1.479   2.061   2.010
  843SOL    HW2 3652   1.562   2.188   2.070
  844SOL     OW 3653   1.303   2.700   1.904
  844SOL    HW1 3654   1.337   2.607   1.919
  844SOL    HW2 3655   1.321   2.727   1.809
  845SOL     OW 3656   1.068   3.195   2.711
  845SOL    HW1 3657   1.075   3.111   2.656
  845SOL    HW2 3658   1.130   3.264   2.675
  846SOL     OW 3659   0.319   2.672   2.811
  846SOL    HW1 3660   0.412   2.708   2.816
  846SOL    HW2 3661   0.313   2.587   2.863
  847SOL     OW 3662   0.339   2.371   2.868
  847SOL    HW1 3663   0.287   2.288   2.851
  847SOL    HW2 3664   0.416   2.376   2.804
  848SOL     OW 3665   1.138   2.242   3.540
  848SOL    HW1 3666   1.093   2.305   3.604
  848SOL    HW2 3667   1.231   2.273   3.523
  849SOL     OW 3668   1.160   2.069   3.339
  849SOL    HW1 3669   1.160   2.133   3.416
  849SOL    HW2 3670   1.188   2.117   3.256
  850SOL     OW 3671   0.008   3.188   2.062
  850SOL    HW1 3672  -0.085   3.209   2.031
  850SOL    HW2 3673   0.018   3.089   2.075
  851SOL     OW 3674   0.088   3.663   2.789
  851SOL    HW1 3675   0.046   3.577   2.762
  851SOL    HW2 3676   0.182   3.666   2.755
  852SOL     OW 3677   0.504   3.430   2.772
  852SOL    HW1 3678   0.570   3.504   2.781
  852SOL    HW2 3679   0.548   3.351   2.730
  853SOL     OW 3680   1.002   2.658   3.100
  853SOL    HW1 3681   1.043   2.626   3.186
  853SOL    HW2 3682   0.906   2.631   3.097
  854SOL     OW 3683   0.040   2.406   2.976
  854SOL    HW1 3684   0.125   2.373   2.935
  854SOL    HW2 3685   0.053   2.421   3.074
  855SOL     OW 3686   0.189   2.382   3.584
  855SOL    HW1 3687   0.248   2.342   3.514
  855SOL    HW2 3688   0.131   2.453   3.543
  856SOL     OW 3689   1.369   2.812   3.522
  856SOL    HW1 3690   1.408   2.901   3.542
  856SOL    HW2 3691   1.379   2.792   3.425
  857SOL     OW 3692   1.657   2.466   3.068
  857SOL    HW1 3693   1.619   2.397   3.130
  857SOL    HW2 3694   1.739   2.430   3.024
  858SOL     OW 3695   0.252   3.426   3.606
  858SOL    HW1 3696   0.222   3.483   3.682
  858SOL    HW2 3697   0.245   3.329   3.632
  859SOL     OW 3698   0.671   2.326   3.131
  859SOL    HW1 3699   0.637   2.237   3.101
  859SOL    HW2 3700   0.697   2.380   3.051
  860SOL     OW 3701   0.930   3.540   3.327
  860SOL    HW1 3702   0.906   3.522   3.232
  860SOL    HW2 3703   0.960   3.634   3.337
  861SOL     OW 3704   0.473   2.362   2.053
  861SOL    HW1 3705   0.534   2.442   2.057
  861SOL    HW2 3706   0.378   2.393   2.060
  862SOL     OW 3707   0.159   2.999   3.328
  862SOL    HW1 3708   0.181   2.938   3.404
  862SOL    HW2 3709   0.169   2.950   3.242
  863SOL     OW 3710   1.347   2.921   3.096
  863SOL    HW1 3711   1.371   2.858   3.022
  863SOL    HW2 3712   1.257   2.961   3.078
  864SOL     OW 3713   1.302   2.717   2.171
  864SOL    HW1 3714   1.216   2.686   2.213
  864SOL    HW2 3715   1.298   2.703   2.072
  865SOL     OW 3716   1.759   3.609   3.016
  865SOL    HW1 3717   1.820   3.639   2.943
  865SOL    HW2 3718   1.721   3.520   2.994
  866SOL     OW 3719   1.252   3.593   2.990
  866SOL    HW1 3720   1.336   3.598   2.936
  866SOL    HW2 3721   1.229   3.497   3.008
  867SOL     OW 3722   0.083   3.120   2.884
  867SOL    HW1 3723   0.078   3.119   2.984
  867SOL    HW2 3724   0.000   3.079   2.846
  868SOL     OW 3725   0.688   3.524   3.578
  868SOL    HW1 3726   0.632   3.605   3.587
  868SOL    HW2 3727   0.740   3.528   3.492
  869SOL     OW 3728   1.726   1.997   2.385
  869SOL    HW1 3729   1.799   1.980   2.318
  869SOL    HW2 3730   1.695   1.910   2.423
  870SOL     OW 3731   1.388   3.435   2.339
  870SOL    HW1 3732   1.455   3.447   2.265
  870SOL    HW2 3733   1.348   3.524   2.362
  871SOL     OW 3734   0.130   3.656   3.713
  871SOL    HW1 3735   0.089   3.582   3.766
  871SOL    HW2 3736   0.194   3.707   3.771
  872SOL     OW 3737   1.280   2.789   2.534
  872SOL    HW1 3738   1.340   2.708   2.536
  872SOL    HW2 3739   1.320   2.858   2.474
  873SOL     OW 3740   0.830   3.135   3.284
  873SOL    HW1 3741   0.825   3.168   3.379
  873SOL    HW2 3742   0.744   3.154   3.238
  874SOL     OW 3743   0.672   3.478   2.016
  874SOL    HW1 3744   0.681   3.488   1.917
  874SOL    HW2 3745   0.632   3.389   2.037
  875SOL     OW 3746   1.650   3.582   3.256
  875SOL    HW1 3747   1.703   3.592   3.172
  875SOL    HW2 3748   1.623   3.672   3.290
  876SOL     OW 3749   1.841   2.037   2.825
  876SOL    HW1 3750   1.880   1.952   2.789
  876SOL    HW2 3751   1.743   2.039   2.806
  877SOL     OW 3752   0.263   2.188   2.582
  877SOL    HW1 3753   0.184   2.239   2.548
  877SOL    HW2 3754   0.254   2.173   2.680
  878SOL     OW 3755   1.194   3.474   1.893
  878SOL    HW1 3756   1.200   3.381   1.930
  878SOL    HW2 3757   1.135   3.474   1.813
  879SOL     OW 3758   0.822   2.864   3.234
  879SOL    HW1 3759   0.862   2.863   3.142
  879SOL    HW2 3760   0.832   2.956   3.274
  880SOL     OW 3761   0.916   2.772   2.153
  880SOL    HW1 3762   0.979   2.810   2.085
  880SOL    HW2 3763   0.956   2.689   2.192
  881SOL     OW 3764   1.504   3.469   1.906
  881SOL    HW1 3765   1.412   3.506   1.913
  881SOL    HW2 3766   1.542   3.489   1.816
  882SOL     OW 3767   0.372   3.150   3.352
  882SOL    HW1 3768   0.359   3.243   3.318
  882SOL    HW2 3769   0.288   3.098   3.339
  883SOL     OW 3770   1.614   3.154   3.151
  883SOL    HW1 3771   1.674   3.157   3.231
  883SOL    HW2 3772   1.539   3.218   3.164
  884SOL     OW 3773   1.039   2.960   2.558
  884SOL    HW1 3774   0.969   2.913   2.612
  884SOL    HW2 3775   1.098   2.892   2.515
  885SOL     OW 3776   1.014   2.098   2.833
  885SOL    HW1 3777   1.006   2.062   2.740
  885SOL    HW2 3778   1.012   2.022   2.898
  886SOL     OW 3779   0.590   3.349   2.353
  886SOL    HW1 3780   0.632   3.291   2.283
  886SOL    HW2 3781   0.546   3.428   2.309
  887SOL     OW 3782   1.709   2.247   3.243
  887SOL    HW1 3783   1.782   2.316   3.247
  887SOL    HW2 3784   1.737   2.172   3.184
  888SOL     OW 3785   0.255   3.210   2.152
  888SOL    HW1 3786   0.159   3.211   2.125
  888SOL    HW2 3787   0.267   3.263   2.236
  889SOL     OW 3788   0.672   2.065   3.351
  889SOL    HW1 3789   0.762   2.049   3.311
  889SOL    HW2 3790   0.680   2.070   3.450
  890SOL     OW 3791   1.440   2.718   3.260
  890SOL    HW1 3792   1.383   2.770   3.197
  890SOL    HW2 3793   1.536   2.730   3.236
  891SOL     OW 3794   1.183   3.197   1.981
  891SOL    HW1 3795   1.084   3.186   1.983
  891SOL    HW2 3796   1.217   3.212   2.074
  892SOL     OW 3797   0.613   2.704   3.293
  892SOL    HW1 3798   0.669   2.785   3.276
  892SOL    HW2 3799   0.672   2.624   3.296
  893SOL     OW 3800   1.493   3.629   2.821
  893SOL    HW1 3801   1.526   3.693   2.752
  893SOL    HW2 3802   1.559   3.623   2.896
  894SOL     OW 3803   0.716   2.427   3.570
  894SOL    HW1 3804   0.735   2.492   3.644
  894SOL    HW2 3805   0.776   2.347   3.579
  895SOL     OW 3806   1.450   3.082   3.495
  895SOL    HW1 3807   1.441   3.072   3.594
  895SOL    HW2 3808   1.546   3.075   3.469
  896SOL     OW 3809   0.390   3.603   3.422
  896SOL    HW1 3810   0.299   3.644   3.420
  896SOL    HW2 3811   0.383   3.509   3.454
  897SOL     OW 3812   1.674   2.745   3.116
  897SOL    HW1 3813   1.647   2.656   3.079
  897SOL    HW2 3814   1.675   2.813   3.043
  898SOL     OW 3815   0.594   2.607   2.514
  898SOL    HW1 3816   0.644   2.692   2.495
  898SOL    HW2 3817   0.506   2.609   2.466
  899SOL     OW 3818   1.777   2.204   3.504
  899SOL    HW1 3819   1.760   2.235   3.410
  899SOL    HW2 3820   1.693   2.167   3.542
  900SOL     OW 3821   1.730   2.796   3.379
  900SOL    HW1 3822   1.768   2.887   3.394
  900SOL    HW2 3823   1.722   2.779   3.280
  901SOL     OW 3824   0.859   3.236   1.878
  901SOL    HW1 3825   0.813   3.251   1.966
  901SOL    HW2 3826   0.903   3.321   1.848
  902SOL     OW 3827   0.661   3.652   2.815
  902SOL    HW1 3828   0.615   3.740   2.802
  902SOL    HW2 3829   0.760   3.664   2.808
  903SOL     OW 3830   0.859   2.818   2.723
  903SOL    HW1 3831   0.913   2.749   2.771
  903SOL    HW2 3832   0.827   2.887   2.789
  904SOL     OW 3833   1.083   2.846   1.949
  904SOL    HW1 3834   1.060   2.899   1.867
  904SOL    HW2 3835   1.164   2.790   1.930
  905SOL     OW 3836   1.861   3.431   2.713
  905SOL    HW1 3837   1.790   3.419   2.643
  905SOL    HW2 3838   1.862   3.352   2.773
  906SOL     OW 3839   0.221   3.176   3.706
  906SOL    HW1 3840   0.156   3.103   3.685
  906SOL    HW2 3841   0.225   3.190   3.804
  907SOL     OW 3842   0.079   3.102   2.515
  907SOL    HW1 3843   0.078   3.055   2.603
  907SOL    HW2 3844   0.161   3.074   2.464
  908SOL     OW 3845   0.672   3.253   3.486
  908SOL    HW1 3846   0.594   3.203   3.524
  908SOL    HW2 3847   0.669   3.348   3.517
  909SOL     OW 3848   1.824   2.054   3.089
  909SOL    HW1 3849   1.820   1.964   3.133
  909SOL    HW2 3850   1.827   2.043   2.990
  910SOL     OW 3851   0.428   2.286   2.382
  910SOL    HW1 3852   0.458   2.214   2.320
  910SOL    HW2 3853   0.389   2.246   2.465
  911SOL     OW 3854   1.705   3.349   2.966
  911SOL    HW1 3855   1.612   3.324   2.939
  911SOL    HW2 3856   1.731   3.299   3.048
  912SOL     OW 3857   0.317   2.409   3.142
  912SOL    HW1 3858   0.355   2.350   3.214
  912SOL    HW2 3859   0.357   2.383   3.054
  913SOL     OW 3860   0.812   3.448   2.549
  913SOL    HW1 3861   0.844   3.458   2.455
  913SOL    HW2 3862   0.733   3.386   2.551
  914SOL     OW 3863   1.424   2.076   2.974
  914SOL    HW1 3864   1.476   2.011   3.029
  914SOL    HW2 3865   1.375   2.139   3.035
  915SOL     OW 3866   1.001   1.896   3.016
  915SOL    HW1 3867   0.938   1.824   2.985
  915SOL    HW2 3868   1.094   1.860   3.016
  916SOL     OW 3869   0.770   3.192   2.163
  916SOL    HW1 3870   0.724   3.105   2.180
  916SOL    HW2 3871   0.861   3.189   2.204
  917SOL     OW 3872   0.618   3.429   3.146
  917SOL    HW1 3873   0.613   3.511   3.203
  917SOL    HW2 3874   0.707   3.426   3.101
  918SOL     OW 3875   0.039   2.939   2.162
  918SOL    HW1 3876   0.138   2.928   2.153
  918SOL    HW2 3877  -0.001   2.853   2.194
  919SOL     OW 3878   0.875   3.508   2.199
  919SOL    HW1 3879   0.798   3.473   2.145
  919SOL    HW2 3880   0.843   3.579   2.261
  920SOL     OW 3881   0.230   2.490   3.837
  920SOL    HW1 3882   0.137   2.488   3.874
  920SOL    HW2 3883   0.231   2.451   3.745
  921SOL     OW 3884   0.225   2.137   4.720
  921SOL    HW1 3885   0.260   2.120   4.812
  921SOL    HW2 3886   0.137   2.092   4.708
  922SOL     OW 3887   0.019   2.230   4.371
  922SOL    HW1 3888  -0.063   2.273   4.410
  922SOL    HW2 3889  -0.009   2.157   4.308
  923SOL     OW 3890   0.569   3.137   4.889
  923SOL    HW1 3891   0.476   3.130   4.852
  923SOL    HW2 3892   0.580   3.226   4.933
  924SOL     OW 3893   0.335   3.297   4.785
  924SOL    HW1 3894   0.257   3.266   4.732
  924SOL    HW2 3895   0.393   3.355   4.728
  925SOL     OW 3896   0.231   3.575   4.207
  925SOL    HW1 3897   0.265   3.652   4.261
  925SOL    HW2 3898   0.275   3.575   4.117
  926SOL     OW 3899   0.230   3.296   4.262
  926SOL    HW1 3900   0.204   3.392   4.262
  926SOL    HW2 3901   0.159   3.242   4.307
  927SOL     OW 3902   0.240   2.953   4.610
  927SOL    HW1 3903   0.254   2.869   4.662
  927SOL    HW2 3904   0.185   3.017   4.665
  928SOL     OW 3905   0.620   3.648   5.163
  928SOL    HW1 3906   0.528   3.631   5.198
  928SOL    HW2 3907   0.648   3.740   5.189
  929SOL     OW 3908   0.606   2.826   3.847
  929SOL    HW1 3909   0.613   2.910   3.793
  929SOL    HW2 3910   0.652   2.839   3.935
  930SOL     OW 3911   1.842   3.629   4.083
  930SOL    HW1 3912   1.896   3.600   4.163
  930SOL    HW2 3913   1.872   3.719   4.054
  931SOL     OW 3914   0.027   3.458   3.841
  931SOL    HW1 3915   0.008   3.362   3.862
  931SOL    HW2 3916  -0.006   3.516   3.916
  932SOL     OW 3917   1.641   2.970   4.156
  932SOL    HW1 3918   1.727   2.972   4.104
  932SOL    HW2 3919   1.655   3.017   4.244
  933SOL     OW 3920   0.613   3.227   4.450
  933SOL    HW1 3921   0.564   3.140   4.459
  933SOL    HW2 3922   0.590   3.270   4.363
  934SOL     OW 3923   0.809   1.866   4.226
  934SOL    HW1 3924   0.849   1.957   4.217
  934SOL    HW2 3925   0.709   1.874   4.232
  935SOL     OW 3926   0.197   2.838   4.988
  935SOL    HW1 3927   0.286   2.793   4.974
  935SOL    HW2 3928   0.124   2.773   4.969
  936SOL     OW 3929   1.525   2.861   3.914
  936SOL    HW1 3930   1.462   2.785   3.927
  936SOL    HW2 3931   1.573   2.879   4.000
  937SOL     OW 3932   1.466   3.279   4.677
  937SOL    HW1 3933   1.407   3.285   4.757
  937SOL    HW2 3934   1.451   3.191   4.631
  938SOL     OW 3935   1.667   3.576   4.296
  938SOL    HW1 3936   1.626   3.553   4.208
  938SOL    HW2 3937   1.649   3.502   4.361
  939SOL     OW 3938   1.281   2.207   4.668
  939SOL    HW1 3939   1.195   2.157   4.655
  939SOL    HW2 3940   1.343   2.153   4.724
  940SOL     OW 3941   1.576   3.524   4.031
  940SOL    HW1 3942   1.665   3.570   4.034
  940SOL    HW2 3943   1.555   3.500   3.936
  941SOL     OW 3944   0.991   2.272   4.966
  941SOL    HW1 3945   0.914   2.306   5.020
  941SOL    HW2 3946   0.957   2.221   4.887
  942SOL     OW 3947   0.076   2.673   4.513
  942SOL    HW1 3948   0.175   2.661   4.522
  942SOL    HW2 3949   0.052   2.768   4.534
  943SOL     OW 3950   0.130   3.683   5.295
  943SOL    HW1 3951   0.120   3.668   5.394
  943SOL    HW2 3952   0.044   3.719   5.259
  944SOL     OW 3953   0.865   2.210   3.919
  944SOL    HW1 3954   0.924   2.273   3.870
  944SOL    HW2 3955   0.884   2.116   3.890
  945SOL     OW 3956   0.550   2.058   4.609
  945SOL    HW1 3957   0.545   2.053   4.709
  945SOL    HW2 3958   0.552   2.154   4.580
  946SOL     OW 3959   0.351   3.663   4.577
  946SOL    HW1 3960   0.401   3.577   4.583
  946SOL    HW2 3961   0.416   3.740   4.574
  947SOL     OW 3962   1.795   2.928   4.597
  947SOL    HW1 3963   1.733   2.913   4.521
  947SOL    HW2 3964   1.743   2.939   4.682
  948SOL     OW 3965   0.321   2.805   3.966
  948SOL    HW1 3966   0.403   2.844   3.924
  948SOL    HW2 3967   0.294   2.723   3.917
  949SOL     OW 3968   1.111   3.638   3.961
  949SOL    HW1 3969   1.051   3.576   4.011
  949SOL    HW2 3970   1.142   3.594   3.876
  950SOL     OW 3971   1.632   3.239   3.805
  950SOL    HW1 3972   1.600   3.333   3.795
  950SOL    HW2 3973   1.556   3.176   3.793
  951SOL     OW 3974   0.464   3.605   4.047
  951SOL    HW1 3975   0.497   3.644   4.133
  951SOL    HW2 3976   0.540   3.598   3.982
  952SOL     OW 3977   1.400   1.969   4.150
  952SOL    HW1 3978   1.376   1.932   4.060
  952SOL    HW2 3979   1.499   1.985   4.154
  953SOL     OW 3980   0.249   3.647   4.965
  953SOL    HW1 3981   0.306   3.582   5.015
  953SOL    HW2 3982   0.233   3.614   4.872
  954SOL     OW 3983   0.940   3.560   4.628
  954SOL    HW1 3984   1.020   3.503   4.649
  954SOL    HW2 3985   0.891   3.520   4.551
  955SOL     OW 3986   0.614   1.984   3.841
  955SOL    HW1 3987   0.712   1.962   3.848
  955SOL    HW2 3988   0.583   1.967   3.748
  956SOL     OW 3989   0.803   3.264   4.648
  956SOL    HW1 3990   0.893   3.278   4.606
  956SOL    HW2 3991   0.732   3.266   4.577
  957SOL     OW 3992   0.539   1.926   4.236
  957SOL    HW1 3993   0.458   1.927   4.294
  957SOL    HW2 3994   0.542   2.009   4.181
  958SOL     OW 3995   1.434   3.050   3.765
  958SOL    HW1 3996   1.466   2.974   3.822
  958SOL    HW2 3997   1.342   3.077   3.795
  959SOL     OW 3998   0.297   1.897   3.895
  959SOL    HW1 3999   0.346   1.981   3.874
  959SOL    HW2 4000   0.359   1.832   3.940
  960SOL     OW 4001   1.227   3.432   4.517
  960SOL    HW1 4002   1.248   3.506   4.452
  960SOL    HW2 4003   1.295   3.432   4.590
  961SOL     OW 4004   0.459   3.014   4.465
  961SOL    HW1 4005   0.388   2.987   4.530
  961SOL    HW2 4006   0.433   2.986   4.372
  962SOL     OW 4007   1.271   3.659   4.315
  962SOL    HW1 4008   1.315   3.723   4.251
  962SOL    HW2 4009   1.221   3.711   4.385
  963SOL     OW 4010   1.032   2.411   3.740
  963SOL    HW1 4011   0.991   2.493   3.701
  963SOL    HW2 4012   1.096   2.437   3.813
  964SOL     OW 4013   0.561   2.084   4.871
  964SOL    HW1 4014   0.599   2.000   4.908
  964SOL    HW2 4015   0.473   2.103   4.915
  965SOL     OW 4016   1.017   1.901   4.477
  965SOL    HW1 4017   0.945   1.906   4.408
  965SOL    HW2 4018   0.993   1.832   4.546
  966SOL     OW 4019   1.429   3.035   4.591
  966SOL    HW1 4020   1.374   2.951   4.584
  966SOL    HW2 4021   1.455   3.064   4.499
  967SOL     OW 4022   1.857   2.695   4.101
  967SOL    HW1 4023   1.899   2.631   4.165
  967SOL    HW2 4024   1.819   2.644   4.023
  968SOL     OW 4025   0.488   3.247   3.898
  968SOL    HW1 4026   0.401   3.232   3.945
  968SOL    HW2 4027   0.471   3.273   3.803
  969SOL     OW 4028   1.664   3.142   4.381
  969SOL    HW1 4029   1.763   3.150   4.395
  969SOL    HW2 4030   1.619   3.226   4.412
  970SOL     OW 4031   0.527   2.118   4.052
  970SOL    HW1 4032   0.554   2.059   3.977
  970SOL    HW2 4033   0.527   2.213   4.021
  971SOL     OW 4034   1.638   2.961   4.803
  971SOL    HW1 4035   1.643   3.042   4.862
  971SOL    HW2 4036   1.552   2.963   4.752
  972SOL     OW 4037   0.705   2.912   4.092
  972SOL    HW1 4038   0.691   2.919   4.191
  972SOL    HW2 4039   0.789   2.861   4.074
  973SOL     OW 4040   1.274   2.248   4.986
  973SOL    HW1 4041   1.295   2.322   5.050
  973SOL    HW2 4042   1.185   2.265   4.943
  974SOL     OW 4043   0.367   2.962   4.225
  974SOL    HW1 4044   0.360   3.045   4.169
  974SOL    HW2 4045   0.371   2.882   4.165
  975SOL     OW 4046   1.272   3.307   4.866
  975SOL    HW1 4047   1.319   3.320   4.953
  975SOL    HW2 4048   1.206   3.233   4.875
  976SOL     OW 4049   0.354   3.372   5.053
  976SOL    HW1 4050   0.333   3.328   4.966
  976SOL    HW2 4051   0.451   3.398   5.056
  977SOL     OW 4052   1.360   2.724   4.769
  977SOL    HW1 4053   1.285   2.724   4.703
  977SOL    HW2 4054   1.397   2.632   4.778
  978SOL     OW 4055   0.307   2.075   4.955
  978SOL    HW1 4056   0.284   2.112   5.045
  978SOL    HW2 4057   0.277   1.980   4.949
  979SOL     OW 4058   0.037   3.172   5.006
  979SOL    HW1 4059   0.090   3.123   5.074
  979SOL    HW2 4060   0.059   3.270   5.011
  980SOL     OW 4061   0.307   1.925   4.342
  980SOL    HW1 4062   0.296   2.019   4.375
  980SOL    HW2 4063   0.302   1.862   4.419
  981SOL     OW 4064   1.303   2.700   3.766
  981SOL    HW1 4065   1.337   2.607   3.781
  981SOL    HW2 4066   1.321   2.727   3.671
  982SOL     OW 4067   0.319   2.672   4.673
  982SOL    HW1 4068   0.412   2.708   4.678
  982SOL    HW2 4069   0.313   2.587   4.725
  983SOL     OW 4070   0.339   2.371   4.730
  983SOL    HW1 4071   0.287   2.288   4.713
  983SOL    HW2 4072   0.416   2.376   4.666
  984SOL     OW 4073   1.160   2.069   5.201
  984SOL    HW1 4074   1.160   2.133   5.278
  984SOL    HW2 4075   1.188   2.117   5.118
  985SOL     OW 4076   0.008   3.188   3.924
  985SOL    HW1 4077  -0.085   3.209   3.893
  985SOL    HW2 4078   0.018   3.089   3.937
  986SOL     OW 4079   0.088   3.663   4.651
  986SOL    HW1 4080   0.046   3.577   4.624
  986SOL    HW2 4081   0.182   3.666   4.617
  987SOL     OW 4082   0.504   3.430   4.634
  987SOL    HW1 4083   0.570   3.504   4.643
  987SOL    HW2 4084   0.548   3.351   4.592
  988SOL     OW 4085   0.040   2.406   4.838
  988SOL    HW1 4086   0.125   2.373   4.797
  988SOL    HW2 4087   0.053   2.421   4.936
  989SOL     OW 4088   0.815   2.434   4.049
  989SOL    HW1 4089   0.822   2.345   4.003
  989SOL    HW2 4090   0.721   2.468   4.041
  990SOL     OW 4091   1.657   2.466   4.930
  990SOL    HW1 4092   1.619   2.397   4.992
  990SOL    HW2 4093   1.739   2.430   4.886
  991SOL     OW 4094   0.671   2.326   4.993
  991SOL    HW1 4095   0.637   2.237   4.963
  991SOL    HW2 4096   0.697   2.380   4.913
  992SOL     OW 4097   0.473   2.362   3.915
  992SOL    HW1 4098   0.534   2.442   3.919
  992SOL    HW2 4099   0.378   2.393   3.922
  993SOL     OW 4100   1.759   3.609   4.878
  993SOL    HW1 4101   1.820   3.639   4.805
  993SOL    HW2 4102   1.721   3.520   4.856
  994SOL     OW 4103   1.252   3.593   4.852
  994SOL    HW1 4104   1.336   3.598   4.798
  994SOL    HW2 4105   1.229   3.497   4.870
  995SOL     OW 4106   0.083   3.120   4.746
  995SOL    HW1 4107   0.078   3.119   4.846
  995SOL    HW2 4108   0.000   3.079   4.708
  996SOL     OW 4109   1.280   2.789   4.396
  996SOL    HW1 4110   1.340   2.708   4.398
  996SOL    HW2 4111   1.320   2.858   4.336
  997SOL     OW 4112   0.672   3.478   3.878
  997SOL    HW1 4113   0.681   3.488   3.779
  997SOL    HW2 4114   0.632   3.389   3.899
  998SOL     OW 4115   1.650   3.582   5.118
  998SOL    HW1 4116   1.703   3.592   5.034
  998SOL    HW2 4117   1.623   3.672   5.152
  999SOL     OW 4118   0.263   2.188   4.444
  999SOL    HW1 4119   0.184   2.239   4.410
  999SOL    HW2 4120   0.254   2.173   4.542
 1000SOL     OW 4121   1.504   3.469   3.768
 1000SOL    HW1 4122   1.412   3.506   3.775
 1000SOL    HW2 4123   1.542   3.489   3.678
 1001SOL     OW 4124   1.014   2.098   4.695
 1001SOL    HW1 4125   1.006   2.062   4.602
 1001SOL    HW2 4126   1.012   2.022   4.760
 1002SOL     OW 4127   0.590   3.349   4.215
 1002SOL    HW1 4128   0.632   3.291   4.145
 1002SOL    HW2 4129   0.546   3.428   4.171
 1003SOL     OW 4130   1.709   2.247   5.105
 1003SOL    HW1 4131   1.782   2.316   5.109
 1003SOL    HW2 4132   1.737   2.172   5.046
 1004SOL     OW 4133   0.255   3.210   4.014
 1004SOL    HW1 4134   0.159   3.211   3.987
 1004SOL    HW2 4135   0.267   3.263   4.098
 1005SOL     OW 4136   0.075   2.207   3.757
 1005SOL    HW1 4137  -0.017   2.179   3.728
 1005SOL    HW2 4138   0.106   2.284   3.701
 1006SOL     OW 4139   0.072   2.028   4.042
 1006SOL    HW1 4140   0.055   2.111   3.988
 1006SOL    HW2 4141   0.162   1.991   4.020
 1007SOL     OW 4142   1.493   3.629   4.683
 1007SOL    HW1 4143   1.526   3.693   4.614
 1007SOL    HW2 4144   1.559   3.623   4.758
 1008SOL     OW 4145   1.450   3.082   5.357
 1008SOL    HW1 4146   1.441   3.072   5.456
 1008SOL    HW2 4147   1.546   3.075   5.331
 1009SOL     OW 4148   1.674   2.745   4.978
 1009SOL    HW1 4149   1.647   2.656   4.941
 1009SOL    HW2 4150   1.675   2.813   4.905
 1010SOL     OW 4151   1.225   2.187   4.173
 1010SOL    HW1 4152   1.290   2.113   4.162
 1010SOL    HW2 4153   1.245   2.237   4.257
 1011SOL     OW 4154   0.859   3.236   3.740
 1011SOL    HW1 4155   0.813   3.251   3.828
 1011SOL    HW2 4156   0.903   3.321   3.710
 1012SOL     OW 4157   1.861   3.431   4.575
 1012SOL    HW1 4158   1.790   3.419   4.505
 1012SOL    HW2 4159   1.862   3.352   4.635
 1013SOL     OW 4160   0.079   3.102   4.377
 1013SOL    HW1 4161   0.078   3.055   4.465
 1013SOL    HW2 4162   0.161   3.074   4.326
 1014SOL     OW 4163   1.824   2.054   4.951
 1014SOL    HW1 4164   1.820   1.964   4.995
 1014SOL    HW2 4165   1.827   2.043   4.852
 1015SOL     OW 4166   0.428   2.286   4.244
 1015SOL    HW1 4167   0.458   2.214   4.182
 1015SOL    HW2 4168   0.389   2.246   4.327
 1016SOL     OW 4169   1.705   3.349   4.828
 1016SOL    HW1 4170   1.612   3.324   4.801
 1016SOL    HW2 4171   1.731   3.299   4.910
 1017SOL     OW 4172   1.001   1.896   4.878
 1017SOL    HW1 4173   0.938   1.824   4.847
 1017SOL    HW2 4174   1.094   1.860   4.878
 1018SOL     OW 4175   0.770   3.192   4.025
 1018SOL    HW1 4176   0.724   3.105   4.042
 1018SOL    HW2 4177   0.861   3.189   4.066
 1019SOL     OW 4178   1.352   1.914   3.892
 1019SOL    HW1 4179   1.387   1.873   3.808
 1019SOL    HW2 4180   1.262   1.876   3.912
 1020SOL     OW 4181   1.300   2.315   4.415
 1020SOL    HW1 4182   1.241   2.395   4.419
 1020SOL    HW2 4183   1.315   2.280   4.508
 1021SOL     OW 4184   0.039   2.939   4.024
 1021SOL    HW1 4185   0.138   2.928   4.015
 1021SOL    HW2 4186  -0.001   2.853   4.056
 1022SOL     OW 4187   0.875   3.508   4.061
 1022SOL    HW1 4188   0.798   3.473   4.007
 1022SOL    HW2 4189   0.843   3.579   4.123
 1023SOL     OW 4190   0.230   4.352   0.113
 1023SOL    HW1 4191   0.137   4.350   0.150
 1023SOL    HW2 4192   0.231   4.313   0.021
 1024SOL     OW 4193   0.225   3.999   0.996
 1024SOL    HW1 4194   0.260   3.982   1.088
 1024SOL    HW2 4195   0.137   3.954   0.984
 1025SOL     OW 4196   0.019   4.092   0.647
 1025SOL    HW1 4197  -0.063   4.135   0.686
 1025SOL    HW2 4198  -0.009   4.019   0.584
 1026SOL     OW 4199   0.569   4.999   1.165
 1026SOL    HW1 4200   0.476   4.992   1.128
 1026SOL    HW2 4201   0.580   5.088   1.209
 1027SOL     OW 4202   1.555   5.235   0.703
 1027SOL    HW1 4203   1.498   5.219   0.784
 1027SOL    HW2 4204   1.496   5.245   0.623
 1028SOL     OW 4205   1.135   4.427   0.717
 1028SOL    HW1 4206   1.192   4.505   0.692
 1028SOL    HW2 4207   1.075   4.453   0.793
 1029SOL     OW 4208   1.755   4.331   0.231
 1029SOL    HW1 4209   1.743   4.318   0.132
 1029SOL    HW2 4210   1.725   4.250   0.280
 1030SOL     OW 4211   0.768   4.868   1.023
 1030SOL    HW1 4212   0.690   4.885   1.083
 1030SOL    HW2 4213   0.802   4.955   0.987
 1031SOL     OW 4214   0.850   4.522   1.823
 1031SOL    HW1 4215   0.846   4.598   1.888
 1031SOL    HW2 4216   0.872   4.558   1.732
 1032SOL     OW 4217   0.685   4.736   0.665
 1032SOL    HW1 4218   0.754   4.720   0.735
 1032SOL    HW2 4219   0.612   4.793   0.703
 1033SOL     OW 4220   0.686   4.885   1.803
 1033SOL    HW1 4221   0.746   4.964   1.817
 1033SOL    HW2 4222   0.600   4.916   1.762
 1034SOL     OW 4223   0.335   5.159   1.061
 1034SOL    HW1 4224   0.257   5.128   1.008
 1034SOL    HW2 4225   0.393   5.217   1.004
 1035SOL     OW 4226   0.438   4.116   1.499
 1035SOL    HW1 4227   0.520   4.060   1.508
 1035SOL    HW2 4228   0.357   4.058   1.503
 1036SOL     OW 4229   1.603   4.171   0.737
 1036SOL    HW1 4230   1.529   4.217   0.687
 1036SOL    HW2 4231   1.654   4.239   0.790
 1037SOL     OW 4232   0.240   4.815   0.886
 1037SOL    HW1 4233   0.254   4.731   0.938
 1037SOL    HW2 4234   0.185   4.879   0.941
 1038SOL     OW 4235   0.606   4.688   0.123
 1038SOL    HW1 4236   0.613   4.772   0.069
 1038SOL    HW2 4237   0.652   4.701   0.211
 1039SOL     OW 4238   1.594   3.838   1.480
 1039SOL    HW1 4239   1.576   3.905   1.408
 1039SOL    HW2 4240   1.591   3.884   1.569
 1040SOL     OW 4241   0.122   4.367   0.563
 1040SOL    HW1 4242   0.077   4.279   0.580
 1040SOL    HW2 4243   0.121   4.421   0.647
 1041SOL     OW 4244   1.689   4.646   0.612
 1041SOL    HW1 4245   1.784   4.617   0.620
 1041SOL    HW2 4246   1.681   4.711   0.537
 1042SOL     OW 4247   1.641   4.832   0.432
 1042SOL    HW1 4248   1.727   4.834   0.380
 1042SOL    HW2 4249   1.655   4.879   0.520
 1043SOL     OW 4250   0.113   4.461   1.597
 1043SOL    HW1 4251   0.201   4.448   1.642
 1043SOL    HW2 4252   0.100   4.558   1.575
 1044SOL     OW 4253   1.293   4.952   1.423
 1044SOL    HW1 4254   1.330   4.879   1.365
 1044SOL    HW2 4255   1.345   4.957   1.508
 1045SOL     OW 4256   0.197   4.700   1.264
 1045SOL    HW1 4257   0.286   4.655   1.250
 1045SOL    HW2 4258   0.124   4.635   1.245
 1046SOL     OW 4259   1.525   4.723   0.190
 1046SOL    HW1 4260   1.462   4.647   0.203
 1046SOL    HW2 4261   1.573   4.741   0.276
 1047SOL     OW 4262   0.317   3.975   1.801
 1047SOL    HW1 4263   0.388   4.046   1.807
 1047SOL    HW2 4264   0.229   4.014   1.829
 1048SOL     OW 4265   1.466   5.141   0.953
 1048SOL    HW1 4266   1.407   5.147   1.033
 1048SOL    HW2 4267   1.451   5.053   0.907
 1049SOL     OW 4268   0.598   4.453   0.270
 1049SOL    HW1 4269   0.622   4.522   0.202
 1049SOL    HW2 4270   0.520   4.486   0.324
 1050SOL     OW 4271   1.281   4.069   0.944
 1050SOL    HW1 4272   1.195   4.019   0.931
 1050SOL    HW2 4273   1.343   4.015   1.000
 1051SOL     OW 4274   0.807   4.329   1.465
 1051SOL    HW1 4275   0.760   4.326   1.554
 1051SOL    HW2 4276   0.756   4.274   1.399
 1052SOL     OW 4277   1.394   4.193   1.674
 1052SOL    HW1 4278   1.374   4.236   1.762
 1052SOL    HW2 4279   1.472   4.131   1.683
 1053SOL     OW 4280   0.973   4.614   1.572
 1053SOL    HW1 4281   1.019   4.530   1.543
 1053SOL    HW2 4282   0.917   4.648   1.497
 1054SOL     OW 4283   0.991   4.134   1.242
 1054SOL    HW1 4284   0.914   4.168   1.296
 1054SOL    HW2 4285   0.957   4.083   1.163
 1055SOL     OW 4286   0.076   4.535   0.789
 1055SOL    HW1 4287   0.175   4.523   0.798
 1055SOL    HW2 4288   0.052   4.630   0.810
 1056SOL     OW 4289   1.719   4.309   1.831
 1056SOL    HW1 4290   1.693   4.398   1.795
 1056SOL    HW2 4291   1.717   4.241   1.758
 1057SOL     OW 4292   1.362   4.868   0.545
 1057SOL    HW1 4293   1.445   4.839   0.497
 1057SOL    HW2 4294   1.313   4.935   0.489
 1058SOL     OW 4295   0.550   3.920   0.885
 1058SOL    HW1 4296   0.545   3.915   0.985
 1058SOL    HW2 4297   0.552   4.016   0.856
 1059SOL     OW 4298   1.795   4.790   0.873
 1059SOL    HW1 4299   1.733   4.775   0.797
 1059SOL    HW2 4300   1.743   4.801   0.958
 1060SOL     OW 4301   0.321   4.667   0.242
 1060SOL    HW1 4302   0.403   4.706   0.200
 1060SOL    HW2 4303   0.294   4.585   0.193
 1061SOL     OW 4304   1.458   4.459   0.728
 1061SOL    HW1 4305   1.453   4.394   0.803
 1061SOL    HW2 4306   1.538   4.518   0.741
 1062SOL     OW 4307   0.202   4.009   1.498
 1062SOL    HW1 4308   0.122   4.069   1.485
 1062SOL    HW2 4309   0.192   3.960   1.584
 1063SOL     OW 4310   1.400   3.831   0.426
 1063SOL    HW1 4311   1.376   3.794   0.336
 1063SOL    HW2 4312   1.499   3.847   0.430
 1064SOL     OW 4313   0.382   4.424   0.480
 1064SOL    HW1 4314   0.427   4.334   0.477
 1064SOL    HW2 4315   0.288   4.413   0.513
 1065SOL     OW 4316   1.547   3.946   1.729
 1065SOL    HW1 4317   1.542   3.983   1.821
 1065SOL    HW2 4318   1.475   3.877   1.717
 1066SOL     OW 4319   0.781   3.988   1.749
 1066SOL    HW1 4320   0.848   3.927   1.792
 1066SOL    HW2 4321   0.708   4.007   1.814
 1067SOL     OW 4322   1.351   4.314   1.433
 1067SOL    HW1 4323   1.379   4.271   1.518
 1067SOL    HW2 4324   1.376   4.410   1.434
 1068SOL     OW 4325   0.803   5.126   0.924
 1068SOL    HW1 4326   0.893   5.140   0.882
 1068SOL    HW2 4327   0.732   5.128   0.853
 1069SOL     OW 4328   0.922   4.227   0.899
 1069SOL    HW1 4329   0.897   4.218   0.803
 1069SOL    HW2 4330   0.970   4.145   0.930
 1070SOL     OW 4331   0.297   3.759   0.171
 1070SOL    HW1 4332   0.346   3.843   0.150
 1070SOL    HW2 4333   0.359   3.694   0.216
 1071SOL     OW 4334   1.076   4.407   1.464
 1071SOL    HW1 4335   0.996   4.346   1.467
 1071SOL    HW2 4336   1.157   4.354   1.440
 1072SOL     OW 4337   1.227   5.294   0.793
 1072SOL    HW1 4338   1.248   5.368   0.728
 1072SOL    HW2 4339   1.295   5.294   0.866
 1073SOL     OW 4340   0.459   4.876   0.741
 1073SOL    HW1 4341   0.388   4.849   0.806
 1073SOL    HW2 4342   0.433   4.848   0.648
 1074SOL     OW 4343   1.032   4.273   0.016
 1074SOL    HW1 4344   0.991   4.355  -0.023
 1074SOL    HW2 4345   1.096   4.299   0.089
 1075SOL     OW 4346   0.078   4.280   1.386
 1075SOL    HW1 4347   0.170   4.279   1.345
 1075SOL    HW2 4348   0.072   4.354   1.453
 1076SOL     OW 4349   0.561   3.946   1.147
 1076SOL    HW1 4350   0.599   3.862   1.184
 1076SOL    HW2 4351   0.473   3.965   1.191
 1077SOL     OW 4352   1.017   3.763   0.753
 1077SOL    HW1 4353   0.945   3.768   0.684
 1077SOL    HW2 4354   0.993   3.694   0.822
 1078SOL     OW 4355   1.429   4.897   0.867
 1078SOL    HW1 4356   1.374   4.813   0.860
 1078SOL    HW2 4357   1.455   4.926   0.775
 1079SOL     OW 4358   1.466   4.314   0.992
 1079SOL    HW1 4359   1.436   4.219   0.999
 1079SOL    HW2 4360   1.539   4.330   1.058
 1080SOL     OW 4361   1.857   4.557   0.377
 1080SOL    HW1 4362   1.899   4.493   0.441
 1080SOL    HW2 4363   1.819   4.506   0.299
 1081SOL     OW 4364   1.664   5.004   0.657
 1081SOL    HW1 4365   1.763   5.012   0.671
 1081SOL    HW2 4366   1.619   5.088   0.688
 1082SOL     OW 4367   1.390   4.299   0.078
 1082SOL    HW1 4368   1.336   4.278   0.159
 1082SOL    HW2 4369   1.481   4.258   0.087
 1083SOL     OW 4370   0.527   3.980   0.328
 1083SOL    HW1 4371   0.554   3.921   0.253
 1083SOL    HW2 4372   0.527   4.075   0.297
 1084SOL     OW 4373   1.754   4.947   1.588
 1084SOL    HW1 4374   1.845   4.908   1.575
 1084SOL    HW2 4375   1.762   5.043   1.612
 1085SOL     OW 4376   1.638   4.823   1.079
 1085SOL    HW1 4377   1.643   4.904   1.138
 1085SOL    HW2 4378   1.552   4.825   1.028
 1086SOL     OW 4379   0.915   3.813   1.402
 1086SOL    HW1 4380   0.940   3.793   1.307
 1086SOL    HW2 4381   0.987   3.869   1.444
 1087SOL     OW 4382   0.980   4.840   1.719
 1087SOL    HW1 4383   0.881   4.846   1.729
 1087SOL    HW2 4384   1.003   4.760   1.663
 1088SOL     OW 4385   0.705   4.774   0.368
 1088SOL    HW1 4386   0.691   4.781   0.467
 1088SOL    HW2 4387   0.789   4.723   0.350
 1089SOL     OW 4388   0.410   4.537   1.251
 1089SOL    HW1 4389   0.496   4.549   1.301
 1089SOL    HW2 4390   0.368   4.450   1.278
 1090SOL     OW 4391   1.274   4.110   1.262
 1090SOL    HW1 4392   1.295   4.184   1.326
 1090SOL    HW2 4393   1.185   4.127   1.219
 1091SOL     OW 4394   0.367   4.824   0.501
 1091SOL    HW1 4395   0.360   4.907   0.445
 1091SOL    HW2 4396   0.371   4.744   0.441
 1092SOL     OW 4397   0.566   4.261   0.865
 1092SOL    HW1 4398   0.578   4.327   0.791
 1092SOL    HW2 4399   0.612   4.295   0.948
 1093SOL     OW 4400   1.582   4.363   0.472
 1093SOL    HW1 4401   1.551   4.424   0.545
 1093SOL    HW2 4402   1.632   4.415   0.403
 1094SOL     OW 4403   0.402   4.475   1.598
 1094SOL    HW1 4404   0.470   4.530   1.551
 1094SOL    HW2 4405   0.442   4.387   1.625
 1095SOL     OW 4406   1.587   4.503   1.670
 1095SOL    HW1 4407   1.495   4.541   1.665
 1095SOL    HW2 4408   1.647   4.550   1.605
 1096SOL     OW 4409   1.013   3.829   1.770
 1096SOL    HW1 4410   1.019   3.914   1.718
 1096SOL    HW2 4411   1.045   3.753   1.713
 1097SOL     OW 4412   0.504   3.774   1.740
 1097SOL    HW1 4413   0.462   3.717   1.670
 1097SOL    HW2 4414   0.438   3.843   1.772
 1098SOL     OW 4415   0.573   4.594   1.029
 1098SOL    HW1 4416   0.617   4.683   1.020
 1098SOL    HW2 4417   0.510   4.594   1.106
 1099SOL     OW 4418   1.360   4.586   1.045
 1099SOL    HW1 4419   1.285   4.586   0.979
 1099SOL    HW2 4420   1.397   4.494   1.054
 1100SOL     OW 4421   0.307   3.937   1.231
 1100SOL    HW1 4422   0.284   3.974   1.321
 1100SOL    HW2 4423   0.277   3.842   1.225
 1101SOL     OW 4424   0.037   5.034   1.282
 1101SOL    HW1 4425   0.090   4.985   1.350
 1101SOL    HW2 4426   0.059   5.132   1.287
 1102SOL     OW 4427   0.732   4.358   1.064
 1102SOL    HW1 4428   0.791   4.332   0.988
 1102SOL    HW2 4429   0.704   4.454   1.053
 1103SOL     OW 4430   1.728   4.659   1.854
 1103SOL    HW1 4431   1.682   4.652   1.765
 1103SOL    HW2 4432   1.666   4.703   1.920
 1104SOL     OW 4433   0.307   3.787   0.618
 1104SOL    HW1 4434   0.296   3.881   0.651
 1104SOL    HW2 4435   0.302   3.724   0.695
 1105SOL     OW 4436   1.622   4.091   0.374
 1105SOL    HW1 4437   1.624   4.015   0.438
 1105SOL    HW2 4438   1.574   4.168   0.414
 1106SOL     OW 4439   1.023   4.490   0.966
 1106SOL    HW1 4440   1.038   4.511   1.062
 1106SOL    HW2 4441   0.993   4.395   0.957
 1107SOL     OW 4442   1.859   5.242   1.605
 1107SOL    HW1 4443   1.873   5.269   1.510
 1107SOL    HW2 4444   1.942   5.264   1.658
 1108SOL     OW 4445   0.350   4.622   1.804
 1108SOL    HW1 4446   0.426   4.666   1.852
 1108SOL    HW2 4447   0.385   4.575   1.722
 1109SOL     OW 4448   1.540   3.998   0.125
 1109SOL    HW1 4449   1.479   3.923   0.148
 1109SOL    HW2 4450   1.562   4.050   0.208
 1110SOL     OW 4451   1.303   4.562   0.042
 1110SOL    HW1 4452   1.337   4.469   0.057
 1110SOL    HW2 4453   1.321   4.589  -0.053
 1111SOL     OW 4454   0.319   4.534   0.949
 1111SOL    HW1 4455   0.412   4.570   0.954
 1111SOL    HW2 4456   0.313   4.449   1.001
 1112SOL     OW 4457   0.339   4.233   1.006
 1112SOL    HW1 4458   0.287   4.150   0.989
 1112SOL    HW2 4459   0.416   4.238   0.942
 1113SOL     OW 4460   1.138   4.104   1.678
 1113SOL    HW1 4461   1.093   4.167   1.742
 1113SOL    HW2 4462   1.231   4.135   1.661
 1114SOL     OW 4463   1.160   3.931   1.477
 1114SOL    HW1 4464   1.160   3.995   1.554
 1114SOL    HW2 4465   1.188   3.979   1.394
 1115SOL     OW 4466   0.008   5.050   0.200
 1115SOL    HW1 4467  -0.085   5.071   0.169
 1115SOL    HW2 4468   0.018   4.951   0.213
 1116SOL     OW 4469   1.002   4.520   1.238
 1116SOL    HW1 4470   1.043   4.488   1.324
 1116SOL    HW2 4471   0.906   4.493   1.235
 1117SOL     OW 4472   0.040   4.268   1.114
 1117SOL    HW1 4473   0.125   4.235   1.073
 1117SOL    HW2 4474   0.053   4.283   1.212
 1118SOL     OW 4475   0.189   4.244   1.722
 1118SOL    HW1 4476   0.248   4.204   1.652
 1118SOL    HW2 4477   0.131   4.315   1.681
 1119SOL     OW 4478   1.369   4.674   1.660
 1119SOL    HW1 4479   1.408   4.763   1.680
 1119SOL    HW2 4480   1.379   4.654   1.563
 1120SOL     OW 4481   1.657   4.328   1.206
 1120SOL    HW1 4482   1.619   4.259   1.268
 1120SOL    HW2 4483   1.739   4.292   1.162
 1121SOL     OW 4484   0.671   4.188   1.269
 1121SOL    HW1 4485   0.637   4.099   1.239
 1121SOL    HW2 4486   0.697   4.242   1.189
 1122SOL     OW 4487   0.473   4.224   0.191
 1122SOL    HW1 4488   0.534   4.304   0.195
 1122SOL    HW2 4489   0.378   4.255   0.198
 1123SOL     OW 4490   0.159   4.861   1.466
 1123SOL    HW1 4491   0.181   4.800   1.542
 1123SOL    HW2 4492   0.169   4.812   1.380
 1124SOL     OW 4493   1.347   4.783   1.234
 1124SOL    HW1 4494   1.371   4.720   1.160
 1124SOL    HW2 4495   1.257   4.823   1.216
 1125SOL     OW 4496   1.302   4.579   0.309
 1125SOL    HW1 4497   1.216   4.548   0.351
 1125SOL    HW2 4498   1.298   4.565   0.210
 1126SOL     OW 4499   0.083   4.982   1.022
 1126SOL    HW1 4500   0.078   4.981   1.122
 1126SOL    HW2 4501   0.000   4.941   0.984
 1127SOL     OW 4502   1.726   3.859   0.523
 1127SOL    HW1 4503   1.799   3.842   0.456
 1127SOL    HW2 4504   1.695   3.772   0.561
 1128SOL     OW 4505   1.280   4.651   0.672
 1128SOL    HW1 4506   1.340   4.570   0.674
 1128SOL    HW2 4507   1.320   4.720   0.612
 1129SOL     OW 4508   0.830   4.997   1.422
 1129SOL    HW1 4509   0.825   5.030   1.517
 1129SOL    HW2 4510   0.744   5.016   1.376
 1130SOL     OW 4511   1.841   3.899   0.963
 1130SOL    HW1 4512   1.880   3.814   0.927
 1130SOL    HW2 4513   1.743   3.901   0.944
 1131SOL     OW 4514   0.263   4.050   0.720
 1131SOL    HW1 4515   0.184   4.101   0.686
 1131SOL    HW2 4516   0.254   4.035   0.818
 1132SOL     OW 4517   0.822   4.726   1.372
 1132SOL    HW1 4518   0.862   4.725   1.280
 1132SOL    HW2 4519   0.832   4.818   1.412
 1133SOL     OW 4520   0.916   4.634   0.291
 1133SOL    HW1 4521   0.979   4.672   0.223
 1133SOL    HW2 4522   0.956   4.551   0.330
 1134SOL     OW 4523   0.372   5.012   1.490
 1134SOL    HW1 4524   0.359   5.105   1.456
 1134SOL    HW2 4525   0.288   4.960   1.477
 1135SOL     OW 4526   1.614   5.016   1.289
 1135SOL    HW1 4527   1.674   5.019   1.369
 1135SOL    HW2 4528   1.539   5.080   1.302
 1136SOL     OW 4529   1.039   4.822   0.696
 1136SOL    HW1 4530   0.969   4.775   0.750
 1136SOL    HW2 4531   1.098   4.754   0.653
 1137SOL     OW 4532   1.014   3.960   0.971
 1137SOL    HW1 4533   1.006   3.924   0.878
 1137SOL    HW2 4534   1.012   3.884   1.036
 1138SOL     OW 4535   1.709   4.109   1.381
 1138SOL    HW1 4536   1.782   4.178   1.385
 1138SOL    HW2 4537   1.737   4.034   1.322
 1139SOL     OW 4538   0.105   4.737   1.726
 1139SOL    HW1 4539   0.028   4.704   1.780
 1139SOL    HW2 4540   0.190   4.707   1.768
 1140SOL     OW 4541   0.672   3.927   1.489
 1140SOL    HW1 4542   0.762   3.911   1.449
 1140SOL    HW2 4543   0.680   3.932   1.588
 1141SOL     OW 4544   0.075   4.069   0.033
 1141SOL    HW1 4545  -0.017   4.041   0.004
 1141SOL    HW2 4546   0.106   4.146  -0.023
 1142SOL     OW 4547   1.440   4.580   1.398
 1142SOL    HW1 4548   1.383   4.632   1.335
 1142SOL    HW2 4549   1.536   4.592   1.374
 1143SOL     OW 4550   0.072   3.890   0.318
 1143SOL    HW1 4551   0.055   3.973   0.264
 1143SOL    HW2 4552   0.162   3.853   0.296
 1144SOL     OW 4553   0.613   4.566   1.431
 1144SOL    HW1 4554   0.669   4.647   1.414
 1144SOL    HW2 4555   0.672   4.486   1.434
 1145SOL     OW 4556   0.716   4.289   1.708
 1145SOL    HW1 4557   0.735   4.354   1.782
 1145SOL    HW2 4558   0.776   4.209   1.717
 1146SOL     OW 4559   1.450   4.944   1.633
 1146SOL    HW1 4560   1.441   4.934   1.732
 1146SOL    HW2 4561   1.546   4.937   1.607
 1147SOL     OW 4562   1.674   4.607   1.254
 1147SOL    HW1 4563   1.647   4.518   1.217
 1147SOL    HW2 4564   1.675   4.675   1.181
 1148SOL     OW 4565   1.225   4.049   0.449
 1148SOL    HW1 4566   1.290   3.975   0.438
 1148SOL    HW2 4567   1.245   4.099   0.533
 1149SOL     OW 4568   1.777   4.066   1.642
 1149SOL    HW1 4569   1.760   4.097   1.548
 1149SOL    HW2 4570   1.693   4.029   1.680
 1150SOL     OW 4571   1.730   4.658   1.517
 1150SOL    HW1 4572   1.768   4.749   1.532
 1150SOL    HW2 4573   1.722   4.641   1.418
 1151SOL     OW 4574   0.859   4.680   0.861
 1151SOL    HW1 4575   0.913   4.611   0.909
 1151SOL    HW2 4576   0.827   4.749   0.927
 1152SOL     OW 4577   1.083   4.708   0.087
 1152SOL    HW1 4578   1.060   4.761   0.005
 1152SOL    HW2 4579   1.164   4.652   0.068
 1153SOL     OW 4580   0.079   4.964   0.653
 1153SOL    HW1 4581   0.078   4.917   0.741
 1153SOL    HW2 4582   0.161   4.936   0.602
 1154SOL     OW 4583   1.824   3.916   1.227
 1154SOL    HW1 4584   1.820   3.826   1.271
 1154SOL    HW2 4585   1.827   3.905   1.128
 1155SOL     OW 4586   0.317   4.271   1.280
 1155SOL    HW1 4587   0.355   4.212   1.352
 1155SOL    HW2 4588   0.357   4.245   1.192
 1156SOL     OW 4589   1.424   3.938   1.112
 1156SOL    HW1 4590   1.476   3.873   1.167
 1156SOL    HW2 4591   1.375   4.001   1.173
 1157SOL     OW 4592   1.001   3.758   1.154
 1157SOL    HW1 4593   0.938   3.686   1.123
 1157SOL    HW2 4594   1.094   3.722   1.154
 1158SOL     OW 4595   0.770   5.054   0.301
 1158SOL    HW1 4596   0.724   4.967   0.318
 1158SOL    HW2 4597   0.861   5.051   0.342
 1159SOL     OW 4598   1.352   3.776   0.168
 1159SOL    HW1 4599   1.387   3.735   0.084
 1159SOL    HW2 4600   1.262   3.738   0.188
 1160SOL     OW 4601   1.300   4.177   0.691
 1160SOL    HW1 4602   1.241   4.257   0.695
 1160SOL    HW2 4603   1.315   4.142   0.784
 1161SOL     OW 4604   1.593   3.945   0.882
 1161SOL    HW1 4605   1.509   3.944   0.936
 1161SOL    HW2 4606   1.595   4.028   0.826
 1162SOL     OW 4607   0.039   4.801   0.300
 1162SOL    HW1 4608   0.138   4.790   0.291
 1162SOL    HW2 4609  -0.001   4.715   0.332
 1163SOL     OW 4610   0.230   4.352   1.975
 1163SOL    HW1 4611   0.137   4.350   2.012
 1163SOL    HW2 4612   0.231   4.313   1.883
 1164SOL     OW 4613   0.225   3.999   2.858
 1164SOL    HW1 4614   0.260   3.982   2.950
 1164SOL    HW2 4615   0.137   3.954   2.846
 1165SOL     OW 4616   0.019   4.092   2.509
 1165SOL    HW1 4617  -0.063   4.135   2.548
 1165SOL    HW2 4618  -0.009   4.019   2.446
 1166SOL     OW 4619   0.569   4.999   3.027
 1166SOL    HW1 4620   0.476   4.992   2.990
 1166SOL    HW2 4621   0.580   5.088   3.071
 1167SOL     OW 4622   1.555   5.235   2.565
 1167SOL    HW1 4623   1.498   5.219   2.646
 1167SOL    HW2 4624   1.496   5.245   2.485
 1168SOL     OW 4625   1.135   4.427   2.579
 1168SOL    HW1 4626   1.192   4.505   2.554
 1168SOL    HW2 4627   1.075   4.453   2.655
 1169SOL     OW 4628   1.755   4.331   2.093
 1169SOL    HW1 4629   1.743   4.318   1.994
 1169SOL    HW2 4630   1.725   4.250   2.142
 1170SOL     OW 4631   0.768   4.868   2.885
 1170SOL    HW1 4632   0.690   4.885   2.945
 1170SOL    HW2 4633   0.802   4.955   2.849
 1171SOL     OW 4634   0.850   4.522   3.685
 1171SOL    HW1 4635   0.846   4.598   3.750
 1171SOL    HW2 4636   0.872   4.558   3.594
 1172SOL     OW 4637   0.685   4.736   2.527
 1172SOL    HW1 4638   0.754   4.720   2.597
 1172SOL    HW2 4639   0.612   4.793   2.565
 1173SOL     OW 4640   0.686   4.885   3.665
 1173SOL    HW1 4641   0.746   4.964   3.679
 1173SOL    HW2 4642   0.600   4.916   3.624
 1174SOL     OW 4643   0.335   5.159   2.923
 1174SOL    HW1 4644   0.257   5.128   2.870
 1174SOL    HW2 4645   0.393   5.217   2.866
 1175SOL     OW 4646   0.438   4.116   3.361
 1175SOL    HW1 4647   0.520   4.060   3.370
 1175SOL    HW2 4648   0.357   4.058   3.365
 1176SOL     OW 4649   1.603   4.171   2.599
 1176SOL    HW1 4650   1.529   4.217   2.549
 1176SOL    HW2 4651   1.654   4.239   2.652
 1177SOL     OW 4652   0.240   4.815   2.748
 1177SOL    HW1 4653   0.254   4.731   2.800
 1177SOL    HW2 4654   0.185   4.879   2.803
 1178SOL     OW 4655   0.606   4.688   1.985
 1178SOL    HW1 4656   0.613   4.772   1.931
 1178SOL    HW2 4657   0.652   4.701   2.073
 1179SOL     OW 4658   1.594   3.838   3.342
 1179SOL    HW1 4659   1.576   3.905   3.270
 1179SOL    HW2 4660   1.591   3.884   3.431
 1180SOL     OW 4661   0.122   4.367   2.425
 1180SOL    HW1 4662   0.077   4.279   2.442
 1180SOL    HW2 4663   0.121   4.421   2.509
 1181SOL     OW 4664   1.689   4.646   2.474
 1181SOL    HW1 4665   1.784   4.617   2.482
 1181SOL    HW2 4666   1.681   4.711   2.399
 1182SOL     OW 4667   1.641   4.832   2.294
 1182SOL    HW1 4668   1.727   4.834   2.242
 1182SOL    HW2 4669   1.655   4.879   2.382
 1183SOL     OW 4670   0.113   4.461   3.459
 1183SOL    HW1 4671   0.201   4.448   3.504
 1183SOL    HW2 4672   0.100   4.558   3.437
 1184SOL     OW 4673   1.293   4.952   3.285
 1184SOL    HW1 4674   1.330   4.879   3.227
 1184SOL    HW2 4675   1.345   4.957   3.370
 1185SOL     OW 4676   0.809   3.728   2.364
 1185SOL    HW1 4677   0.849   3.819   2.355
 1185SOL    HW2 4678   0.709   3.736   2.370
 1186SOL     OW 4679   0.197   4.700   3.126
 1186SOL    HW1 4680   0.286   4.655   3.112
 1186SOL    HW2 4681   0.124   4.635   3.107
 1187SOL     OW 4682   1.525   4.723   2.052
 1187SOL    HW1 4683   1.462   4.647   2.065
 1187SOL    HW2 4684   1.573   4.741   2.138
 1188SOL     OW 4685   0.317   3.975   3.663
 1188SOL    HW1 4686   0.388   4.046   3.669
 1188SOL    HW2 4687   0.229   4.014   3.691
 1189SOL     OW 4688   1.466   5.141   2.815
 1189SOL    HW1 4689   1.407   5.147   2.895
 1189SOL    HW2 4690   1.451   5.053   2.769
 1190SOL     OW 4691   0.598   4.453   2.132
 1190SOL    HW1 4692   0.622   4.522   2.064
 1190SOL    HW2 4693   0.520   4.486   2.186
 1191SOL     OW 4694   1.281   4.069   2.806
 1191SOL    HW1 4695   1.195   4.019   2.793
 1191SOL    HW2 4696   1.343   4.015   2.862
 1192SOL     OW 4697   0.807   4.329   3.327
 1192SOL    HW1 4698   0.760   4.326   3.416
 1192SOL    HW2 4699   0.756   4.274   3.261
 1193SOL     OW 4700   1.394   4.193   3.536
 1193SOL    HW1 4701   1.374   4.236   3.624
 1193SOL    HW2 4702   1.472   4.131   3.545
 1194SOL     OW 4703   0.973   4.614   3.434
 1194SOL    HW1 4704   1.019   4.530   3.405
 1194SOL    HW2 4705   0.917   4.648   3.359
 1195SOL     OW 4706   0.991   4.134   3.104
 1195SOL    HW1 4707   0.914   4.168   3.158
 1195SOL    HW2 4708   0.957   4.083   3.025
 1196SOL     OW 4709   1.041   4.425   2.291
 1196SOL    HW1 4710   1.067   4.421   2.387
 1196SOL    HW2 4711   0.956   4.374   2.277
 1197SOL     OW 4712   0.076   4.535   2.651
 1197SOL    HW1 4713   0.175   4.523   2.660
 1197SOL    HW2 4714   0.052   4.630   2.672
 1198SOL     OW 4715   0.865   4.072   2.057
 1198SOL    HW1 4716   0.924   4.135   2.008
 1198SOL    HW2 4717   0.884   3.978   2.028
 1199SOL     OW 4718   1.719   4.309   3.693
 1199SOL    HW1 4719   1.693   4.398   3.657
 1199SOL    HW2 4720   1.717   4.241   3.620
 1200SOL     OW 4721   1.362   4.868   2.407
 1200SOL    HW1 4722   1.445   4.839   2.359
 1200SOL    HW2 4723   1.313   4.935   2.351
 1201SOL     OW 4724   0.550   3.920   2.747
 1201SOL    HW1 4725   0.545   3.915   2.847
 1201SOL    HW2 4726   0.552   4.016   2.718
 1202SOL     OW 4727   1.795   4.790   2.735
 1202SOL    HW1 4728   1.733   4.775   2.659
 1202SOL    HW2 4729   1.743   4.801   2.820
 1203SOL     OW 4730   0.321   4.667   2.104
 1203SOL    HW1 4731   0.403   4.706   2.062
 1203SOL    HW2 4732   0.294   4.585   2.055
 1204SOL     OW 4733   1.458   4.459   2.590
 1204SOL    HW1 4734   1.453   4.394   2.665
 1204SOL    HW2 4735   1.538   4.518   2.603
 1205SOL     OW 4736   0.202   4.009   3.360
 1205SOL    HW1 4737   0.122   4.069   3.347
 1205SOL    HW2 4738   0.192   3.960   3.446
 1206SOL     OW 4739   1.632   5.101   1.943
 1206SOL    HW1 4740   1.600   5.195   1.933
 1206SOL    HW2 4741   1.556   5.038   1.931
 1207SOL     OW 4742   1.400   3.831   2.288
 1207SOL    HW1 4743   1.376   3.794   2.198
 1207SOL    HW2 4744   1.499   3.847   2.292
 1208SOL     OW 4745   0.382   4.424   2.342
 1208SOL    HW1 4746   0.427   4.334   2.339
 1208SOL    HW2 4747   0.288   4.413   2.375
 1209SOL     OW 4748   1.547   3.946   3.591
 1209SOL    HW1 4749   1.542   3.983   3.683
 1209SOL    HW2 4750   1.475   3.877   3.579
 1210SOL     OW 4751   0.614   3.846   1.979
 1210SOL    HW1 4752   0.712   3.824   1.986
 1210SOL    HW2 4753   0.583   3.829   1.886
 1211SOL     OW 4754   0.781   3.988   3.611
 1211SOL    HW1 4755   0.848   3.927   3.654
 1211SOL    HW2 4756   0.708   4.007   3.676
 1212SOL     OW 4757   1.351   4.314   3.295
 1212SOL    HW1 4758   1.379   4.271   3.380
 1212SOL    HW2 4759   1.376   4.410   3.296
 1213SOL     OW 4760   0.803   5.126   2.786
 1213SOL    HW1 4761   0.893   5.140   2.744
 1213SOL    HW2 4762   0.732   5.128   2.715
 1214SOL     OW 4763   0.922   4.227   2.761
 1214SOL    HW1 4764   0.897   4.218   2.665
 1214SOL    HW2 4765   0.970   4.145   2.792
 1215SOL     OW 4766   0.539   3.788   2.374
 1215SOL    HW1 4767   0.458   3.789   2.432
 1215SOL    HW2 4768   0.542   3.871   2.319
 1216SOL     OW 4769   1.434   4.912   1.903
 1216SOL    HW1 4770   1.466   4.836   1.960
 1216SOL    HW2 4771   1.342   4.939   1.933
 1217SOL     OW 4772   0.297   3.759   2.033
 1217SOL    HW1 4773   0.346   3.843   2.012
 1217SOL    HW2 4774   0.359   3.694   2.078
 1218SOL     OW 4775   0.935   3.960   2.342
 1218SOL    HW1 4776   0.887   4.001   2.264
 1218SOL    HW2 4777   1.034   3.958   2.323
 1219SOL     OW 4778   1.076   4.407   3.326
 1219SOL    HW1 4779   0.996   4.346   3.329
 1219SOL    HW2 4780   1.157   4.354   3.302
 1220SOL     OW 4781   1.227   5.294   2.655
 1220SOL    HW1 4782   1.248   5.368   2.590
 1220SOL    HW2 4783   1.295   5.294   2.728
 1221SOL     OW 4784   0.459   4.876   2.603
 1221SOL    HW1 4785   0.388   4.849   2.668
 1221SOL    HW2 4786   0.433   4.848   2.510
 1222SOL     OW 4787   1.032   4.273   1.878
 1222SOL    HW1 4788   0.991   4.355   1.839
 1222SOL    HW2 4789   1.096   4.299   1.951
 1223SOL     OW 4790   0.078   4.280   3.248
 1223SOL    HW1 4791   0.170   4.279   3.207
 1223SOL    HW2 4792   0.072   4.354   3.315
 1224SOL     OW 4793   0.561   3.946   3.009
 1224SOL    HW1 4794   0.599   3.862   3.046
 1224SOL    HW2 4795   0.473   3.965   3.053
 1225SOL     OW 4796   0.866   4.178   2.504
 1225SOL    HW1 4797   0.834   4.250   2.442
 1225SOL    HW2 4798   0.890   4.097   2.451
 1226SOL     OW 4799   1.017   3.763   2.615
 1226SOL    HW1 4800   0.945   3.768   2.546
 1226SOL    HW2 4801   0.993   3.694   2.684
 1227SOL     OW 4802   1.429   4.897   2.729
 1227SOL    HW1 4803   1.374   4.813   2.722
 1227SOL    HW2 4804   1.455   4.926   2.637
 1228SOL     OW 4805   1.466   4.314   2.854
 1228SOL    HW1 4806   1.436   4.219   2.861
 1228SOL    HW2 4807   1.539   4.330   2.920
 1229SOL     OW 4808   1.857   4.557   2.239
 1229SOL    HW1 4809   1.899   4.493   2.303
 1229SOL    HW2 4810   1.819   4.506   2.161
 1230SOL     OW 4811   1.664   5.004   2.519
 1230SOL    HW1 4812   1.763   5.012   2.533
 1230SOL    HW2 4813   1.619   5.088   2.550
 1231SOL     OW 4814   1.390   4.299   1.940
 1231SOL    HW1 4815   1.336   4.278   2.021
 1231SOL    HW2 4816   1.481   4.258   1.949
 1232SOL     OW 4817   0.527   3.980   2.190
 1232SOL    HW1 4818   0.554   3.921   2.115
 1232SOL    HW2 4819   0.527   4.075   2.159
 1233SOL     OW 4820   1.754   4.947   3.450
 1233SOL    HW1 4821   1.845   4.908   3.437
 1233SOL    HW2 4822   1.762   5.043   3.474
 1234SOL     OW 4823   1.638   4.823   2.941
 1234SOL    HW1 4824   1.643   4.904   3.000
 1234SOL    HW2 4825   1.552   4.825   2.890
 1235SOL     OW 4826   0.915   3.813   3.264
 1235SOL    HW1 4827   0.940   3.793   3.169
 1235SOL    HW2 4828   0.987   3.869   3.306
 1236SOL     OW 4829   0.980   4.840   3.581
 1236SOL    HW1 4830   0.881   4.846   3.591
 1236SOL    HW2 4831   1.003   4.760   3.525
 1237SOL     OW 4832   0.705   4.774   2.230
 1237SOL    HW1 4833   0.691   4.781   2.329
 1237SOL    HW2 4834   0.789   4.723   2.212
 1238SOL     OW 4835   0.410   4.537   3.113
 1238SOL    HW1 4836   0.496   4.549   3.163
 1238SOL    HW2 4837   0.368   4.450   3.140
 1239SOL     OW 4838   1.274   4.110   3.124
 1239SOL    HW1 4839   1.295   4.184   3.188
 1239SOL    HW2 4840   1.185   4.127   3.081
 1240SOL     OW 4841   0.367   4.824   2.363
 1240SOL    HW1 4842   0.360   4.907   2.307
 1240SOL    HW2 4843   0.371   4.744   2.303
 1241SOL     OW 4844   0.566   4.261   2.727
 1241SOL    HW1 4845   0.578   4.327   2.653
 1241SOL    HW2 4846   0.612   4.295   2.810
 1242SOL     OW 4847   1.582   4.363   2.334
 1242SOL    HW1 4848   1.551   4.424   2.407
 1242SOL    HW2 4849   1.632   4.415   2.265
 1243SOL     OW 4850   0.402   4.475   3.460
 1243SOL    HW1 4851   0.470   4.530   3.413
 1243SOL    HW2 4852   0.442   4.387   3.487
 1244SOL     OW 4853   1.587   4.503   3.532
 1244SOL    HW1 4854   1.495   4.541   3.527
 1244SOL    HW2 4855   1.647   4.550   3.467
 1245SOL     OW 4856   1.013   3.829   3.632
 1245SOL    HW1 4857   1.019   3.914   3.580
 1245SOL    HW2 4858   1.045   3.753   3.575
 1246SOL     OW 4859   0.504   3.774   3.602
 1246SOL    HW1 4860   0.462   3.717   3.532
 1246SOL    HW2 4861   0.438   3.843   3.634
 1247SOL     OW 4862   0.573   4.594   2.891
 1247SOL    HW1 4863   0.617   4.683   2.882
 1247SOL    HW2 4864   0.510   4.594   2.968
 1248SOL     OW 4865   1.360   4.586   2.907
 1248SOL    HW1 4866   1.285   4.586   2.841
 1248SOL    HW2 4867   1.397   4.494   2.916
 1249SOL     OW 4868   1.209   4.249   2.137
 1249SOL    HW1 4869   1.222   4.165   2.191
 1249SOL    HW2 4870   1.180   4.323   2.197
 1250SOL     OW 4871   0.307   3.937   3.093
 1250SOL    HW1 4872   0.284   3.974   3.183
 1250SOL    HW2 4873   0.277   3.842   3.087
 1251SOL     OW 4874   0.037   5.034   3.144
 1251SOL    HW1 4875   0.090   4.985   3.212
 1251SOL    HW2 4876   0.059   5.132   3.149
 1252SOL     OW 4877   0.732   4.358   2.926
 1252SOL    HW1 4878   0.791   4.332   2.850
 1252SOL    HW2 4879   0.704   4.454   2.915
 1253SOL     OW 4880   1.728   4.659   3.716
 1253SOL    HW1 4881   1.682   4.652   3.627
 1253SOL    HW2 4882   1.666   4.703   3.782
 1254SOL     OW 4883   0.307   3.787   2.480
 1254SOL    HW1 4884   0.296   3.881   2.513
 1254SOL    HW2 4885   0.302   3.724   2.557
 1255SOL     OW 4886   1.622   4.091   2.236
 1255SOL    HW1 4887   1.624   4.015   2.300
 1255SOL    HW2 4888   1.574   4.168   2.276
 1256SOL     OW 4889   1.023   4.490   2.828
 1256SOL    HW1 4890   1.038   4.511   2.924
 1256SOL    HW2 4891   0.993   4.395   2.819
 1257SOL     OW 4892   1.859   5.242   3.467
 1257SOL    HW1 4893   1.873   5.269   3.372
 1257SOL    HW2 4894   1.942   5.264   3.520
 1258SOL     OW 4895   0.350   4.622   3.666
 1258SOL    HW1 4896   0.426   4.666   3.714
 1258SOL    HW2 4897   0.385   4.575   3.584
 1259SOL     OW 4898   1.540   3.998   1.987
 1259SOL    HW1 4899   1.479   3.923   2.010
 1259SOL    HW2 4900   1.562   4.050   2.070
 1260SOL     OW 4901   1.303   4.562   1.904
 1260SOL    HW1 4902   1.337   4.469   1.919
 1260SOL    HW2 4903   1.321   4.589   1.809
 1261SOL     OW 4904   0.319   4.534   2.811
 1261SOL    HW1 4905   0.412   4.570   2.816
 1261SOL    HW2 4906   0.313   4.449   2.863
 1262SOL     OW 4907   0.339   4.233   2.868
 1262SOL    HW1 4908   0.287   4.150   2.851
 1262SOL    HW2 4909   0.416   4.238   2.804
 1263SOL     OW 4910   1.138   4.104   3.540
 1263SOL    HW1 4911   1.093   4.167   3.604
 1263SOL    HW2 4912   1.231   4.135   3.523
 1264SOL     OW 4913   1.160   3.931   3.339
 1264SOL    HW1 4914   1.160   3.995   3.416
 1264SOL    HW2 4915   1.188   3.979   3.256
 1265SOL     OW 4916   0.008   5.050   2.062
 1265SOL    HW1 4917  -0.085   5.071   2.031
 1265SOL    HW2 4918   0.018   4.951   2.075
 1266SOL     OW 4919   1.002   4.520   3.100
 1266SOL    HW1 4920   1.043   4.488   3.186
 1266SOL    HW2 4921   0.906   4.493   3.097
 1267SOL     OW 4922   0.040   4.268   2.976
 1267SOL    HW1 4923   0.125   4.235   2.935
 1267SOL    HW2 4924   0.053   4.283   3.074
 1268SOL     OW 4925   0.189   4.244   3.584
 1268SOL    HW1 4926   0.248   4.204   3.514
 1268SOL    HW2 4927   0.131   4.315   3.543
 1269SOL     OW 4928   1.369   4.674   3.522
 1269SOL    HW1 4929   1.408   4.763   3.542
 1269SOL    HW2 4930   1.379   4.654   3.425
 1270SOL     OW 4931   0.815   4.296   2.187
 1270SOL    HW1 4932   0.822   4.207   2.141
 1270SOL    HW2 4933   0.721   4.330   2.179
 1271SOL     OW 4934   1.657   4.328   3.068
 1271SOL    HW1 4935   1.619   4.259   3.130
 1271SOL    HW2 4936   1.739   4.292   3.024
 1272SOL     OW 4937   0.671   4.188   3.131
 1272SOL    HW1 4938   0.637   4.099   3.101
 1272SOL    HW2 4939   0.697   4.242   3.051
 1273SOL     OW 4940   0.473   4.224   2.053
 1273SOL    HW1 4941   0.534   4.304   2.057
 1273SOL    HW2 4942   0.378   4.255   2.060
 1274SOL     OW 4943   0.159   4.861   3.328
 1274SOL    HW1 4944   0.181   4.800   3.404
 1274SOL    HW2 4945   0.169   4.812   3.242
 1275SOL     OW 4946   1.347   4.783   3.096
 1275SOL    HW1 4947   1.371   4.720   3.022
 1275SOL    HW2 4948   1.257   4.823   3.078
 1276SOL     OW 4949   1.302   4.579   2.171
 1276SOL    HW1 4950   1.216   4.548   2.213
 1276SOL    HW2 4951   1.298   4.565   2.072
 1277SOL     OW 4952   0.083   4.982   2.884
 1277SOL    HW1 4953   0.078   4.981   2.984
 1277SOL    HW2 4954   0.000   4.941   2.846
 1278SOL     OW 4955   1.726   3.859   2.385
 1278SOL    HW1 4956   1.799   3.842   2.318
 1278SOL    HW2 4957   1.695   3.772   2.423
 1279SOL     OW 4958   1.280   4.651   2.534
 1279SOL    HW1 4959   1.340   4.570   2.536
 1279SOL    HW2 4960   1.320   4.720   2.474
 1280SOL     OW 4961   0.830   4.997   3.284
 1280SOL    HW1 4962   0.825   5.030   3.379
 1280SOL    HW2 4963   0.744   5.016   3.238
 1281SOL     OW 4964   1.841   3.899   2.825
 1281SOL    HW1 4965   1.880   3.814   2.789
 1281SOL    HW2 4966   1.743   3.901   2.806
 1282SOL     OW 4967   0.263   4.050   2.582
 1282SOL    HW1 4968   0.184   4.101   2.548
 1282SOL    HW2 4969   0.254   4.035   2.680
 1283SOL     OW 4970   0.822   4.726   3.234
 1283SOL    HW1 4971   0.862   4.725   3.142
 1283SOL    HW2 4972   0.832   4.818   3.274
 1284SOL     OW 4973   0.916   4.634   2.153
 1284SOL    HW1 4974   0.979   4.672   2.085
 1284SOL    HW2 4975   0.956   4.551   2.192
 1285SOL     OW 4976   0.372   5.012   3.352
 1285SOL    HW1 4977   0.359   5.105   3.318
 1285SOL    HW2 4978   0.288   4.960   3.339
 1286SOL     OW 4979   1.614   5.016   3.151
 1286SOL    HW1 4980   1.674   5.019   3.231
 1286SOL    HW2 4981   1.539   5.080   3.164
 1287SOL     OW 4982   1.039   4.822   2.558
 1287SOL    HW1 4983   0.969   4.775   2.612
 1287SOL    HW2 4984   1.098   4.754   2.515
 1288SOL     OW 4985   1.014   3.960   2.833
 1288SOL    HW1 4986   1.006   3.924   2.740
 1288SOL    HW2 4987   1.012   3.884   2.898
 1289SOL     OW 4988   1.709   4.109   3.243
 1289SOL    HW1 4989   1.782   4.178   3.247
 1289SOL    HW2 4990   1.737   4.034   3.184
 1290SOL     OW 4991   0.105   4.737   3.588
 1290SOL    HW1 4992   0.028   4.704   3.642
 1290SOL    HW2 4993   0.190   4.707   3.630
 1291SOL     OW 4994   0.672   3.927   3.351
 1291SOL    HW1 4995   0.762   3.911   3.311
 1291SOL    HW2 4996   0.680   3.932   3.450
 1292SOL     OW 4997   0.075   4.069   1.895
 1292SOL    HW1 4998  -0.017   4.041   1.866
 1292SOL    HW2 4999   0.106   4.146   1.839
 1293SOL     OW 5000   1.440   4.580   3.260
 1293SOL    HW1 5001   1.383   4.632   3.197
 1293SOL    HW2 5002   1.536   4.592   3.236
 1294SOL     OW 5003   0.072   3.890   2.180
 1294SOL    HW1 5004   0.055   3.973   2.126
 1294SOL    HW2 5005   0.162   3.853   2.158
 1295SOL     OW 5006   0.613   4.566   3.293
 1295SOL    HW1 5007   0.669   4.647   3.276
 1295SOL    HW2 5008   0.672   4.486   3.296
 1296SOL     OW 5009   0.716   4.289   3.570
 1296SOL    HW1 5010   0.735   4.354   3.644
 1296SOL    HW2 5011   0.776   4.209   3.579
 1297SOL     OW 5012   1.450   4.944   3.495
 1297SOL    HW1 5013   1.441   4.934   3.594
 1297SOL    HW2 5014   1.546   4.937   3.469
 1298SOL     OW 5015   1.674   4.607   3.116
 1298SOL    HW1 5016   1.647   4.518   3.079
 1298SOL    HW2 5017   1.675   4.675   3.043
 1299SOL     OW 5018   1.225   4.049   2.311
 1299SOL    HW1 5019   1.290   3.975   2.300
 1299SOL    HW2 5020   1.245   4.099   2.395
 1300SOL     OW 5021   0.594   4.469   2.514
 1300SOL    HW1 5022   0.644   4.554   2.495
 1300SOL    HW2 5023   0.506   4.471   2.466
 1301SOL     OW 5024   1.777   4.066   3.504
 1301SOL    HW1 5025   1.760   4.097   3.410
 1301SOL    HW2 5026   1.693   4.029   3.542
 1302SOL     OW 5027   1.730   4.658   3.379
 1302SOL    HW1 5028   1.768   4.749   3.394
 1302SOL    HW2 5029   1.722   4.641   3.280
 1303SOL     OW 5030   0.859   4.680   2.723
 1303SOL    HW1 5031   0.913   4.611   2.771
 1303SOL    HW2 5032   0.827   4.749   2.789
 1304SOL     OW 5033   1.083   4.708   1.949
 1304SOL    HW1 5034   1.060   4.761   1.867
 1304SOL    HW2 5035   1.164   4.652   1.930
 1305SOL     OW 5036   0.079   4.964   2.515
 1305SOL    HW1 5037   0.078   4.917   2.603
 1305SOL    HW2 5038   0.161   4.936   2.464
 1306SOL     OW 5039   1.824   3.916   3.089
 1306SOL    HW1 5040   1.820   3.826   3.133
 1306SOL    HW2 5041   1.827   3.905   2.990
 1307SOL     OW 5042   0.428   4.148   2.382
 1307SOL    HW1 5043   0.458   4.076   2.320
 1307SOL    HW2 5044   0.389   4.108   2.465
 1308SOL     OW 5045   0.317   4.271   3.142
 1308SOL    HW1 5046   0.355   4.212   3.214
 1308SOL    HW2 5047   0.357   4.245   3.054
 1309SOL     OW 5048   1.424   3.938   2.974
 1309SOL    HW1 5049   1.476   3.873   3.029
 1309SOL    HW2 5050   1.375   4.001   3.035
 1310SOL     OW 5051   1.001   3.758   3.016
 1310SOL    HW1 5052   0.938   3.686   2.985
 1310SOL    HW2 5053   1.094   3.722   3.016
 1311SOL     OW 5054   1.352   3.776   2.030
 1311SOL    HW1 5055   1.387   3.735   1.946
 1311SOL    HW2 5056   1.262   3.738   2.050
 1312SOL     OW 5057   1.300   4.177   2.553
 1312SOL    HW1 5058   1.241   4.257   2.557
 1312SOL    HW2 5059   1.315   4.142   2.646
 1313SOL     OW 5060   1.593   3.945   2.744
 1313SOL    HW1 5061   1.509   3.944   2.798
 1313SOL    HW2 5062   1.595   4.028   2.688
 1314SOL     OW 5063   0.039   4.801   2.162
 1314SOL    HW1 5064   0.138   4.790   2.153
 1314SOL    HW2 5065  -0.001   4.715   2.194
 1315SOL     OW 5066   0.230   4.352   3.837
 1315SOL    HW1 5067   0.137   4.350   3.874
 1315SOL    HW2 5068   0.231   4.313   3.745
 1316SOL     OW 5069   0.225   3.999   4.720
 1316SOL    HW1 5070   0.260   3.982   4.812
 1316SOL    HW2 5071   0.137   3.954   4.708
 1317SOL     OW 5072   0.019   4.092   4.371
 1317SOL    HW1 5073  -0.063   4.135   4.410
 1317SOL    HW2 5074  -0.009   4.019   4.308
 1318SOL     OW 5075   0.569   4.999   4.889
 1318SOL    HW1 5076   0.476   4.992   4.852
 1318SOL    HW2 5077   0.580   5.088   4.933
 1319SOL     OW 5078   1.555   5.235   4.427
 1319SOL    HW1 5079   1.498   5.219   4.508
 1319SOL    HW2 5080   1.496   5.245   4.347
 1320SOL     OW 5081   1.135   4.427   4.441
 1320SOL    HW1 5082   1.192   4.505   4.416
 1320SOL    HW2 5083   1.075   4.453   4.517
 1321SOL     OW 5084   1.755   4.331   3.955
 1321SOL    HW1 5085   1.743   4.318   3.856
 1321SOL    HW2 5086   1.725   4.250   4.004
 1322SOL     OW 5087   0.768   4.868   4.747
 1322SOL    HW1 5088   0.690   4.885   4.807
 1322SOL    HW2 5089   0.802   4.955   4.711
 1323SOL     OW 5090   0.685   4.736   4.389
 1323SOL    HW1 5091   0.754   4.720   4.459
 1323SOL    HW2 5092   0.612   4.793   4.427
 1324SOL     OW 5093   0.335   5.159   4.785
 1324SOL    HW1 5094   0.257   5.128   4.732
 1324SOL    HW2 5095   0.393   5.217   4.728
 1325SOL     OW 5096   1.603   4.171   4.461
 1325SOL    HW1 5097   1.529   4.217   4.411
 1325SOL    HW2 5098   1.654   4.239   4.514
 1326SOL     OW 5099   0.240   4.815   4.610
 1326SOL    HW1 5100   0.254   4.731   4.662
 1326SOL    HW2 5101   0.185   4.879   4.665
 1327SOL     OW 5102   0.606   4.688   3.847
 1327SOL    HW1 5103   0.613   4.772   3.793
 1327SOL    HW2 5104   0.652   4.701   3.935
 1328SOL     OW 5105   0.122   4.367   4.287
 1328SOL    HW1 5106   0.077   4.279   4.304
 1328SOL    HW2 5107   0.121   4.421   4.371
 1329SOL     OW 5108   1.689   4.646   4.336
 1329SOL    HW1 5109   1.784   4.617   4.344
 1329SOL    HW2 5110   1.681   4.711   4.261
 1330SOL     OW 5111   1.641   4.832   4.156
 1330SOL    HW1 5112   1.727   4.834   4.104
 1330SOL    HW2 5113   1.655   4.879   4.244
 1331SOL     OW 5114   0.197   4.700   4.988
 1331SOL    HW1 5115   0.286   4.655   4.974
 1331SOL    HW2 5116   0.124   4.635   4.969
 1332SOL     OW 5117   1.525   4.723   3.914
 1332SOL    HW1 5118   1.462   4.647   3.927
 1332SOL    HW2 5119   1.573   4.741   4.000
 1333SOL     OW 5120   1.466   5.141   4.677
 1333SOL    HW1 5121   1.407   5.147   4.757
 1333SOL    HW2 5122   1.451   5.053   4.631
 1334SOL     OW 5123   0.598   4.453   3.994
 1334SOL    HW1 5124   0.622   4.522   3.926
 1334SOL    HW2 5125   0.520   4.486   4.048
 1335SOL     OW 5126   1.281   4.069   4.668
 1335SOL    HW1 5127   1.195   4.019   4.655
 1335SOL    HW2 5128   1.343   4.015   4.724
 1336SOL     OW 5129   0.991   4.134   4.966
 1336SOL    HW1 5130   0.914   4.168   5.020
 1336SOL    HW2 5131   0.957   4.083   4.887
 1337SOL     OW 5132   1.041   4.425   4.153
 1337SOL    HW1 5133   1.067   4.421   4.249
 1337SOL    HW2 5134   0.956   4.374   4.139
 1338SOL     OW 5135   0.076   4.535   4.513
 1338SOL    HW1 5136   0.175   4.523   4.522
 1338SOL    HW2 5137   0.052   4.630   4.534
 1339SOL     OW 5138   1.362   4.868   4.269
 1339SOL    HW1 5139   1.445   4.839   4.221
 1339SOL    HW2 5140   1.313   4.935   4.213
 1340SOL     OW 5141   0.550   3.920   4.609
 1340SOL    HW1 5142   0.545   3.915   4.709
 1340SOL    HW2 5143   0.552   4.016   4.580
 1341SOL     OW 5144   1.795   4.790   4.597
 1341SOL    HW1 5145   1.733   4.775   4.521
 1341SOL    HW2 5146   1.743   4.801   4.682
 1342SOL     OW 5147   0.321   4.667   3.966
 1342SOL    HW1 5148   0.403   4.706   3.924
 1342SOL    HW2 5149   0.294   4.585   3.917
 1343SOL     OW 5150   1.458   4.459   4.452
 1343SOL    HW1 5151   1.453   4.394   4.527
 1343SOL    HW2 5152   1.538   4.518   4.465
 1344SOL     OW 5153   1.632   5.101   3.805
 1344SOL    HW1 5154   1.600   5.195   3.795
 1344SOL    HW2 5155   1.556   5.038   3.793
 1345SOL     OW 5156   1.400   3.831   4.150
 1345SOL    HW1 5157   1.376   3.794   4.060
 1345SOL    HW2 5158   1.499   3.847   4.154
 1346SOL     OW 5159   0.382   4.424   4.204
 1346SOL    HW1 5160   0.427   4.334   4.201
 1346SOL    HW2 5161   0.288   4.413   4.237
 1347SOL     OW 5162   0.803   5.126   4.648
 1347SOL    HW1 5163   0.893   5.140   4.606
 1347SOL    HW2 5164   0.732   5.128   4.577
 1348SOL     OW 5165   1.434   4.912   3.765
 1348SOL    HW1 5166   1.466   4.836   3.822
 1348SOL    HW2 5167   1.342   4.939   3.795
 1349SOL     OW 5168   0.297   3.759   3.895
 1349SOL    HW1 5169   0.346   3.843   3.874
 1349SOL    HW2 5170   0.359   3.694   3.940
 1350SOL     OW 5171   0.935   3.960   4.204
 1350SOL    HW1 5172   0.887   4.001   4.126
 1350SOL    HW2 5173   1.034   3.958   4.185
 1351SOL     OW 5174   1.227   5.294   4.517
 1351SOL    HW1 5175   1.248   5.368   4.452
 1351SOL    HW2 5176   1.295   5.294   4.590
 1352SOL     OW 5177   0.459   4.876   4.465
 1352SOL    HW1 5178   0.388   4.849   4.530
 1352SOL    HW2 5179   0.433   4.848   4.372
 1353SOL     OW 5180   1.032   4.273   3.740
 1353SOL    HW1 5181   0.991   4.355   3.701
 1353SOL    HW2 5182   1.096   4.299   3.813
 1354SOL     OW 5183   0.561   3.946   4.871
 1354SOL    HW1 5184   0.599   3.862   4.908
 1354SOL    HW2 5185   0.473   3.965   4.915
 1355SOL     OW 5186   1.429   4.897   4.591
 1355SOL    HW1 5187   1.374   4.813   4.584
 1355SOL    HW2 5188   1.455   4.926   4.499
 1356SOL     OW 5189   1.466   4.314   4.716
 1356SOL    HW1 5190   1.436   4.219   4.723
 1356SOL    HW2 5191   1.539   4.330   4.782
 1357SOL     OW 5192   1.857   4.557   4.101
 1357SOL    HW1 5193   1.899   4.493   4.165
 1357SOL    HW2 5194   1.819   4.506   4.023
 1358SOL     OW 5195   1.664   5.004   4.381
 1358SOL    HW1 5196   1.763   5.012   4.395
 1358SOL    HW2 5197   1.619   5.088   4.412
 1359SOL     OW 5198   1.390   4.299   3.802
 1359SOL    HW1 5199   1.336   4.278   3.883
 1359SOL    HW2 5200   1.481   4.258   3.811
 1360SOL     OW 5201   1.638   4.823   4.803
 1360SOL    HW1 5202   1.643   4.904   4.862
 1360SOL    HW2 5203   1.552   4.825   4.752
 1361SOL     OW 5204   0.705   4.774   4.092
 1361SOL    HW1 5205   0.691   4.781   4.191
 1361SOL    HW2 5206   0.789   4.723   4.074
 1362SOL     OW 5207   0.410   4.537   4.975
 1362SOL    HW1 5208   0.496   4.549   5.025
 1362SOL    HW2 5209   0.368   4.450   5.002
 1363SOL     OW 5210   1.274   4.110   4.986
 1363SOL    HW1 5211   1.295   4.184   5.050
 1363SOL    HW2 5212   1.185   4.127   4.943
 1364SOL     OW 5213   0.367   4.824   4.225
 1364SOL    HW1 5214   0.360   4.907   4.169
 1364SOL    HW2 5215   0.371   4.744   4.165
 1365SOL     OW 5216   1.582   4.363   4.196
 1365SOL    HW1 5217   1.551   4.424   4.269
 1365SOL    HW2 5218   1.632   4.415   4.127
 1366SOL     OW 5219   0.573   4.594   4.753
 1366SOL    HW1 5220   0.617   4.683   4.744
 1366SOL    HW2 5221   0.510   4.594   4.830
 1367SOL     OW 5222   1.360   4.586   4.769
 1367SOL    HW1 5223   1.285   4.586   4.703
 1367SOL    HW2 5224   1.397   4.494   4.778
 1368SOL     OW 5225   1.209   4.249   3.999
 1368SOL    HW1 5226   1.222   4.165   4.053
 1368SOL    HW2 5227   1.180   4.323   4.059
 1369SOL     OW 5228   0.307   3.937   4.955
 1369SOL    HW1 5229   0.284   3.974   5.045
 1369SOL    HW2 5230   0.277   3.842   4.949
 1370SOL     OW 5231   0.037   5.034   5.006
 1370SOL    HW1 5232   0.090   4.985   5.074
 1370SOL    HW2 5233   0.059   5.132   5.011
 1371SOL     OW 5234   0.732   4.358   4.788
 1371SOL    HW1 5235   0.791   4.332   4.712
 1371SOL    HW2 5236   0.704   4.454   4.777
 1372SOL     OW 5237   0.307   3.787   4.342
 1372SOL    HW1 5238   0.296   3.881   4.375
 1372SOL    HW2 5239   0.302   3.724   4.419
 1373SOL     OW 5240   1.622   4.091   4.098
 1373SOL    HW1 5241   1.624   4.015   4.162
 1373SOL    HW2 5242   1.574   4.168   4.138
 1374SOL     OW 5243   1.023   4.490   4.690
 1374SOL    HW1 5244   1.038   4.511   4.786
 1374SOL    HW2 5245   0.993   4.395   4.681
 1375SOL     OW 5246   1.540   3.998   3.849
 1375SOL    HW1 5247   1.479   3.923   3.872
 1375SOL    HW2 5248   1.562   4.050   3.932
 1376SOL     OW 5249   1.303   4.562   3.766
 1376SOL    HW1 5250   1.337   4.469   3.781
 1376SOL    HW2 5251   1.321   4.589   3.671
 1377SOL     OW 5252   0.319   4.534   4.673
 1377SOL    HW1 5253   0.412   4.570   4.678
 1377SOL    HW2 5254   0.313   4.449   4.725
 1378SOL     OW 5255   0.339   4.233   4.730
 1378SOL    HW1 5256   0.287   4.150   4.713
 1378SOL    HW2 5257   0.416   4.238   4.666
 1379SOL     OW 5258   0.008   5.050   3.924
 1379SOL    HW1 5259  -0.085   5.071   3.893
 1379SOL    HW2 5260   0.018   4.951   3.937
 1380SOL     OW 5261   1.002   4.520   4.962
 1380SOL    HW1 5262   1.043   4.488   5.048
 1380SOL    HW2 5263   0.906   4.493   4.959
 1381SOL     OW 5264   0.040   4.268   4.838
 1381SOL    HW1 5265   0.125   4.235   4.797
 1381SOL    HW2 5266   0.053   4.283   4.936
 1382SOL     OW 5267   1.657   4.328   4.930
 1382SOL    HW1 5268   1.619   4.259   4.992
 1382SOL    HW2 5269   1.739   4.292   4.886
 1383SOL     OW 5270   0.671   4.188   4.993
 1383SOL    HW1 5271   0.637   4.099   4.963
 1383SOL    HW2 5272   0.697   4.242   4.913
 1384SOL     OW 5273   0.473   4.224   3.915
 1384SOL    HW1 5274   0.534   4.304   3.919
 1384SOL    HW2 5275   0.378   4.255   3.922
 1385SOL     OW 5276   1.347   4.783   4.958
 1385SOL    HW1 5277   1.371   4.720   4.884
 1385SOL    HW2 5278   1.257   4.823   4.940
 1386SOL     OW 5279   1.302   4.579   4.033
 1386SOL    HW1 5280   1.216   4.548   4.075
 1386SOL    HW2 5281   1.298   4.565   3.934
 1387SOL     OW 5282   0.083   4.982   4.746
 1387SOL    HW1 5283   0.078   4.981   4.846
 1387SOL    HW2 5284   0.000   4.941   4.708
 1388SOL     OW 5285   1.726   3.859   4.247
 1388SOL    HW1 5286   1.799   3.842   4.180
 1388SOL    HW2 5287   1.695   3.772   4.285
 1389SOL     OW 5288   1.280   4.651   4.396
 1389SOL    HW1 5289   1.340   4.570   4.398
 1389SOL    HW2 5290   1.320   4.720   4.336
 1390SOL     OW 5291   0.830   4.997   5.146
 1390SOL    HW1 5292   0.825   5.030   5.241
 1390SOL    HW2 5293   0.744   5.016   5.100
 1391SOL     OW 5294   1.841   3.899   4.687
 1391SOL    HW1 5295   1.880   3.814   4.651
 1391SOL    HW2 5296   1.743   3.901   4.668
 1392SOL     OW 5297   0.263   4.050   4.444
 1392SOL    HW1 5298   0.184   4.101   4.410
 1392SOL    HW2 5299   0.254   4.035   4.542
 1393SOL     OW 5300   1.194   5.336   3.755
 1393SOL    HW1 5301   1.200   5.243   3.792
 1393SOL    HW2 5302   1.135   5.336   3.675
 1394SOL     OW 5303   0.822   4.726   5.096
 1394SOL    HW1 5304   0.862   4.725   5.004
 1394SOL    HW2 5305   0.832   4.818   5.136
 1395SOL     OW 5306   0.916   4.634   4.015
 1395SOL    HW1 5307   0.979   4.672   3.947
 1395SOL    HW2 5308   0.956   4.551   4.054
 1396SOL     OW 5309   1.039   4.822   4.420
 1396SOL    HW1 5310   0.969   4.775   4.474
 1396SOL    HW2 5311   1.098   4.754   4.377
 1397SOL     OW 5312   1.709   4.109   5.105
 1397SOL    HW1 5313   1.782   4.178   5.109
 1397SOL    HW2 5314   1.737   4.034   5.046
 1398SOL     OW 5315   0.075   4.069   3.757
 1398SOL    HW1 5316  -0.017   4.041   3.728
 1398SOL    HW2 5317   0.106   4.146   3.701
 1399SOL     OW 5318   0.072   3.890   4.042
 1399SOL    HW1 5319   0.055   3.973   3.988
 1399SOL    HW2 5320   0.162   3.853   4.020
 1400SOL     OW 5321   1.674   4.607   4.978
 1400SOL    HW1 5322   1.647   4.518   4.941
 1400SOL    HW2 5323   1.675   4.675   4.905
 1401SOL     OW 5324   1.225   4.049   4.173
 1401SOL    HW1 5325   1.290   3.975   4.162
 1401SOL    HW2 5326   1.245   4.099   4.257
 1402SOL     OW 5327   0.594   4.469   4.376
 1402SOL    HW1 5328   0.644   4.554   4.357
 1402SOL    HW2 5329   0.506   4.471   4.328
 1403SOL     OW 5330   1.730   4.658   5.241
 1403SOL    HW1 5331   1.768   4.749   5.256
 1403SOL    HW2 5332   1.722   4.641   5.142
 1404SOL     OW 5333   0.859   4.680   4.585
 1404SOL    HW1 5334   0.913   4.611   4.633
 1404SOL    HW2 5335   0.827   4.749   4.651
 1405SOL     OW 5336   1.083   4.708   3.811
 1405SOL    HW1 5337   1.060   4.761   3.729
 1405SOL    HW2 5338   1.164   4.652   3.792
 1406SOL     OW 5339   0.079   4.964   4.377
 1406SOL    HW1 5340   0.078   4.917   4.465
 1406SOL    HW2 5341   0.161   4.936   4.326
 1407SOL     OW 5342   1.824   3.916   4.951
 1407SOL    HW1 5343   1.820   3.826   4.995
 1407SOL    HW2 5344   1.827   3.905   4.852
 1408SOL     OW 5345   0.428   4.148   4.244
 1408SOL    HW1 5346   0.458   4.076   4.182
 1408SOL    HW2 5347   0.389   4.108   4.327
 1409SOL     OW 5348   1.424   3.938   4.836
 1409SOL    HW1 5349   1.476   3.873   4.891
 1409SOL    HW2 5350   1.375   4.001   4.897
 1410SOL     OW 5351   1.001   3.758   4.878
 1410SOL    HW1 5352   0.938   3.686   4.847
 1410SOL    HW2 5353   1.094   3.722   4.878
 1411SOL     OW 5354   0.770   5.054   4.025
 1411SOL    HW1 5355   0.724   4.967   4.042
 1411SOL    HW2 5356   0.861   5.051   4.066
 1412SOL     OW 5357   1.352   3.776   3.892
 1412SOL    HW1 5358   1.387   3.735   3.808
 1412SOL    HW2 5359   1.262   3.738   3.912
 1413SOL     OW 5360   1.593   3.945   4.606
 1413SOL    HW1 5361   1.509   3.944   4.660
 1413SOL    HW2 5362   1.595   4.028   4.550
 1414SOL     OW 5363   0.039   4.801   4.024
 1414SOL    HW1 5364   0.138   4.790   4.015
 1414SOL    HW2 5365  -0.001   4.715   4.056
 1415SOL     OW 5366   2.092   0.628   0.113
 1415SOL    HW1 5367   1.999   0.626   0.150
 1415SOL    HW2 5368   2.093   0.589   0.021
 1416SOL     OW 5369   2.087   0.275   0.996
 1416SOL    HW1 5370   2.122   0.258   1.088
 1416SOL    HW2 5371   1.999   0.230   0.984
 1417SOL     OW 5372   1.881   0.368   0.647
 1417SOL    HW1 5373   1.799   0.411   0.686
 1417SOL    HW2 5374   1.853   0.295   0.584
 1418SOL     OW 5375   3.417   1.511   0.703
 1418SOL    HW1 5376   3.360   1.495   0.784
 1418SOL    HW2 5377   3.358   1.521   0.623
 1419SOL     OW 5378   2.997   0.703   0.717
 1419SOL    HW1 5379   3.054   0.781   0.692
 1419SOL    HW2 5380   2.937   0.729   0.793
 1420SOL     OW 5381   3.617   0.607   0.231
 1420SOL    HW1 5382   3.605   0.594   0.132
 1420SOL    HW2 5383   3.587   0.526   0.280
 1421SOL     OW 5384   2.712   0.798   1.823
 1421SOL    HW1 5385   2.708   0.874   1.888
 1421SOL    HW2 5386   2.734   0.834   1.732
 1422SOL     OW 5387   2.548   1.161   1.803
 1422SOL    HW1 5388   2.608   1.240   1.817
 1422SOL    HW2 5389   2.462   1.192   1.762
 1423SOL     OW 5390   2.197   1.435   1.061
 1423SOL    HW1 5391   2.119   1.404   1.008
 1423SOL    HW2 5392   2.255   1.493   1.004
 1424SOL     OW 5393   3.322   1.505   1.339
 1424SOL    HW1 5394   3.346   1.599   1.365
 1424SOL    HW2 5395   3.306   1.451   1.421
 1425SOL     OW 5396   2.300   0.392   1.499
 1425SOL    HW1 5397   2.382   0.336   1.508
 1425SOL    HW2 5398   2.219   0.334   1.503
 1426SOL     OW 5399   3.465   0.447   0.737
 1426SOL    HW1 5400   3.391   0.493   0.687
 1426SOL    HW2 5401   3.516   0.515   0.790
 1427SOL     OW 5402   2.093   1.713   0.483
 1427SOL    HW1 5403   2.127   1.790   0.537
 1427SOL    HW2 5404   2.137   1.713   0.393
 1428SOL     OW 5405   2.989   1.341   1.690
 1428SOL    HW1 5406   3.036   1.341   1.778
 1428SOL    HW2 5407   2.941   1.254   1.679
 1429SOL     OW 5408   2.092   1.434   0.538
 1429SOL    HW1 5409   2.066   1.530   0.538
 1429SOL    HW2 5410   2.021   1.380   0.583
 1430SOL     OW 5411   2.102   1.091   0.886
 1430SOL    HW1 5412   2.116   1.007   0.938
 1430SOL    HW2 5413   2.047   1.155   0.941
 1431SOL     OW 5414   2.482   1.786   1.439
 1431SOL    HW1 5415   2.390   1.769   1.474
 1431SOL    HW2 5416   2.510   1.878   1.465
 1432SOL     OW 5417   3.456   0.114   1.480
 1432SOL    HW1 5418   3.438   0.181   1.408
 1432SOL    HW2 5419   3.453   0.160   1.569
 1433SOL     OW 5420   1.984   0.643   0.563
 1433SOL    HW1 5421   1.939   0.555   0.580
 1433SOL    HW2 5422   1.983   0.697   0.647
 1434SOL     OW 5423   3.704   1.767   0.359
 1434SOL    HW1 5424   3.758   1.738   0.439
 1434SOL    HW2 5425   3.734   1.857   0.330
 1435SOL     OW 5426   1.889   1.596   0.117
 1435SOL    HW1 5427   1.870   1.500   0.138
 1435SOL    HW2 5428   1.856   1.654   0.192
 1436SOL     OW 5429   3.551   0.922   0.612
 1436SOL    HW1 5430   3.646   0.893   0.620
 1436SOL    HW2 5431   3.543   0.987   0.537
 1437SOL     OW 5432   3.503   1.108   0.432
 1437SOL    HW1 5433   3.589   1.110   0.380
 1437SOL    HW2 5434   3.517   1.155   0.520
 1438SOL     OW 5435   1.975   0.737   1.597
 1438SOL    HW1 5436   2.063   0.724   1.642
 1438SOL    HW2 5437   1.962   0.834   1.575
 1439SOL     OW 5438   3.155   1.228   1.423
 1439SOL    HW1 5439   3.192   1.155   1.365
 1439SOL    HW2 5440   3.207   1.233   1.508
 1440SOL     OW 5441   2.671   0.004   0.502
 1440SOL    HW1 5442   2.711   0.095   0.493
 1440SOL    HW2 5443   2.571   0.012   0.508
 1441SOL     OW 5444   2.059   0.976   1.264
 1441SOL    HW1 5445   2.148   0.931   1.250
 1441SOL    HW2 5446   1.986   0.911   1.245
 1442SOL     OW 5447   3.387   0.999   0.190
 1442SOL    HW1 5448   3.324   0.923   0.203
 1442SOL    HW2 5449   3.435   1.017   0.276
 1443SOL     OW 5450   3.049   1.792   1.616
 1443SOL    HW1 5451   3.073   1.852   1.540
 1443SOL    HW2 5452   3.056   1.697   1.586
 1444SOL     OW 5453   2.179   0.251   1.801
 1444SOL    HW1 5454   2.250   0.322   1.807
 1444SOL    HW2 5455   2.091   0.290   1.829
 1445SOL     OW 5456   3.328   1.417   0.953
 1445SOL    HW1 5457   3.269   1.423   1.033
 1445SOL    HW2 5458   3.313   1.329   0.907
 1446SOL     OW 5459   3.529   1.714   0.572
 1446SOL    HW1 5460   3.488   1.691   0.484
 1446SOL    HW2 5461   3.511   1.640   0.637
 1447SOL     OW 5462   2.460   0.729   0.270
 1447SOL    HW1 5463   2.484   0.798   0.202
 1447SOL    HW2 5464   2.382   0.762   0.324
 1448SOL     OW 5465   3.143   0.345   0.944
 1448SOL    HW1 5466   3.057   0.295   0.931
 1448SOL    HW2 5467   3.205   0.291   1.000
 1449SOL     OW 5468   3.438   1.662   0.307
 1449SOL    HW1 5469   3.527   1.708   0.310
 1449SOL    HW2 5470   3.417   1.638   0.212
 1450SOL     OW 5471   2.669   0.605   1.465
 1450SOL    HW1 5472   2.622   0.602   1.554
 1450SOL    HW2 5473   2.618   0.550   1.399
 1451SOL     OW 5474   3.256   0.469   1.674
 1451SOL    HW1 5475   3.236   0.512   1.762
 1451SOL    HW2 5476   3.334   0.407   1.683
 1452SOL     OW 5477   2.835   0.890   1.572
 1452SOL    HW1 5478   2.881   0.806   1.543
 1452SOL    HW2 5479   2.779   0.924   1.497
 1453SOL     OW 5480   2.853   0.410   1.242
 1453SOL    HW1 5481   2.776   0.444   1.296
 1453SOL    HW2 5482   2.819   0.359   1.163
 1454SOL     OW 5483   2.903   0.701   0.429
 1454SOL    HW1 5484   2.929   0.697   0.525
 1454SOL    HW2 5485   2.818   0.650   0.415
 1455SOL     OW 5486   1.938   0.811   0.789
 1455SOL    HW1 5487   2.037   0.799   0.798
 1455SOL    HW2 5488   1.914   0.906   0.810
 1456SOL     OW 5489   1.992   1.821   1.571
 1456SOL    HW1 5490   1.982   1.806   1.670
 1456SOL    HW2 5491   1.906   1.857   1.535
 1457SOL     OW 5492   2.727   0.348   0.195
 1457SOL    HW1 5493   2.786   0.411   0.146
 1457SOL    HW2 5494   2.746   0.254   0.166
 1458SOL     OW 5495   3.581   0.585   1.831
 1458SOL    HW1 5496   3.555   0.674   1.795
 1458SOL    HW2 5497   3.579   0.517   1.758
 1459SOL     OW 5498   3.224   1.144   0.545
 1459SOL    HW1 5499   3.307   1.115   0.497
 1459SOL    HW2 5500   3.175   1.211   0.489
 1460SOL     OW 5501   2.870   1.456   0.477
 1460SOL    HW1 5502   2.824   1.528   0.425
 1460SOL    HW2 5503   2.866   1.476   0.575
 1461SOL     OW 5504   2.213   1.801   0.853
 1461SOL    HW1 5505   2.263   1.715   0.859
 1461SOL    HW2 5506   2.278   1.878   0.850
 1462SOL     OW 5507   3.657   1.066   0.873
 1462SOL    HW1 5508   3.595   1.051   0.797
 1462SOL    HW2 5509   3.605   1.077   0.958
 1463SOL     OW 5510   3.089   1.550   1.506
 1463SOL    HW1 5511   3.095   1.473   1.570
 1463SOL    HW2 5512   3.037   1.524   1.426
 1464SOL     OW 5513   3.320   0.735   0.728
 1464SOL    HW1 5514   3.315   0.670   0.803
 1464SOL    HW2 5515   3.400   0.794   0.741
 1465SOL     OW 5516   2.323   1.266   1.727
 1465SOL    HW1 5517   2.273   1.267   1.641
 1465SOL    HW2 5518   2.260   1.248   1.803
 1466SOL     OW 5519   2.064   0.285   1.498
 1466SOL    HW1 5520   1.984   0.345   1.485
 1466SOL    HW2 5521   2.054   0.236   1.584
 1467SOL     OW 5522   3.494   1.377   0.081
 1467SOL    HW1 5523   3.462   1.471   0.071
 1467SOL    HW2 5524   3.418   1.314   0.069
 1468SOL     OW 5525   2.326   1.743   0.323
 1468SOL    HW1 5526   2.359   1.782   0.409
 1468SOL    HW2 5527   2.402   1.736   0.258
 1469SOL     OW 5528   3.262   0.107   0.426
 1469SOL    HW1 5529   3.238   0.070   0.336
 1469SOL    HW2 5530   3.361   0.123   0.430
 1470SOL     OW 5531   2.111   1.785   1.241
 1470SOL    HW1 5532   2.168   1.720   1.291
 1470SOL    HW2 5533   2.095   1.752   1.148
 1471SOL     OW 5534   2.802   1.698   0.904
 1471SOL    HW1 5535   2.882   1.641   0.925
 1471SOL    HW2 5536   2.753   1.658   0.827
 1472SOL     OW 5537   2.244   0.700   0.480
 1472SOL    HW1 5538   2.289   0.610   0.477
 1472SOL    HW2 5539   2.150   0.689   0.513
 1473SOL     OW 5540   3.409   0.222   1.729
 1473SOL    HW1 5541   3.404   0.259   1.821
 1473SOL    HW2 5542   3.337   0.153   1.717
 1474SOL     OW 5543   2.643   0.264   1.749
 1474SOL    HW1 5544   2.710   0.203   1.792
 1474SOL    HW2 5545   2.570   0.283   1.814
 1475SOL     OW 5546   2.750   1.514   1.195
 1475SOL    HW1 5547   2.727   1.489   1.101
 1475SOL    HW2 5548   2.811   1.445   1.234
 1476SOL     OW 5549   3.213   0.590   1.433
 1476SOL    HW1 5550   3.241   0.547   1.518
 1476SOL    HW2 5551   3.238   0.686   1.434
 1477SOL     OW 5552   2.784   0.503   0.899
 1477SOL    HW1 5553   2.759   0.494   0.803
 1477SOL    HW2 5554   2.832   0.421   0.930
 1478SOL     OW 5555   3.296   1.188   0.041
 1478SOL    HW1 5556   3.328   1.112   0.098
 1478SOL    HW2 5557   3.204   1.215   0.071
 1479SOL     OW 5558   2.159   0.035   0.171
 1479SOL    HW1 5559   2.208   0.119   0.150
 1479SOL    HW2 5560   2.221  -0.030   0.216
 1480SOL     OW 5561   2.797   0.236   0.480
 1480SOL    HW1 5562   2.749   0.277   0.402
 1480SOL    HW2 5563   2.896   0.234   0.461
 1481SOL     OW 5564   2.938   0.683   1.464
 1481SOL    HW1 5565   2.858   0.622   1.467
 1481SOL    HW2 5566   3.019   0.630   1.440
 1482SOL     OW 5567   3.089   1.570   0.793
 1482SOL    HW1 5568   3.110   1.644   0.728
 1482SOL    HW2 5569   3.157   1.570   0.866
 1483SOL     OW 5570   3.133   1.797   0.591
 1483SOL    HW1 5571   3.177   1.861   0.527
 1483SOL    HW2 5572   3.083   1.849   0.661
 1484SOL     OW 5573   2.894   0.549   0.016
 1484SOL    HW1 5574   2.853   0.631  -0.023
 1484SOL    HW2 5575   2.958   0.575   0.089
 1485SOL     OW 5576   1.940   0.556   1.386
 1485SOL    HW1 5577   2.032   0.555   1.345
 1485SOL    HW2 5578   1.934   0.630   1.453
 1486SOL     OW 5579   2.423   0.222   1.147
 1486SOL    HW1 5580   2.461   0.138   1.184
 1486SOL    HW2 5581   2.335   0.241   1.191
 1487SOL     OW 5582   3.291   1.173   0.867
 1487SOL    HW1 5583   3.236   1.089   0.860
 1487SOL    HW2 5584   3.317   1.202   0.775
 1488SOL     OW 5585   3.328   0.590   0.992
 1488SOL    HW1 5586   3.298   0.495   0.999
 1488SOL    HW2 5587   3.401   0.606   1.058
 1489SOL     OW 5588   3.719   0.833   0.377
 1489SOL    HW1 5589   3.761   0.769   0.441
 1489SOL    HW2 5590   3.681   0.782   0.299
 1490SOL     OW 5591   2.350   1.385   0.174
 1490SOL    HW1 5592   2.263   1.370   0.221
 1490SOL    HW2 5593   2.333   1.411   0.079
 1491SOL     OW 5594   3.526   1.280   0.657
 1491SOL    HW1 5595   3.625   1.288   0.671
 1491SOL    HW2 5596   3.481   1.364   0.688
 1492SOL     OW 5597   3.252   0.575   0.078
 1492SOL    HW1 5598   3.198   0.554   0.159
 1492SOL    HW2 5599   3.343   0.534   0.087
 1493SOL     OW 5600   3.616   1.223   1.588
 1493SOL    HW1 5601   3.707   1.184   1.575
 1493SOL    HW2 5602   3.624   1.319   1.612
 1494SOL     OW 5603   2.926   1.347   1.340
 1494SOL    HW1 5604   2.846   1.324   1.395
 1494SOL    HW2 5605   3.009   1.321   1.389
 1495SOL     OW 5606   3.454   1.629   1.625
 1495SOL    HW1 5607   3.481   1.663   1.535
 1495SOL    HW2 5608   3.533   1.591   1.671
 1496SOL     OW 5609   2.973   1.195   1.100
 1496SOL    HW1 5610   2.933   1.239   1.181
 1496SOL    HW2 5611   2.932   1.232   1.017
 1497SOL     OW 5612   3.500   1.099   1.079
 1497SOL    HW1 5613   3.505   1.180   1.138
 1497SOL    HW2 5614   3.414   1.101   1.028
 1498SOL     OW 5615   2.777   0.089   1.402
 1498SOL    HW1 5616   2.802   0.069   1.307
 1498SOL    HW2 5617   2.849   0.145   1.444
 1499SOL     OW 5618   2.842   1.116   1.719
 1499SOL    HW1 5619   2.743   1.122   1.729
 1499SOL    HW2 5620   2.865   1.036   1.663
 1500SOL     OW 5621   2.272   0.813   1.251
 1500SOL    HW1 5622   2.358   0.825   1.301
 1500SOL    HW2 5623   2.230   0.726   1.278
 1501SOL     OW 5624   3.136   0.386   1.262
 1501SOL    HW1 5625   3.157   0.460   1.326
 1501SOL    HW2 5626   3.047   0.403   1.219
 1502SOL     OW 5627   1.926   1.564   1.331
 1502SOL    HW1 5628   1.880   1.646   1.297
 1502SOL    HW2 5629   2.024   1.583   1.340
 1503SOL     OW 5630   3.114   1.348   0.388
 1503SOL    HW1 5631   3.164   1.425   0.428
 1503SOL    HW2 5632   3.019   1.350   0.420
 1504SOL     OW 5633   3.134   1.445   1.142
 1504SOL    HW1 5634   3.181   1.458   1.229
 1504SOL    HW2 5635   3.068   1.371   1.151
 1505SOL     OW 5636   3.444   0.639   0.472
 1505SOL    HW1 5637   3.413   0.700   0.545
 1505SOL    HW2 5638   3.494   0.691   0.403
 1506SOL     OW 5639   2.216   1.510   1.329
 1506SOL    HW1 5640   2.195   1.466   1.242
 1506SOL    HW2 5641   2.313   1.536   1.332
 1507SOL     OW 5642   2.264   0.751   1.598
 1507SOL    HW1 5643   2.332   0.806   1.551
 1507SOL    HW2 5644   2.304   0.663   1.625
 1508SOL     OW 5645   3.449   0.779   1.670
 1508SOL    HW1 5646   3.357   0.817   1.665
 1508SOL    HW2 5647   3.509   0.826   1.605
 1509SOL     OW 5648   2.875   0.105   1.770
 1509SOL    HW1 5649   2.881   0.190   1.718
 1509SOL    HW2 5650   2.907   0.029   1.713
 1510SOL     OW 5651   2.366   0.050   1.740
 1510SOL    HW1 5652   2.324  -0.007   1.670
 1510SOL    HW2 5653   2.300   0.119   1.772
 1511SOL     OW 5654   2.435   0.870   1.029
 1511SOL    HW1 5655   2.479   0.959   1.020
 1511SOL    HW2 5656   2.372   0.870   1.106
 1512SOL     OW 5657   3.222   0.862   1.045
 1512SOL    HW1 5658   3.147   0.862   0.979
 1512SOL    HW2 5659   3.259   0.770   1.054
 1513SOL     OW 5660   3.071   0.525   0.275
 1513SOL    HW1 5661   3.084   0.441   0.329
 1513SOL    HW2 5662   3.042   0.599   0.335
 1514SOL     OW 5663   2.169   0.213   1.231
 1514SOL    HW1 5664   2.146   0.250   1.321
 1514SOL    HW2 5665   2.139   0.118   1.225
 1515SOL     OW 5666   1.899   1.310   1.282
 1515SOL    HW1 5667   1.952   1.261   1.350
 1515SOL    HW2 5668   1.921   1.408   1.287
 1516SOL     OW 5669   2.594   0.634   1.064
 1516SOL    HW1 5670   2.653   0.608   0.988
 1516SOL    HW2 5671   2.566   0.730   1.053
 1517SOL     OW 5672   3.590   0.935   1.854
 1517SOL    HW1 5673   3.544   0.928   1.765
 1517SOL    HW2 5674   3.528   0.979   1.920
 1518SOL     OW 5675   2.169   0.063   0.618
 1518SOL    HW1 5676   2.158   0.157   0.651
 1518SOL    HW2 5677   2.164   0.000   0.695
 1519SOL     OW 5678   3.484   0.367   0.374
 1519SOL    HW1 5679   3.486   0.291   0.438
 1519SOL    HW2 5680   3.436   0.444   0.414
 1520SOL     OW 5681   2.885   0.766   0.966
 1520SOL    HW1 5682   2.900   0.787   1.062
 1520SOL    HW2 5683   2.855   0.671   0.957
 1521SOL     OW 5684   2.842   1.573   1.700
 1521SOL    HW1 5685   2.822   1.617   1.612
 1521SOL    HW2 5686   2.881   1.482   1.684
 1522SOL     OW 5687   3.721   1.518   1.605
 1522SOL    HW1 5688   3.735   1.545   1.510
 1522SOL    HW2 5689   3.804   1.540   1.658
 1523SOL     OW 5690   2.212   0.898   1.804
 1523SOL    HW1 5691   2.288   0.942   1.852
 1523SOL    HW2 5692   2.247   0.851   1.722
 1524SOL     OW 5693   3.402   0.274   0.125
 1524SOL    HW1 5694   3.341   0.199   0.148
 1524SOL    HW2 5695   3.424   0.326   0.208
 1525SOL     OW 5696   3.165   0.838   0.042
 1525SOL    HW1 5697   3.199   0.745   0.057
 1525SOL    HW2 5698   3.183   0.865  -0.053
 1526SOL     OW 5699   2.930   1.333   0.849
 1526SOL    HW1 5700   2.937   1.249   0.794
 1526SOL    HW2 5701   2.992   1.402   0.813
 1527SOL     OW 5702   2.181   0.810   0.949
 1527SOL    HW1 5703   2.274   0.846   0.954
 1527SOL    HW2 5704   2.175   0.725   1.001
 1528SOL     OW 5705   3.000   0.380   1.678
 1528SOL    HW1 5706   2.955   0.443   1.742
 1528SOL    HW2 5707   3.093   0.411   1.661
 1529SOL     OW 5708   3.022   0.207   1.477
 1529SOL    HW1 5709   3.022   0.271   1.554
 1529SOL    HW2 5710   3.050   0.255   1.394
 1530SOL     OW 5711   1.950   1.801   0.927
 1530SOL    HW1 5712   1.908   1.715   0.900
 1530SOL    HW2 5713   2.044   1.804   0.893
 1531SOL     OW 5714   2.366   1.568   0.910
 1531SOL    HW1 5715   2.432   1.642   0.919
 1531SOL    HW2 5716   2.410   1.489   0.868
 1532SOL     OW 5717   2.864   0.796   1.238
 1532SOL    HW1 5718   2.905   0.764   1.324
 1532SOL    HW2 5719   2.768   0.769   1.235
 1533SOL     OW 5720   1.902   0.544   1.114
 1533SOL    HW1 5721   1.987   0.511   1.073
 1533SOL    HW2 5722   1.915   0.559   1.212
 1534SOL     OW 5723   2.051   0.520   1.722
 1534SOL    HW1 5724   2.110   0.480   1.652
 1534SOL    HW2 5725   1.993   0.591   1.681
 1535SOL     OW 5726   3.231   0.950   1.660
 1535SOL    HW1 5727   3.270   1.039   1.680
 1535SOL    HW2 5728   3.241   0.930   1.563
 1536SOL     OW 5729   2.677   0.572   0.325
 1536SOL    HW1 5730   2.684   0.483   0.279
 1536SOL    HW2 5731   2.583   0.606   0.317
 1537SOL     OW 5732   3.519   0.604   1.206
 1537SOL    HW1 5733   3.481   0.535   1.268
 1537SOL    HW2 5734   3.601   0.568   1.162
 1538SOL     OW 5735   2.114   1.564   1.744
 1538SOL    HW1 5736   2.084   1.621   1.820
 1538SOL    HW2 5737   2.107   1.467   1.770
 1539SOL     OW 5738   2.533   0.464   1.269
 1539SOL    HW1 5739   2.499   0.375   1.239
 1539SOL    HW2 5740   2.559   0.518   1.189
 1540SOL     OW 5741   2.792   1.678   1.465
 1540SOL    HW1 5742   2.768   1.660   1.370
 1540SOL    HW2 5743   2.822   1.772   1.475
 1541SOL     OW 5744   2.335   0.500   0.191
 1541SOL    HW1 5745   2.396   0.580   0.195
 1541SOL    HW2 5746   2.240   0.531   0.198
 1542SOL     OW 5747   2.021   1.137   1.466
 1542SOL    HW1 5748   2.043   1.076   1.542
 1542SOL    HW2 5749   2.031   1.088   1.380
 1543SOL     OW 5750   3.209   1.059   1.234
 1543SOL    HW1 5751   3.233   0.996   1.160
 1543SOL    HW2 5752   3.119   1.099   1.216
 1544SOL     OW 5753   3.164   0.855   0.309
 1544SOL    HW1 5754   3.078   0.824   0.351
 1544SOL    HW2 5755   3.160   0.841   0.210
 1545SOL     OW 5756   3.621   1.747   1.154
 1545SOL    HW1 5757   3.682   1.777   1.081
 1545SOL    HW2 5758   3.583   1.658   1.132
 1546SOL     OW 5759   3.114   1.731   1.128
 1546SOL    HW1 5760   3.198   1.736   1.074
 1546SOL    HW2 5761   3.091   1.635   1.146
 1547SOL     OW 5762   1.945   1.258   1.022
 1547SOL    HW1 5763   1.940   1.257   1.122
 1547SOL    HW2 5764   1.862   1.217   0.984
 1548SOL     OW 5765   2.765   0.086   0.133
 1548SOL    HW1 5766   2.816   0.087   0.047
 1548SOL    HW2 5767   2.821   0.044   0.204
 1549SOL     OW 5768   3.588   0.135   0.523
 1549SOL    HW1 5769   3.661   0.118   0.456
 1549SOL    HW2 5770   3.557   0.048   0.561
 1550SOL     OW 5771   3.250   1.573   0.477
 1550SOL    HW1 5772   3.317   1.585   0.403
 1550SOL    HW2 5773   3.210   1.662   0.500
 1551SOL     OW 5774   1.992   1.794   1.851
 1551SOL    HW1 5775   1.951   1.720   1.904
 1551SOL    HW2 5776   2.056   1.845   1.909
 1552SOL     OW 5777   3.142   0.927   0.672
 1552SOL    HW1 5778   3.202   0.846   0.674
 1552SOL    HW2 5779   3.182   0.996   0.612
 1553SOL     OW 5780   2.692   1.273   1.422
 1553SOL    HW1 5781   2.687   1.306   1.517
 1553SOL    HW2 5782   2.606   1.292   1.376
 1554SOL     OW 5783   2.534   1.616   0.154
 1554SOL    HW1 5784   2.543   1.626   0.055
 1554SOL    HW2 5785   2.494   1.527   0.175
 1555SOL     OW 5786   3.512   1.720   1.394
 1555SOL    HW1 5787   3.565   1.730   1.310
 1555SOL    HW2 5788   3.485   1.810   1.428
 1556SOL     OW 5789   3.703   0.175   0.963
 1556SOL    HW1 5790   3.742   0.090   0.927
 1556SOL    HW2 5791   3.605   0.177   0.944
 1557SOL     OW 5792   2.684   1.002   1.372
 1557SOL    HW1 5793   2.724   1.001   1.280
 1557SOL    HW2 5794   2.694   1.094   1.412
 1558SOL     OW 5795   2.778   0.910   0.291
 1558SOL    HW1 5796   2.841   0.948   0.223
 1558SOL    HW2 5797   2.818   0.827   0.330
 1559SOL     OW 5798   2.234   1.288   1.490
 1559SOL    HW1 5799   2.221   1.381   1.456
 1559SOL    HW2 5800   2.150   1.236   1.477
 1560SOL     OW 5801   3.476   1.292   1.289
 1560SOL    HW1 5802   3.536   1.295   1.369
 1560SOL    HW2 5803   3.401   1.356   1.302
 1561SOL     OW 5804   2.901   1.098   0.696
 1561SOL    HW1 5805   2.831   1.051   0.750
 1561SOL    HW2 5806   2.960   1.030   0.653
 1562SOL     OW 5807   2.876   0.236   0.971
 1562SOL    HW1 5808   2.868   0.200   0.878
 1562SOL    HW2 5809   2.874   0.160   1.036
 1563SOL     OW 5810   3.571   0.385   1.381
 1563SOL    HW1 5811   3.644   0.454   1.385
 1563SOL    HW2 5812   3.599   0.310   1.322
 1564SOL     OW 5813   2.117   1.348   0.290
 1564SOL    HW1 5814   2.021   1.349   0.263
 1564SOL    HW2 5815   2.129   1.401   0.374
 1565SOL     OW 5816   1.967   1.013   1.726
 1565SOL    HW1 5817   1.890   0.980   1.780
 1565SOL    HW2 5818   2.052   0.983   1.768
 1566SOL     OW 5819   2.534   0.203   1.489
 1566SOL    HW1 5820   2.624   0.187   1.449
 1566SOL    HW2 5821   2.542   0.208   1.588
 1567SOL     OW 5822   3.302   0.856   1.398
 1567SOL    HW1 5823   3.245   0.908   1.335
 1567SOL    HW2 5824   3.398   0.868   1.374
 1568SOL     OW 5825   1.934   0.166   0.318
 1568SOL    HW1 5826   1.917   0.249   0.264
 1568SOL    HW2 5827   2.024   0.129   0.296
 1569SOL     OW 5828   3.045   1.335   0.119
 1569SOL    HW1 5829   2.946   1.324   0.121
 1569SOL    HW2 5830   3.079   1.350   0.212
 1570SOL     OW 5831   2.475   0.842   1.431
 1570SOL    HW1 5832   2.531   0.923   1.414
 1570SOL    HW2 5833   2.534   0.762   1.434
 1571SOL     OW 5834   3.355   1.767   0.959
 1571SOL    HW1 5835   3.388   1.831   0.890
 1571SOL    HW2 5836   3.421   1.761   1.034
 1572SOL     OW 5837   2.578   0.565   1.708
 1572SOL    HW1 5838   2.597   0.630   1.782
 1572SOL    HW2 5839   2.638   0.485   1.717
 1573SOL     OW 5840   3.312   1.220   1.633
 1573SOL    HW1 5841   3.303   1.210   1.732
 1573SOL    HW2 5842   3.408   1.213   1.607
 1574SOL     OW 5843   2.252   1.741   1.560
 1574SOL    HW1 5844   2.161   1.782   1.558
 1574SOL    HW2 5845   2.245   1.647   1.592
 1575SOL     OW 5846   3.536   0.883   1.254
 1575SOL    HW1 5847   3.509   0.794   1.217
 1575SOL    HW2 5848   3.537   0.951   1.181
 1576SOL     OW 5849   3.087   0.325   0.449
 1576SOL    HW1 5850   3.152   0.251   0.438
 1576SOL    HW2 5851   3.107   0.375   0.533
 1577SOL     OW 5852   3.639   0.342   1.642
 1577SOL    HW1 5853   3.622   0.373   1.548
 1577SOL    HW2 5854   3.555   0.305   1.680
 1578SOL     OW 5855   3.592   0.934   1.517
 1578SOL    HW1 5856   3.630   1.025   1.532
 1578SOL    HW2 5857   3.584   0.917   1.418
 1579SOL     OW 5858   2.523   1.790   0.953
 1579SOL    HW1 5859   2.477   1.878   0.940
 1579SOL    HW2 5860   2.622   1.802   0.946
 1580SOL     OW 5861   2.721   0.956   0.861
 1580SOL    HW1 5862   2.775   0.887   0.909
 1580SOL    HW2 5863   2.689   1.025   0.927
 1581SOL     OW 5864   2.945   0.984   0.087
 1581SOL    HW1 5865   2.922   1.037   0.005
 1581SOL    HW2 5866   3.026   0.928   0.068
 1582SOL     OW 5867   3.723   1.569   0.851
 1582SOL    HW1 5868   3.652   1.557   0.781
 1582SOL    HW2 5869   3.724   1.490   0.911
 1583SOL     OW 5870   2.083   1.314   1.844
 1583SOL    HW1 5871   2.018   1.241   1.823
 1583SOL    HW2 5872   2.087   1.328   1.942
 1584SOL     OW 5873   1.941   1.240   0.653
 1584SOL    HW1 5874   1.940   1.193   0.741
 1584SOL    HW2 5875   2.023   1.212   0.602
 1585SOL     OW 5876   2.534   1.391   1.624
 1585SOL    HW1 5877   2.456   1.341   1.662
 1585SOL    HW2 5878   2.531   1.486   1.655
 1586SOL     OW 5879   3.686   0.192   1.227
 1586SOL    HW1 5880   3.682   0.102   1.271
 1586SOL    HW2 5881   3.689   0.181   1.128
 1587SOL     OW 5882   3.567   1.487   1.104
 1587SOL    HW1 5883   3.474   1.462   1.077
 1587SOL    HW2 5884   3.593   1.437   1.186
 1588SOL     OW 5885   2.179   0.547   1.280
 1588SOL    HW1 5886   2.217   0.488   1.352
 1588SOL    HW2 5887   2.219   0.521   1.192
 1589SOL     OW 5888   2.674   1.586   0.687
 1589SOL    HW1 5889   2.706   1.596   0.593
 1589SOL    HW2 5890   2.595   1.524   0.689
 1590SOL     OW 5891   3.286   0.214   1.112
 1590SOL    HW1 5892   3.338   0.149   1.167
 1590SOL    HW2 5893   3.237   0.277   1.173
 1591SOL     OW 5894   2.480   1.567   1.284
 1591SOL    HW1 5895   2.475   1.649   1.341
 1591SOL    HW2 5896   2.569   1.564   1.239
 1592SOL     OW 5897   3.214   0.052   0.168
 1592SOL    HW1 5898   3.249   0.011   0.084
 1592SOL    HW2 5899   3.124   0.014   0.188
 1593SOL     OW 5900   3.162   0.453   0.691
 1593SOL    HW1 5901   3.103   0.533   0.695
 1593SOL    HW2 5902   3.177   0.418   0.784
 1594SOL     OW 5903   3.455   0.221   0.882
 1594SOL    HW1 5904   3.371   0.220   0.936
 1594SOL    HW2 5905   3.457   0.304   0.826
 1595SOL     OW 5906   1.901   1.077   0.300
 1595SOL    HW1 5907   2.000   1.066   0.291
 1595SOL    HW2 5908   1.861   0.991   0.332
 1596SOL     OW 5909   2.092   0.628   1.975
 1596SOL    HW1 5910   1.999   0.626   2.012
 1596SOL    HW2 5911   2.093   0.589   1.883
 1597SOL     OW 5912   1.881   0.368   2.509
 1597SOL    HW1 5913   1.799   0.411   2.548
 1597SOL    HW2 5914   1.853   0.295   2.446
 1598SOL     OW 5915   2.431   1.275   3.027
 1598SOL    HW1 5916   2.338   1.268   2.990
 1598SOL    HW2 5917   2.442   1.364   3.071
 1599SOL     OW 5918   2.997   0.703   2.579
 1599SOL    HW1 5919   3.054   0.781   2.554
 1599SOL    HW2 5920   2.937   0.729   2.655
 1600SOL     OW 5921   3.617   0.607   2.093
 1600SOL    HW1 5922   3.605   0.594   1.994
 1600SOL    HW2 5923   3.587   0.526   2.142
 1601SOL     OW 5924   2.630   1.144   2.885
 1601SOL    HW1 5925   2.552   1.161   2.945
 1601SOL    HW2 5926   2.664   1.231   2.849
 1602SOL     OW 5927   2.712   0.798   3.685
 1602SOL    HW1 5928   2.708   0.874   3.750
 1602SOL    HW2 5929   2.734   0.834   3.594
 1603SOL     OW 5930   2.547   1.012   2.527
 1603SOL    HW1 5931   2.616   0.996   2.597
 1603SOL    HW2 5932   2.474   1.069   2.565
 1604SOL     OW 5933   2.548   1.161   3.665
 1604SOL    HW1 5934   2.608   1.240   3.679
 1604SOL    HW2 5935   2.462   1.192   3.624
 1605SOL     OW 5936   2.197   1.435   2.923
 1605SOL    HW1 5937   2.119   1.404   2.870
 1605SOL    HW2 5938   2.255   1.493   2.866
 1606SOL     OW 5939   2.300   0.392   3.361
 1606SOL    HW1 5940   2.382   0.336   3.370
 1606SOL    HW2 5941   2.219   0.334   3.365
 1607SOL     OW 5942   3.465   0.447   2.599
 1607SOL    HW1 5943   3.391   0.493   2.549
 1607SOL    HW2 5944   3.516   0.515   2.652
 1608SOL     OW 5945   2.093   1.713   2.345
 1608SOL    HW1 5946   2.127   1.790   2.399
 1608SOL    HW2 5947   2.137   1.713   2.255
 1609SOL     OW 5948   2.989   1.341   3.552
 1609SOL    HW1 5949   3.036   1.341   3.640
 1609SOL    HW2 5950   2.941   1.254   3.541
 1610SOL     OW 5951   2.092   1.434   2.400
 1610SOL    HW1 5952   2.066   1.530   2.400
 1610SOL    HW2 5953   2.021   1.380   2.445
 1611SOL     OW 5954   2.102   1.091   2.748
 1611SOL    HW1 5955   2.116   1.007   2.800
 1611SOL    HW2 5956   2.047   1.155   2.803
 1612SOL     OW 5957   2.482   1.786   3.301
 1612SOL    HW1 5958   2.390   1.769   3.336
 1612SOL    HW2 5959   2.510   1.878   3.327
 1613SOL     OW 5960   2.468   0.964   1.985
 1613SOL    HW1 5961   2.475   1.048   1.931
 1613SOL    HW2 5962   2.514   0.977   2.073
 1614SOL     OW 5963   3.456   0.114   3.342
 1614SOL    HW1 5964   3.438   0.181   3.270
 1614SOL    HW2 5965   3.453   0.160   3.431
 1615SOL     OW 5966   1.984   0.643   2.425
 1615SOL    HW1 5967   1.939   0.555   2.442
 1615SOL    HW2 5968   1.983   0.697   2.509
 1616SOL     OW 5969   3.704   1.767   2.221
 1616SOL    HW1 5970   3.758   1.738   2.301
 1616SOL    HW2 5971   3.734   1.857   2.192
 1617SOL     OW 5972   1.889   1.596   1.979
 1617SOL    HW1 5973   1.870   1.500   2.000
 1617SOL    HW2 5974   1.856   1.654   2.054
 1618SOL     OW 5975   3.551   0.922   2.474
 1618SOL    HW1 5976   3.646   0.893   2.482
 1618SOL    HW2 5977   3.543   0.987   2.399
 1619SOL     OW 5978   3.503   1.108   2.294
 1619SOL    HW1 5979   3.589   1.110   2.242
 1619SOL    HW2 5980   3.517   1.155   2.382
 1620SOL     OW 5981   1.975   0.737   3.459
 1620SOL    HW1 5982   2.063   0.724   3.504
 1620SOL    HW2 5983   1.962   0.834   3.437
 1621SOL     OW 5984   2.475   1.365   2.588
 1621SOL    HW1 5985   2.426   1.278   2.597
 1621SOL    HW2 5986   2.452   1.408   2.501
 1622SOL     OW 5987   3.155   1.228   3.285
 1622SOL    HW1 5988   3.192   1.155   3.227
 1622SOL    HW2 5989   3.207   1.233   3.370
 1623SOL     OW 5990   2.671   0.004   2.364
 1623SOL    HW1 5991   2.711   0.095   2.355
 1623SOL    HW2 5992   2.571   0.012   2.370
 1624SOL     OW 5993   2.059   0.976   3.126
 1624SOL    HW1 5994   2.148   0.931   3.112
 1624SOL    HW2 5995   1.986   0.911   3.107
 1625SOL     OW 5996   3.387   0.999   2.052
 1625SOL    HW1 5997   3.324   0.923   2.065
 1625SOL    HW2 5998   3.435   1.017   2.138
 1626SOL     OW 5999   3.049   1.792   3.478
 1626SOL    HW1 6000   3.073   1.852   3.402
 1626SOL    HW2 6001   3.056   1.697   3.448
 1627SOL     OW 6002   2.179   0.251   3.663
 1627SOL    HW1 6003   2.250   0.322   3.669
 1627SOL    HW2 6004   2.091   0.290   3.691
 1628SOL     OW 6005   2.460   0.729   2.132
 1628SOL    HW1 6006   2.484   0.798   2.064
 1628SOL    HW2 6007   2.382   0.762   2.186
 1629SOL     OW 6008   3.143   0.345   2.806
 1629SOL    HW1 6009   3.057   0.295   2.793
 1629SOL    HW2 6010   3.205   0.291   2.862
 1630SOL     OW 6011   3.438   1.662   2.169
 1630SOL    HW1 6012   3.527   1.708   2.172
 1630SOL    HW2 6013   3.417   1.638   2.074
 1631SOL     OW 6014   2.669   0.605   3.327
 1631SOL    HW1 6015   2.622   0.602   3.416
 1631SOL    HW2 6016   2.618   0.550   3.261
 1632SOL     OW 6017   3.256   0.469   3.536
 1632SOL    HW1 6018   3.236   0.512   3.624
 1632SOL    HW2 6019   3.334   0.407   3.545
 1633SOL     OW 6020   2.835   0.890   3.434
 1633SOL    HW1 6021   2.881   0.806   3.405
 1633SOL    HW2 6022   2.779   0.924   3.359
 1634SOL     OW 6023   2.853   0.410   3.104
 1634SOL    HW1 6024   2.776   0.444   3.158
 1634SOL    HW2 6025   2.819   0.359   3.025
 1635SOL     OW 6026   2.903   0.701   2.291
 1635SOL    HW1 6027   2.929   0.697   2.387
 1635SOL    HW2 6028   2.818   0.650   2.277
 1636SOL     OW 6029   1.938   0.811   2.651
 1636SOL    HW1 6030   2.037   0.799   2.660
 1636SOL    HW2 6031   1.914   0.906   2.672
 1637SOL     OW 6032   1.992   1.821   3.433
 1637SOL    HW1 6033   1.982   1.806   3.532
 1637SOL    HW2 6034   1.906   1.857   3.397
 1638SOL     OW 6035   2.727   0.348   2.057
 1638SOL    HW1 6036   2.786   0.411   2.008
 1638SOL    HW2 6037   2.746   0.254   2.028
 1639SOL     OW 6038   3.581   0.585   3.693
 1639SOL    HW1 6039   3.555   0.674   3.657
 1639SOL    HW2 6040   3.579   0.517   3.620
 1640SOL     OW 6041   3.224   1.144   2.407
 1640SOL    HW1 6042   3.307   1.115   2.359
 1640SOL    HW2 6043   3.175   1.211   2.351
 1641SOL     OW 6044   2.870   1.456   2.339
 1641SOL    HW1 6045   2.824   1.528   2.287
 1641SOL    HW2 6046   2.866   1.476   2.437
 1642SOL     OW 6047   2.213   1.801   2.715
 1642SOL    HW1 6048   2.263   1.715   2.721
 1642SOL    HW2 6049   2.278   1.878   2.712
 1643SOL     OW 6050   3.657   1.066   2.735
 1643SOL    HW1 6051   3.595   1.051   2.659
 1643SOL    HW2 6052   3.605   1.077   2.820
 1644SOL     OW 6053   2.183   0.943   2.104
 1644SOL    HW1 6054   2.265   0.982   2.062
 1644SOL    HW2 6055   2.156   0.861   2.055
 1645SOL     OW 6056   3.320   0.735   2.590
 1645SOL    HW1 6057   3.315   0.670   2.665
 1645SOL    HW2 6058   3.400   0.794   2.603
 1646SOL     OW 6059   2.323   1.266   3.589
 1646SOL    HW1 6060   2.273   1.267   3.503
 1646SOL    HW2 6061   2.260   1.248   3.665
 1647SOL     OW 6062   2.064   0.285   3.360
 1647SOL    HW1 6063   1.984   0.345   3.347
 1647SOL    HW2 6064   2.054   0.236   3.446
 1648SOL     OW 6065   3.494   1.377   1.943
 1648SOL    HW1 6066   3.462   1.471   1.933
 1648SOL    HW2 6067   3.418   1.314   1.931
 1649SOL     OW 6068   3.262   0.107   2.288
 1649SOL    HW1 6069   3.238   0.070   2.198
 1649SOL    HW2 6070   3.361   0.123   2.292
 1650SOL     OW 6071   2.111   1.785   3.103
 1650SOL    HW1 6072   2.168   1.720   3.153
 1650SOL    HW2 6073   2.095   1.752   3.010
 1651SOL     OW 6074   2.802   1.698   2.766
 1651SOL    HW1 6075   2.882   1.641   2.787
 1651SOL    HW2 6076   2.753   1.658   2.689
 1652SOL     OW 6077   2.244   0.700   2.342
 1652SOL    HW1 6078   2.289   0.610   2.339
 1652SOL    HW2 6079   2.150   0.689   2.375
 1653SOL     OW 6080   3.409   0.222   3.591
 1653SOL    HW1 6081   3.404   0.259   3.683
 1653SOL    HW2 6082   3.337   0.153   3.579
 1654SOL     OW 6083   2.476   0.122   1.979
 1654SOL    HW1 6084   2.574   0.100   1.986
 1654SOL    HW2 6085   2.445   0.105   1.886
 1655SOL     OW 6086   2.643   0.264   3.611
 1655SOL    HW1 6087   2.710   0.203   3.654
 1655SOL    HW2 6088   2.570   0.283   3.676
 1656SOL     OW 6089   3.213   0.590   3.295
 1656SOL    HW1 6090   3.241   0.547   3.380
 1656SOL    HW2 6091   3.238   0.686   3.296
 1657SOL     OW 6092   2.665   1.402   2.786
 1657SOL    HW1 6093   2.755   1.416   2.744
 1657SOL    HW2 6094   2.594   1.404   2.715
 1658SOL     OW 6095   2.784   0.503   2.761
 1658SOL    HW1 6096   2.759   0.494   2.665
 1658SOL    HW2 6097   2.832   0.421   2.792
 1659SOL     OW 6098   2.401   0.064   2.374
 1659SOL    HW1 6099   2.320   0.065   2.432
 1659SOL    HW2 6100   2.404   0.147   2.319
 1660SOL     OW 6101   3.296   1.188   1.903
 1660SOL    HW1 6102   3.328   1.112   1.960
 1660SOL    HW2 6103   3.204   1.215   1.933
 1661SOL     OW 6104   2.159   0.035   2.033
 1661SOL    HW1 6105   2.208   0.119   2.012
 1661SOL    HW2 6106   2.221  -0.030   2.078
 1662SOL     OW 6107   2.797   0.236   2.342
 1662SOL    HW1 6108   2.749   0.277   2.264
 1662SOL    HW2 6109   2.896   0.234   2.323
 1663SOL     OW 6110   2.938   0.683   3.326
 1663SOL    HW1 6111   2.858   0.622   3.329
 1663SOL    HW2 6112   3.019   0.630   3.302
 1664SOL     OW 6113   2.321   1.152   2.603
 1664SOL    HW1 6114   2.250   1.125   2.668
 1664SOL    HW2 6115   2.295   1.124   2.510
 1665SOL     OW 6116   3.133   1.797   2.453
 1665SOL    HW1 6117   3.177   1.861   2.389
 1665SOL    HW2 6118   3.083   1.849   2.523
 1666SOL     OW 6119   2.894   0.549   1.878
 1666SOL    HW1 6120   2.853   0.631   1.839
 1666SOL    HW2 6121   2.958   0.575   1.951
 1667SOL     OW 6122   1.940   0.556   3.248
 1667SOL    HW1 6123   2.032   0.555   3.207
 1667SOL    HW2 6124   1.934   0.630   3.315
 1668SOL     OW 6125   2.728   0.454   2.504
 1668SOL    HW1 6126   2.696   0.526   2.442
 1668SOL    HW2 6127   2.752   0.373   2.451
 1669SOL     OW 6128   3.291   1.173   2.729
 1669SOL    HW1 6129   3.236   1.089   2.722
 1669SOL    HW2 6130   3.317   1.202   2.637
 1670SOL     OW 6131   3.328   0.590   2.854
 1670SOL    HW1 6132   3.298   0.495   2.861
 1670SOL    HW2 6133   3.401   0.606   2.920
 1671SOL     OW 6134   3.719   0.833   2.239
 1671SOL    HW1 6135   3.761   0.769   2.303
 1671SOL    HW2 6136   3.681   0.782   2.161
 1672SOL     OW 6137   2.350   1.385   2.036
 1672SOL    HW1 6138   2.263   1.370   2.083
 1672SOL    HW2 6139   2.333   1.411   1.941
 1673SOL     OW 6140   3.526   1.280   2.519
 1673SOL    HW1 6141   3.625   1.288   2.533
 1673SOL    HW2 6142   3.481   1.364   2.550
 1674SOL     OW 6143   3.252   0.575   1.940
 1674SOL    HW1 6144   3.198   0.554   2.021
 1674SOL    HW2 6145   3.343   0.534   1.949
 1675SOL     OW 6146   2.389   0.256   2.190
 1675SOL    HW1 6147   2.416   0.197   2.115
 1675SOL    HW2 6148   2.389   0.351   2.159
 1676SOL     OW 6149   3.616   1.223   3.450
 1676SOL    HW1 6150   3.707   1.184   3.437
 1676SOL    HW2 6151   3.624   1.319   3.474
 1677SOL     OW 6152   3.500   1.099   2.941
 1677SOL    HW1 6153   3.505   1.180   3.000
 1677SOL    HW2 6154   3.414   1.101   2.890
 1678SOL     OW 6155   2.842   1.116   3.581
 1678SOL    HW1 6156   2.743   1.122   3.591
 1678SOL    HW2 6157   2.865   1.036   3.525
 1679SOL     OW 6158   2.567   1.050   2.230
 1679SOL    HW1 6159   2.553   1.057   2.329
 1679SOL    HW2 6160   2.651   0.999   2.212
 1680SOL     OW 6161   3.136   0.386   3.124
 1680SOL    HW1 6162   3.157   0.460   3.188
 1680SOL    HW2 6163   3.047   0.403   3.081
 1681SOL     OW 6164   1.926   1.564   3.193
 1681SOL    HW1 6165   1.880   1.646   3.159
 1681SOL    HW2 6166   2.024   1.583   3.202
 1682SOL     OW 6167   2.229   1.100   2.363
 1682SOL    HW1 6168   2.222   1.183   2.307
 1682SOL    HW2 6169   2.233   1.020   2.303
 1683SOL     OW 6170   3.114   1.348   2.250
 1683SOL    HW1 6171   3.164   1.425   2.290
 1683SOL    HW2 6172   3.019   1.350   2.282
 1684SOL     OW 6173   3.444   0.639   2.334
 1684SOL    HW1 6174   3.413   0.700   2.407
 1684SOL    HW2 6175   3.494   0.691   2.265
 1685SOL     OW 6176   2.216   1.510   3.191
 1685SOL    HW1 6177   2.195   1.466   3.104
 1685SOL    HW2 6178   2.313   1.536   3.194
 1686SOL     OW 6179   2.264   0.751   3.460
 1686SOL    HW1 6180   2.332   0.806   3.413
 1686SOL    HW2 6181   2.304   0.663   3.487
 1687SOL     OW 6182   3.449   0.779   3.532
 1687SOL    HW1 6183   3.357   0.817   3.527
 1687SOL    HW2 6184   3.509   0.826   3.467
 1688SOL     OW 6185   2.875   0.105   3.632
 1688SOL    HW1 6186   2.881   0.190   3.580
 1688SOL    HW2 6187   2.907   0.029   3.575
 1689SOL     OW 6188   2.366   0.050   3.602
 1689SOL    HW1 6189   2.324  -0.007   3.532
 1689SOL    HW2 6190   2.300   0.119   3.634
 1690SOL     OW 6191   2.435   0.870   2.891
 1690SOL    HW1 6192   2.479   0.959   2.882
 1690SOL    HW2 6193   2.372   0.870   2.968
 1691SOL     OW 6194   3.222   0.862   2.907
 1691SOL    HW1 6195   3.147   0.862   2.841
 1691SOL    HW2 6196   3.259   0.770   2.916
 1692SOL     OW 6197   3.071   0.525   2.137
 1692SOL    HW1 6198   3.084   0.441   2.191
 1692SOL    HW2 6199   3.042   0.599   2.197
 1693SOL     OW 6200   1.899   1.310   3.144
 1693SOL    HW1 6201   1.952   1.261   3.212
 1693SOL    HW2 6202   1.921   1.408   3.149
 1694SOL     OW 6203   2.594   0.634   2.926
 1694SOL    HW1 6204   2.653   0.608   2.850
 1694SOL    HW2 6205   2.566   0.730   2.915
 1695SOL     OW 6206   3.590   0.935   3.716
 1695SOL    HW1 6207   3.544   0.928   3.627
 1695SOL    HW2 6208   3.528   0.979   3.782
 1696SOL     OW 6209   2.169   0.063   2.480
 1696SOL    HW1 6210   2.158   0.157   2.513
 1696SOL    HW2 6211   2.164   0.000   2.557
 1697SOL     OW 6212   3.484   0.367   2.236
 1697SOL    HW1 6213   3.486   0.291   2.300
 1697SOL    HW2 6214   3.436   0.444   2.276
 1698SOL     OW 6215   2.885   0.766   2.828
 1698SOL    HW1 6216   2.900   0.787   2.924
 1698SOL    HW2 6217   2.855   0.671   2.819
 1699SOL     OW 6218   2.842   1.573   3.562
 1699SOL    HW1 6219   2.822   1.617   3.474
 1699SOL    HW2 6220   2.881   1.482   3.546
 1700SOL     OW 6221   3.721   1.518   3.467
 1700SOL    HW1 6222   3.735   1.545   3.372
 1700SOL    HW2 6223   3.804   1.540   3.520
 1701SOL     OW 6224   2.212   0.898   3.666
 1701SOL    HW1 6225   2.288   0.942   3.714
 1701SOL    HW2 6226   2.247   0.851   3.584
 1702SOL     OW 6227   3.402   0.274   1.987
 1702SOL    HW1 6228   3.341   0.199   2.010
 1702SOL    HW2 6229   3.424   0.326   2.070
 1703SOL     OW 6230   3.165   0.838   1.904
 1703SOL    HW1 6231   3.199   0.745   1.919
 1703SOL    HW2 6232   3.183   0.865   1.809
 1704SOL     OW 6233   2.181   0.810   2.811
 1704SOL    HW1 6234   2.274   0.846   2.816
 1704SOL    HW2 6235   2.175   0.725   2.863
 1705SOL     OW 6236   3.000   0.380   3.540
 1705SOL    HW1 6237   2.955   0.443   3.604
 1705SOL    HW2 6238   3.093   0.411   3.523
 1706SOL     OW 6239   3.022   0.207   3.339
 1706SOL    HW1 6240   3.022   0.271   3.416
 1706SOL    HW2 6241   3.050   0.255   3.256
 1707SOL     OW 6242   1.870   1.326   2.062
 1707SOL    HW1 6243   1.777   1.347   2.031
 1707SOL    HW2 6244   1.880   1.227   2.075
 1708SOL     OW 6245   1.950   1.801   2.789
 1708SOL    HW1 6246   1.908   1.715   2.762
 1708SOL    HW2 6247   2.044   1.804   2.755
 1709SOL     OW 6248   2.366   1.568   2.772
 1709SOL    HW1 6249   2.432   1.642   2.781
 1709SOL    HW2 6250   2.410   1.489   2.730
 1710SOL     OW 6251   2.864   0.796   3.100
 1710SOL    HW1 6252   2.905   0.764   3.186
 1710SOL    HW2 6253   2.768   0.769   3.097
 1711SOL     OW 6254   2.051   0.520   3.584
 1711SOL    HW1 6255   2.110   0.480   3.514
 1711SOL    HW2 6256   1.993   0.591   3.543
 1712SOL     OW 6257   3.231   0.950   3.522
 1712SOL    HW1 6258   3.270   1.039   3.542
 1712SOL    HW2 6259   3.241   0.930   3.425
 1713SOL     OW 6260   2.677   0.572   2.187
 1713SOL    HW1 6261   2.684   0.483   2.141
 1713SOL    HW2 6262   2.583   0.606   2.179
 1714SOL     OW 6263   3.519   0.604   3.068
 1714SOL    HW1 6264   3.481   0.535   3.130
 1714SOL    HW2 6265   3.601   0.568   3.024
 1715SOL     OW 6266   2.114   1.564   3.606
 1715SOL    HW1 6267   2.084   1.621   3.682
 1715SOL    HW2 6268   2.107   1.467   3.632
 1716SOL     OW 6269   2.792   1.678   3.327
 1716SOL    HW1 6270   2.768   1.660   3.232
 1716SOL    HW2 6271   2.822   1.772   3.337
 1717SOL     OW 6272   2.335   0.500   2.053
 1717SOL    HW1 6273   2.396   0.580   2.057
 1717SOL    HW2 6274   2.240   0.531   2.060
 1718SOL     OW 6275   2.021   1.137   3.328
 1718SOL    HW1 6276   2.043   1.076   3.404
 1718SOL    HW2 6277   2.031   1.088   3.242
 1719SOL     OW 6278   3.164   0.855   2.171
 1719SOL    HW1 6279   3.078   0.824   2.213
 1719SOL    HW2 6280   3.160   0.841   2.072
 1720SOL     OW 6281   3.621   1.747   3.016
 1720SOL    HW1 6282   3.682   1.777   2.943
 1720SOL    HW2 6283   3.583   1.658   2.994
 1721SOL     OW 6284   1.945   1.258   2.884
 1721SOL    HW1 6285   1.940   1.257   2.984
 1721SOL    HW2 6286   1.862   1.217   2.846
 1722SOL     OW 6287   2.550   1.662   3.578
 1722SOL    HW1 6288   2.494   1.743   3.587
 1722SOL    HW2 6289   2.602   1.666   3.492
 1723SOL     OW 6290   3.588   0.135   2.385
 1723SOL    HW1 6291   3.661   0.118   2.318
 1723SOL    HW2 6292   3.557   0.048   2.423
 1724SOL     OW 6293   1.992   1.794   3.713
 1724SOL    HW1 6294   1.951   1.720   3.766
 1724SOL    HW2 6295   2.056   1.845   3.771
 1725SOL     OW 6296   3.142   0.927   2.534
 1725SOL    HW1 6297   3.202   0.846   2.536
 1725SOL    HW2 6298   3.182   0.996   2.474
 1726SOL     OW 6299   2.692   1.273   3.284
 1726SOL    HW1 6300   2.687   1.306   3.379
 1726SOL    HW2 6301   2.606   1.292   3.238
 1727SOL     OW 6302   3.056   1.612   1.893
 1727SOL    HW1 6303   3.062   1.519   1.930
 1727SOL    HW2 6304   2.997   1.612   1.813
 1728SOL     OW 6305   2.684   1.002   3.234
 1728SOL    HW1 6306   2.724   1.001   3.142
 1728SOL    HW2 6307   2.694   1.094   3.274
 1729SOL     OW 6308   2.778   0.910   2.153
 1729SOL    HW1 6309   2.841   0.948   2.085
 1729SOL    HW2 6310   2.818   0.827   2.192
 1730SOL     OW 6311   3.366   1.607   1.906
 1730SOL    HW1 6312   3.274   1.644   1.913
 1730SOL    HW2 6313   3.404   1.627   1.816
 1731SOL     OW 6314   2.234   1.288   3.352
 1731SOL    HW1 6315   2.221   1.381   3.318
 1731SOL    HW2 6316   2.150   1.236   3.339
 1732SOL     OW 6317   2.901   1.098   2.558
 1732SOL    HW1 6318   2.831   1.051   2.612
 1732SOL    HW2 6319   2.960   1.030   2.515
 1733SOL     OW 6320   2.452   1.487   2.353
 1733SOL    HW1 6321   2.494   1.429   2.283
 1733SOL    HW2 6322   2.408   1.566   2.309
 1734SOL     OW 6323   3.571   0.385   3.243
 1734SOL    HW1 6324   3.644   0.454   3.247
 1734SOL    HW2 6325   3.599   0.310   3.184
 1735SOL     OW 6326   2.117   1.348   2.152
 1735SOL    HW1 6327   2.021   1.349   2.125
 1735SOL    HW2 6328   2.129   1.401   2.236
 1736SOL     OW 6329   1.967   1.013   3.588
 1736SOL    HW1 6330   1.890   0.980   3.642
 1736SOL    HW2 6331   2.052   0.983   3.630
 1737SOL     OW 6332   1.937   0.345   1.895
 1737SOL    HW1 6333   1.845   0.317   1.866
 1737SOL    HW2 6334   1.968   0.422   1.839
 1738SOL     OW 6335   3.302   0.856   3.260
 1738SOL    HW1 6336   3.245   0.908   3.197
 1738SOL    HW2 6337   3.398   0.868   3.236
 1739SOL     OW 6338   1.934   0.166   2.180
 1739SOL    HW1 6339   1.917   0.249   2.126
 1739SOL    HW2 6340   2.024   0.129   2.158
 1740SOL     OW 6341   3.045   1.335   1.981
 1740SOL    HW1 6342   2.946   1.324   1.983
 1740SOL    HW2 6343   3.079   1.350   2.074
 1741SOL     OW 6344   2.475   0.842   3.293
 1741SOL    HW1 6345   2.531   0.923   3.276
 1741SOL    HW2 6346   2.534   0.762   3.296
 1742SOL     OW 6347   3.355   1.767   2.821
 1742SOL    HW1 6348   3.388   1.831   2.752
 1742SOL    HW2 6349   3.421   1.761   2.896
 1743SOL     OW 6350   2.578   0.565   3.570
 1743SOL    HW1 6351   2.597   0.630   3.644
 1743SOL    HW2 6352   2.638   0.485   3.579
 1744SOL     OW 6353   3.312   1.220   3.495
 1744SOL    HW1 6354   3.303   1.210   3.594
 1744SOL    HW2 6355   3.408   1.213   3.469
 1745SOL     OW 6356   2.252   1.741   3.422
 1745SOL    HW1 6357   2.161   1.782   3.420
 1745SOL    HW2 6358   2.245   1.647   3.454
 1746SOL     OW 6359   3.536   0.883   3.116
 1746SOL    HW1 6360   3.509   0.794   3.079
 1746SOL    HW2 6361   3.537   0.951   3.043
 1747SOL     OW 6362   3.087   0.325   2.311
 1747SOL    HW1 6363   3.152   0.251   2.300
 1747SOL    HW2 6364   3.107   0.375   2.395
 1748SOL     OW 6365   2.456   0.745   2.514
 1748SOL    HW1 6366   2.506   0.830   2.495
 1748SOL    HW2 6367   2.368   0.747   2.466
 1749SOL     OW 6368   3.639   0.342   3.504
 1749SOL    HW1 6369   3.622   0.373   3.410
 1749SOL    HW2 6370   3.555   0.305   3.542
 1750SOL     OW 6371   3.592   0.934   3.379
 1750SOL    HW1 6372   3.630   1.025   3.394
 1750SOL    HW2 6373   3.584   0.917   3.280
 1751SOL     OW 6374   2.721   1.374   1.878
 1751SOL    HW1 6375   2.675   1.389   1.966
 1751SOL    HW2 6376   2.765   1.459   1.848
 1752SOL     OW 6377   2.523   1.790   2.815
 1752SOL    HW1 6378   2.477   1.878   2.802
 1752SOL    HW2 6379   2.622   1.802   2.808
 1753SOL     OW 6380   2.721   0.956   2.723
 1753SOL    HW1 6381   2.775   0.887   2.771
 1753SOL    HW2 6382   2.689   1.025   2.789
 1754SOL     OW 6383   2.945   0.984   1.949
 1754SOL    HW1 6384   2.922   1.037   1.867
 1754SOL    HW2 6385   3.026   0.928   1.930
 1755SOL     OW 6386   2.083   1.314   3.706
 1755SOL    HW1 6387   2.018   1.241   3.685
 1755SOL    HW2 6388   2.087   1.328   3.804
 1756SOL     OW 6389   1.941   1.240   2.515
 1756SOL    HW1 6390   1.940   1.193   2.603
 1756SOL    HW2 6391   2.023   1.212   2.464
 1757SOL     OW 6392   2.534   1.391   3.486
 1757SOL    HW1 6393   2.456   1.341   3.524
 1757SOL    HW2 6394   2.531   1.486   3.517
 1758SOL     OW 6395   3.686   0.192   3.089
 1758SOL    HW1 6396   3.682   0.102   3.133
 1758SOL    HW2 6397   3.689   0.181   2.990
 1759SOL     OW 6398   2.674   1.586   2.549
 1759SOL    HW1 6399   2.706   1.596   2.455
 1759SOL    HW2 6400   2.595   1.524   2.551
 1760SOL     OW 6401   3.286   0.214   2.974
 1760SOL    HW1 6402   3.338   0.149   3.029
 1760SOL    HW2 6403   3.237   0.277   3.035
 1761SOL     OW 6404   2.632   1.330   2.163
 1761SOL    HW1 6405   2.586   1.243   2.180
 1761SOL    HW2 6406   2.723   1.327   2.204
 1762SOL     OW 6407   2.480   1.567   3.146
 1762SOL    HW1 6408   2.475   1.649   3.203
 1762SOL    HW2 6409   2.569   1.564   3.101
 1763SOL     OW 6410   3.214   0.052   2.030
 1763SOL    HW1 6411   3.249   0.011   1.946
 1763SOL    HW2 6412   3.124   0.014   2.050
 1764SOL     OW 6413   3.162   0.453   2.553
 1764SOL    HW1 6414   3.103   0.533   2.557
 1764SOL    HW2 6415   3.177   0.418   2.646
 1765SOL     OW 6416   3.455   0.221   2.744
 1765SOL    HW1 6417   3.371   0.220   2.798
 1765SOL    HW2 6418   3.457   0.304   2.688
 1766SOL     OW 6419   1.901   1.077   2.162
 1766SOL    HW1 6420   2.000   1.066   2.153
 1766SOL    HW2 6421   1.861   0.991   2.194
 1767SOL     OW 6422   2.092   0.628   3.837
 1767SOL    HW1 6423   1.999   0.626   3.874
 1767SOL    HW2 6424   2.093   0.589   3.745
 1768SOL     OW 6425   2.087   0.275   4.720
 1768SOL    HW1 6426   2.122   0.258   4.812
 1768SOL    HW2 6427   1.999   0.230   4.708
 1769SOL     OW 6428   2.431   1.275   4.889
 1769SOL    HW1 6429   2.338   1.268   4.852
 1769SOL    HW2 6430   2.442   1.364   4.933
 1770SOL     OW 6431   3.417   1.511   4.427
 1770SOL    HW1 6432   3.360   1.495   4.508
 1770SOL    HW2 6433   3.358   1.521   4.347
 1771SOL     OW 6434   2.997   0.703   4.441
 1771SOL    HW1 6435   3.054   0.781   4.416
 1771SOL    HW2 6436   2.937   0.729   4.517
 1772SOL     OW 6437   3.617   0.607   3.955
 1772SOL    HW1 6438   3.605   0.594   3.856
 1772SOL    HW2 6439   3.587   0.526   4.004
 1773SOL     OW 6440   2.197   1.435   4.785
 1773SOL    HW1 6441   2.119   1.404   4.732
 1773SOL    HW2 6442   2.255   1.493   4.728
 1774SOL     OW 6443   3.465   0.447   4.461
 1774SOL    HW1 6444   3.391   0.493   4.411
 1774SOL    HW2 6445   3.516   0.515   4.514
 1775SOL     OW 6446   2.102   1.091   4.610
 1775SOL    HW1 6447   2.116   1.007   4.662
 1775SOL    HW2 6448   2.047   1.155   4.665
 1776SOL     OW 6449   2.482   1.786   5.163
 1776SOL    HW1 6450   2.390   1.769   5.198
 1776SOL    HW2 6451   2.510   1.878   5.189
 1777SOL     OW 6452   2.468   0.964   3.847
 1777SOL    HW1 6453   2.475   1.048   3.793
 1777SOL    HW2 6454   2.514   0.977   3.935
 1778SOL     OW 6455   1.889   1.596   3.841
 1778SOL    HW1 6456   1.870   1.500   3.862
 1778SOL    HW2 6457   1.856   1.654   3.916
 1779SOL     OW 6458   3.551   0.922   4.336
 1779SOL    HW1 6459   3.646   0.893   4.344
 1779SOL    HW2 6460   3.543   0.987   4.261
 1780SOL     OW 6461   3.503   1.108   4.156
 1780SOL    HW1 6462   3.589   1.110   4.104
 1780SOL    HW2 6463   3.517   1.155   4.244
 1781SOL     OW 6464   2.671   0.004   4.226
 1781SOL    HW1 6465   2.711   0.095   4.217
 1781SOL    HW2 6466   2.571   0.012   4.232
 1782SOL     OW 6467   2.059   0.976   4.988
 1782SOL    HW1 6468   2.148   0.931   4.974
 1782SOL    HW2 6469   1.986   0.911   4.969
 1783SOL     OW 6470   3.387   0.999   3.914
 1783SOL    HW1 6471   3.324   0.923   3.927
 1783SOL    HW2 6472   3.435   1.017   4.000
 1784SOL     OW 6473   2.460   0.729   3.994
 1784SOL    HW1 6474   2.484   0.798   3.926
 1784SOL    HW2 6475   2.382   0.762   4.048
 1785SOL     OW 6476   3.143   0.345   4.668
 1785SOL    HW1 6477   3.057   0.295   4.655
 1785SOL    HW2 6478   3.205   0.291   4.724
 1786SOL     OW 6479   3.438   1.662   4.031
 1786SOL    HW1 6480   3.527   1.708   4.034
 1786SOL    HW2 6481   3.417   1.638   3.936
 1787SOL     OW 6482   2.853   0.410   4.966
 1787SOL    HW1 6483   2.776   0.444   5.020
 1787SOL    HW2 6484   2.819   0.359   4.887
 1788SOL     OW 6485   2.903   0.701   4.153
 1788SOL    HW1 6486   2.929   0.697   4.249
 1788SOL    HW2 6487   2.818   0.650   4.139
 1789SOL     OW 6488   2.727   0.348   3.919
 1789SOL    HW1 6489   2.786   0.411   3.870
 1789SOL    HW2 6490   2.746   0.254   3.890
 1790SOL     OW 6491   3.224   1.144   4.269
 1790SOL    HW1 6492   3.307   1.115   4.221
 1790SOL    HW2 6493   3.175   1.211   4.213
 1791SOL     OW 6494   2.412   0.196   4.609
 1791SOL    HW1 6495   2.407   0.191   4.709
 1791SOL    HW2 6496   2.414   0.292   4.580
 1792SOL     OW 6497   2.870   1.456   4.201
 1792SOL    HW1 6498   2.824   1.528   4.149
 1792SOL    HW2 6499   2.866   1.476   4.299
 1793SOL     OW 6500   2.213   1.801   4.577
 1793SOL    HW1 6501   2.263   1.715   4.583
 1793SOL    HW2 6502   2.278   1.878   4.574
 1794SOL     OW 6503   3.657   1.066   4.597
 1794SOL    HW1 6504   3.595   1.051   4.521
 1794SOL    HW2 6505   3.605   1.077   4.682
 1795SOL     OW 6506   2.183   0.943   3.966
 1795SOL    HW1 6507   2.265   0.982   3.924
 1795SOL    HW2 6508   2.156   0.861   3.917
 1796SOL     OW 6509   3.320   0.735   4.452
 1796SOL    HW1 6510   3.315   0.670   4.527
 1796SOL    HW2 6511   3.400   0.794   4.465
 1797SOL     OW 6512   2.973   1.776   3.961
 1797SOL    HW1 6513   2.913   1.714   4.011
 1797SOL    HW2 6514   3.004   1.732   3.876
 1798SOL     OW 6515   3.494   1.377   3.805
 1798SOL    HW1 6516   3.462   1.471   3.795
 1798SOL    HW2 6517   3.418   1.314   3.793
 1799SOL     OW 6518   3.262   0.107   4.150
 1799SOL    HW1 6519   3.238   0.070   4.060
 1799SOL    HW2 6520   3.361   0.123   4.154
 1800SOL     OW 6521   2.111   1.785   4.965
 1800SOL    HW1 6522   2.168   1.720   5.015
 1800SOL    HW2 6523   2.095   1.752   4.872
 1801SOL     OW 6524   2.802   1.698   4.628
 1801SOL    HW1 6525   2.882   1.641   4.649
 1801SOL    HW2 6526   2.753   1.658   4.551
 1802SOL     OW 6527   2.244   0.700   4.204
 1802SOL    HW1 6528   2.289   0.610   4.201
 1802SOL    HW2 6529   2.150   0.689   4.237
 1803SOL     OW 6530   2.476   0.122   3.841
 1803SOL    HW1 6531   2.574   0.100   3.848
 1803SOL    HW2 6532   2.445   0.105   3.748
 1804SOL     OW 6533   2.784   0.503   4.623
 1804SOL    HW1 6534   2.759   0.494   4.527
 1804SOL    HW2 6535   2.832   0.421   4.654
 1805SOL     OW 6536   2.401   0.064   4.236
 1805SOL    HW1 6537   2.320   0.065   4.294
 1805SOL    HW2 6538   2.404   0.147   4.181
 1806SOL     OW 6539   3.296   1.188   3.765
 1806SOL    HW1 6540   3.328   1.112   3.822
 1806SOL    HW2 6541   3.204   1.215   3.795
 1807SOL     OW 6542   2.159   0.035   3.895
 1807SOL    HW1 6543   2.208   0.119   3.874
 1807SOL    HW2 6544   2.221  -0.030   3.940
 1808SOL     OW 6545   2.797   0.236   4.204
 1808SOL    HW1 6546   2.749   0.277   4.126
 1808SOL    HW2 6547   2.896   0.234   4.185
 1809SOL     OW 6548   3.089   1.570   4.517
 1809SOL    HW1 6549   3.110   1.644   4.452
 1809SOL    HW2 6550   3.157   1.570   4.590
 1810SOL     OW 6551   3.133   1.797   4.315
 1810SOL    HW1 6552   3.177   1.861   4.251
 1810SOL    HW2 6553   3.083   1.849   4.385
 1811SOL     OW 6554   2.894   0.549   3.740
 1811SOL    HW1 6555   2.853   0.631   3.701
 1811SOL    HW2 6556   2.958   0.575   3.813
 1812SOL     OW 6557   2.423   0.222   4.871
 1812SOL    HW1 6558   2.461   0.138   4.908
 1812SOL    HW2 6559   2.335   0.241   4.915
 1813SOL     OW 6560   2.728   0.454   4.366
 1813SOL    HW1 6561   2.696   0.526   4.304
 1813SOL    HW2 6562   2.752   0.373   4.313
 1814SOL     OW 6563   2.879   0.039   4.477
 1814SOL    HW1 6564   2.807   0.044   4.408
 1814SOL    HW2 6565   2.855  -0.030   4.546
 1815SOL     OW 6566   3.291   1.173   4.591
 1815SOL    HW1 6567   3.236   1.089   4.584
 1815SOL    HW2 6568   3.317   1.202   4.499
 1816SOL     OW 6569   3.328   0.590   4.716
 1816SOL    HW1 6570   3.298   0.495   4.723
 1816SOL    HW2 6571   3.401   0.606   4.782
 1817SOL     OW 6572   3.719   0.833   4.101
 1817SOL    HW1 6573   3.761   0.769   4.165
 1817SOL    HW2 6574   3.681   0.782   4.023
 1818SOL     OW 6575   2.350   1.385   3.898
 1818SOL    HW1 6576   2.263   1.370   3.945
 1818SOL    HW2 6577   2.333   1.411   3.803
 1819SOL     OW 6578   3.526   1.280   4.381
 1819SOL    HW1 6579   3.625   1.288   4.395
 1819SOL    HW2 6580   3.481   1.364   4.412
 1820SOL     OW 6581   3.252   0.575   3.802
 1820SOL    HW1 6582   3.198   0.554   3.883
 1820SOL    HW2 6583   3.343   0.534   3.811
 1821SOL     OW 6584   2.389   0.256   4.052
 1821SOL    HW1 6585   2.416   0.197   3.977
 1821SOL    HW2 6586   2.389   0.351   4.021
 1822SOL     OW 6587   2.973   1.195   4.824
 1822SOL    HW1 6588   2.933   1.239   4.905
 1822SOL    HW2 6589   2.932   1.232   4.741
 1823SOL     OW 6590   3.500   1.099   4.803
 1823SOL    HW1 6591   3.505   1.180   4.862
 1823SOL    HW2 6592   3.414   1.101   4.752
 1824SOL     OW 6593   3.136   0.386   4.986
 1824SOL    HW1 6594   3.157   0.460   5.050
 1824SOL    HW2 6595   3.047   0.403   4.943
 1825SOL     OW 6596   2.428   0.537   4.589
 1825SOL    HW1 6597   2.440   0.603   4.515
 1825SOL    HW2 6598   2.474   0.571   4.672
 1826SOL     OW 6599   3.114   1.348   4.112
 1826SOL    HW1 6600   3.164   1.425   4.152
 1826SOL    HW2 6601   3.019   1.350   4.144
 1827SOL     OW 6602   3.444   0.639   4.196
 1827SOL    HW1 6603   3.413   0.700   4.269
 1827SOL    HW2 6604   3.494   0.691   4.127
 1828SOL     OW 6605   2.216   1.510   5.053
 1828SOL    HW1 6606   2.195   1.466   4.966
 1828SOL    HW2 6607   2.313   1.536   5.056
 1829SOL     OW 6608   3.222   0.862   4.769
 1829SOL    HW1 6609   3.147   0.862   4.703
 1829SOL    HW2 6610   3.259   0.770   4.778
 1830SOL     OW 6611   3.071   0.525   3.999
 1830SOL    HW1 6612   3.084   0.441   4.053
 1830SOL    HW2 6613   3.042   0.599   4.059
 1831SOL     OW 6614   2.169   0.213   4.955
 1831SOL    HW1 6615   2.146   0.250   5.045
 1831SOL    HW2 6616   2.139   0.118   4.949
 1832SOL     OW 6617   1.899   1.310   5.006
 1832SOL    HW1 6618   1.952   1.261   5.074
 1832SOL    HW2 6619   1.921   1.408   5.011
 1833SOL     OW 6620   2.594   0.634   4.788
 1833SOL    HW1 6621   2.653   0.608   4.712
 1833SOL    HW2 6622   2.566   0.730   4.777
 1834SOL     OW 6623   3.484   0.367   4.098
 1834SOL    HW1 6624   3.486   0.291   4.162
 1834SOL    HW2 6625   3.436   0.444   4.138
 1835SOL     OW 6626   2.885   0.766   4.690
 1835SOL    HW1 6627   2.900   0.787   4.786
 1835SOL    HW2 6628   2.855   0.671   4.681
 1836SOL     OW 6629   3.402   0.274   3.849
 1836SOL    HW1 6630   3.341   0.199   3.872
 1836SOL    HW2 6631   3.424   0.326   3.932
 1837SOL     OW 6632   3.165   0.838   3.766
 1837SOL    HW1 6633   3.199   0.745   3.781
 1837SOL    HW2 6634   3.183   0.865   3.671
 1838SOL     OW 6635   3.022   0.207   5.201
 1838SOL    HW1 6636   3.022   0.271   5.278
 1838SOL    HW2 6637   3.050   0.255   5.118
 1839SOL     OW 6638   1.870   1.326   3.924
 1839SOL    HW1 6639   1.777   1.347   3.893
 1839SOL    HW2 6640   1.880   1.227   3.937
 1840SOL     OW 6641   2.366   1.568   4.634
 1840SOL    HW1 6642   2.432   1.642   4.643
 1840SOL    HW2 6643   2.410   1.489   4.592
 1841SOL     OW 6644   2.864   0.796   4.962
 1841SOL    HW1 6645   2.905   0.764   5.048
 1841SOL    HW2 6646   2.768   0.769   4.959
 1842SOL     OW 6647   1.902   0.544   4.838
 1842SOL    HW1 6648   1.987   0.511   4.797
 1842SOL    HW2 6649   1.915   0.559   4.936
 1843SOL     OW 6650   2.677   0.572   4.049
 1843SOL    HW1 6651   2.684   0.483   4.003
 1843SOL    HW2 6652   2.583   0.606   4.041
 1844SOL     OW 6653   3.519   0.604   4.930
 1844SOL    HW1 6654   3.481   0.535   4.992
 1844SOL    HW2 6655   3.601   0.568   4.886
 1845SOL     OW 6656   2.533   0.464   4.993
 1845SOL    HW1 6657   2.499   0.375   4.963
 1845SOL    HW2 6658   2.559   0.518   4.913
 1846SOL     OW 6659   2.335   0.500   3.915
 1846SOL    HW1 6660   2.396   0.580   3.919
 1846SOL    HW2 6661   2.240   0.531   3.922
 1847SOL     OW 6662   3.209   1.059   4.958
 1847SOL    HW1 6663   3.233   0.996   4.884
 1847SOL    HW2 6664   3.119   1.099   4.940
 1848SOL     OW 6665   3.164   0.855   4.033
 1848SOL    HW1 6666   3.078   0.824   4.075
 1848SOL    HW2 6667   3.160   0.841   3.934
 1849SOL     OW 6668   3.621   1.747   4.878
 1849SOL    HW1 6669   3.682   1.777   4.805
 1849SOL    HW2 6670   3.583   1.658   4.856
 1850SOL     OW 6671   1.945   1.258   4.746
 1850SOL    HW1 6672   1.940   1.257   4.846
 1850SOL    HW2 6673   1.862   1.217   4.708
 1851SOL     OW 6674   3.588   0.135   4.247
 1851SOL    HW1 6675   3.661   0.118   4.180
 1851SOL    HW2 6676   3.557   0.048   4.285
 1852SOL     OW 6677   3.250   1.573   4.201
 1852SOL    HW1 6678   3.317   1.585   4.127
 1852SOL    HW2 6679   3.210   1.662   4.224
 1853SOL     OW 6680   2.534   1.616   3.878
 1853SOL    HW1 6681   2.543   1.626   3.779
 1853SOL    HW2 6682   2.494   1.527   3.899
 1854SOL     OW 6683   3.703   0.175   4.687
 1854SOL    HW1 6684   3.742   0.090   4.651
 1854SOL    HW2 6685   3.605   0.177   4.668
 1855SOL     OW 6686   3.056   1.612   3.755
 1855SOL    HW1 6687   3.062   1.519   3.792
 1855SOL    HW2 6688   2.997   1.612   3.675
 1856SOL     OW 6689   2.684   1.002   5.096
 1856SOL    HW1 6690   2.724   1.001   5.004
 1856SOL    HW2 6691   2.694   1.094   5.136
 1857SOL     OW 6692   2.778   0.910   4.015
 1857SOL    HW1 6693   2.841   0.948   3.947
 1857SOL    HW2 6694   2.818   0.827   4.054
 1858SOL     OW 6695   2.876   0.236   4.695
 1858SOL    HW1 6696   2.868   0.200   4.602
 1858SOL    HW2 6697   2.874   0.160   4.760
 1859SOL     OW 6698   3.571   0.385   5.105
 1859SOL    HW1 6699   3.644   0.454   5.109
 1859SOL    HW2 6700   3.599   0.310   5.046
 1860SOL     OW 6701   1.937   0.345   3.757
 1860SOL    HW1 6702   1.845   0.317   3.728
 1860SOL    HW2 6703   1.968   0.422   3.701
 1861SOL     OW 6704   1.934   0.166   4.042
 1861SOL    HW1 6705   1.917   0.249   3.988
 1861SOL    HW2 6706   2.024   0.129   4.020
 1862SOL     OW 6707   3.045   1.335   3.843
 1862SOL    HW1 6708   2.946   1.324   3.845
 1862SOL    HW2 6709   3.079   1.350   3.936
 1863SOL     OW 6710   3.312   1.220   5.357
 1863SOL    HW1 6711   3.303   1.210   5.456
 1863SOL    HW2 6712   3.408   1.213   5.331
 1864SOL     OW 6713   3.536   0.883   4.978
 1864SOL    HW1 6714   3.509   0.794   4.941
 1864SOL    HW2 6715   3.537   0.951   4.905
 1865SOL     OW 6716   3.087   0.325   4.173
 1865SOL    HW1 6717   3.152   0.251   4.162
 1865SOL    HW2 6718   3.107   0.375   4.257
 1866SOL     OW 6719   2.456   0.745   4.376
 1866SOL    HW1 6720   2.506   0.830   4.357
 1866SOL    HW2 6721   2.368   0.747   4.328
 1867SOL     OW 6722   3.592   0.934   5.241
 1867SOL    HW1 6723   3.630   1.025   5.256
 1867SOL    HW2 6724   3.584   0.917   5.142
 1868SOL     OW 6725   2.721   1.374   3.740
 1868SOL    HW1 6726   2.675   1.389   3.828
 1868SOL    HW2 6727   2.765   1.459   3.710
 1869SOL     OW 6728   2.523   1.790   4.677
 1869SOL    HW1 6729   2.477   1.878   4.664
 1869SOL    HW2 6730   2.622   1.802   4.670
 1870SOL     OW 6731   2.945   0.984   3.811
 1870SOL    HW1 6732   2.922   1.037   3.729
 1870SOL    HW2 6733   3.026   0.928   3.792
 1871SOL     OW 6734   3.686   0.192   4.951
 1871SOL    HW1 6735   3.682   0.102   4.995
 1871SOL    HW2 6736   3.689   0.181   4.852
 1872SOL     OW 6737   3.286   0.214   4.836
 1872SOL    HW1 6738   3.338   0.149   4.891
 1872SOL    HW2 6739   3.237   0.277   4.897
 1873SOL     OW 6740   2.863   0.034   4.878
 1873SOL    HW1 6741   2.800  -0.038   4.847
 1873SOL    HW2 6742   2.956  -0.002   4.878
 1874SOL     OW 6743   2.632   1.330   4.025
 1874SOL    HW1 6744   2.586   1.243   4.042
 1874SOL    HW2 6745   2.723   1.327   4.066
 1875SOL     OW 6746   3.214   0.052   3.892
 1875SOL    HW1 6747   3.249   0.011   3.808
 1875SOL    HW2 6748   3.124   0.014   3.912
 1876SOL     OW 6749   3.162   0.453   4.415
 1876SOL    HW1 6750   3.103   0.533   4.419
 1876SOL    HW2 6751   3.177   0.418   4.508
 1877SOL     OW 6752   3.455   0.221   4.606
 1877SOL    HW1 6753   3.371   0.220   4.660
 1877SOL    HW2 6754   3.457   0.304   4.550
 1878SOL     OW 6755   1.901   1.077   4.024
 1878SOL    HW1 6756   2.000   1.066   4.015
 1878SOL    HW2 6757   1.861   0.991   4.056
 1879SOL     OW 6758   2.737   1.646   4.061
 1879SOL    HW1 6759   2.660   1.611   4.007
 1879SOL    HW2 6760   2.705   1.717   4.123
 1880SOL     OW 6761   2.092   2.490   0.113
 1880SOL    HW1 6762   1.999   2.488   0.150
 1880SOL    HW2 6763   2.093   2.451   0.021
 1881SOL     OW 6764   2.087   2.137   0.996
 1881SOL    HW1 6765   2.122   2.120   1.088
 1881SOL    HW2 6766   1.999   2.092   0.984
 1882SOL     OW 6767   1.881   2.230   0.647
 1882SOL    HW1 6768   1.799   2.273   0.686
 1882SOL    HW2 6769   1.853   2.157   0.584
 1883SOL     OW 6770   2.997   2.565   0.717
 1883SOL    HW1 6771   3.054   2.643   0.692
 1883SOL    HW2 6772   2.937   2.591   0.793
 1884SOL     OW 6773   3.617   2.469   0.231
 1884SOL    HW1 6774   3.605   2.456   0.132
 1884SOL    HW2 6775   3.587   2.388   0.280
 1885SOL     OW 6776   2.630   3.006   1.023
 1885SOL    HW1 6777   2.552   3.023   1.083
 1885SOL    HW2 6778   2.664   3.093   0.987
 1886SOL     OW 6779   2.712   2.660   1.823
 1886SOL    HW1 6780   2.708   2.736   1.888
 1886SOL    HW2 6781   2.734   2.696   1.732
 1887SOL     OW 6782   2.547   2.874   0.665
 1887SOL    HW1 6783   2.616   2.858   0.735
 1887SOL    HW2 6784   2.474   2.931   0.703
 1888SOL     OW 6785   2.548   3.023   1.803
 1888SOL    HW1 6786   2.608   3.102   1.817
 1888SOL    HW2 6787   2.462   3.054   1.762
 1889SOL     OW 6788   3.322   3.367   1.339
 1889SOL    HW1 6789   3.346   3.461   1.365
 1889SOL    HW2 6790   3.306   3.313   1.421
 1890SOL     OW 6791   2.300   2.254   1.499
 1890SOL    HW1 6792   2.382   2.198   1.508
 1890SOL    HW2 6793   2.219   2.196   1.503
 1891SOL     OW 6794   3.465   2.309   0.737
 1891SOL    HW1 6795   3.391   2.355   0.687
 1891SOL    HW2 6796   3.516   2.377   0.790
 1892SOL     OW 6797   2.093   3.575   0.483
 1892SOL    HW1 6798   2.127   3.652   0.537
 1892SOL    HW2 6799   2.137   3.575   0.393
 1893SOL     OW 6800   2.989   3.203   1.690
 1893SOL    HW1 6801   3.036   3.203   1.778
 1893SOL    HW2 6802   2.941   3.116   1.679
 1894SOL     OW 6803   2.092   3.296   0.538
 1894SOL    HW1 6804   2.066   3.392   0.538
 1894SOL    HW2 6805   2.021   3.242   0.583
 1895SOL     OW 6806   2.482   3.648   1.439
 1895SOL    HW1 6807   2.390   3.631   1.474
 1895SOL    HW2 6808   2.510   3.740   1.465
 1896SOL     OW 6809   2.468   2.826   0.123
 1896SOL    HW1 6810   2.475   2.910   0.069
 1896SOL    HW2 6811   2.514   2.839   0.211
 1897SOL     OW 6812   3.456   1.976   1.480
 1897SOL    HW1 6813   3.438   2.043   1.408
 1897SOL    HW2 6814   3.453   2.022   1.569
 1898SOL     OW 6815   1.984   2.505   0.563
 1898SOL    HW1 6816   1.939   2.417   0.580
 1898SOL    HW2 6817   1.983   2.559   0.647
 1899SOL     OW 6818   3.704   3.629   0.359
 1899SOL    HW1 6819   3.758   3.600   0.439
 1899SOL    HW2 6820   3.734   3.719   0.330
 1900SOL     OW 6821   1.889   3.458   0.117
 1900SOL    HW1 6822   1.870   3.362   0.138
 1900SOL    HW2 6823   1.856   3.516   0.192
 1901SOL     OW 6824   3.551   2.784   0.612
 1901SOL    HW1 6825   3.646   2.755   0.620
 1901SOL    HW2 6826   3.543   2.849   0.537
 1902SOL     OW 6827   3.503   2.970   0.432
 1902SOL    HW1 6828   3.589   2.972   0.380
 1902SOL    HW2 6829   3.517   3.017   0.520
 1903SOL     OW 6830   1.975   2.599   1.597
 1903SOL    HW1 6831   2.063   2.586   1.642
 1903SOL    HW2 6832   1.962   2.696   1.575
 1904SOL     OW 6833   2.475   3.227   0.726
 1904SOL    HW1 6834   2.426   3.140   0.735
 1904SOL    HW2 6835   2.452   3.270   0.639
 1905SOL     OW 6836   3.155   3.090   1.423
 1905SOL    HW1 6837   3.192   3.017   1.365
 1905SOL    HW2 6838   3.207   3.095   1.508
 1906SOL     OW 6839   2.671   1.866   0.502
 1906SOL    HW1 6840   2.711   1.957   0.493
 1906SOL    HW2 6841   2.571   1.874   0.508
 1907SOL     OW 6842   3.387   2.861   0.190
 1907SOL    HW1 6843   3.324   2.785   0.203
 1907SOL    HW2 6844   3.435   2.879   0.276
 1908SOL     OW 6845   3.049   3.654   1.616
 1908SOL    HW1 6846   3.073   3.714   1.540
 1908SOL    HW2 6847   3.056   3.559   1.586
 1909SOL     OW 6848   2.179   2.113   1.801
 1909SOL    HW1 6849   2.250   2.184   1.807
 1909SOL    HW2 6850   2.091   2.152   1.829
 1910SOL     OW 6851   3.529   3.576   0.572
 1910SOL    HW1 6852   3.488   3.553   0.484
 1910SOL    HW2 6853   3.511   3.502   0.637
 1911SOL     OW 6854   2.460   2.591   0.270
 1911SOL    HW1 6855   2.484   2.660   0.202
 1911SOL    HW2 6856   2.382   2.624   0.324
 1912SOL     OW 6857   3.143   2.207   0.944
 1912SOL    HW1 6858   3.057   2.157   0.931
 1912SOL    HW2 6859   3.205   2.153   1.000
 1913SOL     OW 6860   3.438   3.524   0.307
 1913SOL    HW1 6861   3.527   3.570   0.310
 1913SOL    HW2 6862   3.417   3.500   0.212
 1914SOL     OW 6863   2.669   2.467   1.465
 1914SOL    HW1 6864   2.622   2.464   1.554
 1914SOL    HW2 6865   2.618   2.412   1.399
 1915SOL     OW 6866   3.256   2.331   1.674
 1915SOL    HW1 6867   3.236   2.374   1.762
 1915SOL    HW2 6868   3.334   2.269   1.683
 1916SOL     OW 6869   2.835   2.752   1.572
 1916SOL    HW1 6870   2.881   2.668   1.543
 1916SOL    HW2 6871   2.779   2.786   1.497
 1917SOL     OW 6872   2.853   2.272   1.242
 1917SOL    HW1 6873   2.776   2.306   1.296
 1917SOL    HW2 6874   2.819   2.221   1.163
 1918SOL     OW 6875   2.903   2.563   0.429
 1918SOL    HW1 6876   2.929   2.559   0.525
 1918SOL    HW2 6877   2.818   2.512   0.415
 1919SOL     OW 6878   1.992   3.683   1.571
 1919SOL    HW1 6879   1.982   3.668   1.670
 1919SOL    HW2 6880   1.906   3.719   1.535
 1920SOL     OW 6881   2.727   2.210   0.195
 1920SOL    HW1 6882   2.786   2.273   0.146
 1920SOL    HW2 6883   2.746   2.116   0.166
 1921SOL     OW 6884   3.581   2.447   1.831
 1921SOL    HW1 6885   3.555   2.536   1.795
 1921SOL    HW2 6886   3.579   2.379   1.758
 1922SOL     OW 6887   2.412   2.058   0.885
 1922SOL    HW1 6888   2.407   2.053   0.985
 1922SOL    HW2 6889   2.414   2.154   0.856
 1923SOL     OW 6890   2.213   3.663   0.853
 1923SOL    HW1 6891   2.263   3.577   0.859
 1923SOL    HW2 6892   2.278   3.740   0.850
 1924SOL     OW 6893   3.657   2.928   0.873
 1924SOL    HW1 6894   3.595   2.913   0.797
 1924SOL    HW2 6895   3.605   2.939   0.958
 1925SOL     OW 6896   3.089   3.412   1.506
 1925SOL    HW1 6897   3.095   3.335   1.570
 1925SOL    HW2 6898   3.037   3.386   1.426
 1926SOL     OW 6899   3.320   2.597   0.728
 1926SOL    HW1 6900   3.315   2.532   0.803
 1926SOL    HW2 6901   3.400   2.656   0.741
 1927SOL     OW 6902   2.323   3.128   1.727
 1927SOL    HW1 6903   2.273   3.129   1.641
 1927SOL    HW2 6904   2.260   3.110   1.803
 1928SOL     OW 6905   2.973   3.638   0.237
 1928SOL    HW1 6906   2.913   3.576   0.287
 1928SOL    HW2 6907   3.004   3.594   0.152
 1929SOL     OW 6908   2.064   2.147   1.498
 1929SOL    HW1 6909   1.984   2.207   1.485
 1929SOL    HW2 6910   2.054   2.098   1.584
 1930SOL     OW 6911   3.494   3.239   0.081
 1930SOL    HW1 6912   3.462   3.333   0.071
 1930SOL    HW2 6913   3.418   3.176   0.069
 1931SOL     OW 6914   2.326   3.605   0.323
 1931SOL    HW1 6915   2.359   3.644   0.409
 1931SOL    HW2 6916   2.402   3.598   0.258
 1932SOL     OW 6917   3.262   1.969   0.426
 1932SOL    HW1 6918   3.238   1.932   0.336
 1932SOL    HW2 6919   3.361   1.985   0.430
 1933SOL     OW 6920   2.244   2.562   0.480
 1933SOL    HW1 6921   2.289   2.472   0.477
 1933SOL    HW2 6922   2.150   2.551   0.513
 1934SOL     OW 6923   3.409   2.084   1.729
 1934SOL    HW1 6924   3.404   2.121   1.821
 1934SOL    HW2 6925   3.337   2.015   1.717
 1935SOL     OW 6926   2.643   2.126   1.749
 1935SOL    HW1 6927   2.710   2.065   1.792
 1935SOL    HW2 6928   2.570   2.145   1.814
 1936SOL     OW 6929   2.750   3.376   1.195
 1936SOL    HW1 6930   2.727   3.351   1.101
 1936SOL    HW2 6931   2.811   3.307   1.234
 1937SOL     OW 6932   3.213   2.452   1.433
 1937SOL    HW1 6933   3.241   2.409   1.518
 1937SOL    HW2 6934   3.238   2.548   1.434
 1938SOL     OW 6935   2.665   3.264   0.924
 1938SOL    HW1 6936   2.755   3.278   0.882
 1938SOL    HW2 6937   2.594   3.266   0.853
 1939SOL     OW 6938   2.784   2.365   0.899
 1939SOL    HW1 6939   2.759   2.356   0.803
 1939SOL    HW2 6940   2.832   2.283   0.930
 1940SOL     OW 6941   2.401   1.926   0.512
 1940SOL    HW1 6942   2.320   1.927   0.570
 1940SOL    HW2 6943   2.404   2.009   0.457
 1941SOL     OW 6944   3.296   3.050   0.041
 1941SOL    HW1 6945   3.328   2.974   0.098
 1941SOL    HW2 6946   3.204   3.077   0.071
 1942SOL     OW 6947   2.159   1.897   0.171
 1942SOL    HW1 6948   2.208   1.981   0.150
 1942SOL    HW2 6949   2.221   1.832   0.216
 1943SOL     OW 6950   2.797   2.098   0.480
 1943SOL    HW1 6951   2.749   2.139   0.402
 1943SOL    HW2 6952   2.896   2.096   0.461
 1944SOL     OW 6953   2.938   2.545   1.464
 1944SOL    HW1 6954   2.858   2.484   1.467
 1944SOL    HW2 6955   3.019   2.492   1.440
 1945SOL     OW 6956   2.321   3.014   0.741
 1945SOL    HW1 6957   2.250   2.987   0.806
 1945SOL    HW2 6958   2.295   2.986   0.648
 1946SOL     OW 6959   3.133   3.659   0.591
 1946SOL    HW1 6960   3.177   3.723   0.527
 1946SOL    HW2 6961   3.083   3.711   0.661
 1947SOL     OW 6962   2.894   2.411   0.016
 1947SOL    HW1 6963   2.853   2.493  -0.023
 1947SOL    HW2 6964   2.958   2.437   0.089
 1948SOL     OW 6965   1.940   2.418   1.386
 1948SOL    HW1 6966   2.032   2.417   1.345
 1948SOL    HW2 6967   1.934   2.492   1.453
 1949SOL     OW 6968   2.423   2.084   1.147
 1949SOL    HW1 6969   2.461   2.000   1.184
 1949SOL    HW2 6970   2.335   2.103   1.191
 1950SOL     OW 6971   2.728   2.316   0.642
 1950SOL    HW1 6972   2.696   2.388   0.580
 1950SOL    HW2 6973   2.752   2.235   0.589
 1951SOL     OW 6974   2.879   1.901   0.753
 1951SOL    HW1 6975   2.807   1.906   0.684
 1951SOL    HW2 6976   2.855   1.832   0.822
 1952SOL     OW 6977   3.328   2.452   0.992
 1952SOL    HW1 6978   3.298   2.357   0.999
 1952SOL    HW2 6979   3.401   2.468   1.058
 1953SOL     OW 6980   3.719   2.695   0.377
 1953SOL    HW1 6981   3.761   2.631   0.441
 1953SOL    HW2 6982   3.681   2.644   0.299
 1954SOL     OW 6983   2.350   3.247   0.174
 1954SOL    HW1 6984   2.263   3.232   0.221
 1954SOL    HW2 6985   2.333   3.273   0.079
 1955SOL     OW 6986   3.526   3.142   0.657
 1955SOL    HW1 6987   3.625   3.150   0.671
 1955SOL    HW2 6988   3.481   3.226   0.688
 1956SOL     OW 6989   3.252   2.437   0.078
 1956SOL    HW1 6990   3.198   2.416   0.159
 1956SOL    HW2 6991   3.343   2.396   0.087
 1957SOL     OW 6992   2.389   2.118   0.328
 1957SOL    HW1 6993   2.416   2.059   0.253
 1957SOL    HW2 6994   2.389   2.213   0.297
 1958SOL     OW 6995   3.616   3.085   1.588
 1958SOL    HW1 6996   3.707   3.046   1.575
 1958SOL    HW2 6997   3.624   3.181   1.612
 1959SOL     OW 6998   2.926   3.209   1.340
 1959SOL    HW1 6999   2.846   3.186   1.395
 1959SOL    HW2 7000   3.009   3.183   1.389
 1960SOL     OW 7001   3.454   3.491   1.625
 1960SOL    HW1 7002   3.481   3.525   1.535
 1960SOL    HW2 7003   3.533   3.453   1.671
 1961SOL     OW 7004   2.973   3.057   1.100
 1961SOL    HW1 7005   2.933   3.101   1.181
 1961SOL    HW2 7006   2.932   3.094   1.017
 1962SOL     OW 7007   3.500   2.961   1.079
 1962SOL    HW1 7008   3.505   3.042   1.138
 1962SOL    HW2 7009   3.414   2.963   1.028
 1963SOL     OW 7010   2.777   1.951   1.402
 1963SOL    HW1 7011   2.802   1.931   1.307
 1963SOL    HW2 7012   2.849   2.007   1.444
 1964SOL     OW 7013   2.842   2.978   1.719
 1964SOL    HW1 7014   2.743   2.984   1.729
 1964SOL    HW2 7015   2.865   2.898   1.663
 1965SOL     OW 7016   2.567   2.912   0.368
 1965SOL    HW1 7017   2.553   2.919   0.467
 1965SOL    HW2 7018   2.651   2.861   0.350
 1966SOL     OW 7019   2.272   2.675   1.251
 1966SOL    HW1 7020   2.358   2.687   1.301
 1966SOL    HW2 7021   2.230   2.588   1.278
 1967SOL     OW 7022   3.136   2.248   1.262
 1967SOL    HW1 7023   3.157   2.322   1.326
 1967SOL    HW2 7024   3.047   2.265   1.219
 1968SOL     OW 7025   1.926   3.426   1.331
 1968SOL    HW1 7026   1.880   3.508   1.297
 1968SOL    HW2 7027   2.024   3.445   1.340
 1969SOL     OW 7028   2.229   2.962   0.501
 1969SOL    HW1 7029   2.222   3.045   0.445
 1969SOL    HW2 7030   2.233   2.882   0.441
 1970SOL     OW 7031   2.428   2.399   0.865
 1970SOL    HW1 7032   2.440   2.465   0.791
 1970SOL    HW2 7033   2.474   2.433   0.948
 1971SOL     OW 7034   3.134   3.307   1.142
 1971SOL    HW1 7035   3.181   3.320   1.229
 1971SOL    HW2 7036   3.068   3.233   1.151
 1972SOL     OW 7037   3.444   2.501   0.472
 1972SOL    HW1 7038   3.413   2.562   0.545
 1972SOL    HW2 7039   3.494   2.553   0.403
 1973SOL     OW 7040   2.264   2.613   1.598
 1973SOL    HW1 7041   2.332   2.668   1.551
 1973SOL    HW2 7042   2.304   2.525   1.625
 1974SOL     OW 7043   3.449   2.641   1.670
 1974SOL    HW1 7044   3.357   2.679   1.665
 1974SOL    HW2 7045   3.509   2.688   1.605
 1975SOL     OW 7046   2.875   1.967   1.770
 1975SOL    HW1 7047   2.881   2.052   1.718
 1975SOL    HW2 7048   2.907   1.891   1.713
 1976SOL     OW 7049   2.366   1.912   1.740
 1976SOL    HW1 7050   2.324   1.855   1.670
 1976SOL    HW2 7051   2.300   1.981   1.772
 1977SOL     OW 7052   2.435   2.732   1.029
 1977SOL    HW1 7053   2.479   2.821   1.020
 1977SOL    HW2 7054   2.372   2.732   1.106
 1978SOL     OW 7055   3.222   2.724   1.045
 1978SOL    HW1 7056   3.147   2.724   0.979
 1978SOL    HW2 7057   3.259   2.632   1.054
 1979SOL     OW 7058   3.071   2.387   0.275
 1979SOL    HW1 7059   3.084   2.303   0.329
 1979SOL    HW2 7060   3.042   2.461   0.335
 1980SOL     OW 7061   2.169   2.075   1.231
 1980SOL    HW1 7062   2.146   2.112   1.321
 1980SOL    HW2 7063   2.139   1.980   1.225
 1981SOL     OW 7064   1.899   3.172   1.282
 1981SOL    HW1 7065   1.952   3.123   1.350
 1981SOL    HW2 7066   1.921   3.270   1.287
 1982SOL     OW 7067   2.594   2.496   1.064
 1982SOL    HW1 7068   2.653   2.470   0.988
 1982SOL    HW2 7069   2.566   2.592   1.053
 1983SOL     OW 7070   3.590   2.797   1.854
 1983SOL    HW1 7071   3.544   2.790   1.765
 1983SOL    HW2 7072   3.528   2.841   1.920
 1984SOL     OW 7073   2.169   1.925   0.618
 1984SOL    HW1 7074   2.158   2.019   0.651
 1984SOL    HW2 7075   2.164   1.862   0.695
 1985SOL     OW 7076   3.484   2.229   0.374
 1985SOL    HW1 7077   3.486   2.153   0.438
 1985SOL    HW2 7078   3.436   2.306   0.414
 1986SOL     OW 7079   2.885   2.628   0.966
 1986SOL    HW1 7080   2.900   2.649   1.062
 1986SOL    HW2 7081   2.855   2.533   0.957
 1987SOL     OW 7082   2.842   3.435   1.700
 1987SOL    HW1 7083   2.822   3.479   1.612
 1987SOL    HW2 7084   2.881   3.344   1.684
 1988SOL     OW 7085   3.721   3.380   1.605
 1988SOL    HW1 7086   3.735   3.407   1.510
 1988SOL    HW2 7087   3.804   3.402   1.658
 1989SOL     OW 7088   2.212   2.760   1.804
 1989SOL    HW1 7089   2.288   2.804   1.852
 1989SOL    HW2 7090   2.247   2.713   1.722
 1990SOL     OW 7091   3.402   2.136   0.125
 1990SOL    HW1 7092   3.341   2.061   0.148
 1990SOL    HW2 7093   3.424   2.188   0.208
 1991SOL     OW 7094   3.165   2.700   0.042
 1991SOL    HW1 7095   3.199   2.607   0.057
 1991SOL    HW2 7096   3.183   2.727  -0.053
 1992SOL     OW 7097   2.930   3.195   0.849
 1992SOL    HW1 7098   2.937   3.111   0.794
 1992SOL    HW2 7099   2.992   3.264   0.813
 1993SOL     OW 7100   2.181   2.672   0.949
 1993SOL    HW1 7101   2.274   2.708   0.954
 1993SOL    HW2 7102   2.175   2.587   1.001
 1994SOL     OW 7103   2.201   2.371   1.006
 1994SOL    HW1 7104   2.149   2.288   0.989
 1994SOL    HW2 7105   2.278   2.376   0.942
 1995SOL     OW 7106   3.000   2.242   1.678
 1995SOL    HW1 7107   2.955   2.305   1.742
 1995SOL    HW2 7108   3.093   2.273   1.661
 1996SOL     OW 7109   3.022   2.069   1.477
 1996SOL    HW1 7110   3.022   2.133   1.554
 1996SOL    HW2 7111   3.050   2.117   1.394
 1997SOL     OW 7112   1.950   3.663   0.927
 1997SOL    HW1 7113   1.908   3.577   0.900
 1997SOL    HW2 7114   2.044   3.666   0.893
 1998SOL     OW 7115   2.366   3.430   0.910
 1998SOL    HW1 7116   2.432   3.504   0.919
 1998SOL    HW2 7117   2.410   3.351   0.868
 1999SOL     OW 7118   2.864   2.658   1.238
 1999SOL    HW1 7119   2.905   2.626   1.324
 1999SOL    HW2 7120   2.768   2.631   1.235
 2000SOL     OW 7121   1.902   2.406   1.114
 2000SOL    HW1 7122   1.987   2.373   1.073
 2000SOL    HW2 7123   1.915   2.421   1.212
 2001SOL     OW 7124   2.051   2.382   1.722
 2001SOL    HW1 7125   2.110   2.342   1.652
 2001SOL    HW2 7126   1.993   2.453   1.681
 2002SOL     OW 7127   3.231   2.812   1.660
 2002SOL    HW1 7128   3.270   2.901   1.680
 2002SOL    HW2 7129   3.241   2.792   1.563
 2003SOL     OW 7130   2.677   2.434   0.325
 2003SOL    HW1 7131   2.684   2.345   0.279
 2003SOL    HW2 7132   2.583   2.468   0.317
 2004SOL     OW 7133   3.519   2.466   1.206
 2004SOL    HW1 7134   3.481   2.397   1.268
 2004SOL    HW2 7135   3.601   2.430   1.162
 2005SOL     OW 7136   2.114   3.426   1.744
 2005SOL    HW1 7137   2.084   3.483   1.820
 2005SOL    HW2 7138   2.107   3.329   1.770
 2006SOL     OW 7139   2.533   2.326   1.269
 2006SOL    HW1 7140   2.499   2.237   1.239
 2006SOL    HW2 7141   2.559   2.380   1.189
 2007SOL     OW 7142   2.792   3.540   1.465
 2007SOL    HW1 7143   2.768   3.522   1.370
 2007SOL    HW2 7144   2.822   3.634   1.475
 2008SOL     OW 7145   2.335   2.362   0.191
 2008SOL    HW1 7146   2.396   2.442   0.195
 2008SOL    HW2 7147   2.240   2.393   0.198
 2009SOL     OW 7148   3.209   2.921   1.234
 2009SOL    HW1 7149   3.233   2.858   1.160
 2009SOL    HW2 7150   3.119   2.961   1.216
 2010SOL     OW 7151   3.164   2.717   0.309
 2010SOL    HW1 7152   3.078   2.686   0.351
 2010SOL    HW2 7153   3.160   2.703   0.210
 2011SOL     OW 7154   3.621   3.609   1.154
 2011SOL    HW1 7155   3.682   3.639   1.081
 2011SOL    HW2 7156   3.583   3.520   1.132
 2012SOL     OW 7157   3.114   3.593   1.128
 2012SOL    HW1 7158   3.198   3.598   1.074
 2012SOL    HW2 7159   3.091   3.497   1.146
 2013SOL     OW 7160   2.550   3.524   1.716
 2013SOL    HW1 7161   2.494   3.605   1.725
 2013SOL    HW2 7162   2.602   3.528   1.630
 2014SOL     OW 7163   2.765   1.948   0.133
 2014SOL    HW1 7164   2.816   1.949   0.047
 2014SOL    HW2 7165   2.821   1.906   0.204
 2015SOL     OW 7166   3.588   1.997   0.523
 2015SOL    HW1 7167   3.661   1.980   0.456
 2015SOL    HW2 7168   3.557   1.910   0.561
 2016SOL     OW 7169   1.992   3.656   1.851
 2016SOL    HW1 7170   1.951   3.582   1.904
 2016SOL    HW2 7171   2.056   3.707   1.909
 2017SOL     OW 7172   2.692   3.135   1.422
 2017SOL    HW1 7173   2.687   3.168   1.517
 2017SOL    HW2 7174   2.606   3.154   1.376
 2018SOL     OW 7175   3.512   3.582   1.394
 2018SOL    HW1 7176   3.565   3.592   1.310
 2018SOL    HW2 7177   3.485   3.672   1.428
 2019SOL     OW 7178   3.703   2.037   0.963
 2019SOL    HW1 7179   3.742   1.952   0.927
 2019SOL    HW2 7180   3.605   2.039   0.944
 2020SOL     OW 7181   2.125   2.188   0.720
 2020SOL    HW1 7182   2.046   2.239   0.686
 2020SOL    HW2 7183   2.116   2.173   0.818
 2021SOL     OW 7184   3.056   3.474   0.031
 2021SOL    HW1 7185   3.062   3.381   0.068
 2021SOL    HW2 7186   2.997   3.474  -0.049
 2022SOL     OW 7187   2.684   2.864   1.372
 2022SOL    HW1 7188   2.724   2.863   1.280
 2022SOL    HW2 7189   2.694   2.956   1.412
 2023SOL     OW 7190   2.778   2.772   0.291
 2023SOL    HW1 7191   2.841   2.810   0.223
 2023SOL    HW2 7192   2.818   2.689   0.330
 2024SOL     OW 7193   3.366   3.469   0.044
 2024SOL    HW1 7194   3.274   3.506   0.051
 2024SOL    HW2 7195   3.404   3.489  -0.046
 2025SOL     OW 7196   2.234   3.150   1.490
 2025SOL    HW1 7197   2.221   3.243   1.456
 2025SOL    HW2 7198   2.150   3.098   1.477
 2026SOL     OW 7199   3.476   3.154   1.289
 2026SOL    HW1 7200   3.536   3.157   1.369
 2026SOL    HW2 7201   3.401   3.218   1.302
 2027SOL     OW 7202   2.876   2.098   0.971
 2027SOL    HW1 7203   2.868   2.062   0.878
 2027SOL    HW2 7204   2.874   2.022   1.036
 2028SOL     OW 7205   2.452   3.349   0.491
 2028SOL    HW1 7206   2.494   3.291   0.421
 2028SOL    HW2 7207   2.408   3.428   0.447
 2029SOL     OW 7208   3.571   2.247   1.381
 2029SOL    HW1 7209   3.644   2.316   1.385
 2029SOL    HW2 7210   3.599   2.172   1.322
 2030SOL     OW 7211   2.117   3.210   0.290
 2030SOL    HW1 7212   2.021   3.211   0.263
 2030SOL    HW2 7213   2.129   3.263   0.374
 2031SOL     OW 7214   1.967   2.875   1.726
 2031SOL    HW1 7215   1.890   2.842   1.780
 2031SOL    HW2 7216   2.052   2.845   1.768
 2032SOL     OW 7217   2.534   2.065   1.489
 2032SOL    HW1 7218   2.624   2.049   1.449
 2032SOL    HW2 7219   2.542   2.070   1.588
 2033SOL     OW 7220   3.302   2.718   1.398
 2033SOL    HW1 7221   3.245   2.770   1.335
 2033SOL    HW2 7222   3.398   2.730   1.374
 2034SOL     OW 7223   1.934   2.028   0.318
 2034SOL    HW1 7224   1.917   2.111   0.264
 2034SOL    HW2 7225   2.024   1.991   0.296
 2035SOL     OW 7226   3.045   3.197   0.119
 2035SOL    HW1 7227   2.946   3.186   0.121
 2035SOL    HW2 7228   3.079   3.212   0.212
 2036SOL     OW 7229   2.475   2.704   1.431
 2036SOL    HW1 7230   2.531   2.785   1.414
 2036SOL    HW2 7231   2.534   2.624   1.434
 2037SOL     OW 7232   3.355   3.629   0.959
 2037SOL    HW1 7233   3.388   3.693   0.890
 2037SOL    HW2 7234   3.421   3.623   1.034
 2038SOL     OW 7235   2.578   2.427   1.708
 2038SOL    HW1 7236   2.597   2.492   1.782
 2038SOL    HW2 7237   2.638   2.347   1.717
 2039SOL     OW 7238   3.312   3.082   1.633
 2039SOL    HW1 7239   3.303   3.072   1.732
 2039SOL    HW2 7240   3.408   3.075   1.607
 2040SOL     OW 7241   2.252   3.603   1.560
 2040SOL    HW1 7242   2.161   3.644   1.558
 2040SOL    HW2 7243   2.245   3.509   1.592
 2041SOL     OW 7244   3.536   2.745   1.254
 2041SOL    HW1 7245   3.509   2.656   1.217
 2041SOL    HW2 7246   3.537   2.813   1.181
 2042SOL     OW 7247   3.087   2.187   0.449
 2042SOL    HW1 7248   3.152   2.113   0.438
 2042SOL    HW2 7249   3.107   2.237   0.533
 2043SOL     OW 7250   2.456   2.607   0.652
 2043SOL    HW1 7251   2.506   2.692   0.633
 2043SOL    HW2 7252   2.368   2.609   0.604
 2044SOL     OW 7253   3.639   2.204   1.642
 2044SOL    HW1 7254   3.622   2.235   1.548
 2044SOL    HW2 7255   3.555   2.167   1.680
 2045SOL     OW 7256   3.592   2.796   1.517
 2045SOL    HW1 7257   3.630   2.887   1.532
 2045SOL    HW2 7258   3.584   2.779   1.418
 2046SOL     OW 7259   2.721   3.236   0.016
 2046SOL    HW1 7260   2.675   3.251   0.104
 2046SOL    HW2 7261   2.765   3.321  -0.014
 2047SOL     OW 7262   2.523   3.652   0.953
 2047SOL    HW1 7263   2.477   3.740   0.940
 2047SOL    HW2 7264   2.622   3.664   0.946
 2048SOL     OW 7265   2.721   2.818   0.861
 2048SOL    HW1 7266   2.775   2.749   0.909
 2048SOL    HW2 7267   2.689   2.887   0.927
 2049SOL     OW 7268   2.945   2.846   0.087
 2049SOL    HW1 7269   2.922   2.899   0.005
 2049SOL    HW2 7270   3.026   2.790   0.068
 2050SOL     OW 7271   3.723   3.431   0.851
 2050SOL    HW1 7272   3.652   3.419   0.781
 2050SOL    HW2 7273   3.724   3.352   0.911
 2051SOL     OW 7274   2.083   3.176   1.844
 2051SOL    HW1 7275   2.018   3.103   1.823
 2051SOL    HW2 7276   2.087   3.190   1.942
 2052SOL     OW 7277   2.534   3.253   1.624
 2052SOL    HW1 7278   2.456   3.203   1.662
 2052SOL    HW2 7279   2.531   3.348   1.655
 2053SOL     OW 7280   3.686   2.054   1.227
 2053SOL    HW1 7281   3.682   1.964   1.271
 2053SOL    HW2 7282   3.689   2.043   1.128
 2054SOL     OW 7283   2.290   2.286   0.520
 2054SOL    HW1 7284   2.320   2.214   0.458
 2054SOL    HW2 7285   2.251   2.246   0.603
 2055SOL     OW 7286   3.567   3.349   1.104
 2055SOL    HW1 7287   3.474   3.324   1.077
 2055SOL    HW2 7288   3.593   3.299   1.186
 2056SOL     OW 7289   2.179   2.409   1.280
 2056SOL    HW1 7290   2.217   2.350   1.352
 2056SOL    HW2 7291   2.219   2.383   1.192
 2057SOL     OW 7292   2.674   3.448   0.687
 2057SOL    HW1 7293   2.706   3.458   0.593
 2057SOL    HW2 7294   2.595   3.386   0.689
 2058SOL     OW 7295   3.286   2.076   1.112
 2058SOL    HW1 7296   3.338   2.011   1.167
 2058SOL    HW2 7297   3.237   2.139   1.173
 2059SOL     OW 7298   2.863   1.896   1.154
 2059SOL    HW1 7299   2.800   1.824   1.123
 2059SOL    HW2 7300   2.956   1.860   1.154
 2060SOL     OW 7301   3.162   2.315   0.691
 2060SOL    HW1 7302   3.103   2.395   0.695
 2060SOL    HW2 7303   3.177   2.280   0.784
 2061SOL     OW 7304   3.455   2.083   0.882
 2061SOL    HW1 7305   3.371   2.082   0.936
 2061SOL    HW2 7306   3.457   2.166   0.826
 2062SOL     OW 7307   2.092   2.490   1.975
 2062SOL    HW1 7308   1.999   2.488   2.012
 2062SOL    HW2 7309   2.093   2.451   1.883
 2063SOL     OW 7310   2.087   2.137   2.858
 2063SOL    HW1 7311   2.122   2.120   2.950
 2063SOL    HW2 7312   1.999   2.092   2.846
 2064SOL     OW 7313   3.417   3.373   2.565
 2064SOL    HW1 7314   3.360   3.357   2.646
 2064SOL    HW2 7315   3.358   3.383   2.485
 2065SOL     OW 7316   3.617   2.469   2.093
 2065SOL    HW1 7317   3.605   2.456   1.994
 2065SOL    HW2 7318   3.587   2.388   2.142
 2066SOL     OW 7319   2.630   3.006   2.885
 2066SOL    HW1 7320   2.552   3.023   2.945
 2066SOL    HW2 7321   2.664   3.093   2.849
 2067SOL     OW 7322   2.548   3.023   3.665
 2067SOL    HW1 7323   2.608   3.102   3.679
 2067SOL    HW2 7324   2.462   3.054   3.624
 2068SOL     OW 7325   2.197   3.297   2.923
 2068SOL    HW1 7326   2.119   3.266   2.870
 2068SOL    HW2 7327   2.255   3.355   2.866
 2069SOL     OW 7328   3.322   3.367   3.201
 2069SOL    HW1 7329   3.346   3.461   3.227
 2069SOL    HW2 7330   3.306   3.313   3.283
 2070SOL     OW 7331   3.465   2.309   2.599
 2070SOL    HW1 7332   3.391   2.355   2.549
 2070SOL    HW2 7333   3.516   2.377   2.652
 2071SOL     OW 7334   2.093   3.575   2.345
 2071SOL    HW1 7335   2.127   3.652   2.399
 2071SOL    HW2 7336   2.137   3.575   2.255
 2072SOL     OW 7337   2.989   3.203   3.552
 2072SOL    HW1 7338   3.036   3.203   3.640
 2072SOL    HW2 7339   2.941   3.116   3.541
 2073SOL     OW 7340   2.092   3.296   2.400
 2073SOL    HW1 7341   2.066   3.392   2.400
 2073SOL    HW2 7342   2.021   3.242   2.445
 2074SOL     OW 7343   2.102   2.953   2.748
 2074SOL    HW1 7344   2.116   2.869   2.800
 2074SOL    HW2 7345   2.047   3.017   2.803
 2075SOL     OW 7346   2.468   2.826   1.985
 2075SOL    HW1 7347   2.475   2.910   1.931
 2075SOL    HW2 7348   2.514   2.839   2.073
 2076SOL     OW 7349   3.704   3.629   2.221
 2076SOL    HW1 7350   3.758   3.600   2.301
 2076SOL    HW2 7351   3.734   3.719   2.192
 2077SOL     OW 7352   1.889   3.458   1.979
 2077SOL    HW1 7353   1.870   3.362   2.000
 2077SOL    HW2 7354   1.856   3.516   2.054
 2078SOL     OW 7355   3.551   2.784   2.474
 2078SOL    HW1 7356   3.646   2.755   2.482
 2078SOL    HW2 7357   3.543   2.849   2.399
 2079SOL     OW 7358   3.503   2.970   2.294
 2079SOL    HW1 7359   3.589   2.972   2.242
 2079SOL    HW2 7360   3.517   3.017   2.382
 2080SOL     OW 7361   1.975   2.599   3.459
 2080SOL    HW1 7362   2.063   2.586   3.504
 2080SOL    HW2 7363   1.962   2.696   3.437
 2081SOL     OW 7364   2.475   3.227   2.588
 2081SOL    HW1 7365   2.426   3.140   2.597
 2081SOL    HW2 7366   2.452   3.270   2.501
 2082SOL     OW 7367   3.155   3.090   3.285
 2082SOL    HW1 7368   3.192   3.017   3.227
 2082SOL    HW2 7369   3.207   3.095   3.370
 2083SOL     OW 7370   3.387   2.861   2.052
 2083SOL    HW1 7371   3.324   2.785   2.065
 2083SOL    HW2 7372   3.435   2.879   2.138
 2084SOL     OW 7373   3.049   3.654   3.478
 2084SOL    HW1 7374   3.073   3.714   3.402
 2084SOL    HW2 7375   3.056   3.559   3.448
 2085SOL     OW 7376   2.179   2.113   3.663
 2085SOL    HW1 7377   2.250   2.184   3.669
 2085SOL    HW2 7378   2.091   2.152   3.691
 2086SOL     OW 7379   3.328   3.279   2.815
 2086SOL    HW1 7380   3.269   3.285   2.895
 2086SOL    HW2 7381   3.313   3.191   2.769
 2087SOL     OW 7382   3.529   3.576   2.434
 2087SOL    HW1 7383   3.488   3.553   2.346
 2087SOL    HW2 7384   3.511   3.502   2.499
 2088SOL     OW 7385   2.460   2.591   2.132
 2088SOL    HW1 7386   2.484   2.660   2.064
 2088SOL    HW2 7387   2.382   2.624   2.186
 2089SOL     OW 7388   3.143   2.207   2.806
 2089SOL    HW1 7389   3.057   2.157   2.793
 2089SOL    HW2 7390   3.205   2.153   2.862
 2090SOL     OW 7391   3.438   3.524   2.169
 2090SOL    HW1 7392   3.527   3.570   2.172
 2090SOL    HW2 7393   3.417   3.500   2.074
 2091SOL     OW 7394   2.853   2.272   3.104
 2091SOL    HW1 7395   2.776   2.306   3.158
 2091SOL    HW2 7396   2.819   2.221   3.025
 2092SOL     OW 7397   2.903   2.563   2.291
 2092SOL    HW1 7398   2.929   2.559   2.387
 2092SOL    HW2 7399   2.818   2.512   2.277
 2093SOL     OW 7400   1.938   2.673   2.651
 2093SOL    HW1 7401   2.037   2.661   2.660
 2093SOL    HW2 7402   1.914   2.768   2.672
 2094SOL     OW 7403   1.992   3.683   3.433
 2094SOL    HW1 7404   1.982   3.668   3.532
 2094SOL    HW2 7405   1.906   3.719   3.397
 2095SOL     OW 7406   2.727   2.210   2.057
 2095SOL    HW1 7407   2.786   2.273   2.008
 2095SOL    HW2 7408   2.746   2.116   2.028
 2096SOL     OW 7409   3.581   2.447   3.693
 2096SOL    HW1 7410   3.555   2.536   3.657
 2096SOL    HW2 7411   3.579   2.379   3.620
 2097SOL     OW 7412   3.224   3.006   2.407
 2097SOL    HW1 7413   3.307   2.977   2.359
 2097SOL    HW2 7414   3.175   3.073   2.351
 2098SOL     OW 7415   2.412   2.058   2.747
 2098SOL    HW1 7416   2.407   2.053   2.847
 2098SOL    HW2 7417   2.414   2.154   2.718
 2099SOL     OW 7418   2.870   3.318   2.339
 2099SOL    HW1 7419   2.824   3.390   2.287
 2099SOL    HW2 7420   2.866   3.338   2.437
 2100SOL     OW 7421   2.213   3.663   2.715
 2100SOL    HW1 7422   2.263   3.577   2.721
 2100SOL    HW2 7423   2.278   3.740   2.712
 2101SOL     OW 7424   3.657   2.928   2.735
 2101SOL    HW1 7425   3.595   2.913   2.659
 2101SOL    HW2 7426   3.605   2.939   2.820
 2102SOL     OW 7427   3.089   3.412   3.368
 2102SOL    HW1 7428   3.095   3.335   3.432
 2102SOL    HW2 7429   3.037   3.386   3.288
 2103SOL     OW 7430   2.183   2.805   2.104
 2103SOL    HW1 7431   2.265   2.844   2.062
 2103SOL    HW2 7432   2.156   2.723   2.055
 2104SOL     OW 7433   3.320   2.597   2.590
 2104SOL    HW1 7434   3.315   2.532   2.665
 2104SOL    HW2 7435   3.400   2.656   2.603
 2105SOL     OW 7436   2.323   3.128   3.589
 2105SOL    HW1 7437   2.273   3.129   3.503
 2105SOL    HW2 7438   2.260   3.110   3.665
 2106SOL     OW 7439   2.973   3.638   2.099
 2106SOL    HW1 7440   2.913   3.576   2.149
 2106SOL    HW2 7441   3.004   3.594   2.014
 2107SOL     OW 7442   2.064   2.147   3.360
 2107SOL    HW1 7443   1.984   2.207   3.347
 2107SOL    HW2 7444   2.054   2.098   3.446
 2108SOL     OW 7445   3.494   3.239   1.943
 2108SOL    HW1 7446   3.462   3.333   1.933
 2108SOL    HW2 7447   3.418   3.176   1.931
 2109SOL     OW 7448   2.326   3.605   2.185
 2109SOL    HW1 7449   2.359   3.644   2.271
 2109SOL    HW2 7450   2.402   3.598   2.120
 2110SOL     OW 7451   3.262   1.969   2.288
 2110SOL    HW1 7452   3.238   1.932   2.198
 2110SOL    HW2 7453   3.361   1.985   2.292
 2111SOL     OW 7454   2.111   3.647   3.103
 2111SOL    HW1 7455   2.168   3.582   3.153
 2111SOL    HW2 7456   2.095   3.614   3.010
 2112SOL     OW 7457   2.802   3.560   2.766
 2112SOL    HW1 7458   2.882   3.503   2.787
 2112SOL    HW2 7459   2.753   3.520   2.689
 2113SOL     OW 7460   2.244   2.562   2.342
 2113SOL    HW1 7461   2.289   2.472   2.339
 2113SOL    HW2 7462   2.150   2.551   2.375
 2114SOL     OW 7463   2.476   1.984   1.979
 2114SOL    HW1 7464   2.574   1.962   1.986
 2114SOL    HW2 7465   2.445   1.967   1.886
 2115SOL     OW 7466   2.750   3.376   3.057
 2115SOL    HW1 7467   2.727   3.351   2.963
 2115SOL    HW2 7468   2.811   3.307   3.096
 2116SOL     OW 7469   3.213   2.452   3.295
 2116SOL    HW1 7470   3.241   2.409   3.380
 2116SOL    HW2 7471   3.238   2.548   3.296
 2117SOL     OW 7472   2.665   3.264   2.786
 2117SOL    HW1 7473   2.755   3.278   2.744
 2117SOL    HW2 7474   2.594   3.266   2.715
 2118SOL     OW 7475   3.296   3.050   1.903
 2118SOL    HW1 7476   3.328   2.974   1.960
 2118SOL    HW2 7477   3.204   3.077   1.933
 2119SOL     OW 7478   2.797   2.098   2.342
 2119SOL    HW1 7479   2.749   2.139   2.264
 2119SOL    HW2 7480   2.896   2.096   2.323
 2120SOL     OW 7481   2.938   2.545   3.326
 2120SOL    HW1 7482   2.858   2.484   3.329
 2120SOL    HW2 7483   3.019   2.492   3.302
 2121SOL     OW 7484   3.089   3.432   2.655
 2121SOL    HW1 7485   3.110   3.506   2.590
 2121SOL    HW2 7486   3.157   3.432   2.728
 2122SOL     OW 7487   2.321   3.014   2.603
 2122SOL    HW1 7488   2.250   2.987   2.668
 2122SOL    HW2 7489   2.295   2.986   2.510
 2123SOL     OW 7490   3.133   3.659   2.453
 2123SOL    HW1 7491   3.177   3.723   2.389
 2123SOL    HW2 7492   3.083   3.711   2.523
 2124SOL     OW 7493   2.894   2.411   1.878
 2124SOL    HW1 7494   2.853   2.493   1.839
 2124SOL    HW2 7495   2.958   2.437   1.951
 2125SOL     OW 7496   1.940   2.418   3.248
 2125SOL    HW1 7497   2.032   2.417   3.207
 2125SOL    HW2 7498   1.934   2.492   3.315
 2126SOL     OW 7499   2.423   2.084   3.009
 2126SOL    HW1 7500   2.461   2.000   3.046
 2126SOL    HW2 7501   2.335   2.103   3.053
 2127SOL     OW 7502   3.291   3.035   2.729
 2127SOL    HW1 7503   3.236   2.951   2.722
 2127SOL    HW2 7504   3.317   3.064   2.637
 2128SOL     OW 7505   3.328   2.452   2.854
 2128SOL    HW1 7506   3.298   2.357   2.861
 2128SOL    HW2 7507   3.401   2.468   2.920
 2129SOL     OW 7508   3.719   2.695   2.239
 2129SOL    HW1 7509   3.761   2.631   2.303
 2129SOL    HW2 7510   3.681   2.644   2.161
 2130SOL     OW 7511   2.350   3.247   2.036
 2130SOL    HW1 7512   2.263   3.232   2.083
 2130SOL    HW2 7513   2.333   3.273   1.941
 2131SOL     OW 7514   3.526   3.142   2.519
 2131SOL    HW1 7515   3.625   3.150   2.533
 2131SOL    HW2 7516   3.481   3.226   2.550
 2132SOL     OW 7517   3.252   2.437   1.940
 2132SOL    HW1 7518   3.198   2.416   2.021
 2132SOL    HW2 7519   3.343   2.396   1.949
 2133SOL     OW 7520   2.389   2.118   2.190
 2133SOL    HW1 7521   2.416   2.059   2.115
 2133SOL    HW2 7522   2.389   2.213   2.159
 2134SOL     OW 7523   3.616   3.085   3.450
 2134SOL    HW1 7524   3.707   3.046   3.437
 2134SOL    HW2 7525   3.624   3.181   3.474
 2135SOL     OW 7526   2.926   3.209   3.202
 2135SOL    HW1 7527   2.846   3.186   3.257
 2135SOL    HW2 7528   3.009   3.183   3.251
 2136SOL     OW 7529   3.454   3.491   3.487
 2136SOL    HW1 7530   3.481   3.525   3.397
 2136SOL    HW2 7531   3.533   3.453   3.533
 2137SOL     OW 7532   2.973   3.057   2.962
 2137SOL    HW1 7533   2.933   3.101   3.043
 2137SOL    HW2 7534   2.932   3.094   2.879
 2138SOL     OW 7535   3.500   2.961   2.941
 2138SOL    HW1 7536   3.505   3.042   3.000
 2138SOL    HW2 7537   3.414   2.963   2.890
 2139SOL     OW 7538   2.777   1.951   3.264
 2139SOL    HW1 7539   2.802   1.931   3.169
 2139SOL    HW2 7540   2.849   2.007   3.306
 2140SOL     OW 7541   2.272   2.675   3.113
 2140SOL    HW1 7542   2.358   2.687   3.163
 2140SOL    HW2 7543   2.230   2.588   3.140
 2141SOL     OW 7544   3.136   2.248   3.124
 2141SOL    HW1 7545   3.157   2.322   3.188
 2141SOL    HW2 7546   3.047   2.265   3.081
 2142SOL     OW 7547   1.926   3.426   3.193
 2142SOL    HW1 7548   1.880   3.508   3.159
 2142SOL    HW2 7549   2.024   3.445   3.202
 2143SOL     OW 7550   2.229   2.962   2.363
 2143SOL    HW1 7551   2.222   3.045   2.307
 2143SOL    HW2 7552   2.233   2.882   2.303
 2144SOL     OW 7553   3.114   3.210   2.250
 2144SOL    HW1 7554   3.164   3.287   2.290
 2144SOL    HW2 7555   3.019   3.212   2.282
 2145SOL     OW 7556   3.134   3.307   3.004
 2145SOL    HW1 7557   3.181   3.320   3.091
 2145SOL    HW2 7558   3.068   3.233   3.013
 2146SOL     OW 7559   3.444   2.501   2.334
 2146SOL    HW1 7560   3.413   2.562   2.407
 2146SOL    HW2 7561   3.494   2.553   2.265
 2147SOL     OW 7562   3.449   2.641   3.532
 2147SOL    HW1 7563   3.357   2.679   3.527
 2147SOL    HW2 7564   3.509   2.688   3.467
 2148SOL     OW 7565   2.875   1.967   3.632
 2148SOL    HW1 7566   2.881   2.052   3.580
 2148SOL    HW2 7567   2.907   1.891   3.575
 2149SOL     OW 7568   2.366   1.912   3.602
 2149SOL    HW1 7569   2.324   1.855   3.532
 2149SOL    HW2 7570   2.300   1.981   3.634
 2150SOL     OW 7571   2.435   2.732   2.891
 2150SOL    HW1 7572   2.479   2.821   2.882
 2150SOL    HW2 7573   2.372   2.732   2.968
 2151SOL     OW 7574   3.222   2.724   2.907
 2151SOL    HW1 7575   3.147   2.724   2.841
 2151SOL    HW2 7576   3.259   2.632   2.916
 2152SOL     OW 7577   3.071   2.387   2.137
 2152SOL    HW1 7578   3.084   2.303   2.191
 2152SOL    HW2 7579   3.042   2.461   2.197
 2153SOL     OW 7580   2.169   2.075   3.093
 2153SOL    HW1 7581   2.146   2.112   3.183
 2153SOL    HW2 7582   2.139   1.980   3.087
 2154SOL     OW 7583   3.590   2.797   3.716
 2154SOL    HW1 7584   3.544   2.790   3.627
 2154SOL    HW2 7585   3.528   2.841   3.782
 2155SOL     OW 7586   3.484   2.229   2.236
 2155SOL    HW1 7587   3.486   2.153   2.300
 2155SOL    HW2 7588   3.436   2.306   2.276
 2156SOL     OW 7589   2.885   2.628   2.828
 2156SOL    HW1 7590   2.900   2.649   2.924
 2156SOL    HW2 7591   2.855   2.533   2.819
 2157SOL     OW 7592   2.842   3.435   3.562
 2157SOL    HW1 7593   2.822   3.479   3.474
 2157SOL    HW2 7594   2.881   3.344   3.546
 2158SOL     OW 7595   3.721   3.380   3.467
 2158SOL    HW1 7596   3.735   3.407   3.372
 2158SOL    HW2 7597   3.804   3.402   3.520
 2159SOL     OW 7598   2.212   2.760   3.666
 2159SOL    HW1 7599   2.288   2.804   3.714
 2159SOL    HW2 7600   2.247   2.713   3.584
 2160SOL     OW 7601   3.402   2.136   1.987
 2160SOL    HW1 7602   3.341   2.061   2.010
 2160SOL    HW2 7603   3.424   2.188   2.070
 2161SOL     OW 7604   3.165   2.700   1.904
 2161SOL    HW1 7605   3.199   2.607   1.919
 2161SOL    HW2 7606   3.183   2.727   1.809
 2162SOL     OW 7607   2.930   3.195   2.711
 2162SOL    HW1 7608   2.937   3.111   2.656
 2162SOL    HW2 7609   2.992   3.264   2.675
 2163SOL     OW 7610   2.181   2.672   2.811
 2163SOL    HW1 7611   2.274   2.708   2.816
 2163SOL    HW2 7612   2.175   2.587   2.863
 2164SOL     OW 7613   2.201   2.371   2.868
 2164SOL    HW1 7614   2.149   2.288   2.851
 2164SOL    HW2 7615   2.278   2.376   2.804
 2165SOL     OW 7616   3.000   2.242   3.540
 2165SOL    HW1 7617   2.955   2.305   3.604
 2165SOL    HW2 7618   3.093   2.273   3.523
 2166SOL     OW 7619   3.022   2.069   3.339
 2166SOL    HW1 7620   3.022   2.133   3.416
 2166SOL    HW2 7621   3.050   2.117   3.256
 2167SOL     OW 7622   1.870   3.188   2.062
 2167SOL    HW1 7623   1.777   3.209   2.031
 2167SOL    HW2 7624   1.880   3.089   2.075
 2168SOL     OW 7625   1.950   3.663   2.789
 2168SOL    HW1 7626   1.908   3.577   2.762
 2168SOL    HW2 7627   2.044   3.666   2.755
 2169SOL     OW 7628   2.366   3.430   2.772
 2169SOL    HW1 7629   2.432   3.504   2.781
 2169SOL    HW2 7630   2.410   3.351   2.730
 2170SOL     OW 7631   2.864   2.658   3.100
 2170SOL    HW1 7632   2.905   2.626   3.186
 2170SOL    HW2 7633   2.768   2.631   3.097
 2171SOL     OW 7634   1.902   2.406   2.976
 2171SOL    HW1 7635   1.987   2.373   2.935
 2171SOL    HW2 7636   1.915   2.421   3.074
 2172SOL     OW 7637   2.051   2.382   3.584
 2172SOL    HW1 7638   2.110   2.342   3.514
 2172SOL    HW2 7639   1.993   2.453   3.543
 2173SOL     OW 7640   3.231   2.812   3.522
 2173SOL    HW1 7641   3.270   2.901   3.542
 2173SOL    HW2 7642   3.241   2.792   3.425
 2174SOL     OW 7643   2.677   2.434   2.187
 2174SOL    HW1 7644   2.684   2.345   2.141
 2174SOL    HW2 7645   2.583   2.468   2.179
 2175SOL     OW 7646   3.519   2.466   3.068
 2175SOL    HW1 7647   3.481   2.397   3.130
 2175SOL    HW2 7648   3.601   2.430   3.024
 2176SOL     OW 7649   2.792   3.540   3.327
 2176SOL    HW1 7650   2.768   3.522   3.232
 2176SOL    HW2 7651   2.822   3.634   3.337
 2177SOL     OW 7652   2.335   2.362   2.053
 2177SOL    HW1 7653   2.396   2.442   2.057
 2177SOL    HW2 7654   2.240   2.393   2.060
 2178SOL     OW 7655   3.209   2.921   3.096
 2178SOL    HW1 7656   3.233   2.858   3.022
 2178SOL    HW2 7657   3.119   2.961   3.078
 2179SOL     OW 7658   3.164   2.717   2.171
 2179SOL    HW1 7659   3.078   2.686   2.213
 2179SOL    HW2 7660   3.160   2.703   2.072
 2180SOL     OW 7661   3.621   3.609   3.016
 2180SOL    HW1 7662   3.682   3.639   2.943
 2180SOL    HW2 7663   3.583   3.520   2.994
 2181SOL     OW 7664   3.114   3.593   2.990
 2181SOL    HW1 7665   3.198   3.598   2.936
 2181SOL    HW2 7666   3.091   3.497   3.008
 2182SOL     OW 7667   1.945   3.120   2.884
 2182SOL    HW1 7668   1.940   3.119   2.984
 2182SOL    HW2 7669   1.862   3.079   2.846
 2183SOL     OW 7670   2.550   3.524   3.578
 2183SOL    HW1 7671   2.494   3.605   3.587
 2183SOL    HW2 7672   2.602   3.528   3.492
 2184SOL     OW 7673   3.588   1.997   2.385
 2184SOL    HW1 7674   3.661   1.980   2.318
 2184SOL    HW2 7675   3.557   1.910   2.423
 2185SOL     OW 7676   3.250   3.435   2.339
 2185SOL    HW1 7677   3.317   3.447   2.265
 2185SOL    HW2 7678   3.210   3.524   2.362
 2186SOL     OW 7679   1.992   3.656   3.713
 2186SOL    HW1 7680   1.951   3.582   3.766
 2186SOL    HW2 7681   2.056   3.707   3.771
 2187SOL     OW 7682   3.142   2.789   2.534
 2187SOL    HW1 7683   3.202   2.708   2.536
 2187SOL    HW2 7684   3.182   2.858   2.474
 2188SOL     OW 7685   2.692   3.135   3.284
 2188SOL    HW1 7686   2.687   3.168   3.379
 2188SOL    HW2 7687   2.606   3.154   3.238
 2189SOL     OW 7688   2.534   3.478   2.016
 2189SOL    HW1 7689   2.543   3.488   1.917
 2189SOL    HW2 7690   2.494   3.389   2.037
 2190SOL     OW 7691   3.512   3.582   3.256
 2190SOL    HW1 7692   3.565   3.592   3.172
 2190SOL    HW2 7693   3.485   3.672   3.290
 2191SOL     OW 7694   3.703   2.037   2.825
 2191SOL    HW1 7695   3.742   1.952   2.789
 2191SOL    HW2 7696   3.605   2.039   2.806
 2192SOL     OW 7697   3.056   3.474   1.893
 2192SOL    HW1 7698   3.062   3.381   1.930
 2192SOL    HW2 7699   2.997   3.474   1.813
 2193SOL     OW 7700   2.778   2.772   2.153
 2193SOL    HW1 7701   2.841   2.810   2.085
 2193SOL    HW2 7702   2.818   2.689   2.192
 2194SOL     OW 7703   3.366   3.469   1.906
 2194SOL    HW1 7704   3.274   3.506   1.913
 2194SOL    HW2 7705   3.404   3.489   1.816
 2195SOL     OW 7706   3.476   3.154   3.151
 2195SOL    HW1 7707   3.536   3.157   3.231
 2195SOL    HW2 7708   3.401   3.218   3.164
 2196SOL     OW 7709   2.901   2.960   2.558
 2196SOL    HW1 7710   2.831   2.913   2.612
 2196SOL    HW2 7711   2.960   2.892   2.515
 2197SOL     OW 7712   2.876   2.098   2.833
 2197SOL    HW1 7713   2.868   2.062   2.740
 2197SOL    HW2 7714   2.874   2.022   2.898
 2198SOL     OW 7715   2.452   3.349   2.353
 2198SOL    HW1 7716   2.494   3.291   2.283
 2198SOL    HW2 7717   2.408   3.428   2.309
 2199SOL     OW 7718   2.117   3.210   2.152
 2199SOL    HW1 7719   2.021   3.211   2.125
 2199SOL    HW2 7720   2.129   3.263   2.236
 2200SOL     OW 7721   2.534   2.065   3.351
 2200SOL    HW1 7722   2.624   2.049   3.311
 2200SOL    HW2 7723   2.542   2.070   3.450
 2201SOL     OW 7724   1.937   2.207   1.895
 2201SOL    HW1 7725   1.845   2.179   1.866
 2201SOL    HW2 7726   1.968   2.284   1.839
 2202SOL     OW 7727   3.302   2.718   3.260
 2202SOL    HW1 7728   3.245   2.770   3.197
 2202SOL    HW2 7729   3.398   2.730   3.236
 2203SOL     OW 7730   3.045   3.197   1.981
 2203SOL    HW1 7731   2.946   3.186   1.983
 2203SOL    HW2 7732   3.079   3.212   2.074
 2204SOL     OW 7733   3.355   3.629   2.821
 2204SOL    HW1 7734   3.388   3.693   2.752
 2204SOL    HW2 7735   3.421   3.623   2.896
 2205SOL     OW 7736   3.312   3.082   3.495
 2205SOL    HW1 7737   3.303   3.072   3.594
 2205SOL    HW2 7738   3.408   3.075   3.469
 2206SOL     OW 7739   3.536   2.745   3.116
 2206SOL    HW1 7740   3.509   2.656   3.079
 2206SOL    HW2 7741   3.537   2.813   3.043
 2207SOL     OW 7742   3.087   2.187   2.311
 2207SOL    HW1 7743   3.152   2.113   2.300
 2207SOL    HW2 7744   3.107   2.237   2.395
 2208SOL     OW 7745   3.592   2.796   3.379
 2208SOL    HW1 7746   3.630   2.887   3.394
 2208SOL    HW2 7747   3.584   2.779   3.280
 2209SOL     OW 7748   2.721   3.236   1.878
 2209SOL    HW1 7749   2.675   3.251   1.966
 2209SOL    HW2 7750   2.765   3.321   1.848
 2210SOL     OW 7751   2.523   3.652   2.815
 2210SOL    HW1 7752   2.477   3.740   2.802
 2210SOL    HW2 7753   2.622   3.664   2.808
 2211SOL     OW 7754   2.945   2.846   1.949
 2211SOL    HW1 7755   2.922   2.899   1.867
 2211SOL    HW2 7756   3.026   2.790   1.930
 2212SOL     OW 7757   3.723   3.431   2.713
 2212SOL    HW1 7758   3.652   3.419   2.643
 2212SOL    HW2 7759   3.724   3.352   2.773
 2213SOL     OW 7760   1.941   3.102   2.515
 2213SOL    HW1 7761   1.940   3.055   2.603
 2213SOL    HW2 7762   2.023   3.074   2.464
 2214SOL     OW 7763   2.534   3.253   3.486
 2214SOL    HW1 7764   2.456   3.203   3.524
 2214SOL    HW2 7765   2.531   3.348   3.517
 2215SOL     OW 7766   3.686   2.054   3.089
 2215SOL    HW1 7767   3.682   1.964   3.133
 2215SOL    HW2 7768   3.689   2.043   2.990
 2216SOL     OW 7769   3.567   3.349   2.966
 2216SOL    HW1 7770   3.474   3.324   2.939
 2216SOL    HW2 7771   3.593   3.299   3.048
 2217SOL     OW 7772   2.179   2.409   3.142
 2217SOL    HW1 7773   2.217   2.350   3.214
 2217SOL    HW2 7774   2.219   2.383   3.054
 2218SOL     OW 7775   2.674   3.448   2.549
 2218SOL    HW1 7776   2.706   3.458   2.455
 2218SOL    HW2 7777   2.595   3.386   2.551
 2219SOL     OW 7778   3.286   2.076   2.974
 2219SOL    HW1 7779   3.338   2.011   3.029
 2219SOL    HW2 7780   3.237   2.139   3.035
 2220SOL     OW 7781   2.863   1.896   3.016
 2220SOL    HW1 7782   2.800   1.824   2.985
 2220SOL    HW2 7783   2.956   1.860   3.016
 2221SOL     OW 7784   2.632   3.192   2.163
 2221SOL    HW1 7785   2.586   3.105   2.180
 2221SOL    HW2 7786   2.723   3.189   2.204
 2222SOL     OW 7787   3.214   1.914   2.030
 2222SOL    HW1 7788   3.249   1.873   1.946
 2222SOL    HW2 7789   3.124   1.876   2.050
 2223SOL     OW 7790   3.455   2.083   2.744
 2223SOL    HW1 7791   3.371   2.082   2.798
 2223SOL    HW2 7792   3.457   2.166   2.688
 2224SOL     OW 7793   1.901   2.939   2.162
 2224SOL    HW1 7794   2.000   2.928   2.153
 2224SOL    HW2 7795   1.861   2.853   2.194
 2225SOL     OW 7796   2.737   3.508   2.199
 2225SOL    HW1 7797   2.660   3.473   2.145
 2225SOL    HW2 7798   2.705   3.579   2.261
 2226SOL     OW 7799   2.092   2.490   3.837
 2226SOL    HW1 7800   1.999   2.488   3.874
 2226SOL    HW2 7801   2.093   2.451   3.745
 2227SOL     OW 7802   2.431   3.137   4.889
 2227SOL    HW1 7803   2.338   3.130   4.852
 2227SOL    HW2 7804   2.442   3.226   4.933
 2228SOL     OW 7805   3.417   3.373   4.427
 2228SOL    HW1 7806   3.360   3.357   4.508
 2228SOL    HW2 7807   3.358   3.383   4.347
 2229SOL     OW 7808   2.997   2.565   4.441
 2229SOL    HW1 7809   3.054   2.643   4.416
 2229SOL    HW2 7810   2.937   2.591   4.517
 2230SOL     OW 7811   2.630   3.006   4.747
 2230SOL    HW1 7812   2.552   3.023   4.807
 2230SOL    HW2 7813   2.664   3.093   4.711
 2231SOL     OW 7814   2.547   2.874   4.389
 2231SOL    HW1 7815   2.616   2.858   4.459
 2231SOL    HW2 7816   2.474   2.931   4.427
 2232SOL     OW 7817   2.197   3.297   4.785
 2232SOL    HW1 7818   2.119   3.266   4.732
 2232SOL    HW2 7819   2.255   3.355   4.728
 2233SOL     OW 7820   3.465   2.309   4.461
 2233SOL    HW1 7821   3.391   2.355   4.411
 2233SOL    HW2 7822   3.516   2.377   4.514
 2234SOL     OW 7823   2.093   3.575   4.207
 2234SOL    HW1 7824   2.127   3.652   4.261
 2234SOL    HW2 7825   2.137   3.575   4.117
 2235SOL     OW 7826   2.092   3.296   4.262
 2235SOL    HW1 7827   2.066   3.392   4.262
 2235SOL    HW2 7828   2.021   3.242   4.307
 2236SOL     OW 7829   2.102   2.953   4.610
 2236SOL    HW1 7830   2.116   2.869   4.662
 2236SOL    HW2 7831   2.047   3.017   4.665
 2237SOL     OW 7832   2.482   3.648   5.163
 2237SOL    HW1 7833   2.390   3.631   5.198
 2237SOL    HW2 7834   2.510   3.740   5.189
 2238SOL     OW 7835   2.468   2.826   3.847
 2238SOL    HW1 7836   2.475   2.910   3.793
 2238SOL    HW2 7837   2.514   2.839   3.935
 2239SOL     OW 7838   1.984   2.505   4.287
 2239SOL    HW1 7839   1.939   2.417   4.304
 2239SOL    HW2 7840   1.983   2.559   4.371
 2240SOL     OW 7841   3.704   3.629   4.083
 2240SOL    HW1 7842   3.758   3.600   4.163
 2240SOL    HW2 7843   3.734   3.719   4.054
 2241SOL     OW 7844   1.889   3.458   3.841
 2241SOL    HW1 7845   1.870   3.362   3.862
 2241SOL    HW2 7846   1.856   3.516   3.916
 2242SOL     OW 7847   3.551   2.784   4.336
 2242SOL    HW1 7848   3.646   2.755   4.344
 2242SOL    HW2 7849   3.543   2.849   4.261
 2243SOL     OW 7850   3.503   2.970   4.156
 2243SOL    HW1 7851   3.589   2.972   4.104
 2243SOL    HW2 7852   3.517   3.017   4.244
 2244SOL     OW 7853   2.475   3.227   4.450
 2244SOL    HW1 7854   2.426   3.140   4.459
 2244SOL    HW2 7855   2.452   3.270   4.363
 2245SOL     OW 7856   2.671   1.866   4.226
 2245SOL    HW1 7857   2.711   1.957   4.217
 2245SOL    HW2 7858   2.571   1.874   4.232
 2246SOL     OW 7859   2.059   2.838   4.988
 2246SOL    HW1 7860   2.148   2.793   4.974
 2246SOL    HW2 7861   1.986   2.773   4.969
 2247SOL     OW 7862   3.387   2.861   3.914
 2247SOL    HW1 7863   3.324   2.785   3.927
 2247SOL    HW2 7864   3.435   2.879   4.000
 2248SOL     OW 7865   3.328   3.279   4.677
 2248SOL    HW1 7866   3.269   3.285   4.757
 2248SOL    HW2 7867   3.313   3.191   4.631
 2249SOL     OW 7868   3.529   3.576   4.296
 2249SOL    HW1 7869   3.488   3.553   4.208
 2249SOL    HW2 7870   3.511   3.502   4.361
 2250SOL     OW 7871   2.460   2.591   3.994
 2250SOL    HW1 7872   2.484   2.660   3.926
 2250SOL    HW2 7873   2.382   2.624   4.048
 2251SOL     OW 7874   3.438   3.524   4.031
 2251SOL    HW1 7875   3.527   3.570   4.034
 2251SOL    HW2 7876   3.417   3.500   3.936
 2252SOL     OW 7877   2.853   2.272   4.966
 2252SOL    HW1 7878   2.776   2.306   5.020
 2252SOL    HW2 7879   2.819   2.221   4.887
 2253SOL     OW 7880   2.903   2.563   4.153
 2253SOL    HW1 7881   2.929   2.559   4.249
 2253SOL    HW2 7882   2.818   2.512   4.139
 2254SOL     OW 7883   1.938   2.673   4.513
 2254SOL    HW1 7884   2.037   2.661   4.522
 2254SOL    HW2 7885   1.914   2.768   4.534
 2255SOL     OW 7886   2.727   2.210   3.919
 2255SOL    HW1 7887   2.786   2.273   3.870
 2255SOL    HW2 7888   2.746   2.116   3.890
 2256SOL     OW 7889   3.224   3.006   4.269
 2256SOL    HW1 7890   3.307   2.977   4.221
 2256SOL    HW2 7891   3.175   3.073   4.213
 2257SOL     OW 7892   2.412   2.058   4.609
 2257SOL    HW1 7893   2.407   2.053   4.709
 2257SOL    HW2 7894   2.414   2.154   4.580
 2258SOL     OW 7895   2.870   3.318   4.201
 2258SOL    HW1 7896   2.824   3.390   4.149
 2258SOL    HW2 7897   2.866   3.338   4.299
 2259SOL     OW 7898   2.213   3.663   4.577
 2259SOL    HW1 7899   2.263   3.577   4.583
 2259SOL    HW2 7900   2.278   3.740   4.574
 2260SOL     OW 7901   3.657   2.928   4.597
 2260SOL    HW1 7902   3.595   2.913   4.521
 2260SOL    HW2 7903   3.605   2.939   4.682
 2261SOL     OW 7904   2.183   2.805   3.966
 2261SOL    HW1 7905   2.265   2.844   3.924
 2261SOL    HW2 7906   2.156   2.723   3.917
 2262SOL     OW 7907   3.320   2.597   4.452
 2262SOL    HW1 7908   3.315   2.532   4.527
 2262SOL    HW2 7909   3.400   2.656   4.465
 2263SOL     OW 7910   2.973   3.638   3.961
 2263SOL    HW1 7911   2.913   3.576   4.011
 2263SOL    HW2 7912   3.004   3.594   3.876
 2264SOL     OW 7913   3.494   3.239   3.805
 2264SOL    HW1 7914   3.462   3.333   3.795
 2264SOL    HW2 7915   3.418   3.176   3.793
 2265SOL     OW 7916   2.326   3.605   4.047
 2265SOL    HW1 7917   2.359   3.644   4.133
 2265SOL    HW2 7918   2.402   3.598   3.982
 2266SOL     OW 7919   3.262   1.969   4.150
 2266SOL    HW1 7920   3.238   1.932   4.060
 2266SOL    HW2 7921   3.361   1.985   4.154
 2267SOL     OW 7922   2.111   3.647   4.965
 2267SOL    HW1 7923   2.168   3.582   5.015
 2267SOL    HW2 7924   2.095   3.614   4.872
 2268SOL     OW 7925   2.802   3.560   4.628
 2268SOL    HW1 7926   2.882   3.503   4.649
 2268SOL    HW2 7927   2.753   3.520   4.551
 2269SOL     OW 7928   2.244   2.562   4.204
 2269SOL    HW1 7929   2.289   2.472   4.201
 2269SOL    HW2 7930   2.150   2.551   4.237
 2270SOL     OW 7931   2.665   3.264   4.648
 2270SOL    HW1 7932   2.755   3.278   4.606
 2270SOL    HW2 7933   2.594   3.266   4.577
 2271SOL     OW 7934   2.784   2.365   4.623
 2271SOL    HW1 7935   2.759   2.356   4.527
 2271SOL    HW2 7936   2.832   2.283   4.654
 2272SOL     OW 7937   2.401   1.926   4.236
 2272SOL    HW1 7938   2.320   1.927   4.294
 2272SOL    HW2 7939   2.404   2.009   4.181
 2273SOL     OW 7940   3.296   3.050   3.765
 2273SOL    HW1 7941   3.328   2.974   3.822
 2273SOL    HW2 7942   3.204   3.077   3.795
 2274SOL     OW 7943   2.797   2.098   4.204
 2274SOL    HW1 7944   2.749   2.139   4.126
 2274SOL    HW2 7945   2.896   2.096   4.185
 2275SOL     OW 7946   3.089   3.432   4.517
 2275SOL    HW1 7947   3.110   3.506   4.452
 2275SOL    HW2 7948   3.157   3.432   4.590
 2276SOL     OW 7949   2.321   3.014   4.465
 2276SOL    HW1 7950   2.250   2.987   4.530
 2276SOL    HW2 7951   2.295   2.986   4.372
 2277SOL     OW 7952   3.133   3.659   4.315
 2277SOL    HW1 7953   3.177   3.723   4.251
 2277SOL    HW2 7954   3.083   3.711   4.385
 2278SOL     OW 7955   2.423   2.084   4.871
 2278SOL    HW1 7956   2.461   2.000   4.908
 2278SOL    HW2 7957   2.335   2.103   4.915
 2279SOL     OW 7958   2.728   2.316   4.366
 2279SOL    HW1 7959   2.696   2.388   4.304
 2279SOL    HW2 7960   2.752   2.235   4.313
 2280SOL     OW 7961   2.879   1.901   4.477
 2280SOL    HW1 7962   2.807   1.906   4.408
 2280SOL    HW2 7963   2.855   1.832   4.546
 2281SOL     OW 7964   3.291   3.035   4.591
 2281SOL    HW1 7965   3.236   2.951   4.584
 2281SOL    HW2 7966   3.317   3.064   4.499
 2282SOL     OW 7967   3.328   2.452   4.716
 2282SOL    HW1 7968   3.298   2.357   4.723
 2282SOL    HW2 7969   3.401   2.468   4.782
 2283SOL     OW 7970   3.719   2.695   4.101
 2283SOL    HW1 7971   3.761   2.631   4.165
 2283SOL    HW2 7972   3.681   2.644   4.023
 2284SOL     OW 7973   2.350   3.247   3.898
 2284SOL    HW1 7974   2.263   3.232   3.945
 2284SOL    HW2 7975   2.333   3.273   3.803
 2285SOL     OW 7976   3.526   3.142   4.381
 2285SOL    HW1 7977   3.625   3.150   4.395
 2285SOL    HW2 7978   3.481   3.226   4.412
 2286SOL     OW 7979   3.252   2.437   3.802
 2286SOL    HW1 7980   3.198   2.416   3.883
 2286SOL    HW2 7981   3.343   2.396   3.811
 2287SOL     OW 7982   2.389   2.118   4.052
 2287SOL    HW1 7983   2.416   2.059   3.977
 2287SOL    HW2 7984   2.389   2.213   4.021
 2288SOL     OW 7985   2.973   3.057   4.824
 2288SOL    HW1 7986   2.933   3.101   4.905
 2288SOL    HW2 7987   2.932   3.094   4.741
 2289SOL     OW 7988   3.500   2.961   4.803
 2289SOL    HW1 7989   3.505   3.042   4.862
 2289SOL    HW2 7990   3.414   2.963   4.752
 2290SOL     OW 7991   2.567   2.912   4.092
 2290SOL    HW1 7992   2.553   2.919   4.191
 2290SOL    HW2 7993   2.651   2.861   4.074
 2291SOL     OW 7994   2.272   2.675   4.975
 2291SOL    HW1 7995   2.358   2.687   5.025
 2291SOL    HW2 7996   2.230   2.588   5.002
 2292SOL     OW 7997   3.136   2.248   4.986
 2292SOL    HW1 7998   3.157   2.322   5.050
 2292SOL    HW2 7999   3.047   2.265   4.943
 2293SOL     OW 8000   2.229   2.962   4.225
 2293SOL    HW1 8001   2.222   3.045   4.169
 2293SOL    HW2 8002   2.233   2.882   4.165
 2294SOL     OW 8003   2.428   2.399   4.589
 2294SOL    HW1 8004   2.440   2.465   4.515
 2294SOL    HW2 8005   2.474   2.433   4.672
 2295SOL     OW 8006   3.114   3.210   4.112
 2295SOL    HW1 8007   3.164   3.287   4.152
 2295SOL    HW2 8008   3.019   3.212   4.144
 2296SOL     OW 8009   3.134   3.307   4.866
 2296SOL    HW1 8010   3.181   3.320   4.953
 2296SOL    HW2 8011   3.068   3.233   4.875
 2297SOL     OW 8012   3.444   2.501   4.196
 2297SOL    HW1 8013   3.413   2.562   4.269
 2297SOL    HW2 8014   3.494   2.553   4.127
 2298SOL     OW 8015   2.216   3.372   5.053
 2298SOL    HW1 8016   2.195   3.328   4.966
 2298SOL    HW2 8017   2.313   3.398   5.056
 2299SOL     OW 8018   2.435   2.732   4.753
 2299SOL    HW1 8019   2.479   2.821   4.744
 2299SOL    HW2 8020   2.372   2.732   4.830
 2300SOL     OW 8021   3.222   2.724   4.769
 2300SOL    HW1 8022   3.147   2.724   4.703
 2300SOL    HW2 8023   3.259   2.632   4.778
 2301SOL     OW 8024   3.071   2.387   3.999
 2301SOL    HW1 8025   3.084   2.303   4.053
 2301SOL    HW2 8026   3.042   2.461   4.059
 2302SOL     OW 8027   2.169   2.075   4.955
 2302SOL    HW1 8028   2.146   2.112   5.045
 2302SOL    HW2 8029   2.139   1.980   4.949
 2303SOL     OW 8030   1.899   3.172   5.006
 2303SOL    HW1 8031   1.952   3.123   5.074
 2303SOL    HW2 8032   1.921   3.270   5.011
 2304SOL     OW 8033   2.594   2.496   4.788
 2304SOL    HW1 8034   2.653   2.470   4.712
 2304SOL    HW2 8035   2.566   2.592   4.777
 2305SOL     OW 8036   2.169   1.925   4.342
 2305SOL    HW1 8037   2.158   2.019   4.375
 2305SOL    HW2 8038   2.164   1.862   4.419
 2306SOL     OW 8039   3.484   2.229   4.098
 2306SOL    HW1 8040   3.486   2.153   4.162
 2306SOL    HW2 8041   3.436   2.306   4.138
 2307SOL     OW 8042   2.885   2.628   4.690
 2307SOL    HW1 8043   2.900   2.649   4.786
 2307SOL    HW2 8044   2.855   2.533   4.681
 2308SOL     OW 8045   3.402   2.136   3.849
 2308SOL    HW1 8046   3.341   2.061   3.872
 2308SOL    HW2 8047   3.424   2.188   3.932
 2309SOL     OW 8048   3.165   2.700   3.766
 2309SOL    HW1 8049   3.199   2.607   3.781
 2309SOL    HW2 8050   3.183   2.727   3.671
 2310SOL     OW 8051   2.930   3.195   4.573
 2310SOL    HW1 8052   2.937   3.111   4.518
 2310SOL    HW2 8053   2.992   3.264   4.537
 2311SOL     OW 8054   2.181   2.672   4.673
 2311SOL    HW1 8055   2.274   2.708   4.678
 2311SOL    HW2 8056   2.175   2.587   4.725
 2312SOL     OW 8057   2.201   2.371   4.730
 2312SOL    HW1 8058   2.149   2.288   4.713
 2312SOL    HW2 8059   2.278   2.376   4.666
 2313SOL     OW 8060   3.022   2.069   5.201
 2313SOL    HW1 8061   3.022   2.133   5.278
 2313SOL    HW2 8062   3.050   2.117   5.118
 2314SOL     OW 8063   1.950   3.663   4.651
 2314SOL    HW1 8064   1.908   3.577   4.624
 2314SOL    HW2 8065   2.044   3.666   4.617
 2315SOL     OW 8066   2.366   3.430   4.634
 2315SOL    HW1 8067   2.432   3.504   4.643
 2315SOL    HW2 8068   2.410   3.351   4.592
 2316SOL     OW 8069   2.864   2.658   4.962
 2316SOL    HW1 8070   2.905   2.626   5.048
 2316SOL    HW2 8071   2.768   2.631   4.959
 2317SOL     OW 8072   1.902   2.406   4.838
 2317SOL    HW1 8073   1.987   2.373   4.797
 2317SOL    HW2 8074   1.915   2.421   4.936
 2318SOL     OW 8075   2.677   2.434   4.049
 2318SOL    HW1 8076   2.684   2.345   4.003
 2318SOL    HW2 8077   2.583   2.468   4.041
 2319SOL     OW 8078   3.519   2.466   4.930
 2319SOL    HW1 8079   3.481   2.397   4.992
 2319SOL    HW2 8080   3.601   2.430   4.886
 2320SOL     OW 8081   2.533   2.326   4.993
 2320SOL    HW1 8082   2.499   2.237   4.963
 2320SOL    HW2 8083   2.559   2.380   4.913
 2321SOL     OW 8084   2.792   3.540   5.189
 2321SOL    HW1 8085   2.768   3.522   5.094
 2321SOL    HW2 8086   2.822   3.634   5.199
 2322SOL     OW 8087   2.335   2.362   3.915
 2322SOL    HW1 8088   2.396   2.442   3.919
 2322SOL    HW2 8089   2.240   2.393   3.922
 2323SOL     OW 8090   3.209   2.921   4.958
 2323SOL    HW1 8091   3.233   2.858   4.884
 2323SOL    HW2 8092   3.119   2.961   4.940
 2324SOL     OW 8093   3.164   2.717   4.033
 2324SOL    HW1 8094   3.078   2.686   4.075
 2324SOL    HW2 8095   3.160   2.703   3.934
 2325SOL     OW 8096   3.621   3.609   4.878
 2325SOL    HW1 8097   3.682   3.639   4.805
 2325SOL    HW2 8098   3.583   3.520   4.856
 2326SOL     OW 8099   3.114   3.593   4.852
 2326SOL    HW1 8100   3.198   3.598   4.798
 2326SOL    HW2 8101   3.091   3.497   4.870
 2327SOL     OW 8102   1.945   3.120   4.746
 2327SOL    HW1 8103   1.940   3.119   4.846
 2327SOL    HW2 8104   1.862   3.079   4.708
 2328SOL     OW 8105   3.588   1.997   4.247
 2328SOL    HW1 8106   3.661   1.980   4.180
 2328SOL    HW2 8107   3.557   1.910   4.285
 2329SOL     OW 8108   3.250   3.435   4.201
 2329SOL    HW1 8109   3.317   3.447   4.127
 2329SOL    HW2 8110   3.210   3.524   4.224
 2330SOL     OW 8111   3.142   2.789   4.396
 2330SOL    HW1 8112   3.202   2.708   4.398
 2330SOL    HW2 8113   3.182   2.858   4.336
 2331SOL     OW 8114   2.534   3.478   3.878
 2331SOL    HW1 8115   2.543   3.488   3.779
 2331SOL    HW2 8116   2.494   3.389   3.899
 2332SOL     OW 8117   3.512   3.582   5.118
 2332SOL    HW1 8118   3.565   3.592   5.034
 2332SOL    HW2 8119   3.485   3.672   5.152
 2333SOL     OW 8120   2.125   2.188   4.444
 2333SOL    HW1 8121   2.046   2.239   4.410
 2333SOL    HW2 8122   2.116   2.173   4.542
 2334SOL     OW 8123   3.056   3.474   3.755
 2334SOL    HW1 8124   3.062   3.381   3.792
 2334SOL    HW2 8125   2.997   3.474   3.675
 2335SOL     OW 8126   2.684   2.864   5.096
 2335SOL    HW1 8127   2.724   2.863   5.004
 2335SOL    HW2 8128   2.694   2.956   5.136
 2336SOL     OW 8129   2.778   2.772   4.015
 2336SOL    HW1 8130   2.841   2.810   3.947
 2336SOL    HW2 8131   2.818   2.689   4.054
 2337SOL     OW 8132   3.366   3.469   3.768
 2337SOL    HW1 8133   3.274   3.506   3.775
 2337SOL    HW2 8134   3.404   3.489   3.678
 2338SOL     OW 8135   2.901   2.960   4.420
 2338SOL    HW1 8136   2.831   2.913   4.474
 2338SOL    HW2 8137   2.960   2.892   4.377
 2339SOL     OW 8138   2.452   3.349   4.215
 2339SOL    HW1 8139   2.494   3.291   4.145
 2339SOL    HW2 8140   2.408   3.428   4.171
 2340SOL     OW 8141   3.571   2.247   5.105
 2340SOL    HW1 8142   3.644   2.316   5.109
 2340SOL    HW2 8143   3.599   2.172   5.046
 2341SOL     OW 8144   2.117   3.210   4.014
 2341SOL    HW1 8145   2.021   3.211   3.987
 2341SOL    HW2 8146   2.129   3.263   4.098
 2342SOL     OW 8147   1.937   2.207   3.757
 2342SOL    HW1 8148   1.845   2.179   3.728
 2342SOL    HW2 8149   1.968   2.284   3.701
 2343SOL     OW 8150   3.045   3.197   3.843
 2343SOL    HW1 8151   2.946   3.186   3.845
 2343SOL    HW2 8152   3.079   3.212   3.936
 2344SOL     OW 8153   3.355   3.629   4.683
 2344SOL    HW1 8154   3.388   3.693   4.614
 2344SOL    HW2 8155   3.421   3.623   4.758
 2345SOL     OW 8156   3.312   3.082   5.357
 2345SOL    HW1 8157   3.303   3.072   5.456
 2345SOL    HW2 8158   3.408   3.075   5.331
 2346SOL     OW 8159   3.536   2.745   4.978
 2346SOL    HW1 8160   3.509   2.656   4.941
 2346SOL    HW2 8161   3.537   2.813   4.905
 2347SOL     OW 8162   3.087   2.187   4.173
 2347SOL    HW1 8163   3.152   2.113   4.162
 2347SOL    HW2 8164   3.107   2.237   4.257
 2348SOL     OW 8165   2.456   2.607   4.376
 2348SOL    HW1 8166   2.506   2.692   4.357
 2348SOL    HW2 8167   2.368   2.609   4.328
 2349SOL     OW 8168   3.592   2.796   5.241
 2349SOL    HW1 8169   3.630   2.887   5.256
 2349SOL    HW2 8170   3.584   2.779   5.142
 2350SOL     OW 8171   2.721   3.236   3.740
 2350SOL    HW1 8172   2.675   3.251   3.828
 2350SOL    HW2 8173   2.765   3.321   3.710
 2351SOL     OW 8174   2.721   2.818   4.585
 2351SOL    HW1 8175   2.775   2.749   4.633
 2351SOL    HW2 8176   2.689   2.887   4.651
 2352SOL     OW 8177   2.945   2.846   3.811
 2352SOL    HW1 8178   2.922   2.899   3.729
 2352SOL    HW2 8179   3.026   2.790   3.792
 2353SOL     OW 8180   3.723   3.431   4.575
 2353SOL    HW1 8181   3.652   3.419   4.505
 2353SOL    HW2 8182   3.724   3.352   4.635
 2354SOL     OW 8183   1.941   3.102   4.377
 2354SOL    HW1 8184   1.940   3.055   4.465
 2354SOL    HW2 8185   2.023   3.074   4.326
 2355SOL     OW 8186   2.290   2.286   4.244
 2355SOL    HW1 8187   2.320   2.214   4.182
 2355SOL    HW2 8188   2.251   2.246   4.327
 2356SOL     OW 8189   3.567   3.349   4.828
 2356SOL    HW1 8190   3.474   3.324   4.801
 2356SOL    HW2 8191   3.593   3.299   4.910
 2357SOL     OW 8192   2.674   3.448   4.411
 2357SOL    HW1 8193   2.706   3.458   4.317
 2357SOL    HW2 8194   2.595   3.386   4.413
 2358SOL     OW 8195   2.632   3.192   4.025
 2358SOL    HW1 8196   2.586   3.105   4.042
 2358SOL    HW2 8197   2.723   3.189   4.066
 2359SOL     OW 8198   3.214   1.914   3.892
 2359SOL    HW1 8199   3.249   1.873   3.808
 2359SOL    HW2 8200   3.124   1.876   3.912
 2360SOL     OW 8201   3.162   2.315   4.415
 2360SOL    HW1 8202   3.103   2.395   4.419
 2360SOL    HW2 8203   3.177   2.280   4.508
 2361SOL     OW 8204   3.455   2.083   4.606
 2361SOL    HW1 8205   3.371   2.082   4.660
 2361SOL    HW2 8206   3.457   2.166   4.550
 2362SOL     OW 8207   2.737   3.508   4.061
 2362SOL    HW1 8208   2.660   3.473   4.007
 2362SOL    HW2 8209   2.705   3.579   4.123
 2363SOL     OW 8210   2.092   4.352   0.113
 2363SOL    HW1 8211   1.999   4.350   0.150
 2363SOL    HW2 8212   2.093   4.313   0.021
 2364SOL     OW 8213   2.087   3.999   0.996
 2364SOL    HW1 8214   2.122   3.982   1.088
 2364SOL    HW2 8215   1.999   3.954   0.984
 2365SOL     OW 8216   1.881   4.092   0.647
 2365SOL    HW1 8217   1.799   4.135   0.686
 2365SOL    HW2 8218   1.853   4.019   0.584
 2366SOL     OW 8219   2.431   4.999   1.165
 2366SOL    HW1 8220   2.338   4.992   1.128
 2366SOL    HW2 8221   2.442   5.088   1.209
 2367SOL     OW 8222   3.417   5.235   0.703
 2367SOL    HW1 8223   3.360   5.219   0.784
 2367SOL    HW2 8224   3.358   5.245   0.623
 2368SOL     OW 8225   2.997   4.427   0.717
 2368SOL    HW1 8226   3.054   4.505   0.692
 2368SOL    HW2 8227   2.937   4.453   0.793
 2369SOL     OW 8228   3.617   4.331   0.231
 2369SOL    HW1 8229   3.605   4.318   0.132
 2369SOL    HW2 8230   3.587   4.250   0.280
 2370SOL     OW 8231   2.712   4.522   1.823
 2370SOL    HW1 8232   2.708   4.598   1.888
 2370SOL    HW2 8233   2.734   4.558   1.732
 2371SOL     OW 8234   2.547   4.736   0.665
 2371SOL    HW1 8235   2.616   4.720   0.735
 2371SOL    HW2 8236   2.474   4.793   0.703
 2372SOL     OW 8237   2.548   4.885   1.803
 2372SOL    HW1 8238   2.608   4.964   1.817
 2372SOL    HW2 8239   2.462   4.916   1.762
 2373SOL     OW 8240   2.197   5.159   1.061
 2373SOL    HW1 8241   2.119   5.128   1.008
 2373SOL    HW2 8242   2.255   5.217   1.004
 2374SOL     OW 8243   2.300   4.116   1.499
 2374SOL    HW1 8244   2.382   4.060   1.508
 2374SOL    HW2 8245   2.219   4.058   1.503
 2375SOL     OW 8246   3.465   4.171   0.737
 2375SOL    HW1 8247   3.391   4.217   0.687
 2375SOL    HW2 8248   3.516   4.239   0.790
 2376SOL     OW 8249   2.102   4.815   0.886
 2376SOL    HW1 8250   2.116   4.731   0.938
 2376SOL    HW2 8251   2.047   4.879   0.941
 2377SOL     OW 8252   2.468   4.688   0.123
 2377SOL    HW1 8253   2.475   4.772   0.069
 2377SOL    HW2 8254   2.514   4.701   0.211
 2378SOL     OW 8255   3.456   3.838   1.480
 2378SOL    HW1 8256   3.438   3.905   1.408
 2378SOL    HW2 8257   3.453   3.884   1.569
 2379SOL     OW 8258   1.984   4.367   0.563
 2379SOL    HW1 8259   1.939   4.279   0.580
 2379SOL    HW2 8260   1.983   4.421   0.647
 2380SOL     OW 8261   3.551   4.646   0.612
 2380SOL    HW1 8262   3.646   4.617   0.620
 2380SOL    HW2 8263   3.543   4.711   0.537
 2381SOL     OW 8264   3.503   4.832   0.432
 2381SOL    HW1 8265   3.589   4.834   0.380
 2381SOL    HW2 8266   3.517   4.879   0.520
 2382SOL     OW 8267   1.975   4.461   1.597
 2382SOL    HW1 8268   2.063   4.448   1.642
 2382SOL    HW2 8269   1.962   4.558   1.575
 2383SOL     OW 8270   3.155   4.952   1.423
 2383SOL    HW1 8271   3.192   4.879   1.365
 2383SOL    HW2 8272   3.207   4.957   1.508
 2384SOL     OW 8273   2.671   3.728   0.502
 2384SOL    HW1 8274   2.711   3.819   0.493
 2384SOL    HW2 8275   2.571   3.736   0.508
 2385SOL     OW 8276   2.059   4.700   1.264
 2385SOL    HW1 8277   2.148   4.655   1.250
 2385SOL    HW2 8278   1.986   4.635   1.245
 2386SOL     OW 8279   3.387   4.723   0.190
 2386SOL    HW1 8280   3.324   4.647   0.203
 2386SOL    HW2 8281   3.435   4.741   0.276
 2387SOL     OW 8282   2.179   3.975   1.801
 2387SOL    HW1 8283   2.250   4.046   1.807
 2387SOL    HW2 8284   2.091   4.014   1.829
 2388SOL     OW 8285   3.328   5.141   0.953
 2388SOL    HW1 8286   3.269   5.147   1.033
 2388SOL    HW2 8287   3.313   5.053   0.907
 2389SOL     OW 8288   2.460   4.453   0.270
 2389SOL    HW1 8289   2.484   4.522   0.202
 2389SOL    HW2 8290   2.382   4.486   0.324
 2390SOL     OW 8291   3.143   4.069   0.944
 2390SOL    HW1 8292   3.057   4.019   0.931
 2390SOL    HW2 8293   3.205   4.015   1.000
 2391SOL     OW 8294   2.669   4.329   1.465
 2391SOL    HW1 8295   2.622   4.326   1.554
 2391SOL    HW2 8296   2.618   4.274   1.399
 2392SOL     OW 8297   3.256   4.193   1.674
 2392SOL    HW1 8298   3.236   4.236   1.762
 2392SOL    HW2 8299   3.334   4.131   1.683
 2393SOL     OW 8300   2.835   4.614   1.572
 2393SOL    HW1 8301   2.881   4.530   1.543
 2393SOL    HW2 8302   2.779   4.648   1.497
 2394SOL     OW 8303   2.853   4.134   1.242
 2394SOL    HW1 8304   2.776   4.168   1.296
 2394SOL    HW2 8305   2.819   4.083   1.163
 2395SOL     OW 8306   2.903   4.425   0.429
 2395SOL    HW1 8307   2.929   4.421   0.525
 2395SOL    HW2 8308   2.818   4.374   0.415
 2396SOL     OW 8309   1.938   4.535   0.789
 2396SOL    HW1 8310   2.037   4.523   0.798
 2396SOL    HW2 8311   1.914   4.630   0.810
 2397SOL     OW 8312   2.727   4.072   0.195
 2397SOL    HW1 8313   2.786   4.135   0.146
 2397SOL    HW2 8314   2.746   3.978   0.166
 2398SOL     OW 8315   3.581   4.309   1.831
 2398SOL    HW1 8316   3.555   4.398   1.795
 2398SOL    HW2 8317   3.579   4.241   1.758
 2399SOL     OW 8318   3.224   4.868   0.545
 2399SOL    HW1 8319   3.307   4.839   0.497
 2399SOL    HW2 8320   3.175   4.935   0.489
 2400SOL     OW 8321   2.412   3.920   0.885
 2400SOL    HW1 8322   2.407   3.915   0.985
 2400SOL    HW2 8323   2.414   4.016   0.856
 2401SOL     OW 8324   3.657   4.790   0.873
 2401SOL    HW1 8325   3.595   4.775   0.797
 2401SOL    HW2 8326   3.605   4.801   0.958
 2402SOL     OW 8327   2.183   4.667   0.242
 2402SOL    HW1 8328   2.265   4.706   0.200
 2402SOL    HW2 8329   2.156   4.585   0.193
 2403SOL     OW 8330   3.320   4.459   0.728
 2403SOL    HW1 8331   3.315   4.394   0.803
 2403SOL    HW2 8332   3.400   4.518   0.741
 2404SOL     OW 8333   2.064   4.009   1.498
 2404SOL    HW1 8334   1.984   4.069   1.485
 2404SOL    HW2 8335   2.054   3.960   1.584
 2405SOL     OW 8336   3.494   5.101   0.081
 2405SOL    HW1 8337   3.462   5.195   0.071
 2405SOL    HW2 8338   3.418   5.038   0.069
 2406SOL     OW 8339   3.262   3.831   0.426
 2406SOL    HW1 8340   3.238   3.794   0.336
 2406SOL    HW2 8341   3.361   3.847   0.430
 2407SOL     OW 8342   2.244   4.424   0.480
 2407SOL    HW1 8343   2.289   4.334   0.477
 2407SOL    HW2 8344   2.150   4.413   0.513
 2408SOL     OW 8345   3.409   3.946   1.729
 2408SOL    HW1 8346   3.404   3.983   1.821
 2408SOL    HW2 8347   3.337   3.877   1.717
 2409SOL     OW 8348   2.643   3.988   1.749
 2409SOL    HW1 8349   2.710   3.927   1.792
 2409SOL    HW2 8350   2.570   4.007   1.814
 2410SOL     OW 8351   3.213   4.314   1.433
 2410SOL    HW1 8352   3.241   4.271   1.518
 2410SOL    HW2 8353   3.238   4.410   1.434
 2411SOL     OW 8354   2.784   4.227   0.899
 2411SOL    HW1 8355   2.759   4.218   0.803
 2411SOL    HW2 8356   2.832   4.145   0.930
 2412SOL     OW 8357   2.401   3.788   0.512
 2412SOL    HW1 8358   2.320   3.789   0.570
 2412SOL    HW2 8359   2.404   3.871   0.457
 2413SOL     OW 8360   3.296   4.912   0.041
 2413SOL    HW1 8361   3.328   4.836   0.098
 2413SOL    HW2 8362   3.204   4.939   0.071
 2414SOL     OW 8363   2.159   3.759   0.171
 2414SOL    HW1 8364   2.208   3.843   0.150
 2414SOL    HW2 8365   2.221   3.694   0.216
 2415SOL     OW 8366   2.797   3.960   0.480
 2415SOL    HW1 8367   2.749   4.001   0.402
 2415SOL    HW2 8368   2.896   3.958   0.461
 2416SOL     OW 8369   2.938   4.407   1.464
 2416SOL    HW1 8370   2.858   4.346   1.467
 2416SOL    HW2 8371   3.019   4.354   1.440
 2417SOL     OW 8372   3.089   5.294   0.793
 2417SOL    HW1 8373   3.110   5.368   0.728
 2417SOL    HW2 8374   3.157   5.294   0.866
 2418SOL     OW 8375   2.321   4.876   0.741
 2418SOL    HW1 8376   2.250   4.849   0.806
 2418SOL    HW2 8377   2.295   4.848   0.648
 2419SOL     OW 8378   1.940   4.280   1.386
 2419SOL    HW1 8379   2.032   4.279   1.345
 2419SOL    HW2 8380   1.934   4.354   1.453
 2420SOL     OW 8381   2.423   3.946   1.147
 2420SOL    HW1 8382   2.461   3.862   1.184
 2420SOL    HW2 8383   2.335   3.965   1.191
 2421SOL     OW 8384   2.728   4.178   0.642
 2421SOL    HW1 8385   2.696   4.250   0.580
 2421SOL    HW2 8386   2.752   4.097   0.589
 2422SOL     OW 8387   2.879   3.763   0.753
 2422SOL    HW1 8388   2.807   3.768   0.684
 2422SOL    HW2 8389   2.855   3.694   0.822
 2423SOL     OW 8390   3.291   4.897   0.867
 2423SOL    HW1 8391   3.236   4.813   0.860
 2423SOL    HW2 8392   3.317   4.926   0.775
 2424SOL     OW 8393   3.328   4.314   0.992
 2424SOL    HW1 8394   3.298   4.219   0.999
 2424SOL    HW2 8395   3.401   4.330   1.058
 2425SOL     OW 8396   3.719   4.557   0.377
 2425SOL    HW1 8397   3.761   4.493   0.441
 2425SOL    HW2 8398   3.681   4.506   0.299
 2426SOL     OW 8399   3.526   5.004   0.657
 2426SOL    HW1 8400   3.625   5.012   0.671
 2426SOL    HW2 8401   3.481   5.088   0.688
 2427SOL     OW 8402   2.389   3.980   0.328
 2427SOL    HW1 8403   2.416   3.921   0.253
 2427SOL    HW2 8404   2.389   4.075   0.297
 2428SOL     OW 8405   3.616   4.947   1.588
 2428SOL    HW1 8406   3.707   4.908   1.575
 2428SOL    HW2 8407   3.624   5.043   1.612
 2429SOL     OW 8408   3.500   4.823   1.079
 2429SOL    HW1 8409   3.505   4.904   1.138
 2429SOL    HW2 8410   3.414   4.825   1.028
 2430SOL     OW 8411   2.777   3.813   1.402
 2430SOL    HW1 8412   2.802   3.793   1.307
 2430SOL    HW2 8413   2.849   3.869   1.444
 2431SOL     OW 8414   2.842   4.840   1.719
 2431SOL    HW1 8415   2.743   4.846   1.729
 2431SOL    HW2 8416   2.865   4.760   1.663
 2432SOL     OW 8417   2.567   4.774   0.368
 2432SOL    HW1 8418   2.553   4.781   0.467
 2432SOL    HW2 8419   2.651   4.723   0.350
 2433SOL     OW 8420   2.272   4.537   1.251
 2433SOL    HW1 8421   2.358   4.549   1.301
 2433SOL    HW2 8422   2.230   4.450   1.278
 2434SOL     OW 8423   3.136   4.110   1.262
 2434SOL    HW1 8424   3.157   4.184   1.326
 2434SOL    HW2 8425   3.047   4.127   1.219
 2435SOL     OW 8426   2.229   4.824   0.501
 2435SOL    HW1 8427   2.222   4.907   0.445
 2435SOL    HW2 8428   2.233   4.744   0.441
 2436SOL     OW 8429   2.428   4.261   0.865
 2436SOL    HW1 8430   2.440   4.327   0.791
 2436SOL    HW2 8431   2.474   4.295   0.948
 2437SOL     OW 8432   3.444   4.363   0.472
 2437SOL    HW1 8433   3.413   4.424   0.545
 2437SOL    HW2 8434   3.494   4.415   0.403
 2438SOL     OW 8435   2.264   4.475   1.598
 2438SOL    HW1 8436   2.332   4.530   1.551
 2438SOL    HW2 8437   2.304   4.387   1.625
 2439SOL     OW 8438   3.449   4.503   1.670
 2439SOL    HW1 8439   3.357   4.541   1.665
 2439SOL    HW2 8440   3.509   4.550   1.605
 2440SOL     OW 8441   2.875   3.829   1.770
 2440SOL    HW1 8442   2.881   3.914   1.718
 2440SOL    HW2 8443   2.907   3.753   1.713
 2441SOL     OW 8444   2.366   3.774   1.740
 2441SOL    HW1 8445   2.324   3.717   1.670
 2441SOL    HW2 8446   2.300   3.843   1.772
 2442SOL     OW 8447   2.435   4.594   1.029
 2442SOL    HW1 8448   2.479   4.683   1.020
 2442SOL    HW2 8449   2.372   4.594   1.106
 2443SOL     OW 8450   3.222   4.586   1.045
 2443SOL    HW1 8451   3.147   4.586   0.979
 2443SOL    HW2 8452   3.259   4.494   1.054
 2444SOL     OW 8453   3.071   4.249   0.275
 2444SOL    HW1 8454   3.084   4.165   0.329
 2444SOL    HW2 8455   3.042   4.323   0.335
 2445SOL     OW 8456   2.169   3.937   1.231
 2445SOL    HW1 8457   2.146   3.974   1.321
 2445SOL    HW2 8458   2.139   3.842   1.225
 2446SOL     OW 8459   2.594   4.358   1.064
 2446SOL    HW1 8460   2.653   4.332   0.988
 2446SOL    HW2 8461   2.566   4.454   1.053
 2447SOL     OW 8462   3.590   4.659   1.854
 2447SOL    HW1 8463   3.544   4.652   1.765
 2447SOL    HW2 8464   3.528   4.703   1.920
 2448SOL     OW 8465   2.169   3.787   0.618
 2448SOL    HW1 8466   2.158   3.881   0.651
 2448SOL    HW2 8467   2.164   3.724   0.695
 2449SOL     OW 8468   3.484   4.091   0.374
 2449SOL    HW1 8469   3.486   4.015   0.438
 2449SOL    HW2 8470   3.436   4.168   0.414
 2450SOL     OW 8471   2.885   4.490   0.966
 2450SOL    HW1 8472   2.900   4.511   1.062
 2450SOL    HW2 8473   2.855   4.395   0.957
 2451SOL     OW 8474   3.721   5.242   1.605
 2451SOL    HW1 8475   3.735   5.269   1.510
 2451SOL    HW2 8476   3.804   5.264   1.658
 2452SOL     OW 8477   2.212   4.622   1.804
 2452SOL    HW1 8478   2.288   4.666   1.852
 2452SOL    HW2 8479   2.247   4.575   1.722
 2453SOL     OW 8480   3.402   3.998   0.125
 2453SOL    HW1 8481   3.341   3.923   0.148
 2453SOL    HW2 8482   3.424   4.050   0.208
 2454SOL     OW 8483   2.181   4.534   0.949
 2454SOL    HW1 8484   2.274   4.570   0.954
 2454SOL    HW2 8485   2.175   4.449   1.001
 2455SOL     OW 8486   2.201   4.233   1.006
 2455SOL    HW1 8487   2.149   4.150   0.989
 2455SOL    HW2 8488   2.278   4.238   0.942
 2456SOL     OW 8489   3.000   4.104   1.678
 2456SOL    HW1 8490   2.955   4.167   1.742
 2456SOL    HW2 8491   3.093   4.135   1.661
 2457SOL     OW 8492   3.022   3.931   1.477
 2457SOL    HW1 8493   3.022   3.995   1.554
 2457SOL    HW2 8494   3.050   3.979   1.394
 2458SOL     OW 8495   2.864   4.520   1.238
 2458SOL    HW1 8496   2.905   4.488   1.324
 2458SOL    HW2 8497   2.768   4.493   1.235
 2459SOL     OW 8498   1.902   4.268   1.114
 2459SOL    HW1 8499   1.987   4.235   1.073
 2459SOL    HW2 8500   1.915   4.283   1.212
 2460SOL     OW 8501   2.051   4.244   1.722
 2460SOL    HW1 8502   2.110   4.204   1.652
 2460SOL    HW2 8503   1.993   4.315   1.681
 2461SOL     OW 8504   3.231   4.674   1.660
 2461SOL    HW1 8505   3.270   4.763   1.680
 2461SOL    HW2 8506   3.241   4.654   1.563
 2462SOL     OW 8507   2.677   4.296   0.325
 2462SOL    HW1 8508   2.684   4.207   0.279
 2462SOL    HW2 8509   2.583   4.330   0.317
 2463SOL     OW 8510   3.519   4.328   1.206
 2463SOL    HW1 8511   3.481   4.259   1.268
 2463SOL    HW2 8512   3.601   4.292   1.162
 2464SOL     OW 8513   2.533   4.188   1.269
 2464SOL    HW1 8514   2.499   4.099   1.239
 2464SOL    HW2 8515   2.559   4.242   1.189
 2465SOL     OW 8516   2.335   4.224   0.191
 2465SOL    HW1 8517   2.396   4.304   0.195
 2465SOL    HW2 8518   2.240   4.255   0.198
 2466SOL     OW 8519   2.021   4.861   1.466
 2466SOL    HW1 8520   2.043   4.800   1.542
 2466SOL    HW2 8521   2.031   4.812   1.380
 2467SOL     OW 8522   3.209   4.783   1.234
 2467SOL    HW1 8523   3.233   4.720   1.160
 2467SOL    HW2 8524   3.119   4.823   1.216
 2468SOL     OW 8525   3.164   4.579   0.309
 2468SOL    HW1 8526   3.078   4.548   0.351
 2468SOL    HW2 8527   3.160   4.565   0.210
 2469SOL     OW 8528   1.945   4.982   1.022
 2469SOL    HW1 8529   1.940   4.981   1.122
 2469SOL    HW2 8530   1.862   4.941   0.984
 2470SOL     OW 8531   2.765   3.810   0.133
 2470SOL    HW1 8532   2.816   3.811   0.047
 2470SOL    HW2 8533   2.821   3.768   0.204
 2471SOL     OW 8534   3.588   3.859   0.523
 2471SOL    HW1 8535   3.661   3.842   0.456
 2471SOL    HW2 8536   3.557   3.772   0.561
 2472SOL     OW 8537   3.142   4.651   0.672
 2472SOL    HW1 8538   3.202   4.570   0.674
 2472SOL    HW2 8539   3.182   4.720   0.612
 2473SOL     OW 8540   2.692   4.997   1.422
 2473SOL    HW1 8541   2.687   5.030   1.517
 2473SOL    HW2 8542   2.606   5.016   1.376
 2474SOL     OW 8543   3.703   3.899   0.963
 2474SOL    HW1 8544   3.742   3.814   0.927
 2474SOL    HW2 8545   3.605   3.901   0.944
 2475SOL     OW 8546   2.125   4.050   0.720
 2475SOL    HW1 8547   2.046   4.101   0.686
 2475SOL    HW2 8548   2.116   4.035   0.818
 2476SOL     OW 8549   2.684   4.726   1.372
 2476SOL    HW1 8550   2.724   4.725   1.280
 2476SOL    HW2 8551   2.694   4.818   1.412
 2477SOL     OW 8552   2.778   4.634   0.291
 2477SOL    HW1 8553   2.841   4.672   0.223
 2477SOL    HW2 8554   2.818   4.551   0.330
 2478SOL     OW 8555   2.234   5.012   1.490
 2478SOL    HW1 8556   2.221   5.105   1.456
 2478SOL    HW2 8557   2.150   4.960   1.477
 2479SOL     OW 8558   3.476   5.016   1.289
 2479SOL    HW1 8559   3.536   5.019   1.369
 2479SOL    HW2 8560   3.401   5.080   1.302
 2480SOL     OW 8561   2.901   4.822   0.696
 2480SOL    HW1 8562   2.831   4.775   0.750
 2480SOL    HW2 8563   2.960   4.754   0.653
 2481SOL     OW 8564   2.876   3.960   0.971
 2481SOL    HW1 8565   2.868   3.924   0.878
 2481SOL    HW2 8566   2.874   3.884   1.036
 2482SOL     OW 8567   3.571   4.109   1.381
 2482SOL    HW1 8568   3.644   4.178   1.385
 2482SOL    HW2 8569   3.599   4.034   1.322
 2483SOL     OW 8570   1.967   4.737   1.726
 2483SOL    HW1 8571   1.890   4.704   1.780
 2483SOL    HW2 8572   2.052   4.707   1.768
 2484SOL     OW 8573   2.534   3.927   1.489
 2484SOL    HW1 8574   2.624   3.911   1.449
 2484SOL    HW2 8575   2.542   3.932   1.588
 2485SOL     OW 8576   3.302   4.580   1.398
 2485SOL    HW1 8577   3.245   4.632   1.335
 2485SOL    HW2 8578   3.398   4.592   1.374
 2486SOL     OW 8579   1.934   3.890   0.318
 2486SOL    HW1 8580   1.917   3.973   0.264
 2486SOL    HW2 8581   2.024   3.853   0.296
 2487SOL     OW 8582   2.475   4.566   1.431
 2487SOL    HW1 8583   2.531   4.647   1.414
 2487SOL    HW2 8584   2.534   4.486   1.434
 2488SOL     OW 8585   2.578   4.289   1.708
 2488SOL    HW1 8586   2.597   4.354   1.782
 2488SOL    HW2 8587   2.638   4.209   1.717
 2489SOL     OW 8588   3.312   4.944   1.633
 2489SOL    HW1 8589   3.303   4.934   1.732
 2489SOL    HW2 8590   3.408   4.937   1.607
 2490SOL     OW 8591   3.536   4.607   1.254
 2490SOL    HW1 8592   3.509   4.518   1.217
 2490SOL    HW2 8593   3.537   4.675   1.181
 2491SOL     OW 8594   3.087   4.049   0.449
 2491SOL    HW1 8595   3.152   3.975   0.438
 2491SOL    HW2 8596   3.107   4.099   0.533
 2492SOL     OW 8597   2.456   4.469   0.652
 2492SOL    HW1 8598   2.506   4.554   0.633
 2492SOL    HW2 8599   2.368   4.471   0.604
 2493SOL     OW 8600   3.639   4.066   1.642
 2493SOL    HW1 8601   3.622   4.097   1.548
 2493SOL    HW2 8602   3.555   4.029   1.680
 2494SOL     OW 8603   3.592   4.658   1.517
 2494SOL    HW1 8604   3.630   4.749   1.532
 2494SOL    HW2 8605   3.584   4.641   1.418
 2495SOL     OW 8606   2.721   4.680   0.861
 2495SOL    HW1 8607   2.775   4.611   0.909
 2495SOL    HW2 8608   2.689   4.749   0.927
 2496SOL     OW 8609   2.945   4.708   0.087
 2496SOL    HW1 8610   2.922   4.761   0.005
 2496SOL    HW2 8611   3.026   4.652   0.068
 2497SOL     OW 8612   1.941   4.964   0.653
 2497SOL    HW1 8613   1.940   4.917   0.741
 2497SOL    HW2 8614   2.023   4.936   0.602
 2498SOL     OW 8615   3.686   3.916   1.227
 2498SOL    HW1 8616   3.682   3.826   1.271
 2498SOL    HW2 8617   3.689   3.905   1.128
 2499SOL     OW 8618   2.290   4.148   0.520
 2499SOL    HW1 8619   2.320   4.076   0.458
 2499SOL    HW2 8620   2.251   4.108   0.603
 2500SOL     OW 8621   2.179   4.271   1.280
 2500SOL    HW1 8622   2.217   4.212   1.352
 2500SOL    HW2 8623   2.219   4.245   1.192
 2501SOL     OW 8624   3.286   3.938   1.112
 2501SOL    HW1 8625   3.338   3.873   1.167
 2501SOL    HW2 8626   3.237   4.001   1.173
 2502SOL     OW 8627   2.863   3.758   1.154
 2502SOL    HW1 8628   2.800   3.686   1.123
 2502SOL    HW2 8629   2.956   3.722   1.154
 2503SOL     OW 8630   2.632   5.054   0.301
 2503SOL    HW1 8631   2.586   4.967   0.318
 2503SOL    HW2 8632   2.723   5.051   0.342
 2504SOL     OW 8633   3.214   3.776   0.168
 2504SOL    HW1 8634   3.249   3.735   0.084
 2504SOL    HW2 8635   3.124   3.738   0.188
 2505SOL     OW 8636   3.162   4.177   0.691
 2505SOL    HW1 8637   3.103   4.257   0.695
 2505SOL    HW2 8638   3.177   4.142   0.784
 2506SOL     OW 8639   3.455   3.945   0.882
 2506SOL    HW1 8640   3.371   3.944   0.936
 2506SOL    HW2 8641   3.457   4.028   0.826
 2507SOL     OW 8642   1.901   4.801   0.300
 2507SOL    HW1 8643   2.000   4.790   0.291
 2507SOL    HW2 8644   1.861   4.715   0.332
 2508SOL     OW 8645   2.092   4.352   1.975
 2508SOL    HW1 8646   1.999   4.350   2.012
 2508SOL    HW2 8647   2.093   4.313   1.883
 2509SOL     OW 8648   2.087   3.999   2.858
 2509SOL    HW1 8649   2.122   3.982   2.950
 2509SOL    HW2 8650   1.999   3.954   2.846
 2510SOL     OW 8651   1.881   4.092   2.509
 2510SOL    HW1 8652   1.799   4.135   2.548
 2510SOL    HW2 8653   1.853   4.019   2.446
 2511SOL     OW 8654   2.431   4.999   3.027
 2511SOL    HW1 8655   2.338   4.992   2.990
 2511SOL    HW2 8656   2.442   5.088   3.071
 2512SOL     OW 8657   3.417   5.235   2.565
 2512SOL    HW1 8658   3.360   5.219   2.646
 2512SOL    HW2 8659   3.358   5.245   2.485
 2513SOL     OW 8660   3.617   4.331   2.093
 2513SOL    HW1 8661   3.605   4.318   1.994
 2513SOL    HW2 8662   3.587   4.250   2.142
 2514SOL     OW 8663   2.712   4.522   3.685
 2514SOL    HW1 8664   2.708   4.598   3.750
 2514SOL    HW2 8665   2.734   4.558   3.594
 2515SOL     OW 8666   2.548   4.885   3.665
 2515SOL    HW1 8667   2.608   4.964   3.679
 2515SOL    HW2 8668   2.462   4.916   3.624
 2516SOL     OW 8669   2.300   4.116   3.361
 2516SOL    HW1 8670   2.382   4.060   3.370
 2516SOL    HW2 8671   2.219   4.058   3.365
 2517SOL     OW 8672   3.465   4.171   2.599
 2517SOL    HW1 8673   3.391   4.217   2.549
 2517SOL    HW2 8674   3.516   4.239   2.652
 2518SOL     OW 8675   2.102   4.815   2.748
 2518SOL    HW1 8676   2.116   4.731   2.800
 2518SOL    HW2 8677   2.047   4.879   2.803
 2519SOL     OW 8678   2.468   4.688   1.985
 2519SOL    HW1 8679   2.475   4.772   1.931
 2519SOL    HW2 8680   2.514   4.701   2.073
 2520SOL     OW 8681   3.456   3.838   3.342
 2520SOL    HW1 8682   3.438   3.905   3.270
 2520SOL    HW2 8683   3.453   3.884   3.431
 2521SOL     OW 8684   1.984   4.367   2.425
 2521SOL    HW1 8685   1.939   4.279   2.442
 2521SOL    HW2 8686   1.983   4.421   2.509
 2522SOL     OW 8687   3.503   4.832   2.294
 2522SOL    HW1 8688   3.589   4.834   2.242
 2522SOL    HW2 8689   3.517   4.879   2.382
 2523SOL     OW 8690   1.975   4.461   3.459
 2523SOL    HW1 8691   2.063   4.448   3.504
 2523SOL    HW2 8692   1.962   4.558   3.437
 2524SOL     OW 8693   3.155   4.952   3.285
 2524SOL    HW1 8694   3.192   4.879   3.227
 2524SOL    HW2 8695   3.207   4.957   3.370
 2525SOL     OW 8696   2.671   3.728   2.364
 2525SOL    HW1 8697   2.711   3.819   2.355
 2525SOL    HW2 8698   2.571   3.736   2.370
 2526SOL     OW 8699   2.059   4.700   3.126
 2526SOL    HW1 8700   2.148   4.655   3.112
 2526SOL    HW2 8701   1.986   4.635   3.107
 2527SOL     OW 8702   3.387   4.723   2.052
 2527SOL    HW1 8703   3.324   4.647   2.065
 2527SOL    HW2 8704   3.435   4.741   2.138
 2528SOL     OW 8705   2.179   3.975   3.663
 2528SOL    HW1 8706   2.250   4.046   3.669
 2528SOL    HW2 8707   2.091   4.014   3.691
 2529SOL     OW 8708   3.328   5.141   2.815
 2529SOL    HW1 8709   3.269   5.147   2.895
 2529SOL    HW2 8710   3.313   5.053   2.769
 2530SOL     OW 8711   2.460   4.453   2.132
 2530SOL    HW1 8712   2.484   4.522   2.064
 2530SOL    HW2 8713   2.382   4.486   2.186
 2531SOL     OW 8714   3.143   4.069   2.806
 2531SOL    HW1 8715   3.057   4.019   2.793
 2531SOL    HW2 8716   3.205   4.015   2.862
 2532SOL     OW 8717   2.669   4.329   3.327
 2532SOL    HW1 8718   2.622   4.326   3.416
 2532SOL    HW2 8719   2.618   4.274   3.261
 2533SOL     OW 8720   3.256   4.193   3.536
 2533SOL    HW1 8721   3.236   4.236   3.624
 2533SOL    HW2 8722   3.334   4.131   3.545
 2534SOL     OW 8723   2.835   4.614   3.434
 2534SOL    HW1 8724   2.881   4.530   3.405
 2534SOL    HW2 8725   2.779   4.648   3.359
 2535SOL     OW 8726   2.853   4.134   3.104
 2535SOL    HW1 8727   2.776   4.168   3.158
 2535SOL    HW2 8728   2.819   4.083   3.025
 2536SOL     OW 8729   1.938   4.535   2.651
 2536SOL    HW1 8730   2.037   4.523   2.660
 2536SOL    HW2 8731   1.914   4.630   2.672
 2537SOL     OW 8732   2.727   4.072   2.057
 2537SOL    HW1 8733   2.786   4.135   2.008
 2537SOL    HW2 8734   2.746   3.978   2.028
 2538SOL     OW 8735   2.412   3.920   2.747
 2538SOL    HW1 8736   2.407   3.915   2.847
 2538SOL    HW2 8737   2.414   4.016   2.718
 2539SOL     OW 8738   2.183   4.667   2.104
 2539SOL    HW1 8739   2.265   4.706   2.062
 2539SOL    HW2 8740   2.156   4.585   2.055
 2540SOL     OW 8741   2.064   4.009   3.360
 2540SOL    HW1 8742   1.984   4.069   3.347
 2540SOL    HW2 8743   2.054   3.960   3.446
 2541SOL     OW 8744   3.494   5.101   1.943
 2541SOL    HW1 8745   3.462   5.195   1.933
 2541SOL    HW2 8746   3.418   5.038   1.931
 2542SOL     OW 8747   3.262   3.831   2.288
 2542SOL    HW1 8748   3.238   3.794   2.198
 2542SOL    HW2 8749   3.361   3.847   2.292
 2543SOL     OW 8750   2.244   4.424   2.342
 2543SOL    HW1 8751   2.289   4.334   2.339
 2543SOL    HW2 8752   2.150   4.413   2.375
 2544SOL     OW 8753   2.476   3.846   1.979
 2544SOL    HW1 8754   2.574   3.824   1.986
 2544SOL    HW2 8755   2.445   3.829   1.886
 2545SOL     OW 8756   2.643   3.988   3.611
 2545SOL    HW1 8757   2.710   3.927   3.654
 2545SOL    HW2 8758   2.570   4.007   3.676
 2546SOL     OW 8759   3.213   4.314   3.295
 2546SOL    HW1 8760   3.241   4.271   3.380
 2546SOL    HW2 8761   3.238   4.410   3.296
 2547SOL     OW 8762   2.665   5.126   2.786
 2547SOL    HW1 8763   2.755   5.140   2.744
 2547SOL    HW2 8764   2.594   5.128   2.715
 2548SOL     OW 8765   2.784   4.227   2.761
 2548SOL    HW1 8766   2.759   4.218   2.665
 2548SOL    HW2 8767   2.832   4.145   2.792
 2549SOL     OW 8768   2.401   3.788   2.374
 2549SOL    HW1 8769   2.320   3.789   2.432
 2549SOL    HW2 8770   2.404   3.871   2.319
 2550SOL     OW 8771   3.296   4.912   1.903
 2550SOL    HW1 8772   3.328   4.836   1.960
 2550SOL    HW2 8773   3.204   4.939   1.933
 2551SOL     OW 8774   2.159   3.759   2.033
 2551SOL    HW1 8775   2.208   3.843   2.012
 2551SOL    HW2 8776   2.221   3.694   2.078
 2552SOL     OW 8777   2.797   3.960   2.342
 2552SOL    HW1 8778   2.749   4.001   2.264
 2552SOL    HW2 8779   2.896   3.958   2.323
 2553SOL     OW 8780   2.938   4.407   3.326
 2553SOL    HW1 8781   2.858   4.346   3.329
 2553SOL    HW2 8782   3.019   4.354   3.302
 2554SOL     OW 8783   3.089   5.294   2.655
 2554SOL    HW1 8784   3.110   5.368   2.590
 2554SOL    HW2 8785   3.157   5.294   2.728
 2555SOL     OW 8786   2.894   4.273   1.878
 2555SOL    HW1 8787   2.853   4.355   1.839
 2555SOL    HW2 8788   2.958   4.299   1.951
 2556SOL     OW 8789   1.940   4.280   3.248
 2556SOL    HW1 8790   2.032   4.279   3.207
 2556SOL    HW2 8791   1.934   4.354   3.315
 2557SOL     OW 8792   2.423   3.946   3.009
 2557SOL    HW1 8793   2.461   3.862   3.046
 2557SOL    HW2 8794   2.335   3.965   3.053
 2558SOL     OW 8795   2.728   4.178   2.504
 2558SOL    HW1 8796   2.696   4.250   2.442
 2558SOL    HW2 8797   2.752   4.097   2.451
 2559SOL     OW 8798   2.879   3.763   2.615
 2559SOL    HW1 8799   2.807   3.768   2.546
 2559SOL    HW2 8800   2.855   3.694   2.684
 2560SOL     OW 8801   3.328   4.314   2.854
 2560SOL    HW1 8802   3.298   4.219   2.861
 2560SOL    HW2 8803   3.401   4.330   2.920
 2561SOL     OW 8804   3.719   4.557   2.239
 2561SOL    HW1 8805   3.761   4.493   2.303
 2561SOL    HW2 8806   3.681   4.506   2.161
 2562SOL     OW 8807   3.252   4.299   1.940
 2562SOL    HW1 8808   3.198   4.278   2.021
 2562SOL    HW2 8809   3.343   4.258   1.949
 2563SOL     OW 8810   2.389   3.980   2.190
 2563SOL    HW1 8811   2.416   3.921   2.115
 2563SOL    HW2 8812   2.389   4.075   2.159
 2564SOL     OW 8813   3.616   4.947   3.450
 2564SOL    HW1 8814   3.707   4.908   3.437
 2564SOL    HW2 8815   3.624   5.043   3.474
 2565SOL     OW 8816   2.777   3.813   3.264
 2565SOL    HW1 8817   2.802   3.793   3.169
 2565SOL    HW2 8818   2.849   3.869   3.306
 2566SOL     OW 8819   2.842   4.840   3.581
 2566SOL    HW1 8820   2.743   4.846   3.591
 2566SOL    HW2 8821   2.865   4.760   3.525
 2567SOL     OW 8822   2.567   4.774   2.230
 2567SOL    HW1 8823   2.553   4.781   2.329
 2567SOL    HW2 8824   2.651   4.723   2.212
 2568SOL     OW 8825   2.272   4.537   3.113
 2568SOL    HW1 8826   2.358   4.549   3.163
 2568SOL    HW2 8827   2.230   4.450   3.140
 2569SOL     OW 8828   3.136   4.110   3.124
 2569SOL    HW1 8829   3.157   4.184   3.188
 2569SOL    HW2 8830   3.047   4.127   3.081
 2570SOL     OW 8831   2.229   4.824   2.363
 2570SOL    HW1 8832   2.222   4.907   2.307
 2570SOL    HW2 8833   2.233   4.744   2.303
 2571SOL     OW 8834   2.428   4.261   2.727
 2571SOL    HW1 8835   2.440   4.327   2.653
 2571SOL    HW2 8836   2.474   4.295   2.810
 2572SOL     OW 8837   3.444   4.363   2.334
 2572SOL    HW1 8838   3.413   4.424   2.407
 2572SOL    HW2 8839   3.494   4.415   2.265
 2573SOL     OW 8840   2.264   4.475   3.460
 2573SOL    HW1 8841   2.332   4.530   3.413
 2573SOL    HW2 8842   2.304   4.387   3.487
 2574SOL     OW 8843   3.449   4.503   3.532
 2574SOL    HW1 8844   3.357   4.541   3.527
 2574SOL    HW2 8845   3.509   4.550   3.467
 2575SOL     OW 8846   2.875   3.829   3.632
 2575SOL    HW1 8847   2.881   3.914   3.580
 2575SOL    HW2 8848   2.907   3.753   3.575
 2576SOL     OW 8849   2.366   3.774   3.602
 2576SOL    HW1 8850   2.324   3.717   3.532
 2576SOL    HW2 8851   2.300   3.843   3.634
 2577SOL     OW 8852   3.222   4.586   2.907
 2577SOL    HW1 8853   3.147   4.586   2.841
 2577SOL    HW2 8854   3.259   4.494   2.916
 2578SOL     OW 8855   3.071   4.249   2.137
 2578SOL    HW1 8856   3.084   4.165   2.191
 2578SOL    HW2 8857   3.042   4.323   2.197
 2579SOL     OW 8858   2.169   3.937   3.093
 2579SOL    HW1 8859   2.146   3.974   3.183
 2579SOL    HW2 8860   2.139   3.842   3.087
 2580SOL     OW 8861   2.169   3.787   2.480
 2580SOL    HW1 8862   2.158   3.881   2.513
 2580SOL    HW2 8863   2.164   3.724   2.557
 2581SOL     OW 8864   3.484   4.091   2.236
 2581SOL    HW1 8865   3.486   4.015   2.300
 2581SOL    HW2 8866   3.436   4.168   2.276
 2582SOL     OW 8867   2.885   4.490   2.828
 2582SOL    HW1 8868   2.900   4.511   2.924
 2582SOL    HW2 8869   2.855   4.395   2.819
 2583SOL     OW 8870   3.721   5.242   3.467
 2583SOL    HW1 8871   3.735   5.269   3.372
 2583SOL    HW2 8872   3.804   5.264   3.520
 2584SOL     OW 8873   2.212   4.622   3.666
 2584SOL    HW1 8874   2.288   4.666   3.714
 2584SOL    HW2 8875   2.247   4.575   3.584
 2585SOL     OW 8876   3.402   3.998   1.987
 2585SOL    HW1 8877   3.341   3.923   2.010
 2585SOL    HW2 8878   3.424   4.050   2.070
 2586SOL     OW 8879   3.165   4.562   1.904
 2586SOL    HW1 8880   3.199   4.469   1.919
 2586SOL    HW2 8881   3.183   4.589   1.809
 2587SOL     OW 8882   2.181   4.534   2.811
 2587SOL    HW1 8883   2.274   4.570   2.816
 2587SOL    HW2 8884   2.175   4.449   2.863
 2588SOL     OW 8885   2.201   4.233   2.868
 2588SOL    HW1 8886   2.149   4.150   2.851
 2588SOL    HW2 8887   2.278   4.238   2.804
 2589SOL     OW 8888   3.000   4.104   3.540
 2589SOL    HW1 8889   2.955   4.167   3.604
 2589SOL    HW2 8890   3.093   4.135   3.523
 2590SOL     OW 8891   3.022   3.931   3.339
 2590SOL    HW1 8892   3.022   3.995   3.416
 2590SOL    HW2 8893   3.050   3.979   3.256
 2591SOL     OW 8894   1.870   5.050   2.062
 2591SOL    HW1 8895   1.777   5.071   2.031
 2591SOL    HW2 8896   1.880   4.951   2.075
 2592SOL     OW 8897   2.864   4.520   3.100
 2592SOL    HW1 8898   2.905   4.488   3.186
 2592SOL    HW2 8899   2.768   4.493   3.097
 2593SOL     OW 8900   1.902   4.268   2.976
 2593SOL    HW1 8901   1.987   4.235   2.935
 2593SOL    HW2 8902   1.915   4.283   3.074
 2594SOL     OW 8903   2.051   4.244   3.584
 2594SOL    HW1 8904   2.110   4.204   3.514
 2594SOL    HW2 8905   1.993   4.315   3.543
 2595SOL     OW 8906   3.231   4.674   3.522
 2595SOL    HW1 8907   3.270   4.763   3.542
 2595SOL    HW2 8908   3.241   4.654   3.425
 2596SOL     OW 8909   2.677   4.296   2.187
 2596SOL    HW1 8910   2.684   4.207   2.141
 2596SOL    HW2 8911   2.583   4.330   2.179
 2597SOL     OW 8912   3.519   4.328   3.068
 2597SOL    HW1 8913   3.481   4.259   3.130
 2597SOL    HW2 8914   3.601   4.292   3.024
 2598SOL     OW 8915   2.533   4.188   3.131
 2598SOL    HW1 8916   2.499   4.099   3.101
 2598SOL    HW2 8917   2.559   4.242   3.051
 2599SOL     OW 8918   2.335   4.224   2.053
 2599SOL    HW1 8919   2.396   4.304   2.057
 2599SOL    HW2 8920   2.240   4.255   2.060
 2600SOL     OW 8921   2.021   4.861   3.328
 2600SOL    HW1 8922   2.043   4.800   3.404
 2600SOL    HW2 8923   2.031   4.812   3.242
 2601SOL     OW 8924   3.209   4.783   3.096
 2601SOL    HW1 8925   3.233   4.720   3.022
 2601SOL    HW2 8926   3.119   4.823   3.078
 2602SOL     OW 8927   3.164   4.579   2.171
 2602SOL    HW1 8928   3.078   4.548   2.213
 2602SOL    HW2 8929   3.160   4.565   2.072
 2603SOL     OW 8930   1.945   4.982   2.884
 2603SOL    HW1 8931   1.940   4.981   2.984
 2603SOL    HW2 8932   1.862   4.941   2.846
 2604SOL     OW 8933   3.588   3.859   2.385
 2604SOL    HW1 8934   3.661   3.842   2.318
 2604SOL    HW2 8935   3.557   3.772   2.423
 2605SOL     OW 8936   3.703   3.899   2.825
 2605SOL    HW1 8937   3.742   3.814   2.789
 2605SOL    HW2 8938   3.605   3.901   2.806
 2606SOL     OW 8939   2.125   4.050   2.582
 2606SOL    HW1 8940   2.046   4.101   2.548
 2606SOL    HW2 8941   2.116   4.035   2.680
 2607SOL     OW 8942   3.056   5.336   1.893
 2607SOL    HW1 8943   3.062   5.243   1.930
 2607SOL    HW2 8944   2.997   5.336   1.813
 2608SOL     OW 8945   2.684   4.726   3.234
 2608SOL    HW1 8946   2.724   4.725   3.142
 2608SOL    HW2 8947   2.694   4.818   3.274
 2609SOL     OW 8948   2.234   5.012   3.352
 2609SOL    HW1 8949   2.221   5.105   3.318
 2609SOL    HW2 8950   2.150   4.960   3.339
 2610SOL     OW 8951   3.476   5.016   3.151
 2610SOL    HW1 8952   3.536   5.019   3.231
 2610SOL    HW2 8953   3.401   5.080   3.164
 2611SOL     OW 8954   2.876   3.960   2.833
 2611SOL    HW1 8955   2.868   3.924   2.740
 2611SOL    HW2 8956   2.874   3.884   2.898
 2612SOL     OW 8957   3.571   4.109   3.243
 2612SOL    HW1 8958   3.644   4.178   3.247
 2612SOL    HW2 8959   3.599   4.034   3.184
 2613SOL     OW 8960   1.967   4.737   3.588
 2613SOL    HW1 8961   1.890   4.704   3.642
 2613SOL    HW2 8962   2.052   4.707   3.630
 2614SOL     OW 8963   2.534   3.927   3.351
 2614SOL    HW1 8964   2.624   3.911   3.311
 2614SOL    HW2 8965   2.542   3.932   3.450
 2615SOL     OW 8966   1.937   4.069   1.895
 2615SOL    HW1 8967   1.845   4.041   1.866
 2615SOL    HW2 8968   1.968   4.146   1.839
 2616SOL     OW 8969   3.302   4.580   3.260
 2616SOL    HW1 8970   3.245   4.632   3.197
 2616SOL    HW2 8971   3.398   4.592   3.236
 2617SOL     OW 8972   1.934   3.890   2.180
 2617SOL    HW1 8973   1.917   3.973   2.126
 2617SOL    HW2 8974   2.024   3.853   2.158
 2618SOL     OW 8975   2.475   4.566   3.293
 2618SOL    HW1 8976   2.531   4.647   3.276
 2618SOL    HW2 8977   2.534   4.486   3.296
 2619SOL     OW 8978   2.578   4.289   3.570
 2619SOL    HW1 8979   2.597   4.354   3.644
 2619SOL    HW2 8980   2.638   4.209   3.579
 2620SOL     OW 8981   3.312   4.944   3.495
 2620SOL    HW1 8982   3.303   4.934   3.594
 2620SOL    HW2 8983   3.408   4.937   3.469
 2621SOL     OW 8984   3.087   4.049   2.311
 2621SOL    HW1 8985   3.152   3.975   2.300
 2621SOL    HW2 8986   3.107   4.099   2.395
 2622SOL     OW 8987   2.456   4.469   2.514
 2622SOL    HW1 8988   2.506   4.554   2.495
 2622SOL    HW2 8989   2.368   4.471   2.466
 2623SOL     OW 8990   3.592   4.658   3.379
 2623SOL    HW1 8991   3.630   4.749   3.394
 2623SOL    HW2 8992   3.584   4.641   3.280
 2624SOL     OW 8993   2.945   4.708   1.949
 2624SOL    HW1 8994   2.922   4.761   1.867
 2624SOL    HW2 8995   3.026   4.652   1.930
 2625SOL     OW 8996   1.941   4.964   2.515
 2625SOL    HW1 8997   1.940   4.917   2.603
 2625SOL    HW2 8998   2.023   4.936   2.464
 2626SOL     OW 8999   3.686   3.916   3.089
 2626SOL    HW1 9000   3.682   3.826   3.133
 2626SOL    HW2 9001   3.689   3.905   2.990
 2627SOL     OW 9002   2.290   4.148   2.382
 2627SOL    HW1 9003   2.320   4.076   2.320
 2627SOL    HW2 9004   2.251   4.108   2.465
 2628SOL     OW 9005   2.179   4.271   3.142
 2628SOL    HW1 9006   2.217   4.212   3.214
 2628SOL    HW2 9007   2.219   4.245   3.054
 2629SOL     OW 9008   3.286   3.938   2.974
 2629SOL    HW1 9009   3.338   3.873   3.029
 2629SOL    HW2 9010   3.237   4.001   3.035
 2630SOL     OW 9011   2.863   3.758   3.016
 2630SOL    HW1 9012   2.800   3.686   2.985
 2630SOL    HW2 9013   2.956   3.722   3.016
 2631SOL     OW 9014   2.632   5.054   2.163
 2631SOL    HW1 9015   2.586   4.967   2.180
 2631SOL    HW2 9016   2.723   5.051   2.204
 2632SOL     OW 9017   3.214   3.776   2.030
 2632SOL    HW1 9018   3.249   3.735   1.946
 2632SOL    HW2 9019   3.124   3.738   2.050
 2633SOL     OW 9020   3.162   4.177   2.553
 2633SOL    HW1 9021   3.103   4.257   2.557
 2633SOL    HW2 9022   3.177   4.142   2.646
 2634SOL     OW 9023   3.455   3.945   2.744
 2634SOL    HW1 9024   3.371   3.944   2.798
 2634SOL    HW2 9025   3.457   4.028   2.688
 2635SOL     OW 9026   1.901   4.801   2.162
 2635SOL    HW1 9027   2.000   4.790   2.153
 2635SOL    HW2 9028   1.861   4.715   2.194
 2636SOL     OW 9029   2.092   4.352   3.837
 2636SOL    HW1 9030   1.999   4.350   3.874
 2636SOL    HW2 9031   2.093   4.313   3.745
 2637SOL     OW 9032   2.087   3.999   4.720
 2637SOL    HW1 9033   2.122   3.982   4.812
 2637SOL    HW2 9034   1.999   3.954   4.708
 2638SOL     OW 9035   1.881   4.092   4.371
 2638SOL    HW1 9036   1.799   4.135   4.410
 2638SOL    HW2 9037   1.853   4.019   4.308
 2639SOL     OW 9038   2.431   4.999   4.889
 2639SOL    HW1 9039   2.338   4.992   4.852
 2639SOL    HW2 9040   2.442   5.088   4.933
 2640SOL     OW 9041   3.417   5.235   4.427
 2640SOL    HW1 9042   3.360   5.219   4.508
 2640SOL    HW2 9043   3.358   5.245   4.347
 2641SOL     OW 9044   2.997   4.427   4.441
 2641SOL    HW1 9045   3.054   4.505   4.416
 2641SOL    HW2 9046   2.937   4.453   4.517
 2642SOL     OW 9047   3.617   4.331   3.955
 2642SOL    HW1 9048   3.605   4.318   3.856
 2642SOL    HW2 9049   3.587   4.250   4.004
 2643SOL     OW 9050   2.630   4.868   4.747
 2643SOL    HW1 9051   2.552   4.885   4.807
 2643SOL    HW2 9052   2.664   4.955   4.711
 2644SOL     OW 9053   2.547   4.736   4.389
 2644SOL    HW1 9054   2.616   4.720   4.459
 2644SOL    HW2 9055   2.474   4.793   4.427
 2645SOL     OW 9056   2.197   5.159   4.785
 2645SOL    HW1 9057   2.119   5.128   4.732
 2645SOL    HW2 9058   2.255   5.217   4.728
 2646SOL     OW 9059   2.102   4.815   4.610
 2646SOL    HW1 9060   2.116   4.731   4.662
 2646SOL    HW2 9061   2.047   4.879   4.665
 2647SOL     OW 9062   2.468   4.688   3.847
 2647SOL    HW1 9063   2.475   4.772   3.793
 2647SOL    HW2 9064   2.514   4.701   3.935
 2648SOL     OW 9065   1.984   4.367   4.287
 2648SOL    HW1 9066   1.939   4.279   4.304
 2648SOL    HW2 9067   1.983   4.421   4.371
 2649SOL     OW 9068   3.551   4.646   4.336
 2649SOL    HW1 9069   3.646   4.617   4.344
 2649SOL    HW2 9070   3.543   4.711   4.261
 2650SOL     OW 9071   3.503   4.832   4.156
 2650SOL    HW1 9072   3.589   4.834   4.104
 2650SOL    HW2 9073   3.517   4.879   4.244
 2651SOL     OW 9074   2.671   3.728   4.226
 2651SOL    HW1 9075   2.711   3.819   4.217
 2651SOL    HW2 9076   2.571   3.736   4.232
 2652SOL     OW 9077   2.059   4.700   4.988
 2652SOL    HW1 9078   2.148   4.655   4.974
 2652SOL    HW2 9079   1.986   4.635   4.969
 2653SOL     OW 9080   3.387   4.723   3.914
 2653SOL    HW1 9081   3.324   4.647   3.927
 2653SOL    HW2 9082   3.435   4.741   4.000
 2654SOL     OW 9083   3.328   5.141   4.677
 2654SOL    HW1 9084   3.269   5.147   4.757
 2654SOL    HW2 9085   3.313   5.053   4.631
 2655SOL     OW 9086   2.460   4.453   3.994
 2655SOL    HW1 9087   2.484   4.522   3.926
 2655SOL    HW2 9088   2.382   4.486   4.048
 2656SOL     OW 9089   3.143   4.069   4.668
 2656SOL    HW1 9090   3.057   4.019   4.655
 2656SOL    HW2 9091   3.205   4.015   4.724
 2657SOL     OW 9092   2.903   4.425   4.153
 2657SOL    HW1 9093   2.929   4.421   4.249
 2657SOL    HW2 9094   2.818   4.374   4.139
 2658SOL     OW 9095   1.938   4.535   4.513
 2658SOL    HW1 9096   2.037   4.523   4.522
 2658SOL    HW2 9097   1.914   4.630   4.534
 2659SOL     OW 9098   2.727   4.072   3.919
 2659SOL    HW1 9099   2.786   4.135   3.870
 2659SOL    HW2 9100   2.746   3.978   3.890
 2660SOL     OW 9101   3.224   4.868   4.269
 2660SOL    HW1 9102   3.307   4.839   4.221
 2660SOL    HW2 9103   3.175   4.935   4.213
 2661SOL     OW 9104   2.412   3.920   4.609
 2661SOL    HW1 9105   2.407   3.915   4.709
 2661SOL    HW2 9106   2.414   4.016   4.580
 2662SOL     OW 9107   3.657   4.790   4.597
 2662SOL    HW1 9108   3.595   4.775   4.521
 2662SOL    HW2 9109   3.605   4.801   4.682
 2663SOL     OW 9110   2.183   4.667   3.966
 2663SOL    HW1 9111   2.265   4.706   3.924
 2663SOL    HW2 9112   2.156   4.585   3.917
 2664SOL     OW 9113   3.320   4.459   4.452
 2664SOL    HW1 9114   3.315   4.394   4.527
 2664SOL    HW2 9115   3.400   4.518   4.465
 2665SOL     OW 9116   3.494   5.101   3.805
 2665SOL    HW1 9117   3.462   5.195   3.795
 2665SOL    HW2 9118   3.418   5.038   3.793
 2666SOL     OW 9119   2.244   4.424   4.204
 2666SOL    HW1 9120   2.289   4.334   4.201
 2666SOL    HW2 9121   2.150   4.413   4.237
 2667SOL     OW 9122   2.476   3.846   3.841
 2667SOL    HW1 9123   2.574   3.824   3.848
 2667SOL    HW2 9124   2.445   3.829   3.748
 2668SOL     OW 9125   2.665   5.126   4.648
 2668SOL    HW1 9126   2.755   5.140   4.606
 2668SOL    HW2 9127   2.594   5.128   4.577
 2669SOL     OW 9128   2.401   3.788   4.236
 2669SOL    HW1 9129   2.320   3.789   4.294
 2669SOL    HW2 9130   2.404   3.871   4.181
 2670SOL     OW 9131   3.296   4.912   3.765
 2670SOL    HW1 9132   3.328   4.836   3.822
 2670SOL    HW2 9133   3.204   4.939   3.795
 2671SOL     OW 9134   2.159   3.759   3.895
 2671SOL    HW1 9135   2.208   3.843   3.874
 2671SOL    HW2 9136   2.221   3.694   3.940
 2672SOL     OW 9137   2.797   3.960   4.204
 2672SOL    HW1 9138   2.749   4.001   4.126
 2672SOL    HW2 9139   2.896   3.958   4.185
 2673SOL     OW 9140   3.089   5.294   4.517
 2673SOL    HW1 9141   3.110   5.368   4.452
 2673SOL    HW2 9142   3.157   5.294   4.590
 2674SOL     OW 9143   2.321   4.876   4.465
 2674SOL    HW1 9144   2.250   4.849   4.530
 2674SOL    HW2 9145   2.295   4.848   4.372
 2675SOL     OW 9146   2.894   4.273   3.740
 2675SOL    HW1 9147   2.853   4.355   3.701
 2675SOL    HW2 9148   2.958   4.299   3.813
 2676SOL     OW 9149   2.728   4.178   4.366
 2676SOL    HW1 9150   2.696   4.250   4.304
 2676SOL    HW2 9151   2.752   4.097   4.313
 2677SOL     OW 9152   3.291   4.897   4.591
 2677SOL    HW1 9153   3.236   4.813   4.584
 2677SOL    HW2 9154   3.317   4.926   4.499
 2678SOL     OW 9155   3.328   4.314   4.716
 2678SOL    HW1 9156   3.298   4.219   4.723
 2678SOL    HW2 9157   3.401   4.330   4.782
 2679SOL     OW 9158   3.719   4.557   4.101
 2679SOL    HW1 9159   3.761   4.493   4.165
 2679SOL    HW2 9160   3.681   4.506   4.023
 2680SOL     OW 9161   3.526   5.004   4.381
 2680SOL    HW1 9162   3.625   5.012   4.395
 2680SOL    HW2 9163   3.481   5.088   4.412
 2681SOL     OW 9164   3.252   4.299   3.802
 2681SOL    HW1 9165   3.198   4.278   3.883
 2681SOL    HW2 9166   3.343   4.258   3.811
 2682SOL     OW 9167   2.389   3.980   4.052
 2682SOL    HW1 9168   2.416   3.921   3.977
 2682SOL    HW2 9169   2.389   4.075   4.021
 2683SOL     OW 9170   3.500   4.823   4.803
 2683SOL    HW1 9171   3.505   4.904   4.862
 2683SOL    HW2 9172   3.414   4.825   4.752
 2684SOL     OW 9173   2.567   4.774   4.092
 2684SOL    HW1 9174   2.553   4.781   4.191
 2684SOL    HW2 9175   2.651   4.723   4.074
 2685SOL     OW 9176   2.272   4.537   4.975
 2685SOL    HW1 9177   2.358   4.549   5.025
 2685SOL    HW2 9178   2.230   4.450   5.002
 2686SOL     OW 9179   2.229   4.824   4.225
 2686SOL    HW1 9180   2.222   4.907   4.169
 2686SOL    HW2 9181   2.233   4.744   4.165
 2687SOL     OW 9182   2.428   4.261   4.589
 2687SOL    HW1 9183   2.440   4.327   4.515
 2687SOL    HW2 9184   2.474   4.295   4.672
 2688SOL     OW 9185   3.444   4.363   4.196
 2688SOL    HW1 9186   3.413   4.424   4.269
 2688SOL    HW2 9187   3.494   4.415   4.127
 2689SOL     OW 9188   2.435   4.594   4.753
 2689SOL    HW1 9189   2.479   4.683   4.744
 2689SOL    HW2 9190   2.372   4.594   4.830
 2690SOL     OW 9191   3.222   4.586   4.769
 2690SOL    HW1 9192   3.147   4.586   4.703
 2690SOL    HW2 9193   3.259   4.494   4.778
 2691SOL     OW 9194   3.071   4.249   3.999
 2691SOL    HW1 9195   3.084   4.165   4.053
 2691SOL    HW2 9196   3.042   4.323   4.059
 2692SOL     OW 9197   2.169   3.937   4.955
 2692SOL    HW1 9198   2.146   3.974   5.045
 2692SOL    HW2 9199   2.139   3.842   4.949
 2693SOL     OW 9200   2.169   3.787   4.342
 2693SOL    HW1 9201   2.158   3.881   4.375
 2693SOL    HW2 9202   2.164   3.724   4.419
 2694SOL     OW 9203   2.885   4.490   4.690
 2694SOL    HW1 9204   2.900   4.511   4.786
 2694SOL    HW2 9205   2.855   4.395   4.681
 2695SOL     OW 9206   3.402   3.998   3.849
 2695SOL    HW1 9207   3.341   3.923   3.872
 2695SOL    HW2 9208   3.424   4.050   3.932
 2696SOL     OW 9209   3.165   4.562   3.766
 2696SOL    HW1 9210   3.199   4.469   3.781
 2696SOL    HW2 9211   3.183   4.589   3.671
 2697SOL     OW 9212   2.181   4.534   4.673
 2697SOL    HW1 9213   2.274   4.570   4.678
 2697SOL    HW2 9214   2.175   4.449   4.725
 2698SOL     OW 9215   2.201   4.233   4.730
 2698SOL    HW1 9216   2.149   4.150   4.713
 2698SOL    HW2 9217   2.278   4.238   4.666
 2699SOL     OW 9218   3.022   3.931   5.201
 2699SOL    HW1 9219   3.022   3.995   5.278
 2699SOL    HW2 9220   3.050   3.979   5.118
 2700SOL     OW 9221   1.870   5.050   3.924
 2700SOL    HW1 9222   1.777   5.071   3.893
 2700SOL    HW2 9223   1.880   4.951   3.937
 2701SOL     OW 9224   1.902   4.268   4.838
 2701SOL    HW1 9225   1.987   4.235   4.797
 2701SOL    HW2 9226   1.915   4.283   4.936
 2702SOL     OW 9227   2.677   4.296   4.049
 2702SOL    HW1 9228   2.684   4.207   4.003
 2702SOL    HW2 9229   2.583   4.330   4.041
 2703SOL     OW 9230   3.519   4.328   4.930
 2703SOL    HW1 9231   3.481   4.259   4.992
 2703SOL    HW2 9232   3.601   4.292   4.886
 2704SOL     OW 9233   2.335   4.224   3.915
 2704SOL    HW1 9234   2.396   4.304   3.919
 2704SOL    HW2 9235   2.240   4.255   3.922
 2705SOL     OW 9236   3.209   4.783   4.958
 2705SOL    HW1 9237   3.233   4.720   4.884
 2705SOL    HW2 9238   3.119   4.823   4.940
 2706SOL     OW 9239   3.164   4.579   4.033
 2706SOL    HW1 9240   3.078   4.548   4.075
 2706SOL    HW2 9241   3.160   4.565   3.934
 2707SOL     OW 9242   1.945   4.982   4.746
 2707SOL    HW1 9243   1.940   4.981   4.846
 2707SOL    HW2 9244   1.862   4.941   4.708
 2708SOL     OW 9245   3.142   4.651   4.396
 2708SOL    HW1 9246   3.202   4.570   4.398
 2708SOL    HW2 9247   3.182   4.720   4.336
 2709SOL     OW 9248   2.692   4.997   5.146
 2709SOL    HW1 9249   2.687   5.030   5.241
 2709SOL    HW2 9250   2.606   5.016   5.100
 2710SOL     OW 9251   3.703   3.899   4.687
 2710SOL    HW1 9252   3.742   3.814   4.651
 2710SOL    HW2 9253   3.605   3.901   4.668
 2711SOL     OW 9254   2.125   4.050   4.444
 2711SOL    HW1 9255   2.046   4.101   4.410
 2711SOL    HW2 9256   2.116   4.035   4.542
 2712SOL     OW 9257   3.056   5.336   3.755
 2712SOL    HW1 9258   3.062   5.243   3.792
 2712SOL    HW2 9259   2.997   5.336   3.675
 2713SOL     OW 9260   2.684   4.726   5.096
 2713SOL    HW1 9261   2.724   4.725   5.004
 2713SOL    HW2 9262   2.694   4.818   5.136
 2714SOL     OW 9263   2.778   4.634   4.015
 2714SOL    HW1 9264   2.841   4.672   3.947
 2714SOL    HW2 9265   2.818   4.551   4.054
 2715SOL     OW 9266   2.901   4.822   4.420
 2715SOL    HW1 9267   2.831   4.775   4.474
 2715SOL    HW2 9268   2.960   4.754   4.377
 2716SOL     OW 9269   3.571   4.109   5.105
 2716SOL    HW1 9270   3.644   4.178   5.109
 2716SOL    HW2 9271   3.599   4.034   5.046
 2717SOL     OW 9272   1.937   4.069   3.757
 2717SOL    HW1 9273   1.845   4.041   3.728
 2717SOL    HW2 9274   1.968   4.146   3.701
 2718SOL     OW 9275   1.934   3.890   4.042
 2718SOL    HW1 9276   1.917   3.973   3.988
 2718SOL    HW2 9277   2.024   3.853   4.020
 2719SOL     OW 9278   3.312   4.944   5.357
 2719SOL    HW1 9279   3.303   4.934   5.456
 2719SOL    HW2 9280   3.408   4.937   5.331
 2720SOL     OW 9281   3.536   4.607   4.978
 2720SOL    HW1 9282   3.509   4.518   4.941
 2720SOL    HW2 9283   3.537   4.675   4.905
 2721SOL     OW 9284   2.456   4.469   4.376
 2721SOL    HW1 9285   2.506   4.554   4.357
 2721SOL    HW2 9286   2.368   4.471   4.328
 2722SOL     OW 9287   3.592   4.658   5.241
 2722SOL    HW1 9288   3.630   4.749   5.256
 2722SOL    HW2 9289   3.584   4.641   5.142
 2723SOL     OW 9290   2.721   4.680   4.585
 2723SOL    HW1 9291   2.775   4.611   4.633
 2723SOL    HW2 9292   2.689   4.749   4.651
 2724SOL     OW 9293   2.945   4.708   3.811
 2724SOL    HW1 9294   2.922   4.761   3.729
 2724SOL    HW2 9295   3.026   4.652   3.792
 2725SOL     OW 9296   1.941   4.964   4.377
 2725SOL    HW1 9297   1.940   4.917   4.465
 2725SOL    HW2 9298   2.023   4.936   4.326
 2726SOL     OW 9299   3.686   3.916   4.951
 2726SOL    HW1 9300   3.682   3.826   4.995
 2726SOL    HW2 9301   3.689   3.905   4.852
 2727SOL     OW 9302   2.290   4.148   4.244
 2727SOL    HW1 9303   2.320   4.076   4.182
 2727SOL    HW2 9304   2.251   4.108   4.327
 2728SOL     OW 9305   2.632   5.054   4.025
 2728SOL    HW1 9306   2.586   4.967   4.042
 2728SOL    HW2 9307   2.723   5.051   4.066
 2729SOL     OW 9308   3.214   3.776   3.892
 2729SOL    HW1 9309   3.249   3.735   3.808
 2729SOL    HW2 9310   3.124   3.738   3.912
 2730SOL     OW 9311   3.162   4.177   4.415
 2730SOL    HW1 9312   3.103   4.257   4.419
 2730SOL    HW2 9313   3.177   4.142   4.508
 2731SOL     OW 9314   1.901   4.801   4.024
 2731SOL    HW1 9315   2.000   4.790   4.015
 2731SOL    HW2 9316   1.861   4.715   4.056
 2732SOL     OW 9317   3.954   0.628   0.113
 2732SOL    HW1 9318   3.861   0.626   0.150
 2732SOL    HW2 9319   3.955   0.589   0.021
 2733SOL     OW 9320   3.949   0.275   0.996
 2733SOL    HW1 9321   3.984   0.258   1.088
 2733SOL    HW2 9322   3.861   0.230   0.984
 2734SOL     OW 9323   3.743   0.368   0.647
 2734SOL    HW1 9324   3.661   0.411   0.686
 2734SOL    HW2 9325   3.715   0.295   0.584
 2735SOL     OW 9326   4.293   1.275   1.165
 2735SOL    HW1 9327   4.200   1.268   1.128
 2735SOL    HW2 9328   4.304   1.364   1.209
 2736SOL     OW 9329   4.859   0.703   0.717
 2736SOL    HW1 9330   4.916   0.781   0.692
 2736SOL    HW2 9331   4.799   0.729   0.793
 2737SOL     OW 9332   4.492   1.144   1.023
 2737SOL    HW1 9333   4.414   1.161   1.083
 2737SOL    HW2 9334   4.526   1.231   0.987
 2738SOL     OW 9335   4.574   0.798   1.823
 2738SOL    HW1 9336   4.570   0.874   1.888
 2738SOL    HW2 9337   4.596   0.834   1.732
 2739SOL     OW 9338   4.409   1.012   0.665
 2739SOL    HW1 9339   4.478   0.996   0.735
 2739SOL    HW2 9340   4.336   1.069   0.703
 2740SOL     OW 9341   4.410   1.161   1.803
 2740SOL    HW1 9342   4.470   1.240   1.817
 2740SOL    HW2 9343   4.324   1.192   1.762
 2741SOL     OW 9344   4.059   1.435   1.061
 2741SOL    HW1 9345   3.981   1.404   1.008
 2741SOL    HW2 9346   4.117   1.493   1.004
 2742SOL     OW 9347   4.162   0.392   1.499
 2742SOL    HW1 9348   4.244   0.336   1.508
 2742SOL    HW2 9349   4.081   0.334   1.503
 2743SOL     OW 9350   3.955   1.713   0.483
 2743SOL    HW1 9351   3.989   1.790   0.537
 2743SOL    HW2 9352   3.999   1.713   0.393
 2744SOL     OW 9353   4.851   1.341   1.690
 2744SOL    HW1 9354   4.898   1.341   1.778
 2744SOL    HW2 9355   4.803   1.254   1.679
 2745SOL     OW 9356   3.954   1.434   0.538
 2745SOL    HW1 9357   3.928   1.530   0.538
 2745SOL    HW2 9358   3.883   1.380   0.583
 2746SOL     OW 9359   3.964   1.091   0.886
 2746SOL    HW1 9360   3.978   1.007   0.938
 2746SOL    HW2 9361   3.909   1.155   0.941
 2747SOL     OW 9362   4.344   1.786   1.439
 2747SOL    HW1 9363   4.252   1.769   1.474
 2747SOL    HW2 9364   4.372   1.878   1.465
 2748SOL     OW 9365   4.330   0.964   0.123
 2748SOL    HW1 9366   4.337   1.048   0.069
 2748SOL    HW2 9367   4.376   0.977   0.211
 2749SOL     OW 9368   3.846   0.643   0.563
 2749SOL    HW1 9369   3.801   0.555   0.580
 2749SOL    HW2 9370   3.845   0.697   0.647
 2750SOL     OW 9371   3.751   1.596   0.117
 2750SOL    HW1 9372   3.732   1.500   0.138
 2750SOL    HW2 9373   3.718   1.654   0.192
 2751SOL     OW 9374   3.837   0.737   1.597
 2751SOL    HW1 9375   3.925   0.724   1.642
 2751SOL    HW2 9376   3.824   0.834   1.575
 2752SOL     OW 9377   4.337   1.365   0.726
 2752SOL    HW1 9378   4.288   1.278   0.735
 2752SOL    HW2 9379   4.314   1.408   0.639
 2753SOL     OW 9380   5.017   1.228   1.423
 2753SOL    HW1 9381   5.054   1.155   1.365
 2753SOL    HW2 9382   5.069   1.233   1.508
 2754SOL     OW 9383   4.533   0.004   0.502
 2754SOL    HW1 9384   4.573   0.095   0.493
 2754SOL    HW2 9385   4.433   0.012   0.508
 2755SOL     OW 9386   3.921   0.976   1.264
 2755SOL    HW1 9387   4.010   0.931   1.250
 2755SOL    HW2 9388   3.848   0.911   1.245
 2756SOL     OW 9389   4.911   1.792   1.616
 2756SOL    HW1 9390   4.935   1.852   1.540
 2756SOL    HW2 9391   4.918   1.697   1.586
 2757SOL     OW 9392   4.041   0.251   1.801
 2757SOL    HW1 9393   4.112   0.322   1.807
 2757SOL    HW2 9394   3.953   0.290   1.829
 2758SOL     OW 9395   4.322   0.729   0.270
 2758SOL    HW1 9396   4.346   0.798   0.202
 2758SOL    HW2 9397   4.244   0.762   0.324
 2759SOL     OW 9398   5.005   0.345   0.944
 2759SOL    HW1 9399   4.919   0.295   0.931
 2759SOL    HW2 9400   5.067   0.291   1.000
 2760SOL     OW 9401   4.531   0.605   1.465
 2760SOL    HW1 9402   4.484   0.602   1.554
 2760SOL    HW2 9403   4.480   0.550   1.399
 2761SOL     OW 9404   4.697   0.890   1.572
 2761SOL    HW1 9405   4.743   0.806   1.543
 2761SOL    HW2 9406   4.641   0.924   1.497
 2762SOL     OW 9407   4.715   0.410   1.242
 2762SOL    HW1 9408   4.638   0.444   1.296
 2762SOL    HW2 9409   4.681   0.359   1.163
 2763SOL     OW 9410   4.765   0.701   0.429
 2763SOL    HW1 9411   4.791   0.697   0.525
 2763SOL    HW2 9412   4.680   0.650   0.415
 2764SOL     OW 9413   3.800   0.811   0.789
 2764SOL    HW1 9414   3.899   0.799   0.798
 2764SOL    HW2 9415   3.776   0.906   0.810
 2765SOL     OW 9416   3.854   1.821   1.571
 2765SOL    HW1 9417   3.844   1.806   1.670
 2765SOL    HW2 9418   3.768   1.857   1.535
 2766SOL     OW 9419   4.589   0.348   0.195
 2766SOL    HW1 9420   4.648   0.411   0.146
 2766SOL    HW2 9421   4.608   0.254   0.166
 2767SOL     OW 9422   4.274   0.196   0.885
 2767SOL    HW1 9423   4.269   0.191   0.985
 2767SOL    HW2 9424   4.276   0.292   0.856
 2768SOL     OW 9425   4.732   1.456   0.477
 2768SOL    HW1 9426   4.686   1.528   0.425
 2768SOL    HW2 9427   4.728   1.476   0.575
 2769SOL     OW 9428   4.075   1.801   0.853
 2769SOL    HW1 9429   4.125   1.715   0.859
 2769SOL    HW2 9430   4.140   1.878   0.850
 2770SOL     OW 9431   4.951   1.550   1.506
 2770SOL    HW1 9432   4.957   1.473   1.570
 2770SOL    HW2 9433   4.899   1.524   1.426
 2771SOL     OW 9434   4.045   0.943   0.242
 2771SOL    HW1 9435   4.127   0.982   0.200
 2771SOL    HW2 9436   4.018   0.861   0.193
 2772SOL     OW 9437   4.185   1.266   1.727
 2772SOL    HW1 9438   4.135   1.267   1.641
 2772SOL    HW2 9439   4.122   1.248   1.803
 2773SOL     OW 9440   4.835   1.776   0.237
 2773SOL    HW1 9441   4.775   1.714   0.287
 2773SOL    HW2 9442   4.866   1.732   0.152
 2774SOL     OW 9443   3.926   0.285   1.498
 2774SOL    HW1 9444   3.846   0.345   1.485
 2774SOL    HW2 9445   3.916   0.236   1.584
 2775SOL     OW 9446   5.356   1.377   0.081
 2775SOL    HW1 9447   5.324   1.471   0.071
 2775SOL    HW2 9448   5.280   1.314   0.069
 2776SOL     OW 9449   4.188   1.743   0.323
 2776SOL    HW1 9450   4.221   1.782   0.409
 2776SOL    HW2 9451   4.264   1.736   0.258
 2777SOL     OW 9452   3.973   1.785   1.241
 2777SOL    HW1 9453   4.030   1.720   1.291
 2777SOL    HW2 9454   3.957   1.752   1.148
 2778SOL     OW 9455   4.664   1.698   0.904
 2778SOL    HW1 9456   4.744   1.641   0.925
 2778SOL    HW2 9457   4.615   1.658   0.827
 2779SOL     OW 9458   4.106   0.700   0.480
 2779SOL    HW1 9459   4.151   0.610   0.477
 2779SOL    HW2 9460   4.012   0.689   0.513
 2780SOL     OW 9461   4.338   0.122   0.117
 2780SOL    HW1 9462   4.436   0.100   0.124
 2780SOL    HW2 9463   4.307   0.105   0.024
 2781SOL     OW 9464   4.505   0.264   1.749
 2781SOL    HW1 9465   4.572   0.203   1.792
 2781SOL    HW2 9466   4.432   0.283   1.814
 2782SOL     OW 9467   4.612   1.514   1.195
 2782SOL    HW1 9468   4.589   1.489   1.101
 2782SOL    HW2 9469   4.673   1.445   1.234
 2783SOL     OW 9470   4.527   1.402   0.924
 2783SOL    HW1 9471   4.617   1.416   0.882
 2783SOL    HW2 9472   4.456   1.404   0.853
 2784SOL     OW 9473   4.646   0.503   0.899
 2784SOL    HW1 9474   4.621   0.494   0.803
 2784SOL    HW2 9475   4.694   0.421   0.930
 2785SOL     OW 9476   4.263   0.064   0.512
 2785SOL    HW1 9477   4.182   0.065   0.570
 2785SOL    HW2 9478   4.266   0.147   0.457
 2786SOL     OW 9479   4.021   0.035   0.171
 2786SOL    HW1 9480   4.070   0.119   0.150
 2786SOL    HW2 9481   4.083  -0.030   0.216
 2787SOL     OW 9482   4.659   0.236   0.480
 2787SOL    HW1 9483   4.611   0.277   0.402
 2787SOL    HW2 9484   4.758   0.234   0.461
 2788SOL     OW 9485   4.800   0.683   1.464
 2788SOL    HW1 9486   4.720   0.622   1.467
 2788SOL    HW2 9487   4.881   0.630   1.440
 2789SOL     OW 9488   4.951   1.570   0.793
 2789SOL    HW1 9489   4.972   1.644   0.728
 2789SOL    HW2 9490   5.019   1.570   0.866
 2790SOL     OW 9491   4.183   1.152   0.741
 2790SOL    HW1 9492   4.112   1.125   0.806
 2790SOL    HW2 9493   4.157   1.124   0.648
 2791SOL     OW 9494   4.995   1.797   0.591
 2791SOL    HW1 9495   5.039   1.861   0.527
 2791SOL    HW2 9496   4.945   1.849   0.661
 2792SOL     OW 9497   4.756   0.549   0.016
 2792SOL    HW1 9498   4.715   0.631  -0.023
 2792SOL    HW2 9499   4.820   0.575   0.089
 2793SOL     OW 9500   3.802   0.556   1.386
 2793SOL    HW1 9501   3.894   0.555   1.345
 2793SOL    HW2 9502   3.796   0.630   1.453
 2794SOL     OW 9503   4.285   0.222   1.147
 2794SOL    HW1 9504   4.323   0.138   1.184
 2794SOL    HW2 9505   4.197   0.241   1.191
 2795SOL     OW 9506   4.590   0.454   0.642
 2795SOL    HW1 9507   4.558   0.526   0.580
 2795SOL    HW2 9508   4.614   0.373   0.589
 2796SOL     OW 9509   4.741   0.039   0.753
 2796SOL    HW1 9510   4.669   0.044   0.684
 2796SOL    HW2 9511   4.717  -0.030   0.822
 2797SOL     OW 9512   4.212   1.385   0.174
 2797SOL    HW1 9513   4.125   1.370   0.221
 2797SOL    HW2 9514   4.195   1.411   0.079
 2798SOL     OW 9515   5.388   1.280   0.657
 2798SOL    HW1 9516   5.487   1.288   0.671
 2798SOL    HW2 9517   5.343   1.364   0.688
 2799SOL     OW 9518   4.251   0.256   0.328
 2799SOL    HW1 9519   4.278   0.197   0.253
 2799SOL    HW2 9520   4.251   0.351   0.297
 2800SOL     OW 9521   4.788   1.347   1.340
 2800SOL    HW1 9522   4.708   1.324   1.395
 2800SOL    HW2 9523   4.871   1.321   1.389
 2801SOL     OW 9524   4.835   1.195   1.100
 2801SOL    HW1 9525   4.795   1.239   1.181
 2801SOL    HW2 9526   4.794   1.232   1.017
 2802SOL     OW 9527   4.639   0.089   1.402
 2802SOL    HW1 9528   4.664   0.069   1.307
 2802SOL    HW2 9529   4.711   0.145   1.444
 2803SOL     OW 9530   4.704   1.116   1.719
 2803SOL    HW1 9531   4.605   1.122   1.729
 2803SOL    HW2 9532   4.727   1.036   1.663
 2804SOL     OW 9533   4.429   1.050   0.368
 2804SOL    HW1 9534   4.415   1.057   0.467
 2804SOL    HW2 9535   4.513   0.999   0.350
 2805SOL     OW 9536   4.134   0.813   1.251
 2805SOL    HW1 9537   4.220   0.825   1.301
 2805SOL    HW2 9538   4.092   0.726   1.278
 2806SOL     OW 9539   4.998   0.386   1.262
 2806SOL    HW1 9540   5.019   0.460   1.326
 2806SOL    HW2 9541   4.909   0.403   1.219
 2807SOL     OW 9542   3.788   1.564   1.331
 2807SOL    HW1 9543   3.742   1.646   1.297
 2807SOL    HW2 9544   3.886   1.583   1.340
 2808SOL     OW 9545   4.091   1.100   0.501
 2808SOL    HW1 9546   4.084   1.183   0.445
 2808SOL    HW2 9547   4.095   1.020   0.441
 2809SOL     OW 9548   4.290   0.537   0.865
 2809SOL    HW1 9549   4.302   0.603   0.791
 2809SOL    HW2 9550   4.336   0.571   0.948
 2810SOL     OW 9551   4.976   1.348   0.388
 2810SOL    HW1 9552   5.026   1.425   0.428
 2810SOL    HW2 9553   4.881   1.350   0.420
 2811SOL     OW 9554   4.078   1.510   1.329
 2811SOL    HW1 9555   4.057   1.466   1.242
 2811SOL    HW2 9556   4.175   1.536   1.332
 2812SOL     OW 9557   4.126   0.751   1.598
 2812SOL    HW1 9558   4.194   0.806   1.551
 2812SOL    HW2 9559   4.166   0.663   1.625
 2813SOL     OW 9560   4.737   0.105   1.770
 2813SOL    HW1 9561   4.743   0.190   1.718
 2813SOL    HW2 9562   4.769   0.029   1.713
 2814SOL     OW 9563   4.228   0.050   1.740
 2814SOL    HW1 9564   4.186  -0.007   1.670
 2814SOL    HW2 9565   4.162   0.119   1.772
 2815SOL     OW 9566   4.297   0.870   1.029
 2815SOL    HW1 9567   4.341   0.959   1.020
 2815SOL    HW2 9568   4.234   0.870   1.106
 2816SOL     OW 9569   5.084   0.862   1.045
 2816SOL    HW1 9570   5.009   0.862   0.979
 2816SOL    HW2 9571   5.121   0.770   1.054
 2817SOL     OW 9572   4.933   0.525   0.275
 2817SOL    HW1 9573   4.946   0.441   0.329
 2817SOL    HW2 9574   4.904   0.599   0.335
 2818SOL     OW 9575   4.031   0.213   1.231
 2818SOL    HW1 9576   4.008   0.250   1.321
 2818SOL    HW2 9577   4.001   0.118   1.225
 2819SOL     OW 9578   3.761   1.310   1.282
 2819SOL    HW1 9579   3.814   1.261   1.350
 2819SOL    HW2 9580   3.783   1.408   1.287
 2820SOL     OW 9581   4.456   0.634   1.064
 2820SOL    HW1 9582   4.515   0.608   0.988
 2820SOL    HW2 9583   4.428   0.730   1.053
 2821SOL     OW 9584   4.031   0.063   0.618
 2821SOL    HW1 9585   4.020   0.157   0.651
 2821SOL    HW2 9586   4.026   0.000   0.695
 2822SOL     OW 9587   5.346   0.367   0.374
 2822SOL    HW1 9588   5.348   0.291   0.438
 2822SOL    HW2 9589   5.298   0.444   0.414
 2823SOL     OW 9590   4.747   0.766   0.966
 2823SOL    HW1 9591   4.762   0.787   1.062
 2823SOL    HW2 9592   4.717   0.671   0.957
 2824SOL     OW 9593   4.704   1.573   1.700
 2824SOL    HW1 9594   4.684   1.617   1.612
 2824SOL    HW2 9595   4.743   1.482   1.684
 2825SOL     OW 9596   4.074   0.898   1.804
 2825SOL    HW1 9597   4.150   0.942   1.852
 2825SOL    HW2 9598   4.109   0.851   1.722
 2826SOL     OW 9599   5.027   0.838   0.042
 2826SOL    HW1 9600   5.061   0.745   0.057
 2826SOL    HW2 9601   5.045   0.865  -0.053
 2827SOL     OW 9602   4.792   1.333   0.849
 2827SOL    HW1 9603   4.799   1.249   0.794
 2827SOL    HW2 9604   4.854   1.402   0.813
 2828SOL     OW 9605   4.043   0.810   0.949
 2828SOL    HW1 9606   4.136   0.846   0.954
 2828SOL    HW2 9607   4.037   0.725   1.001
 2829SOL     OW 9608   4.063   0.509   1.006
 2829SOL    HW1 9609   4.011   0.426   0.989
 2829SOL    HW2 9610   4.140   0.514   0.942
 2830SOL     OW 9611   4.862   0.380   1.678
 2830SOL    HW1 9612   4.817   0.443   1.742
 2830SOL    HW2 9613   4.955   0.411   1.661
 2831SOL     OW 9614   4.884   0.207   1.477
 2831SOL    HW1 9615   4.884   0.271   1.554
 2831SOL    HW2 9616   4.912   0.255   1.394
 2832SOL     OW 9617   3.812   1.801   0.927
 2832SOL    HW1 9618   3.770   1.715   0.900
 2832SOL    HW2 9619   3.906   1.804   0.893
 2833SOL     OW 9620   4.228   1.568   0.910
 2833SOL    HW1 9621   4.294   1.642   0.919
 2833SOL    HW2 9622   4.272   1.489   0.868
 2834SOL     OW 9623   4.726   0.796   1.238
 2834SOL    HW1 9624   4.767   0.764   1.324
 2834SOL    HW2 9625   4.630   0.769   1.235
 2835SOL     OW 9626   3.764   0.544   1.114
 2835SOL    HW1 9627   3.849   0.511   1.073
 2835SOL    HW2 9628   3.777   0.559   1.212
 2836SOL     OW 9629   3.913   0.520   1.722
 2836SOL    HW1 9630   3.972   0.480   1.652
 2836SOL    HW2 9631   3.855   0.591   1.681
 2837SOL     OW 9632   4.539   0.572   0.325
 2837SOL    HW1 9633   4.546   0.483   0.279
 2837SOL    HW2 9634   4.445   0.606   0.317
 2838SOL     OW 9635   3.976   1.564   1.744
 2838SOL    HW1 9636   3.946   1.621   1.820
 2838SOL    HW2 9637   3.969   1.467   1.770
 2839SOL     OW 9638   4.395   0.464   1.269
 2839SOL    HW1 9639   4.361   0.375   1.239
 2839SOL    HW2 9640   4.421   0.518   1.189
 2840SOL     OW 9641   4.654   1.678   1.465
 2840SOL    HW1 9642   4.630   1.660   1.370
 2840SOL    HW2 9643   4.684   1.772   1.475
 2841SOL     OW 9644   4.197   0.500   0.191
 2841SOL    HW1 9645   4.258   0.580   0.195
 2841SOL    HW2 9646   4.102   0.531   0.198
 2842SOL     OW 9647   3.883   1.137   1.466
 2842SOL    HW1 9648   3.905   1.076   1.542
 2842SOL    HW2 9649   3.893   1.088   1.380
 2843SOL     OW 9650   5.071   1.059   1.234
 2843SOL    HW1 9651   5.095   0.996   1.160
 2843SOL    HW2 9652   4.981   1.099   1.216
 2844SOL     OW 9653   4.976   1.731   1.128
 2844SOL    HW1 9654   5.060   1.736   1.074
 2844SOL    HW2 9655   4.953   1.635   1.146
 2845SOL     OW 9656   3.807   1.258   1.022
 2845SOL    HW1 9657   3.802   1.257   1.122
 2845SOL    HW2 9658   3.724   1.217   0.984
 2846SOL     OW 9659   4.412   1.662   1.716
 2846SOL    HW1 9660   4.356   1.743   1.725
 2846SOL    HW2 9661   4.464   1.666   1.630
 2847SOL     OW 9662   4.627   0.086   0.133
 2847SOL    HW1 9663   4.678   0.087   0.047
 2847SOL    HW2 9664   4.683   0.044   0.204
 2848SOL     OW 9665   5.112   1.573   0.477
 2848SOL    HW1 9666   5.179   1.585   0.403
 2848SOL    HW2 9667   5.072   1.662   0.500
 2849SOL     OW 9668   3.854   1.794   1.851
 2849SOL    HW1 9669   3.813   1.720   1.904
 2849SOL    HW2 9670   3.918   1.845   1.909
 2850SOL     OW 9671   5.004   0.927   0.672
 2850SOL    HW1 9672   5.064   0.846   0.674
 2850SOL    HW2 9673   5.044   0.996   0.612
 2851SOL     OW 9674   4.554   1.273   1.422
 2851SOL    HW1 9675   4.549   1.306   1.517
 2851SOL    HW2 9676   4.468   1.292   1.376
 2852SOL     OW 9677   4.396   1.616   0.154
 2852SOL    HW1 9678   4.405   1.626   0.055
 2852SOL    HW2 9679   4.356   1.527   0.175
 2853SOL     OW 9680   3.987   0.326   0.720
 2853SOL    HW1 9681   3.908   0.377   0.686
 2853SOL    HW2 9682   3.978   0.311   0.818
 2854SOL     OW 9683   4.918   1.612   0.031
 2854SOL    HW1 9684   4.924   1.519   0.068
 2854SOL    HW2 9685   4.859   1.612  -0.049
 2855SOL     OW 9686   4.546   1.002   1.372
 2855SOL    HW1 9687   4.586   1.001   1.280
 2855SOL    HW2 9688   4.556   1.094   1.412
 2856SOL     OW 9689   4.640   0.910   0.291
 2856SOL    HW1 9690   4.703   0.948   0.223
 2856SOL    HW2 9691   4.680   0.827   0.330
 2857SOL     OW 9692   4.096   1.288   1.490
 2857SOL    HW1 9693   4.083   1.381   1.456
 2857SOL    HW2 9694   4.012   1.236   1.477
 2858SOL     OW 9695   4.763   1.098   0.696
 2858SOL    HW1 9696   4.693   1.051   0.750
 2858SOL    HW2 9697   4.822   1.030   0.653
 2859SOL     OW 9698   4.738   0.236   0.971
 2859SOL    HW1 9699   4.730   0.200   0.878
 2859SOL    HW2 9700   4.736   0.160   1.036
 2860SOL     OW 9701   4.314   1.487   0.491
 2860SOL    HW1 9702   4.356   1.429   0.421
 2860SOL    HW2 9703   4.270   1.566   0.447
 2861SOL     OW 9704   3.979   1.348   0.290
 2861SOL    HW1 9705   3.883   1.349   0.263
 2861SOL    HW2 9706   3.991   1.401   0.374
 2862SOL     OW 9707   3.829   1.013   1.726
 2862SOL    HW1 9708   3.752   0.980   1.780
 2862SOL    HW2 9709   3.914   0.983   1.768
 2863SOL     OW 9710   4.396   0.203   1.489
 2863SOL    HW1 9711   4.486   0.187   1.449
 2863SOL    HW2 9712   4.404   0.208   1.588
 2864SOL     OW 9713   5.164   0.856   1.398
 2864SOL    HW1 9714   5.107   0.908   1.335
 2864SOL    HW2 9715   5.260   0.868   1.374
 2865SOL     OW 9716   3.796   0.166   0.318
 2865SOL    HW1 9717   3.779   0.249   0.264
 2865SOL    HW2 9718   3.886   0.129   0.296
 2866SOL     OW 9719   4.337   0.842   1.431
 2866SOL    HW1 9720   4.393   0.923   1.414
 2866SOL    HW2 9721   4.396   0.762   1.434
 2867SOL     OW 9722   4.440   0.565   1.708
 2867SOL    HW1 9723   4.459   0.630   1.782
 2867SOL    HW2 9724   4.500   0.485   1.717
 2868SOL     OW 9725   4.114   1.741   1.560
 2868SOL    HW1 9726   4.023   1.782   1.558
 2868SOL    HW2 9727   4.107   1.647   1.592
 2869SOL     OW 9728   4.949   0.325   0.449
 2869SOL    HW1 9729   5.014   0.251   0.438
 2869SOL    HW2 9730   4.969   0.375   0.533
 2870SOL     OW 9731   4.318   0.745   0.652
 2870SOL    HW1 9732   4.368   0.830   0.633
 2870SOL    HW2 9733   4.230   0.747   0.604
 2871SOL     OW 9734   4.583   1.374   0.016
 2871SOL    HW1 9735   4.537   1.389   0.104
 2871SOL    HW2 9736   4.627   1.459  -0.014
 2872SOL     OW 9737   4.385   1.790   0.953
 2872SOL    HW1 9738   4.339   1.878   0.940
 2872SOL    HW2 9739   4.484   1.802   0.946
 2873SOL     OW 9740   4.583   0.956   0.861
 2873SOL    HW1 9741   4.637   0.887   0.909
 2873SOL    HW2 9742   4.551   1.025   0.927
 2874SOL     OW 9743   4.807   0.984   0.087
 2874SOL    HW1 9744   4.784   1.037   0.005
 2874SOL    HW2 9745   4.888   0.928   0.068
 2875SOL     OW 9746   3.945   1.314   1.844
 2875SOL    HW1 9747   3.880   1.241   1.823
 2875SOL    HW2 9748   3.949   1.328   1.942
 2876SOL     OW 9749   3.803   1.240   0.653
 2876SOL    HW1 9750   3.802   1.193   0.741
 2876SOL    HW2 9751   3.885   1.212   0.602
 2877SOL     OW 9752   4.396   1.391   1.624
 2877SOL    HW1 9753   4.318   1.341   1.662
 2877SOL    HW2 9754   4.393   1.486   1.655
 2878SOL     OW 9755   4.152   0.424   0.520
 2878SOL    HW1 9756   4.182   0.352   0.458
 2878SOL    HW2 9757   4.113   0.384   0.603
 2879SOL     OW 9758   4.041   0.547   1.280
 2879SOL    HW1 9759   4.079   0.488   1.352
 2879SOL    HW2 9760   4.081   0.521   1.192
 2880SOL     OW 9761   4.536   1.586   0.687
 2880SOL    HW1 9762   4.568   1.596   0.593
 2880SOL    HW2 9763   4.457   1.524   0.689
 2881SOL     OW 9764   4.725   0.034   1.154
 2881SOL    HW1 9765   4.662  -0.038   1.123
 2881SOL    HW2 9766   4.818  -0.002   1.154
 2882SOL     OW 9767   4.494   1.330   0.301
 2882SOL    HW1 9768   4.448   1.243   0.318
 2882SOL    HW2 9769   4.585   1.327   0.342
 2883SOL     OW 9770   4.342   1.567   1.284
 2883SOL    HW1 9771   4.337   1.649   1.341
 2883SOL    HW2 9772   4.431   1.564   1.239
 2884SOL     OW 9773   3.763   1.077   0.300
 2884SOL    HW1 9774   3.862   1.066   0.291
 2884SOL    HW2 9775   3.723   0.991   0.332
 2885SOL     OW 9776   4.599   1.646   0.337
 2885SOL    HW1 9777   4.522   1.611   0.283
 2885SOL    HW2 9778   4.567   1.717   0.399
 2886SOL     OW 9779   3.954   0.628   1.975
 2886SOL    HW1 9780   3.861   0.626   2.012
 2886SOL    HW2 9781   3.955   0.589   1.883
 2887SOL     OW 9782   3.949   0.275   2.858
 2887SOL    HW1 9783   3.984   0.258   2.950
 2887SOL    HW2 9784   3.861   0.230   2.846
 2888SOL     OW 9785   3.743   0.368   2.509
 2888SOL    HW1 9786   3.661   0.411   2.548
 2888SOL    HW2 9787   3.715   0.295   2.446
 2889SOL     OW 9788   4.293   1.275   3.027
 2889SOL    HW1 9789   4.200   1.268   2.990
 2889SOL    HW2 9790   4.304   1.364   3.071
 2890SOL     OW 9791   4.859   0.703   2.579
 2890SOL    HW1 9792   4.916   0.781   2.554
 2890SOL    HW2 9793   4.799   0.729   2.655
 2891SOL     OW 9794   4.492   1.144   2.885
 2891SOL    HW1 9795   4.414   1.161   2.945
 2891SOL    HW2 9796   4.526   1.231   2.849
 2892SOL     OW 9797   4.574   0.798   3.685
 2892SOL    HW1 9798   4.570   0.874   3.750
 2892SOL    HW2 9799   4.596   0.834   3.594
 2893SOL     OW 9800   4.409   1.012   2.527
 2893SOL    HW1 9801   4.478   0.996   2.597
 2893SOL    HW2 9802   4.336   1.069   2.565
 2894SOL     OW 9803   4.410   1.161   3.665
 2894SOL    HW1 9804   4.470   1.240   3.679
 2894SOL    HW2 9805   4.324   1.192   3.624
 2895SOL     OW 9806   4.059   1.435   2.923
 2895SOL    HW1 9807   3.981   1.404   2.870
 2895SOL    HW2 9808   4.117   1.493   2.866
 2896SOL     OW 9809   3.955   1.713   2.345
 2896SOL    HW1 9810   3.989   1.790   2.399
 2896SOL    HW2 9811   3.999   1.713   2.255
 2897SOL     OW 9812   4.851   1.341   3.552
 2897SOL    HW1 9813   4.898   1.341   3.640
 2897SOL    HW2 9814   4.803   1.254   3.541
 2898SOL     OW 9815   3.954   1.434   2.400
 2898SOL    HW1 9816   3.928   1.530   2.400
 2898SOL    HW2 9817   3.883   1.380   2.445
 2899SOL     OW 9818   3.964   1.091   2.748
 2899SOL    HW1 9819   3.978   1.007   2.800
 2899SOL    HW2 9820   3.909   1.155   2.803
 2900SOL     OW 9821   4.344   1.786   3.301
 2900SOL    HW1 9822   4.252   1.769   3.336
 2900SOL    HW2 9823   4.372   1.878   3.327
 2901SOL     OW 9824   4.330   0.964   1.985
 2901SOL    HW1 9825   4.337   1.048   1.931
 2901SOL    HW2 9826   4.376   0.977   2.073
 2902SOL     OW 9827   3.846   0.643   2.425
 2902SOL    HW1 9828   3.801   0.555   2.442
 2902SOL    HW2 9829   3.845   0.697   2.509
 2903SOL     OW 9830   3.751   1.596   1.979
 2903SOL    HW1 9831   3.732   1.500   2.000
 2903SOL    HW2 9832   3.718   1.654   2.054
 2904SOL     OW 9833   3.837   0.737   3.459
 2904SOL    HW1 9834   3.925   0.724   3.504
 2904SOL    HW2 9835   3.824   0.834   3.437
 2905SOL     OW 9836   4.337   1.365   2.588
 2905SOL    HW1 9837   4.288   1.278   2.597
 2905SOL    HW2 9838   4.314   1.408   2.501
 2906SOL     OW 9839   5.017   1.228   3.285
 2906SOL    HW1 9840   5.054   1.155   3.227
 2906SOL    HW2 9841   5.069   1.233   3.370
 2907SOL     OW 9842   4.533   0.004   2.364
 2907SOL    HW1 9843   4.573   0.095   2.355
 2907SOL    HW2 9844   4.433   0.012   2.370
 2908SOL     OW 9845   3.921   0.976   3.126
 2908SOL    HW1 9846   4.010   0.931   3.112
 2908SOL    HW2 9847   3.848   0.911   3.107
 2909SOL     OW 9848   4.911   1.792   3.478
 2909SOL    HW1 9849   4.935   1.852   3.402
 2909SOL    HW2 9850   4.918   1.697   3.448
 2910SOL     OW 9851   4.041   0.251   3.663
 2910SOL    HW1 9852   4.112   0.322   3.669
 2910SOL    HW2 9853   3.953   0.290   3.691
 2911SOL     OW 9854   4.322   0.729   2.132
 2911SOL    HW1 9855   4.346   0.798   2.064
 2911SOL    HW2 9856   4.244   0.762   2.186
 2912SOL     OW 9857   5.005   0.345   2.806
 2912SOL    HW1 9858   4.919   0.295   2.793
 2912SOL    HW2 9859   5.067   0.291   2.862
 2913SOL     OW 9860   4.697   0.890   3.434
 2913SOL    HW1 9861   4.743   0.806   3.405
 2913SOL    HW2 9862   4.641   0.924   3.359
 2914SOL     OW 9863   4.765   0.701   2.291
 2914SOL    HW1 9864   4.791   0.697   2.387
 2914SOL    HW2 9865   4.680   0.650   2.277
 2915SOL     OW 9866   3.800   0.811   2.651
 2915SOL    HW1 9867   3.899   0.799   2.660
 2915SOL    HW2 9868   3.776   0.906   2.672
 2916SOL     OW 9869   3.854   1.821   3.433
 2916SOL    HW1 9870   3.844   1.806   3.532
 2916SOL    HW2 9871   3.768   1.857   3.397
 2917SOL     OW 9872   4.589   0.348   2.057
 2917SOL    HW1 9873   4.648   0.411   2.008
 2917SOL    HW2 9874   4.608   0.254   2.028
 2918SOL     OW 9875   4.274   0.196   2.747
 2918SOL    HW1 9876   4.269   0.191   2.847
 2918SOL    HW2 9877   4.276   0.292   2.718
 2919SOL     OW 9878   4.732   1.456   2.339
 2919SOL    HW1 9879   4.686   1.528   2.287
 2919SOL    HW2 9880   4.728   1.476   2.437
 2920SOL     OW 9881   4.075   1.801   2.715
 2920SOL    HW1 9882   4.125   1.715   2.721
 2920SOL    HW2 9883   4.140   1.878   2.712
 2921SOL     OW 9884   4.951   1.550   3.368
 2921SOL    HW1 9885   4.957   1.473   3.432
 2921SOL    HW2 9886   4.899   1.524   3.288
 2922SOL     OW 9887   4.045   0.943   2.104
 2922SOL    HW1 9888   4.127   0.982   2.062
 2922SOL    HW2 9889   4.018   0.861   2.055
 2923SOL     OW 9890   4.185   1.266   3.589
 2923SOL    HW1 9891   4.135   1.267   3.503
 2923SOL    HW2 9892   4.122   1.248   3.665
 2924SOL     OW 9893   4.835   1.776   2.099
 2924SOL    HW1 9894   4.775   1.714   2.149
 2924SOL    HW2 9895   4.866   1.732   2.014
 2925SOL     OW 9896   3.926   0.285   3.360
 2925SOL    HW1 9897   3.846   0.345   3.347
 2925SOL    HW2 9898   3.916   0.236   3.446
 2926SOL     OW 9899   4.188   1.743   2.185
 2926SOL    HW1 9900   4.221   1.782   2.271
 2926SOL    HW2 9901   4.264   1.736   2.120
 2927SOL     OW 9902   3.973   1.785   3.103
 2927SOL    HW1 9903   4.030   1.720   3.153
 2927SOL    HW2 9904   3.957   1.752   3.010
 2928SOL     OW 9905   4.664   1.698   2.766
 2928SOL    HW1 9906   4.744   1.641   2.787
 2928SOL    HW2 9907   4.615   1.658   2.689
 2929SOL     OW 9908   4.106   0.700   2.342
 2929SOL    HW1 9909   4.151   0.610   2.339
 2929SOL    HW2 9910   4.012   0.689   2.375
 2930SOL     OW 9911   4.338   0.122   1.979
 2930SOL    HW1 9912   4.436   0.100   1.986
 2930SOL    HW2 9913   4.307   0.105   1.886
 2931SOL     OW 9914   4.612   1.514   3.057
 2931SOL    HW1 9915   4.589   1.489   2.963
 2931SOL    HW2 9916   4.673   1.445   3.096
 2932SOL     OW 9917   4.527   1.402   2.786
 2932SOL    HW1 9918   4.617   1.416   2.744
 2932SOL    HW2 9919   4.456   1.404   2.715
 2933SOL     OW 9920   4.646   0.503   2.761
 2933SOL    HW1 9921   4.621   0.494   2.665
 2933SOL    HW2 9922   4.694   0.421   2.792
 2934SOL     OW 9923   4.263   0.064   2.374
 2934SOL    HW1 9924   4.182   0.065   2.432
 2934SOL    HW2 9925   4.266   0.147   2.319
 2935SOL     OW 9926   4.021   0.035   2.033
 2935SOL    HW1 9927   4.070   0.119   2.012
 2935SOL    HW2 9928   4.083  -0.030   2.078
 2936SOL     OW 9929   4.659   0.236   2.342
 2936SOL    HW1 9930   4.611   0.277   2.264
 2936SOL    HW2 9931   4.758   0.234   2.323
 2937SOL     OW 9932   4.951   1.570   2.655
 2937SOL    HW1 9933   4.972   1.644   2.590
 2937SOL    HW2 9934   5.019   1.570   2.728
 2938SOL     OW 9935   4.183   1.152   2.603
 2938SOL    HW1 9936   4.112   1.125   2.668
 2938SOL    HW2 9937   4.157   1.124   2.510
 2939SOL     OW 9938   4.756   0.549   1.878
 2939SOL    HW1 9939   4.715   0.631   1.839
 2939SOL    HW2 9940   4.820   0.575   1.951
 2940SOL     OW 9941   3.802   0.556   3.248
 2940SOL    HW1 9942   3.894   0.555   3.207
 2940SOL    HW2 9943   3.796   0.630   3.315
 2941SOL     OW 9944   4.285   0.222   3.009
 2941SOL    HW1 9945   4.323   0.138   3.046
 2941SOL    HW2 9946   4.197   0.241   3.053
 2942SOL     OW 9947   4.590   0.454   2.504
 2942SOL    HW1 9948   4.558   0.526   2.442
 2942SOL    HW2 9949   4.614   0.373   2.451
 2943SOL     OW 9950   4.741   0.039   2.615
 2943SOL    HW1 9951   4.669   0.044   2.546
 2943SOL    HW2 9952   4.717  -0.030   2.684
 2944SOL     OW 9953   4.212   1.385   2.036
 2944SOL    HW1 9954   4.125   1.370   2.083
 2944SOL    HW2 9955   4.195   1.411   1.941
 2945SOL     OW 9956   5.388   1.280   2.519
 2945SOL    HW1 9957   5.487   1.288   2.533
 2945SOL    HW2 9958   5.343   1.364   2.550
 2946SOL     OW 9959   4.251   0.256   2.190
 2946SOL    HW1 9960   4.278   0.197   2.115
 2946SOL    HW2 9961   4.251   0.351   2.159
 2947SOL     OW 9962   4.788   1.347   3.202
 2947SOL    HW1 9963   4.708   1.324   3.257
 2947SOL    HW2 9964   4.871   1.321   3.251
 2948SOL     OW 9965   4.835   1.195   2.962
 2948SOL    HW1 9966   4.795   1.239   3.043
 2948SOL    HW2 9967   4.794   1.232   2.879
 2949SOL     OW 9968   4.639   0.089   3.264
 2949SOL    HW1 9969   4.664   0.069   3.169
 2949SOL    HW2 9970   4.711   0.145   3.306
 2950SOL     OW 9971   4.704   1.116   3.581
 2950SOL    HW1 9972   4.605   1.122   3.591
 2950SOL    HW2 9973   4.727   1.036   3.525
 2951SOL     OW 9974   4.429   1.050   2.230
 2951SOL    HW1 9975   4.415   1.057   2.329
 2951SOL    HW2 9976   4.513   0.999   2.212
 2952SOL     OW 9977   4.134   0.813   3.113
 2952SOL    HW1 9978   4.220   0.825   3.163
 2952SOL    HW2 9979   4.092   0.726   3.140
 2953SOL     OW 9980   4.998   0.386   3.124
 2953SOL    HW1 9981   5.019   0.460   3.188
 2953SOL    HW2 9982   4.909   0.403   3.081
 2954SOL     OW 9983   3.788   1.564   3.193
 2954SOL    HW1 9984   3.742   1.646   3.159
 2954SOL    HW2 9985   3.886   1.583   3.202
 2955SOL     OW 9986   4.091   1.100   2.363
 2955SOL    HW1 9987   4.084   1.183   2.307
 2955SOL    HW2 9988   4.095   1.020   2.303
 2956SOL     OW 9989   4.290   0.537   2.727
 2956SOL    HW1 9990   4.302   0.603   2.653
 2956SOL    HW2 9991   4.336   0.571   2.810
 2957SOL     OW 9992   4.976   1.348   2.250
 2957SOL    HW1 9993   5.026   1.425   2.290
 2957SOL    HW2 9994   4.881   1.350   2.282
 2958SOL     OW 9995   4.078   1.510   3.191
 2958SOL    HW1 9996   4.057   1.466   3.104
 2958SOL    HW2 9997   4.175   1.536   3.194
 2959SOL     OW 9998   4.126   0.751   3.460
 2959SOL    HW1 9999   4.194   0.806   3.413
 2959SOL    HW210000   4.166   0.663   3.487
 2960SOL     OW10001   4.737   0.105   3.632
 2960SOL    HW110002   4.743   0.190   3.580
 2960SOL    HW210003   4.769   0.029   3.575
 2961SOL     OW10004   4.228   0.050   3.602
 2961SOL    HW110005   4.186  -0.007   3.532
 2961SOL    HW210006   4.162   0.119   3.634
 2962SOL     OW10007   4.297   0.870   2.891
 2962SOL    HW110008   4.341   0.959   2.882
 2962SOL    HW210009   4.234   0.870   2.968
 2963SOL     OW10010   5.084   0.862   2.907
 2963SOL    HW110011   5.009   0.862   2.841
 2963SOL    HW210012   5.121   0.770   2.916
 2964SOL     OW10013   4.933   0.525   2.137
 2964SOL    HW110014   4.946   0.441   2.191
 2964SOL    HW210015   4.904   0.599   2.197
 2965SOL     OW10016   4.031   0.213   3.093
 2965SOL    HW110017   4.008   0.250   3.183
 2965SOL    HW210018   4.001   0.118   3.087
 2966SOL     OW10019   3.761   1.310   3.144
 2966SOL    HW110020   3.814   1.261   3.212
 2966SOL    HW210021   3.783   1.408   3.149
 2967SOL     OW10022   4.031   0.063   2.480
 2967SOL    HW110023   4.020   0.157   2.513
 2967SOL    HW210024   4.026   0.000   2.557
 2968SOL     OW10025   5.346   0.367   2.236
 2968SOL    HW110026   5.348   0.291   2.300
 2968SOL    HW210027   5.298   0.444   2.276
 2969SOL     OW10028   4.704   1.573   3.562
 2969SOL    HW110029   4.684   1.617   3.474
 2969SOL    HW210030   4.743   1.482   3.546
 2970SOL     OW10031   4.074   0.898   3.666
 2970SOL    HW110032   4.150   0.942   3.714
 2970SOL    HW210033   4.109   0.851   3.584
 2971SOL     OW10034   5.027   0.838   1.904
 2971SOL    HW110035   5.061   0.745   1.919
 2971SOL    HW210036   5.045   0.865   1.809
 2972SOL     OW10037   4.792   1.333   2.711
 2972SOL    HW110038   4.799   1.249   2.656
 2972SOL    HW210039   4.854   1.402   2.675
 2973SOL     OW10040   4.043   0.810   2.811
 2973SOL    HW110041   4.136   0.846   2.816
 2973SOL    HW210042   4.037   0.725   2.863
 2974SOL     OW10043   4.063   0.509   2.868
 2974SOL    HW110044   4.011   0.426   2.851
 2974SOL    HW210045   4.140   0.514   2.804
 2975SOL     OW10046   4.862   0.380   3.540
 2975SOL    HW110047   4.817   0.443   3.604
 2975SOL    HW210048   4.955   0.411   3.523
 2976SOL     OW10049   4.884   0.207   3.339
 2976SOL    HW110050   4.884   0.271   3.416
 2976SOL    HW210051   4.912   0.255   3.256
 2977SOL     OW10052   3.732   1.326   2.062
 2977SOL    HW110053   3.639   1.347   2.031
 2977SOL    HW210054   3.742   1.227   2.075
 2978SOL     OW10055   3.812   1.801   2.789
 2978SOL    HW110056   3.770   1.715   2.762
 2978SOL    HW210057   3.906   1.804   2.755
 2979SOL     OW10058   4.228   1.568   2.772
 2979SOL    HW110059   4.294   1.642   2.781
 2979SOL    HW210060   4.272   1.489   2.730
 2980SOL     OW10061   3.764   0.544   2.976
 2980SOL    HW110062   3.849   0.511   2.935
 2980SOL    HW210063   3.777   0.559   3.074
 2981SOL     OW10064   3.913   0.520   3.584
 2981SOL    HW110065   3.972   0.480   3.514
 2981SOL    HW210066   3.855   0.591   3.543
 2982SOL     OW10067   4.539   0.572   2.187
 2982SOL    HW110068   4.546   0.483   2.141
 2982SOL    HW210069   4.445   0.606   2.179
 2983SOL     OW10070   3.976   1.564   3.606
 2983SOL    HW110071   3.946   1.621   3.682
 2983SOL    HW210072   3.969   1.467   3.632
 2984SOL     OW10073   4.654   1.678   3.327
 2984SOL    HW110074   4.630   1.660   3.232
 2984SOL    HW210075   4.684   1.772   3.337
 2985SOL     OW10076   4.197   0.500   2.053
 2985SOL    HW110077   4.258   0.580   2.057
 2985SOL    HW210078   4.102   0.531   2.060
 2986SOL     OW10079   3.883   1.137   3.328
 2986SOL    HW110080   3.905   1.076   3.404
 2986SOL    HW210081   3.893   1.088   3.242
 2987SOL     OW10082   5.071   1.059   3.096
 2987SOL    HW110083   5.095   0.996   3.022
 2987SOL    HW210084   4.981   1.099   3.078
 2988SOL     OW10085   4.976   1.731   2.990
 2988SOL    HW110086   5.060   1.736   2.936
 2988SOL    HW210087   4.953   1.635   3.008
 2989SOL     OW10088   3.807   1.258   2.884
 2989SOL    HW110089   3.802   1.257   2.984
 2989SOL    HW210090   3.724   1.217   2.846
 2990SOL     OW10091   4.412   1.662   3.578
 2990SOL    HW110092   4.356   1.743   3.587
 2990SOL    HW210093   4.464   1.666   3.492
 2991SOL     OW10094   5.112   1.573   2.339
 2991SOL    HW110095   5.179   1.585   2.265
 2991SOL    HW210096   5.072   1.662   2.362
 2992SOL     OW10097   3.854   1.794   3.713
 2992SOL    HW110098   3.813   1.720   3.766
 2992SOL    HW210099   3.918   1.845   3.771
 2993SOL     OW10100   5.004   0.927   2.534
 2993SOL    HW110101   5.064   0.846   2.536
 2993SOL    HW210102   5.044   0.996   2.474
 2994SOL     OW10103   4.554   1.273   3.284
 2994SOL    HW110104   4.549   1.306   3.379
 2994SOL    HW210105   4.468   1.292   3.238
 2995SOL     OW10106   4.396   1.616   2.016
 2995SOL    HW110107   4.405   1.626   1.917
 2995SOL    HW210108   4.356   1.527   2.037
 2996SOL     OW10109   3.987   0.326   2.582
 2996SOL    HW110110   3.908   0.377   2.548
 2996SOL    HW210111   3.978   0.311   2.680
 2997SOL     OW10112   4.918   1.612   1.893
 2997SOL    HW110113   4.924   1.519   1.930
 2997SOL    HW210114   4.859   1.612   1.813
 2998SOL     OW10115   4.546   1.002   3.234
 2998SOL    HW110116   4.586   1.001   3.142
 2998SOL    HW210117   4.556   1.094   3.274
 2999SOL     OW10118   4.640   0.910   2.153
 2999SOL    HW110119   4.703   0.948   2.085
 2999SOL    HW210120   4.680   0.827   2.192
 3000SOL     OW10121   4.096   1.288   3.352
 3000SOL    HW110122   4.083   1.381   3.318
 3000SOL    HW210123   4.012   1.236   3.339
 3001SOL     OW10124   4.763   1.098   2.558
 3001SOL    HW110125   4.693   1.051   2.612
 3001SOL    HW210126   4.822   1.030   2.515
 3002SOL     OW10127   4.738   0.236   2.833
 3002SOL    HW110128   4.730   0.200   2.740
 3002SOL    HW210129   4.736   0.160   2.898
 3003SOL     OW10130   4.314   1.487   2.353
 3003SOL    HW110131   4.356   1.429   2.283
 3003SOL    HW210132   4.270   1.566   2.309
 3004SOL     OW10133   3.979   1.348   2.152
 3004SOL    HW110134   3.883   1.349   2.125
 3004SOL    HW210135   3.991   1.401   2.236
 3005SOL     OW10136   3.829   1.013   3.588
 3005SOL    HW110137   3.752   0.980   3.642
 3005SOL    HW210138   3.914   0.983   3.630
 3006SOL     OW10139   3.799   0.345   1.895
 3006SOL    HW110140   3.707   0.317   1.866
 3006SOL    HW210141   3.830   0.422   1.839
 3007SOL     OW10142   5.164   0.856   3.260
 3007SOL    HW110143   5.107   0.908   3.197
 3007SOL    HW210144   5.260   0.868   3.236
 3008SOL     OW10145   3.796   0.166   2.180
 3008SOL    HW110146   3.779   0.249   2.126
 3008SOL    HW210147   3.886   0.129   2.158
 3009SOL     OW10148   4.337   0.842   3.293
 3009SOL    HW110149   4.393   0.923   3.276
 3009SOL    HW210150   4.396   0.762   3.296
 3010SOL     OW10151   4.114   1.741   3.422
 3010SOL    HW110152   4.023   1.782   3.420
 3010SOL    HW210153   4.107   1.647   3.454
 3011SOL     OW10154   4.949   0.325   2.311
 3011SOL    HW110155   5.014   0.251   2.300
 3011SOL    HW210156   4.969   0.375   2.395
 3012SOL     OW10157   4.318   0.745   2.514
 3012SOL    HW110158   4.368   0.830   2.495
 3012SOL    HW210159   4.230   0.747   2.466
 3013SOL     OW10160   4.583   1.374   1.878
 3013SOL    HW110161   4.537   1.389   1.966
 3013SOL    HW210162   4.627   1.459   1.848
 3014SOL     OW10163   4.385   1.790   2.815
 3014SOL    HW110164   4.339   1.878   2.802
 3014SOL    HW210165   4.484   1.802   2.808
 3015SOL     OW10166   4.583   0.956   2.723
 3015SOL    HW110167   4.637   0.887   2.771
 3015SOL    HW210168   4.551   1.025   2.789
 3016SOL     OW10169   4.807   0.984   1.949
 3016SOL    HW110170   4.784   1.037   1.867
 3016SOL    HW210171   4.888   0.928   1.930
 3017SOL     OW10172   3.945   1.314   3.706
 3017SOL    HW110173   3.880   1.241   3.685
 3017SOL    HW210174   3.949   1.328   3.804
 3018SOL     OW10175   3.803   1.240   2.515
 3018SOL    HW110176   3.802   1.193   2.603
 3018SOL    HW210177   3.885   1.212   2.464
 3019SOL     OW10178   4.396   1.391   3.486
 3019SOL    HW110179   4.318   1.341   3.524
 3019SOL    HW210180   4.393   1.486   3.517
 3020SOL     OW10181   4.152   0.424   2.382
 3020SOL    HW110182   4.182   0.352   2.320
 3020SOL    HW210183   4.113   0.384   2.465
 3021SOL     OW10184   4.041   0.547   3.142
 3021SOL    HW110185   4.079   0.488   3.214
 3021SOL    HW210186   4.081   0.521   3.054
 3022SOL     OW10187   4.536   1.586   2.549
 3022SOL    HW110188   4.568   1.596   2.455
 3022SOL    HW210189   4.457   1.524   2.551
 3023SOL     OW10190   4.725   0.034   3.016
 3023SOL    HW110191   4.662  -0.038   2.985
 3023SOL    HW210192   4.818  -0.002   3.016
 3024SOL     OW10193   4.494   1.330   2.163
 3024SOL    HW110194   4.448   1.243   2.180
 3024SOL    HW210195   4.585   1.327   2.204
 3025SOL     OW10196   4.342   1.567   3.146
 3025SOL    HW110197   4.337   1.649   3.203
 3025SOL    HW210198   4.431   1.564   3.101
 3026SOL     OW10199   3.763   1.077   2.162
 3026SOL    HW110200   3.862   1.066   2.153
 3026SOL    HW210201   3.723   0.991   2.194
 3027SOL     OW10202   4.599   1.646   2.199
 3027SOL    HW110203   4.522   1.611   2.145
 3027SOL    HW210204   4.567   1.717   2.261
 3028SOL     OW10205   3.954   0.628   3.837
 3028SOL    HW110206   3.861   0.626   3.874
 3028SOL    HW210207   3.955   0.589   3.745
 3029SOL     OW10208   3.949   0.275   4.720
 3029SOL    HW110209   3.984   0.258   4.812
 3029SOL    HW210210   3.861   0.230   4.708
 3030SOL     OW10211   3.743   0.368   4.371
 3030SOL    HW110212   3.661   0.411   4.410
 3030SOL    HW210213   3.715   0.295   4.308
 3031SOL     OW10214   4.293   1.275   4.889
 3031SOL    HW110215   4.200   1.268   4.852
 3031SOL    HW210216   4.304   1.364   4.933
 3032SOL     OW10217   4.859   0.703   4.441
 3032SOL    HW110218   4.916   0.781   4.416
 3032SOL    HW210219   4.799   0.729   4.517
 3033SOL     OW10220   4.492   1.144   4.747
 3033SOL    HW110221   4.414   1.161   4.807
 3033SOL    HW210222   4.526   1.231   4.711
 3034SOL     OW10223   4.409   1.012   4.389
 3034SOL    HW110224   4.478   0.996   4.459
 3034SOL    HW210225   4.336   1.069   4.427
 3035SOL     OW10226   3.955   1.713   4.207
 3035SOL    HW110227   3.989   1.790   4.261
 3035SOL    HW210228   3.999   1.713   4.117
 3036SOL     OW10229   3.954   1.434   4.262
 3036SOL    HW110230   3.928   1.530   4.262
 3036SOL    HW210231   3.883   1.380   4.307
 3037SOL     OW10232   3.964   1.091   4.610
 3037SOL    HW110233   3.978   1.007   4.662
 3037SOL    HW210234   3.909   1.155   4.665
 3038SOL     OW10235   4.344   1.786   5.163
 3038SOL    HW110236   4.252   1.769   5.198
 3038SOL    HW210237   4.372   1.878   5.189
 3039SOL     OW10238   4.330   0.964   3.847
 3039SOL    HW110239   4.337   1.048   3.793
 3039SOL    HW210240   4.376   0.977   3.935
 3040SOL     OW10241   3.846   0.643   4.287
 3040SOL    HW110242   3.801   0.555   4.304
 3040SOL    HW210243   3.845   0.697   4.371
 3041SOL     OW10244   3.751   1.596   3.841
 3041SOL    HW110245   3.732   1.500   3.862
 3041SOL    HW210246   3.718   1.654   3.916
 3042SOL     OW10247   4.337   1.365   4.450
 3042SOL    HW110248   4.288   1.278   4.459
 3042SOL    HW210249   4.314   1.408   4.363
 3043SOL     OW10250   4.533   0.004   4.226
 3043SOL    HW110251   4.573   0.095   4.217
 3043SOL    HW210252   4.433   0.012   4.232
 3044SOL     OW10253   3.921   0.976   4.988
 3044SOL    HW110254   4.010   0.931   4.974
 3044SOL    HW210255   3.848   0.911   4.969
 3045SOL     OW10256   4.322   0.729   3.994
 3045SOL    HW110257   4.346   0.798   3.926
 3045SOL    HW210258   4.244   0.762   4.048
 3046SOL     OW10259   5.005   0.345   4.668
 3046SOL    HW110260   4.919   0.295   4.655
 3046SOL    HW210261   5.067   0.291   4.724
 3047SOL     OW10262   4.715   0.410   4.966
 3047SOL    HW110263   4.638   0.444   5.020
 3047SOL    HW210264   4.681   0.359   4.887
 3048SOL     OW10265   4.765   0.701   4.153
 3048SOL    HW110266   4.791   0.697   4.249
 3048SOL    HW210267   4.680   0.650   4.139
 3049SOL     OW10268   3.800   0.811   4.513
 3049SOL    HW110269   3.899   0.799   4.522
 3049SOL    HW210270   3.776   0.906   4.534
 3050SOL     OW10271   4.274   0.196   4.609
 3050SOL    HW110272   4.269   0.191   4.709
 3050SOL    HW210273   4.276   0.292   4.580
 3051SOL     OW10274   4.732   1.456   4.201
 3051SOL    HW110275   4.686   1.528   4.149
 3051SOL    HW210276   4.728   1.476   4.299
 3052SOL     OW10277   4.045   0.943   3.966
 3052SOL    HW110278   4.127   0.982   3.924
 3052SOL    HW210279   4.018   0.861   3.917
 3053SOL     OW10280   4.835   1.776   3.961
 3053SOL    HW110281   4.775   1.714   4.011
 3053SOL    HW210282   4.866   1.732   3.876
 3054SOL     OW10283   4.188   1.743   4.047
 3054SOL    HW110284   4.221   1.782   4.133
 3054SOL    HW210285   4.264   1.736   3.982
 3055SOL     OW10286   3.973   1.785   4.965
 3055SOL    HW110287   4.030   1.720   5.015
 3055SOL    HW210288   3.957   1.752   4.872
 3056SOL     OW10289   4.664   1.698   4.628
 3056SOL    HW110290   4.744   1.641   4.649
 3056SOL    HW210291   4.615   1.658   4.551
 3057SOL     OW10292   4.106   0.700   4.204
 3057SOL    HW110293   4.151   0.610   4.201
 3057SOL    HW210294   4.012   0.689   4.237
 3058SOL     OW10295   4.338   0.122   3.841
 3058SOL    HW110296   4.436   0.100   3.848
 3058SOL    HW210297   4.307   0.105   3.748
 3059SOL     OW10298   4.527   1.402   4.648
 3059SOL    HW110299   4.617   1.416   4.606
 3059SOL    HW210300   4.456   1.404   4.577
 3060SOL     OW10301   4.646   0.503   4.623
 3060SOL    HW110302   4.621   0.494   4.527
 3060SOL    HW210303   4.694   0.421   4.654
 3061SOL     OW10304   4.263   0.064   4.236
 3061SOL    HW110305   4.182   0.065   4.294
 3061SOL    HW210306   4.266   0.147   4.181
 3062SOL     OW10307   4.021   0.035   3.895
 3062SOL    HW110308   4.070   0.119   3.874
 3062SOL    HW210309   4.083  -0.030   3.940
 3063SOL     OW10310   4.659   0.236   4.204
 3063SOL    HW110311   4.611   0.277   4.126
 3063SOL    HW210312   4.758   0.234   4.185
 3064SOL     OW10313   4.951   1.570   4.517
 3064SOL    HW110314   4.972   1.644   4.452
 3064SOL    HW210315   5.019   1.570   4.590
 3065SOL     OW10316   4.183   1.152   4.465
 3065SOL    HW110317   4.112   1.125   4.530
 3065SOL    HW210318   4.157   1.124   4.372
 3066SOL     OW10319   4.995   1.797   4.315
 3066SOL    HW110320   5.039   1.861   4.251
 3066SOL    HW210321   4.945   1.849   4.385
 3067SOL     OW10322   4.285   0.222   4.871
 3067SOL    HW110323   4.323   0.138   4.908
 3067SOL    HW210324   4.197   0.241   4.915
 3068SOL     OW10325   4.590   0.454   4.366
 3068SOL    HW110326   4.558   0.526   4.304
 3068SOL    HW210327   4.614   0.373   4.313
 3069SOL     OW10328   4.741   0.039   4.477
 3069SOL    HW110329   4.669   0.044   4.408
 3069SOL    HW210330   4.717  -0.030   4.546
 3070SOL     OW10331   4.212   1.385   3.898
 3070SOL    HW110332   4.125   1.370   3.945
 3070SOL    HW210333   4.195   1.411   3.803
 3071SOL     OW10334   5.388   1.280   4.381
 3071SOL    HW110335   5.487   1.288   4.395
 3071SOL    HW210336   5.343   1.364   4.412
 3072SOL     OW10337   4.251   0.256   4.052
 3072SOL    HW110338   4.278   0.197   3.977
 3072SOL    HW210339   4.251   0.351   4.021
 3073SOL     OW10340   5.316   1.629   5.349
 3073SOL    HW110341   5.343   1.663   5.259
 3073SOL    HW210342   5.395   1.591   5.395
 3074SOL     OW10343   4.835   1.195   4.824
 3074SOL    HW110344   4.795   1.239   4.905
 3074SOL    HW210345   4.794   1.232   4.741
 3075SOL     OW10346   4.429   1.050   4.092
 3075SOL    HW110347   4.415   1.057   4.191
 3075SOL    HW210348   4.513   0.999   4.074
 3076SOL     OW10349   4.134   0.813   4.975
 3076SOL    HW110350   4.220   0.825   5.025
 3076SOL    HW210351   4.092   0.726   5.002
 3077SOL     OW10352   4.091   1.100   4.225
 3077SOL    HW110353   4.084   1.183   4.169
 3077SOL    HW210354   4.095   1.020   4.165
 3078SOL     OW10355   4.290   0.537   4.589
 3078SOL    HW110356   4.302   0.603   4.515
 3078SOL    HW210357   4.336   0.571   4.672
 3079SOL     OW10358   4.976   1.348   4.112
 3079SOL    HW110359   5.026   1.425   4.152
 3079SOL    HW210360   4.881   1.350   4.144
 3080SOL     OW10361   4.078   1.510   5.053
 3080SOL    HW110362   4.057   1.466   4.966
 3080SOL    HW210363   4.175   1.536   5.056
 3081SOL     OW10364   4.297   0.870   4.753
 3081SOL    HW110365   4.341   0.959   4.744
 3081SOL    HW210366   4.234   0.870   4.830
 3082SOL     OW10367   5.084   0.862   4.769
 3082SOL    HW110368   5.009   0.862   4.703
 3082SOL    HW210369   5.121   0.770   4.778
 3083SOL     OW10370   4.031   0.213   4.955
 3083SOL    HW110371   4.008   0.250   5.045
 3083SOL    HW210372   4.001   0.118   4.949
 3084SOL     OW10373   3.761   1.310   5.006
 3084SOL    HW110374   3.814   1.261   5.074
 3084SOL    HW210375   3.783   1.408   5.011
 3085SOL     OW10376   4.456   0.634   4.788
 3085SOL    HW110377   4.515   0.608   4.712
 3085SOL    HW210378   4.428   0.730   4.777
 3086SOL     OW10379   4.031   0.063   4.342
 3086SOL    HW110380   4.020   0.157   4.375
 3086SOL    HW210381   4.026   0.000   4.419
 3087SOL     OW10382   5.346   0.367   4.098
 3087SOL    HW110383   5.348   0.291   4.162
 3087SOL    HW210384   5.298   0.444   4.138
 3088SOL     OW10385   4.747   0.766   4.690
 3088SOL    HW110386   4.762   0.787   4.786
 3088SOL    HW210387   4.717   0.671   4.681
 3089SOL     OW10388   4.792   1.333   4.573
 3089SOL    HW110389   4.799   1.249   4.518
 3089SOL    HW210390   4.854   1.402   4.537
 3090SOL     OW10391   4.043   0.810   4.673
 3090SOL    HW110392   4.136   0.846   4.678
 3090SOL    HW210393   4.037   0.725   4.725
 3091SOL     OW10394   4.063   0.509   4.730
 3091SOL    HW110395   4.011   0.426   4.713
 3091SOL    HW210396   4.140   0.514   4.666
 3092SOL     OW10397   4.884   0.207   5.201
 3092SOL    HW110398   4.884   0.271   5.278
 3092SOL    HW210399   4.912   0.255   5.118
 3093SOL     OW10400   3.732   1.326   3.924
 3093SOL    HW110401   3.639   1.347   3.893
 3093SOL    HW210402   3.742   1.227   3.937
 3094SOL     OW10403   4.726   0.796   4.962
 3094SOL    HW110404   4.767   0.764   5.048
 3094SOL    HW210405   4.630   0.769   4.959
 3095SOL     OW10406   3.764   0.544   4.838
 3095SOL    HW110407   3.849   0.511   4.797
 3095SOL    HW210408   3.777   0.559   4.936
 3096SOL     OW10409   4.539   0.572   4.049
 3096SOL    HW110410   4.546   0.483   4.003
 3096SOL    HW210411   4.445   0.606   4.041
 3097SOL     OW10412   4.395   0.464   4.993
 3097SOL    HW110413   4.361   0.375   4.963
 3097SOL    HW210414   4.421   0.518   4.913
 3098SOL     OW10415   4.654   1.678   5.189
 3098SOL    HW110416   4.630   1.660   5.094
 3098SOL    HW210417   4.684   1.772   5.199
 3099SOL     OW10418   4.197   0.500   3.915
 3099SOL    HW110419   4.258   0.580   3.919
 3099SOL    HW210420   4.102   0.531   3.922
 3100SOL     OW10421   5.071   1.059   4.958
 3100SOL    HW110422   5.095   0.996   4.884
 3100SOL    HW210423   4.981   1.099   4.940
 3101SOL     OW10424   4.976   1.731   4.852
 3101SOL    HW110425   5.060   1.736   4.798
 3101SOL    HW210426   4.953   1.635   4.870
 3102SOL     OW10427   3.807   1.258   4.746
 3102SOL    HW110428   3.802   1.257   4.846
 3102SOL    HW210429   3.724   1.217   4.708
 3103SOL     OW10430   5.112   1.573   4.201
 3103SOL    HW110431   5.179   1.585   4.127
 3103SOL    HW210432   5.072   1.662   4.224
 3104SOL     OW10433   5.004   0.927   4.396
 3104SOL    HW110434   5.064   0.846   4.398
 3104SOL    HW210435   5.044   0.996   4.336
 3105SOL     OW10436   4.396   1.616   3.878
 3105SOL    HW110437   4.405   1.626   3.779
 3105SOL    HW210438   4.356   1.527   3.899
 3106SOL     OW10439   3.987   0.326   4.444
 3106SOL    HW110440   3.908   0.377   4.410
 3106SOL    HW210441   3.978   0.311   4.542
 3107SOL     OW10442   4.918   1.612   3.755
 3107SOL    HW110443   4.924   1.519   3.792
 3107SOL    HW210444   4.859   1.612   3.675
 3108SOL     OW10445   4.546   1.002   5.096
 3108SOL    HW110446   4.586   1.001   5.004
 3108SOL    HW210447   4.556   1.094   5.136
 3109SOL     OW10448   4.640   0.910   4.015
 3109SOL    HW110449   4.703   0.948   3.947
 3109SOL    HW210450   4.680   0.827   4.054
 3110SOL     OW10451   4.763   1.098   4.420
 3110SOL    HW110452   4.693   1.051   4.474
 3110SOL    HW210453   4.822   1.030   4.377
 3111SOL     OW10454   4.738   0.236   4.695
 3111SOL    HW110455   4.730   0.200   4.602
 3111SOL    HW210456   4.736   0.160   4.760
 3112SOL     OW10457   4.314   1.487   4.215
 3112SOL    HW110458   4.356   1.429   4.145
 3112SOL    HW210459   4.270   1.566   4.171
 3113SOL     OW10460   3.979   1.348   4.014
 3113SOL    HW110461   3.883   1.349   3.987
 3113SOL    HW210462   3.991   1.401   4.098
 3114SOL     OW10463   3.799   0.345   3.757
 3114SOL    HW110464   3.707   0.317   3.728
 3114SOL    HW210465   3.830   0.422   3.701
 3115SOL     OW10466   3.796   0.166   4.042
 3115SOL    HW110467   3.779   0.249   3.988
 3115SOL    HW210468   3.886   0.129   4.020
 3116SOL     OW10469   4.949   0.325   4.173
 3116SOL    HW110470   5.014   0.251   4.162
 3116SOL    HW210471   4.969   0.375   4.257
 3117SOL     OW10472   4.318   0.745   4.376
 3117SOL    HW110473   4.368   0.830   4.357
 3117SOL    HW210474   4.230   0.747   4.328
 3118SOL     OW10475   4.583   1.374   3.740
 3118SOL    HW110476   4.537   1.389   3.828
 3118SOL    HW210477   4.627   1.459   3.710
 3119SOL     OW10478   4.385   1.790   4.677
 3119SOL    HW110479   4.339   1.878   4.664
 3119SOL    HW210480   4.484   1.802   4.670
 3120SOL     OW10481   4.583   0.956   4.585
 3120SOL    HW110482   4.637   0.887   4.633
 3120SOL    HW210483   4.551   1.025   4.651
 3121SOL     OW10484   4.807   0.984   3.811
 3121SOL    HW110485   4.784   1.037   3.729
 3121SOL    HW210486   4.888   0.928   3.792
 3122SOL     OW10487   3.803   1.240   4.377
 3122SOL    HW110488   3.802   1.193   4.465
 3122SOL    HW210489   3.885   1.212   4.326
 3123SOL     OW10490   4.152   0.424   4.244
 3123SOL    HW110491   4.182   0.352   4.182
 3123SOL    HW210492   4.113   0.384   4.327
 3124SOL     OW10493   4.536   1.586   4.411
 3124SOL    HW110494   4.568   1.596   4.317
 3124SOL    HW210495   4.457   1.524   4.413
 3125SOL     OW10496   4.725   0.034   4.878
 3125SOL    HW110497   4.662  -0.038   4.847
 3125SOL    HW210498   4.818  -0.002   4.878
 3126SOL     OW10499   4.494   1.330   4.025
 3126SOL    HW110500   4.448   1.243   4.042
 3126SOL    HW210501   4.585   1.327   4.066
 3127SOL     OW10502   3.763   1.077   4.024
 3127SOL    HW110503   3.862   1.066   4.015
 3127SOL    HW210504   3.723   0.991   4.056
 3128SOL     OW10505   4.599   1.646   4.061
 3128SOL    HW110506   4.522   1.611   4.007
 3128SOL    HW210507   4.567   1.717   4.123
 3129SOL     OW10508   3.954   2.490   0.113
 3129SOL    HW110509   3.861   2.488   0.150
 3129SOL    HW210510   3.955   2.451   0.021
 3130SOL     OW10511   3.949   2.137   0.996
 3130SOL    HW110512   3.984   2.120   1.088
 3130SOL    HW210513   3.861   2.092   0.984
 3131SOL     OW10514   3.743   2.230   0.647
 3131SOL    HW110515   3.661   2.273   0.686
 3131SOL    HW210516   3.715   2.157   0.584
 3132SOL     OW10517   4.293   3.137   1.165
 3132SOL    HW110518   4.200   3.130   1.128
 3132SOL    HW210519   4.304   3.226   1.209
 3133SOL     OW10520   4.859   2.565   0.717
 3133SOL    HW110521   4.916   2.643   0.692
 3133SOL    HW210522   4.799   2.591   0.793
 3134SOL     OW10523   4.492   3.006   1.023
 3134SOL    HW110524   4.414   3.023   1.083
 3134SOL    HW210525   4.526   3.093   0.987
 3135SOL     OW10526   4.574   2.660   1.823
 3135SOL    HW110527   4.570   2.736   1.888
 3135SOL    HW210528   4.596   2.696   1.732
 3136SOL     OW10529   4.409   2.874   0.665
 3136SOL    HW110530   4.478   2.858   0.735
 3136SOL    HW210531   4.336   2.931   0.703
 3137SOL     OW10532   4.410   3.023   1.803
 3137SOL    HW110533   4.470   3.102   1.817
 3137SOL    HW210534   4.324   3.054   1.762
 3138SOL     OW10535   4.059   3.297   1.061
 3138SOL    HW110536   3.981   3.266   1.008
 3138SOL    HW210537   4.117   3.355   1.004
 3139SOL     OW10538   4.162   2.254   1.499
 3139SOL    HW110539   4.244   2.198   1.508
 3139SOL    HW210540   4.081   2.196   1.503
 3140SOL     OW10541   3.955   3.575   0.483
 3140SOL    HW110542   3.989   3.652   0.537
 3140SOL    HW210543   3.999   3.575   0.393
 3141SOL     OW10544   4.851   3.203   1.690
 3141SOL    HW110545   4.898   3.203   1.778
 3141SOL    HW210546   4.803   3.116   1.679
 3142SOL     OW10547   3.954   3.296   0.538
 3142SOL    HW110548   3.928   3.392   0.538
 3142SOL    HW210549   3.883   3.242   0.583
 3143SOL     OW10550   3.964   2.953   0.886
 3143SOL    HW110551   3.978   2.869   0.938
 3143SOL    HW210552   3.909   3.017   0.941
 3144SOL     OW10553   4.344   3.648   1.439
 3144SOL    HW110554   4.252   3.631   1.474
 3144SOL    HW210555   4.372   3.740   1.465
 3145SOL     OW10556   4.330   2.826   0.123
 3145SOL    HW110557   4.337   2.910   0.069
 3145SOL    HW210558   4.376   2.839   0.211
 3146SOL     OW10559   3.846   2.505   0.563
 3146SOL    HW110560   3.801   2.417   0.580
 3146SOL    HW210561   3.845   2.559   0.647
 3147SOL     OW10562   3.751   3.458   0.117
 3147SOL    HW110563   3.732   3.362   0.138
 3147SOL    HW210564   3.718   3.516   0.192
 3148SOL     OW10565   3.837   2.599   1.597
 3148SOL    HW110566   3.925   2.586   1.642
 3148SOL    HW210567   3.824   2.696   1.575
 3149SOL     OW10568   4.337   3.227   0.726
 3149SOL    HW110569   4.288   3.140   0.735
 3149SOL    HW210570   4.314   3.270   0.639
 3150SOL     OW10571   5.017   3.090   1.423
 3150SOL    HW110572   5.054   3.017   1.365
 3150SOL    HW210573   5.069   3.095   1.508
 3151SOL     OW10574   4.533   1.866   0.502
 3151SOL    HW110575   4.573   1.957   0.493
 3151SOL    HW210576   4.433   1.874   0.508
 3152SOL     OW10577   3.921   2.838   1.264
 3152SOL    HW110578   4.010   2.793   1.250
 3152SOL    HW210579   3.848   2.773   1.245
 3153SOL     OW10580   4.911   3.654   1.616
 3153SOL    HW110581   4.935   3.714   1.540
 3153SOL    HW210582   4.918   3.559   1.586
 3154SOL     OW10583   4.041   2.113   1.801
 3154SOL    HW110584   4.112   2.184   1.807
 3154SOL    HW210585   3.953   2.152   1.829
 3155SOL     OW10586   4.322   2.591   0.270
 3155SOL    HW110587   4.346   2.660   0.202
 3155SOL    HW210588   4.244   2.624   0.324
 3156SOL     OW10589   5.005   2.207   0.944
 3156SOL    HW110590   4.919   2.157   0.931
 3156SOL    HW210591   5.067   2.153   1.000
 3157SOL     OW10592   4.531   2.467   1.465
 3157SOL    HW110593   4.484   2.464   1.554
 3157SOL    HW210594   4.480   2.412   1.399
 3158SOL     OW10595   4.697   2.752   1.572
 3158SOL    HW110596   4.743   2.668   1.543
 3158SOL    HW210597   4.641   2.786   1.497
 3159SOL     OW10598   4.715   2.272   1.242
 3159SOL    HW110599   4.638   2.306   1.296
 3159SOL    HW210600   4.681   2.221   1.163
 3160SOL     OW10601   4.765   2.563   0.429
 3160SOL    HW110602   4.791   2.559   0.525
 3160SOL    HW210603   4.680   2.512   0.415
 3161SOL     OW10604   3.800   2.673   0.789
 3161SOL    HW110605   3.899   2.661   0.798
 3161SOL    HW210606   3.776   2.768   0.810
 3162SOL     OW10607   3.854   3.683   1.571
 3162SOL    HW110608   3.844   3.668   1.670
 3162SOL    HW210609   3.768   3.719   1.535
 3163SOL     OW10610   4.589   2.210   0.195
 3163SOL    HW110611   4.648   2.273   0.146
 3163SOL    HW210612   4.608   2.116   0.166
 3164SOL     OW10613   4.274   2.058   0.885
 3164SOL    HW110614   4.269   2.053   0.985
 3164SOL    HW210615   4.276   2.154   0.856
 3165SOL     OW10616   4.732   3.318   0.477
 3165SOL    HW110617   4.686   3.390   0.425
 3165SOL    HW210618   4.728   3.338   0.575
 3166SOL     OW10619   4.075   3.663   0.853
 3166SOL    HW110620   4.125   3.577   0.859
 3166SOL    HW210621   4.140   3.740   0.850
 3167SOL     OW10622   4.951   3.412   1.506
 3167SOL    HW110623   4.957   3.335   1.570
 3167SOL    HW210624   4.899   3.386   1.426
 3168SOL     OW10625   4.045   2.805   0.242
 3168SOL    HW110626   4.127   2.844   0.200
 3168SOL    HW210627   4.018   2.723   0.193
 3169SOL     OW10628   4.185   3.128   1.727
 3169SOL    HW110629   4.135   3.129   1.641
 3169SOL    HW210630   4.122   3.110   1.803
 3170SOL     OW10631   4.835   3.638   0.237
 3170SOL    HW110632   4.775   3.576   0.287
 3170SOL    HW210633   4.866   3.594   0.152
 3171SOL     OW10634   3.926   2.147   1.498
 3171SOL    HW110635   3.846   2.207   1.485
 3171SOL    HW210636   3.916   2.098   1.584
 3172SOL     OW10637   5.356   3.239   0.081
 3172SOL    HW110638   5.324   3.333   0.071
 3172SOL    HW210639   5.280   3.176   0.069
 3173SOL     OW10640   4.188   3.605   0.323
 3173SOL    HW110641   4.221   3.644   0.409
 3173SOL    HW210642   4.264   3.598   0.258
 3174SOL     OW10643   3.973   3.647   1.241
 3174SOL    HW110644   4.030   3.582   1.291
 3174SOL    HW210645   3.957   3.614   1.148
 3175SOL     OW10646   4.664   3.560   0.904
 3175SOL    HW110647   4.744   3.503   0.925
 3175SOL    HW210648   4.615   3.520   0.827
 3176SOL     OW10649   4.106   2.562   0.480
 3176SOL    HW110650   4.151   2.472   0.477
 3176SOL    HW210651   4.012   2.551   0.513
 3177SOL     OW10652   4.505   2.126   1.749
 3177SOL    HW110653   4.572   2.065   1.792
 3177SOL    HW210654   4.432   2.145   1.814
 3178SOL     OW10655   4.612   3.376   1.195
 3178SOL    HW110656   4.589   3.351   1.101
 3178SOL    HW210657   4.673   3.307   1.234
 3179SOL     OW10658   4.527   3.264   0.924
 3179SOL    HW110659   4.617   3.278   0.882
 3179SOL    HW210660   4.456   3.266   0.853
 3180SOL     OW10661   4.646   2.365   0.899
 3180SOL    HW110662   4.621   2.356   0.803
 3180SOL    HW210663   4.694   2.283   0.930
 3181SOL     OW10664   4.263   1.926   0.512
 3181SOL    HW110665   4.182   1.927   0.570
 3181SOL    HW210666   4.266   2.009   0.457
 3182SOL     OW10667   4.021   1.897   0.171
 3182SOL    HW110668   4.070   1.981   0.150
 3182SOL    HW210669   4.083   1.832   0.216
 3183SOL     OW10670   4.659   2.098   0.480
 3183SOL    HW110671   4.611   2.139   0.402
 3183SOL    HW210672   4.758   2.096   0.461
 3184SOL     OW10673   4.800   2.545   1.464
 3184SOL    HW110674   4.720   2.484   1.467
 3184SOL    HW210675   4.881   2.492   1.440
 3185SOL     OW10676   4.951   3.432   0.793
 3185SOL    HW110677   4.972   3.506   0.728
 3185SOL    HW210678   5.019   3.432   0.866
 3186SOL     OW10679   4.183   3.014   0.741
 3186SOL    HW110680   4.112   2.987   0.806
 3186SOL    HW210681   4.157   2.986   0.648
 3187SOL     OW10682   4.995   3.659   0.591
 3187SOL    HW110683   5.039   3.723   0.527
 3187SOL    HW210684   4.945   3.711   0.661
 3188SOL     OW10685   4.756   2.411   0.016
 3188SOL    HW110686   4.715   2.493  -0.023
 3188SOL    HW210687   4.820   2.437   0.089
 3189SOL     OW10688   3.802   2.418   1.386
 3189SOL    HW110689   3.894   2.417   1.345
 3189SOL    HW210690   3.796   2.492   1.453
 3190SOL     OW10691   4.285   2.084   1.147
 3190SOL    HW110692   4.323   2.000   1.184
 3190SOL    HW210693   4.197   2.103   1.191
 3191SOL     OW10694   4.590   2.316   0.642
 3191SOL    HW110695   4.558   2.388   0.580
 3191SOL    HW210696   4.614   2.235   0.589
 3192SOL     OW10697   4.741   1.901   0.753
 3192SOL    HW110698   4.669   1.906   0.684
 3192SOL    HW210699   4.717   1.832   0.822
 3193SOL     OW10700   4.212   3.247   0.174
 3193SOL    HW110701   4.125   3.232   0.221
 3193SOL    HW210702   4.195   3.273   0.079
 3194SOL     OW10703   5.388   3.142   0.657
 3194SOL    HW110704   5.487   3.150   0.671
 3194SOL    HW210705   5.343   3.226   0.688
 3195SOL     OW10706   4.251   2.118   0.328
 3195SOL    HW110707   4.278   2.059   0.253
 3195SOL    HW210708   4.251   2.213   0.297
 3196SOL     OW10709   4.788   3.209   1.340
 3196SOL    HW110710   4.708   3.186   1.395
 3196SOL    HW210711   4.871   3.183   1.389
 3197SOL     OW10712   4.835   3.057   1.100
 3197SOL    HW110713   4.795   3.101   1.181
 3197SOL    HW210714   4.794   3.094   1.017
 3198SOL     OW10715   4.639   1.951   1.402
 3198SOL    HW110716   4.664   1.931   1.307
 3198SOL    HW210717   4.711   2.007   1.444
 3199SOL     OW10718   4.704   2.978   1.719
 3199SOL    HW110719   4.605   2.984   1.729
 3199SOL    HW210720   4.727   2.898   1.663
 3200SOL     OW10721   4.429   2.912   0.368
 3200SOL    HW110722   4.415   2.919   0.467
 3200SOL    HW210723   4.513   2.861   0.350
 3201SOL     OW10724   4.134   2.675   1.251
 3201SOL    HW110725   4.220   2.687   1.301
 3201SOL    HW210726   4.092   2.588   1.278
 3202SOL     OW10727   4.998   2.248   1.262
 3202SOL    HW110728   5.019   2.322   1.326
 3202SOL    HW210729   4.909   2.265   1.219
 3203SOL     OW10730   3.788   3.426   1.331
 3203SOL    HW110731   3.742   3.508   1.297
 3203SOL    HW210732   3.886   3.445   1.340
 3204SOL     OW10733   4.091   2.962   0.501
 3204SOL    HW110734   4.084   3.045   0.445
 3204SOL    HW210735   4.095   2.882   0.441
 3205SOL     OW10736   4.290   2.399   0.865
 3205SOL    HW110737   4.302   2.465   0.791
 3205SOL    HW210738   4.336   2.433   0.948
 3206SOL     OW10739   4.976   3.210   0.388
 3206SOL    HW110740   5.026   3.287   0.428
 3206SOL    HW210741   4.881   3.212   0.420
 3207SOL     OW10742   4.078   3.372   1.329
 3207SOL    HW110743   4.057   3.328   1.242
 3207SOL    HW210744   4.175   3.398   1.332
 3208SOL     OW10745   4.126   2.613   1.598
 3208SOL    HW110746   4.194   2.668   1.551
 3208SOL    HW210747   4.166   2.525   1.625
 3209SOL     OW10748   4.228   1.912   1.740
 3209SOL    HW110749   4.186   1.855   1.670
 3209SOL    HW210750   4.162   1.981   1.772
 3210SOL     OW10751   4.297   2.732   1.029
 3210SOL    HW110752   4.341   2.821   1.020
 3210SOL    HW210753   4.234   2.732   1.106
 3211SOL     OW10754   5.084   2.724   1.045
 3211SOL    HW110755   5.009   2.724   0.979
 3211SOL    HW210756   5.121   2.632   1.054
 3212SOL     OW10757   4.933   2.387   0.275
 3212SOL    HW110758   4.946   2.303   0.329
 3212SOL    HW210759   4.904   2.461   0.335
 3213SOL     OW10760   4.031   2.075   1.231
 3213SOL    HW110761   4.008   2.112   1.321
 3213SOL    HW210762   4.001   1.980   1.225
 3214SOL     OW10763   3.761   3.172   1.282
 3214SOL    HW110764   3.814   3.123   1.350
 3214SOL    HW210765   3.783   3.270   1.287
 3215SOL     OW10766   4.456   2.496   1.064
 3215SOL    HW110767   4.515   2.470   0.988
 3215SOL    HW210768   4.428   2.592   1.053
 3216SOL     OW10769   4.031   1.925   0.618
 3216SOL    HW110770   4.020   2.019   0.651
 3216SOL    HW210771   4.026   1.862   0.695
 3217SOL     OW10772   5.346   2.229   0.374
 3217SOL    HW110773   5.348   2.153   0.438
 3217SOL    HW210774   5.298   2.306   0.414
 3218SOL     OW10775   4.747   2.628   0.966
 3218SOL    HW110776   4.762   2.649   1.062
 3218SOL    HW210777   4.717   2.533   0.957
 3219SOL     OW10778   4.704   3.435   1.700
 3219SOL    HW110779   4.684   3.479   1.612
 3219SOL    HW210780   4.743   3.344   1.684
 3220SOL     OW10781   4.074   2.760   1.804
 3220SOL    HW110782   4.150   2.804   1.852
 3220SOL    HW210783   4.109   2.713   1.722
 3221SOL     OW10784   5.027   2.700   0.042
 3221SOL    HW110785   5.061   2.607   0.057
 3221SOL    HW210786   5.045   2.727  -0.053
 3222SOL     OW10787   4.792   3.195   0.849
 3222SOL    HW110788   4.799   3.111   0.794
 3222SOL    HW210789   4.854   3.264   0.813
 3223SOL     OW10790   4.043   2.672   0.949
 3223SOL    HW110791   4.136   2.708   0.954
 3223SOL    HW210792   4.037   2.587   1.001
 3224SOL     OW10793   4.063   2.371   1.006
 3224SOL    HW110794   4.011   2.288   0.989
 3224SOL    HW210795   4.140   2.376   0.942
 3225SOL     OW10796   4.862   2.242   1.678
 3225SOL    HW110797   4.817   2.305   1.742
 3225SOL    HW210798   4.955   2.273   1.661
 3226SOL     OW10799   3.812   3.663   0.927
 3226SOL    HW110800   3.770   3.577   0.900
 3226SOL    HW210801   3.906   3.666   0.893
 3227SOL     OW10802   4.228   3.430   0.910
 3227SOL    HW110803   4.294   3.504   0.919
 3227SOL    HW210804   4.272   3.351   0.868
 3228SOL     OW10805   4.726   2.658   1.238
 3228SOL    HW110806   4.767   2.626   1.324
 3228SOL    HW210807   4.630   2.631   1.235
 3229SOL     OW10808   3.764   2.406   1.114
 3229SOL    HW110809   3.849   2.373   1.073
 3229SOL    HW210810   3.777   2.421   1.212
 3230SOL     OW10811   3.913   2.382   1.722
 3230SOL    HW110812   3.972   2.342   1.652
 3230SOL    HW210813   3.855   2.453   1.681
 3231SOL     OW10814   4.539   2.434   0.325
 3231SOL    HW110815   4.546   2.345   0.279
 3231SOL    HW210816   4.445   2.468   0.317
 3232SOL     OW10817   3.976   3.426   1.744
 3232SOL    HW110818   3.946   3.483   1.820
 3232SOL    HW210819   3.969   3.329   1.770
 3233SOL     OW10820   4.395   2.326   1.269
 3233SOL    HW110821   4.361   2.237   1.239
 3233SOL    HW210822   4.421   2.380   1.189
 3234SOL     OW10823   4.654   3.540   1.465
 3234SOL    HW110824   4.630   3.522   1.370
 3234SOL    HW210825   4.684   3.634   1.475
 3235SOL     OW10826   4.197   2.362   0.191
 3235SOL    HW110827   4.258   2.442   0.195
 3235SOL    HW210828   4.102   2.393   0.198
 3236SOL     OW10829   3.883   2.999   1.466
 3236SOL    HW110830   3.905   2.938   1.542
 3236SOL    HW210831   3.893   2.950   1.380
 3237SOL     OW10832   5.071   2.921   1.234
 3237SOL    HW110833   5.095   2.858   1.160
 3237SOL    HW210834   4.981   2.961   1.216
 3238SOL     OW10835   4.976   3.593   1.128
 3238SOL    HW110836   5.060   3.598   1.074
 3238SOL    HW210837   4.953   3.497   1.146
 3239SOL     OW10838   3.807   3.120   1.022
 3239SOL    HW110839   3.802   3.119   1.122
 3239SOL    HW210840   3.724   3.079   0.984
 3240SOL     OW10841   4.412   3.524   1.716
 3240SOL    HW110842   4.356   3.605   1.725
 3240SOL    HW210843   4.464   3.528   1.630
 3241SOL     OW10844   4.627   1.948   0.133
 3241SOL    HW110845   4.678   1.949   0.047
 3241SOL    HW210846   4.683   1.906   0.204
 3242SOL     OW10847   5.112   3.435   0.477
 3242SOL    HW110848   5.179   3.447   0.403
 3242SOL    HW210849   5.072   3.524   0.500
 3243SOL     OW10850   3.854   3.656   1.851
 3243SOL    HW110851   3.813   3.582   1.904
 3243SOL    HW210852   3.918   3.707   1.909
 3244SOL     OW10853   5.004   2.789   0.672
 3244SOL    HW110854   5.064   2.708   0.674
 3244SOL    HW210855   5.044   2.858   0.612
 3245SOL     OW10856   4.554   3.135   1.422
 3245SOL    HW110857   4.549   3.168   1.517
 3245SOL    HW210858   4.468   3.154   1.376
 3246SOL     OW10859   4.396   3.478   0.154
 3246SOL    HW110860   4.405   3.488   0.055
 3246SOL    HW210861   4.356   3.389   0.175
 3247SOL     OW10862   3.987   2.188   0.720
 3247SOL    HW110863   3.908   2.239   0.686
 3247SOL    HW210864   3.978   2.173   0.818
 3248SOL     OW10865   4.918   3.474   0.031
 3248SOL    HW110866   4.924   3.381   0.068
 3248SOL    HW210867   4.859   3.474  -0.049
 3249SOL     OW10868   4.546   2.864   1.372
 3249SOL    HW110869   4.586   2.863   1.280
 3249SOL    HW210870   4.556   2.956   1.412
 3250SOL     OW10871   4.640   2.772   0.291
 3250SOL    HW110872   4.703   2.810   0.223
 3250SOL    HW210873   4.680   2.689   0.330
 3251SOL     OW10874   4.096   3.150   1.490
 3251SOL    HW110875   4.083   3.243   1.456
 3251SOL    HW210876   4.012   3.098   1.477
 3252SOL     OW10877   4.763   2.960   0.696
 3252SOL    HW110878   4.693   2.913   0.750
 3252SOL    HW210879   4.822   2.892   0.653
 3253SOL     OW10880   4.738   2.098   0.971
 3253SOL    HW110881   4.730   2.062   0.878
 3253SOL    HW210882   4.736   2.022   1.036
 3254SOL     OW10883   4.314   3.349   0.491
 3254SOL    HW110884   4.356   3.291   0.421
 3254SOL    HW210885   4.270   3.428   0.447
 3255SOL     OW10886   3.979   3.210   0.290
 3255SOL    HW110887   3.883   3.211   0.263
 3255SOL    HW210888   3.991   3.263   0.374
 3256SOL     OW10889   3.829   2.875   1.726
 3256SOL    HW110890   3.752   2.842   1.780
 3256SOL    HW210891   3.914   2.845   1.768
 3257SOL     OW10892   4.396   2.065   1.489
 3257SOL    HW110893   4.486   2.049   1.449
 3257SOL    HW210894   4.404   2.070   1.588
 3258SOL     OW10895   5.164   2.718   1.398
 3258SOL    HW110896   5.107   2.770   1.335
 3258SOL    HW210897   5.260   2.730   1.374
 3259SOL     OW10898   3.796   2.028   0.318
 3259SOL    HW110899   3.779   2.111   0.264
 3259SOL    HW210900   3.886   1.991   0.296
 3260SOL     OW10901   4.337   2.704   1.431
 3260SOL    HW110902   4.393   2.785   1.414
 3260SOL    HW210903   4.396   2.624   1.434
 3261SOL     OW10904   4.440   2.427   1.708
 3261SOL    HW110905   4.459   2.492   1.782
 3261SOL    HW210906   4.500   2.347   1.717
 3262SOL     OW10907   4.114   3.603   1.560
 3262SOL    HW110908   4.023   3.644   1.558
 3262SOL    HW210909   4.107   3.509   1.592
 3263SOL     OW10910   4.949   2.187   0.449
 3263SOL    HW110911   5.014   2.113   0.438
 3263SOL    HW210912   4.969   2.237   0.533
 3264SOL     OW10913   4.318   2.607   0.652
 3264SOL    HW110914   4.368   2.692   0.633
 3264SOL    HW210915   4.230   2.609   0.604
 3265SOL     OW10916   4.583   3.236   0.016
 3265SOL    HW110917   4.537   3.251   0.104
 3265SOL    HW210918   4.627   3.321  -0.014
 3266SOL     OW10919   4.385   3.652   0.953
 3266SOL    HW110920   4.339   3.740   0.940
 3266SOL    HW210921   4.484   3.664   0.946
 3267SOL     OW10922   4.583   2.818   0.861
 3267SOL    HW110923   4.637   2.749   0.909
 3267SOL    HW210924   4.551   2.887   0.927
 3268SOL     OW10925   4.807   2.846   0.087
 3268SOL    HW110926   4.784   2.899   0.005
 3268SOL    HW210927   4.888   2.790   0.068
 3269SOL     OW10928   3.945   3.176   1.844
 3269SOL    HW110929   3.880   3.103   1.823
 3269SOL    HW210930   3.949   3.190   1.942
 3270SOL     OW10931   3.803   3.102   0.653
 3270SOL    HW110932   3.802   3.055   0.741
 3270SOL    HW210933   3.885   3.074   0.602
 3271SOL     OW10934   4.396   3.253   1.624
 3271SOL    HW110935   4.318   3.203   1.662
 3271SOL    HW210936   4.393   3.348   1.655
 3272SOL     OW10937   4.152   2.286   0.520
 3272SOL    HW110938   4.182   2.214   0.458
 3272SOL    HW210939   4.113   2.246   0.603
 3273SOL     OW10940   4.041   2.409   1.280
 3273SOL    HW110941   4.079   2.350   1.352
 3273SOL    HW210942   4.081   2.383   1.192
 3274SOL     OW10943   4.536   3.448   0.687
 3274SOL    HW110944   4.568   3.458   0.593
 3274SOL    HW210945   4.457   3.386   0.689
 3275SOL     OW10946   4.725   1.896   1.154
 3275SOL    HW110947   4.662   1.824   1.123
 3275SOL    HW210948   4.818   1.860   1.154
 3276SOL     OW10949   4.494   3.192   0.301
 3276SOL    HW110950   4.448   3.105   0.318
 3276SOL    HW210951   4.585   3.189   0.342
 3277SOL     OW10952   4.342   3.429   1.284
 3277SOL    HW110953   4.337   3.511   1.341
 3277SOL    HW210954   4.431   3.426   1.239
 3278SOL     OW10955   3.763   2.939   0.300
 3278SOL    HW110956   3.862   2.928   0.291
 3278SOL    HW210957   3.723   2.853   0.332
 3279SOL     OW10958   4.599   3.508   0.337
 3279SOL    HW110959   4.522   3.473   0.283
 3279SOL    HW210960   4.567   3.579   0.399
 3280SOL     OW10961   3.954   2.490   1.975
 3280SOL    HW110962   3.861   2.488   2.012
 3280SOL    HW210963   3.955   2.451   1.883
 3281SOL     OW10964   3.949   2.137   2.858
 3281SOL    HW110965   3.984   2.120   2.950
 3281SOL    HW210966   3.861   2.092   2.846
 3282SOL     OW10967   3.743   2.230   2.509
 3282SOL    HW110968   3.661   2.273   2.548
 3282SOL    HW210969   3.715   2.157   2.446
 3283SOL     OW10970   4.293   3.137   3.027
 3283SOL    HW110971   4.200   3.130   2.990
 3283SOL    HW210972   4.304   3.226   3.071
 3284SOL     OW10973   4.859   2.565   2.579
 3284SOL    HW110974   4.916   2.643   2.554
 3284SOL    HW210975   4.799   2.591   2.655
 3285SOL     OW10976   4.492   3.006   2.885
 3285SOL    HW110977   4.414   3.023   2.945
 3285SOL    HW210978   4.526   3.093   2.849
 3286SOL     OW10979   4.162   2.254   3.361
 3286SOL    HW110980   4.244   2.198   3.370
 3286SOL    HW210981   4.081   2.196   3.365
 3287SOL     OW10982   3.955   3.575   2.345
 3287SOL    HW110983   3.989   3.652   2.399
 3287SOL    HW210984   3.999   3.575   2.255
 3288SOL     OW10985   3.954   3.296   2.400
 3288SOL    HW110986   3.928   3.392   2.400
 3288SOL    HW210987   3.883   3.242   2.445
 3289SOL     OW10988   3.964   2.953   2.748
 3289SOL    HW110989   3.978   2.869   2.800
 3289SOL    HW210990   3.909   3.017   2.803
 3290SOL     OW10991   4.344   3.648   3.301
 3290SOL    HW110992   4.252   3.631   3.336
 3290SOL    HW210993   4.372   3.740   3.327
 3291SOL     OW10994   4.330   2.826   1.985
 3291SOL    HW110995   4.337   2.910   1.931
 3291SOL    HW210996   4.376   2.839   2.073
 3292SOL     OW10997   3.751   3.458   1.979
 3292SOL    HW110998   3.732   3.362   2.000
 3292SOL    HW210999   3.718   3.516   2.054
 3293SOL     OW11000   3.837   2.599   3.459
 3293SOL    HW111001   3.925   2.586   3.504
 3293SOL    HW211002   3.824   2.696   3.437
 3294SOL     OW11003   4.337   3.227   2.588
 3294SOL    HW111004   4.288   3.140   2.597
 3294SOL    HW211005   4.314   3.270   2.501
 3295SOL     OW11006   5.017   3.090   3.285
 3295SOL    HW111007   5.054   3.017   3.227
 3295SOL    HW211008   5.069   3.095   3.370
 3296SOL     OW11009   4.533   1.866   2.364
 3296SOL    HW111010   4.573   1.957   2.355
 3296SOL    HW211011   4.433   1.874   2.370
 3297SOL     OW11012   3.921   2.838   3.126
 3297SOL    HW111013   4.010   2.793   3.112
 3297SOL    HW211014   3.848   2.773   3.107
 3298SOL     OW11015   4.911   3.654   3.478
 3298SOL    HW111016   4.935   3.714   3.402
 3298SOL    HW211017   4.918   3.559   3.448
 3299SOL     OW11018   4.041   2.113   3.663
 3299SOL    HW111019   4.112   2.184   3.669
 3299SOL    HW211020   3.953   2.152   3.691
 3300SOL     OW11021   4.322   2.591   2.132
 3300SOL    HW111022   4.346   2.660   2.064
 3300SOL    HW211023   4.244   2.624   2.186
 3301SOL     OW11024   5.005   2.207   2.806
 3301SOL    HW111025   4.919   2.157   2.793
 3301SOL    HW211026   5.067   2.153   2.862
 3302SOL     OW11027   4.531   2.467   3.327
 3302SOL    HW111028   4.484   2.464   3.416
 3302SOL    HW211029   4.480   2.412   3.261
 3303SOL     OW11030   4.697   2.752   3.434
 3303SOL    HW111031   4.743   2.668   3.405
 3303SOL    HW211032   4.641   2.786   3.359
 3304SOL     OW11033   4.715   2.272   3.104
 3304SOL    HW111034   4.638   2.306   3.158
 3304SOL    HW211035   4.681   2.221   3.025
 3305SOL     OW11036   4.765   2.563   2.291
 3305SOL    HW111037   4.791   2.559   2.387
 3305SOL    HW211038   4.680   2.512   2.277
 3306SOL     OW11039   3.800   2.673   2.651
 3306SOL    HW111040   3.899   2.661   2.660
 3306SOL    HW211041   3.776   2.768   2.672
 3307SOL     OW11042   3.854   3.683   3.433
 3307SOL    HW111043   3.844   3.668   3.532
 3307SOL    HW211044   3.768   3.719   3.397
 3308SOL     OW11045   4.589   2.210   2.057
 3308SOL    HW111046   4.648   2.273   2.008
 3308SOL    HW211047   4.608   2.116   2.028
 3309SOL     OW11048   4.732   3.318   2.339
 3309SOL    HW111049   4.686   3.390   2.287
 3309SOL    HW211050   4.728   3.338   2.437
 3310SOL     OW11051   4.075   3.663   2.715
 3310SOL    HW111052   4.125   3.577   2.721
 3310SOL    HW211053   4.140   3.740   2.712
 3311SOL     OW11054   4.951   3.412   3.368
 3311SOL    HW111055   4.957   3.335   3.432
 3311SOL    HW211056   4.899   3.386   3.288
 3312SOL     OW11057   4.045   2.805   2.104
 3312SOL    HW111058   4.127   2.844   2.062
 3312SOL    HW211059   4.018   2.723   2.055
 3313SOL     OW11060   4.185   3.128   3.589
 3313SOL    HW111061   4.135   3.129   3.503
 3313SOL    HW211062   4.122   3.110   3.665
 3314SOL     OW11063   4.835   3.638   2.099
 3314SOL    HW111064   4.775   3.576   2.149
 3314SOL    HW211065   4.866   3.594   2.014
 3315SOL     OW11066   3.973   3.647   3.103
 3315SOL    HW111067   4.030   3.582   3.153
 3315SOL    HW211068   3.957   3.614   3.010
 3316SOL     OW11069   4.338   1.984   1.979
 3316SOL    HW111070   4.436   1.962   1.986
 3316SOL    HW211071   4.307   1.967   1.886
 3317SOL     OW11072   4.505   2.126   3.611
 3317SOL    HW111073   4.572   2.065   3.654
 3317SOL    HW211074   4.432   2.145   3.676
 3318SOL     OW11075   4.612   3.376   3.057
 3318SOL    HW111076   4.589   3.351   2.963
 3318SOL    HW211077   4.673   3.307   3.096
 3319SOL     OW11078   4.646   2.365   2.761
 3319SOL    HW111079   4.621   2.356   2.665
 3319SOL    HW211080   4.694   2.283   2.792
 3320SOL     OW11081   4.263   1.926   2.374
 3320SOL    HW111082   4.182   1.927   2.432
 3320SOL    HW211083   4.266   2.009   2.319
 3321SOL     OW11084   4.021   1.897   2.033
 3321SOL    HW111085   4.070   1.981   2.012
 3321SOL    HW211086   4.083   1.832   2.078
 3322SOL     OW11087   4.659   2.098   2.342
 3322SOL    HW111088   4.611   2.139   2.264
 3322SOL    HW211089   4.758   2.096   2.323
 3323SOL     OW11090   4.800   2.545   3.326
 3323SOL    HW111091   4.720   2.484   3.329
 3323SOL    HW211092   4.881   2.492   3.302
 3324SOL     OW11093   4.951   3.432   2.655
 3324SOL    HW111094   4.972   3.506   2.590
 3324SOL    HW211095   5.019   3.432   2.728
 3325SOL     OW11096   4.183   3.014   2.603
 3325SOL    HW111097   4.112   2.987   2.668
 3325SOL    HW211098   4.157   2.986   2.510
 3326SOL     OW11099   4.756   2.411   1.878
 3326SOL    HW111100   4.715   2.493   1.839
 3326SOL    HW211101   4.820   2.437   1.951
 3327SOL     OW11102   3.802   2.418   3.248
 3327SOL    HW111103   3.894   2.417   3.207
 3327SOL    HW211104   3.796   2.492   3.315
 3328SOL     OW11105   4.285   2.084   3.009
 3328SOL    HW111106   4.323   2.000   3.046
 3328SOL    HW211107   4.197   2.103   3.053
 3329SOL     OW11108   4.590   2.316   2.504
 3329SOL    HW111109   4.558   2.388   2.442
 3329SOL    HW211110   4.614   2.235   2.451
 3330SOL     OW11111   4.212   3.247   2.036
 3330SOL    HW111112   4.125   3.232   2.083
 3330SOL    HW211113   4.195   3.273   1.941
 3331SOL     OW11114   5.388   3.142   2.519
 3331SOL    HW111115   5.487   3.150   2.533
 3331SOL    HW211116   5.343   3.226   2.550
 3332SOL     OW11117   4.788   3.209   3.202
 3332SOL    HW111118   4.708   3.186   3.257
 3332SOL    HW211119   4.871   3.183   3.251
 3333SOL     OW11120   4.835   3.057   2.962
 3333SOL    HW111121   4.795   3.101   3.043
 3333SOL    HW211122   4.794   3.094   2.879
 3334SOL     OW11123   4.639   1.951   3.264
 3334SOL    HW111124   4.664   1.931   3.169
 3334SOL    HW211125   4.711   2.007   3.306
 3335SOL     OW11126   4.429   2.912   2.230
 3335SOL    HW111127   4.415   2.919   2.329
 3335SOL    HW211128   4.513   2.861   2.212
 3336SOL     OW11129   4.998   2.248   3.124
 3336SOL    HW111130   5.019   2.322   3.188
 3336SOL    HW211131   4.909   2.265   3.081
 3337SOL     OW11132   3.788   3.426   3.193
 3337SOL    HW111133   3.742   3.508   3.159
 3337SOL    HW211134   3.886   3.445   3.202
 3338SOL     OW11135   4.091   2.962   2.363
 3338SOL    HW111136   4.084   3.045   2.307
 3338SOL    HW211137   4.095   2.882   2.303
 3339SOL     OW11138   4.976   3.210   2.250
 3339SOL    HW111139   5.026   3.287   2.290
 3339SOL    HW211140   4.881   3.212   2.282
 3340SOL     OW11141   4.078   3.372   3.191
 3340SOL    HW111142   4.057   3.328   3.104
 3340SOL    HW211143   4.175   3.398   3.194
 3341SOL     OW11144   4.126   2.613   3.460
 3341SOL    HW111145   4.194   2.668   3.413
 3341SOL    HW211146   4.166   2.525   3.487
 3342SOL     OW11147   4.737   1.967   3.632
 3342SOL    HW111148   4.743   2.052   3.580
 3342SOL    HW211149   4.769   1.891   3.575
 3343SOL     OW11150   4.228   1.912   3.602
 3343SOL    HW111151   4.186   1.855   3.532
 3343SOL    HW211152   4.162   1.981   3.634
 3344SOL     OW11153   5.084   2.724   2.907
 3344SOL    HW111154   5.009   2.724   2.841
 3344SOL    HW211155   5.121   2.632   2.916
 3345SOL     OW11156   4.933   2.387   2.137
 3345SOL    HW111157   4.946   2.303   2.191
 3345SOL    HW211158   4.904   2.461   2.197
 3346SOL     OW11159   4.031   2.075   3.093
 3346SOL    HW111160   4.008   2.112   3.183
 3346SOL    HW211161   4.001   1.980   3.087
 3347SOL     OW11162   3.761   3.172   3.144
 3347SOL    HW111163   3.814   3.123   3.212
 3347SOL    HW211164   3.783   3.270   3.149
 3348SOL     OW11165   4.456   2.496   2.926
 3348SOL    HW111166   4.515   2.470   2.850
 3348SOL    HW211167   4.428   2.592   2.915
 3349SOL     OW11168   4.031   1.925   2.480
 3349SOL    HW111169   4.020   2.019   2.513
 3349SOL    HW211170   4.026   1.862   2.557
 3350SOL     OW11171   5.346   2.229   2.236
 3350SOL    HW111172   5.348   2.153   2.300
 3350SOL    HW211173   5.298   2.306   2.276
 3351SOL     OW11174   4.747   2.628   2.828
 3351SOL    HW111175   4.762   2.649   2.924
 3351SOL    HW211176   4.717   2.533   2.819
 3352SOL     OW11177   4.704   3.435   3.562
 3352SOL    HW111178   4.684   3.479   3.474
 3352SOL    HW211179   4.743   3.344   3.546
 3353SOL     OW11180   4.074   2.760   3.666
 3353SOL    HW111181   4.150   2.804   3.714
 3353SOL    HW211182   4.109   2.713   3.584
 3354SOL     OW11183   5.027   2.700   1.904
 3354SOL    HW111184   5.061   2.607   1.919
 3354SOL    HW211185   5.045   2.727   1.809
 3355SOL     OW11186   4.792   3.195   2.711
 3355SOL    HW111187   4.799   3.111   2.656
 3355SOL    HW211188   4.854   3.264   2.675
 3356SOL     OW11189   4.063   2.371   2.868
 3356SOL    HW111190   4.011   2.288   2.851
 3356SOL    HW211191   4.140   2.376   2.804
 3357SOL     OW11192   4.862   2.242   3.540
 3357SOL    HW111193   4.817   2.305   3.604
 3357SOL    HW211194   4.955   2.273   3.523
 3358SOL     OW11195   4.884   2.069   3.339
 3358SOL    HW111196   4.884   2.133   3.416
 3358SOL    HW211197   4.912   2.117   3.256
 3359SOL     OW11198   3.732   3.188   2.062
 3359SOL    HW111199   3.639   3.209   2.031
 3359SOL    HW211200   3.742   3.089   2.075
 3360SOL     OW11201   3.812   3.663   2.789
 3360SOL    HW111202   3.770   3.577   2.762
 3360SOL    HW211203   3.906   3.666   2.755
 3361SOL     OW11204   4.726   2.658   3.100
 3361SOL    HW111205   4.767   2.626   3.186
 3361SOL    HW211206   4.630   2.631   3.097
 3362SOL     OW11207   3.764   2.406   2.976
 3362SOL    HW111208   3.849   2.373   2.935
 3362SOL    HW211209   3.777   2.421   3.074
 3363SOL     OW11210   4.539   2.434   2.187
 3363SOL    HW111211   4.546   2.345   2.141
 3363SOL    HW211212   4.445   2.468   2.179
 3364SOL     OW11213   3.976   3.426   3.606
 3364SOL    HW111214   3.946   3.483   3.682
 3364SOL    HW211215   3.969   3.329   3.632
 3365SOL     OW11216   4.654   3.540   3.327
 3365SOL    HW111217   4.630   3.522   3.232
 3365SOL    HW211218   4.684   3.634   3.337
 3366SOL     OW11219   3.883   2.999   3.328
 3366SOL    HW111220   3.905   2.938   3.404
 3366SOL    HW211221   3.893   2.950   3.242
 3367SOL     OW11222   5.071   2.921   3.096
 3367SOL    HW111223   5.095   2.858   3.022
 3367SOL    HW211224   4.981   2.961   3.078
 3368SOL     OW11225   4.976   3.593   2.990
 3368SOL    HW111226   5.060   3.598   2.936
 3368SOL    HW211227   4.953   3.497   3.008
 3369SOL     OW11228   3.807   3.120   2.884
 3369SOL    HW111229   3.802   3.119   2.984
 3369SOL    HW211230   3.724   3.079   2.846
 3370SOL     OW11231   4.412   3.524   3.578
 3370SOL    HW111232   4.356   3.605   3.587
 3370SOL    HW211233   4.464   3.528   3.492
 3371SOL     OW11234   5.112   3.435   2.339
 3371SOL    HW111235   5.179   3.447   2.265
 3371SOL    HW211236   5.072   3.524   2.362
 3372SOL     OW11237   5.004   2.789   2.534
 3372SOL    HW111238   5.064   2.708   2.536
 3372SOL    HW211239   5.044   2.858   2.474
 3373SOL     OW11240   4.396   3.478   2.016
 3373SOL    HW111241   4.405   3.488   1.917
 3373SOL    HW211242   4.356   3.389   2.037
 3374SOL     OW11243   3.987   2.188   2.582
 3374SOL    HW111244   3.908   2.239   2.548
 3374SOL    HW211245   3.978   2.173   2.680
 3375SOL     OW11246   4.918   3.474   1.893
 3375SOL    HW111247   4.924   3.381   1.930
 3375SOL    HW211248   4.859   3.474   1.813
 3376SOL     OW11249   4.640   2.772   2.153
 3376SOL    HW111250   4.703   2.810   2.085
 3376SOL    HW211251   4.680   2.689   2.192
 3377SOL     OW11252   4.096   3.150   3.352
 3377SOL    HW111253   4.083   3.243   3.318
 3377SOL    HW211254   4.012   3.098   3.339
 3378SOL     OW11255   4.763   2.960   2.558
 3378SOL    HW111256   4.693   2.913   2.612
 3378SOL    HW211257   4.822   2.892   2.515
 3379SOL     OW11258   4.738   2.098   2.833
 3379SOL    HW111259   4.730   2.062   2.740
 3379SOL    HW211260   4.736   2.022   2.898
 3380SOL     OW11261   3.979   3.210   2.152
 3380SOL    HW111262   3.883   3.211   2.125
 3380SOL    HW211263   3.991   3.263   2.236
 3381SOL     OW11264   3.829   2.875   3.588
 3381SOL    HW111265   3.752   2.842   3.642
 3381SOL    HW211266   3.914   2.845   3.630
 3382SOL     OW11267   4.396   2.065   3.351
 3382SOL    HW111268   4.486   2.049   3.311
 3382SOL    HW211269   4.404   2.070   3.450
 3383SOL     OW11270   3.799   2.207   1.895
 3383SOL    HW111271   3.707   2.179   1.866
 3383SOL    HW211272   3.830   2.284   1.839
 3384SOL     OW11273   5.164   2.718   3.260
 3384SOL    HW111274   5.107   2.770   3.197
 3384SOL    HW211275   5.260   2.730   3.236
 3385SOL     OW11276   3.796   2.028   2.180
 3385SOL    HW111277   3.779   2.111   2.126
 3385SOL    HW211278   3.886   1.991   2.158
 3386SOL     OW11279   4.337   2.704   3.293
 3386SOL    HW111280   4.393   2.785   3.276
 3386SOL    HW211281   4.396   2.624   3.296
 3387SOL     OW11282   4.440   2.427   3.570
 3387SOL    HW111283   4.459   2.492   3.644
 3387SOL    HW211284   4.500   2.347   3.579
 3388SOL     OW11285   4.114   3.603   3.422
 3388SOL    HW111286   4.023   3.644   3.420
 3388SOL    HW211287   4.107   3.509   3.454
 3389SOL     OW11288   4.949   2.187   2.311
 3389SOL    HW111289   5.014   2.113   2.300
 3389SOL    HW211290   4.969   2.237   2.395
 3390SOL     OW11291   4.583   3.236   1.878
 3390SOL    HW111292   4.537   3.251   1.966
 3390SOL    HW211293   4.627   3.321   1.848
 3391SOL     OW11294   4.583   2.818   2.723
 3391SOL    HW111295   4.637   2.749   2.771
 3391SOL    HW211296   4.551   2.887   2.789
 3392SOL     OW11297   4.807   2.846   1.949
 3392SOL    HW111298   4.784   2.899   1.867
 3392SOL    HW211299   4.888   2.790   1.930
 3393SOL     OW11300   3.945   3.176   3.706
 3393SOL    HW111301   3.880   3.103   3.685
 3393SOL    HW211302   3.949   3.190   3.804
 3394SOL     OW11303   3.803   3.102   2.515
 3394SOL    HW111304   3.802   3.055   2.603
 3394SOL    HW211305   3.885   3.074   2.464
 3395SOL     OW11306   4.041   2.409   3.142
 3395SOL    HW111307   4.079   2.350   3.214
 3395SOL    HW211308   4.081   2.383   3.054
 3396SOL     OW11309   4.725   1.896   3.016
 3396SOL    HW111310   4.662   1.824   2.985
 3396SOL    HW211311   4.818   1.860   3.016
 3397SOL     OW11312   4.494   3.192   2.163
 3397SOL    HW111313   4.448   3.105   2.180
 3397SOL    HW211314   4.585   3.189   2.204
 3398SOL     OW11315   4.342   3.429   3.146
 3398SOL    HW111316   4.337   3.511   3.203
 3398SOL    HW211317   4.431   3.426   3.101
 3399SOL     OW11318   3.763   2.939   2.162
 3399SOL    HW111319   3.862   2.928   2.153
 3399SOL    HW211320   3.723   2.853   2.194
 3400SOL     OW11321   4.599   3.508   2.199
 3400SOL    HW111322   4.522   3.473   2.145
 3400SOL    HW211323   4.567   3.579   2.261
 3401SOL     OW11324   3.949   2.137   4.720
 3401SOL    HW111325   3.984   2.120   4.812
 3401SOL    HW211326   3.861   2.092   4.708
 3402SOL     OW11327   3.743   2.230   4.371
 3402SOL    HW111328   3.661   2.273   4.410
 3402SOL    HW211329   3.715   2.157   4.308
 3403SOL     OW11330   4.293   3.137   4.889
 3403SOL    HW111331   4.200   3.130   4.852
 3403SOL    HW211332   4.304   3.226   4.933
 3404SOL     OW11333   4.859   2.565   4.441
 3404SOL    HW111334   4.916   2.643   4.416
 3404SOL    HW211335   4.799   2.591   4.517
 3405SOL     OW11336   4.492   3.006   4.747
 3405SOL    HW111337   4.414   3.023   4.807
 3405SOL    HW211338   4.526   3.093   4.711
 3406SOL     OW11339   4.409   2.874   4.389
 3406SOL    HW111340   4.478   2.858   4.459
 3406SOL    HW211341   4.336   2.931   4.427
 3407SOL     OW11342   4.059   3.297   4.785
 3407SOL    HW111343   3.981   3.266   4.732
 3407SOL    HW211344   4.117   3.355   4.728
 3408SOL     OW11345   3.954   3.296   4.262
 3408SOL    HW111346   3.928   3.392   4.262
 3408SOL    HW211347   3.883   3.242   4.307
 3409SOL     OW11348   3.964   2.953   4.610
 3409SOL    HW111349   3.978   2.869   4.662
 3409SOL    HW211350   3.909   3.017   4.665
 3410SOL     OW11351   4.344   3.648   5.163
 3410SOL    HW111352   4.252   3.631   5.198
 3410SOL    HW211353   4.372   3.740   5.189
 3411SOL     OW11354   3.846   2.505   4.287
 3411SOL    HW111355   3.801   2.417   4.304
 3411SOL    HW211356   3.845   2.559   4.371
 3412SOL     OW11357   3.751   3.458   3.841
 3412SOL    HW111358   3.732   3.362   3.862
 3412SOL    HW211359   3.718   3.516   3.916
 3413SOL     OW11360   4.337   3.227   4.450
 3413SOL    HW111361   4.288   3.140   4.459
 3413SOL    HW211362   4.314   3.270   4.363
 3414SOL     OW11363   4.533   1.866   4.226
 3414SOL    HW111364   4.573   1.957   4.217
 3414SOL    HW211365   4.433   1.874   4.232
 3415SOL     OW11366   3.921   2.838   4.988
 3415SOL    HW111367   4.010   2.793   4.974
 3415SOL    HW211368   3.848   2.773   4.969
 3416SOL     OW11369   5.005   2.207   4.668
 3416SOL    HW111370   4.919   2.157   4.655
 3416SOL    HW211371   5.067   2.153   4.724
 3417SOL     OW11372   4.715   2.272   4.966
 3417SOL    HW111373   4.638   2.306   5.020
 3417SOL    HW211374   4.681   2.221   4.887
 3418SOL     OW11375   4.765   2.563   4.153
 3418SOL    HW111376   4.791   2.559   4.249
 3418SOL    HW211377   4.680   2.512   4.139
 3419SOL     OW11378   3.800   2.673   4.513
 3419SOL    HW111379   3.899   2.661   4.522
 3419SOL    HW211380   3.776   2.768   4.534
 3420SOL     OW11381   4.589   2.210   3.919
 3420SOL    HW111382   4.648   2.273   3.870
 3420SOL    HW211383   4.608   2.116   3.890
 3421SOL     OW11384   4.274   2.058   4.609
 3421SOL    HW111385   4.269   2.053   4.709
 3421SOL    HW211386   4.276   2.154   4.580
 3422SOL     OW11387   4.732   3.318   4.201
 3422SOL    HW111388   4.686   3.390   4.149
 3422SOL    HW211389   4.728   3.338   4.299
 3423SOL     OW11390   4.075   3.663   4.577
 3423SOL    HW111391   4.125   3.577   4.583
 3423SOL    HW211392   4.140   3.740   4.574
 3424SOL     OW11393   4.835   3.638   3.961
 3424SOL    HW111394   4.775   3.576   4.011
 3424SOL    HW211395   4.866   3.594   3.876
 3425SOL     OW11396   4.188   3.605   4.047
 3425SOL    HW111397   4.221   3.644   4.133
 3425SOL    HW211398   4.264   3.598   3.982
 3426SOL     OW11399   3.973   3.647   4.965
 3426SOL    HW111400   4.030   3.582   5.015
 3426SOL    HW211401   3.957   3.614   4.872
 3427SOL     OW11402   4.664   3.560   4.628
 3427SOL    HW111403   4.744   3.503   4.649
 3427SOL    HW211404   4.615   3.520   4.551
 3428SOL     OW11405   4.106   2.562   4.204
 3428SOL    HW111406   4.151   2.472   4.201
 3428SOL    HW211407   4.012   2.551   4.237
 3429SOL     OW11408   4.338   1.984   3.841
 3429SOL    HW111409   4.436   1.962   3.848
 3429SOL    HW211410   4.307   1.967   3.748
 3430SOL     OW11411   4.527   3.264   4.648
 3430SOL    HW111412   4.617   3.278   4.606
 3430SOL    HW211413   4.456   3.266   4.577
 3431SOL     OW11414   4.646   2.365   4.623
 3431SOL    HW111415   4.621   2.356   4.527
 3431SOL    HW211416   4.694   2.283   4.654
 3432SOL     OW11417   4.021   1.897   3.895
 3432SOL    HW111418   4.070   1.981   3.874
 3432SOL    HW211419   4.083   1.832   3.940
 3433SOL     OW11420   4.659   2.098   4.204
 3433SOL    HW111421   4.611   2.139   4.126
 3433SOL    HW211422   4.758   2.096   4.185
 3434SOL     OW11423   4.951   3.432   4.517
 3434SOL    HW111424   4.972   3.506   4.452
 3434SOL    HW211425   5.019   3.432   4.590
 3435SOL     OW11426   4.183   3.014   4.465
 3435SOL    HW111427   4.112   2.987   4.530
 3435SOL    HW211428   4.157   2.986   4.372
 3436SOL     OW11429   4.995   3.659   4.315
 3436SOL    HW111430   5.039   3.723   4.251
 3436SOL    HW211431   4.945   3.711   4.385
 3437SOL     OW11432   4.756   2.411   3.740
 3437SOL    HW111433   4.715   2.493   3.701
 3437SOL    HW211434   4.820   2.437   3.813
 3438SOL     OW11435   4.285   2.084   4.871
 3438SOL    HW111436   4.323   2.000   4.908
 3438SOL    HW211437   4.197   2.103   4.915
 3439SOL     OW11438   4.590   2.316   4.366
 3439SOL    HW111439   4.558   2.388   4.304
 3439SOL    HW211440   4.614   2.235   4.313
 3440SOL     OW11441   4.741   1.901   4.477
 3440SOL    HW111442   4.669   1.906   4.408
 3440SOL    HW211443   4.717   1.832   4.546
 3441SOL     OW11444   4.212   3.247   3.898
 3441SOL    HW111445   4.125   3.232   3.945
 3441SOL    HW211446   4.195   3.273   3.803
 3442SOL     OW11447   5.388   3.142   4.381
 3442SOL    HW111448   5.487   3.150   4.395
 3442SOL    HW211449   5.343   3.226   4.412
 3443SOL     OW11450   4.251   2.118   4.052
 3443SOL    HW111451   4.278   2.059   3.977
 3443SOL    HW211452   4.251   2.213   4.021
 3444SOL     OW11453   5.316   3.491   5.349
 3444SOL    HW111454   5.343   3.525   5.259
 3444SOL    HW211455   5.395   3.453   5.395
 3445SOL     OW11456   4.835   3.057   4.824
 3445SOL    HW111457   4.795   3.101   4.905
 3445SOL    HW211458   4.794   3.094   4.741
 3446SOL     OW11459   4.429   2.912   4.092
 3446SOL    HW111460   4.415   2.919   4.191
 3446SOL    HW211461   4.513   2.861   4.074
 3447SOL     OW11462   4.134   2.675   4.975
 3447SOL    HW111463   4.220   2.687   5.025
 3447SOL    HW211464   4.092   2.588   5.002
 3448SOL     OW11465   4.091   2.962   4.225
 3448SOL    HW111466   4.084   3.045   4.169
 3448SOL    HW211467   4.095   2.882   4.165
 3449SOL     OW11468   4.290   2.399   4.589
 3449SOL    HW111469   4.302   2.465   4.515
 3449SOL    HW211470   4.336   2.433   4.672
 3450SOL     OW11471   4.976   3.210   4.112
 3450SOL    HW111472   5.026   3.287   4.152
 3450SOL    HW211473   4.881   3.212   4.144
 3451SOL     OW11474   4.078   3.372   5.053
 3451SOL    HW111475   4.057   3.328   4.966
 3451SOL    HW211476   4.175   3.398   5.056
 3452SOL     OW11477   4.297   2.732   4.753
 3452SOL    HW111478   4.341   2.821   4.744
 3452SOL    HW211479   4.234   2.732   4.830
 3453SOL     OW11480   5.084   2.724   4.769
 3453SOL    HW111481   5.009   2.724   4.703
 3453SOL    HW211482   5.121   2.632   4.778
 3454SOL     OW11483   4.933   2.387   3.999
 3454SOL    HW111484   4.946   2.303   4.053
 3454SOL    HW211485   4.904   2.461   4.059
 3455SOL     OW11486   4.031   2.075   4.955
 3455SOL    HW111487   4.008   2.112   5.045
 3455SOL    HW211488   4.001   1.980   4.949
 3456SOL     OW11489   3.761   3.172   5.006
 3456SOL    HW111490   3.814   3.123   5.074
 3456SOL    HW211491   3.783   3.270   5.011
 3457SOL     OW11492   4.456   2.496   4.788
 3457SOL    HW111493   4.515   2.470   4.712
 3457SOL    HW211494   4.428   2.592   4.777
 3458SOL     OW11495   5.346   2.229   4.098
 3458SOL    HW111496   5.348   2.153   4.162
 3458SOL    HW211497   5.298   2.306   4.138
 3459SOL     OW11498   4.747   2.628   4.690
 3459SOL    HW111499   4.762   2.649   4.786
 3459SOL    HW211500   4.717   2.533   4.681
 3460SOL     OW11501   5.027   2.700   3.766
 3460SOL    HW111502   5.061   2.607   3.781
 3460SOL    HW211503   5.045   2.727   3.671
 3461SOL     OW11504   4.792   3.195   4.573
 3461SOL    HW111505   4.799   3.111   4.518
 3461SOL    HW211506   4.854   3.264   4.537
 3462SOL     OW11507   4.043   2.672   4.673
 3462SOL    HW111508   4.136   2.708   4.678
 3462SOL    HW211509   4.037   2.587   4.725
 3463SOL     OW11510   4.063   2.371   4.730
 3463SOL    HW111511   4.011   2.288   4.713
 3463SOL    HW211512   4.140   2.376   4.666
 3464SOL     OW11513   4.884   2.069   5.201
 3464SOL    HW111514   4.884   2.133   5.278
 3464SOL    HW211515   4.912   2.117   5.118
 3465SOL     OW11516   3.732   3.188   3.924
 3465SOL    HW111517   3.639   3.209   3.893
 3465SOL    HW211518   3.742   3.089   3.937
 3466SOL     OW11519   3.812   3.663   4.651
 3466SOL    HW111520   3.770   3.577   4.624
 3466SOL    HW211521   3.906   3.666   4.617
 3467SOL     OW11522   4.228   3.430   4.634
 3467SOL    HW111523   4.294   3.504   4.643
 3467SOL    HW211524   4.272   3.351   4.592
 3468SOL     OW11525   4.726   2.658   4.962
 3468SOL    HW111526   4.767   2.626   5.048
 3468SOL    HW211527   4.630   2.631   4.959
 3469SOL     OW11528   3.764   2.406   4.838
 3469SOL    HW111529   3.849   2.373   4.797
 3469SOL    HW211530   3.777   2.421   4.936
 3470SOL     OW11531   4.539   2.434   4.049
 3470SOL    HW111532   4.546   2.345   4.003
 3470SOL    HW211533   4.445   2.468   4.041
 3471SOL     OW11534   4.395   2.326   4.993
 3471SOL    HW111535   4.361   2.237   4.963
 3471SOL    HW211536   4.421   2.380   4.913
 3472SOL     OW11537   4.654   3.540   5.189
 3472SOL    HW111538   4.630   3.522   5.094
 3472SOL    HW211539   4.684   3.634   5.199
 3473SOL     OW11540   4.197   2.362   3.915
 3473SOL    HW111541   4.258   2.442   3.919
 3473SOL    HW211542   4.102   2.393   3.922
 3474SOL     OW11543   5.071   2.921   4.958
 3474SOL    HW111544   5.095   2.858   4.884
 3474SOL    HW211545   4.981   2.961   4.940
 3475SOL     OW11546   4.976   3.593   4.852
 3475SOL    HW111547   5.060   3.598   4.798
 3475SOL    HW211548   4.953   3.497   4.870
 3476SOL     OW11549   3.807   3.120   4.746
 3476SOL    HW111550   3.802   3.119   4.846
 3476SOL    HW211551   3.724   3.079   4.708
 3477SOL     OW11552   5.112   3.435   4.201
 3477SOL    HW111553   5.179   3.447   4.127
 3477SOL    HW211554   5.072   3.524   4.224
 3478SOL     OW11555   5.004   2.789   4.396
 3478SOL    HW111556   5.064   2.708   4.398
 3478SOL    HW211557   5.044   2.858   4.336
 3479SOL     OW11558   4.396   3.478   3.878
 3479SOL    HW111559   4.405   3.488   3.779
 3479SOL    HW211560   4.356   3.389   3.899
 3480SOL     OW11561   3.987   2.188   4.444
 3480SOL    HW111562   3.908   2.239   4.410
 3480SOL    HW211563   3.978   2.173   4.542
 3481SOL     OW11564   4.918   3.474   3.755
 3481SOL    HW111565   4.924   3.381   3.792
 3481SOL    HW211566   4.859   3.474   3.675
 3482SOL     OW11567   4.546   2.864   5.096
 3482SOL    HW111568   4.586   2.863   5.004
 3482SOL    HW211569   4.556   2.956   5.136
 3483SOL     OW11570   4.763   2.960   4.420
 3483SOL    HW111571   4.693   2.913   4.474
 3483SOL    HW211572   4.822   2.892   4.377
 3484SOL     OW11573   4.738   2.098   4.695
 3484SOL    HW111574   4.730   2.062   4.602
 3484SOL    HW211575   4.736   2.022   4.760
 3485SOL     OW11576   4.314   3.349   4.215
 3485SOL    HW111577   4.356   3.291   4.145
 3485SOL    HW211578   4.270   3.428   4.171
 3486SOL     OW11579   3.979   3.210   4.014
 3486SOL    HW111580   3.883   3.211   3.987
 3486SOL    HW211581   3.991   3.263   4.098
 3487SOL     OW11582   3.796   2.028   4.042
 3487SOL    HW111583   3.779   2.111   3.988
 3487SOL    HW211584   3.886   1.991   4.020
 3488SOL     OW11585   4.949   2.187   4.173
 3488SOL    HW111586   5.014   2.113   4.162
 3488SOL    HW211587   4.969   2.237   4.257
 3489SOL     OW11588   4.318   2.607   4.376
 3489SOL    HW111589   4.368   2.692   4.357
 3489SOL    HW211590   4.230   2.609   4.328
 3490SOL     OW11591   4.583   3.236   3.740
 3490SOL    HW111592   4.537   3.251   3.828
 3490SOL    HW211593   4.627   3.321   3.710
 3491SOL     OW11594   4.385   3.652   4.677
 3491SOL    HW111595   4.339   3.740   4.664
 3491SOL    HW211596   4.484   3.664   4.670
 3492SOL     OW11597   4.583   2.818   4.585
 3492SOL    HW111598   4.637   2.749   4.633
 3492SOL    HW211599   4.551   2.887   4.651
 3493SOL     OW11600   3.803   3.102   4.377
 3493SOL    HW111601   3.802   3.055   4.465
 3493SOL    HW211602   3.885   3.074   4.326
 3494SOL     OW11603   4.152   2.286   4.244
 3494SOL    HW111604   4.182   2.214   4.182
 3494SOL    HW211605   4.113   2.246   4.327
 3495SOL     OW11606   4.536   3.448   4.411
 3495SOL    HW111607   4.568   3.458   4.317
 3495SOL    HW211608   4.457   3.386   4.413
 3496SOL     OW11609   4.725   1.896   4.878
 3496SOL    HW111610   4.662   1.824   4.847
 3496SOL    HW211611   4.818   1.860   4.878
 3497SOL     OW11612   4.494   3.192   4.025
 3497SOL    HW111613   4.448   3.105   4.042
 3497SOL    HW211614   4.585   3.189   4.066
 3498SOL     OW11615   5.076   1.914   3.892
 3498SOL    HW111616   5.111   1.873   3.808
 3498SOL    HW211617   4.986   1.876   3.912
 3499SOL     OW11618   3.763   2.939   4.024
 3499SOL    HW111619   3.862   2.928   4.015
 3499SOL    HW211620   3.723   2.853   4.056
 3500SOL     OW11621   4.599   3.508   4.061
 3500SOL    HW111622   4.522   3.473   4.007
 3500SOL    HW211623   4.567   3.579   4.123
 3501SOL     OW11624   3.954   4.352   0.113
 3501SOL    HW111625   3.861   4.350   0.150
 3501SOL    HW211626   3.955   4.313   0.021
 3502SOL     OW11627   3.743   4.092   0.647
 3502SOL    HW111628   3.661   4.135   0.686
 3502SOL    HW211629   3.715   4.019   0.584
 3503SOL     OW11630   4.293   4.999   1.165
 3503SOL    HW111631   4.200   4.992   1.128
 3503SOL    HW211632   4.304   5.088   1.209
 3504SOL     OW11633   4.859   4.427   0.717
 3504SOL    HW111634   4.916   4.505   0.692
 3504SOL    HW211635   4.799   4.453   0.793
 3505SOL     OW11636   4.492   4.868   1.023
 3505SOL    HW111637   4.414   4.885   1.083
 3505SOL    HW211638   4.526   4.955   0.987
 3506SOL     OW11639   4.574   4.522   1.823
 3506SOL    HW111640   4.570   4.598   1.888
 3506SOL    HW211641   4.596   4.558   1.732
 3507SOL     OW11642   4.409   4.736   0.665
 3507SOL    HW111643   4.478   4.720   0.735
 3507SOL    HW211644   4.336   4.793   0.703
 3508SOL     OW11645   4.410   4.885   1.803
 3508SOL    HW111646   4.470   4.964   1.817
 3508SOL    HW211647   4.324   4.916   1.762
 3509SOL     OW11648   4.059   5.159   1.061
 3509SOL    HW111649   3.981   5.128   1.008
 3509SOL    HW211650   4.117   5.217   1.004
 3510SOL     OW11651   4.162   4.116   1.499
 3510SOL    HW111652   4.244   4.060   1.508
 3510SOL    HW211653   4.081   4.058   1.503
 3511SOL     OW11654   3.964   4.815   0.886
 3511SOL    HW111655   3.978   4.731   0.938
 3511SOL    HW211656   3.909   4.879   0.941
 3512SOL     OW11657   4.330   4.688   0.123
 3512SOL    HW111658   4.337   4.772   0.069
 3512SOL    HW211659   4.376   4.701   0.211
 3513SOL     OW11660   3.846   4.367   0.563
 3513SOL    HW111661   3.801   4.279   0.580
 3513SOL    HW211662   3.845   4.421   0.647
 3514SOL     OW11663   3.837   4.461   1.597
 3514SOL    HW111664   3.925   4.448   1.642
 3514SOL    HW211665   3.824   4.558   1.575
 3515SOL     OW11666   5.017   4.952   1.423
 3515SOL    HW111667   5.054   4.879   1.365
 3515SOL    HW211668   5.069   4.957   1.508
 3516SOL     OW11669   4.533   3.728   0.502
 3516SOL    HW111670   4.573   3.819   0.493
 3516SOL    HW211671   4.433   3.736   0.508
 3517SOL     OW11672   3.921   4.700   1.264
 3517SOL    HW111673   4.010   4.655   1.250
 3517SOL    HW211674   3.848   4.635   1.245
 3518SOL     OW11675   4.041   3.975   1.801
 3518SOL    HW111676   4.112   4.046   1.807
 3518SOL    HW211677   3.953   4.014   1.829
 3519SOL     OW11678   4.322   4.453   0.270
 3519SOL    HW111679   4.346   4.522   0.202
 3519SOL    HW211680   4.244   4.486   0.324
 3520SOL     OW11681   5.005   4.069   0.944
 3520SOL    HW111682   4.919   4.019   0.931
 3520SOL    HW211683   5.067   4.015   1.000
 3521SOL     OW11684   4.697   4.614   1.572
 3521SOL    HW111685   4.743   4.530   1.543
 3521SOL    HW211686   4.641   4.648   1.497
 3522SOL     OW11687   4.765   4.425   0.429
 3522SOL    HW111688   4.791   4.421   0.525
 3522SOL    HW211689   4.680   4.374   0.415
 3523SOL     OW11690   3.800   4.535   0.789
 3523SOL    HW111691   3.899   4.523   0.798
 3523SOL    HW211692   3.776   4.630   0.810
 3524SOL     OW11693   4.589   4.072   0.195
 3524SOL    HW111694   4.648   4.135   0.146
 3524SOL    HW211695   4.608   3.978   0.166
 3525SOL     OW11696   4.045   4.667   0.242
 3525SOL    HW111697   4.127   4.706   0.200
 3525SOL    HW211698   4.018   4.585   0.193
 3526SOL     OW11699   3.926   4.009   1.498
 3526SOL    HW111700   3.846   4.069   1.485
 3526SOL    HW211701   3.916   3.960   1.584
 3527SOL     OW11702   4.106   4.424   0.480
 3527SOL    HW111703   4.151   4.334   0.477
 3527SOL    HW211704   4.012   4.413   0.513
 3528SOL     OW11705   4.505   3.988   1.749
 3528SOL    HW111706   4.572   3.927   1.792
 3528SOL    HW211707   4.432   4.007   1.814
 3529SOL     OW11708   4.527   5.126   0.924
 3529SOL    HW111709   4.617   5.140   0.882
 3529SOL    HW211710   4.456   5.128   0.853
 3530SOL     OW11711   4.263   3.788   0.512
 3530SOL    HW111712   4.182   3.789   0.570
 3530SOL    HW211713   4.266   3.871   0.457
 3531SOL     OW11714   4.021   3.759   0.171
 3531SOL    HW111715   4.070   3.843   0.150
 3531SOL    HW211716   4.083   3.694   0.216
 3532SOL     OW11717   4.659   3.960   0.480
 3532SOL    HW111718   4.611   4.001   0.402
 3532SOL    HW211719   4.758   3.958   0.461
 3533SOL     OW11720   4.951   5.294   0.793
 3533SOL    HW111721   4.972   5.368   0.728
 3533SOL    HW211722   5.019   5.294   0.866
 3534SOL     OW11723   4.183   4.876   0.741
 3534SOL    HW111724   4.112   4.849   0.806
 3534SOL    HW211725   4.157   4.848   0.648
 3535SOL     OW11726   4.756   4.273   0.016
 3535SOL    HW111727   4.715   4.355  -0.023
 3535SOL    HW211728   4.820   4.299   0.089
 3536SOL     OW11729   3.802   4.280   1.386
 3536SOL    HW111730   3.894   4.279   1.345
 3536SOL    HW211731   3.796   4.354   1.453
 3537SOL     OW11732   4.590   4.178   0.642
 3537SOL    HW111733   4.558   4.250   0.580
 3537SOL    HW211734   4.614   4.097   0.589
 3538SOL     OW11735   4.741   3.763   0.753
 3538SOL    HW111736   4.669   3.768   0.684
 3538SOL    HW211737   4.717   3.694   0.822
 3539SOL     OW11738   4.251   3.980   0.328
 3539SOL    HW111739   4.278   3.921   0.253
 3539SOL    HW211740   4.251   4.075   0.297
 3540SOL     OW11741   4.704   4.840   1.719
 3540SOL    HW111742   4.605   4.846   1.729
 3540SOL    HW211743   4.727   4.760   1.663
 3541SOL     OW11744   4.429   4.774   0.368
 3541SOL    HW111745   4.415   4.781   0.467
 3541SOL    HW211746   4.513   4.723   0.350
 3542SOL     OW11747   4.134   4.537   1.251
 3542SOL    HW111748   4.220   4.549   1.301
 3542SOL    HW211749   4.092   4.450   1.278
 3543SOL     OW11750   4.091   4.824   0.501
 3543SOL    HW111751   4.084   4.907   0.445
 3543SOL    HW211752   4.095   4.744   0.441
 3544SOL     OW11753   4.976   5.072   0.388
 3544SOL    HW111754   5.026   5.149   0.428
 3544SOL    HW211755   4.881   5.074   0.420
 3545SOL     OW11756   4.126   4.475   1.598
 3545SOL    HW111757   4.194   4.530   1.551
 3545SOL    HW211758   4.166   4.387   1.625
 3546SOL     OW11759   4.737   3.829   1.770
 3546SOL    HW111760   4.743   3.914   1.718
 3546SOL    HW211761   4.769   3.753   1.713
 3547SOL     OW11762   4.228   3.774   1.740
 3547SOL    HW111763   4.186   3.717   1.670
 3547SOL    HW211764   4.162   3.843   1.772
 3548SOL     OW11765   4.297   4.594   1.029
 3548SOL    HW111766   4.341   4.683   1.020
 3548SOL    HW211767   4.234   4.594   1.106
 3549SOL     OW11768   5.084   4.586   1.045
 3549SOL    HW111769   5.009   4.586   0.979
 3549SOL    HW211770   5.121   4.494   1.054
 3550SOL     OW11771   4.933   4.249   0.275
 3550SOL    HW111772   4.946   4.165   0.329
 3550SOL    HW211773   4.904   4.323   0.335
 3551SOL     OW11774   4.031   3.937   1.231
 3551SOL    HW111775   4.008   3.974   1.321
 3551SOL    HW211776   4.001   3.842   1.225
 3552SOL     OW11777   4.031   3.787   0.618
 3552SOL    HW111778   4.020   3.881   0.651
 3552SOL    HW211779   4.026   3.724   0.695
 3553SOL     OW11780   5.346   4.091   0.374
 3553SOL    HW111781   5.348   4.015   0.438
 3553SOL    HW211782   5.298   4.168   0.414
 3554SOL     OW11783   4.747   4.490   0.966
 3554SOL    HW111784   4.762   4.511   1.062
 3554SOL    HW211785   4.717   4.395   0.957
 3555SOL     OW11786   4.074   4.622   1.804
 3555SOL    HW111787   4.150   4.666   1.852
 3555SOL    HW211788   4.109   4.575   1.722
 3556SOL     OW11789   5.027   4.562   0.042
 3556SOL    HW111790   5.061   4.469   0.057
 3556SOL    HW211791   5.045   4.589  -0.053
 3557SOL     OW11792   4.043   4.534   0.949
 3557SOL    HW111793   4.136   4.570   0.954
 3557SOL    HW211794   4.037   4.449   1.001
 3558SOL     OW11795   4.063   4.233   1.006
 3558SOL    HW111796   4.011   4.150   0.989
 3558SOL    HW211797   4.140   4.238   0.942
 3559SOL     OW11798   4.726   4.520   1.238
 3559SOL    HW111799   4.767   4.488   1.324
 3559SOL    HW211800   4.630   4.493   1.235
 3560SOL     OW11801   3.764   4.268   1.114
 3560SOL    HW111802   3.849   4.235   1.073
 3560SOL    HW211803   3.777   4.283   1.212
 3561SOL     OW11804   3.913   4.244   1.722
 3561SOL    HW111805   3.972   4.204   1.652
 3561SOL    HW211806   3.855   4.315   1.681
 3562SOL     OW11807   4.539   4.296   0.325
 3562SOL    HW111808   4.546   4.207   0.279
 3562SOL    HW211809   4.445   4.330   0.317
 3563SOL     OW11810   4.197   4.224   0.191
 3563SOL    HW111811   4.258   4.304   0.195
 3563SOL    HW211812   4.102   4.255   0.198
 3564SOL     OW11813   3.883   4.861   1.466
 3564SOL    HW111814   3.905   4.800   1.542
 3564SOL    HW211815   3.893   4.812   1.380
 3565SOL     OW11816   5.071   4.783   1.234
 3565SOL    HW111817   5.095   4.720   1.160
 3565SOL    HW211818   4.981   4.823   1.216
 3566SOL     OW11819   3.807   4.982   1.022
 3566SOL    HW111820   3.802   4.981   1.122
 3566SOL    HW211821   3.724   4.941   0.984
 3567SOL     OW11822   4.627   3.810   0.133
 3567SOL    HW111823   4.678   3.811   0.047
 3567SOL    HW211824   4.683   3.768   0.204
 3568SOL     OW11825   5.004   4.651   0.672
 3568SOL    HW111826   5.064   4.570   0.674
 3568SOL    HW211827   5.044   4.720   0.612
 3569SOL     OW11828   4.554   4.997   1.422
 3569SOL    HW111829   4.549   5.030   1.517
 3569SOL    HW211830   4.468   5.016   1.376
 3570SOL     OW11831   4.546   4.726   1.372
 3570SOL    HW111832   4.586   4.725   1.280
 3570SOL    HW211833   4.556   4.818   1.412
 3571SOL     OW11834   4.640   4.634   0.291
 3571SOL    HW111835   4.703   4.672   0.223
 3571SOL    HW211836   4.680   4.551   0.330
 3572SOL     OW11837   4.096   5.012   1.490
 3572SOL    HW111838   4.083   5.105   1.456
 3572SOL    HW211839   4.012   4.960   1.477
 3573SOL     OW11840   4.763   4.822   0.696
 3573SOL    HW111841   4.693   4.775   0.750
 3573SOL    HW211842   4.822   4.754   0.653
 3574SOL     OW11843   3.829   4.737   1.726
 3574SOL    HW111844   3.752   4.704   1.780
 3574SOL    HW211845   3.914   4.707   1.768
 3575SOL     OW11846   4.396   3.927   1.489
 3575SOL    HW111847   4.486   3.911   1.449
 3575SOL    HW211848   4.404   3.932   1.588
 3576SOL     OW11849   5.164   4.580   1.398
 3576SOL    HW111850   5.107   4.632   1.335
 3576SOL    HW211851   5.260   4.592   1.374
 3577SOL     OW11852   3.796   3.890   0.318
 3577SOL    HW111853   3.779   3.973   0.264
 3577SOL    HW211854   3.886   3.853   0.296
 3578SOL     OW11855   4.337   4.566   1.431
 3578SOL    HW111856   4.393   4.647   1.414
 3578SOL    HW211857   4.396   4.486   1.434
 3579SOL     OW11858   5.174   4.944   1.633
 3579SOL    HW111859   5.165   4.934   1.732
 3579SOL    HW211860   5.270   4.937   1.607
 3580SOL     OW11861   4.949   4.049   0.449
 3580SOL    HW111862   5.014   3.975   0.438
 3580SOL    HW211863   4.969   4.099   0.533
 3581SOL     OW11864   4.318   4.469   0.652
 3581SOL    HW111865   4.368   4.554   0.633
 3581SOL    HW211866   4.230   4.471   0.604
 3582SOL     OW11867   4.583   4.680   0.861
 3582SOL    HW111868   4.637   4.611   0.909
 3582SOL    HW211869   4.551   4.749   0.927
 3583SOL     OW11870   4.807   4.708   0.087
 3583SOL    HW111871   4.784   4.761   0.005
 3583SOL    HW211872   4.888   4.652   0.068
 3584SOL     OW11873   3.803   4.964   0.653
 3584SOL    HW111874   3.802   4.917   0.741
 3584SOL    HW211875   3.885   4.936   0.602
 3585SOL     OW11876   4.152   4.148   0.520
 3585SOL    HW111877   4.182   4.076   0.458
 3585SOL    HW211878   4.113   4.108   0.603
 3586SOL     OW11879   4.041   4.271   1.280
 3586SOL    HW111880   4.079   4.212   1.352
 3586SOL    HW211881   4.081   4.245   1.192
 3587SOL     OW11882   4.494   5.054   0.301
 3587SOL    HW111883   4.448   4.967   0.318
 3587SOL    HW211884   4.585   5.051   0.342
 3588SOL     OW11885   3.763   4.801   0.300
 3588SOL    HW111886   3.862   4.790   0.291
 3588SOL    HW211887   3.723   4.715   0.332
 3589SOL     OW11888   3.954   4.352   1.975
 3589SOL    HW111889   3.861   4.350   2.012
 3589SOL    HW211890   3.955   4.313   1.883
 3590SOL     OW11891   3.949   3.999   2.858
 3590SOL    HW111892   3.984   3.982   2.950
 3590SOL    HW211893   3.861   3.954   2.846
 3591SOL     OW11894   3.743   4.092   2.509
 3591SOL    HW111895   3.661   4.135   2.548
 3591SOL    HW211896   3.715   4.019   2.446
 3592SOL     OW11897   4.293   4.999   3.027
 3592SOL    HW111898   4.200   4.992   2.990
 3592SOL    HW211899   4.304   5.088   3.071
 3593SOL     OW11900   4.859   4.427   2.579
 3593SOL    HW111901   4.916   4.505   2.554
 3593SOL    HW211902   4.799   4.453   2.655
 3594SOL     OW11903   4.492   4.868   2.885
 3594SOL    HW111904   4.414   4.885   2.945
 3594SOL    HW211905   4.526   4.955   2.849
 3595SOL     OW11906   4.574   4.522   3.685
 3595SOL    HW111907   4.570   4.598   3.750
 3595SOL    HW211908   4.596   4.558   3.594
 3596SOL     OW11909   4.409   4.736   2.527
 3596SOL    HW111910   4.478   4.720   2.597
 3596SOL    HW211911   4.336   4.793   2.565
 3597SOL     OW11912   4.410   4.885   3.665
 3597SOL    HW111913   4.470   4.964   3.679
 3597SOL    HW211914   4.324   4.916   3.624
 3598SOL     OW11915   3.964   4.815   2.748
 3598SOL    HW111916   3.978   4.731   2.800
 3598SOL    HW211917   3.909   4.879   2.803
 3599SOL     OW11918   4.330   4.688   1.985
 3599SOL    HW111919   4.337   4.772   1.931
 3599SOL    HW211920   4.376   4.701   2.073
 3600SOL     OW11921   3.846   4.367   2.425
 3600SOL    HW111922   3.801   4.279   2.442
 3600SOL    HW211923   3.845   4.421   2.509
 3601SOL     OW11924   5.017   4.952   3.285
 3601SOL    HW111925   5.054   4.879   3.227
 3601SOL    HW211926   5.069   4.957   3.370
 3602SOL     OW11927   3.921   4.700   3.126
 3602SOL    HW111928   4.010   4.655   3.112
 3602SOL    HW211929   3.848   4.635   3.107
 3603SOL     OW11930   4.041   3.975   3.663
 3603SOL    HW111931   4.112   4.046   3.669
 3603SOL    HW211932   3.953   4.014   3.691
 3604SOL     OW11933   4.322   4.453   2.132
 3604SOL    HW111934   4.346   4.522   2.064
 3604SOL    HW211935   4.244   4.486   2.186
 3605SOL     OW11936   5.005   4.069   2.806
 3605SOL    HW111937   4.919   4.019   2.793
 3605SOL    HW211938   5.067   4.015   2.862
 3606SOL     OW11939   4.531   4.329   3.327
 3606SOL    HW111940   4.484   4.326   3.416
 3606SOL    HW211941   4.480   4.274   3.261
 3607SOL     OW11942   4.697   4.614   3.434
 3607SOL    HW111943   4.743   4.530   3.405
 3607SOL    HW211944   4.641   4.648   3.359
 3608SOL     OW11945   4.715   4.134   3.104
 3608SOL    HW111946   4.638   4.168   3.158
 3608SOL    HW211947   4.681   4.083   3.025
 3609SOL     OW11948   4.765   4.425   2.291
 3609SOL    HW111949   4.791   4.421   2.387
 3609SOL    HW211950   4.680   4.374   2.277
 3610SOL     OW11951   4.589   4.072   2.057
 3610SOL    HW111952   4.648   4.135   2.008
 3610SOL    HW211953   4.608   3.978   2.028
 3611SOL     OW11954   4.274   3.920   2.747
 3611SOL    HW111955   4.269   3.915   2.847
 3611SOL    HW211956   4.276   4.016   2.718
 3612SOL     OW11957   4.045   4.667   2.104
 3612SOL    HW111958   4.127   4.706   2.062
 3612SOL    HW211959   4.018   4.585   2.055
 3613SOL     OW11960   4.106   4.424   2.342
 3613SOL    HW111961   4.151   4.334   2.339
 3613SOL    HW211962   4.012   4.413   2.375
 3614SOL     OW11963   4.338   3.846   1.979
 3614SOL    HW111964   4.436   3.824   1.986
 3614SOL    HW211965   4.307   3.829   1.886
 3615SOL     OW11966   4.505   3.988   3.611
 3615SOL    HW111967   4.572   3.927   3.654
 3615SOL    HW211968   4.432   4.007   3.676
 3616SOL     OW11969   4.527   5.126   2.786
 3616SOL    HW111970   4.617   5.140   2.744
 3616SOL    HW211971   4.456   5.128   2.715
 3617SOL     OW11972   4.646   4.227   2.761
 3617SOL    HW111973   4.621   4.218   2.665
 3617SOL    HW211974   4.694   4.145   2.792
 3618SOL     OW11975   5.158   4.912   1.903
 3618SOL    HW111976   5.190   4.836   1.960
 3618SOL    HW211977   5.066   4.939   1.933
 3619SOL     OW11978   4.021   3.759   2.033
 3619SOL    HW111979   4.070   3.843   2.012
 3619SOL    HW211980   4.083   3.694   2.078
 3620SOL     OW11981   4.800   4.407   3.326
 3620SOL    HW111982   4.720   4.346   3.329
 3620SOL    HW211983   4.881   4.354   3.302
 3621SOL     OW11984   4.951   5.294   2.655
 3621SOL    HW111985   4.972   5.368   2.590
 3621SOL    HW211986   5.019   5.294   2.728
 3622SOL     OW11987   4.183   4.876   2.603
 3622SOL    HW111988   4.112   4.849   2.668
 3622SOL    HW211989   4.157   4.848   2.510
 3623SOL     OW11990   4.756   4.273   1.878
 3623SOL    HW111991   4.715   4.355   1.839
 3623SOL    HW211992   4.820   4.299   1.951
 3624SOL     OW11993   4.285   3.946   3.009
 3624SOL    HW111994   4.323   3.862   3.046
 3624SOL    HW211995   4.197   3.965   3.053
 3625SOL     OW11996   4.590   4.178   2.504
 3625SOL    HW111997   4.558   4.250   2.442
 3625SOL    HW211998   4.614   4.097   2.451
 3626SOL     OW11999   4.251   3.980   2.190
 3626SOL    HW112000   4.278   3.921   2.115
 3626SOL    HW212001   4.251   4.075   2.159
 3627SOL     OW12002   4.639   3.813   3.264
 3627SOL    HW112003   4.664   3.793   3.169
 3627SOL    HW212004   4.711   3.869   3.306
 3628SOL     OW12005   4.704   4.840   3.581
 3628SOL    HW112006   4.605   4.846   3.591
 3628SOL    HW212007   4.727   4.760   3.525
 3629SOL     OW12008   4.429   4.774   2.230
 3629SOL    HW112009   4.415   4.781   2.329
 3629SOL    HW212010   4.513   4.723   2.212
 3630SOL     OW12011   4.134   4.537   3.113
 3630SOL    HW112012   4.220   4.549   3.163
 3630SOL    HW212013   4.092   4.450   3.140
 3631SOL     OW12014   4.998   4.110   3.124
 3631SOL    HW112015   5.019   4.184   3.188
 3631SOL    HW212016   4.909   4.127   3.081
 3632SOL     OW12017   4.091   4.824   2.363
 3632SOL    HW112018   4.084   4.907   2.307
 3632SOL    HW212019   4.095   4.744   2.303
 3633SOL     OW12020   4.290   4.261   2.727
 3633SOL    HW112021   4.302   4.327   2.653
 3633SOL    HW212022   4.336   4.295   2.810
 3634SOL     OW12023   4.976   5.072   2.250
 3634SOL    HW112024   5.026   5.149   2.290
 3634SOL    HW212025   4.881   5.074   2.282
 3635SOL     OW12026   4.737   3.829   3.632
 3635SOL    HW112027   4.743   3.914   3.580
 3635SOL    HW212028   4.769   3.753   3.575
 3636SOL     OW12029   4.228   3.774   3.602
 3636SOL    HW112030   4.186   3.717   3.532
 3636SOL    HW212031   4.162   3.843   3.634
 3637SOL     OW12032   4.297   4.594   2.891
 3637SOL    HW112033   4.341   4.683   2.882
 3637SOL    HW212034   4.234   4.594   2.968
 3638SOL     OW12035   5.084   4.586   2.907
 3638SOL    HW112036   5.009   4.586   2.841
 3638SOL    HW212037   5.121   4.494   2.916
 3639SOL     OW12038   4.933   4.249   2.137
 3639SOL    HW112039   4.946   4.165   2.191
 3639SOL    HW212040   4.904   4.323   2.197
 3640SOL     OW12041   4.031   3.937   3.093
 3640SOL    HW112042   4.008   3.974   3.183
 3640SOL    HW212043   4.001   3.842   3.087
 3641SOL     OW12044   4.456   4.358   2.926
 3641SOL    HW112045   4.515   4.332   2.850
 3641SOL    HW212046   4.428   4.454   2.915
 3642SOL     OW12047   5.346   4.091   2.236
 3642SOL    HW112048   5.348   4.015   2.300
 3642SOL    HW212049   5.298   4.168   2.276
 3643SOL     OW12050   4.747   4.490   2.828
 3643SOL    HW112051   4.762   4.511   2.924
 3643SOL    HW212052   4.717   4.395   2.819
 3644SOL     OW12053   4.074   4.622   3.666
 3644SOL    HW112054   4.150   4.666   3.714
 3644SOL    HW212055   4.109   4.575   3.584
 3645SOL     OW12056   5.027   4.562   1.904
 3645SOL    HW112057   5.061   4.469   1.919
 3645SOL    HW212058   5.045   4.589   1.809
 3646SOL     OW12059   4.043   4.534   2.811
 3646SOL    HW112060   4.136   4.570   2.816
 3646SOL    HW212061   4.037   4.449   2.863
 3647SOL     OW12062   4.063   4.233   2.868
 3647SOL    HW112063   4.011   4.150   2.851
 3647SOL    HW212064   4.140   4.238   2.804
 3648SOL     OW12065   4.862   4.104   3.540
 3648SOL    HW112066   4.817   4.167   3.604
 3648SOL    HW212067   4.955   4.135   3.523
 3649SOL     OW12068   4.884   3.931   3.339
 3649SOL    HW112069   4.884   3.995   3.416
 3649SOL    HW212070   4.912   3.979   3.256
 3650SOL     OW12071   3.732   5.050   2.062
 3650SOL    HW112072   3.639   5.071   2.031
 3650SOL    HW212073   3.742   4.951   2.075
 3651SOL     OW12074   4.726   4.520   3.100
 3651SOL    HW112075   4.767   4.488   3.186
 3651SOL    HW212076   4.630   4.493   3.097
 3652SOL     OW12077   3.764   4.268   2.976
 3652SOL    HW112078   3.849   4.235   2.935
 3652SOL    HW212079   3.777   4.283   3.074
 3653SOL     OW12080   4.539   4.296   2.187
 3653SOL    HW112081   4.546   4.207   2.141
 3653SOL    HW212082   4.445   4.330   2.179
 3654SOL     OW12083   4.395   4.188   3.131
 3654SOL    HW112084   4.361   4.099   3.101
 3654SOL    HW212085   4.421   4.242   3.051
 3655SOL     OW12086   4.197   4.224   2.053
 3655SOL    HW112087   4.258   4.304   2.057
 3655SOL    HW212088   4.102   4.255   2.060
 3656SOL     OW12089   3.883   4.861   3.328
 3656SOL    HW112090   3.905   4.800   3.404
 3656SOL    HW212091   3.893   4.812   3.242
 3657SOL     OW12092   5.071   4.783   3.096
 3657SOL    HW112093   5.095   4.720   3.022
 3657SOL    HW212094   4.981   4.823   3.078
 3658SOL     OW12095   5.004   4.651   2.534
 3658SOL    HW112096   5.064   4.570   2.536
 3658SOL    HW212097   5.044   4.720   2.474
 3659SOL     OW12098   4.554   4.997   3.284
 3659SOL    HW112099   4.549   5.030   3.379
 3659SOL    HW212100   4.468   5.016   3.238
 3660SOL     OW12101   3.987   4.050   2.582
 3660SOL    HW112102   3.908   4.101   2.548
 3660SOL    HW212103   3.978   4.035   2.680
 3661SOL     OW12104   4.918   5.336   1.893
 3661SOL    HW112105   4.924   5.243   1.930
 3661SOL    HW212106   4.859   5.336   1.813
 3662SOL     OW12107   4.546   4.726   3.234
 3662SOL    HW112108   4.586   4.725   3.142
 3662SOL    HW212109   4.556   4.818   3.274
 3663SOL     OW12110   4.640   4.634   2.153
 3663SOL    HW112111   4.703   4.672   2.085
 3663SOL    HW212112   4.680   4.551   2.192
 3664SOL     OW12113   4.096   5.012   3.352
 3664SOL    HW112114   4.083   5.105   3.318
 3664SOL    HW212115   4.012   4.960   3.339
 3665SOL     OW12116   4.763   4.822   2.558
 3665SOL    HW112117   4.693   4.775   2.612
 3665SOL    HW212118   4.822   4.754   2.515
 3666SOL     OW12119   4.738   3.960   2.833
 3666SOL    HW112120   4.730   3.924   2.740
 3666SOL    HW212121   4.736   3.884   2.898
 3667SOL     OW12122   4.396   3.927   3.351
 3667SOL    HW112123   4.486   3.911   3.311
 3667SOL    HW212124   4.404   3.932   3.450
 3668SOL     OW12125   3.799   4.069   1.895
 3668SOL    HW112126   3.707   4.041   1.866
 3668SOL    HW212127   3.830   4.146   1.839
 3669SOL     OW12128   5.164   4.580   3.260
 3669SOL    HW112129   5.107   4.632   3.197
 3669SOL    HW212130   5.260   4.592   3.236
 3670SOL     OW12131   3.796   3.890   2.180
 3670SOL    HW112132   3.779   3.973   2.126
 3670SOL    HW212133   3.886   3.853   2.158
 3671SOL     OW12134   4.337   4.566   3.293
 3671SOL    HW112135   4.393   4.647   3.276
 3671SOL    HW212136   4.396   4.486   3.296
 3672SOL     OW12137   4.440   4.289   3.570
 3672SOL    HW112138   4.459   4.354   3.644
 3672SOL    HW212139   4.500   4.209   3.579
 3673SOL     OW12140   5.174   4.944   3.495
 3673SOL    HW112141   5.165   4.934   3.594
 3673SOL    HW212142   5.270   4.937   3.469
 3674SOL     OW12143   4.318   4.469   2.514
 3674SOL    HW112144   4.368   4.554   2.495
 3674SOL    HW212145   4.230   4.471   2.466
 3675SOL     OW12146   4.583   4.680   2.723
 3675SOL    HW112147   4.637   4.611   2.771
 3675SOL    HW212148   4.551   4.749   2.789
 3676SOL     OW12149   4.807   4.708   1.949
 3676SOL    HW112150   4.784   4.761   1.867
 3676SOL    HW212151   4.888   4.652   1.930
 3677SOL     OW12152   3.803   4.964   2.515
 3677SOL    HW112153   3.802   4.917   2.603
 3677SOL    HW212154   3.885   4.936   2.464
 3678SOL     OW12155   4.152   4.148   2.382
 3678SOL    HW112156   4.182   4.076   2.320
 3678SOL    HW212157   4.113   4.108   2.465
 3679SOL     OW12158   4.041   4.271   3.142
 3679SOL    HW112159   4.079   4.212   3.214
 3679SOL    HW212160   4.081   4.245   3.054
 3680SOL     OW12161   4.725   3.758   3.016
 3680SOL    HW112162   4.662   3.686   2.985
 3680SOL    HW212163   4.818   3.722   3.016
 3681SOL     OW12164   4.494   5.054   2.163
 3681SOL    HW112165   4.448   4.967   2.180
 3681SOL    HW212166   4.585   5.051   2.204
 3682SOL     OW12167   5.076   3.776   2.030
 3682SOL    HW112168   5.111   3.735   1.946
 3682SOL    HW212169   4.986   3.738   2.050
 3683SOL     OW12170   3.763   4.801   2.162
 3683SOL    HW112171   3.862   4.790   2.153
 3683SOL    HW212172   3.723   4.715   2.194
 3684SOL     OW12173   3.949   3.999   4.720
 3684SOL    HW112174   3.984   3.982   4.812
 3684SOL    HW212175   3.861   3.954   4.708
 3685SOL     OW12176   4.293   4.999   4.889
 3685SOL    HW112177   4.200   4.992   4.852
 3685SOL    HW212178   4.304   5.088   4.933
 3686SOL     OW12179   4.859   4.427   4.441
 3686SOL    HW112180   4.916   4.505   4.416
 3686SOL    HW212181   4.799   4.453   4.517
 3687SOL     OW12182   4.492   4.868   4.747
 3687SOL    HW112183   4.414   4.885   4.807
 3687SOL    HW212184   4.526   4.955   4.711
 3688SOL     OW12185   4.409   4.736   4.389
 3688SOL    HW112186   4.478   4.720   4.459
 3688SOL    HW212187   4.336   4.793   4.427
 3689SOL     OW12188   4.059   5.159   4.785
 3689SOL    HW112189   3.981   5.128   4.732
 3689SOL    HW212190   4.117   5.217   4.728
 3690SOL     OW12191   3.964   4.815   4.610
 3690SOL    HW112192   3.978   4.731   4.662
 3690SOL    HW212193   3.909   4.879   4.665
 3691SOL     OW12194   4.330   4.688   3.847
 3691SOL    HW112195   4.337   4.772   3.793
 3691SOL    HW212196   4.376   4.701   3.935
 3692SOL     OW12197   3.846   4.367   4.287
 3692SOL    HW112198   3.801   4.279   4.304
 3692SOL    HW212199   3.845   4.421   4.371
 3693SOL     OW12200   4.533   3.728   4.226
 3693SOL    HW112201   4.573   3.819   4.217
 3693SOL    HW212202   4.433   3.736   4.232
 3694SOL     OW12203   3.921   4.700   4.988
 3694SOL    HW112204   4.010   4.655   4.974
 3694SOL    HW212205   3.848   4.635   4.969
 3695SOL     OW12206   4.322   4.453   3.994
 3695SOL    HW112207   4.346   4.522   3.926
 3695SOL    HW212208   4.244   4.486   4.048
 3696SOL     OW12209   5.005   4.069   4.668
 3696SOL    HW112210   4.919   4.019   4.655
 3696SOL    HW212211   5.067   4.015   4.724
 3697SOL     OW12212   4.715   4.134   4.966
 3697SOL    HW112213   4.638   4.168   5.020
 3697SOL    HW212214   4.681   4.083   4.887
 3698SOL     OW12215   4.765   4.425   4.153
 3698SOL    HW112216   4.791   4.421   4.249
 3698SOL    HW212217   4.680   4.374   4.139
 3699SOL     OW12218   3.800   4.535   4.513
 3699SOL    HW112219   3.899   4.523   4.522
 3699SOL    HW212220   3.776   4.630   4.534
 3700SOL     OW12221   4.589   4.072   3.919
 3700SOL    HW112222   4.648   4.135   3.870
 3700SOL    HW212223   4.608   3.978   3.890
 3701SOL     OW12224   4.274   3.920   4.609
 3701SOL    HW112225   4.269   3.915   4.709
 3701SOL    HW212226   4.276   4.016   4.580
 3702SOL     OW12227   4.045   4.667   3.966
 3702SOL    HW112228   4.127   4.706   3.924
 3702SOL    HW212229   4.018   4.585   3.917
 3703SOL     OW12230   4.106   4.424   4.204
 3703SOL    HW112231   4.151   4.334   4.201
 3703SOL    HW212232   4.012   4.413   4.237
 3704SOL     OW12233   4.338   3.846   3.841
 3704SOL    HW112234   4.436   3.824   3.848
 3704SOL    HW212235   4.307   3.829   3.748
 3705SOL     OW12236   4.527   5.126   4.648
 3705SOL    HW112237   4.617   5.140   4.606
 3705SOL    HW212238   4.456   5.128   4.577
 3706SOL     OW12239   4.646   4.227   4.623
 3706SOL    HW112240   4.621   4.218   4.527
 3706SOL    HW212241   4.694   4.145   4.654
 3707SOL     OW12242   4.263   3.788   4.236
 3707SOL    HW112243   4.182   3.789   4.294
 3707SOL    HW212244   4.266   3.871   4.181
 3708SOL     OW12245   5.158   4.912   3.765
 3708SOL    HW112246   5.190   4.836   3.822
 3708SOL    HW212247   5.066   4.939   3.795
 3709SOL     OW12248   4.659   3.960   4.204
 3709SOL    HW112249   4.611   4.001   4.126
 3709SOL    HW212250   4.758   3.958   4.185
 3710SOL     OW12251   4.951   5.294   4.517
 3710SOL    HW112252   4.972   5.368   4.452
 3710SOL    HW212253   5.019   5.294   4.590
 3711SOL     OW12254   4.183   4.876   4.465
 3711SOL    HW112255   4.112   4.849   4.530
 3711SOL    HW212256   4.157   4.848   4.372
 3712SOL     OW12257   4.756   4.273   3.740
 3712SOL    HW112258   4.715   4.355   3.701
 3712SOL    HW212259   4.820   4.299   3.813
 3713SOL     OW12260   4.285   3.946   4.871
 3713SOL    HW112261   4.323   3.862   4.908
 3713SOL    HW212262   4.197   3.965   4.915
 3714SOL     OW12263   4.590   4.178   4.366
 3714SOL    HW112264   4.558   4.250   4.304
 3714SOL    HW212265   4.614   4.097   4.313
 3715SOL     OW12266   4.741   3.763   4.477
 3715SOL    HW112267   4.669   3.768   4.408
 3715SOL    HW212268   4.717   3.694   4.546
 3716SOL     OW12269   4.251   3.980   4.052
 3716SOL    HW112270   4.278   3.921   3.977
 3716SOL    HW212271   4.251   4.075   4.021
 3717SOL     OW12272   4.429   4.774   4.092
 3717SOL    HW112273   4.415   4.781   4.191
 3717SOL    HW212274   4.513   4.723   4.074
 3718SOL     OW12275   4.134   4.537   4.975
 3718SOL    HW112276   4.220   4.549   5.025
 3718SOL    HW212277   4.092   4.450   5.002
 3719SOL     OW12278   4.091   4.824   4.225
 3719SOL    HW112279   4.084   4.907   4.169
 3719SOL    HW212280   4.095   4.744   4.165
 3720SOL     OW12281   4.290   4.261   4.589
 3720SOL    HW112282   4.302   4.327   4.515
 3720SOL    HW212283   4.336   4.295   4.672
 3721SOL     OW12284   4.976   5.072   4.112
 3721SOL    HW112285   5.026   5.149   4.152
 3721SOL    HW212286   4.881   5.074   4.144
 3722SOL     OW12287   4.297   4.594   4.753
 3722SOL    HW112288   4.341   4.683   4.744
 3722SOL    HW212289   4.234   4.594   4.830
 3723SOL     OW12290   5.084   4.586   4.769
 3723SOL    HW112291   5.009   4.586   4.703
 3723SOL    HW212292   5.121   4.494   4.778
 3724SOL     OW12293   4.933   4.249   3.999
 3724SOL    HW112294   4.946   4.165   4.053
 3724SOL    HW212295   4.904   4.323   4.059
 3725SOL     OW12296   4.031   3.937   4.955
 3725SOL    HW112297   4.008   3.974   5.045
 3725SOL    HW212298   4.001   3.842   4.949
 3726SOL     OW12299   4.456   4.358   4.788
 3726SOL    HW112300   4.515   4.332   4.712
 3726SOL    HW212301   4.428   4.454   4.777
 3727SOL     OW12302   5.346   4.091   4.098
 3727SOL    HW112303   5.348   4.015   4.162
 3727SOL    HW212304   5.298   4.168   4.138
 3728SOL     OW12305   4.747   4.490   4.690
 3728SOL    HW112306   4.762   4.511   4.786
 3728SOL    HW212307   4.717   4.395   4.681
 3729SOL     OW12308   5.027   4.562   3.766
 3729SOL    HW112309   5.061   4.469   3.781
 3729SOL    HW212310   5.045   4.589   3.671
 3730SOL     OW12311   4.043   4.534   4.673
 3730SOL    HW112312   4.136   4.570   4.678
 3730SOL    HW212313   4.037   4.449   4.725
 3731SOL     OW12314   4.063   4.233   4.730
 3731SOL    HW112315   4.011   4.150   4.713
 3731SOL    HW212316   4.140   4.238   4.666
 3732SOL     OW12317   4.884   3.931   5.201
 3732SOL    HW112318   4.884   3.995   5.278
 3732SOL    HW212319   4.912   3.979   5.118
 3733SOL     OW12320   3.732   5.050   3.924
 3733SOL    HW112321   3.639   5.071   3.893
 3733SOL    HW212322   3.742   4.951   3.937
 3734SOL     OW12323   4.726   4.520   4.962
 3734SOL    HW112324   4.767   4.488   5.048
 3734SOL    HW212325   4.630   4.493   4.959
 3735SOL     OW12326   3.764   4.268   4.838
 3735SOL    HW112327   3.849   4.235   4.797
 3735SOL    HW212328   3.777   4.283   4.936
 3736SOL     OW12329   4.539   4.296   4.049
 3736SOL    HW112330   4.546   4.207   4.003
 3736SOL    HW212331   4.445   4.330   4.041
 3737SOL     OW12332   4.395   4.188   4.993
 3737SOL    HW112333   4.361   4.099   4.963
 3737SOL    HW212334   4.421   4.242   4.913
 3738SOL     OW12335   4.197   4.224   3.915
 3738SOL    HW112336   4.258   4.304   3.919
 3738SOL    HW212337   4.102   4.255   3.922
 3739SOL     OW12338   5.071   4.783   4.958
 3739SOL    HW112339   5.095   4.720   4.884
 3739SOL    HW212340   4.981   4.823   4.940
 3740SOL     OW12341   3.807   4.982   4.746
 3740SOL    HW112342   3.802   4.981   4.846
 3740SOL    HW212343   3.724   4.941   4.708
 3741SOL     OW12344   5.004   4.651   4.396
 3741SOL    HW112345   5.064   4.570   4.398
 3741SOL    HW212346   5.044   4.720   4.336
 3742SOL     OW12347   4.554   4.997   5.146
 3742SOL    HW112348   4.549   5.030   5.241
 3742SOL    HW212349   4.468   5.016   5.100
 3743SOL     OW12350   4.918   5.336   3.755
 3743SOL    HW112351   4.924   5.243   3.792
 3743SOL    HW212352   4.859   5.336   3.675
 3744SOL     OW12353   4.546   4.726   5.096
 3744SOL    HW112354   4.586   4.725   5.004
 3744SOL    HW212355   4.556   4.818   5.136
 3745SOL     OW12356   4.640   4.634   4.015
 3745SOL    HW112357   4.703   4.672   3.947
 3745SOL    HW212358   4.680   4.551   4.054
 3746SOL     OW12359   4.763   4.822   4.420
 3746SOL    HW112360   4.693   4.775   4.474
 3746SOL    HW212361   4.822   4.754   4.377
 3747SOL     OW12362   4.738   3.960   4.695
 3747SOL    HW112363   4.730   3.924   4.602
 3747SOL    HW212364   4.736   3.884   4.760
 3748SOL     OW12365   3.799   4.069   3.757
 3748SOL    HW112366   3.707   4.041   3.728
 3748SOL    HW212367   3.830   4.146   3.701
 3749SOL     OW12368   4.949   4.049   4.173
 3749SOL    HW112369   5.014   3.975   4.162
 3749SOL    HW212370   4.969   4.099   4.257
 3750SOL     OW12371   4.318   4.469   4.376
 3750SOL    HW112372   4.368   4.554   4.357
 3750SOL    HW212373   4.230   4.471   4.328
 3751SOL     OW12374   4.583   4.680   4.585
 3751SOL    HW112375   4.637   4.611   4.633
 3751SOL    HW212376   4.551   4.749   4.651
 3752SOL     OW12377   4.807   4.708   3.811
 3752SOL    HW112378   4.784   4.761   3.729
 3752SOL    HW212379   4.888   4.652   3.792
 3753SOL     OW12380   3.803   4.964   4.377
 3753SOL    HW112381   3.802   4.917   4.465
 3753SOL    HW212382   3.885   4.936   4.326
 3754SOL     OW12383   4.725   3.758   4.878
 3754SOL    HW112384   4.662   3.686   4.847
 3754SOL    HW212385   4.818   3.722   4.878
 3755SOL     OW12386   4.494   5.054   4.025
 3755SOL    HW112387   4.448   4.967   4.042
 3755SOL    HW212388   4.585   5.051   4.066
 3756SOL     OW12389   5.076   3.776   3.892
 3756SOL    HW112390   5.111   3.735   3.808
 3756SOL    HW212391   4.986   3.738   3.912
 3757SOL     OW12392   3.763   4.801   4.024
 3757SOL    HW112393   3.862   4.790   4.015
 3757SOL    HW212394   3.723   4.715   4.056
   5.08970   5.08970   5.08970
