UNITED ATOM STRUCTURE FOR MOLECULE UNK
11967
    0X2IT   H18    1   3.092   2.352   2.583
    0X2IT    N4    2   3.026   2.419   2.548
    0X2IT   H17    3   3.059   2.484   2.478
    0X2IT   C14    4   2.895   2.380   2.546
    0X2IT    O5    5   2.849   2.285   2.607
    0X2IT    O4    6   2.822   2.466   2.469
    0X2IT   C13    7   2.680   2.441   2.463
    0X2IT   C10    8   2.607   2.502   2.584
    0X2IT    C9    9   2.457   2.484   2.578
    0X2IT    C4   10   2.394   2.607   2.582
    0X2IT    C5   11   2.245   2.625   2.577
    0X2IT    O1   12   2.197   2.739   2.585
    0X2IT    C6   13   2.166   2.505   2.564
    0X2IT   C12   14   2.015   2.516   2.558
    0X2IT    C7   15   2.229   2.382   2.561
    0X2IT    C8   16   2.381   2.365   2.567
    0X2IT    O2   17   2.427   2.250   2.559
    0X2IT    N3   18   2.164   2.265   2.551
    0X2IT   H15   19   2.064   2.258   2.544
    0X2IT   H16   20   2.221   2.180   2.548
    0X2IT    N2   21   2.482   2.709   2.599
    0X2IT    C3   22   2.473   2.846   2.546
    0X2IT    C2   23   2.599   2.856   2.461
    0X2IT    H2   24   2.639   2.954   2.435
    0X2IT    N1   25   2.611   2.744   2.365
    0X2IT   H14   26   2.674   2.771   2.289
    0X2IT    C1   27   2.688   2.741   2.491
    0X2IT    H1   28   2.796   2.748   2.490
    0X2IT   C11   29   2.622   2.658   2.600
    0X2IT    O3   30   2.691   2.695   2.718
    0X2IT   C15   31   2.628   2.664   2.843
    1X2IT   H18   32   4.281   5.313   4.753
    1X2IT    N4   33   4.300   5.215   4.745
    1X2IT   H17   34   4.220   5.152   4.742
    1X2IT   C14   35   4.414   5.180   4.678
    1X2IT    O5   36   4.506   5.256   4.653
    1X2IT    O4   37   4.412   5.047   4.648
    1X2IT   C13   38   4.529   4.995   4.583
    1X2IT   C10   39   4.639   4.960   4.685
    1X2IT    C9   40   4.762   4.898   4.621
    1X2IT    C4   41   4.787   4.774   4.676
    1X2IT    C5   42   4.900   4.685   4.635
    1X2IT    O1   43   4.917   4.576   4.692
    1X2IT    C6   44   4.985   4.734   4.529
    1X2IT   C12   45   5.102   4.650   4.482
    1X2IT    C7   46   4.961   4.859   4.475
    1X2IT    C8   47   4.845   4.949   4.519
    1X2IT    O2   48   4.831   5.057   4.460
    1X2IT    N3   49   5.036   4.914   4.378
    1X2IT   H15   50   5.115   4.868   4.336
    1X2IT   H16   51   5.008   5.007   4.344
    1X2IT    N2   52   4.701   4.745   4.777
    1X2IT    C3   53   4.648   4.613   4.815
    1X2IT    C2   54   4.497   4.632   4.799
    1X2IT    H2   55   4.428   4.566   4.850
    1X2IT    N1   56   4.462   4.687   4.666
    1X2IT   H14   57   4.364   4.666   4.646
    1X2IT    C1   58   4.468   4.777   4.783
    1X2IT    H1   59   4.378   4.824   4.821
    1X2IT   C11   60   4.600   4.853   4.793
    1X2IT    O3   61   4.599   4.905   4.925
    1X2IT   C15   62   4.724   4.948   4.979
    2X2IT   H18   63   4.541   4.027   2.329
    2X2IT    N4   64   4.607   3.985   2.392
    2X2IT   H17   65   4.699   4.026   2.396
    2X2IT   C14   66   4.556   3.926   2.504
    2X2IT    O5   67   4.439   3.896   2.520
    2X2IT    O4   68   4.656   3.901   2.593
    2X2IT   C13   69   4.618   3.832   2.715
    2X2IT   C10   70   4.611   3.680   2.693
    2X2IT    C9   71   4.578   3.604   2.820
    2X2IT    C4   72   4.679   3.513   2.848
    2X2IT    C5   73   4.677   3.422   2.968
    2X2IT    O1   74   4.770   3.341   2.984
    2X2IT    C6   75   4.565   3.435   3.057
    2X2IT   C12   76   4.558   3.346   3.180
    2X2IT    C7   77   4.464   3.525   3.028
    2X2IT    C8   78   4.466   3.617   2.906
    2X2IT    O2   79   4.373   3.697   2.891
    2X2IT    N3   80   4.355   3.542   3.104
    2X2IT   H15   81   4.339   3.491   3.189
    2X2IT   H16   82   4.288   3.613   3.074
    2X2IT    N2   83   4.774   3.511   2.752
    2X2IT    C3   84   4.918   3.486   2.769
    2X2IT    C2   85   4.980   3.614   2.715
    2X2IT    H2   86   5.084   3.615   2.683
    2X2IT    N1   87   4.922   3.735   2.779
    2X2IT   H14   88   4.986   3.813   2.768
    2X2IT    C1   89   4.876   3.693   2.645
    2X2IT    H1   90   4.896   3.754   2.558
    2X2IT   C11   91   4.746   3.613   2.648
    2X2IT    O3   92   4.739   3.556   2.518
    2X2IT   C15   93   4.650   3.445   2.501
    3X2IT   H18   94   3.046   4.159   1.950
    3X2IT    N4   95   3.064   4.066   1.984
    3X2IT   H17   96   3.074   3.993   1.915
    3X2IT   C14   97   3.131   4.056   2.102
    3X2IT    O5   98   3.147   4.147   2.182
    3X2IT    O4   99   3.174   3.928   2.121
    3X2IT   C13  100   3.242   3.901   2.245
    3X2IT   C10  101   3.142   3.873   2.359
    3X2IT    C9  102   3.208   3.838   2.490
    3X2IT    C4  103   3.166   3.713   2.533
    3X2IT    C5  104   3.213   3.647   2.659
    3X2IT    O1  105   3.166   3.537   2.692
    3X2IT    C6  106   3.312   3.719   2.736
    3X2IT   C12  107   3.364   3.658   2.864
    3X2IT    C7  108   3.354   3.844   2.693
    3X2IT    C8  109   3.304   3.910   2.565
    3X2IT    O2  110   3.352   4.021   2.534
    3X2IT    N3  111   3.443   3.919   2.759
    3X2IT   H15  112   3.488   3.890   2.844
    3X2IT   H16  113   3.468   4.009   2.717
    3X2IT    N2  114   3.070   3.661   2.452
    3X2IT    C3  115   3.046   3.520   2.419
    3X2IT    C2  116   3.063   3.518   2.268
    3X2IT    H2  117   3.020   3.437   2.209
    3X2IT    N1  118   3.191   3.579   2.225
    3X2IT   H14  119   3.215   3.546   2.132
    3X2IT    C1  120   3.066   3.658   2.217
    3X2IT    H1  121   3.025   3.686   2.121
    3X2IT   C11  122   3.045   3.751   2.335
    3X2IT    O3  123   2.909   3.789   2.325
    3X2IT   C15  124   2.848   3.845   2.443
    4X2IT   H18  125   1.525   1.291   2.886
    4X2IT    N4  126   1.437   1.292   2.933
    4X2IT   H17  127   1.372   1.366   2.909
    4X2IT   C14  128   1.388   1.171   2.973
    4X2IT    O5  129   1.453   1.068   2.980
    4X2IT    O4  130   1.256   1.183   3.007
    4X2IT   C13  131   1.193   1.064   3.058
    4X2IT   C10  132   1.220   1.045   3.208
    4X2IT    C9  133   1.150   0.925   3.266
    4X2IT    C4  134   1.068   0.964   3.370
    4X2IT    C5  135   0.982   0.869   3.450
    4X2IT    O1  136   0.914   0.912   3.544
    4X2IT    C6  137   0.986   0.730   3.410
    4X2IT   C12  138   0.902   0.629   3.486
    4X2IT    C7  139   1.069   0.691   3.307
    4X2IT    C8  140   1.156   0.789   3.227
    4X2IT    O2  141   1.223   0.743   3.133
    4X2IT    N3  142   1.081   0.564   3.264
    4X2IT   H15  143   1.029   0.488   3.304
    4X2IT   H16  144   1.144   0.547   3.185
    4X2IT    N2  145   1.079   1.096   3.398
    4X2IT    C3  146   0.975   1.188   3.447
    4X2IT    C2  147   0.969   1.292   3.335
    4X2IT    H2  148   0.926   1.390   3.355
    4X2IT    N1  149   0.952   1.230   3.202
    4X2IT   H14  150   0.914   1.300   3.137
    4X2IT    C1  151   1.086   1.275   3.246
    4X2IT    H1  152   1.135   1.357   3.197
    4X2IT   C11  153   1.171   1.162   3.301
    4X2IT    O3  154   1.278   1.228   3.367
    4X2IT   C15  155   1.354   1.153   3.461
    5X2IT   H18  156   3.148   0.536   4.273
    5X2IT    N4  157   3.132   0.634   4.284
    5X2IT   H17  158   3.175   0.695   4.216
    5X2IT   C14  159   3.014   0.671   4.341
    5X2IT    O5  160   2.940   0.598   4.403
    5X2IT    O4  161   2.993   0.805   4.321
    5X2IT   C13  162   2.874   0.860   4.382
    5X2IT   C10  163   2.898   0.895   4.530
    5X2IT    C9  164   2.778   0.959   4.596
    5X2IT    C4  165   2.812   1.083   4.647
    5X2IT    C5  166   2.716   1.174   4.717
    5X2IT    O1  167   2.756   1.282   4.763
    5X2IT    C6  168   2.580   1.128   4.729
    5X2IT   C12  169   2.478   1.215   4.799
    5X2IT    C7  170   2.546   1.003   4.679
    5X2IT    C8  171   2.645   0.911   4.608
    5X2IT    O2  172   2.603   0.803   4.564
    5X2IT    N3  173   2.423   0.951   4.687
    5X2IT   H15  174   2.345   0.999   4.729
    5X2IT   H16  175   2.409   0.858   4.646
    5X2IT    N2  176   2.944   1.110   4.632
    5X2IT    C3  177   3.008   1.240   4.608
    5X2IT    C2  178   3.078   1.219   4.475
    5X2IT    H2  179   3.161   1.284   4.446
    5X2IT    N1  180   2.987   1.166   4.371
    5X2IT   H14  181   3.025   1.185   4.278
    5X2IT    C1  182   3.078   1.074   4.442
    5X2IT    H1  183   3.159   1.025   4.389
    5X2IT   C11  184   3.012   1.000   4.557
    5X2IT    O3  185   3.121   0.946   4.630
    5X2IT   C15  186   3.095   0.903   4.765
    6X2IT   H18  187   0.093   4.554   4.194
    6X2IT    N4  188   0.184   4.595   4.191
    6X2IT   H17  189   0.191   4.692   4.163
    6X2IT   C14  190   0.275   4.545   4.280
    6X2IT    O5  191   0.264   4.440   4.341
    6X2IT    O4  192   0.383   4.629   4.288
    6X2IT   C13  193   0.491   4.586   4.374
    6X2IT   C10  194   0.584   4.487   4.301
    6X2IT    C9  195   0.702   4.444   4.385
    6X2IT    C4  196   0.821   4.476   4.321
    6X2IT    C5  197   0.957   4.448   4.377
    6X2IT    O1  198   1.058   4.476   4.310
    6X2IT    C6  199   0.961   4.387   4.508
    6X2IT   C12  200   1.096   4.357   4.571
    6X2IT    C7  201   0.843   4.355   4.572
    6X2IT    C8  202   0.705   4.383   4.513
    6X2IT    O2  203   0.605   4.354   4.581
    6X2IT    N3  204   0.837   4.297   4.693
    6X2IT   H15  205   0.919   4.273   4.747
    6X2IT   H16  206   0.744   4.279   4.731
    6X2IT    N2  207   0.799   4.528   4.197
    6X2IT    C3  208   0.879   4.629   4.126
    6X2IT    C2  209   0.778   4.740   4.104
    6X2IT    H2  210   0.795   4.815   4.027
    6X2IT    N1  211   0.709   4.780   4.230
    6X2IT   H14  212   0.671   4.874   4.219
    6X2IT    C1  213   0.641   4.690   4.134
    6X2IT    H1  214   0.553   4.722   4.081
    6X2IT   C11  215   0.653   4.543   4.171
    6X2IT    O3  216   0.613   4.474   4.054
    6X2IT   C15  217   0.649   4.336   4.043
    7X2IT   H18  218   0.334   3.466   2.303
    7X2IT    N4  219   0.346   3.369   2.277
    7X2IT   H17  220   0.439   3.331   2.283
    7X2IT   C14  221   0.238   3.287   2.299
    7X2IT    O5  222   0.124   3.325   2.319
    7X2IT    O4  223   0.277   3.157   2.289
    7X2IT   C13  224   0.172   3.058   2.303
    7X2IT   C10  225   0.098   3.036   2.170
    7X2IT    C9  226  -0.009   2.929   2.179
    7X2IT    C4  227   0.017   2.829   2.086
    7X2IT    C5  228  -0.069   2.707   2.069
    7X2IT    O1  229  -0.041   2.625   1.981
    7X2IT    C6  230  -0.182   2.695   2.158
    7X2IT   C12  231  -0.272   2.574   2.146
    7X2IT    C7  232  -0.208   2.795   2.249
    7X2IT    C8  233  -0.120   2.919   2.266
    7X2IT    O2  234  -0.150   3.001   2.354
    7X2IT    N3  235  -0.311   2.793   2.335
    7X2IT   H15  236  -0.378   2.718   2.339
    7X2IT   H16  237  -0.320   2.872   2.400
    7X2IT    N2  238   0.124   2.859   2.008
    7X2IT    C3  239   0.221   2.765   1.949
    7X2IT    C2  240   0.352   2.813   2.009
    7X2IT    H2  241   0.447   2.787   1.962
    7X2IT    N1  242   0.345   2.824   2.157
    7X2IT   H14  243   0.440   2.822   2.196
    7X2IT    C1  244   0.331   2.946   2.074
    7X2IT    H1  245   0.407   3.023   2.075
    7X2IT   C11  246   0.187   2.987   2.050
    7X2IT    O3  247   0.194   3.080   1.944
    7X2IT   C15  248   0.073   3.108   1.873
    8X2IT   H18  249   4.942   2.643   4.347
    8X2IT    N4  250   4.900   2.616   4.260
    8X2IT   H17  251   4.799   2.615   4.257
    8X2IT   C14  252   4.970   2.644   4.147
    8X2IT    O5  253   5.089   2.674   4.143
    8X2IT    O4  254   4.889   2.632   4.037
    8X2IT   C13  255   4.952   2.653   3.909
    8X2IT   C10  256   5.023   2.525   3.860
    8X2IT    C9  257   5.085   2.541   3.722
    8X2IT    C4  258   5.033   2.447   3.636
    8X2IT    C5  259   5.072   2.435   3.491
    8X2IT    O1  260   5.023   2.345   3.422
    8X2IT    C6  261   5.166   2.532   3.442
    8X2IT   C12  262   5.210   2.526   3.297
    8X2IT    C7  263   5.219   2.626   3.529
    8X2IT    C8  264   5.179   2.636   3.676
    8X2IT    O2  265   5.229   2.727   3.744
    8X2IT    N3  266   5.309   2.719   3.493
    8X2IT   H15  267   5.345   2.727   3.399
    8X2IT   H16  268   5.340   2.784   3.565
    8X2IT    N2  269   4.949   2.360   3.699
    8X2IT    C3  270   4.829   2.294   3.644
    8X2IT    C2  271   4.719   2.345   3.736
    8X2IT    H2  272   4.625   2.290   3.743
    8X2IT    N1  273   4.719   2.493   3.747
    8X2IT   H14  274   4.627   2.524   3.779
    8X2IT    C1  275   4.780   2.411   3.854
    8X2IT    H1  276   4.736   2.408   3.953
    8X2IT   C11  277   4.931   2.399   3.842
    8X2IT    O3  278   4.964   2.293   3.930
    8X2IT   C15  279   5.093   2.232   3.912
    9X2IT   H18  280   4.165   3.854   4.196
    9X2IT    N4  281   4.092   3.875   4.131
    9X2IT   H17  282   4.028   3.800   4.108
    9X2IT   C14  283   4.046   4.004   4.130
    9X2IT    O5  284   4.104   4.099   4.179
    9X2IT    O4  285   3.928   4.012   4.062
    9X2IT   C13  286   3.872   4.144   4.047
    9X2IT   C10  287   3.934   4.219   3.928
    9X2IT    C9  288   3.873   4.355   3.905
    9X2IT    C4  289   3.822   4.363   3.777
    9X2IT    C5  290   3.753   4.484   3.722
    9X2IT    O1  291   3.713   4.484   3.604
    9X2IT    C6  292   3.738   4.596   3.811
    9X2IT   C12  293   3.669   4.722   3.762
    9X2IT    C7  294   3.790   4.589   3.939
    9X2IT    C8  295   3.861   4.465   3.994
    9X2IT    O2  296   3.900   4.467   4.112
    9X2IT    N3  297   3.783   4.688   4.029
    9X2IT   H15  298   3.738   4.776   4.010
    9X2IT   H16  299   3.824   4.671   4.121
    9X2IT    N2  300   3.848   4.251   3.704
    9X2IT    C3  301   3.765   4.190   3.600
    9X2IT    C2  302   3.738   4.051   3.657
    9X2IT    H2  303   3.708   3.970   3.590
    9X2IT    N1  304   3.685   4.056   3.795
    9X2IT   H14  305   3.637   3.969   3.816
    9X2IT    C1  306   3.828   4.027   3.772
    9X2IT    H1  307   3.869   3.930   3.796
    9X2IT   C11  308   3.917   4.149   3.788
    9X2IT    O3  309   4.041   4.109   3.731
    9X2IT   C15  310   4.133   4.213   3.695
   10X2IT   H18  311   1.387   3.867   0.999
   10X2IT    N4  312   1.453   3.936   0.967
   10X2IT   H17  313   1.472   3.939   0.868
   10X2IT   C14  314   1.459   4.051   1.041
   10X2IT    O5  315   1.414   4.066   1.153
   10X2IT    O4  316   1.528   4.146   0.971
   10X2IT   C13  317   1.548   4.272   1.039
   10X2IT   C10  318   1.670   4.266   1.133
   10X2IT    C9  319   1.699   4.398   1.201
   10X2IT    C4  320   1.827   4.440   1.171
   10X2IT    C5  321   1.888   4.567   1.222
   10X2IT    O1  322   2.005   4.595   1.193
   10X2IT    C6  323   1.803   4.651   1.304
   10X2IT   C12  324   1.858   4.781   1.358
   10X2IT    C7  325   1.675   4.608   1.334
   10X2IT    C8  326   1.615   4.478   1.283
   10X2IT    O2  327   1.497   4.452   1.313
   10X2IT    N3  328   1.590   4.678   1.411
   10X2IT   H15  329   1.612   4.767   1.452
   10X2IT   H16  330   1.497   4.638   1.426
   10X2IT    N2  331   1.895   4.348   1.097
   10X2IT    C3  332   1.997   4.373   0.994
   10X2IT    C2  333   1.934   4.309   0.871
   10X2IT    H2  334   1.997   4.281   0.786
   10X2IT    N1  335   1.796   4.358   0.847
   10X2IT   H14  336   1.771   4.342   0.749
   10X2IT    C1  337   1.817   4.227   0.912
   10X2IT    H1  338   1.789   4.135   0.861
   10X2IT   C11  339   1.807   4.233   1.063
   10X2IT    O3  340   1.862   4.110   1.106
   10X2IT   C15  341   1.902   4.100   1.243
   11X2IT   H18  342   0.240   4.216  -0.152
   11X2IT    N4  343   0.213   4.152  -0.079
   11X2IT   H17  344   0.159   4.071  -0.106
   11X2IT   C14  345   0.297   4.144   0.028
   11X2IT    O5  346   0.384   4.224   0.055
   11X2IT    O4  347   0.266   4.034   0.103
   11X2IT   C13  348   0.343   4.016   0.224
   11X2IT   C10  349   0.286   4.099   0.340
   11X2IT    C9  350   0.360   4.078   0.470
   11X2IT    C4  351   0.272   4.034   0.567
   11X2IT    C5  352   0.313   4.002   0.708
   11X2IT    O1  353   0.227   3.966   0.790
   11X2IT    C6  354   0.453   4.016   0.740
   11X2IT   C12  355   0.501   3.985   0.880
   11X2IT    C7  356   0.540   4.061   0.643
   11X2IT    C8  357   0.497   4.094   0.499
   11X2IT    O2  358   0.585   4.129   0.419
   11X2IT    N3  359   0.672   4.079   0.663
   11X2IT   H15  360   0.717   4.060   0.750
   11X2IT   H16  361   0.727   4.111   0.583
   11X2IT    N2  362   0.144   4.030   0.523
   11X2IT    C3  363   0.038   3.936   0.561
   11X2IT    C2  364   0.002   3.871   0.428
   11X2IT    H2  365  -0.094   3.822   0.416
   11X2IT    N1  366   0.121   3.818   0.358
   11X2IT   H14  367   0.092   3.748   0.290
   11X2IT    C1  368   0.065   3.948   0.318
   11X2IT    H1  369   0.018   3.961   0.221
   11X2IT   C11  370   0.137   4.067   0.379
   11X2IT    O3  371   0.049   4.176   0.357
   11X2IT   C15  372   0.070   4.294   0.435
   12X2IT   H18  373   1.829   2.892   0.652
   12X2IT    N4  374   1.886   2.905   0.733
   12X2IT   H17  375   1.844   2.953   0.812
   12X2IT   C14  376   1.981   2.809   0.756
   12X2IT    O5  377   2.020   2.728   0.674
   12X2IT    O4  378   2.029   2.821   0.883
   12X2IT   C13  379   2.136   2.731   0.920
   12X2IT   C10  380   2.273   2.783   0.872
   12X2IT    C9  381   2.388   2.695   0.915
   12X2IT    C4  382   2.478   2.767   0.990
   12X2IT    C5  383   2.604   2.709   1.049
   12X2IT    O1  384   2.681   2.782   1.112
   12X2IT    C6  385   2.626   2.568   1.025
   12X2IT   C12  386   2.751   2.503   1.082
   12X2IT    C7  387   2.536   2.496   0.949
   12X2IT    C8  388   2.409   2.557   0.889
   12X2IT    O2  389   2.333   2.482   0.826
   12X2IT    N3  390   2.550   2.366   0.920
   12X2IT   H15  391   2.627   2.310   0.953
   12X2IT   H16  392   2.476   2.322   0.864
   12X2IT    N2  393   2.445   2.898   0.999
   12X2IT    C3  394   2.467   2.990   1.111
   12X2IT    C2  395   2.325   3.033   1.147
   12X2IT    H2  396   2.309   3.124   1.204
   12X2IT    N1  397   2.236   2.917   1.168
   12X2IT   H14  398   2.155   2.946   1.224
   12X2IT    C1  399   2.232   2.990   1.040
   12X2IT    H1  400   2.145   3.047   1.011
   12X2IT   C11  401   2.315   2.924   0.930
   12X2IT    O3  402   2.326   3.023   0.830
   12X2IT   C15  403   2.429   3.006   0.732
   13X2IT   H18  404   2.304   2.672   2.269
   13X2IT    N4  405   2.360   2.669   2.186
   13X2IT   H17  406   2.434   2.737   2.177
   13X2IT   C14  407   2.376   2.546   2.128
   13X2IT    O5  408   2.307   2.448   2.151
   13X2IT    O4  409   2.477   2.551   2.036
   13X2IT   C13  410   2.501   2.429   1.962
   13X2IT   C10  411   2.406   2.417   1.842
   13X2IT    C9  412   2.432   2.294   1.758
   13X2IT    C4  413   2.459   2.331   1.627
   13X2IT    C5  414   2.491   2.234   1.517
   13X2IT    O1  415   2.510   2.276   1.402
   13X2IT    C6  416   2.495   2.095   1.554
   13X2IT   C12  417   2.527   1.991   1.448
   13X2IT    C7  418   2.467   2.058   1.684
   13X2IT    C8  419   2.434   2.158   1.795
   13X2IT    O2  420   2.415   2.114   1.910
   13X2IT    N3  421   2.467   1.931   1.727
   13X2IT   H15  422   2.489   1.852   1.668
   13X2IT   H16  423   2.446   1.915   1.826
   13X2IT    N2  424   2.446   2.465   1.608
   13X2IT    C3  425   2.523   2.552   1.517
   13X2IT    C2  426   2.587   2.651   1.612
   13X2IT    H2  427   2.623   2.747   1.575
   13X2IT    N1  428   2.659   2.584   1.723
   13X2IT   H14  429   2.728   2.649   1.763
   13X2IT    C1  430   2.524   2.639   1.746
   13X2IT    H1  431   2.509   2.723   1.813
   13X2IT   C11  432   2.414   2.534   1.737
   13X2IT    O3  433   2.295   2.610   1.728
   13X2IT   C15  434   2.178   2.542   1.679
   14X2IT   H18  435   1.307   1.000   5.206
   14X2IT    N4  436   1.370   1.044   5.142
   14X2IT   H17  437   1.440   1.106   5.181
   14X2IT   C14  438   1.400   0.974   5.029
   14X2IT    O5  439   1.337   0.879   4.986
   14X2IT    O4  440   1.509   1.030   4.967
   14X2IT   C13  441   1.548   0.970   4.842
   14X2IT   C10  442   1.465   1.026   4.725
   14X2IT    C9  443   1.508   0.971   4.590
   14X2IT    C4  444   1.545   1.074   4.506
   14X2IT    C5  445   1.593   1.054   4.365
   14X2IT    O1  446   1.620   1.153   4.296
   14X2IT    C6  447   1.604   0.918   4.320
   14X2IT   C12  448   1.653   0.890   4.179
   14X2IT    C7  449   1.567   0.815   4.404
   14X2IT    C8  450   1.517   0.836   4.547
   14X2IT    O2  451   1.490   0.736   4.615
   14X2IT    N3  452   1.572   0.685   4.370
   14X2IT   H15  453   1.604   0.653   4.280
   14X2IT   H16  454   1.543   0.617   4.440
   14X2IT    N2  455   1.524   1.196   4.563
   14X2IT    C3  456   1.603   1.319   4.543
   14X2IT    C2  457   1.651   1.349   4.685
   14X2IT    H2  458   1.683   1.450   4.710
   14X2IT    N1  459   1.717   1.233   4.748
   14X2IT   H14  460   1.777   1.265   4.824
   14X2IT    C1  461   1.577   1.264   4.781
   14X2IT    H1  462   1.550   1.297   4.881
   14X2IT   C11  463   1.476   1.181   4.703
   14X2IT    O3  464   1.353   1.248   4.723
   14X2IT   C15  465   1.246   1.218   4.633
   15X2IT   H18  466   5.103   2.193   1.869
   15X2IT    N4  467   5.067   2.110   1.911
   15X2IT   H17  468   5.026   2.041   1.850
   15X2IT   C14  469   5.128   2.069   2.026
   15X2IT    O5  470   5.202   2.137   2.095
   15X2IT    O4  471   5.091   1.941   2.056
   15X2IT   C13  472   5.143   1.886   2.179
   15X2IT   C10  473   5.058   1.929   2.300
   15X2IT    C9  474   5.106   1.868   2.430
   15X2IT    C4  475   5.004   1.795   2.488
   15X2IT    C5  476   5.018   1.720   2.618
   15X2IT    O1  477   4.920   1.661   2.665
   15X2IT    C6  478   5.147   1.725   2.681
   15X2IT   C12  479   5.168   1.652   2.812
   15X2IT    C7  480   5.249   1.799   2.623
   15X2IT    C8  481   5.233   1.875   2.491
   15X2IT    O2  482   5.332   1.934   2.446
   15X2IT    N3  483   5.372   1.810   2.675
   15X2IT   H15  484   5.400   1.765   2.761
   15X2IT   H16  485   5.440   1.866   2.623
   15X2IT    N2  486   4.888   1.805   2.419
   15X2IT    C3  487   4.783   1.703   2.403
   15X2IT    C2  488   4.779   1.683   2.252
   15X2IT    H2  489   4.691   1.639   2.205
   15X2IT    N1  490   4.914   1.655   2.196
   15X2IT   H14  491   4.904   1.609   2.105
   15X2IT    C1  492   4.857   1.791   2.186
   15X2IT    H1  493   4.830   1.833   2.090
   15X2IT   C11  494   4.907   1.885   2.295
   15X2IT    O3  495   4.818   1.995   2.289
   15X2IT   C15  496   4.814   2.083   2.402
   16X2IT   H18  497   4.599   1.134   1.866
   16X2IT    N4  498   4.550   1.155   1.781
   16X2IT   H17  499   4.501   1.244   1.777
   16X2IT   C14  500   4.603   1.103   1.666
   16X2IT    O5  501   4.684   1.013   1.661
   16X2IT    O4  502   4.547   1.165   1.558
   16X2IT   C13  503   4.588   1.115   1.429
   16X2IT   C10  504   4.508   0.990   1.388
   16X2IT    C9  505   4.543   0.939   1.250
   16X2IT    C4  506   4.431   0.937   1.169
   16X2IT    C5  507   4.431   0.893   1.026
   16X2IT    O1  508   4.325   0.891   0.963
   16X2IT    C6  509   4.559   0.853   0.971
   16X2IT   C12  510   4.566   0.807   0.827
   16X2IT    C7  511   4.671   0.854   1.052
   16X2IT    C8  512   4.669   0.899   1.198
   16X2IT    O2  513   4.777   0.900   1.260
   16X2IT    N3  514   4.793   0.818   1.011
   16X2IT   H15  515   4.813   0.787   0.917
   16X2IT   H16  516   4.869   0.824   1.079
   16X2IT    N2  517   4.319   0.973   1.237
   16X2IT    C3  518   4.201   1.045   1.186
   16X2IT    C2  519   4.199   1.169   1.274
   16X2IT    H2  520   4.106   1.226   1.285
   16X2IT    N1  521   4.329   1.239   1.276
   16X2IT   H14  522   4.315   1.336   1.305
   16X2IT    C1  523   4.292   1.151   1.388
   16X2IT    H1  524   4.273   1.191   1.487
   16X2IT   C11  525   4.352   1.011   1.377
   16X2IT    O3  526   4.280   0.935   1.472
   16X2IT   C15  527   4.285   0.792   1.459
   17X2IT   H18  528   3.066   4.930   5.165
   17X2IT    N4  529   3.108   4.988   5.095
   17X2IT   H17  530   3.175   5.057   5.126
   17X2IT   C14  531   3.123   4.932   4.971
   17X2IT    O5  532   3.067   4.831   4.932
   17X2IT    O4  533   3.208   5.008   4.896
   17X2IT   C13  534   3.229   4.964   4.760
   17X2IT   C10  535   3.117   5.014   4.667
   17X2IT    C9  536   3.139   4.976   4.522
   17X2IT    C4  537   3.142   5.089   4.443
   17X2IT    C5  538   3.163   5.087   4.294
   17X2IT    O1  539   3.161   5.193   4.231
   17X2IT    C6  540   3.183   4.957   4.234
   17X2IT   C12  541   3.205   4.948   4.084
   17X2IT    C7  542   3.179   4.844   4.313
   17X2IT    C8  543   3.157   4.847   4.464
   17X2IT    O2  544   3.159   4.740   4.526
   17X2IT    N3  545   3.194   4.719   4.266
   17X2IT   H15  546   3.212   4.699   4.169
   17X2IT   H16  547   3.191   4.643   4.334
   17X2IT    N2  548   3.117   5.202   4.514
   17X2IT    C3  549   3.172   5.337   4.493
   17X2IT    C2  550   3.243   5.364   4.624
   17X2IT    H2  551   3.266   5.467   4.653
   17X2IT    N1  552   3.336   5.255   4.661
   17X2IT   H14  553   3.406   5.291   4.728
   17X2IT    C1  554   3.203   5.262   4.724
   17X2IT    H1  555   3.193   5.283   4.830
   17X2IT   C11  556   3.101   5.170   4.659
   17X2IT    O3  557   2.977   5.215   4.710
   17X2IT   C15  558   2.859   5.175   4.638
   18X2IT   H18  559   4.751   1.496   0.823
   18X2IT    N4  560   4.723   1.565   0.889
   18X2IT   H17  561   4.659   1.636   0.857
   18X2IT   C14  562   4.719   1.526   1.020
   18X2IT    O5  563   4.772   1.426   1.065
   18X2IT    O4  564   4.651   1.618   1.094
   18X2IT   C13  565   4.644   1.593   1.236
   18X2IT   C10  566   4.771   1.643   1.308
   18X2IT    C9  567   4.764   1.625   1.458
   18X2IT    C4  568   4.780   1.746   1.522
   18X2IT    C5  569   4.778   1.764   1.671
   18X2IT    O1  570   4.797   1.877   1.719
   18X2IT    C6  571   4.755   1.645   1.750
   18X2IT   C12  572   4.752   1.656   1.901
   18X2IT    C7  573   4.741   1.523   1.686
   18X2IT    C8  574   4.744   1.507   1.534
   18X2IT    O2  575   4.725   1.393   1.488
   18X2IT    N3  576   4.721   1.407   1.751
   18X2IT   H15  577   4.714   1.401   1.851
   18X2IT   H16  578   4.710   1.323   1.693
   18X2IT    N2  579   4.805   1.847   1.434
   18X2IT    C3  580   4.765   1.988   1.444
   18X2IT    C2  581   4.680   2.006   1.319
   18X2IT    H2  582   4.662   2.106   1.280
   18X2IT    N1  583   4.574   1.903   1.308
   18X2IT   H14  584   4.500   1.937   1.246
   18X2IT    C1  585   4.698   1.889   1.229
   18X2IT    H1  586   4.697   1.897   1.121
   18X2IT   C11  587   4.800   1.797   1.294
   18X2IT    O3  588   4.920   1.823   1.224
   18X2IT   C15  589   5.043   1.781   1.285
   19X2IT   H18  590   2.125   1.633   0.884
   19X2IT    N4  591   2.220   1.667   0.878
   19X2IT   H17  592   2.232   1.763   0.850
   19X2IT   C14  593   2.311   1.610   0.962
   19X2IT    O5  594   2.294   1.505   1.022
   19X2IT    O4  595   2.424   1.685   0.966
   19X2IT   C13  596   2.532   1.633   1.046
   19X2IT   C10  597   2.615   1.528   0.969
   19X2IT    C9  598   2.733   1.476   1.047
   19X2IT    C4  599   2.850   1.500   0.978
   19X2IT    C5  600   2.987   1.461   1.028
   19X2IT    O1  601   3.086   1.483   0.957
   19X2IT    C6  602   2.992   1.399   1.158
   19X2IT   C12  603   3.126   1.358   1.215
   19X2IT    C7  604   2.875   1.375   1.227
   19X2IT    C8  605   2.736   1.414   1.174
   19X2IT    O2  606   2.638   1.391   1.247
   19X2IT    N3  607   2.870   1.316   1.348
   19X2IT   H15  608   2.951   1.285   1.398
   19X2IT   H16  609   2.777   1.304   1.390
   19X2IT    N2  610   2.827   1.554   0.856
   19X2IT    C3  611   2.912   1.650   0.782
   19X2IT    C2  612   2.818   1.769   0.766
   19X2IT    H2  613   2.838   1.843   0.688
   19X2IT    N1  614   2.758   1.812   0.894
   19X2IT   H14  615   2.726   1.909   0.886
   19X2IT    C1  616   2.680   1.728   0.801
   19X2IT    H1  617   2.592   1.768   0.752
   19X2IT   C11  618   2.682   1.580   0.836
   19X2IT    O3  619   2.632   1.517   0.720
   19X2IT   C15  620   2.657   1.376   0.706
   20X2IT   H18  621   1.410   5.036   2.841
   20X2IT    N4  622   1.490   5.029   2.780
   20X2IT   H17  623   1.541   5.114   2.761
   20X2IT   C14  624   1.558   4.910   2.783
   20X2IT    O5  625   1.516   4.806   2.829
   20X2IT    O4  626   1.680   4.925   2.722
   20X2IT   C13  627   1.760   4.806   2.711
   20X2IT   C10  628   1.719   4.721   2.589
   20X2IT    C9  629   1.806   4.599   2.570
   20X2IT    C4  630   1.865   4.601   2.445
   20X2IT    C5  631   1.958   4.495   2.395
   20X2IT    O1  632   2.004   4.503   2.280
   20X2IT    C6  633   1.987   4.386   2.485
   20X2IT   C12  634   2.081   4.276   2.441
   20X2IT    C7  635   1.927   4.383   2.610
   20X2IT    C8  636   1.832   4.492   2.660
   20X2IT    O2  637   1.787   4.482   2.775
   20X2IT    N3  638   1.947   4.286   2.700
   20X2IT   H15  639   2.008   4.208   2.684
   20X2IT   H16  640   1.898   4.295   2.790
   20X2IT    N2  641   1.823   4.707   2.371
   20X2IT    C3  642   1.900   4.783   2.271
   20X2IT    C2  643   1.898   4.924   2.329
   20X2IT    H2  644   1.917   5.009   2.264
   20X2IT    N1  645   1.943   4.927   2.470
   20X2IT   H14  646   1.973   5.022   2.494
   20X2IT    C1  647   1.798   4.930   2.439
   20X2IT    H1  648   1.739   5.018   2.460
   20X2IT   C11  649   1.732   4.794   2.450
   20X2IT    O3  650   1.607   4.811   2.385
   20X2IT   C15  651   1.537   4.693   2.344
   21X2IT   H18  652   0.143   3.155   1.205
   21X2IT    N4  653   0.224   3.204   1.172
   21X2IT   H17  654   0.273   3.262   1.239
   21X2IT   C14  655   0.294   3.145   1.071
   21X2IT    O5  656   0.253   3.055   1.000
   21X2IT    O4  657   0.416   3.205   1.057
   21X2IT   C13  658   0.499   3.157   0.949
   21X2IT   C10  659   0.462   3.224   0.816
   21X2IT    C9  660   0.551   3.182   0.701
   21X2IT    C4  661   0.612   3.293   0.645
   21X2IT    C5  662   0.708   3.286   0.530
   21X2IT    O1  663   0.756   3.391   0.484
   21X2IT    C6  664   0.739   3.154   0.479
   21X2IT   C12  665   0.835   3.140   0.363
   21X2IT    C7  666   0.677   3.044   0.534
   21X2IT    C8  667   0.578   3.052   0.652
   21X2IT    O2  668   0.532   2.946   0.696
   21X2IT    N3  669   0.697   2.918   0.493
   21X2IT   H15  670   0.760   2.894   0.418
   21X2IT   H16  671   0.647   2.844   0.542
   21X2IT    N2  672   0.570   3.409   0.701
   21X2IT    C3  673   0.646   3.533   0.723
   21X2IT    C2  674   0.640   3.549   0.874
   21X2IT    H2  675   0.658   3.647   0.918
   21X2IT    N1  676   0.683   3.427   0.945
   21X2IT   H14  677   0.711   3.451   1.041
   21X2IT    C1  678   0.539   3.456   0.929
   21X2IT    H1  679   0.477   3.479   1.015
   21X2IT   C11  680   0.475   3.381   0.813
   21X2IT    O3  681   0.351   3.447   0.794
   21X2IT   C15  682   0.284   3.426   0.669
   22X2IT   H18  683   3.822   4.422   1.731
   22X2IT    N4  684   3.770   4.483   1.791
   22X2IT   H17  685   3.670   4.489   1.776
   22X2IT   C14  686   3.819   4.499   1.918
   22X2IT    O5  687   3.932   4.469   1.954
   22X2IT    O4  688   3.725   4.557   1.997
   22X2IT   C13  689   3.765   4.586   2.133
   22X2IT   C10  690   3.842   4.720   2.141
   22X2IT    C9  691   3.880   4.758   2.282
   22X2IT    C4  692   3.826   4.881   2.315
   22X2IT    C5  693   3.844   4.947   2.449
   22X2IT    O1  694   3.795   5.060   2.468
   22X2IT    C6  695   3.920   4.874   2.547
   22X2IT   C12  696   3.942   4.936   2.684
   22X2IT    C7  697   3.975   4.752   2.514
   22X2IT    C8  698   3.956   4.685   2.378
   22X2IT    O2  699   4.006   4.573   2.360
   22X2IT    N3  700   4.048   4.677   2.598
   22X2IT   H15  701   4.068   4.705   2.693
   22X2IT   H16  702   4.082   4.587   2.564
   22X2IT    N2  703   3.762   4.938   2.210
   22X2IT    C3  704   3.643   5.025   2.213
   22X2IT    C2  705   3.543   4.946   2.130
   22X2IT    H2  706   3.458   4.997   2.086
   22X2IT    N1  707   3.529   4.806   2.177
   22X2IT   H14  708   3.440   4.768   2.144
   22X2IT    C1  709   3.613   4.836   2.059
   22X2IT    H1  710   3.585   4.802   1.961
   22X2IT   C11  711   3.761   4.846   2.093
   22X2IT    O3  712   3.818   4.907   1.978
   22X2IT   C15  713   3.948   4.966   1.993
   23X2IT   H18  714   3.792   1.212   1.309
   23X2IT    N4  715   3.840   1.230   1.396
   23X2IT   H17  716   3.885   1.320   1.405
   23X2IT   C14  717   3.790   1.168   1.507
   23X2IT    O5  718   3.713   1.074   1.506
   23X2IT    O4  719   3.844   1.225   1.619
   23X2IT   C13  720   3.805   1.165   1.745
   23X2IT   C10  721   3.891   1.041   1.777
   23X2IT    C9  722   3.859   0.980   1.911
   23X2IT    C4  723   3.972   0.977   1.991
   23X2IT    C5  724   3.974   0.923   2.131
   23X2IT    O1  725   4.081   0.921   2.194
   23X2IT    C6  726   3.849   0.874   2.184
   23X2IT   C12  727   3.844   0.819   2.324
   23X2IT    C7  728   3.736   0.876   2.103
   23X2IT    C8  729   3.735   0.931   1.960
   23X2IT    O2  730   3.628   0.932   1.899
   23X2IT    N3  731   3.616   0.832   2.143
   23X2IT   H15  732   3.598   0.794   2.234
   23X2IT   H16  733   3.539   0.839   2.075
   23X2IT    N2  734   4.082   1.022   1.925
   23X2IT    C3  735   4.197   1.095   1.981
   23X2IT    C2  736   4.194   1.225   1.902
   23X2IT    H2  737   4.283   1.286   1.895
   23X2IT    N1  738   4.060   1.289   1.905
   23X2IT   H14  739   4.070   1.389   1.882
   23X2IT    C1  740   4.100   1.210   1.787
   23X2IT    H1  741   4.117   1.258   1.691
   23X2IT   C11  742   4.046   1.068   1.788
   23X2IT    O3  743   4.121   1.001   1.689
   23X2IT   C15  744   4.122   0.858   1.692
   24X2IT   H18  745   4.352   1.653   2.117
   24X2IT    N4  746   4.432   1.595   2.133
   24X2IT   H17  747   4.504   1.595   2.062
   24X2IT   C14  748   4.466   1.572   2.263
   24X2IT    O5  749   4.395   1.593   2.359
   24X2IT    O4  750   4.592   1.518   2.269
   24X2IT   C13  751   4.639   1.482   2.401
   24X2IT   C10  752   4.587   1.343   2.443
   24X2IT    C9  753   4.640   1.299   2.578
   24X2IT    C4  754   4.707   1.179   2.565
   24X2IT    C5  755   4.773   1.108   2.680
   24X2IT    O1  756   4.828   0.998   2.660
   24X2IT    C6  757   4.767   1.173   2.809
   24X2IT   C12  758   4.831   1.106   2.929
   24X2IT    C7  759   4.698   1.292   2.821
   24X2IT    C8  760   4.631   1.363   2.704
   24X2IT    O2  761   4.576   1.473   2.726
   24X2IT    N3  762   4.685   1.359   2.937
   24X2IT   H15  763   4.725   1.327   3.024
   24X2IT   H16  764   4.634   1.447   2.934
   24X2IT    N2  765   4.700   1.129   2.439
   24X2IT    C3  766   4.802   1.050   2.368
   24X2IT    C2  767   4.831   1.138   2.247
   24X2IT    H2  768   4.877   1.094   2.158
   24X2IT    N1  769   4.865   1.277   2.285
   24X2IT   H14  770   4.916   1.322   2.209
   24X2IT    C1  771   4.729   1.245   2.237
   24X2IT    H1  772   4.693   1.284   2.143
   24X2IT   C11  773   4.628   1.224   2.349
   24X2IT    O3  774   4.518   1.163   2.286
   24X2IT   C15  775   4.423   1.095   2.370
   25X2IT   H18  776   0.717   1.577   1.708
   25X2IT    N4  777   0.738   1.557   1.804
   25X2IT   H17  778   0.782   1.468   1.823
   25X2IT   C14  779   0.766   1.664   1.884
   25X2IT    O5  780   0.740   1.780   1.857
   25X2IT    O4  781   0.822   1.621   2.001
   25X2IT   C13  782   0.851   1.724   2.098
   25X2IT   C10  783   0.727   1.758   2.182
   25X2IT    C9  784   0.754   1.860   2.290
   25X2IT    C4  785   0.722   1.807   2.414
   25X2IT    C5  786   0.738   1.882   2.544
   25X2IT    O1  787   0.703   1.829   2.650
   25X2IT    C6  788   0.794   2.015   2.535
   25X2IT   C12  789   0.814   2.096   2.661
   25X2IT    C7  790   0.825   2.067   2.411
   25X2IT    C8  791   0.808   1.990   2.280
   25X2IT    O2  792   0.843   2.046   2.174
   25X2IT    N3  793   0.876   2.190   2.392
   25X2IT   H15  794   0.896   2.254   2.468
   25X2IT   H16  795   0.897   2.218   2.296
   25X2IT    N2  796   0.667   1.684   2.405
   25X2IT    C3  797   0.679   1.572   2.500
   25X2IT    C2  798   0.742   1.464   2.414
   25X2IT    H2  799   0.734   1.359   2.444
   25X2IT    N1  800   0.865   1.511   2.345
   25X2IT   H14  801   0.922   1.431   2.318
   25X2IT    C1  802   0.737   1.504   2.271
   25X2IT    H1  803   0.724   1.434   2.190
   25X2IT   C11  804   0.665   1.638   2.263
   25X2IT    O3  805   0.534   1.604   2.220
   25X2IT   C15  806   0.431   1.702   2.240
   26X2IT   H18  807   3.608   3.645   1.546
   26X2IT    N4  808   3.644   3.560   1.586
   26X2IT   H17  809   3.723   3.569   1.649
   26X2IT   C14  810   3.555   3.459   1.605
   26X2IT    O5  811   3.444   3.452   1.553
   26X2IT    O4  812   3.608   3.364   1.686
   26X2IT   C13  813   3.527   3.247   1.710
   26X2IT   C10  814   3.541   3.144   1.596
   26X2IT    C9  815   3.463   3.017   1.620
   26X2IT    C4  816   3.548   2.908   1.619
   26X2IT    C5  817   3.502   2.767   1.640
   26X2IT    O1  818   3.584   2.674   1.634
   26X2IT    C6  819   3.361   2.748   1.667
   26X2IT   C12  820   3.309   2.607   1.690
   26X2IT    C7  821   3.277   2.857   1.667
   26X2IT    C8  822   3.324   3.000   1.644
   26X2IT    O2  823   3.240   3.091   1.651
   26X2IT    N3  824   3.145   2.849   1.688
   26X2IT   H15  825   3.097   2.762   1.707
   26X2IT   H16  826   3.092   2.936   1.688
   26X2IT    N2  827   3.675   2.943   1.588
   26X2IT    C3  828   3.800   2.881   1.636
   26X2IT    C2  829   3.868   2.998   1.706
   26X2IT    H2  830   3.976   2.995   1.724
   26X2IT    N1  831   3.780   3.065   1.804
   26X2IT   H14  832   3.837   3.117   1.871
   26X2IT    C1  833   3.799   3.124   1.670
   26X2IT    H1  834   3.851   3.219   1.658
   26X2IT   C11  835   3.688   3.090   1.572
   26X2IT    O3  836   3.740   3.126   1.446
   26X2IT   C15  837   3.676   3.071   1.330
   27X2IT   H18  838   1.203   2.769   3.521
   27X2IT    N4  839   1.213   2.821   3.606
   27X2IT   H17  840   1.144   2.892   3.625
   27X2IT   C14  841   1.270   2.755   3.711
   27X2IT    O5  842   1.334   2.652   3.703
   27X2IT    O4  843   1.250   2.825   3.827
   27X2IT   C13  844   1.311   2.771   3.945
   27X2IT   C10  845   1.459   2.813   3.957
   27X2IT    C9  846   1.525   2.764   4.084
   27X2IT    C4  847   1.574   2.871   4.156
   27X2IT    C5  848   1.645   2.857   4.288
   27X2IT    O1  849   1.689   2.958   4.344
   27X2IT    C6  850   1.658   2.724   4.340
   27X2IT   C12  851   1.728   2.703   4.473
   27X2IT    C7  852   1.610   2.617   4.267
   27X2IT    C8  853   1.538   2.632   4.133
   27X2IT    O2  854   1.495   2.529   4.078
   27X2IT    N3  855   1.619   2.489   4.307
   27X2IT   H15  856   1.661   2.461   4.394
   27X2IT   H16  857   1.578   2.418   4.246
   27X2IT    N2  858   1.558   2.989   4.091
   27X2IT    C3  859   1.533   3.122   4.149
   27X2IT    C2  860   1.399   3.159   4.087
   27X2IT    H2  861   1.369   3.264   4.083
   27X2IT    N1  862   1.297   3.054   4.106
   27X2IT   H14  863   1.204   3.095   4.095
   27X2IT    C1  864   1.368   3.065   3.977
   27X2IT    H1  865   1.315   3.095   3.887
   27X2IT   C11  866   1.484   2.968   3.963
   27X2IT    O3  867   1.557   3.017   3.852
   27X2IT   C15  868   1.692   2.972   3.837
   28X2IT   H18  869   4.679   4.519   1.250
   28X2IT    N4  870   4.772   4.551   1.267
   28X2IT   H17  871   4.841   4.482   1.293
   28X2IT   C14  872   4.811   4.662   1.196
   28X2IT    O5  873   4.736   4.738   1.138
   28X2IT    O4  874   4.947   4.677   1.205
   28X2IT   C13  875   5.002   4.794   1.140
   28X2IT   C10  876   4.992   4.918   1.231
   28X2IT    C9  877   5.055   5.041   1.170
   28X2IT    C4  878   5.154   5.090   1.253
   28X2IT    C5  879   5.237   5.211   1.222
   28X2IT    O1  880   5.321   5.250   1.304
   28X2IT    C6  881   5.211   5.276   1.095
   28X2IT   C12  882   5.292   5.398   1.057
   28X2IT    C7  883   5.112   5.227   1.013
   28X2IT    C8  884   5.027   5.104   1.046
   28X2IT    O2  885   4.943   5.067   0.963
   28X2IT    N3  886   5.079   5.282   0.895
   28X2IT   H15  887   5.126   5.362   0.856
   28X2IT   H16  888   5.005   5.237   0.841
   28X2IT    N2  889   5.162   5.020   1.369
   28X2IT    C3  890   5.282   4.993   1.450
   28X2IT    C2  891   5.285   4.840   1.450
   28X2IT    H2  892   5.342   4.788   1.528
   28X2IT    N1  893   5.277   4.783   1.314
   28X2IT   H14  894   5.314   4.688   1.315
   28X2IT    C1  895   5.156   4.788   1.399
   28X2IT    H1  896   5.111   4.696   1.435
   28X2IT   C11  897   5.066   4.906   1.369
   28X2IT    O3  898   4.978   4.911   1.480
   28X2IT   C15  899   4.906   5.034   1.501
   29X2IT   H18  900   2.370   4.930   3.316
   29X2IT    N4  901   2.288   4.874   3.329
   29X2IT   H17  902   2.252   4.825   3.249
   29X2IT   C14  903   2.272   4.818   3.453
   29X2IT    O5  904   2.332   4.853   3.554
   29X2IT    O4  905   2.177   4.721   3.449
   29X2IT   C13  906   2.145   4.657   3.575
   29X2IT   C10  907   2.043   4.741   3.655
   29X2IT    C9  908   2.002   4.674   3.784
   29X2IT    C4  909   1.865   4.656   3.787
   29X2IT    C5  910   1.791   4.592   3.901
   29X2IT    O1  911   1.667   4.583   3.896
   29X2IT    C6  912   1.871   4.545   4.011
   29X2IT   C12  913   1.802   4.479   4.129
   29X2IT    C7  914   2.008   4.564   4.009
   29X2IT    C8  915   2.082   4.630   3.893
   29X2IT    O2  916   2.205   4.638   3.900
   29X2IT    N3  917   2.090   4.526   4.108
   29X2IT   H15  918   2.058   4.479   4.191
   29X2IT   H16  919   2.190   4.544   4.095
   29X2IT    N2  920   1.804   4.710   3.678
   29X2IT    C3  921   1.684   4.661   3.608
   29X2IT    C2  922   1.736   4.634   3.468
   29X2IT    H2  923   1.667   4.629   3.384
   29X2IT    N1  924   1.857   4.548   3.469
   29X2IT   H14  925   1.868   4.505   3.377
   29X2IT    C1  926   1.871   4.695   3.453
   29X2IT    H1  927   1.907   4.737   3.361
   29X2IT   C11  928   1.905   4.765   3.584
   29X2IT    O3  929   1.881   4.902   3.555
   29X2IT   C15  930   1.867   4.990   3.668
   30X2IT   H18  931   4.794   3.240   4.271
   30X2IT    N4  932   4.829   3.174   4.339
   30X2IT   H17  933   4.905   3.114   4.311
   30X2IT   C14  934   4.819   3.212   4.470
   30X2IT    O5  935   4.748   3.302   4.513
   30X2IT    O4  936   4.896   3.130   4.548
   30X2IT   C13  937   4.889   3.154   4.691
   30X2IT   C10  938   4.768   3.084   4.754
   30X2IT    C9  939   4.761   3.100   4.904
   30X2IT    C4  940   4.761   2.977   4.966
   30X2IT    C5  941   4.756   2.957   5.115
   30X2IT    O1  942   4.752   2.842   5.161
   30X2IT    C6  943   4.755   3.077   5.195
   30X2IT   C12  944   4.751   3.064   5.346
   30X2IT    C7  945   4.755   3.200   5.133
   30X2IT    C8  946   4.759   3.219   4.982
   30X2IT    O2  947   4.763   3.335   4.937
   30X2IT    N3  948   4.752   3.317   5.200
   30X2IT   H15  949   4.751   3.323   5.300
   30X2IT   H16  950   4.754   3.403   5.144
   30X2IT    N2  951   4.757   2.875   4.876
   30X2IT    C3  952   4.818   2.741   4.888
   30X2IT    C2  953   4.913   2.739   4.768
   30X2IT    H2  954   4.948   2.643   4.730
   30X2IT    N1  955   5.002   2.857   4.764
   30X2IT   H14  956   5.084   2.836   4.707
   30X2IT    C1  957   4.882   2.853   4.678
   30X2IT    H1  958   4.891   2.847   4.571
   30X2IT   C11  959   4.763   2.927   4.737
   30X2IT    O3  960   4.653   2.884   4.659
   30X2IT   C15  961   4.522   2.905   4.712
   31X2IT   H18  962   0.253   1.863   0.656
   31X2IT    N4  963   0.346   1.882   0.623
   31X2IT   H17  964   0.372   1.979   0.616
   31X2IT   C14  965   0.441   1.789   0.651
   31X2IT    O5  966   0.419   1.674   0.687
   31X2IT    O4  967   0.565   1.841   0.628
   31X2IT   C13  968   0.677   1.751   0.647
   31X2IT   C10  969   0.701   1.664   0.522
   31X2IT    C9  970   0.821   1.573   0.536
   31X2IT    C4  971   0.911   1.599   0.434
   31X2IT    C5  972   1.042   1.526   0.419
   31X2IT    O1  973   1.115   1.553   0.322
   31X2IT    C6  974   1.073   1.427   0.519
   31X2IT   C12  975   1.204   1.351   0.509
   31X2IT    C7  976   0.982   1.401   0.620
   31X2IT    C8  977   0.849   1.475   0.634
   31X2IT    O2  978   0.777   1.447   0.731
   31X2IT    N3  979   1.002   1.310   0.716
   31X2IT   H15  980   1.085   1.254   0.723
   31X2IT   H16  981   0.928   1.300   0.787
   31X2IT    N2  982   0.865   1.691   0.346
   31X2IT    C3  983   0.942   1.790   0.270
   31X2IT    C2  984   0.881   1.922   0.318
   31X2IT    H2  985   0.892   2.012   0.258
   31X2IT    N1  986   0.879   1.932   0.466
   31X2IT   H14  987   0.871   2.030   0.493
   31X2IT    C1  988   0.756   1.893   0.393
   31X2IT    H1  989   0.670   1.959   0.392
   31X2IT   C11  990   0.732   1.743   0.390
   31X2IT    O3  991   0.633   1.726   0.291
   31X2IT   C15  992   0.616   1.595   0.236
   32X2IT   H18  993   0.785   4.656   2.705
   32X2IT    N4  994   0.701   4.601   2.707
   32X2IT   H17  995   0.702   4.519   2.767
   32X2IT   C14  996   0.584   4.667   2.686
   32X2IT    O5  997   0.573   4.778   2.638
   32X2IT    O4  998   0.478   4.587   2.722
   32X2IT   C13  999   0.347   4.642   2.698
   32X2IT   C10 1000   0.302   4.620   2.553
   32X2IT    C9 1001   0.161   4.669   2.526
   32X2IT    C4 1002   0.082   4.566   2.480
   32X2IT    C5 1003  -0.063   4.580   2.444
   32X2IT    O1 1004  -0.125   4.483   2.400
   32X2IT    C6 1005  -0.121   4.711   2.464
   32X2IT   C12 1006  -0.267   4.733   2.430
   32X2IT    C7 1007  -0.041   4.815   2.509
   32X2IT    C8 1008   0.107   4.799   2.544
   32X2IT    O2 1009   0.167   4.897   2.588
   32X2IT    N3 1010  -0.086   4.940   2.528
   32X2IT   H15 1011  -0.181   4.968   2.512
   32X2IT   H16 1012  -0.019   5.009   2.564
   32X2IT    N2 1013   0.153   4.451   2.463
   32X2IT    C3 1014   0.106   4.312   2.481
   32X2IT    C2 1015   0.200   4.261   2.589
   32X2IT    H2 1016   0.214   4.153   2.602
   32X2IT    N1 1017   0.203   4.350   2.708
   32X2IT   H14 1018   0.236   4.297   2.789
   32X2IT    C1 1019   0.312   4.357   2.608
   32X2IT    H1 1020   0.412   4.326   2.634
   32X2IT   C11 1021   0.294   4.469   2.507
   32X2IT    O3 1022   0.386   4.438   2.404
   32X2IT   C15 1023   0.367   4.502   2.278
   33X2IT   H18 1024   2.555   2.113   0.028
   33X2IT    N4 1025   2.583   2.181   0.097
   33X2IT   H17 1026   2.529   2.185   0.182
   33X2IT   C14 1027   2.716   2.212   0.101
   33X2IT    O5 1028   2.797   2.187   0.013
   33X2IT    O4 1029   2.745   2.279   0.216
   33X2IT   C13 1030   2.881   2.324   0.231
   33X2IT   C10 1031   2.904   2.458   0.158
   33X2IT    C9 1032   3.044   2.512   0.177
   33X2IT    C4 1033   3.039   2.638   0.234
   33X2IT    C5 1034   3.161   2.720   0.267
   33X2IT    O1 1035   3.146   2.834   0.314
   33X2IT    C6 1036   3.289   2.659   0.240
   33X2IT   C12 1037   3.415   2.736   0.271
   33X2IT    C7 1038   3.294   2.534   0.183
   33X2IT    C8 1039   3.169   2.451   0.149
   33X2IT    O2 1040   3.185   2.338   0.101
   33X2IT    N3 1041   3.408   2.470   0.152
   33X2IT   H15 1042   3.499   2.509   0.170
   33X2IT   H16 1043   3.400   2.376   0.111
   33X2IT    N2 1044   2.912   2.682   0.249
   33X2IT    C3 1045   2.858   2.769   0.355
   33X2IT    C2 1046   2.751   2.681   0.417
   33X2IT    H2 1047   2.671   2.726   0.476
   33X2IT    N1 1048   2.803   2.548   0.455
   33X2IT   H14 1049   2.742   2.506   0.526
   33X2IT    C1 1050   2.726   2.563   0.330
   33X2IT    H1 1051   2.629   2.517   0.318
   33X2IT   C11 1052   2.814   2.578   0.207
   33X2IT    O3 1053   2.726   2.624   0.106
   33X2IT   C15 1054   2.785   2.684  -0.010
   34X2IT   H18 1055   1.830   1.897   1.930
   34X2IT    N4 1056   1.814   1.974   1.992
   34X2IT   H17 1057   1.829   1.958   2.091
   34X2IT   C14 1058   1.837   2.099   1.941
   34X2IT    O5 1059   1.847   2.126   1.823
   34X2IT    O4 1060   1.841   2.191   2.043
   34X2IT   C13 1061   1.857   2.328   2.003
   34X2IT   C10 1062   1.723   2.392   1.964
   34X2IT    C9 1063   1.735   2.539   1.928
   34X2IT    C4 1064   1.653   2.614   2.010
   34X2IT    C5 1065   1.642   2.764   2.002
   34X2IT    O1 1066   1.563   2.823   2.077
   34X2IT    C6 1067   1.725   2.829   1.904
   34X2IT   C12 1068   1.719   2.980   1.891
   34X2IT    C7 1069   1.806   2.754   1.821
   34X2IT    C8 1070   1.816   2.601   1.830
   34X2IT    O2 1071   1.895   2.544   1.754
   34X2IT    N3 1072   1.885   2.805   1.726
   34X2IT   H15 1073   1.892   2.904   1.708
   34X2IT   H16 1074   1.942   2.740   1.672
   34X2IT    N2 1075   1.579   2.537   2.093
   34X2IT    C3 1076   1.534   2.568   2.230
   34X2IT    C2 1077   1.597   2.456   2.311
   34X2IT    H2 1078   1.558   2.431   2.409
   34X2IT    N1 1079   1.743   2.444   2.285
   34X2IT   H14 1080   1.787   2.394   2.363
   34X2IT    C1 1081   1.648   2.352   2.219
   34X2IT    H1 1082   1.648   2.246   2.243
   34X2IT   C11 1083   1.613   2.393   2.077
   34X2IT    O3 1084   1.500   2.315   2.045
   34X2IT   C15 1085   1.420   2.357   1.934
   35X2IT   H18 1086   4.788   2.319   2.389
   35X2IT    N4 1087   4.709   2.375   2.414
   35X2IT   H17 1088   4.627   2.369   2.355
   35X2IT   C14 1089   4.693   2.400   2.548
   35X2IT    O5 1090   4.778   2.385   2.633
   35X2IT    O4 1091   4.568   2.450   2.571
   35X2IT   C13 1092   4.539   2.487   2.707
   35X2IT   C10 1093   4.590   2.629   2.739
   35X2IT    C9 1094   4.556   2.675   2.879
   35X2IT    C4 1095   4.482   2.792   2.874
   35X2IT    C5 1096   4.431   2.864   2.995
   35X2IT    O1 1097   4.369   2.970   2.982
   35X2IT    C6 1098   4.459   2.803   3.123
   35X2IT   C12 1099   4.410   2.870   3.250
   35X2IT    C7 1100   4.534   2.686   3.128
   35X2IT    C8 1101   4.586   2.614   3.003
   35X2IT    O2 1102   4.648   2.508   3.019
   35X2IT    N3 1103   4.566   2.623   3.242
   35X2IT   H15 1104   4.539   2.656   3.333
   35X2IT   H16 1105   4.621   2.537   3.234
   35X2IT    N2 1106   4.469   2.838   2.747
   35X2IT    C3 1107   4.355   2.911   2.689
   35X2IT    C2 1108   4.311   2.819   2.576
   35X2IT    H2 1109   4.251   2.858   2.494
   35X2IT    N1 1110   4.290   2.680   2.622
   35X2IT   H14 1111   4.229   2.631   2.556
   35X2IT    C1 1112   4.416   2.716   2.554
   35X2IT    H1 1113   4.439   2.675   2.456
   35X2IT   C11 1114   4.530   2.744   2.650
   35X2IT    O3 1115   4.628   2.807   2.569
   35X2IT   C15 1116   4.731   2.881   2.637
   36X2IT   H18 1117   1.782   1.275   1.234
   36X2IT    N4 1118   1.826   1.358   1.201
   36X2IT   H17 1119   1.907   1.391   1.251
   36X2IT   C14 1120   1.817   1.382   1.066
   36X2IT    O5 1121   1.739   1.328   0.990
   36X2IT    O4 1122   1.905   1.480   1.031
   36X2IT   C13 1123   1.903   1.521   0.892
   36X2IT   C10 1124   1.792   1.625   0.866
   36X2IT    C9 1125   1.790   1.675   0.724
   36X2IT    C4 1126   1.805   1.813   0.722
   36X2IT    C5 1127   1.809   1.895   0.596
   36X2IT    O1 1128   1.819   2.018   0.604
   36X2IT    C6 1129   1.799   1.822   0.472
   36X2IT   C12 1130   1.802   1.899   0.341
   36X2IT    C7 1131   1.783   1.685   0.474
   36X2IT    C8 1132   1.778   1.603   0.603
   36X2IT    O2 1133   1.768   1.479   0.593
   36X2IT    N3 1134   1.770   1.609   0.363
   36X2IT   H15 1135   1.773   1.647   0.270
   36X2IT   H16 1136   1.761   1.508   0.377
   36X2IT    N2 1137   1.809   1.865   0.847
   36X2IT    C3 1138   1.884   1.983   0.893
   36X2IT    C2 1139   1.973   1.924   1.001
   36X2IT    H2 1140   2.017   1.988   1.077
   36X2IT    N1 1141   2.049   1.806   0.953
   36X2IT   H14 1142   2.130   1.791   1.013
   36X2IT    C1 1143   1.927   1.786   1.034
   36X2IT    H1 1144   1.932   1.744   1.133
   36X2IT   C11 1145   1.803   1.758   0.950
   36X2IT    O3 1146   1.696   1.776   1.040
   36X2IT   C15 1147   1.565   1.794   0.983
   37X2IT   H18 1148  -0.514   1.853   3.639
   37X2IT    N4 1149  -0.428   1.803   3.625
   37X2IT   H17 1150  -0.419   1.750   3.539
   37X2IT   C14 1151  -0.316   1.856   3.682
   37X2IT    O5 1152  -0.316   1.941   3.770
   37X2IT    O4 1153  -0.205   1.798   3.630
   37X2IT   C13 1154  -0.078   1.840   3.686
   37X2IT   C10 1155  -0.046   1.764   3.815
   37X2IT    C9 1156   0.088   1.800   3.874
   37X2IT    C4 1157   0.168   1.688   3.885
   37X2IT    C5 1158   0.308   1.689   3.938
   37X2IT    O1 1159   0.370   1.582   3.948
   37X2IT    C6 1160   0.361   1.817   3.976
   37X2IT   C12 1161   0.503   1.826   4.030
   37X2IT    C7 1162   0.282   1.930   3.966
   37X2IT    C8 1163   0.139   1.927   3.912
   37X2IT    O2 1164   0.078   2.035   3.903
   37X2IT    N3 1165   0.322   2.053   4.000
   37X2IT   H15 1166   0.414   2.073   4.036
   37X2IT   H16 1167   0.255   2.130   3.987
   37X2IT    N2 1168   0.101   1.575   3.849
   37X2IT    C3 1169   0.156   1.454   3.785
   37X2IT    C2 1170   0.075   1.447   3.656
   37X2IT    H2 1171   0.068   1.353   3.602
   37X2IT    N1 1172   0.079   1.575   3.581
   37X2IT   H14 1173   0.056   1.557   3.483
   37X2IT    C1 1174  -0.039   1.542   3.664
   37X2IT    H1 1175  -0.135   1.523   3.618
   37X2IT   C11 1176  -0.036   1.607   3.801
   37X2IT    O3 1177  -0.136   1.539   3.874
   37X2IT   C15 1178  -0.132   1.550   4.017
   38X2IT   H18 1179   1.110   3.205   1.359
   38X2IT    N4 1180   1.124   3.155   1.273
   38X2IT   H17 1181   1.061   3.078   1.254
   38X2IT   C14 1182   1.176   3.226   1.168
   38X2IT    O5 1183   1.231   3.334   1.178
   38X2IT    O4 1184   1.161   3.156   1.052
   38X2IT   C13 1185   1.217   3.216   0.934
   38X2IT   C10 1186   1.368   3.185   0.922
   38X2IT    C9 1187   1.430   3.241   0.795
   38X2IT    C4 1188   1.487   3.139   0.722
   38X2IT    C5 1189   1.556   3.159   0.590
   38X2IT    O1 1190   1.608   3.062   0.533
   38X2IT    C6 1191   1.558   3.294   0.539
   38X2IT   C12 1192   1.626   3.322   0.406
   38X2IT    C7 1193   1.502   3.396   0.613
   38X2IT    C8 1194   1.432   3.374   0.747
   38X2IT    O2 1195   1.381   3.472   0.803
   38X2IT    N3 1196   1.500   3.525   0.574
   38X2IT   H15 1197   1.540   3.556   0.487
   38X2IT   H16 1198   1.454   3.592   0.636
   38X2IT    N2 1199   1.480   3.019   0.786
   38X2IT    C3 1200   1.466   2.885   0.727
   38X2IT    C2 1201   1.336   2.836   0.789
   38X2IT    H2 1202   1.314   2.730   0.792
   38X2IT    N1 1203   1.225   2.933   0.771
   38X2IT   H14 1204   1.136   2.885   0.781
   38X2IT    C1 1205   1.297   2.927   0.900
   38X2IT    H1 1206   1.247   2.892   0.989
   38X2IT   C11 1207   1.405   3.033   0.914
   38X2IT    O3 1208   1.482   2.989   1.025
   38X2IT   C15 1209   1.613   3.045   1.040
   39X2IT   H18 1210   3.145   0.676   1.336
   39X2IT    N4 1211   3.157   0.607   1.408
   39X2IT   H17 1212   3.108   0.623   1.495
   39X2IT   C14 1213   3.180   0.479   1.368
   39X2IT    O5 1214   3.215   0.446   1.255
   39X2IT    O4 1215   3.163   0.393   1.472
   39X2IT   C13 1216   3.191   0.254   1.446
   39X2IT   C10 1217   3.341   0.223   1.457
   39X2IT    C9 1218   3.374   0.077   1.437
   39X2IT    C4 1219   3.439   0.027   1.548
   39X2IT    C5 1220   3.484  -0.116   1.561
   39X2IT    O1 1221   3.545  -0.151   1.663
   39X2IT    C6 1222   3.454  -0.204   1.450
   39X2IT   C12 1223   3.497  -0.349   1.457
   39X2IT    C7 1224   3.390  -0.153   1.339
   39X2IT    C8 1225   3.345  -0.007   1.327
   39X2IT    O2 1226   3.284   0.026   1.224
   39X2IT    N3 1227   3.359  -0.226   1.231
   39X2IT   H15 1228   3.380  -0.324   1.223
   39X2IT   H16 1229   3.310  -0.179   1.155
   39X2IT    N2 1230   3.464   0.123   1.641
   39X2IT    C3 1231   3.467   0.109   1.787
   39X2IT    C2 1232   3.358   0.205   1.831
   39X2IT    H2 1233   3.357   0.243   1.934
   39X2IT    N1 1234   3.230   0.181   1.761
   39X2IT   H14 1235   3.153   0.221   1.816
   39X2IT    C1 1236   3.318   0.291   1.717
   39X2IT    H1 1237   3.288   0.394   1.728
   39X2IT   C11 1238   3.405   0.253   1.598
   39X2IT    O3 1239   3.503   0.356   1.593
   39X2IT   C15 1240   3.622   0.329   1.518
   40X2IT   H18 1241   3.478   1.043   3.054
   40X2IT    N4 1242   3.398   1.022   3.111
   40X2IT   H17 1243   3.307   1.036   3.068
   40X2IT   C14 1244   3.413   0.924   3.205
   40X2IT    O5 1245   3.520   0.881   3.244
   40X2IT    O4 1246   3.291   0.885   3.252
   40X2IT   C13 1247   3.292   0.786   3.357
   40X2IT   C10 1248   3.314   0.851   3.495
   40X2IT    C9 1249   3.308   0.752   3.609
   40X2IT    C4 1250   3.210   0.788   3.699
   40X2IT    C5 1251   3.178   0.710   3.823
   40X2IT    O1 1252   3.090   0.751   3.900
   40X2IT    C6 1253   3.254   0.589   3.845
   40X2IT   C12 1254   3.226   0.506   3.968
   40X2IT    C7 1255   3.353   0.554   3.755
   40X2IT    C8 1256   3.385   0.635   3.629
   40X2IT    O2 1257   3.474   0.592   3.554
   40X2IT    N3 1258   3.430   0.445   3.768
   40X2IT   H15 1259   3.421   0.380   3.844
   40X2IT   H16 1260   3.500   0.428   3.695
   40X2IT    N2 1261   3.151   0.906   3.666
   40X2IT    C3 1262   3.011   0.946   3.688
   40X2IT    C2 1263   2.963   0.973   3.546
   40X2IT    H2 1264   2.875   1.035   3.529
   40X2IT    N1 1265   2.990   0.859   3.455
   40X2IT   H14 1266   2.928   0.865   3.374
   40X2IT    C1 1267   3.079   0.977   3.454
   40X2IT    H1 1268   3.084   1.042   3.367
   40X2IT   C11 1269   3.205   0.957   3.537
   40X2IT    O3 1270   3.258   1.088   3.551
   40X2IT   C15 1271   3.354   1.109   3.655
   41X2IT   H18 1272   3.554   1.943   3.798
   41X2IT    N4 1273   3.492   2.017   3.826
   41X2IT   H17 1274   3.403   1.991   3.865
   41X2IT   C14 1275   3.551   2.134   3.867
   41X2IT    O5 1276   3.667   2.165   3.847
   41X2IT    O4 1277   3.459   2.213   3.929
   41X2IT   C13 1278   3.505   2.342   3.973
   41X2IT   C10 1279   3.501   2.445   3.858
   41X2IT    C9 1280   3.543   2.584   3.901
   41X2IT    C4 1281   3.441   2.674   3.875
   41X2IT    C5 1282   3.449   2.820   3.907
   41X2IT    O1 1283   3.354   2.895   3.877
   41X2IT    C6 1284   3.570   2.866   3.970
   41X2IT   C12 1285   3.585   3.013   4.005
   41X2IT    C7 1286   3.672   2.776   3.995
   41X2IT    C8 1287   3.663   2.627   3.962
   41X2IT    O2 1288   3.759   2.555   3.993
   41X2IT    N3 1289   3.789   2.810   4.052
   41X2IT   H15 1290   3.811   2.903   4.082
   41X2IT   H16 1291   3.857   2.734   4.067
   41X2IT    N2 1292   3.336   2.616   3.811
   41X2IT    C3 1293   3.193   2.649   3.823
   41X2IT    C2 1294   3.134   2.518   3.872
   41X2IT    H2 1295   3.027   2.498   3.860
   41X2IT    N1 1296   3.204   2.465   3.991
   41X2IT   H14 1297   3.143   2.400   4.041
   41X2IT    C1 1298   3.235   2.409   3.858
   41X2IT    H1 1299   3.209   2.307   3.834
   41X2IT   C11 1300   3.359   2.469   3.795
   41X2IT    O3 1301   3.351   2.429   3.659
   41X2IT   C15 1302   3.432   2.501   3.565
   42X2IT   H18 1303   4.156   3.862   0.452
   42X2IT    N4 1304   4.143   3.961   0.445
   42X2IT   H17 1305   4.172   4.006   0.359
   42X2IT   C14 1306   4.038   4.014   0.515
   42X2IT    O5 1307   3.977   3.957   0.604
   42X2IT    O4 1308   4.013   4.141   0.473
   42X2IT   C13 1309   3.909   4.212   0.543
   42X2IT   C10 1310   3.961   4.275   0.673
   42X2IT    C9 1311   3.856   4.356   0.746
   42X2IT    C4 1312   3.899   4.486   0.762
   42X2IT    C5 1313   3.818   4.594   0.830
   42X2IT    O1 1314   3.867   4.707   0.844
   42X2IT    C6 1315   3.687   4.556   0.876
   42X2IT   C12 1316   3.600   4.659   0.945
   42X2IT    C7 1317   3.644   4.425   0.861
   42X2IT    C8 1318   3.728   4.317   0.792
   42X2IT    O2 1319   3.678   4.204   0.780
   42X2IT    N3 1320   3.525   4.380   0.902
   42X2IT   H15 1321   3.457   4.439   0.948
   42X2IT   H16 1322   3.503   4.282   0.884
   42X2IT    N2 1323   4.026   4.504   0.717
   42X2IT    C3 1324   4.084   4.625   0.656
   42X2IT    C2 1325   4.127   4.574   0.519
   42X2IT    H2 1326   4.202   4.628   0.462
   42X2IT    N1 1327   4.017   4.505   0.448
   42X2IT   H14 1328   4.037   4.504   0.348
   42X2IT    C1 1329   4.120   4.425   0.517
   42X2IT    H1 1330   4.189   4.364   0.461
   42X2IT   C11 1331   4.078   4.379   0.656
   42X2IT    O3 1332   4.199   4.336   0.716
   42X2IT   C15 1333   4.199   4.323   0.859
   43X2IT   H18 1334   3.095   2.116   1.348
   43X2IT    N4 1335   3.177   2.168   1.375
   43X2IT   H17 1336   3.177   2.209   1.468
   43X2IT   C14 1337   3.296   2.127   1.321
   43X2IT    O5 1338   3.307   2.055   1.223
   43X2IT    O4 1339   3.400   2.184   1.388
   43X2IT   C13 1340   3.532   2.155   1.337
   43X2IT   C10 1341   3.569   2.248   1.220
   43X2IT    C9 1342   3.709   2.226   1.168
   43X2IT    C4 1343   3.782   2.343   1.177
   43X2IT    C5 1344   3.926   2.355   1.135
   43X2IT    O1 1345   3.983   2.465   1.143
   43X2IT    C6 1346   3.989   2.235   1.085
   43X2IT   C12 1347   4.134   2.240   1.041
   43X2IT    C7 1348   3.915   2.118   1.075
   43X2IT    C8 1349   3.768   2.108   1.118
   43X2IT    O2 1350   3.713   1.997   1.109
   43X2IT    N3 1351   3.964   2.002   1.029
   43X2IT   H15 1352   4.059   1.991   0.998
   43X2IT   H16 1353   3.901   1.922   1.027
   43X2IT    N2 1354   3.707   2.447   1.222
   43X2IT    C3 1355   3.751   2.561   1.304
   43X2IT    C2 1356   3.662   2.547   1.427
   43X2IT    H2 1357   3.645   2.633   1.492
   43X2IT    N1 1358   3.667   2.411   1.486
   43X2IT   H14 1359   3.636   2.415   1.583
   43X2IT    C1 1360   3.554   2.449   1.399
   43X2IT    H1 1361   3.454   2.458   1.440
   43X2IT   C11 1362   3.569   2.402   1.255
   43X2IT    O3 1363   3.471   2.475   1.184
   43X2IT   C15 1364   3.486   2.483   1.042
   44X2IT   H18 1365   0.302   4.619   1.660
   44X2IT    N4 1366   0.303   4.522   1.631
   44X2IT   H17 1367   0.240   4.495   1.557
   44X2IT   C14 1368   0.423   4.457   1.645
   44X2IT    O5 1369   0.517   4.496   1.712
   44X2IT    O4 1370   0.420   4.340   1.575
   44X2IT   C13 1371   0.538   4.257   1.586
   44X2IT   C10 1372   0.535   4.171   1.713
   44X2IT    C9 1373   0.653   4.077   1.724
   44X2IT    C4 1374   0.609   3.947   1.734
   44X2IT    C5 1375   0.701   3.828   1.745
   44X2IT    O1 1376   0.654   3.715   1.757
   44X2IT    C6 1377   0.843   3.856   1.743
   44X2IT   C12 1378   0.941   3.742   1.754
   44X2IT    C7 1379   0.886   3.987   1.735
   44X2IT    C8 1380   0.791   4.107   1.724
   44X2IT    O2 1381   0.841   4.220   1.712
   44X2IT    N3 1382   1.016   4.023   1.733
   44X2IT   H15 1383   1.091   3.957   1.738
   44X2IT   H16 1384   1.036   4.123   1.725
   44X2IT    N2 1385   0.474   3.938   1.740
   44X2IT    C3 1386   0.388   3.831   1.686
   44X2IT    C2 1387   0.300   3.907   1.587
   44X2IT    H2 1388   0.205   3.864   1.556
   44X2IT    N1 1389   0.380   3.988   1.492
   44X2IT   H14 1390   0.323   4.008   1.409
   44X2IT    C1 1391   0.317   4.053   1.609
   44X2IT    H1 1392   0.236   4.124   1.595
   44X2IT   C11 1393   0.412   4.073   1.725
   44X2IT    O3 1394   0.327   4.104   1.834
   44X2IT   C15 1395   0.382   4.090   1.966
   45X2IT   H18 1396   3.264   3.194   3.810
   45X2IT    N4 1397   3.217   3.282   3.803
   45X2IT   H17 1398   3.223   3.331   3.715
   45X2IT   C14 1399   3.104   3.297   3.879
   45X2IT    O5 1400   3.072   3.225   3.972
   45X2IT    O4 1401   3.033   3.406   3.837
   45X2IT   C13 1402   2.914   3.438   3.913
   45X2IT   C10 1403   2.948   3.519   4.039
   45X2IT    C9 1404   2.826   3.560   4.117
   45X2IT    C4 1405   2.821   3.698   4.130
   45X2IT    C5 1406   2.711   3.772   4.201
   45X2IT    O1 1407   2.717   3.895   4.211
   45X2IT    C6 1408   2.605   3.692   4.256
   45X2IT   C12 1409   2.491   3.760   4.330
   45X2IT    C7 1410   2.610   3.554   4.245
   45X2IT    C8 1411   2.723   3.480   4.172
   45X2IT    O2 1412   2.715   3.356   4.164
   45X2IT    N3 1413   2.517   3.471   4.295
   45X2IT   H15 1414   2.435   3.503   4.343
   45X2IT   H16 1415   2.530   3.371   4.279
   45X2IT    N2 1416   2.930   3.758   4.077
   45X2IT    C3 1417   2.939   3.889   4.011
   45X2IT    C2 1418   2.989   3.852   3.872
   45X2IT    H2 1419   3.037   3.928   3.810
   45X2IT    N1 1420   2.907   3.746   3.808
   45X2IT   H14 1421   2.920   3.749   3.707
   45X2IT    C1 1422   3.035   3.711   3.872
   45X2IT    H1 1423   3.119   3.676   3.812
   45X2IT   C11 1424   3.020   3.657   4.013
   45X2IT    O3 1425   3.151   3.661   4.066
   45X2IT   C15 1426   3.164   3.654   4.209
   46X2IT   H18 1427   1.363   0.071   3.497
   46X2IT    N4 1428   1.397   0.096   3.406
   46X2IT   H17 1429   1.473   0.042   3.368
   46X2IT   C14 1430   1.305   0.150   3.320
   46X2IT    O5 1431   1.197   0.195   3.352
   46X2IT    O4 1432   1.355   0.151   3.193
   46X2IT   C13 1433   1.271   0.211   3.092
   46X2IT   C10 1434   1.288   0.364   3.089
   46X2IT    C9 1435   1.207   0.431   2.980
   46X2IT    C4 1436   1.291   0.502   2.896
   46X2IT    C5 1437   1.243   0.580   2.777
   46X2IT    O1 1438   1.324   0.644   2.709
   46X2IT    C6 1439   1.101   0.575   2.749
   46X2IT   C12 1440   1.046   0.650   2.630
   46X2IT    C7 1441   1.018   0.504   2.834
   46X2IT    C8 1442   1.068   0.426   2.956
   46X2IT    O2 1443   0.985   0.362   3.022
   46X2IT    N3 1444   0.885   0.495   2.818
   46X2IT   H15 1445   0.836   0.539   2.742
   46X2IT   H16 1446   0.833   0.439   2.886
   46X2IT    N2 1447   1.420   0.501   2.938
   46X2IT    C3 1448   1.542   0.503   2.856
   46X2IT    C2 1449   1.610   0.372   2.896
   46X2IT    H2 1450   1.717   0.360   2.879
   46X2IT    N1 1451   1.519   0.256   2.885
   46X2IT   H14 1452   1.575   0.170   2.878
   46X2IT    C1 1453   1.543   0.317   3.017
   46X2IT    H1 1454   1.596   0.263   3.094
   46X2IT   C11 1455   1.434   0.415   3.059
   46X2IT    O3 1456   1.492   0.486   3.168
   46X2IT   C15 1457   1.430   0.610   3.204
   47X2IT   H18 1458   2.206   0.979   2.632
   47X2IT    N4 1459   2.211   0.879   2.644
   47X2IT   H17 1460   2.176   0.842   2.731
   47X2IT   C14 1461   2.202   0.804   2.530
   47X2IT    O5 1462   2.216   0.846   2.417
   47X2IT    O4 1463   2.179   0.673   2.563
   47X2IT   C13 1464   2.174   0.580   2.452
   47X2IT   C10 1465   2.315   0.535   2.410
   47X2IT    C9 1466   2.313   0.433   2.299
   47X2IT    C4 1467   2.378   0.318   2.340
   47X2IT    C5 1468   2.394   0.195   2.254
   47X2IT    O1 1469   2.457   0.098   2.298
   47X2IT    C6 1470   2.334   0.200   2.123
   47X2IT   C12 1471   2.346   0.080   2.032
   47X2IT    C7 1472   2.270   0.316   2.082
   47X2IT    C8 1473   2.255   0.440   2.170
   47X2IT    O2 1474   2.192   0.537   2.125
   47X2IT    N3 1475   2.213   0.331   1.961
   47X2IT   H15 1476   2.212   0.258   1.892
   47X2IT   H16 1477   2.167   0.420   1.942
   47X2IT    N2 1478   2.433   0.331   2.464
   47X2IT    C3 1479   2.449   0.227   2.567
   47X2IT    C2 1480   2.368   0.284   2.683
   47X2IT    H2 1481   2.386   0.249   2.784
   47X2IT    N1 1482   2.231   0.322   2.642
   47X2IT   H14 1483   2.171   0.326   2.725
   47X2IT    C1 1484   2.335   0.426   2.655
   47X2IT    H1 1485   2.328   0.502   2.732
   47X2IT   C11 1486   2.399   0.464   2.522
   47X2IT    O3 1487   2.515   0.536   2.559
   47X2IT   C15 1488   2.616   0.553   2.459
   48X2IT   H18 1489   2.930   5.054   0.395
   48X2IT    N4 1490   2.843   5.009   0.372
   48X2IT   H17 1491   2.834   4.972   0.279
   48X2IT   C14 1492   2.777   4.949   0.476
   48X2IT    O5 1493   2.799   4.968   0.594
   48X2IT    O4 1494   2.680   4.867   0.427
   48X2IT   C13 1495   2.597   4.800   0.525
   48X2IT   C10 1496   2.483   4.892   0.573
   48X2IT    C9 1497   2.390   4.824   0.671
   48X2IT    C4 1498   2.261   4.825   0.623
   48X2IT    C5 1499   2.144   4.765   0.695
   48X2IT    O1 1500   2.030   4.775   0.646
   48X2IT    C6 1501   2.172   4.700   0.821
   48X2IT   C12 1502   2.058   4.637   0.899
   48X2IT    C7 1503   2.301   4.700   0.869
   48X2IT    C8 1504   2.420   4.762   0.795
   48X2IT    O2 1505   2.532   4.751   0.846
   48X2IT    N3 1506   2.337   4.643   0.986
   48X2IT   H15 1507   2.272   4.596   1.046
   48X2IT   H16 1508   2.436   4.647   1.011
   48X2IT    N2 1509   2.250   4.894   0.506
   48X2IT    C3 1510   2.159   4.869   0.394
   48X2IT    C2 1511   2.256   4.844   0.279
   48X2IT    H2 1512   2.222   4.855   0.176
   48X2IT    N1 1513   2.357   4.741   0.312
   48X2IT   H14 1514   2.397   4.703   0.226
   48X2IT    C1 1515   2.393   4.885   0.320
   48X2IT    H1 1516   2.465   4.928   0.251
   48X2IT   C11 1517   2.384   4.941   0.461
   48X2IT    O3 1518   2.388   5.081   0.442
   48X2IT   C15 1519   2.343   5.163   0.551
   49X2IT   H18 1520   1.019   1.920   3.463
   49X2IT    N4 1521   1.094   1.971   3.421
   49X2IT   H17 1522   1.100   2.070   3.442
   49X2IT   C14 1523   1.210   1.901   3.399
   49X2IT    O5 1524   1.219   1.780   3.398
   49X2IT    O4 1525   1.312   1.988   3.372
   49X2IT   C13 1526   1.439   1.928   3.340
   49X2IT   C10 1527   1.446   1.888   3.191
   49X2IT    C9 1528   1.581   1.831   3.152
   49X2IT    C4 1529   1.636   1.906   3.049
   49X2IT    C5 1530   1.770   1.877   2.987
   49X2IT    O1 1531   1.810   1.947   2.893
   49X2IT    C6 1532   1.843   1.765   3.042
   49X2IT   C12 1533   1.979   1.731   2.984
   49X2IT    C7 1534   1.787   1.690   3.143
   49X2IT    C8 1535   1.651   1.720   3.205
   49X2IT    O2 1536   1.612   1.648   3.299
   49X2IT    N3 1537   1.847   1.583   3.198
   49X2IT   H15 1538   1.938   1.551   3.171
   49X2IT   H16 1539   1.797   1.536   3.274
   49X2IT    N2 1540   1.552   2.004   3.007
   49X2IT    C3 1541   1.588   2.137   2.955
   49X2IT    C2 1542   1.518   2.229   3.054
   49X2IT    H2 1543   1.497   2.333   3.026
   49X2IT    N1 1544   1.552   2.197   3.195
   49X2IT   H14 1545   1.533   2.278   3.254
   49X2IT    C1 1546   1.424   2.150   3.137
   49X2IT    H1 1547   1.329   2.190   3.173
   49X2IT   C11 1548   1.428   2.006   3.089
   49X2IT    O3 1549   1.312   1.993   3.009
   49X2IT   C15 1550   1.307   1.882   2.919
   50X2IT   H18 1551   4.012   4.086   2.729
   50X2IT    N4 1552   4.065   4.105   2.813
   50X2IT   H17 1553   4.075   4.030   2.879
   50X2IT   C14 1554   4.165   4.198   2.802
   50X2IT    O5 1555   4.177   4.277   2.710
   50X2IT    O4 1556   4.247   4.191   2.911
   50X2IT   C13 1557   4.353   4.288   2.916
   50X2IT   C10 1558   4.304   4.423   2.972
   50X2IT    C9 1559   4.414   4.526   2.986
   50X2IT    C4 1560   4.424   4.568   3.117
   50X2IT    C5 1561   4.524   4.669   3.165
   50X2IT    O1 1562   4.523   4.704   3.284
   50X2IT    C6 1563   4.616   4.720   3.066
   50X2IT   C12 1564   4.720   4.822   3.108
   50X2IT    C7 1565   4.606   4.679   2.935
   50X2IT    C8 1566   4.503   4.576   2.887
   50X2IT    O2 1567   4.505   4.542   2.768
   50X2IT    N3 1568   4.686   4.722   2.836
   50X2IT   H15 1569   4.760   4.788   2.851
   50X2IT   H16 1570   4.670   4.683   2.743
   50X2IT    N2 1571   4.328   4.514   3.195
   50X2IT    C3 1572   4.337   4.477   3.338
   50X2IT    C2 1573   4.307   4.328   3.335
   50X2IT    H2 1574   4.274   4.278   3.425
   50X2IT    N1 1575   4.393   4.256   3.238
   50X2IT   H14 1576   4.396   4.157   3.262
   50X2IT    C1 1577   4.255   4.291   3.201
   50X2IT    H1 1578   4.180   4.214   3.186
   50X2IT   C11 1579   4.244   4.418   3.118
   50X2IT    O3 1580   4.107   4.451   3.122
   50X2IT   C15 1581   4.071   4.585   3.086
   51X2IT   H18 1582   2.440   1.067   5.375
   51X2IT    N4 1583   2.369   1.013   5.329
   51X2IT   H17 1584   2.301   0.966   5.387
   51X2IT   C14 1585   2.332   1.056   5.204
   51X2IT    O5 1586   2.395   1.134   5.135
   51X2IT    O4 1587   2.216   0.994   5.166
   51X2IT   C13 1588   2.169   1.024   5.033
   51X2IT   C10 1589   2.239   0.938   4.927
   51X2IT    C9 1590   2.187   0.961   4.787
   51X2IT    C4 1591   2.139   0.843   4.734
   51X2IT    C5 1592   2.080   0.832   4.596
   51X2IT    O1 1593   2.043   0.721   4.555
   51X2IT    C6 1594   2.070   0.954   4.520
   51X2IT   C12 1595   2.011   0.950   4.381
   51X2IT    C7 1596   2.119   1.072   4.573
   51X2IT    C8 1597   2.180   1.082   4.713
   51X2IT    O2 1598   2.217   1.194   4.753
   51X2IT    N3 1599   2.116   1.190   4.509
   51X2IT   H15 1600   2.078   1.202   4.417
   51X2IT   H16 1601   2.154   1.271   4.559
   51X2IT    N2 1602   2.160   0.738   4.816
   51X2IT    C3 1603   2.075   0.618   4.833
   51X2IT    C2 1604   2.038   0.625   4.981
   51X2IT    H2 1605   2.004   0.536   5.032
   51X2IT    N1 1606   1.983   0.757   5.018
   51X2IT   H14 1607   1.928   0.748   5.104
   51X2IT    C1 1608   2.124   0.726   5.048
   51X2IT    H1 1609   2.158   0.716   5.150
   51X2IT   C11 1610   2.221   0.782   4.945
   51X2IT    O3 1611   2.342   0.715   4.972
   51X2IT   C15 1612   2.442   0.716   4.869
   52X2IT   H18 1613   0.939   1.315   1.409
   52X2IT    N4 1614   0.941   1.221   1.373
   52X2IT   H17 1615   1.008   1.200   1.301
   52X2IT   C14 1616   0.905   1.122   1.461
   52X2IT    O5 1617   0.846   1.140   1.566
   52X2IT    O4 1618   0.941   1.000   1.411
   52X2IT   C13 1619   0.904   0.886   1.490
   52X2IT   C10 1620   0.758   0.844   1.463
   52X2IT    C9 1621   0.717   0.719   1.539
   52X2IT    C4 1622   0.675   0.621   1.451
   52X2IT    C5 1623   0.628   0.485   1.493
   52X2IT    O1 1624   0.589   0.404   1.408
   52X2IT    C6 1625   0.631   0.457   1.635
   52X2IT   C12 1626   0.586   0.322   1.685
   52X2IT    C7 1627   0.672   0.556   1.723
   52X2IT    C8 1628   0.719   0.695   1.678
   52X2IT    O2 1629   0.757   0.774   1.766
   52X2IT    N3 1630   0.676   0.540   1.856
   52X2IT   H15 1631   0.651   0.454   1.902
   52X2IT   H16 1632   0.709   0.619   1.912
   52X2IT    N2 1633   0.674   0.665   1.322
   52X2IT    C3 1634   0.702   0.587   1.200
   52X2IT    C2 1635   0.821   0.661   1.141
   52X2IT    H2 1636   0.845   0.650   1.036
   52X2IT    N1 1637   0.930   0.679   1.240
   52X2IT   H14 1638   1.018   0.696   1.190
   52X2IT    C1 1639   0.838   0.791   1.212
   52X2IT    H1 1640   0.874   0.881   1.162
   52X2IT   C11 1641   0.726   0.804   1.314
   52X2IT    O3 1642   0.634   0.892   1.252
   52X2IT   C15 1643   0.501   0.894   1.305
   53X2IT   H18 1644   4.106   1.958   3.879
   53X2IT    N4 1645   4.049   1.885   3.841
   53X2IT   H17 1646   3.955   1.908   3.813
   53X2IT   C14 1647   4.116   1.786   3.774
   53X2IT    O5 1648   4.236   1.766   3.780
   53X2IT    O4 1649   4.027   1.711   3.702
   53X2IT   C13 1650   4.083   1.599   3.630
   53X2IT   C10 1651   4.098   1.476   3.722
   53X2IT    C9 1652   4.150   1.354   3.649
   53X2IT    C4 1653   4.060   1.249   3.662
   53X2IT    C5 1654   4.080   1.114   3.600
   53X2IT    O1 1655   3.996   1.025   3.620
   53X2IT    C6 1656   4.200   1.096   3.522
   53X2IT   C12 1657   4.226   0.961   3.457
   53X2IT    C7 1658   4.290   1.200   3.510
   53X2IT    C8 1659   4.268   1.337   3.574
   53X2IT    O2 1660   4.354   1.425   3.553
   53X2IT    N3 1661   4.404   1.192   3.441
   53X2IT   H15 1662   4.433   1.109   3.391
   53X2IT   H16 1663   4.463   1.276   3.437
   53X2IT    N2 1664   3.955   1.281   3.742
   53X2IT    C3 1665   3.816   1.235   3.732
   53X2IT    C2 1666   3.740   1.366   3.714
   53X2IT    H2 1667   3.633   1.370   3.737
   53X2IT    N1 1668   3.795   1.448   3.604
   53X2IT   H14 1669   3.724   1.515   3.573
   53X2IT    C1 1670   3.830   1.480   3.744
   53X2IT    H1 1671   3.796   1.572   3.790
   53X2IT   C11 1672   3.965   1.423   3.787
   53X2IT    O3 1673   3.964   1.435   3.928
   53X2IT   C15 1674   4.059   1.356   4.001
   54X2IT   H18 1675   0.238   1.057   4.871
   54X2IT    N4 1676   0.269   1.127   4.806
   54X2IT   H17 1677   0.311   1.094   4.720
   54X2IT   C14 1678   0.200   1.245   4.805
   54X2IT    O5 1679   0.125   1.282   4.893
   54X2IT    O4 1680   0.231   1.316   4.693
   54X2IT   C13 1681   0.170   1.447   4.682
   54X2IT   C10 1682   0.250   1.553   4.761
   54X2IT    C9 1683   0.193   1.692   4.747
   54X2IT    C4 1684   0.289   1.777   4.695
   54X2IT    C5 1685   0.265   1.923   4.668
   54X2IT    O1 1686   0.358   1.993   4.625
   54X2IT    C6 1687   0.132   1.973   4.694
   54X2IT   C12 1688   0.101   2.119   4.668
   54X2IT    C7 1689   0.037   1.888   4.747
   54X2IT    C8 1690   0.063   1.740   4.775
   54X2IT    O2 1691  -0.032   1.671   4.818
   54X2IT    N3 1692  -0.089   1.925   4.776
   54X2IT   H15 1693  -0.123   2.019   4.762
   54X2IT   H16 1694  -0.151   1.853   4.813
   54X2IT    N2 1695   0.409   1.716   4.680
   54X2IT    C3 1696   0.511   1.741   4.577
   54X2IT    C2 1697   0.522   1.605   4.509
   54X2IT    H2 1698   0.611   1.581   4.451
   54X2IT    N1 1699   0.390   1.553   4.466
   54X2IT   H14 1700   0.403   1.483   4.393
   54X2IT    C1 1701   0.452   1.503   4.591
   54X2IT    H1 1702   0.485   1.401   4.599
   54X2IT   C11 1703   0.399   1.572   4.716
   54X2IT    O3 1704   0.492   1.536   4.817
   54X2IT   C15 1705   0.493   1.615   4.936
   55X2IT   H18 1706   3.987   2.037   1.608
   55X2IT    N4 1707   3.958   2.109   1.671
   55X2IT   H17 1708   3.971   2.205   1.641
   55X2IT   C14 1709   3.855   2.079   1.755
   55X2IT    O5 1710   3.813   1.967   1.778
   55X2IT    O4 1711   3.807   2.193   1.813
   55X2IT   C13 1712   3.702   2.176   1.910
   55X2IT   C10 1713   3.757   2.139   2.049
   55X2IT    C9 1714   3.650   2.127   2.155
   55X2IT    C4 1715   3.675   2.215   2.258
   55X2IT    C5 1716   3.588   2.229   2.379
   55X2IT    O1 1717   3.620   2.308   2.469
   55X2IT    C6 1718   3.469   2.147   2.383
   55X2IT   C12 1719   3.376   2.157   2.502
   55X2IT    C7 1720   3.445   2.058   2.280
   55X2IT    C8 1721   3.535   2.045   2.157
   55X2IT    O2 1722   3.501   1.965   2.068
   55X2IT    N3 1723   3.338   1.977   2.275
   55X2IT   H15 1724   3.268   1.974   2.347
   55X2IT   H16 1725   3.329   1.916   2.193
   55X2IT    N2 1726   3.793   2.282   2.242
   55X2IT    C3 1727   3.825   2.419   2.283
   55X2IT    C2 1728   3.860   2.485   2.151
   55X2IT    H2 1729   3.920   2.576   2.150
   55X2IT    N1 1730   3.754   2.466   2.049
   55X2IT   H14 1731   3.763   2.538   1.976
   55X2IT    C1 1732   3.875   2.381   2.046
   55X2IT    H1 1733   3.947   2.389   1.965
   55X2IT   C11 1734   3.856   2.246   2.112
   55X2IT    O3 1735   3.987   2.196   2.129
   55X2IT   C15 1736   4.005   2.088   2.222
   56X2IT   H18 1737   0.560   4.050   1.037
   56X2IT    N4 1738   0.555   4.146   1.067
   56X2IT   H17 1739   0.487   4.168   1.138
   56X2IT   C14 1740   0.673   4.216   1.063
   56X2IT    O5 1741   0.772   4.183   1.001
   56X2IT    O4 1742   0.660   4.332   1.135
   56X2IT   C13 1743   0.774   4.420   1.134
   56X2IT   C10 1744   0.775   4.509   1.008
   56X2IT    C9 1745   0.890   4.608   1.007
   56X2IT    C4 1746   0.841   4.737   0.997
   56X2IT    C5 1747   0.928   4.859   0.994
   56X2IT    O1 1748   0.876   4.971   0.982
   56X2IT    C6 1749   1.070   4.837   1.005
   56X2IT   C12 1750   1.164   4.956   1.003
   56X2IT    C7 1751   1.119   4.708   1.013
   56X2IT    C8 1752   1.029   4.584   1.016
   56X2IT    O2 1753   1.083   4.473   1.028
   56X2IT    N3 1754   1.249   4.678   1.022
   56X2IT   H15 1755   1.322   4.747   1.024
   56X2IT   H16 1756   1.274   4.579   1.029
   56X2IT    N2 1757   0.706   4.740   0.983
   56X2IT    C3 1758   0.612   4.841   1.033
   56X2IT    C2 1759   0.522   4.759   1.125
   56X2IT    H2 1760   0.423   4.797   1.151
   56X2IT    N1 1761   0.599   4.680   1.223
   56X2IT   H14 1762   0.538   4.655   1.302
   56X2IT    C1 1763   0.546   4.615   1.101
   56X2IT    H1 1764   0.468   4.540   1.108
   56X2IT   C11 1765   0.649   4.602   0.990
   56X2IT    O3 1766   0.573   4.570   0.875
   56X2IT   C15 1767   0.635   4.590   0.748
   57X2IT   H18 1768   2.590   0.685   3.743
   57X2IT    N4 1769   2.576   0.594   3.703
   57X2IT   H17 1770   2.586   0.586   3.603
   57X2IT   C14 1771   2.609   0.487   3.782
   57X2IT    O5 1772   2.626   0.491   3.902
   57X2IT    O4 1773   2.615   0.374   3.706
   57X2IT   C13 1774   2.643   0.251   3.776
   57X2IT   C10 1775   2.515   0.192   3.838
   57X2IT    C9 1776   2.538   0.060   3.907
   57X2IT    C4 1777   2.458  -0.038   3.851
   57X2IT    C5 1778   2.457  -0.182   3.896
   57X2IT    O1 1779   2.380  -0.262   3.842
   57X2IT    C6 1780   2.549  -0.216   4.002
   57X2IT   C12 1781   2.553  -0.359   4.052
   57X2IT    C7 1782   2.628  -0.118   4.059
   57X2IT    C8 1783   2.627   0.028   4.013
   57X2IT    O2 1784   2.705   0.107   4.068
   57X2IT    N3 1785   2.714  -0.140   4.159
   57X2IT   H15 1786   2.728  -0.231   4.200
   57X2IT   H16 1787   2.769  -0.060   4.192
   57X2IT    N2 1788   2.375   0.012   3.756
   57X2IT    C3 1789   2.327  -0.055   3.633
   57X2IT    C2 1790   2.380   0.037   3.524
   57X2IT    H2 1791   2.334   0.035   3.425
   57X2IT    N1 1792   2.525   0.064   3.538
   57X2IT   H14 1793   2.562   0.095   3.448
   57X2IT    C1 1794   2.427   0.164   3.585
   57X2IT    H1 1795   2.418   0.260   3.536
   57X2IT   C11 1796   2.401   0.157   3.735
   57X2IT    O3 1797   2.284   0.235   3.753
   57X2IT   C15 1798   2.212   0.216   3.875
   58X2IT   H18 1799   4.042   3.740   5.303
   58X2IT    N4 1800   4.018   3.657   5.252
   58X2IT   H17 1801   3.960   3.589   5.300
   58X2IT   C14 1802   4.007   3.670   5.117
   58X2IT    O5 1803   4.051   3.763   5.051
   58X2IT    O4 1804   3.945   3.560   5.064
   58X2IT   C13 1805   3.933   3.557   4.920
   58X2IT   C10 1806   4.061   3.503   4.855
   58X2IT    C9 1807   4.050   3.491   4.704
   58X2IT    C4 1808   4.074   3.361   4.665
   58X2IT    C5 1809   4.070   3.314   4.522
   58X2IT    O1 1810   4.096   3.196   4.496
   58X2IT    C6 1811   4.036   3.414   4.423
   58X2IT   C12 1812   4.030   3.373   4.277
   58X2IT    C7 1813   4.014   3.544   4.462
   58X2IT    C8 1814   4.019   3.590   4.608
   58X2IT    O2 1815   3.993   3.709   4.632
   58X2IT    N3 1816   3.984   3.644   4.377
   58X2IT   H15 1817   3.974   3.630   4.278
   58X2IT   H16 1818   3.968   3.736   4.418
   58X2IT    N2 1819   4.109   3.281   4.769
   58X2IT    C3 1820   4.079   3.139   4.788
   58X2IT    C2 1821   3.998   3.139   4.918
   58X2IT    H2 1822   3.990   3.048   4.976
   58X2IT    N1 1823   3.885   3.235   4.913
   58X2IT   H14 1824   3.816   3.208   4.983
   58X2IT    C1 1825   4.010   3.272   4.982
   58X2IT    H1 1826   4.012   3.286   5.090
   58X2IT   C11 1827   4.103   3.358   4.897
   58X2IT    O3 1828   4.226   3.354   4.967
   58X2IT   C15 1829   4.344   3.392   4.894
   59X2IT   H18 1830   2.261   0.385   1.803
   59X2IT    N4 1831   2.307   0.470   1.776
   59X2IT   H17 1832   2.367   0.513   1.844
   59X2IT   C14 1833   2.336   0.482   1.643
   59X2IT    O5 1834   2.288   0.415   1.553
   59X2IT    O4 1835   2.425   0.584   1.624
   59X2IT   C13 1836   2.460   0.614   1.487
   59X2IT   C10 1837   2.356   0.704   1.420
   59X2IT    C9 1838   2.393   0.743   1.279
   59X2IT    C4 1839   2.399   0.881   1.267
   59X2IT    C5 1840   2.434   0.953   1.140
   59X2IT    O1 1841   2.434   1.076   1.138
   59X2IT    C6 1842   2.465   0.870   1.026
   59X2IT   C12 1843   2.502   0.936   0.895
   59X2IT    C7 1844   2.458   0.732   1.037
   59X2IT    C8 1845   2.421   0.661   1.167
   59X2IT    O2 1846   2.422   0.536   1.167
   59X2IT    N3 1847   2.483   0.648   0.936
   59X2IT   H15 1848   2.511   0.678   0.845
   59X2IT   H16 1849   2.476   0.547   0.957
   59X2IT    N2 1850   2.363   0.944   1.382
   59X2IT    C3 1851   2.414   1.071   1.436
   59X2IT    C2 1852   2.471   1.028   1.570
   59X2IT    H2 1853   2.486   1.102   1.648
   59X2IT    N1 1854   2.565   0.914   1.558
   59X2IT   H14 1855   2.625   0.911   1.640
   59X2IT    C1 1856   2.426   0.890   1.602
   59X2IT    H1 1857   2.404   0.856   1.702
   59X2IT   C11 1858   2.334   0.844   1.489
   59X2IT    O3 1859   2.204   0.860   1.543
   59X2IT   C15 1860   2.095   0.862   1.449
   60X2IT   H18 1861   2.644   2.037   3.987
   60X2IT    N4 1862   2.578   2.110   4.007
   60X2IT   H17 1863   2.534   2.156   3.928
   60X2IT   C14 1864   2.508   2.099   4.124
   60X2IT    O5 1865   2.538   2.025   4.217
   60X2IT    O4 1866   2.403   2.185   4.125
   60X2IT   C13 1867   2.324   2.189   4.245
   60X2IT   C10 1868   2.387   2.280   4.351
   60X2IT    C9 1869   2.304   2.292   4.477
   60X2IT    C4 1870   2.272   2.425   4.501
   60X2IT    C5 1871   2.189   2.471   4.617
   60X2IT    O1 1872   2.168   2.593   4.632
   60X2IT    C6 1873   2.139   2.369   4.706
   60X2IT   C12 1874   2.055   2.409   4.825
   60X2IT    C7 1875   2.172   2.237   4.682
   60X2IT    C8 1876   2.257   2.191   4.564
   60X2IT    O2 1877   2.277   2.069   4.550
   60X2IT    N3 1878   2.132   2.135   4.760
   60X2IT   H15 1879   2.074   2.147   4.841
   60X2IT   H16 1880   2.161   2.041   4.733
   60X2IT    N2 1881   2.330   2.508   4.411
   60X2IT    C3 1882   2.278   2.635   4.358
   60X2IT    C2 1883   2.271   2.607   4.208
   60X2IT    H2 1884   2.268   2.690   4.138
   60X2IT    N1 1885   2.198   2.482   4.178
   60X2IT   H14 1886   2.166   2.484   4.081
   60X2IT    C1 1887   2.346   2.482   4.178
   60X2IT    H1 1888   2.401   2.467   4.087
   60X2IT   C11 1889   2.406   2.431   4.308
   60X2IT    O3 1890   2.542   2.470   4.301
   60X2IT   C15 1891   2.616   2.471   4.424
   61X2IT   H18 1892   0.326   4.411   2.852
   61X2IT    N4 1893   0.409   4.446   2.896
   61X2IT   H17 1894   0.497   4.427   2.850
   61X2IT   C14 1895   0.396   4.561   2.969
   61X2IT    O5 1896   0.290   4.607   3.008
   61X2IT    O4 1897   0.519   4.613   2.997
   61X2IT   C13 1898   0.520   4.732   3.079
   61X2IT   C10 1899   0.512   4.696   3.229
   61X2IT    C9 1900   0.521   4.817   3.319
   61X2IT    C4 1901   0.628   4.805   3.406
   61X2IT    C5 1902   0.665   4.908   3.508
   61X2IT    O1 1903   0.760   4.886   3.585
   61X2IT    C6 1904   0.584   5.027   3.512
   61X2IT   C12 1905   0.617   5.136   3.612
   61X2IT    C7 1906   0.477   5.039   3.426
   61X2IT    C8 1907   0.439   4.933   3.322
   61X2IT    O2 1908   0.344   4.956   3.247
   61X2IT    N3 1909   0.395   5.146   3.423
   61X2IT   H15 1910   0.406   5.226   3.482
   61X2IT   H16 1911   0.319   5.145   3.353
   61X2IT    N2 1912   0.690   4.685   3.393
   61X2IT    C3 1913   0.833   4.655   3.411
   61X2IT    C2 1914   0.872   4.601   3.274
   61X2IT    H2 1915   0.962   4.540   3.263
   61X2IT    N1 1916   0.832   4.692   3.164
   61X2IT   H14 1917   0.889   4.672   3.081
   61X2IT    C1 1918   0.750   4.574   3.195
   61X2IT    H1 1919   0.742   4.492   3.124
   61X2IT   C11 1920   0.629   4.605   3.283
   61X2IT    O3 1921   0.585   4.478   3.327
   61X2IT   C15 1922   0.498   4.476   3.441
   62X2IT   H18 1923   1.669   4.064  -0.071
   62X2IT    N4 1924   1.712   4.082   0.017
   62X2IT   H17 1925   1.657   4.063   0.100
   62X2IT   C14 1926   1.848   4.069   0.022
   62X2IT    O5 1927   1.922   4.065  -0.074
   62X2IT    O4 1928   1.889   4.067   0.152
   62X2IT   C13 1929   2.032   4.060   0.174
   62X2IT   C10 1930   2.097   4.199   0.166
   62X2IT    C9 1931   2.245   4.197   0.194
   62X2IT    C4 1932   2.274   4.280   0.301
   62X2IT    C5 1933   2.413   4.301   0.355
   62X2IT    O1 1934   2.430   4.380   0.449
   62X2IT    C6 1935   2.519   4.225   0.293
   62X2IT   C12 1936   2.661   4.241   0.343
   62X2IT    C7 1937   2.489   4.143   0.185
   62X2IT    C8 1938   2.348   4.124   0.130
   62X2IT    O2 1939   2.333   4.044   0.036
   62X2IT    N3 1940   2.581   4.071   0.119
   62X2IT   H15 1941   2.679   4.070   0.144
   62X2IT   H16 1942   2.548   4.012   0.042
   62X2IT    N2 1943   2.165   4.347   0.345
   62X2IT    C3 1944   2.134   4.388   0.483
   62X2IT    C2 1945   2.002   4.315   0.509
   62X2IT    H2 1946   1.936   4.349   0.589
   62X2IT    N1 1947   2.012   4.170   0.479
   62X2IT   H14 1948   1.938   4.120   0.529
   62X2IT    C1 1949   1.949   4.262   0.382
   62X2IT    H1 1950   1.843   4.255   0.360
   62X2IT   C11 1951   2.043   4.304   0.270
   62X2IT    O3 1952   1.977   4.414   0.209
   62X2IT   C15 1953   2.056   4.500   0.127
   63X2IT   H18 1954   2.359   4.136   4.138
   63X2IT    N4 1955   2.268   4.093   4.144
   63X2IT   H17 1956   2.189   4.148   4.112
   63X2IT   C14 1957   2.264   3.957   4.130
   63X2IT    O5 1958   2.360   3.883   4.140
   63X2IT    O4 1959   2.136   3.916   4.109
   63X2IT   C13 1960   2.115   3.774   4.099
   63X2IT   C10 1961   2.103   3.710   4.239
   63X2IT    C9 1962   2.074   3.561   4.233
   63X2IT    C4 1963   1.956   3.533   4.300
   63X2IT    C5 1964   1.898   3.395   4.312
   63X2IT    O1 1965   1.794   3.378   4.377
   63X2IT    C6 1966   1.971   3.288   4.247
   63X2IT   C12 1967   1.918   3.147   4.256
   63X2IT    C7 1968   2.089   3.317   4.182
   63X2IT    C8 1969   2.148   3.458   4.170
   63X2IT    O2 1970   2.252   3.472   4.105
   63X2IT    N3 1971   2.164   3.224   4.120
   63X2IT   H15 1972   2.140   3.127   4.116
   63X2IT   H16 1973   2.249   3.257   4.073
   63X2IT    N2 1974   1.903   3.643   4.359
   63X2IT    C3 1975   1.761   3.675   4.379
   63X2IT    C2 1976   1.746   3.806   4.303
   63X2IT    H2 1977   1.663   3.872   4.325
   63X2IT    N1 1978   1.797   3.796   4.164
   63X2IT   H14 1979   1.755   3.870   4.107
   63X2IT    C1 1980   1.881   3.858   4.269
   63X2IT    H1 1981   1.904   3.964   4.265
   63X2IT   C11 1982   1.984   3.764   4.327
   63X2IT    O3 1983   2.029   3.830   4.444
   63X2IT   C15 1984   2.097   3.751   4.542
   64X2IT   H18 1985   2.936   4.133   2.860
   64X2IT    N4 1986   2.890   4.076   2.928
   64X2IT   H17 1987   2.861   3.984   2.900
   64X2IT   C14 1988   2.926   4.097   3.059
   64X2IT    O5 1989   2.986   4.195   3.100
   64X2IT    O4 1990   2.881   3.995   3.137
   64X2IT   C13 1991   2.906   4.007   3.278
   64X2IT   C10 1992   2.799   4.094   3.347
   64X2IT    C9 1993   2.817   4.104   3.497
   64X2IT    C4 1994   2.704   4.058   3.562
   64X2IT    C5 1995   2.689   4.054   3.711
   64X2IT    O1 1996   2.583   4.015   3.761
   64X2IT    C6 1997   2.803   4.097   3.788
   64X2IT   C12 1998   2.796   4.094   3.940
   64X2IT    C7 1999   2.916   4.143   3.723
   64X2IT    C8 2000   2.929   4.148   3.571
   64X2IT    O2 2001   3.037   4.187   3.523
   64X2IT    N3 2002   3.026   4.187   3.786
   64X2IT   H15 2003   3.035   4.188   3.887
   64X2IT   H16 2004   3.105   4.217   3.728
   64X2IT    N2 2005   2.605   4.026   3.475
   64X2IT    C3 2006   2.503   3.921   3.489
   64X2IT    C2 2007   2.530   3.833   3.367
   64X2IT    H2 2008   2.453   3.766   3.330
   64X2IT    N1 2009   2.673   3.793   3.357
   64X2IT   H14 2010   2.681   3.710   3.298
   64X2IT    C1 2011   2.622   3.905   3.275
   64X2IT    H1 2012   2.616   3.896   3.167
   64X2IT   C11 2013   2.651   4.042   3.334
   64X2IT    O3 2014   2.567   4.129   3.260
   64X2IT   C15 2015   2.542   4.259   3.317
   65X2IT   H18 2016   1.384   1.184   2.519
   65X2IT    N4 2017   1.417   1.251   2.453
   65X2IT   H17 2018   1.452   1.339   2.490
   65X2IT   C14 2019   1.470   1.202   2.337
   65X2IT    O5 2020   1.455   1.088   2.296
   65X2IT    O4 2021   1.538   1.300   2.271
   65X2IT   C13 2022   1.594   1.264   2.144
   65X2IT   C10 2023   1.490   1.274   2.031
   65X2IT    C9 2024   1.546   1.243   1.894
   65X2IT    C4 2025   1.527   1.351   1.810
   65X2IT    C5 2026   1.573   1.354   1.667
   65X2IT    O1 2027   1.548   1.453   1.597
   65X2IT    C6 2028   1.643   1.237   1.619
   65X2IT   C12 2029   1.692   1.234   1.475
   65X2IT    C7 2030   1.661   1.129   1.703
   65X2IT    C8 2031   1.613   1.127   1.849
   65X2IT    O2 2032   1.639   1.026   1.917
   65X2IT    N3 2033   1.723   1.016   1.667
   65X2IT   H15 2034   1.762   1.001   1.576
   65X2IT   H16 2035   1.732   0.943   1.738
   65X2IT    N2 2036   1.456   1.450   1.869
   65X2IT    C3 2037   1.468   1.595   1.847
   65X2IT    C2 2038   1.504   1.646   1.986
   65X2IT    H2 2039   1.488   1.750   2.012
   65X2IT    N1 2040   1.619   1.573   2.045
   65X2IT   H14 2041   1.661   1.630   2.119
   65X2IT    C1 2042   1.482   1.537   2.085
   65X2IT    H1 2043   1.448   1.555   2.186
   65X2IT   C11 2044   1.427   1.417   2.011
   65X2IT    O3 2045   1.288   1.420   2.038
   65X2IT   C15 2046   1.202   1.343   1.952
   66X2IT   H18 2047   4.934   0.529   3.421
   66X2IT    N4 2048   4.866   0.561   3.487
   66X2IT   H17 2049   4.769   0.544   3.466
   66X2IT   C14 2050   4.905   0.563   3.618
   66X2IT    O5 2051   5.021   0.557   3.657
   66X2IT    O4 2052   4.797   0.578   3.699
   66X2IT   C13 2053   4.824   0.589   3.841
   66X2IT   C10 2054   4.861   0.733   3.880
   66X2IT    C9 2055   4.884   0.751   4.028
   66X2IT    C4 2056   4.798   0.847   4.078
   66X2IT    C5 2057   4.793   0.888   4.223
   66X2IT    O1 2058   4.716   0.977   4.259
   66X2IT    C6 2059   4.883   0.819   4.312
   66X2IT   C12 2060   4.884   0.855   4.459
   66X2IT    C7 2061   4.970   0.724   4.261
   66X2IT    C8 2062   4.974   0.683   4.114
   66X2IT    O2 2063   5.053   0.594   4.080
   66X2IT    N3 2064   5.058   0.656   4.336
   66X2IT   H15 2065   5.068   0.668   4.435
   66X2IT   H16 2066   5.116   0.586   4.288
   66X2IT    N2 2067   4.723   0.905   3.981
   66X2IT    C3 2068   4.585   0.956   3.991
   66X2IT    C2 2069   4.513   0.872   3.886
   66X2IT    H2 2070   4.418   0.907   3.846
   66X2IT    N1 2071   4.536   0.727   3.905
   66X2IT   H14 2072   4.461   0.674   3.859
   66X2IT    C1 2073   4.612   0.800   3.803
   66X2IT    H1 2074   4.597   0.780   3.697
   66X2IT   C11 2075   4.751   0.842   3.849
   66X2IT    O3 2076   4.792   0.937   3.752
   66X2IT   C15 2077   4.902   1.023   3.788
   67X2IT   H18 2078   1.406   5.263   4.132
   67X2IT    N4 2079   1.439   5.266   4.227
   67X2IT   H17 2080   1.419   5.350   4.280
   67X2IT   C14 2081   1.446   5.146   4.292
   67X2IT    O5 2082   1.444   5.037   4.239
   67X2IT    O4 2083   1.461   5.167   4.427
   67X2IT   C13 2084   1.477   5.050   4.508
   67X2IT   C10 2085   1.623   5.001   4.509
   67X2IT    C9 2086   1.645   4.882   4.599
   67X2IT    C4 2087   1.741   4.911   4.695
   67X2IT    C5 2088   1.786   4.814   4.800
   67X2IT    O1 2089   1.875   4.848   4.880
   67X2IT    C6 2090   1.722   4.685   4.801
   67X2IT   C12 2091   1.762   4.583   4.906
   67X2IT    C7 2092   1.627   4.656   4.705
   67X2IT    C8 2093   1.582   4.755   4.597
   67X2IT    O2 2094   1.493   4.719   4.519
   67X2IT    N3 2095   1.563   4.538   4.697
   67X2IT   H15 2096   1.579   4.462   4.761
   67X2IT   H16 2097   1.494   4.527   4.623
   67X2IT    N2 2098   1.795   5.034   4.677
   67X2IT    C3 2099   1.843   5.128   4.780
   67X2IT    C2 2100   1.754   5.250   4.757
   67X2IT    H2 2101   1.786   5.347   4.794
   67X2IT    N1 2102   1.611   5.215   4.755
   67X2IT   H14 2103   1.555   5.299   4.775
   67X2IT    C1 2104   1.683   5.235   4.628
   67X2IT    H1 2105   1.659   5.319   4.564
   67X2IT   C11 2106   1.728   5.105   4.564
   67X2IT    O3 2107   1.821   5.146   4.465
   67X2IT   C15 2108   1.911   5.046   4.413
   68X2IT   H18 2109   1.753   1.627   5.072
   68X2IT    N4 2110   1.692   1.658   4.999
   68X2IT   H17 2111   1.595   1.673   5.024
   68X2IT   C14 2112   1.748   1.734   4.901
   68X2IT    O5 2113   1.868   1.743   4.879
   68X2IT    O4 2114   1.650   1.794   4.827
   68X2IT   C13 2115   1.695   1.873   4.715
   68X2IT   C10 2116   1.721   1.785   4.591
   68X2IT    C9 2117   1.761   1.865   4.469
   68X2IT    C4 2118   1.672   1.841   4.365
   68X2IT    C5 2119   1.683   1.905   4.230
   68X2IT    O1 2120   1.601   1.875   4.142
   68X2IT    C6 2121   1.791   1.999   4.211
   68X2IT   C12 2122   1.807   2.067   4.077
   68X2IT    C7 2123   1.880   2.021   4.314
   68X2IT    C8 2124   1.869   1.955   4.452
   68X2IT    O2 2125   1.952   1.986   4.539
   68X2IT    N3 2126   1.985   2.105   4.306
   68X2IT   H15 2127   2.006   2.158   4.223
   68X2IT   H16 2128   2.043   2.115   4.389
   68X2IT    N2 2129   1.579   1.747   4.398
   68X2IT    C3 2130   1.439   1.740   4.353
   68X2IT    C2 2131   1.363   1.747   4.485
   68X2IT    H2 2132   1.260   1.711   4.490
   68X2IT    N1 2133   1.404   1.863   4.567
   68X2IT   H14 2134   1.331   1.884   4.635
   68X2IT    C1 2135   1.458   1.728   4.598
   68X2IT    H1 2136   1.431   1.678   4.689
   68X2IT   C11 2137   1.596   1.704   4.539
   68X2IT    O3 2138   1.613   1.564   4.550
   68X2IT   C15 2139   1.716   1.504   4.469
   69X2IT   H18 2140   4.948   0.272  -0.205
   69X2IT    N4 2141   4.954   0.224  -0.117
   69X2IT   H17 2142   5.027   0.155  -0.106
   69X2IT   C14 2143   4.911   0.294  -0.008
   69X2IT    O5 2144   4.844   0.396  -0.011
   69X2IT    O4 2145   4.952   0.232   0.107
   69X2IT   C13 2146   4.908   0.291   0.231
   69X2IT   C10 2147   4.766   0.246   0.268
   69X2IT    C9 2148   4.719   0.300   0.401
   69X2IT    C4 2149   4.686   0.197   0.486
   69X2IT    C5 2150   4.636   0.216   0.626
   69X2IT    O1 2151   4.605   0.117   0.694
   69X2IT    C6 2152   4.628   0.352   0.673
   69X2IT   C12 2153   4.579   0.379   0.814
   69X2IT    C7 2154   4.660   0.456   0.588
   69X2IT    C8 2155   4.710   0.435   0.445
   69X2IT    O2 2156   4.740   0.535   0.378
   69X2IT    N3 2157   4.653   0.586   0.622
   69X2IT   H15 2158   4.625   0.617   0.713
   69X2IT   H16 2159   4.682   0.654   0.551
   69X2IT    N2 2160   4.695   0.076   0.425
   69X2IT    C3 2161   4.733  -0.053   0.485
   69X2IT    C2 2162   4.857  -0.091   0.404
   69X2IT    H2 2163   4.889  -0.195   0.401
   69X2IT    N1 2164   4.957   0.017   0.401
   69X2IT   H14 2165   5.049  -0.022   0.378
   69X2IT    C1 2166   4.867  -0.003   0.286
   69X2IT    H1 2167   4.906  -0.036   0.190
   69X2IT   C11 2168   4.747   0.091   0.286
   69X2IT    O3 2169   4.659   0.034   0.190
   69X2IT   C15 2170   4.522   0.076   0.195
   70X2IT   H18 2171   4.442   2.289   3.880
   70X2IT    N4 2172   4.357   2.275   3.933
   70X2IT   H17 2173   4.298   2.198   3.905
   70X2IT   C14 2174   4.361   2.312   4.064
   70X2IT    O5 2175   4.446   2.385   4.114
   70X2IT    O4 2176   4.253   2.261   4.130
   70X2IT   C13 2177   4.241   2.298   4.269
   70X2IT   C10 2178   4.173   2.435   4.285
   70X2IT    C9 2179   4.151   2.474   4.429
   70X2IT    C4 2180   4.017   2.497   4.453
   70X2IT    C5 2181   3.961   2.537   4.587
   70X2IT    O1 2182   3.839   2.559   4.598
   70X2IT    C6 2183   4.055   2.548   4.695
   70X2IT   C12 2184   4.005   2.588   4.833
   70X2IT    C7 2185   4.190   2.527   4.671
   70X2IT    C8 2186   4.245   2.487   4.534
   70X2IT    O2 2187   4.367   2.465   4.525
   70X2IT    N3 2188   4.285   2.537   4.765
   70X2IT   H15 2189   4.265   2.560   4.861
   70X2IT   H16 2190   4.381   2.517   4.737
   70X2IT    N2 2191   3.943   2.487   4.340
   70X2IT    C3 2192   3.804   2.439   4.327
   70X2IT    C2 2193   3.820   2.320   4.233
   70X2IT    H2 2194   3.734   2.283   4.177
   70X2IT    N1 2195   3.923   2.225   4.280
   70X2IT   H14 2196   3.907   2.133   4.236
   70X2IT    C1 2197   3.956   2.322   4.173
   70X2IT    H1 2198   3.977   2.288   4.072
   70X2IT   C11 2199   4.028   2.446   4.225
   70X2IT    O3 2200   4.019   2.537   4.117
   70X2IT   C15 2201   4.043   2.676   4.147
   71X2IT   H18 2202   1.832   1.805   2.422
   71X2IT    N4 2203   1.817   1.740   2.497
   71X2IT   H17 2204   1.753   1.768   2.570
   71X2IT   C14 2205   1.829   1.607   2.466
   71X2IT    O5 2206   1.882   1.563   2.365
   71X2IT    O4 2207   1.776   1.531   2.566
   71X2IT   C13 2208   1.788   1.388   2.549
   71X2IT   C10 2209   1.926   1.337   2.595
   71X2IT    C9 2210   1.939   1.187   2.586
   71X2IT    C4 2211   1.970   1.134   2.710
   71X2IT    C5 2212   1.989   0.988   2.737
   71X2IT    O1 2213   2.021   0.950   2.850
   71X2IT    C6 2214   1.971   0.899   2.624
   71X2IT   C12 2215   1.989   0.750   2.644
   71X2IT    C7 2216   1.942   0.952   2.500
   71X2IT    C8 2217   1.923   1.102   2.474
   71X2IT    O2 2218   1.892   1.137   2.360
   71X2IT    N3 2219   1.925   0.878   2.389
   71X2IT   H15 2220   1.932   0.777   2.389
   71X2IT   H16 2221   1.901   0.927   2.303
   71X2IT    N2 2222   1.988   1.231   2.804
   71X2IT    C3 2223   1.957   1.225   2.948
   71X2IT    C2 2224   1.857   1.338   2.964
   71X2IT    H2 2225   1.839   1.381   3.062
   71X2IT    N1 2226   1.745   1.329   2.867
   71X2IT   H14 2227   1.665   1.382   2.902
   71X2IT    C1 2228   1.857   1.422   2.841
   71X2IT    H1 2229   1.841   1.529   2.842
   71X2IT   C11 2230   1.961   1.366   2.746
   71X2IT    O3 2231   2.072   1.453   2.761
   71X2IT   C15 2232   2.199   1.405   2.715
   72X2IT   H18 2233   0.847  -0.211   0.845
   72X2IT    N4 2234   0.918  -0.181   0.780
   72X2IT   H17 2235   1.000  -0.239   0.771
   72X2IT   C14 2236   0.874  -0.109   0.672
   72X2IT    O5 2237   0.765  -0.056   0.662
   72X2IT    O4 2238   0.973  -0.101   0.578
   72X2IT   C13 2239   0.944  -0.023   0.461
   72X2IT   C10 2240   0.969   0.127   0.486
   72X2IT    C9 2241   0.946   0.213   0.364
   72X2IT    C4 2242   1.061   0.283   0.332
   72X2IT    C5 2243   1.073   0.376   0.216
   72X2IT    O1 2244   1.179   0.438   0.197
   72X2IT    C6 2245   0.956   0.389   0.131
   72X2IT   C12 2246   0.961   0.482   0.012
   72X2IT    C7 2247   0.841   0.320   0.164
   72X2IT    C8 2248   0.830   0.225   0.283
   72X2IT    O2 2249   0.723   0.165   0.300
   72X2IT    N3 2250   0.727   0.327   0.093
   72X2IT   H15 2251   0.718   0.383   0.010
   72X2IT   H16 2252   0.649   0.270   0.125
   72X2IT    N2 2253   1.160   0.263   0.424
   72X2IT    C3 2254   1.305   0.260   0.401
   72X2IT    C2 2255   1.342   0.120   0.448
   72X2IT    H2 2256   1.445   0.097   0.475
   72X2IT    N1 2257   1.258   0.015   0.384
   72X2IT   H14 2258   1.306  -0.075   0.390
   72X2IT    C1 2259   1.227   0.061   0.521
   72X2IT    H1 2260   1.239  -0.006   0.606
   72X2IT   C11 2261   1.117   0.165   0.527
   72X2IT    O3 2262   1.126   0.218   0.658
   72X2IT   C15 2263   1.062   0.344   0.682
   73X2IT   H18 2264   2.427   4.548   1.333
   73X2IT    N4 2265   2.437   4.624   1.398
   73X2IT   H17 2266   2.371   4.700   1.389
   73X2IT   C14 2267   2.486   4.592   1.521
   73X2IT    O5 2268   2.545   4.489   1.549
   73X2IT    O4 2269   2.465   4.696   1.608
   73X2IT   C13 2270   2.519   4.680   1.741
   73X2IT   C10 2271   2.668   4.718   1.746
   73X2IT    C9 2272   2.726   4.709   1.886
   73X2IT    C4 2273   2.778   4.831   1.924
   73X2IT    C5 2274   2.842   4.857   2.057
   73X2IT    O1 2275   2.889   4.969   2.081
   73X2IT    C6 2276   2.846   4.747   2.149
   73X2IT   C12 2277   2.909   4.766   2.285
   73X2IT    C7 2278   2.795   4.624   2.111
   73X2IT    C8 2279   2.730   4.599   1.974
   73X2IT    O2 2280   2.684   4.486   1.952
   73X2IT    N3 2281   2.796   4.515   2.189
   73X2IT   H15 2282   2.833   4.515   2.283
   73X2IT   H16 2283   2.754   4.430   2.151
   73X2IT    N2 2284   2.771   4.923   1.824
   73X2IT    C3 2285   2.750   5.068   1.836
   73X2IT    C2 2286   2.621   5.090   1.758
   73X2IT    H2 2287   2.597   5.189   1.720
   73X2IT    N1 2288   2.513   5.000   1.803
   73X2IT   H14 2289   2.423   5.039   1.775
   73X2IT    C1 2290   2.589   4.967   1.681
   73X2IT    H1 2291   2.542   4.968   1.584
   73X2IT   C11 2292   2.701   4.866   1.705
   73X2IT    O3 2293   2.780   4.874   1.588
   73X2IT   C15 2294   2.913   4.821   1.596
   74X2IT   H18 2295   2.240   2.059   3.566
   74X2IT    N4 2296   2.257   2.132   3.499
   74X2IT   H17 2297   2.286   2.105   3.406
   74X2IT   C14 2298   2.184   2.247   3.515
   74X2IT    O5 2299   2.122   2.278   3.615
   74X2IT    O4 2300   2.194   2.324   3.402
   74X2IT   C13 2301   2.127   2.452   3.407
   74X2IT   C10 2302   2.213   2.558   3.477
   74X2IT    C9 2303   2.149   2.695   3.477
   74X2IT    C4 2304   2.232   2.787   3.415
   74X2IT    C5 2305   2.199   2.932   3.398
   74X2IT    O1 2306   2.281   3.008   3.344
   74X2IT    C6 2307   2.070   2.975   3.448
   74X2IT   C12 2308   2.030   3.120   3.433
   74X2IT    C7 2309   1.988   2.884   3.511
   74X2IT    C8 2310   2.024   2.736   3.528
   74X2IT    O2 2311   1.940   2.662   3.582
   74X2IT    N3 2312   1.867   2.914   3.562
   74X2IT   H15 2313   1.828   3.006   3.557
   74X2IT   H16 2314   1.814   2.838   3.605
   74X2IT    N2 2315   2.351   2.732   3.378
   74X2IT    C3 2316   2.434   2.765   3.262
   74X2IT    C2 2317   2.439   2.632   3.187
   74X2IT    H2 2318   2.519   2.614   3.115
   74X2IT    N1 2319   2.304   2.576   3.164
   74X2IT   H14 2320   2.309   2.509   3.086
   74X2IT    C1 2321   2.387   2.524   3.275
   74X2IT    H1 2322   2.426   2.423   3.273
   74X2IT   C11 2323   2.353   2.586   3.409
   74X2IT    O3 2324   2.462   2.551   3.492
   74X2IT   C15 2325   2.479   2.625   3.614
   75X2IT   H18 2326   3.976   1.169  -0.233
   75X2IT    N4 2327   3.956   1.237  -0.162
   75X2IT   H17 2328   3.884   1.305  -0.182
   75X2IT   C14 2329   3.976   1.196  -0.033
   75X2IT    O5 2330   4.040   1.098   0.001
   75X2IT    O4 2331   3.917   1.284   0.053
   75X2IT   C13 2332   3.935   1.258   0.194
   75X2IT   C10 2333   4.069   1.312   0.245
   75X2IT    C9 2334   4.089   1.293   0.393
   75X2IT    C4 2335   4.109   1.415   0.455
   75X2IT    C5 2336   4.131   1.431   0.603
   75X2IT    O1 2337   4.153   1.544   0.649
   75X2IT    C6 2338   4.127   1.310   0.682
   75X2IT   C12 2339   4.148   1.320   0.832
   75X2IT    C7 2340   4.108   1.189   0.620
   75X2IT    C8 2341   4.086   1.173   0.469
   75X2IT    O2 2342   4.065   1.059   0.425
   75X2IT    N3 2343   4.104   1.071   0.685
   75X2IT   H15 2344   4.115   1.063   0.785
   75X2IT   H16 2345   4.088   0.987   0.629
   75X2IT    N2 2346   4.115   1.517   0.366
   75X2IT    C3 2347   4.070   1.656   0.385
   75X2IT    C2 2348   3.965   1.671   0.276
   75X2IT    H2 2349   3.937   1.771   0.242
   75X2IT    N1 2350   3.864   1.563   0.281
   75X2IT   H14 2351   3.779   1.594   0.232
   75X2IT    C1 2352   3.974   1.556   0.183
   75X2IT    H1 2353   3.954   1.565   0.077
   75X2IT   C11 2354   4.089   1.468   0.228
   75X2IT    O3 2355   4.195   1.501   0.139
   75X2IT   C15 2356   4.327   1.464   0.179
   76X2IT   H18 2357   2.326   4.506   3.250
   76X2IT    N4 2358   2.377   4.516   3.165
   76X2IT   H17 2359   2.342   4.467   3.084
   76X2IT   C14 2360   2.442   4.635   3.147
   76X2IT    O5 2361   2.466   4.716   3.235
   76X2IT    O4 2362   2.480   4.648   3.016
   76X2IT   C13 2363   2.556   4.767   2.984
   76X2IT   C10 2364   2.706   4.748   3.017
   76X2IT    C9 2365   2.790   4.867   2.978
   76X2IT    C4 2366   2.889   4.829   2.889
   76X2IT    C5 2367   2.990   4.923   2.830
   76X2IT    O1 2368   3.077   4.880   2.754
   76X2IT    C6 2369   2.978   5.062   2.868
   76X2IT   C12 2370   3.076   5.163   2.811
   76X2IT    C7 2371   2.879   5.100   2.957
   76X2IT    C8 2372   2.778   5.003   3.017
   76X2IT    O2 2373   2.691   5.049   3.093
   76X2IT    N3 2374   2.862   5.226   2.999
   76X2IT   H15 2375   2.918   5.303   2.968
   76X2IT   H16 2376   2.785   5.243   3.065
   76X2IT    N2 2377   2.889   4.695   2.868
   76X2IT    C3 2378   2.925   4.623   2.744
   76X2IT    C2 2379   2.796   4.548   2.713
   76X2IT    H2 2380   2.799   4.461   2.647
   76X2IT    N1 2381   2.678   4.638   2.711
   76X2IT   H14 2382   2.603   4.594   2.657
   76X2IT    C1 2383   2.705   4.555   2.830
   76X2IT    H1 2384   2.638   4.474   2.857
   76X2IT   C11 2385   2.777   4.630   2.941
   76X2IT    O3 2386   2.822   4.528   3.028
   76X2IT   C15 2387   2.926   4.562   3.121
   77X2IT   H18 2388   4.841   1.704   5.105
   77X2IT    N4 2389   4.821   1.642   5.029
   77X2IT   H17 2390   4.885   1.641   4.951
   77X2IT   C14 2391   4.755   1.527   5.061
   77X2IT    O5 2392   4.695   1.507   5.165
   77X2IT    O4 2393   4.761   1.439   4.957
   77X2IT   C13 2394   4.689   1.315   4.974
   77X2IT   C10 2395   4.540   1.331   4.939
   77X2IT    C9 2396   4.463   1.201   4.949
   77X2IT    C4 2397   4.403   1.172   4.827
   77X2IT    C5 2398   4.320   1.050   4.803
   77X2IT    O1 2399   4.267   1.033   4.692
   77X2IT    C6 2400   4.305   0.958   4.913
   77X2IT   C12 2401   4.222   0.833   4.895
   77X2IT    C7 2402   4.363   0.988   5.035
   77X2IT    C8 2403   4.448   1.113   5.059
   77X2IT    O2 2404   4.499   1.128   5.171
   77X2IT    N3 2405   4.354   0.910   5.143
   77X2IT   H15 2406   4.304   0.823   5.144
   77X2IT   H16 2407   4.403   0.941   5.228
   77X2IT    N2 2408   4.423   1.270   4.736
   77X2IT    C3 2409   4.438   1.256   4.590
   77X2IT    C2 2410   4.576   1.315   4.566
   77X2IT    H2 2411   4.604   1.350   4.467
   77X2IT    N1 2412   4.679   1.254   4.654
   77X2IT   H14 2413   4.771   1.269   4.613
   77X2IT    C1 2414   4.622   1.386   4.689
   77X2IT    H1 2415   4.683   1.475   4.686
   77X2IT   C11 2416   4.510   1.377   4.792
   77X2IT    O3 2417   4.448   1.505   4.785
   77X2IT   C15 2418   4.317   1.516   4.842
   78X2IT   H18 2419   0.735   2.720   3.881
   78X2IT    N4 2420   0.709   2.779   3.805
   78X2IT   H17 2421   0.674   2.871   3.828
   78X2IT   C14 2422   0.776   2.761   3.687
   78X2IT    O5 2423   0.843   2.664   3.659
   78X2IT    O4 2424   0.752   2.867   3.604
   78X2IT   C13 2425   0.811   2.858   3.472
   78X2IT   C10 2426   0.724   2.775   3.377
   78X2IT    C9 2427   0.779   2.770   3.236
   78X2IT    C4 2428   0.686   2.819   3.146
   78X2IT    C5 2429   0.710   2.828   2.998
   78X2IT    O1 2430   0.619   2.870   2.925
   78X2IT    C6 2431   0.839   2.786   2.950
   78X2IT   C12 2432   0.869   2.793   2.802
   78X2IT    C7 2433   0.931   2.736   3.040
   78X2IT    C8 2434   0.906   2.726   3.191
   78X2IT    O2 2435   0.998   2.683   3.262
   78X2IT    N3 2436   1.053   2.692   3.005
   78X2IT   H15 2437   1.087   2.693   2.910
   78X2IT   H16 2438   1.114   2.658   3.080
   78X2IT    N2 2439   0.569   2.850   3.206
   78X2IT    C3 2440   0.475   2.958   3.171
   78X2IT    C2 2441   0.472   3.041   3.299
   78X2IT    H2 2442   0.388   3.108   3.317
   78X2IT    N1 2443   0.607   3.078   3.345
   78X2IT   H14 2444   0.601   3.159   3.407
   78X2IT    C1 2445   0.537   2.965   3.409
   78X2IT    H1 2446   0.504   2.971   3.512
   78X2IT   C11 2447   0.578   2.830   3.354
   78X2IT    O3 2448   0.478   2.741   3.401
   78X2IT   C15 2449   0.467   2.614   3.336
   79X2IT   H18 2450   4.119   2.599   1.093
   79X2IT    N4 2451   4.180   2.666   1.051
   79X2IT   H17 2452   4.209   2.648   0.956
   79X2IT   C14 2453   4.169   2.795   1.094
   79X2IT    O5 2454   4.112   2.831   1.195
   79X2IT    O4 2455   4.235   2.878   1.008
   79X2IT   C13 2456   4.237   3.018   1.044
   79X2IT   C10 2457   4.349   3.049   1.145
   79X2IT    C9 2458   4.359   3.195   1.180
   79X2IT    C4 2459   4.485   3.243   1.150
   79X2IT    C5 2460   4.528   3.385   1.172
   79X2IT    O1 2461   4.644   3.419   1.145
   79X2IT    C6 2462   4.428   3.475   1.224
   79X2IT   C12 2463   4.465   3.620   1.248
   79X2IT    C7 2464   4.303   3.427   1.255
   79X2IT    C8 2465   4.260   3.282   1.233
   79X2IT    O2 2466   4.143   3.251   1.260
   79X2IT    N3 2467   4.204   3.503   1.306
   79X2IT   H15 2468   4.214   3.601   1.325
   79X2IT   H16 2469   4.114   3.457   1.324
   79X2IT    N2 2470   4.568   3.145   1.105
   79X2IT    C3 2471   4.676   3.156   1.007
   79X2IT    C2 2472   4.632   3.058   0.899
   79X2IT    H2 2473   4.705   3.018   0.829
   79X2IT    N1 2474   4.493   3.084   0.854
   79X2IT   H14 2475   4.479   3.042   0.761
   79X2IT    C1 2476   4.520   2.975   0.950
   79X2IT    H1 2477   4.506   2.872   0.923
   79X2IT   C11 2478   4.495   3.016   1.095
   79X2IT    O3 2479   4.557   2.913   1.171
   79X2IT   C15 2480   4.584   2.941   1.308
   80X2IT   H18 2481   4.386   4.852   2.748
   80X2IT    N4 2482   4.457   4.875   2.682
   80X2IT   H17 2483   4.553   4.873   2.715
   80X2IT   C14 2484   4.431   4.844   2.551
   80X2IT    O5 2485   4.321   4.818   2.506
   80X2IT    O4 2486   4.546   4.852   2.478
   80X2IT   C13 2487   4.533   4.829   2.336
   80X2IT   C10 2488   4.488   4.956   2.262
   80X2IT    C9 2489   4.480   4.938   2.112
   80X2IT    C4 2490   4.562   5.028   2.048
   80X2IT    C5 2491   4.578   5.036   1.899
   80X2IT    O1 2492   4.651   5.124   1.850
   80X2IT    C6 2493   4.504   4.941   1.821
   80X2IT   C12 2494   4.515   4.943   1.670
   80X2IT    C7 2495   4.420   4.851   1.885
   80X2IT    C8 2496   4.405   4.844   2.037
   80X2IT    O2 2497   4.331   4.756   2.084
   80X2IT    N3 2498   4.346   4.759   1.821
   80X2IT   H15 2499   4.346   4.748   1.721
   80X2IT   H16 2500   4.289   4.696   1.879
   80X2IT    N2 2501   4.621   5.114   2.135
   80X2IT    C3 2502   4.754   5.176   2.126
   80X2IT    C2 2503   4.823   5.125   2.252
   80X2IT    H2 2504   4.910   5.178   2.291
   80X2IT    N1 2505   4.814   4.978   2.265
   80X2IT   H14 2506   4.887   4.945   2.328
   80X2IT    C1 2507   4.721   5.064   2.342
   80X2IT    H1 2508   4.727   5.069   2.450
   80X2IT   C11 2509   4.585   5.079   2.276
   80X2IT    O3 2510   4.526   5.189   2.344
   80X2IT   C15 2511   4.415   5.253   2.281
   81X2IT   H18 2512   3.140   3.005   5.256
   81X2IT    N4 2513   3.147   3.069   5.180
   81X2IT   H17 2514   3.165   3.166   5.203
   81X2IT   C14 2515   3.194   3.019   5.062
   81X2IT    O5 2516   3.201   2.901   5.034
   81X2IT    O4 2517   3.228   3.121   4.978
   81X2IT   C13 2518   3.273   3.083   4.846
   81X2IT   C10 2519   3.155   3.056   4.751
   81X2IT    C9 2520   3.198   3.023   4.611
   81X2IT    C4 2521   3.143   3.113   4.521
   81X2IT    C5 2522   3.166   3.108   4.373
   81X2IT    O1 2523   3.110   3.191   4.300
   81X2IT    C6 2524   3.255   3.005   4.325
   81X2IT   C12 2525   3.283   2.995   4.176
   81X2IT    C7 2526   3.309   2.915   4.414
   81X2IT    C8 2527   3.283   2.920   4.565
   81X2IT    O2 2528   3.341   2.836   4.636
   81X2IT    N3 2529   3.391   2.814   4.378
   81X2IT   H15 2530   3.419   2.798   4.284
   81X2IT   H16 2531   3.426   2.754   4.453
   81X2IT    N2 2532   3.059   3.200   4.582
   81X2IT    C3 2533   3.033   3.341   4.546
   81X2IT    C2 2534   3.075   3.414   4.673
   81X2IT    H2 2535   3.038   3.515   4.692
   81X2IT    N1 2536   3.210   3.376   4.718
   81X2IT   H14 2537   3.248   3.449   4.780
   81X2IT    C1 2538   3.092   3.316   4.783
   81X2IT    H1 2539   3.069   3.338   4.887
   81X2IT   C11 2540   3.057   3.178   4.729
   81X2IT    O3 2541   2.927   3.154   4.778
   81X2IT   C15 2542   2.851   3.051   4.714
   82X2IT   H18 2543   3.954   2.531   0.896
   82X2IT    N4 2544   3.872   2.586   0.914
   82X2IT   H17 2545   3.787   2.535   0.935
   82X2IT   C14 2546   3.891   2.708   0.971
   82X2IT    O5 2547   3.998   2.768   0.975
   82X2IT    O4 2548   3.773   2.757   1.019
   82X2IT   C13 2549   3.777   2.890   1.076
   82X2IT   C10 2550   3.768   2.998   0.967
   82X2IT    C9 2551   3.765   3.139   1.023
   82X2IT    C4 2552   3.650   3.204   0.983
   82X2IT    C5 2553   3.616   3.345   1.021
   82X2IT    O1 2554   3.512   3.397   0.977
   82X2IT    C6 2555   3.709   3.412   1.109
   82X2IT   C12 2556   3.680   3.554   1.152
   82X2IT    C7 2557   3.824   3.347   1.149
   82X2IT    C8 2558   3.858   3.204   1.107
   82X2IT    O2 2559   3.963   3.153   1.153
   82X2IT    N3 2560   3.917   3.402   1.228
   82X2IT   H15 2561   3.910   3.495   1.266
   82X2IT   H16 2562   3.998   3.344   1.252
   82X2IT    N2 2563   3.576   3.129   0.897
   82X2IT    C3 2564   3.430   3.126   0.883
   82X2IT    C2 2565   3.397   2.980   0.914
   82X2IT    H2 2566   3.303   2.938   0.881
   82X2IT    N1 2567   3.457   2.936   1.043
   82X2IT   H14 2568   3.406   2.854   1.077
   82X2IT    C1 2569   3.523   2.901   0.915
   82X2IT    H1 2570   3.528   2.798   0.882
   82X2IT   C11 2571   3.637   2.994   0.879
   82X2IT    O3 2572   3.663   2.966   0.743
   82X2IT   C15 2573   3.739   3.063   0.669
   83X2IT   H18 2574   1.299   3.294   2.500
   83X2IT    N4 2575   1.338   3.385   2.482
   83X2IT   H17 2576   1.313   3.429   2.395
   83X2IT   C14 2577   1.366   3.462   2.591
   83X2IT    O5 2578   1.373   3.422   2.706
   83X2IT    O4 2579   1.389   3.591   2.552
   83X2IT   C13 2580   1.426   3.684   2.657
   83X2IT   C10 2581   1.576   3.676   2.688
   83X2IT    C9 2582   1.620   3.776   2.792
   83X2IT    C4 2583   1.719   3.858   2.740
   83X2IT    C5 2584   1.784   3.970   2.818
   83X2IT    O1 2585   1.874   4.036   2.764
   83X2IT    C6 2586   1.736   3.991   2.952
   83X2IT   C12 2587   1.797   4.102   3.035
   83X2IT    C7 2588   1.638   3.909   3.004
   83X2IT    C8 2589   1.573   3.795   2.924
   83X2IT    O2 2590   1.483   3.730   2.979
   83X2IT    N3 2591   1.589   3.920   3.128
   83X2IT   H15 2592   1.619   3.990   3.193
   83X2IT   H16 2593   1.516   3.854   3.155
   83X2IT    N2 2594   1.755   3.822   2.615
   83X2IT    C3 2595   1.800   3.909   2.505
   83X2IT    C2 2596   1.695   3.881   2.398
   83X2IT    H2 2597   1.717   3.904   2.293
   83X2IT    N1 2598   1.557   3.897   2.448
   83X2IT   H14 2599   1.494   3.912   2.370
   83X2IT    C1 2600   1.616   3.762   2.436
   83X2IT    H1 2601   1.577   3.691   2.364
   83X2IT   C11 2602   1.672   3.708   2.567
   83X2IT    O3 2603   1.751   3.597   2.528
   83X2IT   C15 2604   1.847   3.549   2.622
   84X2IT   H18 2605   3.711   2.702   0.756
   84X2IT    N4 2606   3.740   2.773   0.693
   84X2IT   H17 2607   3.802   2.844   0.728
   84X2IT   C14 2608   3.747   2.738   0.561
   84X2IT    O5 2609   3.697   2.639   0.512
   84X2IT    O4 2610   3.816   2.834   0.491
   84X2IT   C13 2611   3.826   2.813   0.348
   84X2IT   C10 2612   3.700   2.863   0.275
   84X2IT    C9 2613   3.710   2.850   0.125
   84X2IT    C4 2614   3.694   2.973   0.065
   84X2IT    C5 2615   3.699   2.995  -0.084
   84X2IT    O1 2616   3.680   3.109  -0.129
   84X2IT    C6 2617   3.725   2.879  -0.165
   84X2IT   C12 2618   3.731   2.895  -0.316
   84X2IT    C7 2619   3.740   2.756  -0.105
   84X2IT    C8 2620   3.734   2.734   0.046
   84X2IT    O2 2621   3.753   2.620   0.089
   84X2IT    N3 2622   3.762   2.642  -0.173
   84X2IT   H15 2623   3.771   2.638  -0.273
   84X2IT   H16 2624   3.773   2.556  -0.118
   84X2IT    N2 2625   3.665   3.071   0.155
   84X2IT    C3 2626   3.704   3.212   0.150
   84X2IT    C2 2627   3.786   3.228   0.277
   84X2IT    H2 2628   3.802   3.327   0.320
   84X2IT    N1 2629   3.893   3.126   0.288
   84X2IT   H14 2630   3.965   3.159   0.353
   84X2IT    C1 2631   3.767   3.108   0.363
   84X2IT    H1 2632   3.766   3.112   0.471
   84X2IT   C11 2633   3.668   3.016   0.294
   84X2IT    O3 2634   3.546   3.039   0.362
   84X2IT   C15 2635   3.426   2.997   0.296
   85X2IT   H18 2636   2.125   0.631   3.911
   85X2IT    N4 2637   2.165   0.613   4.002
   85X2IT   H17 2638   2.264   0.626   4.012
   85X2IT   C14 2639   2.083   0.635   4.109
   85X2IT    O5 2640   1.962   0.647   4.105
   85X2IT    O4 2641   2.158   0.636   4.224
   85X2IT   C13 2642   2.084   0.651   4.347
   85X2IT   C10 2643   2.027   0.517   4.396
   85X2IT    C9 2644   1.955   0.528   4.529
   85X2IT    C4 2645   2.013   0.444   4.622
   85X2IT    C5 2646   1.967   0.431   4.764
   85X2IT    O1 2647   2.022   0.350   4.839
   85X2IT    C6 2648   1.856   0.515   4.803
   85X2IT   C12 2649   1.804   0.507   4.945
   85X2IT    C7 2650   1.798   0.598   4.710
   85X2IT    C8 2651   1.846   0.610   4.565
   85X2IT    O2 2652   1.789   0.692   4.491
   85X2IT    N3 2653   1.694   0.679   4.737
   85X2IT   H15 2654   1.651   0.685   4.827
   85X2IT   H16 2655   1.659   0.738   4.660
   85X2IT    N2 2656   2.113   0.368   4.568
   85X2IT    C3 2657   2.236   0.321   4.632
   85X2IT    C2 2658   2.344   0.384   4.546
   85X2IT    H2 2659   2.445   0.342   4.547
   85X2IT    N1 2660   2.325   0.530   4.530
   85X2IT   H14 2661   2.414   0.573   4.503
   85X2IT    C1 2662   2.283   0.438   4.422
   85X2IT    H1 2663   2.334   0.438   4.326
   85X2IT   C11 2664   2.135   0.405   4.425
   85X2IT    O3 2665   2.122   0.294   4.339
   85X2IT   C15 2666   2.002   0.215   4.350
   86X2IT   H18 2667   1.623   3.573   1.868
   86X2IT    N4 2668   1.705   3.569   1.809
   86X2IT   H17 2669   1.786   3.520   1.845
   86X2IT   C14 2670   1.683   3.571   1.674
   86X2IT    O5 2671   1.578   3.604   1.620
   86X2IT    O4 2672   1.796   3.535   1.608
   86X2IT   C13 2673   1.790   3.539   1.463
   86X2IT   C10 2674   1.814   3.681   1.410
   86X2IT    C9 2675   1.815   3.688   1.259
   86X2IT    C4 2676   1.936   3.739   1.214
   86X2IT    C5 2677   1.970   3.759   1.069
   86X2IT    O1 2678   2.079   3.809   1.038
   86X2IT    C6 2679   1.870   3.718   0.973
   86X2IT   C12 2680   1.898   3.734   0.825
   86X2IT    C7 2681   1.749   3.668   1.018
   86X2IT    C8 2682   1.715   3.650   1.166
   86X2IT    O2 2683   1.605   3.600   1.195
   86X2IT    N3 2684   1.649   3.629   0.937
   86X2IT   H15 2685   1.655   3.633   0.837
   86X2IT   H16 2686   1.565   3.592   0.981
   86X2IT    N2 2687   2.016   3.777   1.317
   86X2IT    C3 2688   2.163   3.772   1.322
   86X2IT    C2 2689   2.188   3.680   1.441
   86X2IT    H2 2690   2.284   3.682   1.492
   86X2IT    N1 2691   2.113   3.552   1.429
   86X2IT   H14 2692   2.157   3.482   1.489
   86X2IT    C1 2693   2.061   3.660   1.515
   86X2IT    H1 2694   2.056   3.648   1.623
   86X2IT   C11 2695   1.954   3.744   1.448
   86X2IT    O3 2696   1.942   3.858   1.531
   86X2IT   C15 2697   1.878   3.974   1.474
   87X2IT   H18 2698   3.971   1.845   3.042
   87X2IT    N4 2699   3.928   1.865   3.130
   87X2IT   H17 2700   3.883   1.788   3.178
   87X2IT   C14 2701   3.984   1.966   3.204
   87X2IT    O5 2702   4.062   2.049   3.161
   87X2IT    O4 2703   3.937   1.962   3.332
   87X2IT   C13 2704   3.982   2.066   3.420
   87X2IT   C10 2705   3.898   2.194   3.403
   87X2IT    C9 2706   3.938   2.305   3.498
   87X2IT    C4 2707   3.830   2.342   3.576
   87X2IT    C5 2708   3.836   2.449   3.681
   87X2IT    O1 2709   3.733   2.479   3.743
   87X2IT    C6 2710   3.964   2.511   3.703
   87X2IT   C12 2711   3.977   2.619   3.809
   87X2IT    C7 2712   4.072   2.474   3.625
   87X2IT    C8 2713   4.065   2.366   3.517
   87X2IT    O2 2714   4.169   2.337   3.456
   87X2IT    N3 2715   4.195   2.528   3.637
   87X2IT   H15 2716   4.217   2.599   3.704
   87X2IT   H16 2717   4.268   2.491   3.575
   87X2IT    N2 2718   3.717   2.278   3.540
   87X2IT    C3 2719   3.605   2.236   3.626
   87X2IT    C2 2720   3.603   2.085   3.606
   87X2IT    H2 2721   3.513   2.028   3.630
   87X2IT    N1 2722   3.736   2.024   3.629
   87X2IT   H14 2723   3.725   1.925   3.650
   87X2IT    C1 2724   3.690   2.049   3.491
   87X2IT    H1 2725   3.668   1.967   3.424
   87X2IT   C11 2726   3.744   2.178   3.432
   87X2IT    O3 2727   3.664   2.200   3.318
   87X2IT   C15 2728   3.664   2.333   3.262
   88X2IT   H18 2729   1.788   0.757   3.886
   88X2IT    N4 2730   1.775   0.797   3.795
   88X2IT   H17 2731   1.698   0.762   3.740
   88X2IT   C14 2732   1.814   0.927   3.781
   88X2IT    O5 2733   1.886   0.988   3.858
   88X2IT    O4 2734   1.764   0.978   3.664
   88X2IT   C13 2735   1.803   1.113   3.632
   88X2IT   C10 2736   1.940   1.118   3.564
   88X2IT    C9 2737   1.982   1.257   3.522
   88X2IT    C4 2738   2.005   1.261   3.386
   88X2IT    C5 2739   2.047   1.385   3.312
   88X2IT    O1 2740   2.070   1.378   3.190
   88X2IT    C6 2741   2.059   1.506   3.390
   88X2IT   C12 2742   2.101   1.634   3.321
   88X2IT    C7 2743   2.036   1.501   3.526
   88X2IT    C8 2744   1.995   1.374   3.600
   88X2IT    O2 2745   1.972   1.383   3.722
   88X2IT    N3 2746   2.047   1.608   3.607
   88X2IT   H15 2747   2.072   1.700   3.574
   88X2IT   H16 2748   2.026   1.594   3.706
   88X2IT    N2 2749   1.994   1.139   3.328
   88X2IT    C3 2750   1.947   1.106   3.193
   88X2IT    C2 2751   1.827   1.017   3.221
   88X2IT    H2 2752   1.790   0.950   3.143
   88X2IT    N1 2753   1.732   1.079   3.316
   88X2IT   H14 2754   1.640   1.035   3.306
   88X2IT    C1 2755   1.827   0.977   3.364
   88X2IT    H1 2756   1.793   0.881   3.399
   88X2IT   C11 2757   1.951   1.037   3.429
   88X2IT    O3 2758   2.042   0.929   3.436
   88X2IT   C15 2759   2.180   0.960   3.457
   89X2IT   H18 2760   1.518   4.537   1.947
   89X2IT    N4 2761   1.592   4.594   1.912
   89X2IT   H17 2762   1.687   4.568   1.938
   89X2IT   C14 2763   1.571   4.656   1.792
   89X2IT    O5 2764   1.462   4.670   1.739
   89X2IT    O4 2765   1.689   4.704   1.743
   89X2IT   C13 2766   1.680   4.778   1.619
   89X2IT   C10 2767   1.641   4.925   1.644
   89X2IT    C9 2768   1.638   5.008   1.517
   89X2IT    C4 2769   1.725   5.115   1.528
   89X2IT    C5 2770   1.747   5.216   1.420
   89X2IT    O1 2771   1.824   5.311   1.439
   89X2IT    C6 2772   1.673   5.196   1.297
   89X2IT   C12 2773   1.691   5.295   1.183
   89X2IT    C7 2774   1.586   5.090   1.287
   89X2IT    C8 2775   1.564   4.988   1.399
   89X2IT    O2 2776   1.486   4.893   1.377
   89X2IT    N3 2777   1.512   5.064   1.178
   89X2IT   H15 2778   1.515   5.120   1.094
   89X2IT   H16 2779   1.451   4.982   1.181
   89X2IT    N2 2780   1.783   5.122   1.651
   89X2IT    C3 2781   1.918   5.169   1.685
   89X2IT    C2 2782   1.980   5.046   1.750
   89X2IT    H2 2783   2.067   5.057   1.815
   89X2IT    N1 2784   1.967   4.926   1.665
   89X2IT   H14 2785   2.037   4.857   1.693
   89X2IT    C1 2786   1.874   4.946   1.777
   89X2IT    H1 2787   1.876   4.881   1.863
   89X2IT   C11 2788   1.741   5.006   1.735
   89X2IT    O3 2789   1.682   5.049   1.857
   89X2IT   C15 2790   1.574   5.143   1.848
   90X2IT   H18 2791   0.272   0.314   4.889
   90X2IT    N4 2792   0.260   0.396   4.832
   90X2IT   H17 2793   0.222   0.478   4.877
   90X2IT   C14 2794   0.349   0.412   4.730
   90X2IT    O5 2795   0.421   0.325   4.685
   90X2IT    O4 2796   0.342   0.540   4.682
   90X2IT   C13 2797   0.426   0.570   4.568
   90X2IT   C10 2798   0.360   0.527   4.436
   90X2IT    C9 2799   0.442   0.563   4.314
   90X2IT    C4 2800   0.368   0.643   4.230
   90X2IT    C5 2801   0.420   0.698   4.100
   90X2IT    O1 2802   0.346   0.766   4.028
   90X2IT    C6 2803   0.557   0.664   4.066
   90X2IT   C12 2804   0.615   0.716   3.936
   90X2IT    C7 2805   0.630   0.583   4.150
   90X2IT    C8 2806   0.575   0.527   4.282
   90X2IT    O2 2807   0.651   0.459   4.352
   90X2IT    N3 2808   0.756   0.545   4.126
   90X2IT   H15 2809   0.808   0.574   4.045
   90X2IT   H16 2810   0.801   0.486   4.196
   90X2IT    N2 2811   0.241   0.661   4.274
   90X2IT    C3 2812   0.156   0.780   4.258
   90X2IT    C2 2813   0.127   0.819   4.402
   90X2IT    H2 2814   0.042   0.882   4.426
   90X2IT    N1 2815   0.251   0.831   4.482
   90X2IT   H14 2816   0.233   0.889   4.565
   90X2IT    C1 2817   0.170   0.708   4.492
   90X2IT    H1 2818   0.118   0.683   4.584
   90X2IT   C11 2819   0.221   0.595   4.405
   90X2IT    O3 2820   0.114   0.502   4.402
   90X2IT   C15 2821   0.116   0.403   4.299
   91X2IT   H18 2822   2.587   4.297   0.671
   91X2IT    N4 2823   2.650   4.227   0.706
   91X2IT   H17 2824   2.674   4.151   0.644
   91X2IT   C14 2825   2.742   4.269   0.798
   91X2IT    O5 2826   2.736   4.374   0.860
   91X2IT    O4 2827   2.839   4.175   0.814
   91X2IT   C13 2828   2.940   4.203   0.913
   91X2IT   C10 2829   2.892   4.163   1.054
   91X2IT    C9 2830   2.997   4.185   1.161
   91X2IT    C4 2831   3.024   4.066   1.226
   91X2IT    C5 2832   3.124   4.052   1.337
   91X2IT    O1 2833   3.139   3.942   1.392
   91X2IT    C6 2834   3.197   4.171   1.373
   91X2IT   C12 2835   3.300   4.164   1.483
   91X2IT    C7 2836   3.170   4.290   1.308
   91X2IT    C8 2837   3.067   4.303   1.196
   91X2IT    O2 2838   3.053   4.414   1.141
   91X2IT    N3 2839   3.232   4.406   1.336
   91X2IT   H15 2840   3.303   4.415   1.405
   91X2IT   H16 2841   3.204   4.488   1.280
   91X2IT    N2 2842   2.943   3.965   1.183
   91X2IT    C3 2843   2.975   3.822   1.173
   91X2IT    C2 2844   2.955   3.795   1.024
   91X2IT    H2 2845   2.938   3.693   0.990
   91X2IT    N1 2846   3.029   3.890   0.939
   91X2IT   H14 2847   3.041   3.850   0.846
   91X2IT    C1 2848   2.885   3.911   0.963
   91X2IT    H1 2849   2.813   3.900   0.882
   91X2IT   C11 2850   2.855   4.011   1.073
   91X2IT    O3 2851   2.718   3.991   1.102
   91X2IT   C15 2852   2.669   4.043   1.227
   92X2IT   H18 2853   3.961   4.458  -0.196
   92X2IT    N4 2854   3.958   4.559  -0.193
   92X2IT   H17 2855   3.898   4.605  -0.259
   92X2IT   C14 2856   3.980   4.616  -0.071
   92X2IT    O5 2857   4.028   4.559   0.026
   92X2IT    O4 2858   3.943   4.748  -0.074
   92X2IT   C13 2859   3.967   4.823   0.047
   92X2IT   C10 2860   4.112   4.873   0.055
   92X2IT    C9 2861   4.139   4.958   0.177
   92X2IT    C4 2862   4.184   5.083   0.138
   92X2IT    C5 2863   4.220   5.193   0.235
   92X2IT    O1 2864   4.264   5.300   0.192
   92X2IT    C6 2865   4.201   5.164   0.375
   92X2IT   C12 2866   4.234   5.270   0.478
   92X2IT    C7 2867   4.156   5.039   0.413
   92X2IT    C8 2868   4.121   4.928   0.314
   92X2IT    O2 2869   4.077   4.821   0.359
   92X2IT    N3 2870   4.137   5.002   0.541
   92X2IT   H15 2871   4.153   5.064   0.619
   92X2IT   H16 2872   4.102   4.907   0.557
   92X2IT    N2 2873   4.201   5.092   0.004
   92X2IT    C3 2874   4.183   5.211  -0.082
   92X2IT    C2 2875   4.074   5.165  -0.178
   92X2IT    H2 2876   4.061   5.216  -0.273
   92X2IT    N1 2877   3.956   5.110  -0.107
   92X2IT   H14 2878   3.875   5.113  -0.169
   92X2IT    C1 2879   4.056   5.018  -0.165
   92X2IT    H1 2880   4.031   4.954  -0.248
   92X2IT   C11 2881   4.157   4.967  -0.063
   92X2IT    O3 2882   4.260   4.910  -0.143
   92X2IT   C15 2883   4.387   4.889  -0.079
   93X2IT   H18 2884   4.554   2.461   5.115
   93X2IT    N4 2885   4.458   2.434   5.117
   93X2IT   H17 2886   4.393   2.497   5.163
   93X2IT   C14 2887   4.413   2.358   5.013
   93X2IT    O5 2888   4.485   2.298   4.934
   93X2IT    O4 2889   4.277   2.355   5.012
   93X2IT   C13 2890   4.216   2.272   4.911
   93X2IT   C10 2891   4.210   2.124   4.955
   93X2IT    C9 2892   4.140   2.036   4.855
   93X2IT    C4 2893   4.033   1.972   4.914
   93X2IT    C5 2894   3.941   1.877   4.842
   93X2IT    O1 2895   3.850   1.821   4.904
   93X2IT    C6 2896   3.968   1.856   4.702
   93X2IT   C12 2897   3.880   1.761   4.623
   93X2IT    C7 2898   4.076   1.918   4.643
   93X2IT    C8 2899   4.169   2.014   4.717
   93X2IT    O2 2900   4.260   2.069   4.653
   93X2IT    N3 2901   4.110   1.903   4.514
   93X2IT   H15 2902   4.059   1.845   4.450
   93X2IT   H16 2903   4.191   1.956   4.480
   93X2IT    N2 2904   4.024   1.999   5.047
   93X2IT    C3 2905   3.903   2.010   5.129
   93X2IT    C2 2906   3.912   2.153   5.181
   93X2IT    H2 2907   3.856   2.182   5.269
   93X2IT    N1 2908   3.933   2.251   5.072
   93X2IT   H14 2909   3.904   2.344   5.103
   93X2IT    C1 2910   4.048   2.207   5.153
   93X2IT    H1 2911   4.099   2.276   5.219
   93X2IT   C11 2912   4.129   2.097   5.087
   93X2IT    O3 2913   4.210   2.047   5.192
   93X2IT   C15 2914   4.270   1.918   5.173
   94X2IT   H18 2915   0.789   1.964   0.672
   94X2IT    N4 2916   0.728   2.042   0.688
   94X2IT   H17 2917   0.666   2.069   0.612
   94X2IT   C14 2918   0.688   2.063   0.817
   94X2IT    O5 2919   0.741   2.014   0.915
   94X2IT    O4 2920   0.583   2.151   0.820
   94X2IT   C13 2921   0.535   2.187   0.951
   94X2IT   C10 2922   0.620   2.300   1.013
   94X2IT    C9 2923   0.568   2.346   1.147
   94X2IT    C4 2924   0.539   2.481   1.143
   94X2IT    C5 2925   0.485   2.558   1.260
   94X2IT    O1 2926   0.465   2.680   1.249
   94X2IT    C6 2927   0.460   2.484   1.381
   94X2IT   C12 2928   0.405   2.555   1.503
   94X2IT    C7 2929   0.490   2.349   1.385
   94X2IT    C8 2930   0.546   2.271   1.265
   94X2IT    O2 2931   0.565   2.149   1.279
   94X2IT    N3 2932   0.472   2.271   1.493
   94X2IT   H15 2933   0.434   2.306   1.580
   94X2IT   H16 2934   0.496   2.172   1.484
   94X2IT    N2 2935   0.572   2.537   1.024
   94X2IT    C3 2936   0.505   2.648   0.955
   94X2IT    C2 2937   0.464   2.584   0.823
   94X2IT    H2 2938   0.443   2.647   0.737
   94X2IT    N1 2939   0.389   2.458   0.843
   94X2IT   H14 2940   0.335   2.437   0.759
   94X2IT    C1 2941   0.533   2.453   0.809
   94X2IT    H1 2942   0.566   2.413   0.714
   94X2IT   C11 2943   0.623   2.434   0.930
   94X2IT    O3 2944   0.753   2.466   0.882
   94X2IT   C15 2945   0.853   2.495   0.979
   95X2IT   H18 2946   0.940   3.082   2.909
   95X2IT    N4 2947   0.908   3.014   2.842
   95X2IT   H17 2948   0.809   2.995   2.839
   95X2IT   C14 2949   0.981   3.005   2.726
   95X2IT    O5 2950   1.093   3.049   2.710
   95X2IT    O4 2951   0.910   2.935   2.633
   95X2IT   C13 2952   0.978   2.911   2.507
   95X2IT   C10 2953   1.071   2.788   2.516
   95X2IT    C9 2954   1.138   2.755   2.384
   95X2IT    C4 2955   1.107   2.626   2.346
   95X2IT    C5 2956   1.156   2.562   2.219
   95X2IT    O1 2957   1.126   2.445   2.194
   95X2IT    C6 2958   1.238   2.645   2.133
   95X2IT   C12 2959   1.292   2.586   2.004
   95X2IT    C7 2960   1.270   2.773   2.173
   95X2IT    C8 2961   1.220   2.837   2.302
   95X2IT    O2 2962   1.251   2.955   2.325
   95X2IT    N3 2963   1.347   2.856   2.101
   95X2IT   H15 2964   1.387   2.831   2.012
   95X2IT   H16 2965   1.363   2.950   2.139
   95X2IT    N2 2966   1.033   2.561   2.439
   95X2IT    C3 2967   0.928   2.460   2.417
   95X2IT    C2 2968   0.806   2.525   2.480
   95X2IT    H2 2969   0.721   2.464   2.510
   95X2IT    N1 2970   0.783   2.662   2.428
   95X2IT   H14 2971   0.685   2.688   2.444
   95X2IT    C1 2972   0.848   2.643   2.559
   95X2IT    H1 2973   0.799   2.674   2.650
   95X2IT   C11 2974   1.000   2.652   2.552
   95X2IT    O3 2975   1.043   2.600   2.677
   95X2IT   C15 2976   1.180   2.559   2.686
   96SOL     OW 2977   0.230   0.628   0.113
   96SOL    HW1 2978   0.137   0.626   0.150
   96SOL    HW2 2979   0.231   0.589   0.021
   97SOL     OW 2980   0.019   0.368   0.647
   97SOL    HW1 2981  -0.063   0.411   0.686
   97SOL    HW2 2982  -0.009   0.295   0.584
   98SOL     OW 2983   0.569   1.275   1.165
   98SOL    HW1 2984   0.476   1.268   1.128
   98SOL    HW2 2985   0.580   1.364   1.209
   99SOL     OW 2986   1.555   1.511   0.703
   99SOL    HW1 2987   1.498   1.495   0.784
   99SOL    HW2 2988   1.496   1.521   0.623
  100SOL     OW 2989   1.135   0.703   0.717
  100SOL    HW1 2990   1.192   0.781   0.692
  100SOL    HW2 2991   1.075   0.729   0.793
  101SOL     OW 2992   1.755   0.607   0.231
  101SOL    HW1 2993   1.743   0.594   0.132
  101SOL    HW2 2994   1.725   0.526   0.280
  102SOL     OW 2995   0.768   1.144   1.023
  102SOL    HW1 2996   0.690   1.161   1.083
  102SOL    HW2 2997   0.802   1.231   0.987
  103SOL     OW 2998   0.685   1.012   0.665
  103SOL    HW1 2999   0.754   0.996   0.735
  103SOL    HW2 3000   0.612   1.069   0.703
  104SOL     OW 3001   0.686   1.161   1.803
  104SOL    HW1 3002   0.746   1.240   1.817
  104SOL    HW2 3003   0.600   1.192   1.762
  105SOL     OW 3004   0.335   1.435   1.061
  105SOL    HW1 3005   0.257   1.404   1.008
  105SOL    HW2 3006   0.393   1.493   1.004
  106SOL     OW 3007   1.460   1.505   1.339
  106SOL    HW1 3008   1.484   1.599   1.365
  106SOL    HW2 3009   1.444   1.451   1.421
  107SOL     OW 3010   1.603   0.447   0.737
  107SOL    HW1 3011   1.529   0.493   0.687
  107SOL    HW2 3012   1.654   0.515   0.790
  108SOL     OW 3013   1.127   1.341   1.690
  108SOL    HW1 3014   1.174   1.341   1.778
  108SOL    HW2 3015   1.079   1.254   1.679
  109SOL     OW 3016   0.230   1.434   0.538
  109SOL    HW1 3017   0.204   1.530   0.538
  109SOL    HW2 3018   0.159   1.380   0.583
  110SOL     OW 3019   0.240   1.091   0.886
  110SOL    HW1 3020   0.254   1.007   0.938
  110SOL    HW2 3021   0.185   1.155   0.941
  111SOL     OW 3022   0.620   1.786   1.439
  111SOL    HW1 3023   0.528   1.769   1.474
  111SOL    HW2 3024   0.648   1.878   1.465
  112SOL     OW 3025   0.606   0.964   0.123
  112SOL    HW1 3026   0.613   1.048   0.069
  112SOL    HW2 3027   0.652   0.977   0.211
  113SOL     OW 3028   0.122   0.643   0.563
  113SOL    HW1 3029   0.077   0.555   0.580
  113SOL    HW2 3030   0.121   0.697   0.647
  114SOL     OW 3031   0.027   1.596   0.117
  114SOL    HW1 3032   0.008   1.500   0.138
  114SOL    HW2 3033  -0.006   1.654   0.192
  115SOL     OW 3034   1.689   0.922   0.612
  115SOL    HW1 3035   1.784   0.893   0.620
  115SOL    HW2 3036   1.681   0.987   0.537
  116SOL     OW 3037   1.641   1.108   0.432
  116SOL    HW1 3038   1.727   1.110   0.380
  116SOL    HW2 3039   1.655   1.155   0.520
  117SOL     OW 3040   0.113   0.737   1.597
  117SOL    HW1 3041   0.201   0.724   1.642
  117SOL    HW2 3042   0.100   0.834   1.575
  118SOL     OW 3043   0.613   1.365   0.726
  118SOL    HW1 3044   0.564   1.278   0.735
  118SOL    HW2 3045   0.590   1.408   0.639
  119SOL     OW 3046   1.293   1.228   1.423
  119SOL    HW1 3047   1.330   1.155   1.365
  119SOL    HW2 3048   1.345   1.233   1.508
  120SOL     OW 3049   0.197   0.976   1.264
  120SOL    HW1 3050   0.286   0.931   1.250
  120SOL    HW2 3051   0.124   0.911   1.245
  121SOL     OW 3052   1.525   0.999   0.190
  121SOL    HW1 3053   1.462   0.923   0.203
  121SOL    HW2 3054   1.573   1.017   0.276
  122SOL     OW 3055   1.187   1.792   1.616
  122SOL    HW1 3056   1.211   1.852   1.540
  122SOL    HW2 3057   1.194   1.697   1.586
  123SOL     OW 3058   0.317   0.251   1.801
  123SOL    HW1 3059   0.388   0.322   1.807
  123SOL    HW2 3060   0.229   0.290   1.829
  124SOL     OW 3061   1.466   1.417   0.953
  124SOL    HW1 3062   1.407   1.423   1.033
  124SOL    HW2 3063   1.451   1.329   0.907
  125SOL     OW 3064   0.598   0.729   0.270
  125SOL    HW1 3065   0.622   0.798   0.202
  125SOL    HW2 3066   0.520   0.762   0.324
  126SOL     OW 3067   1.281   0.345   0.944
  126SOL    HW1 3068   1.195   0.295   0.931
  126SOL    HW2 3069   1.343   0.291   1.000
  127SOL     OW 3070   1.394   0.469   1.674
  127SOL    HW1 3071   1.374   0.512   1.762
  127SOL    HW2 3072   1.472   0.407   1.683
  128SOL     OW 3073   0.991   0.410   1.242
  128SOL    HW1 3074   0.914   0.444   1.296
  128SOL    HW2 3075   0.957   0.359   1.163
  129SOL     OW 3076   1.041   0.701   0.429
  129SOL    HW1 3077   1.067   0.697   0.525
  129SOL    HW2 3078   0.956   0.650   0.415
  130SOL     OW 3079   0.076   0.811   0.789
  130SOL    HW1 3080   0.175   0.799   0.798
  130SOL    HW2 3081   0.052   0.906   0.810
  131SOL     OW 3082   0.130   1.821   1.571
  131SOL    HW1 3083   0.120   1.806   1.670
  131SOL    HW2 3084   0.044   1.857   1.535
  132SOL     OW 3085   1.719   0.585   1.831
  132SOL    HW1 3086   1.693   0.674   1.795
  132SOL    HW2 3087   1.717   0.517   1.758
  133SOL     OW 3088   1.362   1.144   0.545
  133SOL    HW1 3089   1.445   1.115   0.497
  133SOL    HW2 3090   1.313   1.211   0.489
  134SOL     OW 3091   0.550   0.196   0.885
  134SOL    HW1 3092   0.545   0.191   0.985
  134SOL    HW2 3093   0.552   0.292   0.856
  135SOL     OW 3094   0.351   1.801   0.853
  135SOL    HW1 3095   0.401   1.715   0.859
  135SOL    HW2 3096   0.416   1.878   0.850
  136SOL     OW 3097   1.795   1.066   0.873
  136SOL    HW1 3098   1.733   1.051   0.797
  136SOL    HW2 3099   1.743   1.077   0.958
  137SOL     OW 3100   1.227   1.550   1.506
  137SOL    HW1 3101   1.233   1.473   1.570
  137SOL    HW2 3102   1.175   1.524   1.426
  138SOL     OW 3103   0.321   0.943   0.242
  138SOL    HW1 3104   0.403   0.982   0.200
  138SOL    HW2 3105   0.294   0.861   0.193
  139SOL     OW 3106   1.458   0.735   0.728
  139SOL    HW1 3107   1.453   0.670   0.803
  139SOL    HW2 3108   1.538   0.794   0.741
  140SOL     OW 3109   0.461   1.266   1.727
  140SOL    HW1 3110   0.411   1.267   1.641
  140SOL    HW2 3111   0.398   1.248   1.803
  141SOL     OW 3112   0.202   0.285   1.498
  141SOL    HW1 3113   0.122   0.345   1.485
  141SOL    HW2 3114   0.192   0.236   1.584
  142SOL     OW 3115   1.632   1.377   0.081
  142SOL    HW1 3116   1.600   1.471   0.071
  142SOL    HW2 3117   1.556   1.314   0.069
  143SOL     OW 3118   0.249   1.785   1.241
  143SOL    HW1 3119   0.306   1.720   1.291
  143SOL    HW2 3120   0.233   1.752   1.148
  144SOL     OW 3121   0.940   1.698   0.904
  144SOL    HW1 3122   1.020   1.641   0.925
  144SOL    HW2 3123   0.891   1.658   0.827
  145SOL     OW 3124   0.382   0.700   0.480
  145SOL    HW1 3125   0.427   0.610   0.477
  145SOL    HW2 3126   0.288   0.689   0.513
  146SOL     OW 3127   1.547   0.222   1.729
  146SOL    HW1 3128   1.542   0.259   1.821
  146SOL    HW2 3129   1.475   0.153   1.717
  147SOL     OW 3130   0.781   0.264   1.749
  147SOL    HW1 3131   0.848   0.203   1.792
  147SOL    HW2 3132   0.708   0.283   1.814
  148SOL     OW 3133   0.888   1.514   1.195
  148SOL    HW1 3134   0.865   1.489   1.101
  148SOL    HW2 3135   0.949   1.445   1.234
  149SOL     OW 3136   1.351   0.590   1.433
  149SOL    HW1 3137   1.379   0.547   1.518
  149SOL    HW2 3138   1.376   0.686   1.434
  150SOL     OW 3139   0.922   0.503   0.899
  150SOL    HW1 3140   0.897   0.494   0.803
  150SOL    HW2 3141   0.970   0.421   0.930
  151SOL     OW 3142   0.539   0.064   0.512
  151SOL    HW1 3143   0.458   0.065   0.570
  151SOL    HW2 3144   0.542   0.147   0.457
  152SOL     OW 3145   0.297   0.035   0.171
  152SOL    HW1 3146   0.346   0.119   0.150
  152SOL    HW2 3147   0.359  -0.030   0.216
  153SOL     OW 3148   1.076   0.683   1.464
  153SOL    HW1 3149   0.996   0.622   1.467
  153SOL    HW2 3150   1.157   0.630   1.440
  154SOL     OW 3151   1.227   1.570   0.793
  154SOL    HW1 3152   1.248   1.644   0.728
  154SOL    HW2 3153   1.295   1.570   0.866
  155SOL     OW 3154   0.459   1.152   0.741
  155SOL    HW1 3155   0.388   1.125   0.806
  155SOL    HW2 3156   0.433   1.124   0.648
  156SOL     OW 3157   1.271   1.797   0.591
  156SOL    HW1 3158   1.315   1.861   0.527
  156SOL    HW2 3159   1.221   1.849   0.661
  157SOL     OW 3160   0.078   0.556   1.386
  157SOL    HW1 3161   0.170   0.555   1.345
  157SOL    HW2 3162   0.072   0.630   1.453
  158SOL     OW 3163   0.561   0.222   1.147
  158SOL    HW1 3164   0.599   0.138   1.184
  158SOL    HW2 3165   0.473   0.241   1.191
  159SOL     OW 3166   0.866   0.454   0.642
  159SOL    HW1 3167   0.834   0.526   0.580
  159SOL    HW2 3168   0.890   0.373   0.589
  160SOL     OW 3169   1.017   0.039   0.753
  160SOL    HW1 3170   0.945   0.044   0.684
  160SOL    HW2 3171   0.993  -0.030   0.822
  161SOL     OW 3172   1.429   1.173   0.867
  161SOL    HW1 3173   1.374   1.089   0.860
  161SOL    HW2 3174   1.455   1.202   0.775
  162SOL     OW 3175   1.466   0.590   0.992
  162SOL    HW1 3176   1.436   0.495   0.999
  162SOL    HW2 3177   1.539   0.606   1.058
  163SOL     OW 3178   1.857   0.833   0.377
  163SOL    HW1 3179   1.899   0.769   0.441
  163SOL    HW2 3180   1.819   0.782   0.299
  164SOL     OW 3181   0.488   1.385   0.174
  164SOL    HW1 3182   0.401   1.370   0.221
  164SOL    HW2 3183   0.471   1.411   0.079
  165SOL     OW 3184   1.664   1.280   0.657
  165SOL    HW1 3185   1.763   1.288   0.671
  165SOL    HW2 3186   1.619   1.364   0.688
  166SOL     OW 3187   1.390   0.575   0.078
  166SOL    HW1 3188   1.336   0.554   0.159
  166SOL    HW2 3189   1.481   0.534   0.087
  167SOL     OW 3190   0.527   0.256   0.328
  167SOL    HW1 3191   0.554   0.197   0.253
  167SOL    HW2 3192   0.527   0.351   0.297
  168SOL     OW 3193   1.592   1.629   1.625
  168SOL    HW1 3194   1.619   1.663   1.535
  168SOL    HW2 3195   1.671   1.591   1.671
  169SOL     OW 3196   1.111   1.195   1.100
  169SOL    HW1 3197   1.071   1.239   1.181
  169SOL    HW2 3198   1.070   1.232   1.017
  170SOL     OW 3199   1.638   1.099   1.079
  170SOL    HW1 3200   1.643   1.180   1.138
  170SOL    HW2 3201   1.552   1.101   1.028
  171SOL     OW 3202   0.915   0.089   1.402
  171SOL    HW1 3203   0.940   0.069   1.307
  171SOL    HW2 3204   0.987   0.145   1.444
  172SOL     OW 3205   0.980   1.116   1.719
  172SOL    HW1 3206   0.881   1.122   1.729
  172SOL    HW2 3207   1.003   1.036   1.663
  173SOL     OW 3208   0.705   1.050   0.368
  173SOL    HW1 3209   0.691   1.057   0.467
  173SOL    HW2 3210   0.789   0.999   0.350
  174SOL     OW 3211   1.274   0.386   1.262
  174SOL    HW1 3212   1.295   0.460   1.326
  174SOL    HW2 3213   1.185   0.403   1.219
  175SOL     OW 3214   0.367   1.100   0.501
  175SOL    HW1 3215   0.360   1.183   0.445
  175SOL    HW2 3216   0.371   1.020   0.441
  176SOL     OW 3217   0.566   0.537   0.865
  176SOL    HW1 3218   0.578   0.603   0.791
  176SOL    HW2 3219   0.612   0.571   0.948
  177SOL     OW 3220   1.272   1.445   1.142
  177SOL    HW1 3221   1.319   1.458   1.229
  177SOL    HW2 3222   1.206   1.371   1.151
  178SOL     OW 3223   1.582   0.639   0.472
  178SOL    HW1 3224   1.551   0.700   0.545
  178SOL    HW2 3225   1.632   0.691   0.403
  179SOL     OW 3226   0.354   1.510   1.329
  179SOL    HW1 3227   0.333   1.466   1.242
  179SOL    HW2 3228   0.451   1.536   1.332
  180SOL     OW 3229   0.402   0.751   1.598
  180SOL    HW1 3230   0.470   0.806   1.551
  180SOL    HW2 3231   0.442   0.663   1.625
  181SOL     OW 3232   1.587   0.779   1.670
  181SOL    HW1 3233   1.495   0.817   1.665
  181SOL    HW2 3234   1.647   0.826   1.605
  182SOL     OW 3235   1.013   0.105   1.770
  182SOL    HW1 3236   1.019   0.190   1.718
  182SOL    HW2 3237   1.045   0.029   1.713
  183SOL     OW 3238   0.504   0.050   1.740
  183SOL    HW1 3239   0.462  -0.007   1.670
  183SOL    HW2 3240   0.438   0.119   1.772
  184SOL     OW 3241   0.573   0.870   1.029
  184SOL    HW1 3242   0.617   0.959   1.020
  184SOL    HW2 3243   0.510   0.870   1.106
  185SOL     OW 3244   1.360   0.862   1.045
  185SOL    HW1 3245   1.285   0.862   0.979
  185SOL    HW2 3246   1.397   0.770   1.054
  186SOL     OW 3247   0.037   1.310   1.282
  186SOL    HW1 3248   0.090   1.261   1.350
  186SOL    HW2 3249   0.059   1.408   1.287
  187SOL     OW 3250   0.307   0.063   0.618
  187SOL    HW1 3251   0.296   0.157   0.651
  187SOL    HW2 3252   0.302   0.000   0.695
  188SOL     OW 3253   1.622   0.367   0.374
  188SOL    HW1 3254   1.624   0.291   0.438
  188SOL    HW2 3255   1.574   0.444   0.414
  189SOL     OW 3256   1.023   0.766   0.966
  189SOL    HW1 3257   1.038   0.787   1.062
  189SOL    HW2 3258   0.993   0.671   0.957
  190SOL     OW 3259   0.980   1.573   1.700
  190SOL    HW1 3260   0.960   1.617   1.612
  190SOL    HW2 3261   1.019   1.482   1.684
  191SOL     OW 3262   1.859   1.518   1.605
  191SOL    HW1 3263   1.873   1.545   1.510
  191SOL    HW2 3264   1.942   1.540   1.658
  192SOL     OW 3265   0.350   0.898   1.804
  192SOL    HW1 3266   0.426   0.942   1.852
  192SOL    HW2 3267   0.385   0.851   1.722
  193SOL     OW 3268   1.540   0.274   0.125
  193SOL    HW1 3269   1.479   0.199   0.148
  193SOL    HW2 3270   1.562   0.326   0.208
  194SOL     OW 3271   0.319   0.810   0.949
  194SOL    HW1 3272   0.412   0.846   0.954
  194SOL    HW2 3273   0.313   0.725   1.001
  195SOL     OW 3274   1.138   0.380   1.678
  195SOL    HW1 3275   1.093   0.443   1.742
  195SOL    HW2 3276   1.231   0.411   1.661
  196SOL     OW 3277   1.160   0.207   1.477
  196SOL    HW1 3278   1.160   0.271   1.554
  196SOL    HW2 3279   1.188   0.255   1.394
  197SOL     OW 3280   0.008   1.326   0.200
  197SOL    HW1 3281  -0.085   1.347   0.169
  197SOL    HW2 3282   0.018   1.227   0.213
  198SOL     OW 3283   0.088   1.801   0.927
  198SOL    HW1 3284   0.046   1.715   0.900
  198SOL    HW2 3285   0.182   1.804   0.893
  199SOL     OW 3286   0.504   1.568   0.910
  199SOL    HW1 3287   0.570   1.642   0.919
  199SOL    HW2 3288   0.548   1.489   0.868
  200SOL     OW 3289   0.040   0.544   1.114
  200SOL    HW1 3290   0.125   0.511   1.073
  200SOL    HW2 3291   0.053   0.559   1.212
  201SOL     OW 3292   0.189   0.520   1.722
  201SOL    HW1 3293   0.248   0.480   1.652
  201SOL    HW2 3294   0.131   0.591   1.681
  202SOL     OW 3295   1.369   0.950   1.660
  202SOL    HW1 3296   1.408   1.039   1.680
  202SOL    HW2 3297   1.379   0.930   1.563
  203SOL     OW 3298   0.815   0.572   0.325
  203SOL    HW1 3299   0.822   0.483   0.279
  203SOL    HW2 3300   0.721   0.606   0.317
  204SOL     OW 3301   1.657   0.604   1.206
  204SOL    HW1 3302   1.619   0.535   1.268
  204SOL    HW2 3303   1.739   0.568   1.162
  205SOL     OW 3304   0.252   1.564   1.744
  205SOL    HW1 3305   0.222   1.621   1.820
  205SOL    HW2 3306   0.245   1.467   1.770
  206SOL     OW 3307   0.930   1.678   1.465
  206SOL    HW1 3308   0.906   1.660   1.370
  206SOL    HW2 3309   0.960   1.772   1.475
  207SOL     OW 3310   0.473   0.500   0.191
  207SOL    HW1 3311   0.534   0.580   0.195
  207SOL    HW2 3312   0.378   0.531   0.198
  208SOL     OW 3313   0.159   1.137   1.466
  208SOL    HW1 3314   0.181   1.076   1.542
  208SOL    HW2 3315   0.169   1.088   1.380
  209SOL     OW 3316   1.347   1.059   1.234
  209SOL    HW1 3317   1.371   0.996   1.160
  209SOL    HW2 3318   1.257   1.099   1.216
  210SOL     OW 3319   1.302   0.855   0.309
  210SOL    HW1 3320   1.216   0.824   0.351
  210SOL    HW2 3321   1.298   0.841   0.210
  211SOL     OW 3322   1.252   1.731   1.128
  211SOL    HW1 3323   1.336   1.736   1.074
  211SOL    HW2 3324   1.229   1.635   1.146
  212SOL     OW 3325   0.083   1.258   1.022
  212SOL    HW1 3326   0.078   1.257   1.122
  212SOL    HW2 3327   0.000   1.217   0.984
  213SOL     OW 3328   0.903   0.086   0.133
  213SOL    HW1 3329   0.954   0.087   0.047
  213SOL    HW2 3330   0.959   0.044   0.204
  214SOL     OW 3331   1.726   0.135   0.523
  214SOL    HW1 3332   1.799   0.118   0.456
  214SOL    HW2 3333   1.695   0.048   0.561
  215SOL     OW 3334   1.388   1.573   0.477
  215SOL    HW1 3335   1.455   1.585   0.403
  215SOL    HW2 3336   1.348   1.662   0.500
  216SOL     OW 3337   0.130   1.794   1.851
  216SOL    HW1 3338   0.089   1.720   1.904
  216SOL    HW2 3339   0.194   1.845   1.909
  217SOL     OW 3340   1.280   0.927   0.672
  217SOL    HW1 3341   1.340   0.846   0.674
  217SOL    HW2 3342   1.320   0.996   0.612
  218SOL     OW 3343   1.650   1.720   1.394
  218SOL    HW1 3344   1.703   1.730   1.310
  218SOL    HW2 3345   1.623   1.810   1.428
  219SOL     OW 3346   1.841   0.175   0.963
  219SOL    HW1 3347   1.880   0.090   0.927
  219SOL    HW2 3348   1.743   0.177   0.944
  220SOL     OW 3349   0.263   0.326   0.720
  220SOL    HW1 3350   0.184   0.377   0.686
  220SOL    HW2 3351   0.254   0.311   0.818
  221SOL     OW 3352   1.194   1.612   0.031
  221SOL    HW1 3353   1.200   1.519   0.068
  221SOL    HW2 3354   1.135   1.612  -0.049
  222SOL     OW 3355   0.916   0.910   0.291
  222SOL    HW1 3356   0.979   0.948   0.223
  222SOL    HW2 3357   0.956   0.827   0.330
  223SOL     OW 3358   0.372   1.288   1.490
  223SOL    HW1 3359   0.359   1.381   1.456
  223SOL    HW2 3360   0.288   1.236   1.477
  224SOL     OW 3361   1.039   1.098   0.696
  224SOL    HW1 3362   0.969   1.051   0.750
  224SOL    HW2 3363   1.098   1.030   0.653
  225SOL     OW 3364   1.014   0.236   0.971
  225SOL    HW1 3365   1.006   0.200   0.878
  225SOL    HW2 3366   1.012   0.160   1.036
  226SOL     OW 3367   0.590   1.487   0.491
  226SOL    HW1 3368   0.632   1.429   0.421
  226SOL    HW2 3369   0.546   1.566   0.447
  227SOL     OW 3370   1.709   0.385   1.381
  227SOL    HW1 3371   1.782   0.454   1.385
  227SOL    HW2 3372   1.737   0.310   1.322
  228SOL     OW 3373   0.255   1.348   0.290
  228SOL    HW1 3374   0.159   1.349   0.263
  228SOL    HW2 3375   0.267   1.401   0.374
  229SOL     OW 3376   0.105   1.013   1.726
  229SOL    HW1 3377   0.028   0.980   1.780
  229SOL    HW2 3378   0.190   0.983   1.768
  230SOL     OW 3379   0.672   0.203   1.489
  230SOL    HW1 3380   0.762   0.187   1.449
  230SOL    HW2 3381   0.680   0.208   1.588
  231SOL     OW 3382   1.440   0.856   1.398
  231SOL    HW1 3383   1.383   0.908   1.335
  231SOL    HW2 3384   1.536   0.868   1.374
  232SOL     OW 3385   0.072   0.166   0.318
  232SOL    HW1 3386   0.055   0.249   0.264
  232SOL    HW2 3387   0.162   0.129   0.296
  233SOL     OW 3388   1.183   1.335   0.119
  233SOL    HW1 3389   1.084   1.324   0.121
  233SOL    HW2 3390   1.217   1.350   0.212
  234SOL     OW 3391   0.390   1.741   1.560
  234SOL    HW1 3392   0.299   1.782   1.558
  234SOL    HW2 3393   0.383   1.647   1.592
  235SOL     OW 3394   1.674   0.883   1.254
  235SOL    HW1 3395   1.647   0.794   1.217
  235SOL    HW2 3396   1.675   0.951   1.181
  236SOL     OW 3397   0.594   0.745   0.652
  236SOL    HW1 3398   0.644   0.830   0.633
  236SOL    HW2 3399   0.506   0.747   0.604
  237SOL     OW 3400   1.777   0.342   1.642
  237SOL    HW1 3401   1.760   0.373   1.548
  237SOL    HW2 3402   1.693   0.305   1.680
  238SOL     OW 3403   0.859   1.374   0.016
  238SOL    HW1 3404   0.813   1.389   0.104
  238SOL    HW2 3405   0.903   1.459  -0.014
  239SOL     OW 3406   0.661   1.790   0.953
  239SOL    HW1 3407   0.615   1.878   0.940
  239SOL    HW2 3408   0.760   1.802   0.946
  240SOL     OW 3409   0.859   0.956   0.861
  240SOL    HW1 3410   0.913   0.887   0.909
  240SOL    HW2 3411   0.827   1.025   0.927
  241SOL     OW 3412   1.083   0.984   0.087
  241SOL    HW1 3413   1.060   1.037   0.005
  241SOL    HW2 3414   1.164   0.928   0.068
  242SOL     OW 3415   0.221   1.314   1.844
  242SOL    HW1 3416   0.156   1.241   1.823
  242SOL    HW2 3417   0.225   1.328   1.942
  243SOL     OW 3418   0.079   1.240   0.653
  243SOL    HW1 3419   0.078   1.193   0.741
  243SOL    HW2 3420   0.161   1.212   0.602
  244SOL     OW 3421   0.428   0.424   0.520
  244SOL    HW1 3422   0.458   0.352   0.458
  244SOL    HW2 3423   0.389   0.384   0.603
  245SOL     OW 3424   0.317   0.547   1.280
  245SOL    HW1 3425   0.355   0.488   1.352
  245SOL    HW2 3426   0.357   0.521   1.192
  246SOL     OW 3427   1.424   0.214   1.112
  246SOL    HW1 3428   1.476   0.149   1.167
  246SOL    HW2 3429   1.375   0.277   1.173
  247SOL     OW 3430   1.001   0.034   1.154
  247SOL    HW1 3431   0.938  -0.038   1.123
  247SOL    HW2 3432   1.094  -0.002   1.154
  248SOL     OW 3433   0.770   1.330   0.301
  248SOL    HW1 3434   0.724   1.243   0.318
  248SOL    HW2 3435   0.861   1.327   0.342
  249SOL     OW 3436   0.618   1.567   1.284
  249SOL    HW1 3437   0.613   1.649   1.341
  249SOL    HW2 3438   0.707   1.564   1.239
  250SOL     OW 3439   1.352   0.052   0.168
  250SOL    HW1 3440   1.387   0.011   0.084
  250SOL    HW2 3441   1.262   0.014   0.188
  251SOL     OW 3442   1.300   0.453   0.691
  251SOL    HW1 3443   1.241   0.533   0.695
  251SOL    HW2 3444   1.315   0.418   0.784
  252SOL     OW 3445   1.593   0.221   0.882
  252SOL    HW1 3446   1.509   0.220   0.936
  252SOL    HW2 3447   1.595   0.304   0.826
  253SOL     OW 3448   0.039   1.077   0.300
  253SOL    HW1 3449   0.138   1.066   0.291
  253SOL    HW2 3450  -0.001   0.991   0.332
  254SOL     OW 3451   0.230   0.628   1.975
  254SOL    HW1 3452   0.137   0.626   2.012
  254SOL    HW2 3453   0.231   0.589   1.883
  255SOL     OW 3454   0.225   0.275   2.858
  255SOL    HW1 3455   0.260   0.258   2.950
  255SOL    HW2 3456   0.137   0.230   2.846
  256SOL     OW 3457   0.019   0.368   2.509
  256SOL    HW1 3458  -0.063   0.411   2.548
  256SOL    HW2 3459  -0.009   0.295   2.446
  257SOL     OW 3460   0.569   1.275   3.027
  257SOL    HW1 3461   0.476   1.268   2.990
  257SOL    HW2 3462   0.580   1.364   3.071
  258SOL     OW 3463   1.555   1.511   2.565
  258SOL    HW1 3464   1.498   1.495   2.646
  258SOL    HW2 3465   1.496   1.521   2.485
  259SOL     OW 3466   1.755   0.607   2.093
  259SOL    HW1 3467   1.743   0.594   1.994
  259SOL    HW2 3468   1.725   0.526   2.142
  260SOL     OW 3469   0.768   1.144   2.885
  260SOL    HW1 3470   0.690   1.161   2.945
  260SOL    HW2 3471   0.802   1.231   2.849
  261SOL     OW 3472   0.685   1.012   2.527
  261SOL    HW1 3473   0.754   0.996   2.597
  261SOL    HW2 3474   0.612   1.069   2.565
  262SOL     OW 3475   0.686   1.161   3.665
  262SOL    HW1 3476   0.746   1.240   3.679
  262SOL    HW2 3477   0.600   1.192   3.624
  263SOL     OW 3478   0.335   1.435   2.923
  263SOL    HW1 3479   0.257   1.404   2.870
  263SOL    HW2 3480   0.393   1.493   2.866
  264SOL     OW 3481   0.438   0.392   3.361
  264SOL    HW1 3482   0.520   0.336   3.370
  264SOL    HW2 3483   0.357   0.334   3.365
  265SOL     OW 3484   1.603   0.447   2.599
  265SOL    HW1 3485   1.529   0.493   2.549
  265SOL    HW2 3486   1.654   0.515   2.652
  266SOL     OW 3487   0.230   1.434   2.400
  266SOL    HW1 3488   0.204   1.530   2.400
  266SOL    HW2 3489   0.159   1.380   2.445
  267SOL     OW 3490   0.240   1.091   2.748
  267SOL    HW1 3491   0.254   1.007   2.800
  267SOL    HW2 3492   0.185   1.155   2.803
  268SOL     OW 3493   0.620   1.786   3.301
  268SOL    HW1 3494   0.528   1.769   3.336
  268SOL    HW2 3495   0.648   1.878   3.327
  269SOL     OW 3496   0.606   0.964   1.985
  269SOL    HW1 3497   0.613   1.048   1.931
  269SOL    HW2 3498   0.652   0.977   2.073
  270SOL     OW 3499   0.122   0.643   2.425
  270SOL    HW1 3500   0.077   0.555   2.442
  270SOL    HW2 3501   0.121   0.697   2.509
  271SOL     OW 3502   1.842   1.767   2.221
  271SOL    HW1 3503   1.896   1.738   2.301
  271SOL    HW2 3504   1.872   1.857   2.192
  272SOL     OW 3505   0.027   1.596   1.979
  272SOL    HW1 3506   0.008   1.500   2.000
  272SOL    HW2 3507  -0.006   1.654   2.054
  273SOL     OW 3508   1.689   0.922   2.474
  273SOL    HW1 3509   1.784   0.893   2.482
  273SOL    HW2 3510   1.681   0.987   2.399
  274SOL     OW 3511   1.641   1.108   2.294
  274SOL    HW1 3512   1.727   1.110   2.242
  274SOL    HW2 3513   1.655   1.155   2.382
  275SOL     OW 3514   0.113   0.737   3.459
  275SOL    HW1 3515   0.201   0.724   3.504
  275SOL    HW2 3516   0.100   0.834   3.437
  276SOL     OW 3517   0.613   1.365   2.588
  276SOL    HW1 3518   0.564   1.278   2.597
  276SOL    HW2 3519   0.590   1.408   2.501
  277SOL     OW 3520   0.809   0.004   2.364
  277SOL    HW1 3521   0.849   0.095   2.355
  277SOL    HW2 3522   0.709   0.012   2.370
  278SOL     OW 3523   0.197   0.976   3.126
  278SOL    HW1 3524   0.286   0.931   3.112
  278SOL    HW2 3525   0.124   0.911   3.107
  279SOL     OW 3526   1.525   0.999   2.052
  279SOL    HW1 3527   1.462   0.923   2.065
  279SOL    HW2 3528   1.573   1.017   2.138
  280SOL     OW 3529   0.317   0.251   3.663
  280SOL    HW1 3530   0.388   0.322   3.669
  280SOL    HW2 3531   0.229   0.290   3.691
  281SOL     OW 3532   0.598   0.729   2.132
  281SOL    HW1 3533   0.622   0.798   2.064
  281SOL    HW2 3534   0.520   0.762   2.186
  282SOL     OW 3535   1.394   0.469   3.536
  282SOL    HW1 3536   1.374   0.512   3.624
  282SOL    HW2 3537   1.472   0.407   3.545
  283SOL     OW 3538   1.041   0.701   2.291
  283SOL    HW1 3539   1.067   0.697   2.387
  283SOL    HW2 3540   0.956   0.650   2.277
  284SOL     OW 3541   0.076   0.811   2.651
  284SOL    HW1 3542   0.175   0.799   2.660
  284SOL    HW2 3543   0.052   0.906   2.672
  285SOL     OW 3544   0.130   1.821   3.433
  285SOL    HW1 3545   0.120   1.806   3.532
  285SOL    HW2 3546   0.044   1.857   3.397
  286SOL     OW 3547   0.865   0.348   2.057
  286SOL    HW1 3548   0.924   0.411   2.008
  286SOL    HW2 3549   0.884   0.254   2.028
  287SOL     OW 3550   0.550   0.196   2.747
  287SOL    HW1 3551   0.545   0.191   2.847
  287SOL    HW2 3552   0.552   0.292   2.718
  288SOL     OW 3553   1.795   1.066   2.735
  288SOL    HW1 3554   1.733   1.051   2.659
  288SOL    HW2 3555   1.743   1.077   2.820
  289SOL     OW 3556   1.227   1.550   3.368
  289SOL    HW1 3557   1.233   1.473   3.432
  289SOL    HW2 3558   1.175   1.524   3.288
  290SOL     OW 3559   0.321   0.943   2.104
  290SOL    HW1 3560   0.403   0.982   2.062
  290SOL    HW2 3561   0.294   0.861   2.055
  291SOL     OW 3562   0.461   1.266   3.589
  291SOL    HW1 3563   0.411   1.267   3.503
  291SOL    HW2 3564   0.398   1.248   3.665
  292SOL     OW 3565   1.111   1.776   2.099
  292SOL    HW1 3566   1.051   1.714   2.149
  292SOL    HW2 3567   1.142   1.732   2.014
  293SOL     OW 3568   0.202   0.285   3.360
  293SOL    HW1 3569   0.122   0.345   3.347
  293SOL    HW2 3570   0.192   0.236   3.446
  294SOL     OW 3571   1.400   0.107   2.288
  294SOL    HW1 3572   1.376   0.070   2.198
  294SOL    HW2 3573   1.499   0.123   2.292
  295SOL     OW 3574   0.249   1.785   3.103
  295SOL    HW1 3575   0.306   1.720   3.153
  295SOL    HW2 3576   0.233   1.752   3.010
  296SOL     OW 3577   0.940   1.698   2.766
  296SOL    HW1 3578   1.020   1.641   2.787
  296SOL    HW2 3579   0.891   1.658   2.689
  297SOL     OW 3580   0.382   0.700   2.342
  297SOL    HW1 3581   0.427   0.610   2.339
  297SOL    HW2 3582   0.288   0.689   2.375
  298SOL     OW 3583   1.547   0.222   3.591
  298SOL    HW1 3584   1.542   0.259   3.683
  298SOL    HW2 3585   1.475   0.153   3.579
  299SOL     OW 3586   0.614   0.122   1.979
  299SOL    HW1 3587   0.712   0.100   1.986
  299SOL    HW2 3588   0.583   0.105   1.886
  300SOL     OW 3589   0.781   0.264   3.611
  300SOL    HW1 3590   0.848   0.203   3.654
  300SOL    HW2 3591   0.708   0.283   3.676
  301SOL     OW 3592   0.888   1.514   3.057
  301SOL    HW1 3593   0.865   1.489   2.963
  301SOL    HW2 3594   0.949   1.445   3.096
  302SOL     OW 3595   0.803   1.402   2.786
  302SOL    HW1 3596   0.893   1.416   2.744
  302SOL    HW2 3597   0.732   1.404   2.715
  303SOL     OW 3598   0.539   0.064   2.374
  303SOL    HW1 3599   0.458   0.065   2.432
  303SOL    HW2 3600   0.542   0.147   2.319
  304SOL     OW 3601   0.297   0.035   2.033
  304SOL    HW1 3602   0.346   0.119   2.012
  304SOL    HW2 3603   0.359  -0.030   2.078
  305SOL     OW 3604   0.935   0.236   2.342
  305SOL    HW1 3605   0.887   0.277   2.264
  305SOL    HW2 3606   1.034   0.234   2.323
  306SOL     OW 3607   1.227   1.570   2.655
  306SOL    HW1 3608   1.248   1.644   2.590
  306SOL    HW2 3609   1.295   1.570   2.728
  307SOL     OW 3610   0.459   1.152   2.603
  307SOL    HW1 3611   0.388   1.125   2.668
  307SOL    HW2 3612   0.433   1.124   2.510
  308SOL     OW 3613   1.271   1.797   2.453
  308SOL    HW1 3614   1.315   1.861   2.389
  308SOL    HW2 3615   1.221   1.849   2.523
  309SOL     OW 3616   1.032   0.549   1.878
  309SOL    HW1 3617   0.991   0.631   1.839
  309SOL    HW2 3618   1.096   0.575   1.951
  310SOL     OW 3619   0.078   0.556   3.248
  310SOL    HW1 3620   0.170   0.555   3.207
  310SOL    HW2 3621   0.072   0.630   3.315
  311SOL     OW 3622   0.561   0.222   3.009
  311SOL    HW1 3623   0.599   0.138   3.046
  311SOL    HW2 3624   0.473   0.241   3.053
  312SOL     OW 3625   0.866   0.454   2.504
  312SOL    HW1 3626   0.834   0.526   2.442
  312SOL    HW2 3627   0.890   0.373   2.451
  313SOL     OW 3628   1.017   0.039   2.615
  313SOL    HW1 3629   0.945   0.044   2.546
  313SOL    HW2 3630   0.993  -0.030   2.684
  314SOL     OW 3631   1.429   1.173   2.729
  314SOL    HW1 3632   1.374   1.089   2.722
  314SOL    HW2 3633   1.455   1.202   2.637
  315SOL     OW 3634   0.488   1.385   2.036
  315SOL    HW1 3635   0.401   1.370   2.083
  315SOL    HW2 3636   0.471   1.411   1.941
  316SOL     OW 3637   1.390   0.575   1.940
  316SOL    HW1 3638   1.336   0.554   2.021
  316SOL    HW2 3639   1.481   0.534   1.949
  317SOL     OW 3640   0.527   0.256   2.190
  317SOL    HW1 3641   0.554   0.197   2.115
  317SOL    HW2 3642   0.527   0.351   2.159
  318SOL     OW 3643   1.754   1.223   3.450
  318SOL    HW1 3644   1.845   1.184   3.437
  318SOL    HW2 3645   1.762   1.319   3.474
  319SOL     OW 3646   0.915   0.089   3.264
  319SOL    HW1 3647   0.940   0.069   3.169
  319SOL    HW2 3648   0.987   0.145   3.306
  320SOL     OW 3649   0.705   1.050   2.230
  320SOL    HW1 3650   0.691   1.057   2.329
  320SOL    HW2 3651   0.789   0.999   2.212
  321SOL     OW 3652   0.410   0.813   3.113
  321SOL    HW1 3653   0.496   0.825   3.163
  321SOL    HW2 3654   0.368   0.726   3.140
  322SOL     OW 3655   0.064   1.564   3.193
  322SOL    HW1 3656   0.018   1.646   3.159
  322SOL    HW2 3657   0.162   1.583   3.202
  323SOL     OW 3658   0.367   1.100   2.363
  323SOL    HW1 3659   0.360   1.183   2.307
  323SOL    HW2 3660   0.371   1.020   2.303
  324SOL     OW 3661   0.566   0.537   2.727
  324SOL    HW1 3662   0.578   0.603   2.653
  324SOL    HW2 3663   0.612   0.571   2.810
  325SOL     OW 3664   1.252   1.348   2.250
  325SOL    HW1 3665   1.302   1.425   2.290
  325SOL    HW2 3666   1.157   1.350   2.282
  326SOL     OW 3667   1.272   1.445   3.004
  326SOL    HW1 3668   1.319   1.458   3.091
  326SOL    HW2 3669   1.206   1.371   3.013
  327SOL     OW 3670   1.582   0.639   2.334
  327SOL    HW1 3671   1.551   0.700   2.407
  327SOL    HW2 3672   1.632   0.691   2.265
  328SOL     OW 3673   0.354   1.510   3.191
  328SOL    HW1 3674   0.333   1.466   3.104
  328SOL    HW2 3675   0.451   1.536   3.194
  329SOL     OW 3676   0.402   0.751   3.460
  329SOL    HW1 3677   0.470   0.806   3.413
  329SOL    HW2 3678   0.442   0.663   3.487
  330SOL     OW 3679   1.587   0.779   3.532
  330SOL    HW1 3680   1.495   0.817   3.527
  330SOL    HW2 3681   1.647   0.826   3.467
  331SOL     OW 3682   1.013   0.105   3.632
  331SOL    HW1 3683   1.019   0.190   3.580
  331SOL    HW2 3684   1.045   0.029   3.575
  332SOL     OW 3685   0.573   0.870   2.891
  332SOL    HW1 3686   0.617   0.959   2.882
  332SOL    HW2 3687   0.510   0.870   2.968
  333SOL     OW 3688   1.360   0.862   2.907
  333SOL    HW1 3689   1.285   0.862   2.841
  333SOL    HW2 3690   1.397   0.770   2.916
  334SOL     OW 3691   1.209   0.525   2.137
  334SOL    HW1 3692   1.222   0.441   2.191
  334SOL    HW2 3693   1.180   0.599   2.197
  335SOL     OW 3694   0.307   0.213   3.093
  335SOL    HW1 3695   0.284   0.250   3.183
  335SOL    HW2 3696   0.277   0.118   3.087
  336SOL     OW 3697   0.037   1.310   3.144
  336SOL    HW1 3698   0.090   1.261   3.212
  336SOL    HW2 3699   0.059   1.408   3.149
  337SOL     OW 3700   0.307   0.063   2.480
  337SOL    HW1 3701   0.296   0.157   2.513
  337SOL    HW2 3702   0.302   0.000   2.557
  338SOL     OW 3703   1.622   0.367   2.236
  338SOL    HW1 3704   1.624   0.291   2.300
  338SOL    HW2 3705   1.574   0.444   2.276
  339SOL     OW 3706   0.980   1.573   3.562
  339SOL    HW1 3707   0.960   1.617   3.474
  339SOL    HW2 3708   1.019   1.482   3.546
  340SOL     OW 3709   0.350   0.898   3.666
  340SOL    HW1 3710   0.426   0.942   3.714
  340SOL    HW2 3711   0.385   0.851   3.584
  341SOL     OW 3712   1.540   0.274   1.987
  341SOL    HW1 3713   1.479   0.199   2.010
  341SOL    HW2 3714   1.562   0.326   2.070
  342SOL     OW 3715   1.303   0.838   1.904
  342SOL    HW1 3716   1.337   0.745   1.919
  342SOL    HW2 3717   1.321   0.865   1.809
  343SOL     OW 3718   1.068   1.333   2.711
  343SOL    HW1 3719   1.075   1.249   2.656
  343SOL    HW2 3720   1.130   1.402   2.675
  344SOL     OW 3721   0.319   0.810   2.811
  344SOL    HW1 3722   0.412   0.846   2.816
  344SOL    HW2 3723   0.313   0.725   2.863
  345SOL     OW 3724   0.339   0.509   2.868
  345SOL    HW1 3725   0.287   0.426   2.851
  345SOL    HW2 3726   0.416   0.514   2.804
  346SOL     OW 3727   1.138   0.380   3.540
  346SOL    HW1 3728   1.093   0.443   3.604
  346SOL    HW2 3729   1.231   0.411   3.523
  347SOL     OW 3730   0.008   1.326   2.062
  347SOL    HW1 3731  -0.085   1.347   2.031
  347SOL    HW2 3732   0.018   1.227   2.075
  348SOL     OW 3733   0.504   1.568   2.772
  348SOL    HW1 3734   0.570   1.642   2.781
  348SOL    HW2 3735   0.548   1.489   2.730
  349SOL     OW 3736   0.040   0.544   2.976
  349SOL    HW1 3737   0.125   0.511   2.935
  349SOL    HW2 3738   0.053   0.559   3.074
  350SOL     OW 3739   0.189   0.520   3.584
  350SOL    HW1 3740   0.248   0.480   3.514
  350SOL    HW2 3741   0.131   0.591   3.543
  351SOL     OW 3742   0.815   0.572   2.187
  351SOL    HW1 3743   0.822   0.483   2.141
  351SOL    HW2 3744   0.721   0.606   2.179
  352SOL     OW 3745   0.252   1.564   3.606
  352SOL    HW1 3746   0.222   1.621   3.682
  352SOL    HW2 3747   0.245   1.467   3.632
  353SOL     OW 3748   0.671   0.464   3.131
  353SOL    HW1 3749   0.637   0.375   3.101
  353SOL    HW2 3750   0.697   0.518   3.051
  354SOL     OW 3751   0.930   1.678   3.327
  354SOL    HW1 3752   0.906   1.660   3.232
  354SOL    HW2 3753   0.960   1.772   3.337
  355SOL     OW 3754   0.473   0.500   2.053
  355SOL    HW1 3755   0.534   0.580   2.057
  355SOL    HW2 3756   0.378   0.531   2.060
  356SOL     OW 3757   0.159   1.137   3.328
  356SOL    HW1 3758   0.181   1.076   3.404
  356SOL    HW2 3759   0.169   1.088   3.242
  357SOL     OW 3760   1.302   0.855   2.171
  357SOL    HW1 3761   1.216   0.824   2.213
  357SOL    HW2 3762   1.298   0.841   2.072
  358SOL     OW 3763   0.083   1.258   2.884
  358SOL    HW1 3764   0.078   1.257   2.984
  358SOL    HW2 3765   0.000   1.217   2.846
  359SOL     OW 3766   0.688   1.662   3.578
  359SOL    HW1 3767   0.632   1.743   3.587
  359SOL    HW2 3768   0.740   1.666   3.492
  360SOL     OW 3769   1.280   0.927   2.534
  360SOL    HW1 3770   1.340   0.846   2.536
  360SOL    HW2 3771   1.320   0.996   2.474
  361SOL     OW 3772   1.841   0.175   2.825
  361SOL    HW1 3773   1.880   0.090   2.789
  361SOL    HW2 3774   1.743   0.177   2.806
  362SOL     OW 3775   0.263   0.326   2.582
  362SOL    HW1 3776   0.184   0.377   2.548
  362SOL    HW2 3777   0.254   0.311   2.680
  363SOL     OW 3778   1.194   1.612   1.893
  363SOL    HW1 3779   1.200   1.519   1.930
  363SOL    HW2 3780   1.135   1.612   1.813
  364SOL     OW 3781   0.822   1.002   3.234
  364SOL    HW1 3782   0.862   1.001   3.142
  364SOL    HW2 3783   0.832   1.094   3.274
  365SOL     OW 3784   0.916   0.910   2.153
  365SOL    HW1 3785   0.979   0.948   2.085
  365SOL    HW2 3786   0.956   0.827   2.192
  366SOL     OW 3787   0.372   1.288   3.352
  366SOL    HW1 3788   0.359   1.381   3.318
  366SOL    HW2 3789   0.288   1.236   3.339
  367SOL     OW 3790   1.614   1.292   3.151
  367SOL    HW1 3791   1.674   1.295   3.231
  367SOL    HW2 3792   1.539   1.356   3.164
  368SOL     OW 3793   1.039   1.098   2.558
  368SOL    HW1 3794   0.969   1.051   2.612
  368SOL    HW2 3795   1.098   1.030   2.515
  369SOL     OW 3796   1.014   0.236   2.833
  369SOL    HW1 3797   1.006   0.200   2.740
  369SOL    HW2 3798   1.012   0.160   2.898
  370SOL     OW 3799   1.709   0.385   3.243
  370SOL    HW1 3800   1.782   0.454   3.247
  370SOL    HW2 3801   1.737   0.310   3.184
  371SOL     OW 3802   0.255   1.348   2.152
  371SOL    HW1 3803   0.159   1.349   2.125
  371SOL    HW2 3804   0.267   1.401   2.236
  372SOL     OW 3805   0.105   1.013   3.588
  372SOL    HW1 3806   0.028   0.980   3.642
  372SOL    HW2 3807   0.190   0.983   3.630
  373SOL     OW 3808   0.672   0.203   3.351
  373SOL    HW1 3809   0.762   0.187   3.311
  373SOL    HW2 3810   0.680   0.208   3.450
  374SOL     OW 3811   0.075   0.345   1.895
  374SOL    HW1 3812  -0.017   0.317   1.866
  374SOL    HW2 3813   0.106   0.422   1.839
  375SOL     OW 3814   1.440   0.856   3.260
  375SOL    HW1 3815   1.383   0.908   3.197
  375SOL    HW2 3816   1.536   0.868   3.236
  376SOL     OW 3817   0.072   0.166   2.180
  376SOL    HW1 3818   0.055   0.249   2.126
  376SOL    HW2 3819   0.162   0.129   2.158
  377SOL     OW 3820   0.613   0.842   3.293
  377SOL    HW1 3821   0.669   0.923   3.276
  377SOL    HW2 3822   0.672   0.762   3.296
  378SOL     OW 3823   1.493   1.767   2.821
  378SOL    HW1 3824   1.526   1.831   2.752
  378SOL    HW2 3825   1.559   1.761   2.896
  379SOL     OW 3826   0.716   0.565   3.570
  379SOL    HW1 3827   0.735   0.630   3.644
  379SOL    HW2 3828   0.776   0.485   3.579
  380SOL     OW 3829   0.390   1.741   3.422
  380SOL    HW1 3830   0.299   1.782   3.420
  380SOL    HW2 3831   0.383   1.647   3.454
  381SOL     OW 3832   1.225   0.325   2.311
  381SOL    HW1 3833   1.290   0.251   2.300
  381SOL    HW2 3834   1.245   0.375   2.395
  382SOL     OW 3835   0.594   0.745   2.514
  382SOL    HW1 3836   0.644   0.830   2.495
  382SOL    HW2 3837   0.506   0.747   2.466
  383SOL     OW 3838   1.777   0.342   3.504
  383SOL    HW1 3839   1.760   0.373   3.410
  383SOL    HW2 3840   1.693   0.305   3.542
  384SOL     OW 3841   0.661   1.790   2.815
  384SOL    HW1 3842   0.615   1.878   2.802
  384SOL    HW2 3843   0.760   1.802   2.808
  385SOL     OW 3844   0.859   0.956   2.723
  385SOL    HW1 3845   0.913   0.887   2.771
  385SOL    HW2 3846   0.827   1.025   2.789
  386SOL     OW 3847   1.083   0.984   1.949
  386SOL    HW1 3848   1.060   1.037   1.867
  386SOL    HW2 3849   1.164   0.928   1.930
  387SOL     OW 3850   0.079   1.240   2.515
  387SOL    HW1 3851   0.078   1.193   2.603
  387SOL    HW2 3852   0.161   1.212   2.464
  388SOL     OW 3853   0.672   1.391   3.486
  388SOL    HW1 3854   0.594   1.341   3.524
  388SOL    HW2 3855   0.669   1.486   3.517
  389SOL     OW 3856   1.824   0.192   3.089
  389SOL    HW1 3857   1.820   0.102   3.133
  389SOL    HW2 3858   1.827   0.181   2.990
  390SOL     OW 3859   0.428   0.424   2.382
  390SOL    HW1 3860   0.458   0.352   2.320
  390SOL    HW2 3861   0.389   0.384   2.465
  391SOL     OW 3862   0.317   0.547   3.142
  391SOL    HW1 3863   0.355   0.488   3.214
  391SOL    HW2 3864   0.357   0.521   3.054
  392SOL     OW 3865   1.001   0.034   3.016
  392SOL    HW1 3866   0.938  -0.038   2.985
  392SOL    HW2 3867   1.094  -0.002   3.016
  393SOL     OW 3868   0.618   1.567   3.146
  393SOL    HW1 3869   0.613   1.649   3.203
  393SOL    HW2 3870   0.707   1.564   3.101
  394SOL     OW 3871   1.352   0.052   2.030
  394SOL    HW1 3872   1.387   0.011   1.946
  394SOL    HW2 3873   1.262   0.014   2.050
  395SOL     OW 3874   1.300   0.453   2.553
  395SOL    HW1 3875   1.241   0.533   2.557
  395SOL    HW2 3876   1.315   0.418   2.646
  396SOL     OW 3877   0.039   1.077   2.162
  396SOL    HW1 3878   0.138   1.066   2.153
  396SOL    HW2 3879  -0.001   0.991   2.194
  397SOL     OW 3880   0.230   0.628   3.837
  397SOL    HW1 3881   0.137   0.626   3.874
  397SOL    HW2 3882   0.231   0.589   3.745
  398SOL     OW 3883   0.569   1.275   4.889
  398SOL    HW1 3884   0.476   1.268   4.852
  398SOL    HW2 3885   0.580   1.364   4.933
  399SOL     OW 3886   1.135   0.703   4.441
  399SOL    HW1 3887   1.192   0.781   4.416
  399SOL    HW2 3888   1.075   0.729   4.517
  400SOL     OW 3889   1.755   0.607   3.955
  400SOL    HW1 3890   1.743   0.594   3.856
  400SOL    HW2 3891   1.725   0.526   4.004
  401SOL     OW 3892   0.768   1.144   4.747
  401SOL    HW1 3893   0.690   1.161   4.807
  401SOL    HW2 3894   0.802   1.231   4.711
  402SOL     OW 3895   0.685   1.012   4.389
  402SOL    HW1 3896   0.754   0.996   4.459
  402SOL    HW2 3897   0.612   1.069   4.427
  403SOL     OW 3898   0.231   1.713   4.207
  403SOL    HW1 3899   0.265   1.790   4.261
  403SOL    HW2 3900   0.275   1.713   4.117
  404SOL     OW 3901   0.230   1.434   4.262
  404SOL    HW1 3902   0.204   1.530   4.262
  404SOL    HW2 3903   0.159   1.380   4.307
  405SOL     OW 3904   0.620   1.786   5.163
  405SOL    HW1 3905   0.528   1.769   5.198
  405SOL    HW2 3906   0.648   1.878   5.189
  406SOL     OW 3907   0.606   0.964   3.847
  406SOL    HW1 3908   0.613   1.048   3.793
  406SOL    HW2 3909   0.652   0.977   3.935
  407SOL     OW 3910   1.842   1.767   4.083
  407SOL    HW1 3911   1.896   1.738   4.163
  407SOL    HW2 3912   1.872   1.857   4.054
  408SOL     OW 3913   0.613   1.365   4.450
  408SOL    HW1 3914   0.564   1.278   4.459
  408SOL    HW2 3915   0.590   1.408   4.363
  409SOL     OW 3916   0.809   0.004   4.226
  409SOL    HW1 3917   0.849   0.095   4.217
  409SOL    HW2 3918   0.709   0.012   4.232
  410SOL     OW 3919   1.525   0.999   3.914
  410SOL    HW1 3920   1.462   0.923   3.927
  410SOL    HW2 3921   1.573   1.017   4.000
  411SOL     OW 3922   1.466   1.417   4.677
  411SOL    HW1 3923   1.407   1.423   4.757
  411SOL    HW2 3924   1.451   1.329   4.631
  412SOL     OW 3925   1.281   0.345   4.668
  412SOL    HW1 3926   1.195   0.295   4.655
  412SOL    HW2 3927   1.343   0.291   4.724
  413SOL     OW 3928   1.576   1.662   4.031
  413SOL    HW1 3929   1.665   1.708   4.034
  413SOL    HW2 3930   1.555   1.638   3.936
  414SOL     OW 3931   1.041   0.701   4.153
  414SOL    HW1 3932   1.067   0.697   4.249
  414SOL    HW2 3933   0.956   0.650   4.139
  415SOL     OW 3934   0.130   1.821   5.295
  415SOL    HW1 3935   0.120   1.806   5.394
  415SOL    HW2 3936   0.044   1.857   5.259
  416SOL     OW 3937   0.865   0.348   3.919
  416SOL    HW1 3938   0.924   0.411   3.870
  416SOL    HW2 3939   0.884   0.254   3.890
  417SOL     OW 3940   1.362   1.144   4.269
  417SOL    HW1 3941   1.445   1.115   4.221
  417SOL    HW2 3942   1.313   1.211   4.213
  418SOL     OW 3943   0.550   0.196   4.609
  418SOL    HW1 3944   0.545   0.191   4.709
  418SOL    HW2 3945   0.552   0.292   4.580
  419SOL     OW 3946   1.008   1.456   4.201
  419SOL    HW1 3947   0.962   1.528   4.149
  419SOL    HW2 3948   1.004   1.476   4.299
  420SOL     OW 3949   1.795   1.066   4.597
  420SOL    HW1 3950   1.733   1.051   4.521
  420SOL    HW2 3951   1.743   1.077   4.682
  421SOL     OW 3952   1.111   1.776   3.961
  421SOL    HW1 3953   1.051   1.714   4.011
  421SOL    HW2 3954   1.142   1.732   3.876
  422SOL     OW 3955   1.632   1.377   3.805
  422SOL    HW1 3956   1.600   1.471   3.795
  422SOL    HW2 3957   1.556   1.314   3.793
  423SOL     OW 3958   0.940   1.698   4.628
  423SOL    HW1 3959   1.020   1.641   4.649
  423SOL    HW2 3960   0.891   1.658   4.551
  424SOL     OW 3961   0.803   1.402   4.648
  424SOL    HW1 3962   0.893   1.416   4.606
  424SOL    HW2 3963   0.732   1.404   4.577
  425SOL     OW 3964   0.922   0.503   4.623
  425SOL    HW1 3965   0.897   0.494   4.527
  425SOL    HW2 3966   0.970   0.421   4.654
  426SOL     OW 3967   0.539   0.064   4.236
  426SOL    HW1 3968   0.458   0.065   4.294
  426SOL    HW2 3969   0.542   0.147   4.181
  427SOL     OW 3970   1.434   1.188   3.765
  427SOL    HW1 3971   1.466   1.112   3.822
  427SOL    HW2 3972   1.342   1.215   3.795
  428SOL     OW 3973   0.297   0.035   3.895
  428SOL    HW1 3974   0.346   0.119   3.874
  428SOL    HW2 3975   0.359  -0.030   3.940
  429SOL     OW 3976   0.935   0.236   4.204
  429SOL    HW1 3977   0.887   0.277   4.126
  429SOL    HW2 3978   1.034   0.234   4.185
  430SOL     OW 3979   0.459   1.152   4.465
  430SOL    HW1 3980   0.388   1.125   4.530
  430SOL    HW2 3981   0.433   1.124   4.372
  431SOL     OW 3982   1.032   0.549   3.740
  431SOL    HW1 3983   0.991   0.631   3.701
  431SOL    HW2 3984   1.096   0.575   3.813
  432SOL     OW 3985   0.561   0.222   4.871
  432SOL    HW1 3986   0.599   0.138   4.908
  432SOL    HW2 3987   0.473   0.241   4.915
  433SOL     OW 3988   1.017   0.039   4.477
  433SOL    HW1 3989   0.945   0.044   4.408
  433SOL    HW2 3990   0.993  -0.030   4.546
  434SOL     OW 3991   1.466   0.590   4.716
  434SOL    HW1 3992   1.436   0.495   4.723
  434SOL    HW2 3993   1.539   0.606   4.782
  435SOL     OW 3994   0.488   1.385   3.898
  435SOL    HW1 3995   0.401   1.370   3.945
  435SOL    HW2 3996   0.471   1.411   3.803
  436SOL     OW 3997   1.390   0.575   3.802
  436SOL    HW1 3998   1.336   0.554   3.883
  436SOL    HW2 3999   1.481   0.534   3.811
  437SOL     OW 4000   0.527   0.256   4.052
  437SOL    HW1 4001   0.554   0.197   3.977
  437SOL    HW2 4002   0.527   0.351   4.021
  438SOL     OW 4003   1.111   1.195   4.824
  438SOL    HW1 4004   1.071   1.239   4.905
  438SOL    HW2 4005   1.070   1.232   4.741
  439SOL     OW 4006   0.705   1.050   4.092
  439SOL    HW1 4007   0.691   1.057   4.191
  439SOL    HW2 4008   0.789   0.999   4.074
  440SOL     OW 4009   0.410   0.813   4.975
  440SOL    HW1 4010   0.496   0.825   5.025
  440SOL    HW2 4011   0.368   0.726   5.002
  441SOL     OW 4012   1.274   0.386   4.986
  441SOL    HW1 4013   1.295   0.460   5.050
  441SOL    HW2 4014   1.185   0.403   4.943
  442SOL     OW 4015   0.367   1.100   4.225
  442SOL    HW1 4016   0.360   1.183   4.169
  442SOL    HW2 4017   0.371   1.020   4.165
  443SOL     OW 4018   1.252   1.348   4.112
  443SOL    HW1 4019   1.302   1.425   4.152
  443SOL    HW2 4020   1.157   1.350   4.144
  444SOL     OW 4021   1.272   1.445   4.866
  444SOL    HW1 4022   1.319   1.458   4.953
  444SOL    HW2 4023   1.206   1.371   4.875
  445SOL     OW 4024   0.573   0.870   4.753
  445SOL    HW1 4025   0.617   0.959   4.744
  445SOL    HW2 4026   0.510   0.870   4.830
  446SOL     OW 4027   1.360   0.862   4.769
  446SOL    HW1 4028   1.285   0.862   4.703
  446SOL    HW2 4029   1.397   0.770   4.778
  447SOL     OW 4030   1.209   0.525   3.999
  447SOL    HW1 4031   1.222   0.441   4.053
  447SOL    HW2 4032   1.180   0.599   4.059
  448SOL     OW 4033   0.732   0.634   4.788
  448SOL    HW1 4034   0.791   0.608   4.712
  448SOL    HW2 4035   0.704   0.730   4.777
  449SOL     OW 4036   0.307   0.063   4.342
  449SOL    HW1 4037   0.296   0.157   4.375
  449SOL    HW2 4038   0.302   0.000   4.419
  450SOL     OW 4039   1.622   0.367   4.098
  450SOL    HW1 4040   1.624   0.291   4.162
  450SOL    HW2 4041   1.574   0.444   4.138
  451SOL     OW 4042   1.023   0.766   4.690
  451SOL    HW1 4043   1.038   0.787   4.786
  451SOL    HW2 4044   0.993   0.671   4.681
  452SOL     OW 4045   1.540   0.274   3.849
  452SOL    HW1 4046   1.479   0.199   3.872
  452SOL    HW2 4047   1.562   0.326   3.932
  453SOL     OW 4048   1.303   0.838   3.766
  453SOL    HW1 4049   1.337   0.745   3.781
  453SOL    HW2 4050   1.321   0.865   3.671
  454SOL     OW 4051   1.068   1.333   4.573
  454SOL    HW1 4052   1.075   1.249   4.518
  454SOL    HW2 4053   1.130   1.402   4.537
  455SOL     OW 4054   0.319   0.810   4.673
  455SOL    HW1 4055   0.412   0.846   4.678
  455SOL    HW2 4056   0.313   0.725   4.725
  456SOL     OW 4057   0.008   1.326   3.924
  456SOL    HW1 4058  -0.085   1.347   3.893
  456SOL    HW2 4059   0.018   1.227   3.937
  457SOL     OW 4060   1.002   0.796   4.962
  457SOL    HW1 4061   1.043   0.764   5.048
  457SOL    HW2 4062   0.906   0.769   4.959
  458SOL     OW 4063   1.302   0.855   4.033
  458SOL    HW1 4064   1.216   0.824   4.075
  458SOL    HW2 4065   1.298   0.841   3.934
  459SOL     OW 4066   1.252   1.731   4.852
  459SOL    HW1 4067   1.336   1.736   4.798
  459SOL    HW2 4068   1.229   1.635   4.870
  460SOL     OW 4069   1.726   0.135   4.247
  460SOL    HW1 4070   1.799   0.118   4.180
  460SOL    HW2 4071   1.695   0.048   4.285
  461SOL     OW 4072   1.388   1.573   4.201
  461SOL    HW1 4073   1.455   1.585   4.127
  461SOL    HW2 4074   1.348   1.662   4.224
  462SOL     OW 4075   1.280   0.927   4.396
  462SOL    HW1 4076   1.340   0.846   4.398
  462SOL    HW2 4077   1.320   0.996   4.336
  463SOL     OW 4078   0.672   1.616   3.878
  463SOL    HW1 4079   0.681   1.626   3.779
  463SOL    HW2 4080   0.632   1.527   3.899
  464SOL     OW 4081   1.194   1.612   3.755
  464SOL    HW1 4082   1.200   1.519   3.792
  464SOL    HW2 4083   1.135   1.612   3.675
  465SOL     OW 4084   0.822   1.002   5.096
  465SOL    HW1 4085   0.862   1.001   5.004
  465SOL    HW2 4086   0.832   1.094   5.136
  466SOL     OW 4087   0.916   0.910   4.015
  466SOL    HW1 4088   0.979   0.948   3.947
  466SOL    HW2 4089   0.956   0.827   4.054
  467SOL     OW 4090   1.504   1.607   3.768
  467SOL    HW1 4091   1.412   1.644   3.775
  467SOL    HW2 4092   1.542   1.627   3.678
  468SOL     OW 4093   1.039   1.098   4.420
  468SOL    HW1 4094   0.969   1.051   4.474
  468SOL    HW2 4095   1.098   1.030   4.377
  469SOL     OW 4096   1.014   0.236   4.695
  469SOL    HW1 4097   1.006   0.200   4.602
  469SOL    HW2 4098   1.012   0.160   4.760
  470SOL     OW 4099   0.590   1.487   4.215
  470SOL    HW1 4100   0.632   1.429   4.145
  470SOL    HW2 4101   0.546   1.566   4.171
  471SOL     OW 4102   1.709   0.385   5.105
  471SOL    HW1 4103   1.782   0.454   5.109
  471SOL    HW2 4104   1.737   0.310   5.046
  472SOL     OW 4105   0.255   1.348   4.014
  472SOL    HW1 4106   0.159   1.349   3.987
  472SOL    HW2 4107   0.267   1.401   4.098
  473SOL     OW 4108   0.075   0.345   3.757
  473SOL    HW1 4109  -0.017   0.317   3.728
  473SOL    HW2 4110   0.106   0.422   3.701
  474SOL     OW 4111   0.072   0.166   4.042
  474SOL    HW1 4112   0.055   0.249   3.988
  474SOL    HW2 4113   0.162   0.129   4.020
  475SOL     OW 4114   1.183   1.335   3.843
  475SOL    HW1 4115   1.084   1.324   3.845
  475SOL    HW2 4116   1.217   1.350   3.936
  476SOL     OW 4117   1.450   1.220   5.357
  476SOL    HW1 4118   1.441   1.210   5.456
  476SOL    HW2 4119   1.546   1.213   5.331
  477SOL     OW 4120   1.225   0.325   4.173
  477SOL    HW1 4121   1.290   0.251   4.162
  477SOL    HW2 4122   1.245   0.375   4.257
  478SOL     OW 4123   0.594   0.745   4.376
  478SOL    HW1 4124   0.644   0.830   4.357
  478SOL    HW2 4125   0.506   0.747   4.328
  479SOL     OW 4126   1.730   0.934   5.241
  479SOL    HW1 4127   1.768   1.025   5.256
  479SOL    HW2 4128   1.722   0.917   5.142
  480SOL     OW 4129   0.859   1.374   3.740
  480SOL    HW1 4130   0.813   1.389   3.828
  480SOL    HW2 4131   0.903   1.459   3.710
  481SOL     OW 4132   0.661   1.790   4.677
  481SOL    HW1 4133   0.615   1.878   4.664
  481SOL    HW2 4134   0.760   1.802   4.670
  482SOL     OW 4135   0.859   0.956   4.585
  482SOL    HW1 4136   0.913   0.887   4.633
  482SOL    HW2 4137   0.827   1.025   4.651
  483SOL     OW 4138   1.083   0.984   3.811
  483SOL    HW1 4139   1.060   1.037   3.729
  483SOL    HW2 4140   1.164   0.928   3.792
  484SOL     OW 4141   0.079   1.240   4.377
  484SOL    HW1 4142   0.078   1.193   4.465
  484SOL    HW2 4143   0.161   1.212   4.326
  485SOL     OW 4144   0.812   1.586   4.411
  485SOL    HW1 4145   0.844   1.596   4.317
  485SOL    HW2 4146   0.733   1.524   4.413
  486SOL     OW 4147   1.001   0.034   4.878
  486SOL    HW1 4148   0.938  -0.038   4.847
  486SOL    HW2 4149   1.094  -0.002   4.878
  487SOL     OW 4150   0.770   1.330   4.025
  487SOL    HW1 4151   0.724   1.243   4.042
  487SOL    HW2 4152   0.861   1.327   4.066
  488SOL     OW 4153   1.352   0.052   3.892
  488SOL    HW1 4154   1.387   0.011   3.808
  488SOL    HW2 4155   1.262   0.014   3.912
  489SOL     OW 4156   1.300   0.453   4.415
  489SOL    HW1 4157   1.241   0.533   4.419
  489SOL    HW2 4158   1.315   0.418   4.508
  490SOL     OW 4159   0.039   1.077   4.024
  490SOL    HW1 4160   0.138   1.066   4.015
  490SOL    HW2 4161  -0.001   0.991   4.056
  491SOL     OW 4162   0.875   1.646   4.061
  491SOL    HW1 4163   0.798   1.611   4.007
  491SOL    HW2 4164   0.843   1.717   4.123
  492SOL     OW 4165   0.230   2.490   0.113
  492SOL    HW1 4166   0.137   2.488   0.150
  492SOL    HW2 4167   0.231   2.451   0.021
  493SOL     OW 4168   0.225   2.137   0.996
  493SOL    HW1 4169   0.260   2.120   1.088
  493SOL    HW2 4170   0.137   2.092   0.984
  494SOL     OW 4171   0.019   2.230   0.647
  494SOL    HW1 4172  -0.063   2.273   0.686
  494SOL    HW2 4173  -0.009   2.157   0.584
  495SOL     OW 4174   1.135   2.565   0.717
  495SOL    HW1 4175   1.192   2.643   0.692
  495SOL    HW2 4176   1.075   2.591   0.793
  496SOL     OW 4177   1.755   2.469   0.231
  496SOL    HW1 4178   1.743   2.456   0.132
  496SOL    HW2 4179   1.725   2.388   0.280
  497SOL     OW 4180   0.768   3.006   1.023
  497SOL    HW1 4181   0.690   3.023   1.083
  497SOL    HW2 4182   0.802   3.093   0.987
  498SOL     OW 4183   0.850   2.660   1.823
  498SOL    HW1 4184   0.846   2.736   1.888
  498SOL    HW2 4185   0.872   2.696   1.732
  499SOL     OW 4186   0.686   3.023   1.803
  499SOL    HW1 4187   0.746   3.102   1.817
  499SOL    HW2 4188   0.600   3.054   1.762
  500SOL     OW 4189   1.460   3.367   1.339
  500SOL    HW1 4190   1.484   3.461   1.365
  500SOL    HW2 4191   1.444   3.313   1.421
  501SOL     OW 4192   1.603   2.309   0.737
  501SOL    HW1 4193   1.529   2.355   0.687
  501SOL    HW2 4194   1.654   2.377   0.790
  502SOL     OW 4195   0.231   3.575   0.483
  502SOL    HW1 4196   0.265   3.652   0.537
  502SOL    HW2 4197   0.275   3.575   0.393
  503SOL     OW 4198   1.127   3.203   1.690
  503SOL    HW1 4199   1.174   3.203   1.778
  503SOL    HW2 4200   1.079   3.116   1.679
  504SOL     OW 4201   0.620   3.648   1.439
  504SOL    HW1 4202   0.528   3.631   1.474
  504SOL    HW2 4203   0.648   3.740   1.465
  505SOL     OW 4204   0.606   2.826   0.123
  505SOL    HW1 4205   0.613   2.910   0.069
  505SOL    HW2 4206   0.652   2.839   0.211
  506SOL     OW 4207   1.594   1.976   1.480
  506SOL    HW1 4208   1.576   2.043   1.408
  506SOL    HW2 4209   1.591   2.022   1.569
  507SOL     OW 4210   0.122   2.505   0.563
  507SOL    HW1 4211   0.077   2.417   0.580
  507SOL    HW2 4212   0.121   2.559   0.647
  508SOL     OW 4213   1.842   3.629   0.359
  508SOL    HW1 4214   1.896   3.600   0.439
  508SOL    HW2 4215   1.872   3.719   0.330
  509SOL     OW 4216   0.027   3.458   0.117
  509SOL    HW1 4217   0.008   3.362   0.138
  509SOL    HW2 4218  -0.006   3.516   0.192
  510SOL     OW 4219   1.689   2.784   0.612
  510SOL    HW1 4220   1.784   2.755   0.620
  510SOL    HW2 4221   1.681   2.849   0.537
  511SOL     OW 4222   0.113   2.599   1.597
  511SOL    HW1 4223   0.201   2.586   1.642
  511SOL    HW2 4224   0.100   2.696   1.575
  512SOL     OW 4225   1.293   3.090   1.423
  512SOL    HW1 4226   1.330   3.017   1.365
  512SOL    HW2 4227   1.345   3.095   1.508
  513SOL     OW 4228   0.197   2.838   1.264
  513SOL    HW1 4229   0.286   2.793   1.250
  513SOL    HW2 4230   0.124   2.773   1.245
  514SOL     OW 4231   1.525   2.861   0.190
  514SOL    HW1 4232   1.462   2.785   0.203
  514SOL    HW2 4233   1.573   2.879   0.276
  515SOL     OW 4234   1.187   3.654   1.616
  515SOL    HW1 4235   1.211   3.714   1.540
  515SOL    HW2 4236   1.194   3.559   1.586
  516SOL     OW 4237   0.317   2.113   1.801
  516SOL    HW1 4238   0.388   2.184   1.807
  516SOL    HW2 4239   0.229   2.152   1.829
  517SOL     OW 4240   0.598   2.591   0.270
  517SOL    HW1 4241   0.622   2.660   0.202
  517SOL    HW2 4242   0.520   2.624   0.324
  518SOL     OW 4243   1.281   2.207   0.944
  518SOL    HW1 4244   1.195   2.157   0.931
  518SOL    HW2 4245   1.343   2.153   1.000
  519SOL     OW 4246   1.576   3.524   0.307
  519SOL    HW1 4247   1.665   3.570   0.310
  519SOL    HW2 4248   1.555   3.500   0.212
  520SOL     OW 4249   0.807   2.467   1.465
  520SOL    HW1 4250   0.760   2.464   1.554
  520SOL    HW2 4251   0.756   2.412   1.399
  521SOL     OW 4252   1.394   2.331   1.674
  521SOL    HW1 4253   1.374   2.374   1.762
  521SOL    HW2 4254   1.472   2.269   1.683
  522SOL     OW 4255   0.973   2.752   1.572
  522SOL    HW1 4256   1.019   2.668   1.543
  522SOL    HW2 4257   0.917   2.786   1.497
  523SOL     OW 4258   0.991   2.272   1.242
  523SOL    HW1 4259   0.914   2.306   1.296
  523SOL    HW2 4260   0.957   2.221   1.163
  524SOL     OW 4261   1.041   2.563   0.429
  524SOL    HW1 4262   1.067   2.559   0.525
  524SOL    HW2 4263   0.956   2.512   0.415
  525SOL     OW 4264   0.076   2.673   0.789
  525SOL    HW1 4265   0.175   2.661   0.798
  525SOL    HW2 4266   0.052   2.768   0.810
  526SOL     OW 4267   0.130   3.683   1.571
  526SOL    HW1 4268   0.120   3.668   1.670
  526SOL    HW2 4269   0.044   3.719   1.535
  527SOL     OW 4270   0.865   2.210   0.195
  527SOL    HW1 4271   0.924   2.273   0.146
  527SOL    HW2 4272   0.884   2.116   0.166
  528SOL     OW 4273   1.362   3.006   0.545
  528SOL    HW1 4274   1.445   2.977   0.497
  528SOL    HW2 4275   1.313   3.073   0.489
  529SOL     OW 4276   1.008   3.318   0.477
  529SOL    HW1 4277   0.962   3.390   0.425
  529SOL    HW2 4278   1.004   3.338   0.575
  530SOL     OW 4279   1.227   3.412   1.506
  530SOL    HW1 4280   1.233   3.335   1.570
  530SOL    HW2 4281   1.175   3.386   1.426
  531SOL     OW 4282   0.321   2.805   0.242
  531SOL    HW1 4283   0.403   2.844   0.200
  531SOL    HW2 4284   0.294   2.723   0.193
  532SOL     OW 4285   1.458   2.597   0.728
  532SOL    HW1 4286   1.453   2.532   0.803
  532SOL    HW2 4287   1.538   2.656   0.741
  533SOL     OW 4288   0.461   3.128   1.727
  533SOL    HW1 4289   0.411   3.129   1.641
  533SOL    HW2 4290   0.398   3.110   1.803
  534SOL     OW 4291   1.111   3.638   0.237
  534SOL    HW1 4292   1.051   3.576   0.287
  534SOL    HW2 4293   1.142   3.594   0.152
  535SOL     OW 4294   0.202   2.147   1.498
  535SOL    HW1 4295   0.122   2.207   1.485
  535SOL    HW2 4296   0.192   2.098   1.584
  536SOL     OW 4297   1.632   3.239   0.081
  536SOL    HW1 4298   1.600   3.333   0.071
  536SOL    HW2 4299   1.556   3.176   0.069
  537SOL     OW 4300   0.464   3.605   0.323
  537SOL    HW1 4301   0.497   3.644   0.409
  537SOL    HW2 4302   0.540   3.598   0.258
  538SOL     OW 4303   1.400   1.969   0.426
  538SOL    HW1 4304   1.376   1.932   0.336
  538SOL    HW2 4305   1.499   1.985   0.430
  539SOL     OW 4306   0.249   3.647   1.241
  539SOL    HW1 4307   0.306   3.582   1.291
  539SOL    HW2 4308   0.233   3.614   1.148
  540SOL     OW 4309   0.940   3.560   0.904
  540SOL    HW1 4310   1.020   3.503   0.925
  540SOL    HW2 4311   0.891   3.520   0.827
  541SOL     OW 4312   0.382   2.562   0.480
  541SOL    HW1 4313   0.427   2.472   0.477
  541SOL    HW2 4314   0.288   2.551   0.513
  542SOL     OW 4315   1.547   2.084   1.729
  542SOL    HW1 4316   1.542   2.121   1.821
  542SOL    HW2 4317   1.475   2.015   1.717
  543SOL     OW 4318   0.781   2.126   1.749
  543SOL    HW1 4319   0.848   2.065   1.792
  543SOL    HW2 4320   0.708   2.145   1.814
  544SOL     OW 4321   0.888   3.376   1.195
  544SOL    HW1 4322   0.865   3.351   1.101
  544SOL    HW2 4323   0.949   3.307   1.234
  545SOL     OW 4324   1.351   2.452   1.433
  545SOL    HW1 4325   1.379   2.409   1.518
  545SOL    HW2 4326   1.376   2.548   1.434
  546SOL     OW 4327   0.803   3.264   0.924
  546SOL    HW1 4328   0.893   3.278   0.882
  546SOL    HW2 4329   0.732   3.266   0.853
  547SOL     OW 4330   1.434   3.050   0.041
  547SOL    HW1 4331   1.466   2.974   0.098
  547SOL    HW2 4332   1.342   3.077   0.071
  548SOL     OW 4333   0.297   1.897   0.171
  548SOL    HW1 4334   0.346   1.981   0.150
  548SOL    HW2 4335   0.359   1.832   0.216
  549SOL     OW 4336   1.076   2.545   1.464
  549SOL    HW1 4337   0.996   2.484   1.467
  549SOL    HW2 4338   1.157   2.492   1.440
  550SOL     OW 4339   1.271   3.659   0.591
  550SOL    HW1 4340   1.315   3.723   0.527
  550SOL    HW2 4341   1.221   3.711   0.661
  551SOL     OW 4342   1.032   2.411   0.016
  551SOL    HW1 4343   0.991   2.493  -0.023
  551SOL    HW2 4344   1.096   2.437   0.089
  552SOL     OW 4345   0.078   2.418   1.386
  552SOL    HW1 4346   0.170   2.417   1.345
  552SOL    HW2 4347   0.072   2.492   1.453
  553SOL     OW 4348   0.866   2.316   0.642
  553SOL    HW1 4349   0.834   2.388   0.580
  553SOL    HW2 4350   0.890   2.235   0.589
  554SOL     OW 4351   1.017   1.901   0.753
  554SOL    HW1 4352   0.945   1.906   0.684
  554SOL    HW2 4353   0.993   1.832   0.822
  555SOL     OW 4354   1.466   2.452   0.992
  555SOL    HW1 4355   1.436   2.357   0.999
  555SOL    HW2 4356   1.539   2.468   1.058
  556SOL     OW 4357   1.857   2.695   0.377
  556SOL    HW1 4358   1.899   2.631   0.441
  556SOL    HW2 4359   1.819   2.644   0.299
  557SOL     OW 4360   0.488   3.247   0.174
  557SOL    HW1 4361   0.401   3.232   0.221
  557SOL    HW2 4362   0.471   3.273   0.079
  558SOL     OW 4363   1.390   2.437   0.078
  558SOL    HW1 4364   1.336   2.416   0.159
  558SOL    HW2 4365   1.481   2.396   0.087
  559SOL     OW 4366   0.527   2.118   0.328
  559SOL    HW1 4367   0.554   2.059   0.253
  559SOL    HW2 4368   0.527   2.213   0.297
  560SOL     OW 4369   1.754   3.085   1.588
  560SOL    HW1 4370   1.845   3.046   1.575
  560SOL    HW2 4371   1.762   3.181   1.612
  561SOL     OW 4372   0.915   1.951   1.402
  561SOL    HW1 4373   0.940   1.931   1.307
  561SOL    HW2 4374   0.987   2.007   1.444
  562SOL     OW 4375   0.980   2.978   1.719
  562SOL    HW1 4376   0.881   2.984   1.729
  562SOL    HW2 4377   1.003   2.898   1.663
  563SOL     OW 4378   1.274   2.248   1.262
  563SOL    HW1 4379   1.295   2.322   1.326
  563SOL    HW2 4380   1.185   2.265   1.219
  564SOL     OW 4381   0.064   3.426   1.331
  564SOL    HW1 4382   0.018   3.508   1.297
  564SOL    HW2 4383   0.162   3.445   1.340
  565SOL     OW 4384   0.367   2.962   0.501
  565SOL    HW1 4385   0.360   3.045   0.445
  565SOL    HW2 4386   0.371   2.882   0.441
  566SOL     OW 4387   1.252   3.210   0.388
  566SOL    HW1 4388   1.302   3.287   0.428
  566SOL    HW2 4389   1.157   3.212   0.420
  567SOL     OW 4390   1.582   2.501   0.472
  567SOL    HW1 4391   1.551   2.562   0.545
  567SOL    HW2 4392   1.632   2.553   0.403
  568SOL     OW 4393   1.587   2.641   1.670
  568SOL    HW1 4394   1.495   2.679   1.665
  568SOL    HW2 4395   1.647   2.688   1.605
  569SOL     OW 4396   1.013   1.967   1.770
  569SOL    HW1 4397   1.019   2.052   1.718
  569SOL    HW2 4398   1.045   1.891   1.713
  570SOL     OW 4399   0.504   1.912   1.740
  570SOL    HW1 4400   0.462   1.855   1.670
  570SOL    HW2 4401   0.438   1.981   1.772
  571SOL     OW 4402   1.360   2.724   1.045
  571SOL    HW1 4403   1.285   2.724   0.979
  571SOL    HW2 4404   1.397   2.632   1.054
  572SOL     OW 4405   1.209   2.387   0.275
  572SOL    HW1 4406   1.222   2.303   0.329
  572SOL    HW2 4407   1.180   2.461   0.335
  573SOL     OW 4408   0.307   2.075   1.231
  573SOL    HW1 4409   0.284   2.112   1.321
  573SOL    HW2 4410   0.277   1.980   1.225
  574SOL     OW 4411   1.622   2.229   0.374
  574SOL    HW1 4412   1.624   2.153   0.438
  574SOL    HW2 4413   1.574   2.306   0.414
  575SOL     OW 4414   0.980   3.435   1.700
  575SOL    HW1 4415   0.960   3.479   1.612
  575SOL    HW2 4416   1.019   3.344   1.684
  576SOL     OW 4417   1.540   2.136   0.125
  576SOL    HW1 4418   1.479   2.061   0.148
  576SOL    HW2 4419   1.562   2.188   0.208
  577SOL     OW 4420   1.303   2.700   0.042
  577SOL    HW1 4421   1.337   2.607   0.057
  577SOL    HW2 4422   1.321   2.727  -0.053
  578SOL     OW 4423   1.138   2.242   1.678
  578SOL    HW1 4424   1.093   2.305   1.742
  578SOL    HW2 4425   1.231   2.273   1.661
  579SOL     OW 4426   1.160   2.069   1.477
  579SOL    HW1 4427   1.160   2.133   1.554
  579SOL    HW2 4428   1.188   2.117   1.394
  580SOL     OW 4429   0.008   3.188   0.200
  580SOL    HW1 4430  -0.085   3.209   0.169
  580SOL    HW2 4431   0.018   3.089   0.213
  581SOL     OW 4432   0.088   3.663   0.927
  581SOL    HW1 4433   0.046   3.577   0.900
  581SOL    HW2 4434   0.182   3.666   0.893
  582SOL     OW 4435   1.002   2.658   1.238
  582SOL    HW1 4436   1.043   2.626   1.324
  582SOL    HW2 4437   0.906   2.631   1.235
  583SOL     OW 4438   0.040   2.406   1.114
  583SOL    HW1 4439   0.125   2.373   1.073
  583SOL    HW2 4440   0.053   2.421   1.212
  584SOL     OW 4441   0.189   2.382   1.722
  584SOL    HW1 4442   0.248   2.342   1.652
  584SOL    HW2 4443   0.131   2.453   1.681
  585SOL     OW 4444   1.369   2.812   1.660
  585SOL    HW1 4445   1.408   2.901   1.680
  585SOL    HW2 4446   1.379   2.792   1.563
  586SOL     OW 4447   0.815   2.434   0.325
  586SOL    HW1 4448   0.822   2.345   0.279
  586SOL    HW2 4449   0.721   2.468   0.317
  587SOL     OW 4450   1.657   2.466   1.206
  587SOL    HW1 4451   1.619   2.397   1.268
  587SOL    HW2 4452   1.739   2.430   1.162
  588SOL     OW 4453   0.252   3.426   1.744
  588SOL    HW1 4454   0.222   3.483   1.820
  588SOL    HW2 4455   0.245   3.329   1.770
  589SOL     OW 4456   0.930   3.540   1.465
  589SOL    HW1 4457   0.906   3.522   1.370
  589SOL    HW2 4458   0.960   3.634   1.475
  590SOL     OW 4459   0.473   2.362   0.191
  590SOL    HW1 4460   0.534   2.442   0.195
  590SOL    HW2 4461   0.378   2.393   0.198
  591SOL     OW 4462   0.159   2.999   1.466
  591SOL    HW1 4463   0.181   2.938   1.542
  591SOL    HW2 4464   0.169   2.950   1.380
  592SOL     OW 4465   1.347   2.921   1.234
  592SOL    HW1 4466   1.371   2.858   1.160
  592SOL    HW2 4467   1.257   2.961   1.216
  593SOL     OW 4468   1.302   2.717   0.309
  593SOL    HW1 4469   1.216   2.686   0.351
  593SOL    HW2 4470   1.298   2.703   0.210
  594SOL     OW 4471   1.252   3.593   1.128
  594SOL    HW1 4472   1.336   3.598   1.074
  594SOL    HW2 4473   1.229   3.497   1.146
  595SOL     OW 4474   0.130   3.656   1.851
  595SOL    HW1 4475   0.089   3.582   1.904
  595SOL    HW2 4476   0.194   3.707   1.909
  596SOL     OW 4477   0.830   3.135   1.422
  596SOL    HW1 4478   0.825   3.168   1.517
  596SOL    HW2 4479   0.744   3.154   1.376
  597SOL     OW 4480   0.672   3.478   0.154
  597SOL    HW1 4481   0.681   3.488   0.055
  597SOL    HW2 4482   0.632   3.389   0.175
  598SOL     OW 4483   0.263   2.188   0.720
  598SOL    HW1 4484   0.184   2.239   0.686
  598SOL    HW2 4485   0.254   2.173   0.818
  599SOL     OW 4486   1.194   3.474   0.031
  599SOL    HW1 4487   1.200   3.381   0.068
  599SOL    HW2 4488   1.135   3.474  -0.049
  600SOL     OW 4489   0.822   2.864   1.372
  600SOL    HW1 4490   0.862   2.863   1.280
  600SOL    HW2 4491   0.832   2.956   1.412
  601SOL     OW 4492   0.916   2.772   0.291
  601SOL    HW1 4493   0.979   2.810   0.223
  601SOL    HW2 4494   0.956   2.689   0.330
  602SOL     OW 4495   1.504   3.469   0.044
  602SOL    HW1 4496   1.412   3.506   0.051
  602SOL    HW2 4497   1.542   3.489  -0.046
  603SOL     OW 4498   0.372   3.150   1.490
  603SOL    HW1 4499   0.359   3.243   1.456
  603SOL    HW2 4500   0.288   3.098   1.477
  604SOL     OW 4501   1.614   3.154   1.289
  604SOL    HW1 4502   1.674   3.157   1.369
  604SOL    HW2 4503   1.539   3.218   1.302
  605SOL     OW 4504   1.014   2.098   0.971
  605SOL    HW1 4505   1.006   2.062   0.878
  605SOL    HW2 4506   1.012   2.022   1.036
  606SOL     OW 4507   1.709   2.247   1.381
  606SOL    HW1 4508   1.782   2.316   1.385
  606SOL    HW2 4509   1.737   2.172   1.322
  607SOL     OW 4510   0.255   3.210   0.290
  607SOL    HW1 4511   0.159   3.211   0.263
  607SOL    HW2 4512   0.267   3.263   0.374
  608SOL     OW 4513   0.105   2.875   1.726
  608SOL    HW1 4514   0.028   2.842   1.780
  608SOL    HW2 4515   0.190   2.845   1.768
  609SOL     OW 4516   0.672   2.065   1.489
  609SOL    HW1 4517   0.762   2.049   1.449
  609SOL    HW2 4518   0.680   2.070   1.588
  610SOL     OW 4519   0.075   2.207   0.033
  610SOL    HW1 4520  -0.017   2.179   0.004
  610SOL    HW2 4521   0.106   2.284  -0.023
  611SOL     OW 4522   1.440   2.718   1.398
  611SOL    HW1 4523   1.383   2.770   1.335
  611SOL    HW2 4524   1.536   2.730   1.374
  612SOL     OW 4525   0.072   2.028   0.318
  612SOL    HW1 4526   0.055   2.111   0.264
  612SOL    HW2 4527   0.162   1.991   0.296
  613SOL     OW 4528   1.183   3.197   0.119
  613SOL    HW1 4529   1.084   3.186   0.121
  613SOL    HW2 4530   1.217   3.212   0.212
  614SOL     OW 4531   0.613   2.704   1.431
  614SOL    HW1 4532   0.669   2.785   1.414
  614SOL    HW2 4533   0.672   2.624   1.434
  615SOL     OW 4534   0.716   2.427   1.708
  615SOL    HW1 4535   0.735   2.492   1.782
  615SOL    HW2 4536   0.776   2.347   1.717
  616SOL     OW 4537   1.450   3.082   1.633
  616SOL    HW1 4538   1.441   3.072   1.732
  616SOL    HW2 4539   1.546   3.075   1.607
  617SOL     OW 4540   0.390   3.603   1.560
  617SOL    HW1 4541   0.299   3.644   1.558
  617SOL    HW2 4542   0.383   3.509   1.592
  618SOL     OW 4543   1.674   2.745   1.254
  618SOL    HW1 4544   1.647   2.656   1.217
  618SOL    HW2 4545   1.675   2.813   1.181
  619SOL     OW 4546   1.225   2.187   0.449
  619SOL    HW1 4547   1.290   2.113   0.438
  619SOL    HW2 4548   1.245   2.237   0.533
  620SOL     OW 4549   0.594   2.607   0.652
  620SOL    HW1 4550   0.644   2.692   0.633
  620SOL    HW2 4551   0.506   2.609   0.604
  621SOL     OW 4552   1.777   2.204   1.642
  621SOL    HW1 4553   1.760   2.235   1.548
  621SOL    HW2 4554   1.693   2.167   1.680
  622SOL     OW 4555   1.730   2.796   1.517
  622SOL    HW1 4556   1.768   2.887   1.532
  622SOL    HW2 4557   1.722   2.779   1.418
  623SOL     OW 4558   0.859   3.236   0.016
  623SOL    HW1 4559   0.813   3.251   0.104
  623SOL    HW2 4560   0.903   3.321  -0.014
  624SOL     OW 4561   0.859   2.818   0.861
  624SOL    HW1 4562   0.913   2.749   0.909
  624SOL    HW2 4563   0.827   2.887   0.927
  625SOL     OW 4564   1.083   2.846   0.087
  625SOL    HW1 4565   1.060   2.899   0.005
  625SOL    HW2 4566   1.164   2.790   0.068
  626SOL     OW 4567   1.861   3.431   0.851
  626SOL    HW1 4568   1.790   3.419   0.781
  626SOL    HW2 4569   1.862   3.352   0.911
  627SOL     OW 4570   0.079   3.102   0.653
  627SOL    HW1 4571   0.078   3.055   0.741
  627SOL    HW2 4572   0.161   3.074   0.602
  628SOL     OW 4573   0.672   3.253   1.624
  628SOL    HW1 4574   0.594   3.203   1.662
  628SOL    HW2 4575   0.669   3.348   1.655
  629SOL     OW 4576   1.824   2.054   1.227
  629SOL    HW1 4577   1.820   1.964   1.271
  629SOL    HW2 4578   1.827   2.043   1.128
  630SOL     OW 4579   0.428   2.286   0.520
  630SOL    HW1 4580   0.458   2.214   0.458
  630SOL    HW2 4581   0.389   2.246   0.603
  631SOL     OW 4582   1.705   3.349   1.104
  631SOL    HW1 4583   1.612   3.324   1.077
  631SOL    HW2 4584   1.731   3.299   1.186
  632SOL     OW 4585   1.424   2.076   1.112
  632SOL    HW1 4586   1.476   2.011   1.167
  632SOL    HW2 4587   1.375   2.139   1.173
  633SOL     OW 4588   1.001   1.896   1.154
  633SOL    HW1 4589   0.938   1.824   1.123
  633SOL    HW2 4590   1.094   1.860   1.154
  634SOL     OW 4591   0.618   3.429   1.284
  634SOL    HW1 4592   0.613   3.511   1.341
  634SOL    HW2 4593   0.707   3.426   1.239
  635SOL     OW 4594   1.352   1.914   0.168
  635SOL    HW1 4595   1.387   1.873   0.084
  635SOL    HW2 4596   1.262   1.876   0.188
  636SOL     OW 4597   1.300   2.315   0.691
  636SOL    HW1 4598   1.241   2.395   0.695
  636SOL    HW2 4599   1.315   2.280   0.784
  637SOL     OW 4600   1.593   2.083   0.882
  637SOL    HW1 4601   1.509   2.082   0.936
  637SOL    HW2 4602   1.595   2.166   0.826
  638SOL     OW 4603   0.039   2.939   0.300
  638SOL    HW1 4604   0.138   2.928   0.291
  638SOL    HW2 4605  -0.001   2.853   0.332
  639SOL     OW 4606   0.875   3.508   0.337
  639SOL    HW1 4607   0.798   3.473   0.283
  639SOL    HW2 4608   0.843   3.579   0.399
  640SOL     OW 4609   0.230   2.490   1.975
  640SOL    HW1 4610   0.137   2.488   2.012
  640SOL    HW2 4611   0.231   2.451   1.883
  641SOL     OW 4612   0.225   2.137   2.858
  641SOL    HW1 4613   0.260   2.120   2.950
  641SOL    HW2 4614   0.137   2.092   2.846
  642SOL     OW 4615   0.019   2.230   2.509
  642SOL    HW1 4616  -0.063   2.273   2.548
  642SOL    HW2 4617  -0.009   2.157   2.446
  643SOL     OW 4618   0.569   3.137   3.027
  643SOL    HW1 4619   0.476   3.130   2.990
  643SOL    HW2 4620   0.580   3.226   3.071
  644SOL     OW 4621   0.685   2.874   2.527
  644SOL    HW1 4622   0.754   2.858   2.597
  644SOL    HW2 4623   0.612   2.931   2.565
  645SOL     OW 4624   0.686   3.023   3.665
  645SOL    HW1 4625   0.746   3.102   3.679
  645SOL    HW2 4626   0.600   3.054   3.624
  646SOL     OW 4627   0.335   3.297   2.923
  646SOL    HW1 4628   0.257   3.266   2.870
  646SOL    HW2 4629   0.393   3.355   2.866
  647SOL     OW 4630   1.460   3.367   3.201
  647SOL    HW1 4631   1.484   3.461   3.227
  647SOL    HW2 4632   1.444   3.313   3.283
  648SOL     OW 4633   0.438   2.254   3.361
  648SOL    HW1 4634   0.520   2.198   3.370
  648SOL    HW2 4635   0.357   2.196   3.365
  649SOL     OW 4636   1.603   2.309   2.599
  649SOL    HW1 4637   1.529   2.355   2.549
  649SOL    HW2 4638   1.654   2.377   2.652
  650SOL     OW 4639   1.127   3.203   3.552
  650SOL    HW1 4640   1.174   3.203   3.640
  650SOL    HW2 4641   1.079   3.116   3.541
  651SOL     OW 4642   0.240   2.953   2.748
  651SOL    HW1 4643   0.254   2.869   2.800
  651SOL    HW2 4644   0.185   3.017   2.803
  652SOL     OW 4645   0.620   3.648   3.301
  652SOL    HW1 4646   0.528   3.631   3.336
  652SOL    HW2 4647   0.648   3.740   3.327
  653SOL     OW 4648   0.606   2.826   1.985
  653SOL    HW1 4649   0.613   2.910   1.931
  653SOL    HW2 4650   0.652   2.839   2.073
  654SOL     OW 4651   0.122   2.505   2.425
  654SOL    HW1 4652   0.077   2.417   2.442
  654SOL    HW2 4653   0.121   2.559   2.509
  655SOL     OW 4654   1.842   3.629   2.221
  655SOL    HW1 4655   1.896   3.600   2.301
  655SOL    HW2 4656   1.872   3.719   2.192
  656SOL     OW 4657   0.027   3.458   1.979
  656SOL    HW1 4658   0.008   3.362   2.000
  656SOL    HW2 4659  -0.006   3.516   2.054
  657SOL     OW 4660   1.689   2.784   2.474
  657SOL    HW1 4661   1.784   2.755   2.482
  657SOL    HW2 4662   1.681   2.849   2.399
  658SOL     OW 4663   1.641   2.970   2.294
  658SOL    HW1 4664   1.727   2.972   2.242
  658SOL    HW2 4665   1.655   3.017   2.382
  659SOL     OW 4666   0.613   3.227   2.588
  659SOL    HW1 4667   0.564   3.140   2.597
  659SOL    HW2 4668   0.590   3.270   2.501
  660SOL     OW 4669   1.293   3.090   3.285
  660SOL    HW1 4670   1.330   3.017   3.227
  660SOL    HW2 4671   1.345   3.095   3.370
  661SOL     OW 4672   0.197   2.838   3.126
  661SOL    HW1 4673   0.286   2.793   3.112
  661SOL    HW2 4674   0.124   2.773   3.107
  662SOL     OW 4675   1.187   3.654   3.478
  662SOL    HW1 4676   1.211   3.714   3.402
  662SOL    HW2 4677   1.194   3.559   3.448
  663SOL     OW 4678   0.317   2.113   3.663
  663SOL    HW1 4679   0.388   2.184   3.669
  663SOL    HW2 4680   0.229   2.152   3.691
  664SOL     OW 4681   1.466   3.279   2.815
  664SOL    HW1 4682   1.407   3.285   2.895
  664SOL    HW2 4683   1.451   3.191   2.769
  665SOL     OW 4684   0.598   2.591   2.132
  665SOL    HW1 4685   0.622   2.660   2.064
  665SOL    HW2 4686   0.520   2.624   2.186
  666SOL     OW 4687   1.281   2.207   2.806
  666SOL    HW1 4688   1.195   2.157   2.793
  666SOL    HW2 4689   1.343   2.153   2.862
  667SOL     OW 4690   1.576   3.524   2.169
  667SOL    HW1 4691   1.665   3.570   2.172
  667SOL    HW2 4692   1.555   3.500   2.074
  668SOL     OW 4693   0.807   2.467   3.327
  668SOL    HW1 4694   0.760   2.464   3.416
  668SOL    HW2 4695   0.756   2.412   3.261
  669SOL     OW 4696   1.394   2.331   3.536
  669SOL    HW1 4697   1.374   2.374   3.624
  669SOL    HW2 4698   1.472   2.269   3.545
  670SOL     OW 4699   0.991   2.272   3.104
  670SOL    HW1 4700   0.914   2.306   3.158
  670SOL    HW2 4701   0.957   2.221   3.025
  671SOL     OW 4702   0.076   2.673   2.651
  671SOL    HW1 4703   0.175   2.661   2.660
  671SOL    HW2 4704   0.052   2.768   2.672
  672SOL     OW 4705   0.130   3.683   3.433
  672SOL    HW1 4706   0.120   3.668   3.532
  672SOL    HW2 4707   0.044   3.719   3.397
  673SOL     OW 4708   0.865   2.210   2.057
  673SOL    HW1 4709   0.924   2.273   2.008
  673SOL    HW2 4710   0.884   2.116   2.028
  674SOL     OW 4711   1.719   2.447   3.693
  674SOL    HW1 4712   1.693   2.536   3.657
  674SOL    HW2 4713   1.717   2.379   3.620
  675SOL     OW 4714   0.550   2.058   2.747
  675SOL    HW1 4715   0.545   2.053   2.847
  675SOL    HW2 4716   0.552   2.154   2.718
  676SOL     OW 4717   1.008   3.318   2.339
  676SOL    HW1 4718   0.962   3.390   2.287
  676SOL    HW2 4719   1.004   3.338   2.437
  677SOL     OW 4720   0.351   3.663   2.715
  677SOL    HW1 4721   0.401   3.577   2.721
  677SOL    HW2 4722   0.416   3.740   2.712
  678SOL     OW 4723   1.795   2.928   2.735
  678SOL    HW1 4724   1.733   2.913   2.659
  678SOL    HW2 4725   1.743   2.939   2.820
  679SOL     OW 4726   1.227   3.412   3.368
  679SOL    HW1 4727   1.233   3.335   3.432
  679SOL    HW2 4728   1.175   3.386   3.288
  680SOL     OW 4729   1.458   2.597   2.590
  680SOL    HW1 4730   1.453   2.532   2.665
  680SOL    HW2 4731   1.538   2.656   2.603
  681SOL     OW 4732   0.461   3.128   3.589
  681SOL    HW1 4733   0.411   3.129   3.503
  681SOL    HW2 4734   0.398   3.110   3.665
  682SOL     OW 4735   1.111   3.638   2.099
  682SOL    HW1 4736   1.051   3.576   2.149
  682SOL    HW2 4737   1.142   3.594   2.014
  683SOL     OW 4738   0.202   2.147   3.360
  683SOL    HW1 4739   0.122   2.207   3.347
  683SOL    HW2 4740   0.192   2.098   3.446
  684SOL     OW 4741   1.632   3.239   1.943
  684SOL    HW1 4742   1.600   3.333   1.933
  684SOL    HW2 4743   1.556   3.176   1.931
  685SOL     OW 4744   0.464   3.605   2.185
  685SOL    HW1 4745   0.497   3.644   2.271
  685SOL    HW2 4746   0.540   3.598   2.120
  686SOL     OW 4747   1.400   1.969   2.288
  686SOL    HW1 4748   1.376   1.932   2.198
  686SOL    HW2 4749   1.499   1.985   2.292
  687SOL     OW 4750   0.249   3.647   3.103
  687SOL    HW1 4751   0.306   3.582   3.153
  687SOL    HW2 4752   0.233   3.614   3.010
  688SOL     OW 4753   0.940   3.560   2.766
  688SOL    HW1 4754   1.020   3.503   2.787
  688SOL    HW2 4755   0.891   3.520   2.689
  689SOL     OW 4756   0.382   2.562   2.342
  689SOL    HW1 4757   0.427   2.472   2.339
  689SOL    HW2 4758   0.288   2.551   2.375
  690SOL     OW 4759   1.547   2.084   3.591
  690SOL    HW1 4760   1.542   2.121   3.683
  690SOL    HW2 4761   1.475   2.015   3.579
  691SOL     OW 4762   0.614   1.984   1.979
  691SOL    HW1 4763   0.712   1.962   1.986
  691SOL    HW2 4764   0.583   1.967   1.886
  692SOL     OW 4765   0.781   2.126   3.611
  692SOL    HW1 4766   0.848   2.065   3.654
  692SOL    HW2 4767   0.708   2.145   3.676
  693SOL     OW 4768   0.888   3.376   3.057
  693SOL    HW1 4769   0.865   3.351   2.963
  693SOL    HW2 4770   0.949   3.307   3.096
  694SOL     OW 4771   1.351   2.452   3.295
  694SOL    HW1 4772   1.379   2.409   3.380
  694SOL    HW2 4773   1.376   2.548   3.296
  695SOL     OW 4774   0.803   3.264   2.786
  695SOL    HW1 4775   0.893   3.278   2.744
  695SOL    HW2 4776   0.732   3.266   2.715
  696SOL     OW 4777   0.922   2.365   2.761
  696SOL    HW1 4778   0.897   2.356   2.665
  696SOL    HW2 4779   0.970   2.283   2.792
  697SOL     OW 4780   0.539   1.926   2.374
  697SOL    HW1 4781   0.458   1.927   2.432
  697SOL    HW2 4782   0.542   2.009   2.319
  698SOL     OW 4783   1.434   3.050   1.903
  698SOL    HW1 4784   1.466   2.974   1.960
  698SOL    HW2 4785   1.342   3.077   1.933
  699SOL     OW 4786   0.297   1.897   2.033
  699SOL    HW1 4787   0.346   1.981   2.012
  699SOL    HW2 4788   0.359   1.832   2.078
  700SOL     OW 4789   0.459   3.014   2.603
  700SOL    HW1 4790   0.388   2.987   2.668
  700SOL    HW2 4791   0.433   2.986   2.510
  701SOL     OW 4792   1.032   2.411   1.878
  701SOL    HW1 4793   0.991   2.493   1.839
  701SOL    HW2 4794   1.096   2.437   1.951
  702SOL     OW 4795   0.561   2.084   3.009
  702SOL    HW1 4796   0.599   2.000   3.046
  702SOL    HW2 4797   0.473   2.103   3.053
  703SOL     OW 4798   1.017   1.901   2.615
  703SOL    HW1 4799   0.945   1.906   2.546
  703SOL    HW2 4800   0.993   1.832   2.684
  704SOL     OW 4801   1.429   3.035   2.729
  704SOL    HW1 4802   1.374   2.951   2.722
  704SOL    HW2 4803   1.455   3.064   2.637
  705SOL     OW 4804   1.466   2.452   2.854
  705SOL    HW1 4805   1.436   2.357   2.861
  705SOL    HW2 4806   1.539   2.468   2.920
  706SOL     OW 4807   1.857   2.695   2.239
  706SOL    HW1 4808   1.899   2.631   2.303
  706SOL    HW2 4809   1.819   2.644   2.161
  707SOL     OW 4810   0.488   3.247   2.036
  707SOL    HW1 4811   0.401   3.232   2.083
  707SOL    HW2 4812   0.471   3.273   1.941
  708SOL     OW 4813   1.664   3.142   2.519
  708SOL    HW1 4814   1.763   3.150   2.533
  708SOL    HW2 4815   1.619   3.226   2.550
  709SOL     OW 4816   0.527   2.118   2.190
  709SOL    HW1 4817   0.554   2.059   2.115
  709SOL    HW2 4818   0.527   2.213   2.159
  710SOL     OW 4819   1.064   3.209   3.202
  710SOL    HW1 4820   0.984   3.186   3.257
  710SOL    HW2 4821   1.147   3.183   3.251
  711SOL     OW 4822   1.592   3.491   3.487
  711SOL    HW1 4823   1.619   3.525   3.397
  711SOL    HW2 4824   1.671   3.453   3.533
  712SOL     OW 4825   1.638   2.961   2.941
  712SOL    HW1 4826   1.643   3.042   3.000
  712SOL    HW2 4827   1.552   2.963   2.890
  713SOL     OW 4828   0.915   1.951   3.264
  713SOL    HW1 4829   0.940   1.931   3.169
  713SOL    HW2 4830   0.987   2.007   3.306
  714SOL     OW 4831   0.980   2.978   3.581
  714SOL    HW1 4832   0.881   2.984   3.591
  714SOL    HW2 4833   1.003   2.898   3.525
  715SOL     OW 4834   0.705   2.912   2.230
  715SOL    HW1 4835   0.691   2.919   2.329
  715SOL    HW2 4836   0.789   2.861   2.212
  716SOL     OW 4837   0.410   2.675   3.113
  716SOL    HW1 4838   0.496   2.687   3.163
  716SOL    HW2 4839   0.368   2.588   3.140
  717SOL     OW 4840   0.064   3.426   3.193
  717SOL    HW1 4841   0.018   3.508   3.159
  717SOL    HW2 4842   0.162   3.445   3.202
  718SOL     OW 4843   0.566   2.399   2.727
  718SOL    HW1 4844   0.578   2.465   2.653
  718SOL    HW2 4845   0.612   2.433   2.810
  719SOL     OW 4846   1.252   3.210   2.250
  719SOL    HW1 4847   1.302   3.287   2.290
  719SOL    HW2 4848   1.157   3.212   2.282
  720SOL     OW 4849   1.272   3.307   3.004
  720SOL    HW1 4850   1.319   3.320   3.091
  720SOL    HW2 4851   1.206   3.233   3.013
  721SOL     OW 4852   0.354   3.372   3.191
  721SOL    HW1 4853   0.333   3.328   3.104
  721SOL    HW2 4854   0.451   3.398   3.194
  722SOL     OW 4855   1.587   2.641   3.532
  722SOL    HW1 4856   1.495   2.679   3.527
  722SOL    HW2 4857   1.647   2.688   3.467
  723SOL     OW 4858   0.504   1.912   3.602
  723SOL    HW1 4859   0.462   1.855   3.532
  723SOL    HW2 4860   0.438   1.981   3.634
  724SOL     OW 4861   1.360   2.724   2.907
  724SOL    HW1 4862   1.285   2.724   2.841
  724SOL    HW2 4863   1.397   2.632   2.916
  725SOL     OW 4864   0.307   2.075   3.093
  725SOL    HW1 4865   0.284   2.112   3.183
  725SOL    HW2 4866   0.277   1.980   3.087
  726SOL     OW 4867   0.037   3.172   3.144
  726SOL    HW1 4868   0.090   3.123   3.212
  726SOL    HW2 4869   0.059   3.270   3.149
  727SOL     OW 4870   0.732   2.496   2.926
  727SOL    HW1 4871   0.791   2.470   2.850
  727SOL    HW2 4872   0.704   2.592   2.915
  728SOL     OW 4873   0.980   3.435   3.562
  728SOL    HW1 4874   0.960   3.479   3.474
  728SOL    HW2 4875   1.019   3.344   3.546
  729SOL     OW 4876   1.859   3.380   3.467
  729SOL    HW1 4877   1.873   3.407   3.372
  729SOL    HW2 4878   1.942   3.402   3.520
  730SOL     OW 4879   0.319   2.672   2.811
  730SOL    HW1 4880   0.412   2.708   2.816
  730SOL    HW2 4881   0.313   2.587   2.863
  731SOL     OW 4882   0.339   2.371   2.868
  731SOL    HW1 4883   0.287   2.288   2.851
  731SOL    HW2 4884   0.416   2.376   2.804
  732SOL     OW 4885   1.138   2.242   3.540
  732SOL    HW1 4886   1.093   2.305   3.604
  732SOL    HW2 4887   1.231   2.273   3.523
  733SOL     OW 4888   0.504   3.430   2.772
  733SOL    HW1 4889   0.570   3.504   2.781
  733SOL    HW2 4890   0.548   3.351   2.730
  734SOL     OW 4891   0.040   2.406   2.976
  734SOL    HW1 4892   0.125   2.373   2.935
  734SOL    HW2 4893   0.053   2.421   3.074
  735SOL     OW 4894   1.369   2.812   3.522
  735SOL    HW1 4895   1.408   2.901   3.542
  735SOL    HW2 4896   1.379   2.792   3.425
  736SOL     OW 4897   0.815   2.434   2.187
  736SOL    HW1 4898   0.822   2.345   2.141
  736SOL    HW2 4899   0.721   2.468   2.179
  737SOL     OW 4900   1.657   2.466   3.068
  737SOL    HW1 4901   1.619   2.397   3.130
  737SOL    HW2 4902   1.739   2.430   3.024
  738SOL     OW 4903   0.252   3.426   3.606
  738SOL    HW1 4904   0.222   3.483   3.682
  738SOL    HW2 4905   0.245   3.329   3.632
  739SOL     OW 4906   0.671   2.326   3.131
  739SOL    HW1 4907   0.637   2.237   3.101
  739SOL    HW2 4908   0.697   2.380   3.051
  740SOL     OW 4909   0.930   3.540   3.327
  740SOL    HW1 4910   0.906   3.522   3.232
  740SOL    HW2 4911   0.960   3.634   3.337
  741SOL     OW 4912   0.473   2.362   2.053
  741SOL    HW1 4913   0.534   2.442   2.057
  741SOL    HW2 4914   0.378   2.393   2.060
  742SOL     OW 4915   0.159   2.999   3.328
  742SOL    HW1 4916   0.181   2.938   3.404
  742SOL    HW2 4917   0.169   2.950   3.242
  743SOL     OW 4918   1.347   2.921   3.096
  743SOL    HW1 4919   1.371   2.858   3.022
  743SOL    HW2 4920   1.257   2.961   3.078
  744SOL     OW 4921   1.759   3.609   3.016
  744SOL    HW1 4922   1.820   3.639   2.943
  744SOL    HW2 4923   1.721   3.520   2.994
  745SOL     OW 4924   1.252   3.593   2.990
  745SOL    HW1 4925   1.336   3.598   2.936
  745SOL    HW2 4926   1.229   3.497   3.008
  746SOL     OW 4927   0.083   3.120   2.884
  746SOL    HW1 4928   0.078   3.119   2.984
  746SOL    HW2 4929   0.000   3.079   2.846
  747SOL     OW 4930   0.688   3.524   3.578
  747SOL    HW1 4931   0.632   3.605   3.587
  747SOL    HW2 4932   0.740   3.528   3.492
  748SOL     OW 4933   1.726   1.997   2.385
  748SOL    HW1 4934   1.799   1.980   2.318
  748SOL    HW2 4935   1.695   1.910   2.423
  749SOL     OW 4936   0.130   3.656   3.713
  749SOL    HW1 4937   0.089   3.582   3.766
  749SOL    HW2 4938   0.194   3.707   3.771
  750SOL     OW 4939   1.280   2.789   2.534
  750SOL    HW1 4940   1.340   2.708   2.536
  750SOL    HW2 4941   1.320   2.858   2.474
  751SOL     OW 4942   0.830   3.135   3.284
  751SOL    HW1 4943   0.825   3.168   3.379
  751SOL    HW2 4944   0.744   3.154   3.238
  752SOL     OW 4945   0.672   3.478   2.016
  752SOL    HW1 4946   0.681   3.488   1.917
  752SOL    HW2 4947   0.632   3.389   2.037
  753SOL     OW 4948   1.650   3.582   3.256
  753SOL    HW1 4949   1.703   3.592   3.172
  753SOL    HW2 4950   1.623   3.672   3.290
  754SOL     OW 4951   0.263   2.188   2.582
  754SOL    HW1 4952   0.184   2.239   2.548
  754SOL    HW2 4953   0.254   2.173   2.680
  755SOL     OW 4954   1.194   3.474   1.893
  755SOL    HW1 4955   1.200   3.381   1.930
  755SOL    HW2 4956   1.135   3.474   1.813
  756SOL     OW 4957   0.916   2.772   2.153
  756SOL    HW1 4958   0.979   2.810   2.085
  756SOL    HW2 4959   0.956   2.689   2.192
  757SOL     OW 4960   1.614   3.154   3.151
  757SOL    HW1 4961   1.674   3.157   3.231
  757SOL    HW2 4962   1.539   3.218   3.164
  758SOL     OW 4963   1.014   2.098   2.833
  758SOL    HW1 4964   1.006   2.062   2.740
  758SOL    HW2 4965   1.012   2.022   2.898
  759SOL     OW 4966   0.590   3.349   2.353
  759SOL    HW1 4967   0.632   3.291   2.283
  759SOL    HW2 4968   0.546   3.428   2.309
  760SOL     OW 4969   0.672   2.065   3.351
  760SOL    HW1 4970   0.762   2.049   3.311
  760SOL    HW2 4971   0.680   2.070   3.450
  761SOL     OW 4972   1.440   2.718   3.260
  761SOL    HW1 4973   1.383   2.770   3.197
  761SOL    HW2 4974   1.536   2.730   3.236
  762SOL     OW 4975   1.183   3.197   1.981
  762SOL    HW1 4976   1.084   3.186   1.983
  762SOL    HW2 4977   1.217   3.212   2.074
  763SOL     OW 4978   0.716   2.427   3.570
  763SOL    HW1 4979   0.735   2.492   3.644
  763SOL    HW2 4980   0.776   2.347   3.579
  764SOL     OW 4981   1.450   3.082   3.495
  764SOL    HW1 4982   1.441   3.072   3.594
  764SOL    HW2 4983   1.546   3.075   3.469
  765SOL     OW 4984   0.390   3.603   3.422
  765SOL    HW1 4985   0.299   3.644   3.420
  765SOL    HW2 4986   0.383   3.509   3.454
  766SOL     OW 4987   1.674   2.745   3.116
  766SOL    HW1 4988   1.647   2.656   3.079
  766SOL    HW2 4989   1.675   2.813   3.043
  767SOL     OW 4990   1.225   2.187   2.311
  767SOL    HW1 4991   1.290   2.113   2.300
  767SOL    HW2 4992   1.245   2.237   2.395
  768SOL     OW 4993   1.777   2.204   3.504
  768SOL    HW1 4994   1.760   2.235   3.410
  768SOL    HW2 4995   1.693   2.167   3.542
  769SOL     OW 4996   1.730   2.796   3.379
  769SOL    HW1 4997   1.768   2.887   3.394
  769SOL    HW2 4998   1.722   2.779   3.280
  770SOL     OW 4999   0.859   3.236   1.878
  770SOL    HW1 5000   0.813   3.251   1.966
  770SOL    HW2 5001   0.903   3.321   1.848
  771SOL     OW 5002   0.661   3.652   2.815
  771SOL    HW1 5003   0.615   3.740   2.802
  771SOL    HW2 5004   0.760   3.664   2.808
  772SOL     OW 5005   1.083   2.846   1.949
  772SOL    HW1 5006   1.060   2.899   1.867
  772SOL    HW2 5007   1.164   2.790   1.930
  773SOL     OW 5008   0.221   3.176   3.706
  773SOL    HW1 5009   0.156   3.103   3.685
  773SOL    HW2 5010   0.225   3.190   3.804
  774SOL     OW 5011   0.428   2.286   2.382
  774SOL    HW1 5012   0.458   2.214   2.320
  774SOL    HW2 5013   0.389   2.246   2.465
  775SOL     OW 5014   1.705   3.349   2.966
  775SOL    HW1 5015   1.612   3.324   2.939
  775SOL    HW2 5016   1.731   3.299   3.048
  776SOL     OW 5017   0.317   2.409   3.142
  776SOL    HW1 5018   0.355   2.350   3.214
  776SOL    HW2 5019   0.357   2.383   3.054
  777SOL     OW 5020   0.812   3.448   2.549
  777SOL    HW1 5021   0.844   3.458   2.455
  777SOL    HW2 5022   0.733   3.386   2.551
  778SOL     OW 5023   1.001   1.896   3.016
  778SOL    HW1 5024   0.938   1.824   2.985
  778SOL    HW2 5025   1.094   1.860   3.016
  779SOL     OW 5026   0.770   3.192   2.163
  779SOL    HW1 5027   0.724   3.105   2.180
  779SOL    HW2 5028   0.861   3.189   2.204
  780SOL     OW 5029   0.618   3.429   3.146
  780SOL    HW1 5030   0.613   3.511   3.203
  780SOL    HW2 5031   0.707   3.426   3.101
  781SOL     OW 5032   1.352   1.914   2.030
  781SOL    HW1 5033   1.387   1.873   1.946
  781SOL    HW2 5034   1.262   1.876   2.050
  782SOL     OW 5035   1.300   2.315   2.553
  782SOL    HW1 5036   1.241   2.395   2.557
  782SOL    HW2 5037   1.315   2.280   2.646
  783SOL     OW 5038   1.593   2.083   2.744
  783SOL    HW1 5039   1.509   2.082   2.798
  783SOL    HW2 5040   1.595   2.166   2.688
  784SOL     OW 5041   0.875   3.508   2.199
  784SOL    HW1 5042   0.798   3.473   2.145
  784SOL    HW2 5043   0.843   3.579   2.261
  785SOL     OW 5044   0.230   2.490   3.837
  785SOL    HW1 5045   0.137   2.488   3.874
  785SOL    HW2 5046   0.231   2.451   3.745
  786SOL     OW 5047   0.019   2.230   4.371
  786SOL    HW1 5048  -0.063   2.273   4.410
  786SOL    HW2 5049  -0.009   2.157   4.308
  787SOL     OW 5050   0.569   3.137   4.889
  787SOL    HW1 5051   0.476   3.130   4.852
  787SOL    HW2 5052   0.580   3.226   4.933
  788SOL     OW 5053   1.555   3.373   4.427
  788SOL    HW1 5054   1.498   3.357   4.508
  788SOL    HW2 5055   1.496   3.383   4.347
  789SOL     OW 5056   1.135   2.565   4.441
  789SOL    HW1 5057   1.192   2.643   4.416
  789SOL    HW2 5058   1.075   2.591   4.517
  790SOL     OW 5059   1.755   2.469   3.955
  790SOL    HW1 5060   1.743   2.456   3.856
  790SOL    HW2 5061   1.725   2.388   4.004
  791SOL     OW 5062   0.768   3.006   4.747
  791SOL    HW1 5063   0.690   3.023   4.807
  791SOL    HW2 5064   0.802   3.093   4.711
  792SOL     OW 5065   0.685   2.874   4.389
  792SOL    HW1 5066   0.754   2.858   4.459
  792SOL    HW2 5067   0.612   2.931   4.427
  793SOL     OW 5068   0.335   3.297   4.785
  793SOL    HW1 5069   0.257   3.266   4.732
  793SOL    HW2 5070   0.393   3.355   4.728
  794SOL     OW 5071   1.603   2.309   4.461
  794SOL    HW1 5072   1.529   2.355   4.411
  794SOL    HW2 5073   1.654   2.377   4.514
  795SOL     OW 5074   0.231   3.575   4.207
  795SOL    HW1 5075   0.265   3.652   4.261
  795SOL    HW2 5076   0.275   3.575   4.117
  796SOL     OW 5077   0.230   3.296   4.262
  796SOL    HW1 5078   0.204   3.392   4.262
  796SOL    HW2 5079   0.159   3.242   4.307
  797SOL     OW 5080   0.240   2.953   4.610
  797SOL    HW1 5081   0.254   2.869   4.662
  797SOL    HW2 5082   0.185   3.017   4.665
  798SOL     OW 5083   0.620   3.648   5.163
  798SOL    HW1 5084   0.528   3.631   5.198
  798SOL    HW2 5085   0.648   3.740   5.189
  799SOL     OW 5086   0.122   2.505   4.287
  799SOL    HW1 5087   0.077   2.417   4.304
  799SOL    HW2 5088   0.121   2.559   4.371
  800SOL     OW 5089   0.027   3.458   3.841
  800SOL    HW1 5090   0.008   3.362   3.862
  800SOL    HW2 5091  -0.006   3.516   3.916
  801SOL     OW 5092   0.613   3.227   4.450
  801SOL    HW1 5093   0.564   3.140   4.459
  801SOL    HW2 5094   0.590   3.270   4.363
  802SOL     OW 5095   0.809   1.866   4.226
  802SOL    HW1 5096   0.849   1.957   4.217
  802SOL    HW2 5097   0.709   1.874   4.232
  803SOL     OW 5098   0.197   2.838   4.988
  803SOL    HW1 5099   0.286   2.793   4.974
  803SOL    HW2 5100   0.124   2.773   4.969
  804SOL     OW 5101   1.466   3.279   4.677
  804SOL    HW1 5102   1.407   3.285   4.757
  804SOL    HW2 5103   1.451   3.191   4.631
  805SOL     OW 5104   1.281   2.207   4.668
  805SOL    HW1 5105   1.195   2.157   4.655
  805SOL    HW2 5106   1.343   2.153   4.724
  806SOL     OW 5107   1.576   3.524   4.031
  806SOL    HW1 5108   1.665   3.570   4.034
  806SOL    HW2 5109   1.555   3.500   3.936
  807SOL     OW 5110   0.991   2.272   4.966
  807SOL    HW1 5111   0.914   2.306   5.020
  807SOL    HW2 5112   0.957   2.221   4.887
  808SOL     OW 5113   1.041   2.563   4.153
  808SOL    HW1 5114   1.067   2.559   4.249
  808SOL    HW2 5115   0.956   2.512   4.139
  809SOL     OW 5116   0.076   2.673   4.513
  809SOL    HW1 5117   0.175   2.661   4.522
  809SOL    HW2 5118   0.052   2.768   4.534
  810SOL     OW 5119   0.865   2.210   3.919
  810SOL    HW1 5120   0.924   2.273   3.870
  810SOL    HW2 5121   0.884   2.116   3.890
  811SOL     OW 5122   0.550   2.058   4.609
  811SOL    HW1 5123   0.545   2.053   4.709
  811SOL    HW2 5124   0.552   2.154   4.580
  812SOL     OW 5125   1.008   3.318   4.201
  812SOL    HW1 5126   0.962   3.390   4.149
  812SOL    HW2 5127   1.004   3.338   4.299
  813SOL     OW 5128   0.351   3.663   4.577
  813SOL    HW1 5129   0.401   3.577   4.583
  813SOL    HW2 5130   0.416   3.740   4.574
  814SOL     OW 5131   1.795   2.928   4.597
  814SOL    HW1 5132   1.733   2.913   4.521
  814SOL    HW2 5133   1.743   2.939   4.682
  815SOL     OW 5134   0.321   2.805   3.966
  815SOL    HW1 5135   0.403   2.844   3.924
  815SOL    HW2 5136   0.294   2.723   3.917
  816SOL     OW 5137   1.458   2.597   4.452
  816SOL    HW1 5138   1.453   2.532   4.527
  816SOL    HW2 5139   1.538   2.656   4.465
  817SOL     OW 5140   1.111   3.638   3.961
  817SOL    HW1 5141   1.051   3.576   4.011
  817SOL    HW2 5142   1.142   3.594   3.876
  818SOL     OW 5143   1.632   3.239   3.805
  818SOL    HW1 5144   1.600   3.333   3.795
  818SOL    HW2 5145   1.556   3.176   3.793
  819SOL     OW 5146   0.464   3.605   4.047
  819SOL    HW1 5147   0.497   3.644   4.133
  819SOL    HW2 5148   0.540   3.598   3.982
  820SOL     OW 5149   0.249   3.647   4.965
  820SOL    HW1 5150   0.306   3.582   5.015
  820SOL    HW2 5151   0.233   3.614   4.872
  821SOL     OW 5152   0.940   3.560   4.628
  821SOL    HW1 5153   1.020   3.503   4.649
  821SOL    HW2 5154   0.891   3.520   4.551
  822SOL     OW 5155   0.382   2.562   4.204
  822SOL    HW1 5156   0.427   2.472   4.201
  822SOL    HW2 5157   0.288   2.551   4.237
  823SOL     OW 5158   0.614   1.984   3.841
  823SOL    HW1 5159   0.712   1.962   3.848
  823SOL    HW2 5160   0.583   1.967   3.748
  824SOL     OW 5161   0.803   3.264   4.648
  824SOL    HW1 5162   0.893   3.278   4.606
  824SOL    HW2 5163   0.732   3.266   4.577
  825SOL     OW 5164   0.922   2.365   4.623
  825SOL    HW1 5165   0.897   2.356   4.527
  825SOL    HW2 5166   0.970   2.283   4.654
  826SOL     OW 5167   0.539   1.926   4.236
  826SOL    HW1 5168   0.458   1.927   4.294
  826SOL    HW2 5169   0.542   2.009   4.181
  827SOL     OW 5170   0.935   2.098   4.204
  827SOL    HW1 5171   0.887   2.139   4.126
  827SOL    HW2 5172   1.034   2.096   4.185
  828SOL     OW 5173   1.227   3.432   4.517
  828SOL    HW1 5174   1.248   3.506   4.452
  828SOL    HW2 5175   1.295   3.432   4.590
  829SOL     OW 5176   0.459   3.014   4.465
  829SOL    HW1 5177   0.388   2.987   4.530
  829SOL    HW2 5178   0.433   2.986   4.372
  830SOL     OW 5179   1.271   3.659   4.315
  830SOL    HW1 5180   1.315   3.723   4.251
  830SOL    HW2 5181   1.221   3.711   4.385
  831SOL     OW 5182   1.032   2.411   3.740
  831SOL    HW1 5183   0.991   2.493   3.701
  831SOL    HW2 5184   1.096   2.437   3.813
  832SOL     OW 5185   0.561   2.084   4.871
  832SOL    HW1 5186   0.599   2.000   4.908
  832SOL    HW2 5187   0.473   2.103   4.915
  833SOL     OW 5188   0.866   2.316   4.366
  833SOL    HW1 5189   0.834   2.388   4.304
  833SOL    HW2 5190   0.890   2.235   4.313
  834SOL     OW 5191   1.017   1.901   4.477
  834SOL    HW1 5192   0.945   1.906   4.408
  834SOL    HW2 5193   0.993   1.832   4.546
  835SOL     OW 5194   1.429   3.035   4.591
  835SOL    HW1 5195   1.374   2.951   4.584
  835SOL    HW2 5196   1.455   3.064   4.499
  836SOL     OW 5197   1.466   2.452   4.716
  836SOL    HW1 5198   1.436   2.357   4.723
  836SOL    HW2 5199   1.539   2.468   4.782
  837SOL     OW 5200   1.857   2.695   4.101
  837SOL    HW1 5201   1.899   2.631   4.165
  837SOL    HW2 5202   1.819   2.644   4.023
  838SOL     OW 5203   0.488   3.247   3.898
  838SOL    HW1 5204   0.401   3.232   3.945
  838SOL    HW2 5205   0.471   3.273   3.803
  839SOL     OW 5206   1.664   3.142   4.381
  839SOL    HW1 5207   1.763   3.150   4.395
  839SOL    HW2 5208   1.619   3.226   4.412
  840SOL     OW 5209   1.390   2.437   3.802
  840SOL    HW1 5210   1.336   2.416   3.883
  840SOL    HW2 5211   1.481   2.396   3.811
  841SOL     OW 5212   1.111   3.057   4.824
  841SOL    HW1 5213   1.071   3.101   4.905
  841SOL    HW2 5214   1.070   3.094   4.741
  842SOL     OW 5215   1.638   2.961   4.803
  842SOL    HW1 5216   1.643   3.042   4.862
  842SOL    HW2 5217   1.552   2.963   4.752
  843SOL     OW 5218   0.705   2.912   4.092
  843SOL    HW1 5219   0.691   2.919   4.191
  843SOL    HW2 5220   0.789   2.861   4.074
  844SOL     OW 5221   0.410   2.675   4.975
  844SOL    HW1 5222   0.496   2.687   5.025
  844SOL    HW2 5223   0.368   2.588   5.002
  845SOL     OW 5224   1.274   2.248   4.986
  845SOL    HW1 5225   1.295   2.322   5.050
  845SOL    HW2 5226   1.185   2.265   4.943
  846SOL     OW 5227   0.367   2.962   4.225
  846SOL    HW1 5228   0.360   3.045   4.169
  846SOL    HW2 5229   0.371   2.882   4.165
  847SOL     OW 5230   0.566   2.399   4.589
  847SOL    HW1 5231   0.578   2.465   4.515
  847SOL    HW2 5232   0.612   2.433   4.672
  848SOL     OW 5233   1.272   3.307   4.866
  848SOL    HW1 5234   1.319   3.320   4.953
  848SOL    HW2 5235   1.206   3.233   4.875
  849SOL     OW 5236   0.354   3.372   5.053
  849SOL    HW1 5237   0.333   3.328   4.966
  849SOL    HW2 5238   0.451   3.398   5.056
  850SOL     OW 5239   0.573   2.732   4.753
  850SOL    HW1 5240   0.617   2.821   4.744
  850SOL    HW2 5241   0.510   2.732   4.830
  851SOL     OW 5242   1.360   2.724   4.769
  851SOL    HW1 5243   1.285   2.724   4.703
  851SOL    HW2 5244   1.397   2.632   4.778
  852SOL     OW 5245   1.209   2.387   3.999
  852SOL    HW1 5246   1.222   2.303   4.053
  852SOL    HW2 5247   1.180   2.461   4.059
  853SOL     OW 5248   0.307   2.075   4.955
  853SOL    HW1 5249   0.284   2.112   5.045
  853SOL    HW2 5250   0.277   1.980   4.949
  854SOL     OW 5251   0.037   3.172   5.006
  854SOL    HW1 5252   0.090   3.123   5.074
  854SOL    HW2 5253   0.059   3.270   5.011
  855SOL     OW 5254   0.732   2.496   4.788
  855SOL    HW1 5255   0.791   2.470   4.712
  855SOL    HW2 5256   0.704   2.592   4.777
  856SOL     OW 5257   0.307   1.925   4.342
  856SOL    HW1 5258   0.296   2.019   4.375
  856SOL    HW2 5259   0.302   1.862   4.419
  857SOL     OW 5260   1.622   2.229   4.098
  857SOL    HW1 5261   1.624   2.153   4.162
  857SOL    HW2 5262   1.574   2.306   4.138
  858SOL     OW 5263   1.023   2.628   4.690
  858SOL    HW1 5264   1.038   2.649   4.786
  858SOL    HW2 5265   0.993   2.533   4.681
  859SOL     OW 5266   1.540   2.136   3.849
  859SOL    HW1 5267   1.479   2.061   3.872
  859SOL    HW2 5268   1.562   2.188   3.932
  860SOL     OW 5269   1.068   3.195   4.573
  860SOL    HW1 5270   1.075   3.111   4.518
  860SOL    HW2 5271   1.130   3.264   4.537
  861SOL     OW 5272   0.319   2.672   4.673
  861SOL    HW1 5273   0.412   2.708   4.678
  861SOL    HW2 5274   0.313   2.587   4.725
  862SOL     OW 5275   0.339   2.371   4.730
  862SOL    HW1 5276   0.287   2.288   4.713
  862SOL    HW2 5277   0.416   2.376   4.666
  863SOL     OW 5278   1.160   2.069   5.201
  863SOL    HW1 5279   1.160   2.133   5.278
  863SOL    HW2 5280   1.188   2.117   5.118
  864SOL     OW 5281   0.008   3.188   3.924
  864SOL    HW1 5282  -0.085   3.209   3.893
  864SOL    HW2 5283   0.018   3.089   3.937
  865SOL     OW 5284   0.088   3.663   4.651
  865SOL    HW1 5285   0.046   3.577   4.624
  865SOL    HW2 5286   0.182   3.666   4.617
  866SOL     OW 5287   0.504   3.430   4.634
  866SOL    HW1 5288   0.570   3.504   4.643
  866SOL    HW2 5289   0.548   3.351   4.592
  867SOL     OW 5290   1.002   2.658   4.962
  867SOL    HW1 5291   1.043   2.626   5.048
  867SOL    HW2 5292   0.906   2.631   4.959
  868SOL     OW 5293   0.040   2.406   4.838
  868SOL    HW1 5294   0.125   2.373   4.797
  868SOL    HW2 5295   0.053   2.421   4.936
  869SOL     OW 5296   0.815   2.434   4.049
  869SOL    HW1 5297   0.822   2.345   4.003
  869SOL    HW2 5298   0.721   2.468   4.041
  870SOL     OW 5299   1.657   2.466   4.930
  870SOL    HW1 5300   1.619   2.397   4.992
  870SOL    HW2 5301   1.739   2.430   4.886
  871SOL     OW 5302   0.671   2.326   4.993
  871SOL    HW1 5303   0.637   2.237   4.963
  871SOL    HW2 5304   0.697   2.380   4.913
  872SOL     OW 5305   0.930   3.540   5.189
  872SOL    HW1 5306   0.906   3.522   5.094
  872SOL    HW2 5307   0.960   3.634   5.199
  873SOL     OW 5308   0.473   2.362   3.915
  873SOL    HW1 5309   0.534   2.442   3.919
  873SOL    HW2 5310   0.378   2.393   3.922
  874SOL     OW 5311   1.347   2.921   4.958
  874SOL    HW1 5312   1.371   2.858   4.884
  874SOL    HW2 5313   1.257   2.961   4.940
  875SOL     OW 5314   1.759   3.609   4.878
  875SOL    HW1 5315   1.820   3.639   4.805
  875SOL    HW2 5316   1.721   3.520   4.856
  876SOL     OW 5317   1.252   3.593   4.852
  876SOL    HW1 5318   1.336   3.598   4.798
  876SOL    HW2 5319   1.229   3.497   4.870
  877SOL     OW 5320   0.083   3.120   4.746
  877SOL    HW1 5321   0.078   3.119   4.846
  877SOL    HW2 5322   0.000   3.079   4.708
  878SOL     OW 5323   1.388   3.435   4.201
  878SOL    HW1 5324   1.455   3.447   4.127
  878SOL    HW2 5325   1.348   3.524   4.224
  879SOL     OW 5326   1.280   2.789   4.396
  879SOL    HW1 5327   1.340   2.708   4.398
  879SOL    HW2 5328   1.320   2.858   4.336
  880SOL     OW 5329   0.672   3.478   3.878
  880SOL    HW1 5330   0.681   3.488   3.779
  880SOL    HW2 5331   0.632   3.389   3.899
  881SOL     OW 5332   1.650   3.582   5.118
  881SOL    HW1 5333   1.703   3.592   5.034
  881SOL    HW2 5334   1.623   3.672   5.152
  882SOL     OW 5335   0.263   2.188   4.444
  882SOL    HW1 5336   0.184   2.239   4.410
  882SOL    HW2 5337   0.254   2.173   4.542
  883SOL     OW 5338   1.194   3.474   3.755
  883SOL    HW1 5339   1.200   3.381   3.792
  883SOL    HW2 5340   1.135   3.474   3.675
  884SOL     OW 5341   0.822   2.864   5.096
  884SOL    HW1 5342   0.862   2.863   5.004
  884SOL    HW2 5343   0.832   2.956   5.136
  885SOL     OW 5344   0.916   2.772   4.015
  885SOL    HW1 5345   0.979   2.810   3.947
  885SOL    HW2 5346   0.956   2.689   4.054
  886SOL     OW 5347   1.504   3.469   3.768
  886SOL    HW1 5348   1.412   3.506   3.775
  886SOL    HW2 5349   1.542   3.489   3.678
  887SOL     OW 5350   1.039   2.960   4.420
  887SOL    HW1 5351   0.969   2.913   4.474
  887SOL    HW2 5352   1.098   2.892   4.377
  888SOL     OW 5353   1.014   2.098   4.695
  888SOL    HW1 5354   1.006   2.062   4.602
  888SOL    HW2 5355   1.012   2.022   4.760
  889SOL     OW 5356   0.590   3.349   4.215
  889SOL    HW1 5357   0.632   3.291   4.145
  889SOL    HW2 5358   0.546   3.428   4.171
  890SOL     OW 5359   1.709   2.247   5.105
  890SOL    HW1 5360   1.782   2.316   5.109
  890SOL    HW2 5361   1.737   2.172   5.046
  891SOL     OW 5362   0.255   3.210   4.014
  891SOL    HW1 5363   0.159   3.211   3.987
  891SOL    HW2 5364   0.267   3.263   4.098
  892SOL     OW 5365   1.183   3.197   3.843
  892SOL    HW1 5366   1.084   3.186   3.845
  892SOL    HW2 5367   1.217   3.212   3.936
  893SOL     OW 5368   1.493   3.629   4.683
  893SOL    HW1 5369   1.526   3.693   4.614
  893SOL    HW2 5370   1.559   3.623   4.758
  894SOL     OW 5371   1.450   3.082   5.357
  894SOL    HW1 5372   1.441   3.072   5.456
  894SOL    HW2 5373   1.546   3.075   5.331
  895SOL     OW 5374   1.674   2.745   4.978
  895SOL    HW1 5375   1.647   2.656   4.941
  895SOL    HW2 5376   1.675   2.813   4.905
  896SOL     OW 5377   1.225   2.187   4.173
  896SOL    HW1 5378   1.290   2.113   4.162
  896SOL    HW2 5379   1.245   2.237   4.257
  897SOL     OW 5380   0.594   2.607   4.376
  897SOL    HW1 5381   0.644   2.692   4.357
  897SOL    HW2 5382   0.506   2.609   4.328
  898SOL     OW 5383   1.730   2.796   5.241
  898SOL    HW1 5384   1.768   2.887   5.256
  898SOL    HW2 5385   1.722   2.779   5.142
  899SOL     OW 5386   0.859   3.236   3.740
  899SOL    HW1 5387   0.813   3.251   3.828
  899SOL    HW2 5388   0.903   3.321   3.710
  900SOL     OW 5389   0.661   3.652   4.677
  900SOL    HW1 5390   0.615   3.740   4.664
  900SOL    HW2 5391   0.760   3.664   4.670
  901SOL     OW 5392   0.859   2.818   4.585
  901SOL    HW1 5393   0.913   2.749   4.633
  901SOL    HW2 5394   0.827   2.887   4.651
  902SOL     OW 5395   0.079   3.102   4.377
  902SOL    HW1 5396   0.078   3.055   4.465
  902SOL    HW2 5397   0.161   3.074   4.326
  903SOL     OW 5398   1.824   2.054   4.951
  903SOL    HW1 5399   1.820   1.964   4.995
  903SOL    HW2 5400   1.827   2.043   4.852
  904SOL     OW 5401   0.428   2.286   4.244
  904SOL    HW1 5402   0.458   2.214   4.182
  904SOL    HW2 5403   0.389   2.246   4.327
  905SOL     OW 5404   1.705   3.349   4.828
  905SOL    HW1 5405   1.612   3.324   4.801
  905SOL    HW2 5406   1.731   3.299   4.910
  906SOL     OW 5407   0.812   3.448   4.411
  906SOL    HW1 5408   0.844   3.458   4.317
  906SOL    HW2 5409   0.733   3.386   4.413
  907SOL     OW 5410   1.424   2.076   4.836
  907SOL    HW1 5411   1.476   2.011   4.891
  907SOL    HW2 5412   1.375   2.139   4.897
  908SOL     OW 5413   1.001   1.896   4.878
  908SOL    HW1 5414   0.938   1.824   4.847
  908SOL    HW2 5415   1.094   1.860   4.878
  909SOL     OW 5416   0.770   3.192   4.025
  909SOL    HW1 5417   0.724   3.105   4.042
  909SOL    HW2 5418   0.861   3.189   4.066
  910SOL     OW 5419   1.352   1.914   3.892
  910SOL    HW1 5420   1.387   1.873   3.808
  910SOL    HW2 5421   1.262   1.876   3.912
  911SOL     OW 5422   1.300   2.315   4.415
  911SOL    HW1 5423   1.241   2.395   4.419
  911SOL    HW2 5424   1.315   2.280   4.508
  912SOL     OW 5425   1.593   2.083   4.606
  912SOL    HW1 5426   1.509   2.082   4.660
  912SOL    HW2 5427   1.595   2.166   4.550
  913SOL     OW 5428   0.039   2.939   4.024
  913SOL    HW1 5429   0.138   2.928   4.015
  913SOL    HW2 5430  -0.001   2.853   4.056
  914SOL     OW 5431   0.875   3.508   4.061
  914SOL    HW1 5432   0.798   3.473   4.007
  914SOL    HW2 5433   0.843   3.579   4.123
  915SOL     OW 5434   0.230   4.352   0.113
  915SOL    HW1 5435   0.137   4.350   0.150
  915SOL    HW2 5436   0.231   4.313   0.021
  916SOL     OW 5437   0.225   3.999   0.996
  916SOL    HW1 5438   0.260   3.982   1.088
  916SOL    HW2 5439   0.137   3.954   0.984
  917SOL     OW 5440   0.569   4.999   1.165
  917SOL    HW1 5441   0.476   4.992   1.128
  917SOL    HW2 5442   0.580   5.088   1.209
  918SOL     OW 5443   1.555   5.235   0.703
  918SOL    HW1 5444   1.498   5.219   0.784
  918SOL    HW2 5445   1.496   5.245   0.623
  919SOL     OW 5446   1.135   4.427   0.717
  919SOL    HW1 5447   1.192   4.505   0.692
  919SOL    HW2 5448   1.075   4.453   0.793
  920SOL     OW 5449   1.755   4.331   0.231
  920SOL    HW1 5450   1.743   4.318   0.132
  920SOL    HW2 5451   1.725   4.250   0.280
  921SOL     OW 5452   0.850   4.522   1.823
  921SOL    HW1 5453   0.846   4.598   1.888
  921SOL    HW2 5454   0.872   4.558   1.732
  922SOL     OW 5455   0.686   4.885   1.803
  922SOL    HW1 5456   0.746   4.964   1.817
  922SOL    HW2 5457   0.600   4.916   1.762
  923SOL     OW 5458   0.335   5.159   1.061
  923SOL    HW1 5459   0.257   5.128   1.008
  923SOL    HW2 5460   0.393   5.217   1.004
  924SOL     OW 5461   1.603   4.171   0.737
  924SOL    HW1 5462   1.529   4.217   0.687
  924SOL    HW2 5463   1.654   4.239   0.790
  925SOL     OW 5464   0.240   4.815   0.886
  925SOL    HW1 5465   0.254   4.731   0.938
  925SOL    HW2 5466   0.185   4.879   0.941
  926SOL     OW 5467   0.606   4.688   0.123
  926SOL    HW1 5468   0.613   4.772   0.069
  926SOL    HW2 5469   0.652   4.701   0.211
  927SOL     OW 5470   1.594   3.838   1.480
  927SOL    HW1 5471   1.576   3.905   1.408
  927SOL    HW2 5472   1.591   3.884   1.569
  928SOL     OW 5473   1.689   4.646   0.612
  928SOL    HW1 5474   1.784   4.617   0.620
  928SOL    HW2 5475   1.681   4.711   0.537
  929SOL     OW 5476   1.641   4.832   0.432
  929SOL    HW1 5477   1.727   4.834   0.380
  929SOL    HW2 5478   1.655   4.879   0.520
  930SOL     OW 5479   1.293   4.952   1.423
  930SOL    HW1 5480   1.330   4.879   1.365
  930SOL    HW2 5481   1.345   4.957   1.508
  931SOL     OW 5482   0.809   3.728   0.502
  931SOL    HW1 5483   0.849   3.819   0.493
  931SOL    HW2 5484   0.709   3.736   0.508
  932SOL     OW 5485   1.525   4.723   0.190
  932SOL    HW1 5486   1.462   4.647   0.203
  932SOL    HW2 5487   1.573   4.741   0.276
  933SOL     OW 5488   0.598   4.453   0.270
  933SOL    HW1 5489   0.622   4.522   0.202
  933SOL    HW2 5490   0.520   4.486   0.324
  934SOL     OW 5491   0.807   4.329   1.465
  934SOL    HW1 5492   0.760   4.326   1.554
  934SOL    HW2 5493   0.756   4.274   1.399
  935SOL     OW 5494   1.394   4.193   1.674
  935SOL    HW1 5495   1.374   4.236   1.762
  935SOL    HW2 5496   1.472   4.131   1.683
  936SOL     OW 5497   0.973   4.614   1.572
  936SOL    HW1 5498   1.019   4.530   1.543
  936SOL    HW2 5499   0.917   4.648   1.497
  937SOL     OW 5500   0.991   4.134   1.242
  937SOL    HW1 5501   0.914   4.168   1.296
  937SOL    HW2 5502   0.957   4.083   1.163
  938SOL     OW 5503   1.041   4.425   0.429
  938SOL    HW1 5504   1.067   4.421   0.525
  938SOL    HW2 5505   0.956   4.374   0.415
  939SOL     OW 5506   0.076   4.535   0.789
  939SOL    HW1 5507   0.175   4.523   0.798
  939SOL    HW2 5508   0.052   4.630   0.810
  940SOL     OW 5509   0.865   4.072   0.195
  940SOL    HW1 5510   0.924   4.135   0.146
  940SOL    HW2 5511   0.884   3.978   0.166
  941SOL     OW 5512   1.719   4.309   1.831
  941SOL    HW1 5513   1.693   4.398   1.795
  941SOL    HW2 5514   1.717   4.241   1.758
  942SOL     OW 5515   1.795   4.790   0.873
  942SOL    HW1 5516   1.733   4.775   0.797
  942SOL    HW2 5517   1.743   4.801   0.958
  943SOL     OW 5518   0.321   4.667   0.242
  943SOL    HW1 5519   0.403   4.706   0.200
  943SOL    HW2 5520   0.294   4.585   0.193
  944SOL     OW 5521   1.458   4.459   0.728
  944SOL    HW1 5522   1.453   4.394   0.803
  944SOL    HW2 5523   1.538   4.518   0.741
  945SOL     OW 5524   1.632   5.101   0.081
  945SOL    HW1 5525   1.600   5.195   0.071
  945SOL    HW2 5526   1.556   5.038   0.069
  946SOL     OW 5527   1.400   3.831   0.426
  946SOL    HW1 5528   1.376   3.794   0.336
  946SOL    HW2 5529   1.499   3.847   0.430
  947SOL     OW 5530   0.382   4.424   0.480
  947SOL    HW1 5531   0.427   4.334   0.477
  947SOL    HW2 5532   0.288   4.413   0.513
  948SOL     OW 5533   1.547   3.946   1.729
  948SOL    HW1 5534   1.542   3.983   1.821
  948SOL    HW2 5535   1.475   3.877   1.717
  949SOL     OW 5536   1.351   4.314   1.433
  949SOL    HW1 5537   1.379   4.271   1.518
  949SOL    HW2 5538   1.376   4.410   1.434
  950SOL     OW 5539   0.803   5.126   0.924
  950SOL    HW1 5540   0.893   5.140   0.882
  950SOL    HW2 5541   0.732   5.128   0.853
  951SOL     OW 5542   0.922   4.227   0.899
  951SOL    HW1 5543   0.897   4.218   0.803
  951SOL    HW2 5544   0.970   4.145   0.930
  952SOL     OW 5545   0.539   3.788   0.512
  952SOL    HW1 5546   0.458   3.789   0.570
  952SOL    HW2 5547   0.542   3.871   0.457
  953SOL     OW 5548   1.434   4.912   0.041
  953SOL    HW1 5549   1.466   4.836   0.098
  953SOL    HW2 5550   1.342   4.939   0.071
  954SOL     OW 5551   0.297   3.759   0.171
  954SOL    HW1 5552   0.346   3.843   0.150
  954SOL    HW2 5553   0.359   3.694   0.216
  955SOL     OW 5554   0.935   3.960   0.480
  955SOL    HW1 5555   0.887   4.001   0.402
  955SOL    HW2 5556   1.034   3.958   0.461
  956SOL     OW 5557   1.076   4.407   1.464
  956SOL    HW1 5558   0.996   4.346   1.467
  956SOL    HW2 5559   1.157   4.354   1.440
  957SOL     OW 5560   0.459   4.876   0.741
  957SOL    HW1 5561   0.388   4.849   0.806
  957SOL    HW2 5562   0.433   4.848   0.648
  958SOL     OW 5563   1.032   4.273   0.016
  958SOL    HW1 5564   0.991   4.355  -0.023
  958SOL    HW2 5565   1.096   4.299   0.089
  959SOL     OW 5566   0.078   4.280   1.386
  959SOL    HW1 5567   0.170   4.279   1.345
  959SOL    HW2 5568   0.072   4.354   1.453
  960SOL     OW 5569   0.866   4.178   0.642
  960SOL    HW1 5570   0.834   4.250   0.580
  960SOL    HW2 5571   0.890   4.097   0.589
  961SOL     OW 5572   1.017   3.763   0.753
  961SOL    HW1 5573   0.945   3.768   0.684
  961SOL    HW2 5574   0.993   3.694   0.822
  962SOL     OW 5575   1.429   4.897   0.867
  962SOL    HW1 5576   1.374   4.813   0.860
  962SOL    HW2 5577   1.455   4.926   0.775
  963SOL     OW 5578   1.857   4.557   0.377
  963SOL    HW1 5579   1.899   4.493   0.441
  963SOL    HW2 5580   1.819   4.506   0.299
  964SOL     OW 5581   1.664   5.004   0.657
  964SOL    HW1 5582   1.763   5.012   0.671
  964SOL    HW2 5583   1.619   5.088   0.688
  965SOL     OW 5584   1.390   4.299   0.078
  965SOL    HW1 5585   1.336   4.278   0.159
  965SOL    HW2 5586   1.481   4.258   0.087
  966SOL     OW 5587   1.638   4.823   1.079
  966SOL    HW1 5588   1.643   4.904   1.138
  966SOL    HW2 5589   1.552   4.825   1.028
  967SOL     OW 5590   0.915   3.813   1.402
  967SOL    HW1 5591   0.940   3.793   1.307
  967SOL    HW2 5592   0.987   3.869   1.444
  968SOL     OW 5593   0.980   4.840   1.719
  968SOL    HW1 5594   0.881   4.846   1.729
  968SOL    HW2 5595   1.003   4.760   1.663
  969SOL     OW 5596   0.705   4.774   0.368
  969SOL    HW1 5597   0.691   4.781   0.467
  969SOL    HW2 5598   0.789   4.723   0.350
  970SOL     OW 5599   1.274   4.110   1.262
  970SOL    HW1 5600   1.295   4.184   1.326
  970SOL    HW2 5601   1.185   4.127   1.219
  971SOL     OW 5602   0.367   4.824   0.501
  971SOL    HW1 5603   0.360   4.907   0.445
  971SOL    HW2 5604   0.371   4.744   0.441
  972SOL     OW 5605   1.582   4.363   0.472
  972SOL    HW1 5606   1.551   4.424   0.545
  972SOL    HW2 5607   1.632   4.415   0.403
  973SOL     OW 5608   1.209   4.249   0.275
  973SOL    HW1 5609   1.222   4.165   0.329
  973SOL    HW2 5610   1.180   4.323   0.335
  974SOL     OW 5611   1.622   4.091   0.374
  974SOL    HW1 5612   1.624   4.015   0.438
  974SOL    HW2 5613   1.574   4.168   0.414
  975SOL     OW 5614   1.303   4.562   0.042
  975SOL    HW1 5615   1.337   4.469   0.057
  975SOL    HW2 5616   1.321   4.589  -0.053
  976SOL     OW 5617   0.319   4.534   0.949
  976SOL    HW1 5618   0.412   4.570   0.954
  976SOL    HW2 5619   0.313   4.449   1.001
  977SOL     OW 5620   0.339   4.233   1.006
  977SOL    HW1 5621   0.287   4.150   0.989
  977SOL    HW2 5622   0.416   4.238   0.942
  978SOL     OW 5623   1.160   3.931   1.477
  978SOL    HW1 5624   1.160   3.995   1.554
  978SOL    HW2 5625   1.188   3.979   1.394
  979SOL     OW 5626   1.002   4.520   1.238
  979SOL    HW1 5627   1.043   4.488   1.324
  979SOL    HW2 5628   0.906   4.493   1.235
  980SOL     OW 5629   0.040   4.268   1.114
  980SOL    HW1 5630   0.125   4.235   1.073
  980SOL    HW2 5631   0.053   4.283   1.212
  981SOL     OW 5632   0.815   4.296   0.325
  981SOL    HW1 5633   0.822   4.207   0.279
  981SOL    HW2 5634   0.721   4.330   0.317
  982SOL     OW 5635   1.347   4.783   1.234
  982SOL    HW1 5636   1.371   4.720   1.160
  982SOL    HW2 5637   1.257   4.823   1.216
  983SOL     OW 5638   1.302   4.579   0.309
  983SOL    HW1 5639   1.216   4.548   0.351
  983SOL    HW2 5640   1.298   4.565   0.210
  984SOL     OW 5641   0.903   3.810   0.133
  984SOL    HW1 5642   0.954   3.811   0.047
  984SOL    HW2 5643   0.959   3.768   0.204
  985SOL     OW 5644   1.726   3.859   0.523
  985SOL    HW1 5645   1.799   3.842   0.456
  985SOL    HW2 5646   1.695   3.772   0.561
  986SOL     OW 5647   1.280   4.651   0.672
  986SOL    HW1 5648   1.340   4.570   0.674
  986SOL    HW2 5649   1.320   4.720   0.612
  987SOL     OW 5650   0.830   4.997   1.422
  987SOL    HW1 5651   0.825   5.030   1.517
  987SOL    HW2 5652   0.744   5.016   1.376
  988SOL     OW 5653   0.822   4.726   1.372
  988SOL    HW1 5654   0.862   4.725   1.280
  988SOL    HW2 5655   0.832   4.818   1.412
  989SOL     OW 5656   0.916   4.634   0.291
  989SOL    HW1 5657   0.979   4.672   0.223
  989SOL    HW2 5658   0.956   4.551   0.330
  990SOL     OW 5659   1.014   3.960   0.971
  990SOL    HW1 5660   1.006   3.924   0.878
  990SOL    HW2 5661   1.012   3.884   1.036
  991SOL     OW 5662   1.709   4.109   1.381
  991SOL    HW1 5663   1.782   4.178   1.385
  991SOL    HW2 5664   1.737   4.034   1.322
  992SOL     OW 5665   0.105   4.737   1.726
  992SOL    HW1 5666   0.028   4.704   1.780
  992SOL    HW2 5667   0.190   4.707   1.768
  993SOL     OW 5668   0.613   4.566   1.431
  993SOL    HW1 5669   0.669   4.647   1.414
  993SOL    HW2 5670   0.672   4.486   1.434
  994SOL     OW 5671   1.225   4.049   0.449
  994SOL    HW1 5672   1.290   3.975   0.438
  994SOL    HW2 5673   1.245   4.099   0.533
  995SOL     OW 5674   1.777   4.066   1.642
  995SOL    HW1 5675   1.760   4.097   1.548
  995SOL    HW2 5676   1.693   4.029   1.680
  996SOL     OW 5677   1.083   4.708   0.087
  996SOL    HW1 5678   1.060   4.761   0.005
  996SOL    HW2 5679   1.164   4.652   0.068
  997SOL     OW 5680   0.079   4.964   0.653
  997SOL    HW1 5681   0.078   4.917   0.741
  997SOL    HW2 5682   0.161   4.936   0.602
  998SOL     OW 5683   0.317   4.271   1.280
  998SOL    HW1 5684   0.355   4.212   1.352
  998SOL    HW2 5685   0.357   4.245   1.192
  999SOL     OW 5686   1.001   3.758   1.154
  999SOL    HW1 5687   0.938   3.686   1.123
  999SOL    HW2 5688   1.094   3.722   1.154
 1000SOL     OW 5689   1.352   3.776   0.168
 1000SOL    HW1 5690   1.387   3.735   0.084
 1000SOL    HW2 5691   1.262   3.738   0.188
 1001SOL     OW 5692   1.300   4.177   0.691
 1001SOL    HW1 5693   1.241   4.257   0.695
 1001SOL    HW2 5694   1.315   4.142   0.784
 1002SOL     OW 5695   0.039   4.801   0.300
 1002SOL    HW1 5696   0.138   4.790   0.291
 1002SOL    HW2 5697  -0.001   4.715   0.332
 1003SOL     OW 5698   0.230   4.352   1.975
 1003SOL    HW1 5699   0.137   4.350   2.012
 1003SOL    HW2 5700   0.231   4.313   1.883
 1004SOL     OW 5701   0.225   3.999   2.858
 1004SOL    HW1 5702   0.260   3.982   2.950
 1004SOL    HW2 5703   0.137   3.954   2.846
 1005SOL     OW 5704   0.019   4.092   2.509
 1005SOL    HW1 5705  -0.063   4.135   2.548
 1005SOL    HW2 5706  -0.009   4.019   2.446
 1006SOL     OW 5707   0.569   4.999   3.027
 1006SOL    HW1 5708   0.476   4.992   2.990
 1006SOL    HW2 5709   0.580   5.088   3.071
 1007SOL     OW 5710   1.555   5.235   2.565
 1007SOL    HW1 5711   1.498   5.219   2.646
 1007SOL    HW2 5712   1.496   5.245   2.485
 1008SOL     OW 5713   1.135   4.427   2.579
 1008SOL    HW1 5714   1.192   4.505   2.554
 1008SOL    HW2 5715   1.075   4.453   2.655
 1009SOL     OW 5716   1.755   4.331   2.093
 1009SOL    HW1 5717   1.743   4.318   1.994
 1009SOL    HW2 5718   1.725   4.250   2.142
 1010SOL     OW 5719   0.768   4.868   2.885
 1010SOL    HW1 5720   0.690   4.885   2.945
 1010SOL    HW2 5721   0.802   4.955   2.849
 1011SOL     OW 5722   0.850   4.522   3.685
 1011SOL    HW1 5723   0.846   4.598   3.750
 1011SOL    HW2 5724   0.872   4.558   3.594
 1012SOL     OW 5725   0.335   5.159   2.923
 1012SOL    HW1 5726   0.257   5.128   2.870
 1012SOL    HW2 5727   0.393   5.217   2.866
 1013SOL     OW 5728   0.438   4.116   3.361
 1013SOL    HW1 5729   0.520   4.060   3.370
 1013SOL    HW2 5730   0.357   4.058   3.365
 1014SOL     OW 5731   1.603   4.171   2.599
 1014SOL    HW1 5732   1.529   4.217   2.549
 1014SOL    HW2 5733   1.654   4.239   2.652
 1015SOL     OW 5734   0.606   4.688   1.985
 1015SOL    HW1 5735   0.613   4.772   1.931
 1015SOL    HW2 5736   0.652   4.701   2.073
 1016SOL     OW 5737   0.113   4.461   3.459
 1016SOL    HW1 5738   0.201   4.448   3.504
 1016SOL    HW2 5739   0.100   4.558   3.437
 1017SOL     OW 5740   1.293   4.952   3.285
 1017SOL    HW1 5741   1.330   4.879   3.227
 1017SOL    HW2 5742   1.345   4.957   3.370
 1018SOL     OW 5743   0.809   3.728   2.364
 1018SOL    HW1 5744   0.849   3.819   2.355
 1018SOL    HW2 5745   0.709   3.736   2.370
 1019SOL     OW 5746   1.525   4.723   2.052
 1019SOL    HW1 5747   1.462   4.647   2.065
 1019SOL    HW2 5748   1.573   4.741   2.138
 1020SOL     OW 5749   0.317   3.975   3.663
 1020SOL    HW1 5750   0.388   4.046   3.669
 1020SOL    HW2 5751   0.229   4.014   3.691
 1021SOL     OW 5752   0.598   4.453   2.132
 1021SOL    HW1 5753   0.622   4.522   2.064
 1021SOL    HW2 5754   0.520   4.486   2.186
 1022SOL     OW 5755   1.281   4.069   2.806
 1022SOL    HW1 5756   1.195   4.019   2.793
 1022SOL    HW2 5757   1.343   4.015   2.862
 1023SOL     OW 5758   0.807   4.329   3.327
 1023SOL    HW1 5759   0.760   4.326   3.416
 1023SOL    HW2 5760   0.756   4.274   3.261
 1024SOL     OW 5761   1.394   4.193   3.536
 1024SOL    HW1 5762   1.374   4.236   3.624
 1024SOL    HW2 5763   1.472   4.131   3.545
 1025SOL     OW 5764   0.991   4.134   3.104
 1025SOL    HW1 5765   0.914   4.168   3.158
 1025SOL    HW2 5766   0.957   4.083   3.025
 1026SOL     OW 5767   1.041   4.425   2.291
 1026SOL    HW1 5768   1.067   4.421   2.387
 1026SOL    HW2 5769   0.956   4.374   2.277
 1027SOL     OW 5770   0.865   4.072   2.057
 1027SOL    HW1 5771   0.924   4.135   2.008
 1027SOL    HW2 5772   0.884   3.978   2.028
 1028SOL     OW 5773   1.719   4.309   3.693
 1028SOL    HW1 5774   1.693   4.398   3.657
 1028SOL    HW2 5775   1.717   4.241   3.620
 1029SOL     OW 5776   1.362   4.868   2.407
 1029SOL    HW1 5777   1.445   4.839   2.359
 1029SOL    HW2 5778   1.313   4.935   2.351
 1030SOL     OW 5779   0.550   3.920   2.747
 1030SOL    HW1 5780   0.545   3.915   2.847
 1030SOL    HW2 5781   0.552   4.016   2.718
 1031SOL     OW 5782   0.321   4.667   2.104
 1031SOL    HW1 5783   0.403   4.706   2.062
 1031SOL    HW2 5784   0.294   4.585   2.055
 1032SOL     OW 5785   1.458   4.459   2.590
 1032SOL    HW1 5786   1.453   4.394   2.665
 1032SOL    HW2 5787   1.538   4.518   2.603
 1033SOL     OW 5788   0.202   4.009   3.360
 1033SOL    HW1 5789   0.122   4.069   3.347
 1033SOL    HW2 5790   0.192   3.960   3.446
 1034SOL     OW 5791   1.547   3.946   3.591
 1034SOL    HW1 5792   1.542   3.983   3.683
 1034SOL    HW2 5793   1.475   3.877   3.579
 1035SOL     OW 5794   0.614   3.846   1.979
 1035SOL    HW1 5795   0.712   3.824   1.986
 1035SOL    HW2 5796   0.583   3.829   1.886
 1036SOL     OW 5797   0.781   3.988   3.611
 1036SOL    HW1 5798   0.848   3.927   3.654
 1036SOL    HW2 5799   0.708   4.007   3.676
 1037SOL     OW 5800   1.351   4.314   3.295
 1037SOL    HW1 5801   1.379   4.271   3.380
 1037SOL    HW2 5802   1.376   4.410   3.296
 1038SOL     OW 5803   0.803   5.126   2.786
 1038SOL    HW1 5804   0.893   5.140   2.744
 1038SOL    HW2 5805   0.732   5.128   2.715
 1039SOL     OW 5806   0.922   4.227   2.761
 1039SOL    HW1 5807   0.897   4.218   2.665
 1039SOL    HW2 5808   0.970   4.145   2.792
 1040SOL     OW 5809   0.539   3.788   2.374
 1040SOL    HW1 5810   0.458   3.789   2.432
 1040SOL    HW2 5811   0.542   3.871   2.319
 1041SOL     OW 5812   1.434   4.912   1.903
 1041SOL    HW1 5813   1.466   4.836   1.960
 1041SOL    HW2 5814   1.342   4.939   1.933
 1042SOL     OW 5815   0.297   3.759   2.033
 1042SOL    HW1 5816   0.346   3.843   2.012
 1042SOL    HW2 5817   0.359   3.694   2.078
 1043SOL     OW 5818   0.935   3.960   2.342
 1043SOL    HW1 5819   0.887   4.001   2.264
 1043SOL    HW2 5820   1.034   3.958   2.323
 1044SOL     OW 5821   1.076   4.407   3.326
 1044SOL    HW1 5822   0.996   4.346   3.329
 1044SOL    HW2 5823   1.157   4.354   3.302
 1045SOL     OW 5824   1.227   5.294   2.655
 1045SOL    HW1 5825   1.248   5.368   2.590
 1045SOL    HW2 5826   1.295   5.294   2.728
 1046SOL     OW 5827   1.032   4.273   1.878
 1046SOL    HW1 5828   0.991   4.355   1.839
 1046SOL    HW2 5829   1.096   4.299   1.951
 1047SOL     OW 5830   0.078   4.280   3.248
 1047SOL    HW1 5831   0.170   4.279   3.207
 1047SOL    HW2 5832   0.072   4.354   3.315
 1048SOL     OW 5833   0.561   3.946   3.009
 1048SOL    HW1 5834   0.599   3.862   3.046
 1048SOL    HW2 5835   0.473   3.965   3.053
 1049SOL     OW 5836   0.866   4.178   2.504
 1049SOL    HW1 5837   0.834   4.250   2.442
 1049SOL    HW2 5838   0.890   4.097   2.451
 1050SOL     OW 5839   1.017   3.763   2.615
 1050SOL    HW1 5840   0.945   3.768   2.546
 1050SOL    HW2 5841   0.993   3.694   2.684
 1051SOL     OW 5842   1.466   4.314   2.854
 1051SOL    HW1 5843   1.436   4.219   2.861
 1051SOL    HW2 5844   1.539   4.330   2.920
 1052SOL     OW 5845   1.390   4.299   1.940
 1052SOL    HW1 5846   1.336   4.278   2.021
 1052SOL    HW2 5847   1.481   4.258   1.949
 1053SOL     OW 5848   0.527   3.980   2.190
 1053SOL    HW1 5849   0.554   3.921   2.115
 1053SOL    HW2 5850   0.527   4.075   2.159
 1054SOL     OW 5851   0.915   3.813   3.264
 1054SOL    HW1 5852   0.940   3.793   3.169
 1054SOL    HW2 5853   0.987   3.869   3.306
 1055SOL     OW 5854   0.705   4.774   2.230
 1055SOL    HW1 5855   0.691   4.781   2.329
 1055SOL    HW2 5856   0.789   4.723   2.212
 1056SOL     OW 5857   1.274   4.110   3.124
 1056SOL    HW1 5858   1.295   4.184   3.188
 1056SOL    HW2 5859   1.185   4.127   3.081
 1057SOL     OW 5860   0.367   4.824   2.363
 1057SOL    HW1 5861   0.360   4.907   2.307
 1057SOL    HW2 5862   0.371   4.744   2.303
 1058SOL     OW 5863   0.566   4.261   2.727
 1058SOL    HW1 5864   0.578   4.327   2.653
 1058SOL    HW2 5865   0.612   4.295   2.810
 1059SOL     OW 5866   1.582   4.363   2.334
 1059SOL    HW1 5867   1.551   4.424   2.407
 1059SOL    HW2 5868   1.632   4.415   2.265
 1060SOL     OW 5869   1.013   3.829   3.632
 1060SOL    HW1 5870   1.019   3.914   3.580
 1060SOL    HW2 5871   1.045   3.753   3.575
 1061SOL     OW 5872   0.504   3.774   3.602
 1061SOL    HW1 5873   0.462   3.717   3.532
 1061SOL    HW2 5874   0.438   3.843   3.634
 1062SOL     OW 5875   1.360   4.586   2.907
 1062SOL    HW1 5876   1.285   4.586   2.841
 1062SOL    HW2 5877   1.397   4.494   2.916
 1063SOL     OW 5878   1.209   4.249   2.137
 1063SOL    HW1 5879   1.222   4.165   2.191
 1063SOL    HW2 5880   1.180   4.323   2.197
 1064SOL     OW 5881   0.307   3.937   3.093
 1064SOL    HW1 5882   0.284   3.974   3.183
 1064SOL    HW2 5883   0.277   3.842   3.087
 1065SOL     OW 5884   0.037   5.034   3.144
 1065SOL    HW1 5885   0.090   4.985   3.212
 1065SOL    HW2 5886   0.059   5.132   3.149
 1066SOL     OW 5887   0.732   4.358   2.926
 1066SOL    HW1 5888   0.791   4.332   2.850
 1066SOL    HW2 5889   0.704   4.454   2.915
 1067SOL     OW 5890   0.307   3.787   2.480
 1067SOL    HW1 5891   0.296   3.881   2.513
 1067SOL    HW2 5892   0.302   3.724   2.557
 1068SOL     OW 5893   1.622   4.091   2.236
 1068SOL    HW1 5894   1.624   4.015   2.300
 1068SOL    HW2 5895   1.574   4.168   2.276
 1069SOL     OW 5896   1.023   4.490   2.828
 1069SOL    HW1 5897   1.038   4.511   2.924
 1069SOL    HW2 5898   0.993   4.395   2.819
 1070SOL     OW 5899   1.859   5.242   3.467
 1070SOL    HW1 5900   1.873   5.269   3.372
 1070SOL    HW2 5901   1.942   5.264   3.520
 1071SOL     OW 5902   0.350   4.622   3.666
 1071SOL    HW1 5903   0.426   4.666   3.714
 1071SOL    HW2 5904   0.385   4.575   3.584
 1072SOL     OW 5905   1.540   3.998   1.987
 1072SOL    HW1 5906   1.479   3.923   2.010
 1072SOL    HW2 5907   1.562   4.050   2.070
 1073SOL     OW 5908   1.303   4.562   1.904
 1073SOL    HW1 5909   1.337   4.469   1.919
 1073SOL    HW2 5910   1.321   4.589   1.809
 1074SOL     OW 5911   1.138   4.104   3.540
 1074SOL    HW1 5912   1.093   4.167   3.604
 1074SOL    HW2 5913   1.231   4.135   3.523
 1075SOL     OW 5914   1.160   3.931   3.339
 1075SOL    HW1 5915   1.160   3.995   3.416
 1075SOL    HW2 5916   1.188   3.979   3.256
 1076SOL     OW 5917   0.008   5.050   2.062
 1076SOL    HW1 5918  -0.085   5.071   2.031
 1076SOL    HW2 5919   0.018   4.951   2.075
 1077SOL     OW 5920   0.040   4.268   2.976
 1077SOL    HW1 5921   0.125   4.235   2.935
 1077SOL    HW2 5922   0.053   4.283   3.074
 1078SOL     OW 5923   0.189   4.244   3.584
 1078SOL    HW1 5924   0.248   4.204   3.514
 1078SOL    HW2 5925   0.131   4.315   3.543
 1079SOL     OW 5926   1.369   4.674   3.522
 1079SOL    HW1 5927   1.408   4.763   3.542
 1079SOL    HW2 5928   1.379   4.654   3.425
 1080SOL     OW 5929   0.815   4.296   2.187
 1080SOL    HW1 5930   0.822   4.207   2.141
 1080SOL    HW2 5931   0.721   4.330   2.179
 1081SOL     OW 5932   1.657   4.328   3.068
 1081SOL    HW1 5933   1.619   4.259   3.130
 1081SOL    HW2 5934   1.739   4.292   3.024
 1082SOL     OW 5935   0.671   4.188   3.131
 1082SOL    HW1 5936   0.637   4.099   3.101
 1082SOL    HW2 5937   0.697   4.242   3.051
 1083SOL     OW 5938   0.473   4.224   2.053
 1083SOL    HW1 5939   0.534   4.304   2.057
 1083SOL    HW2 5940   0.378   4.255   2.060
 1084SOL     OW 5941   0.159   4.861   3.328
 1084SOL    HW1 5942   0.181   4.800   3.404
 1084SOL    HW2 5943   0.169   4.812   3.242
 1085SOL     OW 5944   1.347   4.783   3.096
 1085SOL    HW1 5945   1.371   4.720   3.022
 1085SOL    HW2 5946   1.257   4.823   3.078
 1086SOL     OW 5947   1.302   4.579   2.171
 1086SOL    HW1 5948   1.216   4.548   2.213
 1086SOL    HW2 5949   1.298   4.565   2.072
 1087SOL     OW 5950   0.083   4.982   2.884
 1087SOL    HW1 5951   0.078   4.981   2.984
 1087SOL    HW2 5952   0.000   4.941   2.846
 1088SOL     OW 5953   1.280   4.651   2.534
 1088SOL    HW1 5954   1.340   4.570   2.536
 1088SOL    HW2 5955   1.320   4.720   2.474
 1089SOL     OW 5956   0.830   4.997   3.284
 1089SOL    HW1 5957   0.825   5.030   3.379
 1089SOL    HW2 5958   0.744   5.016   3.238
 1090SOL     OW 5959   1.194   5.336   1.893
 1090SOL    HW1 5960   1.200   5.243   1.930
 1090SOL    HW2 5961   1.135   5.336   1.813
 1091SOL     OW 5962   0.916   4.634   2.153
 1091SOL    HW1 5963   0.979   4.672   2.085
 1091SOL    HW2 5964   0.956   4.551   2.192
 1092SOL     OW 5965   1.614   5.016   3.151
 1092SOL    HW1 5966   1.674   5.019   3.231
 1092SOL    HW2 5967   1.539   5.080   3.164
 1093SOL     OW 5968   1.039   4.822   2.558
 1093SOL    HW1 5969   0.969   4.775   2.612
 1093SOL    HW2 5970   1.098   4.754   2.515
 1094SOL     OW 5971   1.014   3.960   2.833
 1094SOL    HW1 5972   1.006   3.924   2.740
 1094SOL    HW2 5973   1.012   3.884   2.898
 1095SOL     OW 5974   0.105   4.737   3.588
 1095SOL    HW1 5975   0.028   4.704   3.642
 1095SOL    HW2 5976   0.190   4.707   3.630
 1096SOL     OW 5977   0.672   3.927   3.351
 1096SOL    HW1 5978   0.762   3.911   3.311
 1096SOL    HW2 5979   0.680   3.932   3.450
 1097SOL     OW 5980   0.075   4.069   1.895
 1097SOL    HW1 5981  -0.017   4.041   1.866
 1097SOL    HW2 5982   0.106   4.146   1.839
 1098SOL     OW 5983   1.440   4.580   3.260
 1098SOL    HW1 5984   1.383   4.632   3.197
 1098SOL    HW2 5985   1.536   4.592   3.236
 1099SOL     OW 5986   0.072   3.890   2.180
 1099SOL    HW1 5987   0.055   3.973   2.126
 1099SOL    HW2 5988   0.162   3.853   2.158
 1100SOL     OW 5989   0.716   4.289   3.570
 1100SOL    HW1 5990   0.735   4.354   3.644
 1100SOL    HW2 5991   0.776   4.209   3.579
 1101SOL     OW 5992   1.450   4.944   3.495
 1101SOL    HW1 5993   1.441   4.934   3.594
 1101SOL    HW2 5994   1.546   4.937   3.469
 1102SOL     OW 5995   1.674   4.607   3.116
 1102SOL    HW1 5996   1.647   4.518   3.079
 1102SOL    HW2 5997   1.675   4.675   3.043
 1103SOL     OW 5998   1.225   4.049   2.311
 1103SOL    HW1 5999   1.290   3.975   2.300
 1103SOL    HW2 6000   1.245   4.099   2.395
 1104SOL     OW 6001   1.777   4.066   3.504
 1104SOL    HW1 6002   1.760   4.097   3.410
 1104SOL    HW2 6003   1.693   4.029   3.542
 1105SOL     OW 6004   1.083   4.708   1.949
 1105SOL    HW1 6005   1.060   4.761   1.867
 1105SOL    HW2 6006   1.164   4.652   1.930
 1106SOL     OW 6007   0.428   4.148   2.382
 1106SOL    HW1 6008   0.458   4.076   2.320
 1106SOL    HW2 6009   0.389   4.108   2.465
 1107SOL     OW 6010   0.317   4.271   3.142
 1107SOL    HW1 6011   0.355   4.212   3.214
 1107SOL    HW2 6012   0.357   4.245   3.054
 1108SOL     OW 6013   1.001   3.758   3.016
 1108SOL    HW1 6014   0.938   3.686   2.985
 1108SOL    HW2 6015   1.094   3.722   3.016
 1109SOL     OW 6016   0.770   5.054   2.163
 1109SOL    HW1 6017   0.724   4.967   2.180
 1109SOL    HW2 6018   0.861   5.051   2.204
 1110SOL     OW 6019   1.352   3.776   2.030
 1110SOL    HW1 6020   1.387   3.735   1.946
 1110SOL    HW2 6021   1.262   3.738   2.050
 1111SOL     OW 6022   1.300   4.177   2.553
 1111SOL    HW1 6023   1.241   4.257   2.557
 1111SOL    HW2 6024   1.315   4.142   2.646
 1112SOL     OW 6025   0.039   4.801   2.162
 1112SOL    HW1 6026   0.138   4.790   2.153
 1112SOL    HW2 6027  -0.001   4.715   2.194
 1113SOL     OW 6028   0.230   4.352   3.837
 1113SOL    HW1 6029   0.137   4.350   3.874
 1113SOL    HW2 6030   0.231   4.313   3.745
 1114SOL     OW 6031   0.225   3.999   4.720
 1114SOL    HW1 6032   0.260   3.982   4.812
 1114SOL    HW2 6033   0.137   3.954   4.708
 1115SOL     OW 6034   0.019   4.092   4.371
 1115SOL    HW1 6035  -0.063   4.135   4.410
 1115SOL    HW2 6036  -0.009   4.019   4.308
 1116SOL     OW 6037   0.569   4.999   4.889
 1116SOL    HW1 6038   0.476   4.992   4.852
 1116SOL    HW2 6039   0.580   5.088   4.933
 1117SOL     OW 6040   1.755   4.331   3.955
 1117SOL    HW1 6041   1.743   4.318   3.856
 1117SOL    HW2 6042   1.725   4.250   4.004
 1118SOL     OW 6043   0.768   4.868   4.747
 1118SOL    HW1 6044   0.690   4.885   4.807
 1118SOL    HW2 6045   0.802   4.955   4.711
 1119SOL     OW 6046   0.335   5.159   4.785
 1119SOL    HW1 6047   0.257   5.128   4.732
 1119SOL    HW2 6048   0.393   5.217   4.728
 1120SOL     OW 6049   1.603   4.171   4.461
 1120SOL    HW1 6050   1.529   4.217   4.411
 1120SOL    HW2 6051   1.654   4.239   4.514
 1121SOL     OW 6052   0.240   4.815   4.610
 1121SOL    HW1 6053   0.254   4.731   4.662
 1121SOL    HW2 6054   0.185   4.879   4.665
 1122SOL     OW 6055   0.606   4.688   3.847
 1122SOL    HW1 6056   0.613   4.772   3.793
 1122SOL    HW2 6057   0.652   4.701   3.935
 1123SOL     OW 6058   1.689   4.646   4.336
 1123SOL    HW1 6059   1.784   4.617   4.344
 1123SOL    HW2 6060   1.681   4.711   4.261
 1124SOL     OW 6061   1.641   4.832   4.156
 1124SOL    HW1 6062   1.727   4.834   4.104
 1124SOL    HW2 6063   1.655   4.879   4.244
 1125SOL     OW 6064   0.809   3.728   4.226
 1125SOL    HW1 6065   0.849   3.819   4.217
 1125SOL    HW2 6066   0.709   3.736   4.232
 1126SOL     OW 6067   0.197   4.700   4.988
 1126SOL    HW1 6068   0.286   4.655   4.974
 1126SOL    HW2 6069   0.124   4.635   4.969
 1127SOL     OW 6070   1.525   4.723   3.914
 1127SOL    HW1 6071   1.462   4.647   3.927
 1127SOL    HW2 6072   1.573   4.741   4.000
 1128SOL     OW 6073   1.281   4.069   4.668
 1128SOL    HW1 6074   1.195   4.019   4.655
 1128SOL    HW2 6075   1.343   4.015   4.724
 1129SOL     OW 6076   0.991   4.134   4.966
 1129SOL    HW1 6077   0.914   4.168   5.020
 1129SOL    HW2 6078   0.957   4.083   4.887
 1130SOL     OW 6079   0.865   4.072   3.919
 1130SOL    HW1 6080   0.924   4.135   3.870
 1130SOL    HW2 6081   0.884   3.978   3.890
 1131SOL     OW 6082   1.362   4.868   4.269
 1131SOL    HW1 6083   1.445   4.839   4.221
 1131SOL    HW2 6084   1.313   4.935   4.213
 1132SOL     OW 6085   0.550   3.920   4.609
 1132SOL    HW1 6086   0.545   3.915   4.709
 1132SOL    HW2 6087   0.552   4.016   4.580
 1133SOL     OW 6088   0.321   4.667   3.966
 1133SOL    HW1 6089   0.403   4.706   3.924
 1133SOL    HW2 6090   0.294   4.585   3.917
 1134SOL     OW 6091   1.458   4.459   4.452
 1134SOL    HW1 6092   1.453   4.394   4.527
 1134SOL    HW2 6093   1.538   4.518   4.465
 1135SOL     OW 6094   1.632   5.101   3.805
 1135SOL    HW1 6095   1.600   5.195   3.795
 1135SOL    HW2 6096   1.556   5.038   3.793
 1136SOL     OW 6097   1.400   3.831   4.150
 1136SOL    HW1 6098   1.376   3.794   4.060
 1136SOL    HW2 6099   1.499   3.847   4.154
 1137SOL     OW 6100   0.614   3.846   3.841
 1137SOL    HW1 6101   0.712   3.824   3.848
 1137SOL    HW2 6102   0.583   3.829   3.748
 1138SOL     OW 6103   0.803   5.126   4.648
 1138SOL    HW1 6104   0.893   5.140   4.606
 1138SOL    HW2 6105   0.732   5.128   4.577
 1139SOL     OW 6106   0.539   3.788   4.236
 1139SOL    HW1 6107   0.458   3.789   4.294
 1139SOL    HW2 6108   0.542   3.871   4.181
 1140SOL     OW 6109   1.434   4.912   3.765
 1140SOL    HW1 6110   1.466   4.836   3.822
 1140SOL    HW2 6111   1.342   4.939   3.795
 1141SOL     OW 6112   0.297   3.759   3.895
 1141SOL    HW1 6113   0.346   3.843   3.874
 1141SOL    HW2 6114   0.359   3.694   3.940
 1142SOL     OW 6115   0.935   3.960   4.204
 1142SOL    HW1 6116   0.887   4.001   4.126
 1142SOL    HW2 6117   1.034   3.958   4.185
 1143SOL     OW 6118   1.227   5.294   4.517
 1143SOL    HW1 6119   1.248   5.368   4.452
 1143SOL    HW2 6120   1.295   5.294   4.590
 1144SOL     OW 6121   0.459   4.876   4.465
 1144SOL    HW1 6122   0.388   4.849   4.530
 1144SOL    HW2 6123   0.433   4.848   4.372
 1145SOL     OW 6124   1.032   4.273   3.740
 1145SOL    HW1 6125   0.991   4.355   3.701
 1145SOL    HW2 6126   1.096   4.299   3.813
 1146SOL     OW 6127   0.561   3.946   4.871
 1146SOL    HW1 6128   0.599   3.862   4.908
 1146SOL    HW2 6129   0.473   3.965   4.915
 1147SOL     OW 6130   0.866   4.178   4.366
 1147SOL    HW1 6131   0.834   4.250   4.304
 1147SOL    HW2 6132   0.890   4.097   4.313
 1148SOL     OW 6133   1.017   3.763   4.477
 1148SOL    HW1 6134   0.945   3.768   4.408
 1148SOL    HW2 6135   0.993   3.694   4.546
 1149SOL     OW 6136   1.466   4.314   4.716
 1149SOL    HW1 6137   1.436   4.219   4.723
 1149SOL    HW2 6138   1.539   4.330   4.782
 1150SOL     OW 6139   1.390   4.299   3.802
 1150SOL    HW1 6140   1.336   4.278   3.883
 1150SOL    HW2 6141   1.481   4.258   3.811
 1151SOL     OW 6142   0.527   3.980   4.052
 1151SOL    HW1 6143   0.554   3.921   3.977
 1151SOL    HW2 6144   0.527   4.075   4.021
 1152SOL     OW 6145   0.410   4.537   4.975
 1152SOL    HW1 6146   0.496   4.549   5.025
 1152SOL    HW2 6147   0.368   4.450   5.002
 1153SOL     OW 6148   1.274   4.110   4.986
 1153SOL    HW1 6149   1.295   4.184   5.050
 1153SOL    HW2 6150   1.185   4.127   4.943
 1154SOL     OW 6151   0.367   4.824   4.225
 1154SOL    HW1 6152   0.360   4.907   4.169
 1154SOL    HW2 6153   0.371   4.744   4.165
 1155SOL     OW 6154   1.582   4.363   4.196
 1155SOL    HW1 6155   1.551   4.424   4.269
 1155SOL    HW2 6156   1.632   4.415   4.127
 1156SOL     OW 6157   0.573   4.594   4.753
 1156SOL    HW1 6158   0.617   4.683   4.744
 1156SOL    HW2 6159   0.510   4.594   4.830
 1157SOL     OW 6160   1.360   4.586   4.769
 1157SOL    HW1 6161   1.285   4.586   4.703
 1157SOL    HW2 6162   1.397   4.494   4.778
 1158SOL     OW 6163   1.209   4.249   3.999
 1158SOL    HW1 6164   1.222   4.165   4.053
 1158SOL    HW2 6165   1.180   4.323   4.059
 1159SOL     OW 6166   0.307   3.937   4.955
 1159SOL    HW1 6167   0.284   3.974   5.045
 1159SOL    HW2 6168   0.277   3.842   4.949
 1160SOL     OW 6169   0.037   5.034   5.006
 1160SOL    HW1 6170   0.090   4.985   5.074
 1160SOL    HW2 6171   0.059   5.132   5.011
 1161SOL     OW 6172   0.307   3.787   4.342
 1161SOL    HW1 6173   0.296   3.881   4.375
 1161SOL    HW2 6174   0.302   3.724   4.419
 1162SOL     OW 6175   1.622   4.091   4.098
 1162SOL    HW1 6176   1.624   4.015   4.162
 1162SOL    HW2 6177   1.574   4.168   4.138
 1163SOL     OW 6178   1.540   3.998   3.849
 1163SOL    HW1 6179   1.479   3.923   3.872
 1163SOL    HW2 6180   1.562   4.050   3.932
 1164SOL     OW 6181   1.303   4.562   3.766
 1164SOL    HW1 6182   1.337   4.469   3.781
 1164SOL    HW2 6183   1.321   4.589   3.671
 1165SOL     OW 6184   0.319   4.534   4.673
 1165SOL    HW1 6185   0.412   4.570   4.678
 1165SOL    HW2 6186   0.313   4.449   4.725
 1166SOL     OW 6187   0.339   4.233   4.730
 1166SOL    HW1 6188   0.287   4.150   4.713
 1166SOL    HW2 6189   0.416   4.238   4.666
 1167SOL     OW 6190   1.160   3.931   5.201
 1167SOL    HW1 6191   1.160   3.995   5.278
 1167SOL    HW2 6192   1.188   3.979   5.118
 1168SOL     OW 6193   0.008   5.050   3.924
 1168SOL    HW1 6194  -0.085   5.071   3.893
 1168SOL    HW2 6195   0.018   4.951   3.937
 1169SOL     OW 6196   1.002   4.520   4.962
 1169SOL    HW1 6197   1.043   4.488   5.048
 1169SOL    HW2 6198   0.906   4.493   4.959
 1170SOL     OW 6199   0.040   4.268   4.838
 1170SOL    HW1 6200   0.125   4.235   4.797
 1170SOL    HW2 6201   0.053   4.283   4.936
 1171SOL     OW 6202   1.657   4.328   4.930
 1171SOL    HW1 6203   1.619   4.259   4.992
 1171SOL    HW2 6204   1.739   4.292   4.886
 1172SOL     OW 6205   0.671   4.188   4.993
 1172SOL    HW1 6206   0.637   4.099   4.963
 1172SOL    HW2 6207   0.697   4.242   4.913
 1173SOL     OW 6208   0.473   4.224   3.915
 1173SOL    HW1 6209   0.534   4.304   3.919
 1173SOL    HW2 6210   0.378   4.255   3.922
 1174SOL     OW 6211   1.347   4.783   4.958
 1174SOL    HW1 6212   1.371   4.720   4.884
 1174SOL    HW2 6213   1.257   4.823   4.940
 1175SOL     OW 6214   1.302   4.579   4.033
 1175SOL    HW1 6215   1.216   4.548   4.075
 1175SOL    HW2 6216   1.298   4.565   3.934
 1176SOL     OW 6217   0.083   4.982   4.746
 1176SOL    HW1 6218   0.078   4.981   4.846
 1176SOL    HW2 6219   0.000   4.941   4.708
 1177SOL     OW 6220   1.280   4.651   4.396
 1177SOL    HW1 6221   1.340   4.570   4.398
 1177SOL    HW2 6222   1.320   4.720   4.336
 1178SOL     OW 6223   0.830   4.997   5.146
 1178SOL    HW1 6224   0.825   5.030   5.241
 1178SOL    HW2 6225   0.744   5.016   5.100
 1179SOL     OW 6226   1.841   3.899   4.687
 1179SOL    HW1 6227   1.880   3.814   4.651
 1179SOL    HW2 6228   1.743   3.901   4.668
 1180SOL     OW 6229   0.263   4.050   4.444
 1180SOL    HW1 6230   0.184   4.101   4.410
 1180SOL    HW2 6231   0.254   4.035   4.542
 1181SOL     OW 6232   1.194   5.336   3.755
 1181SOL    HW1 6233   1.200   5.243   3.792
 1181SOL    HW2 6234   1.135   5.336   3.675
 1182SOL     OW 6235   0.822   4.726   5.096
 1182SOL    HW1 6236   0.862   4.725   5.004
 1182SOL    HW2 6237   0.832   4.818   5.136
 1183SOL     OW 6238   1.039   4.822   4.420
 1183SOL    HW1 6239   0.969   4.775   4.474
 1183SOL    HW2 6240   1.098   4.754   4.377
 1184SOL     OW 6241   1.014   3.960   4.695
 1184SOL    HW1 6242   1.006   3.924   4.602
 1184SOL    HW2 6243   1.012   3.884   4.760
 1185SOL     OW 6244   0.075   4.069   3.757
 1185SOL    HW1 6245  -0.017   4.041   3.728
 1185SOL    HW2 6246   0.106   4.146   3.701
 1186SOL     OW 6247   0.072   3.890   4.042
 1186SOL    HW1 6248   0.055   3.973   3.988
 1186SOL    HW2 6249   0.162   3.853   4.020
 1187SOL     OW 6250   1.450   4.944   5.357
 1187SOL    HW1 6251   1.441   4.934   5.456
 1187SOL    HW2 6252   1.546   4.937   5.331
 1188SOL     OW 6253   1.225   4.049   4.173
 1188SOL    HW1 6254   1.290   3.975   4.162
 1188SOL    HW2 6255   1.245   4.099   4.257
 1189SOL     OW 6256   1.730   4.658   5.241
 1189SOL    HW1 6257   1.768   4.749   5.256
 1189SOL    HW2 6258   1.722   4.641   5.142
 1190SOL     OW 6259   0.859   4.680   4.585
 1190SOL    HW1 6260   0.913   4.611   4.633
 1190SOL    HW2 6261   0.827   4.749   4.651
 1191SOL     OW 6262   1.083   4.708   3.811
 1191SOL    HW1 6263   1.060   4.761   3.729
 1191SOL    HW2 6264   1.164   4.652   3.792
 1192SOL     OW 6265   1.824   3.916   4.951
 1192SOL    HW1 6266   1.820   3.826   4.995
 1192SOL    HW2 6267   1.827   3.905   4.852
 1193SOL     OW 6268   0.428   4.148   4.244
 1193SOL    HW1 6269   0.458   4.076   4.182
 1193SOL    HW2 6270   0.389   4.108   4.327
 1194SOL     OW 6271   1.424   3.938   4.836
 1194SOL    HW1 6272   1.476   3.873   4.891
 1194SOL    HW2 6273   1.375   4.001   4.897
 1195SOL     OW 6274   1.001   3.758   4.878
 1195SOL    HW1 6275   0.938   3.686   4.847
 1195SOL    HW2 6276   1.094   3.722   4.878
 1196SOL     OW 6277   0.770   5.054   4.025
 1196SOL    HW1 6278   0.724   4.967   4.042
 1196SOL    HW2 6279   0.861   5.051   4.066
 1197SOL     OW 6280   1.352   3.776   3.892
 1197SOL    HW1 6281   1.387   3.735   3.808
 1197SOL    HW2 6282   1.262   3.738   3.912
 1198SOL     OW 6283   1.300   4.177   4.415
 1198SOL    HW1 6284   1.241   4.257   4.419
 1198SOL    HW2 6285   1.315   4.142   4.508
 1199SOL     OW 6286   1.593   3.945   4.606
 1199SOL    HW1 6287   1.509   3.944   4.660
 1199SOL    HW2 6288   1.595   4.028   4.550
 1200SOL     OW 6289   0.039   4.801   4.024
 1200SOL    HW1 6290   0.138   4.790   4.015
 1200SOL    HW2 6291  -0.001   4.715   4.056
 1201SOL     OW 6292   2.087   0.275   0.996
 1201SOL    HW1 6293   2.122   0.258   1.088
 1201SOL    HW2 6294   1.999   0.230   0.984
 1202SOL     OW 6295   1.881   0.368   0.647
 1202SOL    HW1 6296   1.799   0.411   0.686
 1202SOL    HW2 6297   1.853   0.295   0.584
 1203SOL     OW 6298   2.431   1.275   1.165
 1203SOL    HW1 6299   2.338   1.268   1.128
 1203SOL    HW2 6300   2.442   1.364   1.209
 1204SOL     OW 6301   3.417   1.511   0.703
 1204SOL    HW1 6302   3.360   1.495   0.784
 1204SOL    HW2 6303   3.358   1.521   0.623
 1205SOL     OW 6304   2.997   0.703   0.717
 1205SOL    HW1 6305   3.054   0.781   0.692
 1205SOL    HW2 6306   2.937   0.729   0.793
 1206SOL     OW 6307   3.617   0.607   0.231
 1206SOL    HW1 6308   3.605   0.594   0.132
 1206SOL    HW2 6309   3.587   0.526   0.280
 1207SOL     OW 6310   2.630   1.144   1.023
 1207SOL    HW1 6311   2.552   1.161   1.083
 1207SOL    HW2 6312   2.664   1.231   0.987
 1208SOL     OW 6313   2.712   0.798   1.823
 1208SOL    HW1 6314   2.708   0.874   1.888
 1208SOL    HW2 6315   2.734   0.834   1.732
 1209SOL     OW 6316   2.547   1.012   0.665
 1209SOL    HW1 6317   2.616   0.996   0.735
 1209SOL    HW2 6318   2.474   1.069   0.703
 1210SOL     OW 6319   2.548   1.161   1.803
 1210SOL    HW1 6320   2.608   1.240   1.817
 1210SOL    HW2 6321   2.462   1.192   1.762
 1211SOL     OW 6322   3.322   1.505   1.339
 1211SOL    HW1 6323   3.346   1.599   1.365
 1211SOL    HW2 6324   3.306   1.451   1.421
 1212SOL     OW 6325   3.465   0.447   0.737
 1212SOL    HW1 6326   3.391   0.493   0.687
 1212SOL    HW2 6327   3.516   0.515   0.790
 1213SOL     OW 6328   2.093   1.713   0.483
 1213SOL    HW1 6329   2.127   1.790   0.537
 1213SOL    HW2 6330   2.137   1.713   0.393
 1214SOL     OW 6331   2.989   1.341   1.690
 1214SOL    HW1 6332   3.036   1.341   1.778
 1214SOL    HW2 6333   2.941   1.254   1.679
 1215SOL     OW 6334   2.092   1.434   0.538
 1215SOL    HW1 6335   2.066   1.530   0.538
 1215SOL    HW2 6336   2.021   1.380   0.583
 1216SOL     OW 6337   2.102   1.091   0.886
 1216SOL    HW1 6338   2.116   1.007   0.938
 1216SOL    HW2 6339   2.047   1.155   0.941
 1217SOL     OW 6340   1.984   0.643   0.563
 1217SOL    HW1 6341   1.939   0.555   0.580
 1217SOL    HW2 6342   1.983   0.697   0.647
 1218SOL     OW 6343   3.704   1.767   0.359
 1218SOL    HW1 6344   3.758   1.738   0.439
 1218SOL    HW2 6345   3.734   1.857   0.330
 1219SOL     OW 6346   3.551   0.922   0.612
 1219SOL    HW1 6347   3.646   0.893   0.620
 1219SOL    HW2 6348   3.543   0.987   0.537
 1220SOL     OW 6349   3.503   1.108   0.432
 1220SOL    HW1 6350   3.589   1.110   0.380
 1220SOL    HW2 6351   3.517   1.155   0.520
 1221SOL     OW 6352   1.975   0.737   1.597
 1221SOL    HW1 6353   2.063   0.724   1.642
 1221SOL    HW2 6354   1.962   0.834   1.575
 1222SOL     OW 6355   3.155   1.228   1.423
 1222SOL    HW1 6356   3.192   1.155   1.365
 1222SOL    HW2 6357   3.207   1.233   1.508
 1223SOL     OW 6358   2.059   0.976   1.264
 1223SOL    HW1 6359   2.148   0.931   1.250
 1223SOL    HW2 6360   1.986   0.911   1.245
 1224SOL     OW 6361   3.387   0.999   0.190
 1224SOL    HW1 6362   3.324   0.923   0.203
 1224SOL    HW2 6363   3.435   1.017   0.276
 1225SOL     OW 6364   3.049   1.792   1.616
 1225SOL    HW1 6365   3.073   1.852   1.540
 1225SOL    HW2 6366   3.056   1.697   1.586
 1226SOL     OW 6367   3.328   1.417   0.953
 1226SOL    HW1 6368   3.269   1.423   1.033
 1226SOL    HW2 6369   3.313   1.329   0.907
 1227SOL     OW 6370   3.529   1.714   0.572
 1227SOL    HW1 6371   3.488   1.691   0.484
 1227SOL    HW2 6372   3.511   1.640   0.637
 1228SOL     OW 6373   2.460   0.729   0.270
 1228SOL    HW1 6374   2.484   0.798   0.202
 1228SOL    HW2 6375   2.382   0.762   0.324
 1229SOL     OW 6376   3.143   0.345   0.944
 1229SOL    HW1 6377   3.057   0.295   0.931
 1229SOL    HW2 6378   3.205   0.291   1.000
 1230SOL     OW 6379   3.438   1.662   0.307
 1230SOL    HW1 6380   3.527   1.708   0.310
 1230SOL    HW2 6381   3.417   1.638   0.212
 1231SOL     OW 6382   2.669   0.605   1.465
 1231SOL    HW1 6383   2.622   0.602   1.554
 1231SOL    HW2 6384   2.618   0.550   1.399
 1232SOL     OW 6385   2.835   0.890   1.572
 1232SOL    HW1 6386   2.881   0.806   1.543
 1232SOL    HW2 6387   2.779   0.924   1.497
 1233SOL     OW 6388   2.853   0.410   1.242
 1233SOL    HW1 6389   2.776   0.444   1.296
 1233SOL    HW2 6390   2.819   0.359   1.163
 1234SOL     OW 6391   2.903   0.701   0.429
 1234SOL    HW1 6392   2.929   0.697   0.525
 1234SOL    HW2 6393   2.818   0.650   0.415
 1235SOL     OW 6394   1.938   0.811   0.789
 1235SOL    HW1 6395   2.037   0.799   0.798
 1235SOL    HW2 6396   1.914   0.906   0.810
 1236SOL     OW 6397   1.992   1.821   1.571
 1236SOL    HW1 6398   1.982   1.806   1.670
 1236SOL    HW2 6399   1.906   1.857   1.535
 1237SOL     OW 6400   2.727   0.348   0.195
 1237SOL    HW1 6401   2.786   0.411   0.146
 1237SOL    HW2 6402   2.746   0.254   0.166
 1238SOL     OW 6403   3.581   0.585   1.831
 1238SOL    HW1 6404   3.555   0.674   1.795
 1238SOL    HW2 6405   3.579   0.517   1.758
 1239SOL     OW 6406   3.224   1.144   0.545
 1239SOL    HW1 6407   3.307   1.115   0.497
 1239SOL    HW2 6408   3.175   1.211   0.489
 1240SOL     OW 6409   2.412   0.196   0.885
 1240SOL    HW1 6410   2.407   0.191   0.985
 1240SOL    HW2 6411   2.414   0.292   0.856
 1241SOL     OW 6412   2.870   1.456   0.477
 1241SOL    HW1 6413   2.824   1.528   0.425
 1241SOL    HW2 6414   2.866   1.476   0.575
 1242SOL     OW 6415   3.657   1.066   0.873
 1242SOL    HW1 6416   3.595   1.051   0.797
 1242SOL    HW2 6417   3.605   1.077   0.958
 1243SOL     OW 6418   3.089   1.550   1.506
 1243SOL    HW1 6419   3.095   1.473   1.570
 1243SOL    HW2 6420   3.037   1.524   1.426
 1244SOL     OW 6421   3.320   0.735   0.728
 1244SOL    HW1 6422   3.315   0.670   0.803
 1244SOL    HW2 6423   3.400   0.794   0.741
 1245SOL     OW 6424   2.323   1.266   1.727
 1245SOL    HW1 6425   2.273   1.267   1.641
 1245SOL    HW2 6426   2.260   1.248   1.803
 1246SOL     OW 6427   2.973   1.776   0.237
 1246SOL    HW1 6428   2.913   1.714   0.287
 1246SOL    HW2 6429   3.004   1.732   0.152
 1247SOL     OW 6430   2.064   0.285   1.498
 1247SOL    HW1 6431   1.984   0.345   1.485
 1247SOL    HW2 6432   2.054   0.236   1.584
 1248SOL     OW 6433   3.494   1.377   0.081
 1248SOL    HW1 6434   3.462   1.471   0.071
 1248SOL    HW2 6435   3.418   1.314   0.069
 1249SOL     OW 6436   2.326   1.743   0.323
 1249SOL    HW1 6437   2.359   1.782   0.409
 1249SOL    HW2 6438   2.402   1.736   0.258
 1250SOL     OW 6439   3.262   0.107   0.426
 1250SOL    HW1 6440   3.238   0.070   0.336
 1250SOL    HW2 6441   3.361   0.123   0.430
 1251SOL     OW 6442   2.111   1.785   1.241
 1251SOL    HW1 6443   2.168   1.720   1.291
 1251SOL    HW2 6444   2.095   1.752   1.148
 1252SOL     OW 6445   2.244   0.700   0.480
 1252SOL    HW1 6446   2.289   0.610   0.477
 1252SOL    HW2 6447   2.150   0.689   0.513
 1253SOL     OW 6448   2.476   0.122   0.117
 1253SOL    HW1 6449   2.574   0.100   0.124
 1253SOL    HW2 6450   2.445   0.105   0.024
 1254SOL     OW 6451   2.643   0.264   1.749
 1254SOL    HW1 6452   2.710   0.203   1.792
 1254SOL    HW2 6453   2.570   0.283   1.814
 1255SOL     OW 6454   2.784   0.503   0.899
 1255SOL    HW1 6455   2.759   0.494   0.803
 1255SOL    HW2 6456   2.832   0.421   0.930
 1256SOL     OW 6457   3.296   1.188   0.041
 1256SOL    HW1 6458   3.328   1.112   0.098
 1256SOL    HW2 6459   3.204   1.215   0.071
 1257SOL     OW 6460   2.159   0.035   0.171
 1257SOL    HW1 6461   2.208   0.119   0.150
 1257SOL    HW2 6462   2.221  -0.030   0.216
 1258SOL     OW 6463   2.797   0.236   0.480
 1258SOL    HW1 6464   2.749   0.277   0.402
 1258SOL    HW2 6465   2.896   0.234   0.461
 1259SOL     OW 6466   2.321   1.152   0.741
 1259SOL    HW1 6467   2.250   1.125   0.806
 1259SOL    HW2 6468   2.295   1.124   0.648
 1260SOL     OW 6469   3.133   1.797   0.591
 1260SOL    HW1 6470   3.177   1.861   0.527
 1260SOL    HW2 6471   3.083   1.849   0.661
 1261SOL     OW 6472   2.894   0.549   0.016
 1261SOL    HW1 6473   2.853   0.631  -0.023
 1261SOL    HW2 6474   2.958   0.575   0.089
 1262SOL     OW 6475   1.940   0.556   1.386
 1262SOL    HW1 6476   2.032   0.555   1.345
 1262SOL    HW2 6477   1.934   0.630   1.453
 1263SOL     OW 6478   2.423   0.222   1.147
 1263SOL    HW1 6479   2.461   0.138   1.184
 1263SOL    HW2 6480   2.335   0.241   1.191
 1264SOL     OW 6481   2.728   0.454   0.642
 1264SOL    HW1 6482   2.696   0.526   0.580
 1264SOL    HW2 6483   2.752   0.373   0.589
 1265SOL     OW 6484   2.879   0.039   0.753
 1265SOL    HW1 6485   2.807   0.044   0.684
 1265SOL    HW2 6486   2.855  -0.030   0.822
 1266SOL     OW 6487   3.291   1.173   0.867
 1266SOL    HW1 6488   3.236   1.089   0.860
 1266SOL    HW2 6489   3.317   1.202   0.775
 1267SOL     OW 6490   3.328   0.590   0.992
 1267SOL    HW1 6491   3.298   0.495   0.999
 1267SOL    HW2 6492   3.401   0.606   1.058
 1268SOL     OW 6493   3.719   0.833   0.377
 1268SOL    HW1 6494   3.761   0.769   0.441
 1268SOL    HW2 6495   3.681   0.782   0.299
 1269SOL     OW 6496   2.350   1.385   0.174
 1269SOL    HW1 6497   2.263   1.370   0.221
 1269SOL    HW2 6498   2.333   1.411   0.079
 1270SOL     OW 6499   3.526   1.280   0.657
 1270SOL    HW1 6500   3.625   1.288   0.671
 1270SOL    HW2 6501   3.481   1.364   0.688
 1271SOL     OW 6502   3.252   0.575   0.078
 1271SOL    HW1 6503   3.198   0.554   0.159
 1271SOL    HW2 6504   3.343   0.534   0.087
 1272SOL     OW 6505   2.389   0.256   0.328
 1272SOL    HW1 6506   2.416   0.197   0.253
 1272SOL    HW2 6507   2.389   0.351   0.297
 1273SOL     OW 6508   3.454   1.629   1.625
 1273SOL    HW1 6509   3.481   1.663   1.535
 1273SOL    HW2 6510   3.533   1.591   1.671
 1274SOL     OW 6511   3.500   1.099   1.079
 1274SOL    HW1 6512   3.505   1.180   1.138
 1274SOL    HW2 6513   3.414   1.101   1.028
 1275SOL     OW 6514   2.777   0.089   1.402
 1275SOL    HW1 6515   2.802   0.069   1.307
 1275SOL    HW2 6516   2.849   0.145   1.444
 1276SOL     OW 6517   2.842   1.116   1.719
 1276SOL    HW1 6518   2.743   1.122   1.729
 1276SOL    HW2 6519   2.865   1.036   1.663
 1277SOL     OW 6520   1.926   1.564   1.331
 1277SOL    HW1 6521   1.880   1.646   1.297
 1277SOL    HW2 6522   2.024   1.583   1.340
 1278SOL     OW 6523   2.229   1.100   0.501
 1278SOL    HW1 6524   2.222   1.183   0.445
 1278SOL    HW2 6525   2.233   1.020   0.441
 1279SOL     OW 6526   3.114   1.348   0.388
 1279SOL    HW1 6527   3.164   1.425   0.428
 1279SOL    HW2 6528   3.019   1.350   0.420
 1280SOL     OW 6529   3.444   0.639   0.472
 1280SOL    HW1 6530   3.413   0.700   0.545
 1280SOL    HW2 6531   3.494   0.691   0.403
 1281SOL     OW 6532   2.216   1.510   1.329
 1281SOL    HW1 6533   2.195   1.466   1.242
 1281SOL    HW2 6534   2.313   1.536   1.332
 1282SOL     OW 6535   3.449   0.779   1.670
 1282SOL    HW1 6536   3.357   0.817   1.665
 1282SOL    HW2 6537   3.509   0.826   1.605
 1283SOL     OW 6538   2.875   0.105   1.770
 1283SOL    HW1 6539   2.881   0.190   1.718
 1283SOL    HW2 6540   2.907   0.029   1.713
 1284SOL     OW 6541   3.222   0.862   1.045
 1284SOL    HW1 6542   3.147   0.862   0.979
 1284SOL    HW2 6543   3.259   0.770   1.054
 1285SOL     OW 6544   3.071   0.525   0.275
 1285SOL    HW1 6545   3.084   0.441   0.329
 1285SOL    HW2 6546   3.042   0.599   0.335
 1286SOL     OW 6547   2.169   0.213   1.231
 1286SOL    HW1 6548   2.146   0.250   1.321
 1286SOL    HW2 6549   2.139   0.118   1.225
 1287SOL     OW 6550   2.169   0.063   0.618
 1287SOL    HW1 6551   2.158   0.157   0.651
 1287SOL    HW2 6552   2.164   0.000   0.695
 1288SOL     OW 6553   3.484   0.367   0.374
 1288SOL    HW1 6554   3.486   0.291   0.438
 1288SOL    HW2 6555   3.436   0.444   0.414
 1289SOL     OW 6556   2.885   0.766   0.966
 1289SOL    HW1 6557   2.900   0.787   1.062
 1289SOL    HW2 6558   2.855   0.671   0.957
 1290SOL     OW 6559   2.842   1.573   1.700
 1290SOL    HW1 6560   2.822   1.617   1.612
 1290SOL    HW2 6561   2.881   1.482   1.684
 1291SOL     OW 6562   3.721   1.518   1.605
 1291SOL    HW1 6563   3.735   1.545   1.510
 1291SOL    HW2 6564   3.804   1.540   1.658
 1292SOL     OW 6565   2.212   0.898   1.804
 1292SOL    HW1 6566   2.288   0.942   1.852
 1292SOL    HW2 6567   2.247   0.851   1.722
 1293SOL     OW 6568   3.402   0.274   0.125
 1293SOL    HW1 6569   3.341   0.199   0.148
 1293SOL    HW2 6570   3.424   0.326   0.208
 1294SOL     OW 6571   3.165   0.838   0.042
 1294SOL    HW1 6572   3.199   0.745   0.057
 1294SOL    HW2 6573   3.183   0.865  -0.053
 1295SOL     OW 6574   2.930   1.333   0.849
 1295SOL    HW1 6575   2.937   1.249   0.794
 1295SOL    HW2 6576   2.992   1.402   0.813
 1296SOL     OW 6577   2.181   0.810   0.949
 1296SOL    HW1 6578   2.274   0.846   0.954
 1296SOL    HW2 6579   2.175   0.725   1.001
 1297SOL     OW 6580   2.201   0.509   1.006
 1297SOL    HW1 6581   2.149   0.426   0.989
 1297SOL    HW2 6582   2.278   0.514   0.942
 1298SOL     OW 6583   3.000   0.380   1.678
 1298SOL    HW1 6584   2.955   0.443   1.742
 1298SOL    HW2 6585   3.093   0.411   1.661
 1299SOL     OW 6586   2.864   0.796   1.238
 1299SOL    HW1 6587   2.905   0.764   1.324
 1299SOL    HW2 6588   2.768   0.769   1.235
 1300SOL     OW 6589   1.902   0.544   1.114
 1300SOL    HW1 6590   1.987   0.511   1.073
 1300SOL    HW2 6591   1.915   0.559   1.212
 1301SOL     OW 6592   2.051   0.520   1.722
 1301SOL    HW1 6593   2.110   0.480   1.652
 1301SOL    HW2 6594   1.993   0.591   1.681
 1302SOL     OW 6595   3.231   0.950   1.660
 1302SOL    HW1 6596   3.270   1.039   1.680
 1302SOL    HW2 6597   3.241   0.930   1.563
 1303SOL     OW 6598   2.677   0.572   0.325
 1303SOL    HW1 6599   2.684   0.483   0.279
 1303SOL    HW2 6600   2.583   0.606   0.317
 1304SOL     OW 6601   3.519   0.604   1.206
 1304SOL    HW1 6602   3.481   0.535   1.268
 1304SOL    HW2 6603   3.601   0.568   1.162
 1305SOL     OW 6604   2.114   1.564   1.744
 1305SOL    HW1 6605   2.084   1.621   1.820
 1305SOL    HW2 6606   2.107   1.467   1.770
 1306SOL     OW 6607   2.792   1.678   1.465
 1306SOL    HW1 6608   2.768   1.660   1.370
 1306SOL    HW2 6609   2.822   1.772   1.475
 1307SOL     OW 6610   2.335   0.500   0.191
 1307SOL    HW1 6611   2.396   0.580   0.195
 1307SOL    HW2 6612   2.240   0.531   0.198
 1308SOL     OW 6613   2.021   1.137   1.466
 1308SOL    HW1 6614   2.043   1.076   1.542
 1308SOL    HW2 6615   2.031   1.088   1.380
 1309SOL     OW 6616   3.209   1.059   1.234
 1309SOL    HW1 6617   3.233   0.996   1.160
 1309SOL    HW2 6618   3.119   1.099   1.216
 1310SOL     OW 6619   3.164   0.855   0.309
 1310SOL    HW1 6620   3.078   0.824   0.351
 1310SOL    HW2 6621   3.160   0.841   0.210
 1311SOL     OW 6622   3.621   1.747   1.154
 1311SOL    HW1 6623   3.682   1.777   1.081
 1311SOL    HW2 6624   3.583   1.658   1.132
 1312SOL     OW 6625   3.114   1.731   1.128
 1312SOL    HW1 6626   3.198   1.736   1.074
 1312SOL    HW2 6627   3.091   1.635   1.146
 1313SOL     OW 6628   1.945   1.258   1.022
 1313SOL    HW1 6629   1.940   1.257   1.122
 1313SOL    HW2 6630   1.862   1.217   0.984
 1314SOL     OW 6631   2.765   0.086   0.133
 1314SOL    HW1 6632   2.816   0.087   0.047
 1314SOL    HW2 6633   2.821   0.044   0.204
 1315SOL     OW 6634   3.588   0.135   0.523
 1315SOL    HW1 6635   3.661   0.118   0.456
 1315SOL    HW2 6636   3.557   0.048   0.561
 1316SOL     OW 6637   3.250   1.573   0.477
 1316SOL    HW1 6638   3.317   1.585   0.403
 1316SOL    HW2 6639   3.210   1.662   0.500
 1317SOL     OW 6640   1.992   1.794   1.851
 1317SOL    HW1 6641   1.951   1.720   1.904
 1317SOL    HW2 6642   2.056   1.845   1.909
 1318SOL     OW 6643   3.142   0.927   0.672
 1318SOL    HW1 6644   3.202   0.846   0.674
 1318SOL    HW2 6645   3.182   0.996   0.612
 1319SOL     OW 6646   2.534   1.616   0.154
 1319SOL    HW1 6647   2.543   1.626   0.055
 1319SOL    HW2 6648   2.494   1.527   0.175
 1320SOL     OW 6649   3.512   1.720   1.394
 1320SOL    HW1 6650   3.565   1.730   1.310
 1320SOL    HW2 6651   3.485   1.810   1.428
 1321SOL     OW 6652   3.703   0.175   0.963
 1321SOL    HW1 6653   3.742   0.090   0.927
 1321SOL    HW2 6654   3.605   0.177   0.944
 1322SOL     OW 6655   2.125   0.326   0.720
 1322SOL    HW1 6656   2.046   0.377   0.686
 1322SOL    HW2 6657   2.116   0.311   0.818
 1323SOL     OW 6658   3.056   1.612   0.031
 1323SOL    HW1 6659   3.062   1.519   0.068
 1323SOL    HW2 6660   2.997   1.612  -0.049
 1324SOL     OW 6661   2.684   1.002   1.372
 1324SOL    HW1 6662   2.724   1.001   1.280
 1324SOL    HW2 6663   2.694   1.094   1.412
 1325SOL     OW 6664   2.778   0.910   0.291
 1325SOL    HW1 6665   2.841   0.948   0.223
 1325SOL    HW2 6666   2.818   0.827   0.330
 1326SOL     OW 6667   3.366   1.607   0.044
 1326SOL    HW1 6668   3.274   1.644   0.051
 1326SOL    HW2 6669   3.404   1.627  -0.046
 1327SOL     OW 6670   2.234   1.288   1.490
 1327SOL    HW1 6671   2.221   1.381   1.456
 1327SOL    HW2 6672   2.150   1.236   1.477
 1328SOL     OW 6673   3.476   1.292   1.289
 1328SOL    HW1 6674   3.536   1.295   1.369
 1328SOL    HW2 6675   3.401   1.356   1.302
 1329SOL     OW 6676   2.901   1.098   0.696
 1329SOL    HW1 6677   2.831   1.051   0.750
 1329SOL    HW2 6678   2.960   1.030   0.653
 1330SOL     OW 6679   2.876   0.236   0.971
 1330SOL    HW1 6680   2.868   0.200   0.878
 1330SOL    HW2 6681   2.874   0.160   1.036
 1331SOL     OW 6682   2.452   1.487   0.491
 1331SOL    HW1 6683   2.494   1.429   0.421
 1331SOL    HW2 6684   2.408   1.566   0.447
 1332SOL     OW 6685   2.117   1.348   0.290
 1332SOL    HW1 6686   2.021   1.349   0.263
 1332SOL    HW2 6687   2.129   1.401   0.374
 1333SOL     OW 6688   1.967   1.013   1.726
 1333SOL    HW1 6689   1.890   0.980   1.780
 1333SOL    HW2 6690   2.052   0.983   1.768
 1334SOL     OW 6691   2.534   0.203   1.489
 1334SOL    HW1 6692   2.624   0.187   1.449
 1334SOL    HW2 6693   2.542   0.208   1.588
 1335SOL     OW 6694   3.302   0.856   1.398
 1335SOL    HW1 6695   3.245   0.908   1.335
 1335SOL    HW2 6696   3.398   0.868   1.374
 1336SOL     OW 6697   1.934   0.166   0.318
 1336SOL    HW1 6698   1.917   0.249   0.264
 1336SOL    HW2 6699   2.024   0.129   0.296
 1337SOL     OW 6700   3.045   1.335   0.119
 1337SOL    HW1 6701   2.946   1.324   0.121
 1337SOL    HW2 6702   3.079   1.350   0.212
 1338SOL     OW 6703   3.355   1.767   0.959
 1338SOL    HW1 6704   3.388   1.831   0.890
 1338SOL    HW2 6705   3.421   1.761   1.034
 1339SOL     OW 6706   2.578   0.565   1.708
 1339SOL    HW1 6707   2.597   0.630   1.782
 1339SOL    HW2 6708   2.638   0.485   1.717
 1340SOL     OW 6709   3.312   1.220   1.633
 1340SOL    HW1 6710   3.303   1.210   1.732
 1340SOL    HW2 6711   3.408   1.213   1.607
 1341SOL     OW 6712   2.252   1.741   1.560
 1341SOL    HW1 6713   2.161   1.782   1.558
 1341SOL    HW2 6714   2.245   1.647   1.592
 1342SOL     OW 6715   3.536   0.883   1.254
 1342SOL    HW1 6716   3.509   0.794   1.217
 1342SOL    HW2 6717   3.537   0.951   1.181
 1343SOL     OW 6718   3.087   0.325   0.449
 1343SOL    HW1 6719   3.152   0.251   0.438
 1343SOL    HW2 6720   3.107   0.375   0.533
 1344SOL     OW 6721   2.456   0.745   0.652
 1344SOL    HW1 6722   2.506   0.830   0.633
 1344SOL    HW2 6723   2.368   0.747   0.604
 1345SOL     OW 6724   2.721   1.374   0.016
 1345SOL    HW1 6725   2.675   1.389   0.104
 1345SOL    HW2 6726   2.765   1.459  -0.014
 1346SOL     OW 6727   2.721   0.956   0.861
 1346SOL    HW1 6728   2.775   0.887   0.909
 1346SOL    HW2 6729   2.689   1.025   0.927
 1347SOL     OW 6730   2.945   0.984   0.087
 1347SOL    HW1 6731   2.922   1.037   0.005
 1347SOL    HW2 6732   3.026   0.928   0.068
 1348SOL     OW 6733   3.723   1.569   0.851
 1348SOL    HW1 6734   3.652   1.557   0.781
 1348SOL    HW2 6735   3.724   1.490   0.911
 1349SOL     OW 6736   2.083   1.314   1.844
 1349SOL    HW1 6737   2.018   1.241   1.823
 1349SOL    HW2 6738   2.087   1.328   1.942
 1350SOL     OW 6739   1.941   1.240   0.653
 1350SOL    HW1 6740   1.940   1.193   0.741
 1350SOL    HW2 6741   2.023   1.212   0.602
 1351SOL     OW 6742   2.534   1.391   1.624
 1351SOL    HW1 6743   2.456   1.341   1.662
 1351SOL    HW2 6744   2.531   1.486   1.655
 1352SOL     OW 6745   3.686   0.192   1.227
 1352SOL    HW1 6746   3.682   0.102   1.271
 1352SOL    HW2 6747   3.689   0.181   1.128
 1353SOL     OW 6748   2.290   0.424   0.520
 1353SOL    HW1 6749   2.320   0.352   0.458
 1353SOL    HW2 6750   2.251   0.384   0.603
 1354SOL     OW 6751   3.567   1.487   1.104
 1354SOL    HW1 6752   3.474   1.462   1.077
 1354SOL    HW2 6753   3.593   1.437   1.186
 1355SOL     OW 6754   2.179   0.547   1.280
 1355SOL    HW1 6755   2.217   0.488   1.352
 1355SOL    HW2 6756   2.219   0.521   1.192
 1356SOL     OW 6757   2.863   0.034   1.154
 1356SOL    HW1 6758   2.800  -0.038   1.123
 1356SOL    HW2 6759   2.956  -0.002   1.154
 1357SOL     OW 6760   2.632   1.330   0.301
 1357SOL    HW1 6761   2.586   1.243   0.318
 1357SOL    HW2 6762   2.723   1.327   0.342
 1358SOL     OW 6763   2.480   1.567   1.284
 1358SOL    HW1 6764   2.475   1.649   1.341
 1358SOL    HW2 6765   2.569   1.564   1.239
 1359SOL     OW 6766   3.162   0.453   0.691
 1359SOL    HW1 6767   3.103   0.533   0.695
 1359SOL    HW2 6768   3.177   0.418   0.784
 1360SOL     OW 6769   3.455   0.221   0.882
 1360SOL    HW1 6770   3.371   0.220   0.936
 1360SOL    HW2 6771   3.457   0.304   0.826
 1361SOL     OW 6772   1.901   1.077   0.300
 1361SOL    HW1 6773   2.000   1.066   0.291
 1361SOL    HW2 6774   1.861   0.991   0.332
 1362SOL     OW 6775   2.737   1.646   0.337
 1362SOL    HW1 6776   2.660   1.611   0.283
 1362SOL    HW2 6777   2.705   1.717   0.399
 1363SOL     OW 6778   2.092   0.628   1.975
 1363SOL    HW1 6779   1.999   0.626   2.012
 1363SOL    HW2 6780   2.093   0.589   1.883
 1364SOL     OW 6781   2.087   0.275   2.858
 1364SOL    HW1 6782   2.122   0.258   2.950
 1364SOL    HW2 6783   1.999   0.230   2.846
 1365SOL     OW 6784   1.881   0.368   2.509
 1365SOL    HW1 6785   1.799   0.411   2.548
 1365SOL    HW2 6786   1.853   0.295   2.446
 1366SOL     OW 6787   2.431   1.275   3.027
 1366SOL    HW1 6788   2.338   1.268   2.990
 1366SOL    HW2 6789   2.442   1.364   3.071
 1367SOL     OW 6790   3.417   1.511   2.565
 1367SOL    HW1 6791   3.360   1.495   2.646
 1367SOL    HW2 6792   3.358   1.521   2.485
 1368SOL     OW 6793   2.997   0.703   2.579
 1368SOL    HW1 6794   3.054   0.781   2.554
 1368SOL    HW2 6795   2.937   0.729   2.655
 1369SOL     OW 6796   3.617   0.607   2.093
 1369SOL    HW1 6797   3.605   0.594   1.994
 1369SOL    HW2 6798   3.587   0.526   2.142
 1370SOL     OW 6799   2.630   1.144   2.885
 1370SOL    HW1 6800   2.552   1.161   2.945
 1370SOL    HW2 6801   2.664   1.231   2.849
 1371SOL     OW 6802   2.712   0.798   3.685
 1371SOL    HW1 6803   2.708   0.874   3.750
 1371SOL    HW2 6804   2.734   0.834   3.594
 1372SOL     OW 6805   2.547   1.012   2.527
 1372SOL    HW1 6806   2.616   0.996   2.597
 1372SOL    HW2 6807   2.474   1.069   2.565
 1373SOL     OW 6808   2.548   1.161   3.665
 1373SOL    HW1 6809   2.608   1.240   3.679
 1373SOL    HW2 6810   2.462   1.192   3.624
 1374SOL     OW 6811   3.322   1.505   3.201
 1374SOL    HW1 6812   3.346   1.599   3.227
 1374SOL    HW2 6813   3.306   1.451   3.283
 1375SOL     OW 6814   2.300   0.392   3.361
 1375SOL    HW1 6815   2.382   0.336   3.370
 1375SOL    HW2 6816   2.219   0.334   3.365
 1376SOL     OW 6817   3.465   0.447   2.599
 1376SOL    HW1 6818   3.391   0.493   2.549
 1376SOL    HW2 6819   3.516   0.515   2.652
 1377SOL     OW 6820   2.093   1.713   2.345
 1377SOL    HW1 6821   2.127   1.790   2.399
 1377SOL    HW2 6822   2.137   1.713   2.255
 1378SOL     OW 6823   2.989   1.341   3.552
 1378SOL    HW1 6824   3.036   1.341   3.640
 1378SOL    HW2 6825   2.941   1.254   3.541
 1379SOL     OW 6826   2.092   1.434   2.400
 1379SOL    HW1 6827   2.066   1.530   2.400
 1379SOL    HW2 6828   2.021   1.380   2.445
 1380SOL     OW 6829   2.482   1.786   3.301
 1380SOL    HW1 6830   2.390   1.769   3.336
 1380SOL    HW2 6831   2.510   1.878   3.327
 1381SOL     OW 6832   2.468   0.964   1.985
 1381SOL    HW1 6833   2.475   1.048   1.931
 1381SOL    HW2 6834   2.514   0.977   2.073
 1382SOL     OW 6835   3.456   0.114   3.342
 1382SOL    HW1 6836   3.438   0.181   3.270
 1382SOL    HW2 6837   3.453   0.160   3.431
 1383SOL     OW 6838   3.704   1.767   2.221
 1383SOL    HW1 6839   3.758   1.738   2.301
 1383SOL    HW2 6840   3.734   1.857   2.192
 1384SOL     OW 6841   1.889   1.596   1.979
 1384SOL    HW1 6842   1.870   1.500   2.000
 1384SOL    HW2 6843   1.856   1.654   2.054
 1385SOL     OW 6844   3.551   0.922   2.474
 1385SOL    HW1 6845   3.646   0.893   2.482
 1385SOL    HW2 6846   3.543   0.987   2.399
 1386SOL     OW 6847   3.503   1.108   2.294
 1386SOL    HW1 6848   3.589   1.110   2.242
 1386SOL    HW2 6849   3.517   1.155   2.382
 1387SOL     OW 6850   2.475   1.365   2.588
 1387SOL    HW1 6851   2.426   1.278   2.597
 1387SOL    HW2 6852   2.452   1.408   2.501
 1388SOL     OW 6853   3.155   1.228   3.285
 1388SOL    HW1 6854   3.192   1.155   3.227
 1388SOL    HW2 6855   3.207   1.233   3.370
 1389SOL     OW 6856   2.671   0.004   2.364
 1389SOL    HW1 6857   2.711   0.095   2.355
 1389SOL    HW2 6858   2.571   0.012   2.370
 1390SOL     OW 6859   2.059   0.976   3.126
 1390SOL    HW1 6860   2.148   0.931   3.112
 1390SOL    HW2 6861   1.986   0.911   3.107
 1391SOL     OW 6862   3.387   0.999   2.052
 1391SOL    HW1 6863   3.324   0.923   2.065
 1391SOL    HW2 6864   3.435   1.017   2.138
 1392SOL     OW 6865   3.049   1.792   3.478
 1392SOL    HW1 6866   3.073   1.852   3.402
 1392SOL    HW2 6867   3.056   1.697   3.448
 1393SOL     OW 6868   3.328   1.417   2.815
 1393SOL    HW1 6869   3.269   1.423   2.895
 1393SOL    HW2 6870   3.313   1.329   2.769
 1394SOL     OW 6871   3.529   1.714   2.434
 1394SOL    HW1 6872   3.488   1.691   2.346
 1394SOL    HW2 6873   3.511   1.640   2.499
 1395SOL     OW 6874   2.460   0.729   2.132
 1395SOL    HW1 6875   2.484   0.798   2.064
 1395SOL    HW2 6876   2.382   0.762   2.186
 1396SOL     OW 6877   3.143   0.345   2.806
 1396SOL    HW1 6878   3.057   0.295   2.793
 1396SOL    HW2 6879   3.205   0.291   2.862
 1397SOL     OW 6880   3.438   1.662   2.169
 1397SOL    HW1 6881   3.527   1.708   2.172
 1397SOL    HW2 6882   3.417   1.638   2.074
 1398SOL     OW 6883   2.669   0.605   3.327
 1398SOL    HW1 6884   2.622   0.602   3.416
 1398SOL    HW2 6885   2.618   0.550   3.261
 1399SOL     OW 6886   3.256   0.469   3.536
 1399SOL    HW1 6887   3.236   0.512   3.624
 1399SOL    HW2 6888   3.334   0.407   3.545
 1400SOL     OW 6889   2.853   0.410   3.104
 1400SOL    HW1 6890   2.776   0.444   3.158
 1400SOL    HW2 6891   2.819   0.359   3.025
 1401SOL     OW 6892   2.903   0.701   2.291
 1401SOL    HW1 6893   2.929   0.697   2.387
 1401SOL    HW2 6894   2.818   0.650   2.277
 1402SOL     OW 6895   1.992   1.821   3.433
 1402SOL    HW1 6896   1.982   1.806   3.532
 1402SOL    HW2 6897   1.906   1.857   3.397
 1403SOL     OW 6898   2.727   0.348   2.057
 1403SOL    HW1 6899   2.786   0.411   2.008
 1403SOL    HW2 6900   2.746   0.254   2.028
 1404SOL     OW 6901   3.224   1.144   2.407
 1404SOL    HW1 6902   3.307   1.115   2.359
 1404SOL    HW2 6903   3.175   1.211   2.351
 1405SOL     OW 6904   2.870   1.456   2.339
 1405SOL    HW1 6905   2.824   1.528   2.287
 1405SOL    HW2 6906   2.866   1.476   2.437
 1406SOL     OW 6907   2.213   1.801   2.715
 1406SOL    HW1 6908   2.263   1.715   2.721
 1406SOL    HW2 6909   2.278   1.878   2.712
 1407SOL     OW 6910   3.657   1.066   2.735
 1407SOL    HW1 6911   3.595   1.051   2.659
 1407SOL    HW2 6912   3.605   1.077   2.820
 1408SOL     OW 6913   3.089   1.550   3.368
 1408SOL    HW1 6914   3.095   1.473   3.432
 1408SOL    HW2 6915   3.037   1.524   3.288
 1409SOL     OW 6916   2.183   0.943   2.104
 1409SOL    HW1 6917   2.265   0.982   2.062
 1409SOL    HW2 6918   2.156   0.861   2.055
 1410SOL     OW 6919   3.320   0.735   2.590
 1410SOL    HW1 6920   3.315   0.670   2.665
 1410SOL    HW2 6921   3.400   0.794   2.603
 1411SOL     OW 6922   2.323   1.266   3.589
 1411SOL    HW1 6923   2.273   1.267   3.503
 1411SOL    HW2 6924   2.260   1.248   3.665
 1412SOL     OW 6925   2.973   1.776   2.099
 1412SOL    HW1 6926   2.913   1.714   2.149
 1412SOL    HW2 6927   3.004   1.732   2.014
 1413SOL     OW 6928   2.064   0.285   3.360
 1413SOL    HW1 6929   1.984   0.345   3.347
 1413SOL    HW2 6930   2.054   0.236   3.446
 1414SOL     OW 6931   3.494   1.377   1.943
 1414SOL    HW1 6932   3.462   1.471   1.933
 1414SOL    HW2 6933   3.418   1.314   1.931
 1415SOL     OW 6934   2.326   1.743   2.185
 1415SOL    HW1 6935   2.359   1.782   2.271
 1415SOL    HW2 6936   2.402   1.736   2.120
 1416SOL     OW 6937   3.262   0.107   2.288
 1416SOL    HW1 6938   3.238   0.070   2.198
 1416SOL    HW2 6939   3.361   0.123   2.292
 1417SOL     OW 6940   2.802   1.698   2.766
 1417SOL    HW1 6941   2.882   1.641   2.787
 1417SOL    HW2 6942   2.753   1.658   2.689
 1418SOL     OW 6943   3.409   0.222   3.591
 1418SOL    HW1 6944   3.404   0.259   3.683
 1418SOL    HW2 6945   3.337   0.153   3.579
 1419SOL     OW 6946   2.750   1.514   3.057
 1419SOL    HW1 6947   2.727   1.489   2.963
 1419SOL    HW2 6948   2.811   1.445   3.096
 1420SOL     OW 6949   2.665   1.402   2.786
 1420SOL    HW1 6950   2.755   1.416   2.744
 1420SOL    HW2 6951   2.594   1.404   2.715
 1421SOL     OW 6952   2.784   0.503   2.761
 1421SOL    HW1 6953   2.759   0.494   2.665
 1421SOL    HW2 6954   2.832   0.421   2.792
 1422SOL     OW 6955   3.296   1.188   1.903
 1422SOL    HW1 6956   3.328   1.112   1.960
 1422SOL    HW2 6957   3.204   1.215   1.933
 1423SOL     OW 6958   2.797   0.236   2.342
 1423SOL    HW1 6959   2.749   0.277   2.264
 1423SOL    HW2 6960   2.896   0.234   2.323
 1424SOL     OW 6961   2.938   0.683   3.326
 1424SOL    HW1 6962   2.858   0.622   3.329
 1424SOL    HW2 6963   3.019   0.630   3.302
 1425SOL     OW 6964   3.089   1.570   2.655
 1425SOL    HW1 6965   3.110   1.644   2.590
 1425SOL    HW2 6966   3.157   1.570   2.728
 1426SOL     OW 6967   2.321   1.152   2.603
 1426SOL    HW1 6968   2.250   1.125   2.668
 1426SOL    HW2 6969   2.295   1.124   2.510
 1427SOL     OW 6970   3.133   1.797   2.453
 1427SOL    HW1 6971   3.177   1.861   2.389
 1427SOL    HW2 6972   3.083   1.849   2.523
 1428SOL     OW 6973   2.894   0.549   1.878
 1428SOL    HW1 6974   2.853   0.631   1.839
 1428SOL    HW2 6975   2.958   0.575   1.951
 1429SOL     OW 6976   1.940   0.556   3.248
 1429SOL    HW1 6977   2.032   0.555   3.207
 1429SOL    HW2 6978   1.934   0.630   3.315
 1430SOL     OW 6979   2.423   0.222   3.009
 1430SOL    HW1 6980   2.461   0.138   3.046
 1430SOL    HW2 6981   2.335   0.241   3.053
 1431SOL     OW 6982   2.879   0.039   2.615
 1431SOL    HW1 6983   2.807   0.044   2.546
 1431SOL    HW2 6984   2.855  -0.030   2.684
 1432SOL     OW 6985   3.291   1.173   2.729
 1432SOL    HW1 6986   3.236   1.089   2.722
 1432SOL    HW2 6987   3.317   1.202   2.637
 1433SOL     OW 6988   3.328   0.590   2.854
 1433SOL    HW1 6989   3.298   0.495   2.861
 1433SOL    HW2 6990   3.401   0.606   2.920
 1434SOL     OW 6991   2.350   1.385   2.036
 1434SOL    HW1 6992   2.263   1.370   2.083
 1434SOL    HW2 6993   2.333   1.411   1.941
 1435SOL     OW 6994   3.526   1.280   2.519
 1435SOL    HW1 6995   3.625   1.288   2.533
 1435SOL    HW2 6996   3.481   1.364   2.550
 1436SOL     OW 6997   3.252   0.575   1.940
 1436SOL    HW1 6998   3.198   0.554   2.021
 1436SOL    HW2 6999   3.343   0.534   1.949
 1437SOL     OW 7000   3.616   1.223   3.450
 1437SOL    HW1 7001   3.707   1.184   3.437
 1437SOL    HW2 7002   3.624   1.319   3.474
 1438SOL     OW 7003   2.926   1.347   3.202
 1438SOL    HW1 7004   2.846   1.324   3.257
 1438SOL    HW2 7005   3.009   1.321   3.251
 1439SOL     OW 7006   3.454   1.629   3.487
 1439SOL    HW1 7007   3.481   1.663   3.397
 1439SOL    HW2 7008   3.533   1.591   3.533
 1440SOL     OW 7009   2.973   1.195   2.962
 1440SOL    HW1 7010   2.933   1.239   3.043
 1440SOL    HW2 7011   2.932   1.232   2.879
 1441SOL     OW 7012   2.567   1.050   2.230
 1441SOL    HW1 7013   2.553   1.057   2.329
 1441SOL    HW2 7014   2.651   0.999   2.212
 1442SOL     OW 7015   2.272   0.813   3.113
 1442SOL    HW1 7016   2.358   0.825   3.163
 1442SOL    HW2 7017   2.230   0.726   3.140
 1443SOL     OW 7018   3.136   0.386   3.124
 1443SOL    HW1 7019   3.157   0.460   3.188
 1443SOL    HW2 7020   3.047   0.403   3.081
 1444SOL     OW 7021   2.229   1.100   2.363
 1444SOL    HW1 7022   2.222   1.183   2.307
 1444SOL    HW2 7023   2.233   1.020   2.303
 1445SOL     OW 7024   3.114   1.348   2.250
 1445SOL    HW1 7025   3.164   1.425   2.290
 1445SOL    HW2 7026   3.019   1.350   2.282
 1446SOL     OW 7027   3.134   1.445   3.004
 1446SOL    HW1 7028   3.181   1.458   3.091
 1446SOL    HW2 7029   3.068   1.371   3.013
 1447SOL     OW 7030   3.444   0.639   2.334
 1447SOL    HW1 7031   3.413   0.700   2.407
 1447SOL    HW2 7032   3.494   0.691   2.265
 1448SOL     OW 7033   2.216   1.510   3.191
 1448SOL    HW1 7034   2.195   1.466   3.104
 1448SOL    HW2 7035   2.313   1.536   3.194
 1449SOL     OW 7036   2.264   0.751   3.460
 1449SOL    HW1 7037   2.332   0.806   3.413
 1449SOL    HW2 7038   2.304   0.663   3.487
 1450SOL     OW 7039   2.875   0.105   3.632
 1450SOL    HW1 7040   2.881   0.190   3.580
 1450SOL    HW2 7041   2.907   0.029   3.575
 1451SOL     OW 7042   2.435   0.870   2.891
 1451SOL    HW1 7043   2.479   0.959   2.882
 1451SOL    HW2 7044   2.372   0.870   2.968
 1452SOL     OW 7045   3.222   0.862   2.907
 1452SOL    HW1 7046   3.147   0.862   2.841
 1452SOL    HW2 7047   3.259   0.770   2.916
 1453SOL     OW 7048   3.071   0.525   2.137
 1453SOL    HW1 7049   3.084   0.441   2.191
 1453SOL    HW2 7050   3.042   0.599   2.197
 1454SOL     OW 7051   2.169   0.213   3.093
 1454SOL    HW1 7052   2.146   0.250   3.183
 1454SOL    HW2 7053   2.139   0.118   3.087
 1455SOL     OW 7054   2.594   0.634   2.926
 1455SOL    HW1 7055   2.653   0.608   2.850
 1455SOL    HW2 7056   2.566   0.730   2.915
 1456SOL     OW 7057   3.590   0.935   3.716
 1456SOL    HW1 7058   3.544   0.928   3.627
 1456SOL    HW2 7059   3.528   0.979   3.782
 1457SOL     OW 7060   2.169   0.063   2.480
 1457SOL    HW1 7061   2.158   0.157   2.513
 1457SOL    HW2 7062   2.164   0.000   2.557
 1458SOL     OW 7063   3.484   0.367   2.236
 1458SOL    HW1 7064   3.486   0.291   2.300
 1458SOL    HW2 7065   3.436   0.444   2.276
 1459SOL     OW 7066   2.885   0.766   2.828
 1459SOL    HW1 7067   2.900   0.787   2.924
 1459SOL    HW2 7068   2.855   0.671   2.819
 1460SOL     OW 7069   2.842   1.573   3.562
 1460SOL    HW1 7070   2.822   1.617   3.474
 1460SOL    HW2 7071   2.881   1.482   3.546
 1461SOL     OW 7072   2.212   0.898   3.666
 1461SOL    HW1 7073   2.288   0.942   3.714
 1461SOL    HW2 7074   2.247   0.851   3.584
 1462SOL     OW 7075   3.165   0.838   1.904
 1462SOL    HW1 7076   3.199   0.745   1.919
 1462SOL    HW2 7077   3.183   0.865   1.809
 1463SOL     OW 7078   2.930   1.333   2.711
 1463SOL    HW1 7079   2.937   1.249   2.656
 1463SOL    HW2 7080   2.992   1.402   2.675
 1464SOL     OW 7081   3.000   0.380   3.540
 1464SOL    HW1 7082   2.955   0.443   3.604
 1464SOL    HW2 7083   3.093   0.411   3.523
 1465SOL     OW 7084   3.022   0.207   3.339
 1465SOL    HW1 7085   3.022   0.271   3.416
 1465SOL    HW2 7086   3.050   0.255   3.256
 1466SOL     OW 7087   1.870   1.326   2.062
 1466SOL    HW1 7088   1.777   1.347   2.031
 1466SOL    HW2 7089   1.880   1.227   2.075
 1467SOL     OW 7090   1.950   1.801   2.789
 1467SOL    HW1 7091   1.908   1.715   2.762
 1467SOL    HW2 7092   2.044   1.804   2.755
 1468SOL     OW 7093   2.366   1.568   2.772
 1468SOL    HW1 7094   2.432   1.642   2.781
 1468SOL    HW2 7095   2.410   1.489   2.730
 1469SOL     OW 7096   2.864   0.796   3.100
 1469SOL    HW1 7097   2.905   0.764   3.186
 1469SOL    HW2 7098   2.768   0.769   3.097
 1470SOL     OW 7099   1.902   0.544   2.976
 1470SOL    HW1 7100   1.987   0.511   2.935
 1470SOL    HW2 7101   1.915   0.559   3.074
 1471SOL     OW 7102   2.051   0.520   3.584
 1471SOL    HW1 7103   2.110   0.480   3.514
 1471SOL    HW2 7104   1.993   0.591   3.543
 1472SOL     OW 7105   2.677   0.572   2.187
 1472SOL    HW1 7106   2.684   0.483   2.141
 1472SOL    HW2 7107   2.583   0.606   2.179
 1473SOL     OW 7108   3.519   0.604   3.068
 1473SOL    HW1 7109   3.481   0.535   3.130
 1473SOL    HW2 7110   3.601   0.568   3.024
 1474SOL     OW 7111   2.533   0.464   3.131
 1474SOL    HW1 7112   2.499   0.375   3.101
 1474SOL    HW2 7113   2.559   0.518   3.051
 1475SOL     OW 7114   2.792   1.678   3.327
 1475SOL    HW1 7115   2.768   1.660   3.232
 1475SOL    HW2 7116   2.822   1.772   3.337
 1476SOL     OW 7117   3.164   0.855   2.171
 1476SOL    HW1 7118   3.078   0.824   2.213
 1476SOL    HW2 7119   3.160   0.841   2.072
 1477SOL     OW 7120   3.621   1.747   3.016
 1477SOL    HW1 7121   3.682   1.777   2.943
 1477SOL    HW2 7122   3.583   1.658   2.994
 1478SOL     OW 7123   3.114   1.731   2.990
 1478SOL    HW1 7124   3.198   1.736   2.936
 1478SOL    HW2 7125   3.091   1.635   3.008
 1479SOL     OW 7126   2.550   1.662   3.578
 1479SOL    HW1 7127   2.494   1.743   3.587
 1479SOL    HW2 7128   2.602   1.666   3.492
 1480SOL     OW 7129   3.588   0.135   2.385
 1480SOL    HW1 7130   3.661   0.118   2.318
 1480SOL    HW2 7131   3.557   0.048   2.423
 1481SOL     OW 7132   3.250   1.573   2.339
 1481SOL    HW1 7133   3.317   1.585   2.265
 1481SOL    HW2 7134   3.210   1.662   2.362
 1482SOL     OW 7135   1.992   1.794   3.713
 1482SOL    HW1 7136   1.951   1.720   3.766
 1482SOL    HW2 7137   2.056   1.845   3.771
 1483SOL     OW 7138   3.142   0.927   2.534
 1483SOL    HW1 7139   3.202   0.846   2.536
 1483SOL    HW2 7140   3.182   0.996   2.474
 1484SOL     OW 7141   2.692   1.273   3.284
 1484SOL    HW1 7142   2.687   1.306   3.379
 1484SOL    HW2 7143   2.606   1.292   3.238
 1485SOL     OW 7144   2.534   1.616   2.016
 1485SOL    HW1 7145   2.543   1.626   1.917
 1485SOL    HW2 7146   2.494   1.527   2.037
 1486SOL     OW 7147   3.512   1.720   3.256
 1486SOL    HW1 7148   3.565   1.730   3.172
 1486SOL    HW2 7149   3.485   1.810   3.290
 1487SOL     OW 7150   3.703   0.175   2.825
 1487SOL    HW1 7151   3.742   0.090   2.789
 1487SOL    HW2 7152   3.605   0.177   2.806
 1488SOL     OW 7153   3.056   1.612   1.893
 1488SOL    HW1 7154   3.062   1.519   1.930
 1488SOL    HW2 7155   2.997   1.612   1.813
 1489SOL     OW 7156   2.684   1.002   3.234
 1489SOL    HW1 7157   2.724   1.001   3.142
 1489SOL    HW2 7158   2.694   1.094   3.274
 1490SOL     OW 7159   2.778   0.910   2.153
 1490SOL    HW1 7160   2.841   0.948   2.085
 1490SOL    HW2 7161   2.818   0.827   2.192
 1491SOL     OW 7162   3.366   1.607   1.906
 1491SOL    HW1 7163   3.274   1.644   1.913
 1491SOL    HW2 7164   3.404   1.627   1.816
 1492SOL     OW 7165   3.476   1.292   3.151
 1492SOL    HW1 7166   3.536   1.295   3.231
 1492SOL    HW2 7167   3.401   1.356   3.164
 1493SOL     OW 7168   2.901   1.098   2.558
 1493SOL    HW1 7169   2.831   1.051   2.612
 1493SOL    HW2 7170   2.960   1.030   2.515
 1494SOL     OW 7171   2.452   1.487   2.353
 1494SOL    HW1 7172   2.494   1.429   2.283
 1494SOL    HW2 7173   2.408   1.566   2.309
 1495SOL     OW 7174   3.571   0.385   3.243
 1495SOL    HW1 7175   3.644   0.454   3.247
 1495SOL    HW2 7176   3.599   0.310   3.184
 1496SOL     OW 7177   2.117   1.348   2.152
 1496SOL    HW1 7178   2.021   1.349   2.125
 1496SOL    HW2 7179   2.129   1.401   2.236
 1497SOL     OW 7180   1.937   0.345   1.895
 1497SOL    HW1 7181   1.845   0.317   1.866
 1497SOL    HW2 7182   1.968   0.422   1.839
 1498SOL     OW 7183   1.934   0.166   2.180
 1498SOL    HW1 7184   1.917   0.249   2.126
 1498SOL    HW2 7185   2.024   0.129   2.158
 1499SOL     OW 7186   3.045   1.335   1.981
 1499SOL    HW1 7187   2.946   1.324   1.983
 1499SOL    HW2 7188   3.079   1.350   2.074
 1500SOL     OW 7189   2.475   0.842   3.293
 1500SOL    HW1 7190   2.531   0.923   3.276
 1500SOL    HW2 7191   2.534   0.762   3.296
 1501SOL     OW 7192   3.355   1.767   2.821
 1501SOL    HW1 7193   3.388   1.831   2.752
 1501SOL    HW2 7194   3.421   1.761   2.896
 1502SOL     OW 7195   2.252   1.741   3.422
 1502SOL    HW1 7196   2.161   1.782   3.420
 1502SOL    HW2 7197   2.245   1.647   3.454
 1503SOL     OW 7198   3.087   0.325   2.311
 1503SOL    HW1 7199   3.152   0.251   2.300
 1503SOL    HW2 7200   3.107   0.375   2.395
 1504SOL     OW 7201   2.456   0.745   2.514
 1504SOL    HW1 7202   2.506   0.830   2.495
 1504SOL    HW2 7203   2.368   0.747   2.466
 1505SOL     OW 7204   3.639   0.342   3.504
 1505SOL    HW1 7205   3.622   0.373   3.410
 1505SOL    HW2 7206   3.555   0.305   3.542
 1506SOL     OW 7207   2.721   1.374   1.878
 1506SOL    HW1 7208   2.675   1.389   1.966
 1506SOL    HW2 7209   2.765   1.459   1.848
 1507SOL     OW 7210   2.523   1.790   2.815
 1507SOL    HW1 7211   2.477   1.878   2.802
 1507SOL    HW2 7212   2.622   1.802   2.808
 1508SOL     OW 7213   2.721   0.956   2.723
 1508SOL    HW1 7214   2.775   0.887   2.771
 1508SOL    HW2 7215   2.689   1.025   2.789
 1509SOL     OW 7216   2.945   0.984   1.949
 1509SOL    HW1 7217   2.922   1.037   1.867
 1509SOL    HW2 7218   3.026   0.928   1.930
 1510SOL     OW 7219   3.723   1.569   2.713
 1510SOL    HW1 7220   3.652   1.557   2.643
 1510SOL    HW2 7221   3.724   1.490   2.773
 1511SOL     OW 7222   2.534   1.391   3.486
 1511SOL    HW1 7223   2.456   1.341   3.524
 1511SOL    HW2 7224   2.531   1.486   3.517
 1512SOL     OW 7225   3.686   0.192   3.089
 1512SOL    HW1 7226   3.682   0.102   3.133
 1512SOL    HW2 7227   3.689   0.181   2.990
 1513SOL     OW 7228   3.567   1.487   2.966
 1513SOL    HW1 7229   3.474   1.462   2.939
 1513SOL    HW2 7230   3.593   1.437   3.048
 1514SOL     OW 7231   2.179   0.547   3.142
 1514SOL    HW1 7232   2.217   0.488   3.214
 1514SOL    HW2 7233   2.219   0.521   3.054
 1515SOL     OW 7234   2.674   1.586   2.549
 1515SOL    HW1 7235   2.706   1.596   2.455
 1515SOL    HW2 7236   2.595   1.524   2.551
 1516SOL     OW 7237   3.286   0.214   2.974
 1516SOL    HW1 7238   3.338   0.149   3.029
 1516SOL    HW2 7239   3.237   0.277   3.035
 1517SOL     OW 7240   2.632   1.330   2.163
 1517SOL    HW1 7241   2.586   1.243   2.180
 1517SOL    HW2 7242   2.723   1.327   2.204
 1518SOL     OW 7243   2.480   1.567   3.146
 1518SOL    HW1 7244   2.475   1.649   3.203
 1518SOL    HW2 7245   2.569   1.564   3.101
 1519SOL     OW 7246   3.214   0.052   2.030
 1519SOL    HW1 7247   3.249   0.011   1.946
 1519SOL    HW2 7248   3.124   0.014   2.050
 1520SOL     OW 7249   3.162   0.453   2.553
 1520SOL    HW1 7250   3.103   0.533   2.557
 1520SOL    HW2 7251   3.177   0.418   2.646
 1521SOL     OW 7252   3.455   0.221   2.744
 1521SOL    HW1 7253   3.371   0.220   2.798
 1521SOL    HW2 7254   3.457   0.304   2.688
 1522SOL     OW 7255   2.737   1.646   2.199
 1522SOL    HW1 7256   2.660   1.611   2.145
 1522SOL    HW2 7257   2.705   1.717   2.261
 1523SOL     OW 7258   1.881   0.368   4.371
 1523SOL    HW1 7259   1.799   0.411   4.410
 1523SOL    HW2 7260   1.853   0.295   4.308
 1524SOL     OW 7261   3.417   1.511   4.427
 1524SOL    HW1 7262   3.360   1.495   4.508
 1524SOL    HW2 7263   3.358   1.521   4.347
 1525SOL     OW 7264   3.617   0.607   3.955
 1525SOL    HW1 7265   3.605   0.594   3.856
 1525SOL    HW2 7266   3.587   0.526   4.004
 1526SOL     OW 7267   2.547   1.012   4.389
 1526SOL    HW1 7268   2.616   0.996   4.459
 1526SOL    HW2 7269   2.474   1.069   4.427
 1527SOL     OW 7270   2.197   1.435   4.785
 1527SOL    HW1 7271   2.119   1.404   4.732
 1527SOL    HW2 7272   2.255   1.493   4.728
 1528SOL     OW 7273   3.465   0.447   4.461
 1528SOL    HW1 7274   3.391   0.493   4.411
 1528SOL    HW2 7275   3.516   0.515   4.514
 1529SOL     OW 7276   2.093   1.713   4.207
 1529SOL    HW1 7277   2.127   1.790   4.261
 1529SOL    HW2 7278   2.137   1.713   4.117
 1530SOL     OW 7279   2.092   1.434   4.262
 1530SOL    HW1 7280   2.066   1.530   4.262
 1530SOL    HW2 7281   2.021   1.380   4.307
 1531SOL     OW 7282   2.482   1.786   5.163
 1531SOL    HW1 7283   2.390   1.769   5.198
 1531SOL    HW2 7284   2.510   1.878   5.189
 1532SOL     OW 7285   2.468   0.964   3.847
 1532SOL    HW1 7286   2.475   1.048   3.793
 1532SOL    HW2 7287   2.514   0.977   3.935
 1533SOL     OW 7288   3.704   1.767   4.083
 1533SOL    HW1 7289   3.758   1.738   4.163
 1533SOL    HW2 7290   3.734   1.857   4.054
 1534SOL     OW 7291   1.889   1.596   3.841
 1534SOL    HW1 7292   1.870   1.500   3.862
 1534SOL    HW2 7293   1.856   1.654   3.916
 1535SOL     OW 7294   3.551   0.922   4.336
 1535SOL    HW1 7295   3.646   0.893   4.344
 1535SOL    HW2 7296   3.543   0.987   4.261
 1536SOL     OW 7297   3.503   1.108   4.156
 1536SOL    HW1 7298   3.589   1.110   4.104
 1536SOL    HW2 7299   3.517   1.155   4.244
 1537SOL     OW 7300   2.475   1.365   4.450
 1537SOL    HW1 7301   2.426   1.278   4.459
 1537SOL    HW2 7302   2.452   1.408   4.363
 1538SOL     OW 7303   3.387   0.999   3.914
 1538SOL    HW1 7304   3.324   0.923   3.927
 1538SOL    HW2 7305   3.435   1.017   4.000
 1539SOL     OW 7306   3.328   1.417   4.677
 1539SOL    HW1 7307   3.269   1.423   4.757
 1539SOL    HW2 7308   3.313   1.329   4.631
 1540SOL     OW 7309   3.529   1.714   4.296
 1540SOL    HW1 7310   3.488   1.691   4.208
 1540SOL    HW2 7311   3.511   1.640   4.361
 1541SOL     OW 7312   2.460   0.729   3.994
 1541SOL    HW1 7313   2.484   0.798   3.926
 1541SOL    HW2 7314   2.382   0.762   4.048
 1542SOL     OW 7315   3.438   1.662   4.031
 1542SOL    HW1 7316   3.527   1.708   4.034
 1542SOL    HW2 7317   3.417   1.638   3.936
 1543SOL     OW 7318   2.853   0.410   4.966
 1543SOL    HW1 7319   2.776   0.444   5.020
 1543SOL    HW2 7320   2.819   0.359   4.887
 1544SOL     OW 7321   3.224   1.144   4.269
 1544SOL    HW1 7322   3.307   1.115   4.221
 1544SOL    HW2 7323   3.175   1.211   4.213
 1545SOL     OW 7324   2.870   1.456   4.201
 1545SOL    HW1 7325   2.824   1.528   4.149
 1545SOL    HW2 7326   2.866   1.476   4.299
 1546SOL     OW 7327   2.213   1.801   4.577
 1546SOL    HW1 7328   2.263   1.715   4.583
 1546SOL    HW2 7329   2.278   1.878   4.574
 1547SOL     OW 7330   3.657   1.066   4.597
 1547SOL    HW1 7331   3.595   1.051   4.521
 1547SOL    HW2 7332   3.605   1.077   4.682
 1548SOL     OW 7333   2.183   0.943   3.966
 1548SOL    HW1 7334   2.265   0.982   3.924
 1548SOL    HW2 7335   2.156   0.861   3.917
 1549SOL     OW 7336   3.320   0.735   4.452
 1549SOL    HW1 7337   3.315   0.670   4.527
 1549SOL    HW2 7338   3.400   0.794   4.465
 1550SOL     OW 7339   2.973   1.776   3.961
 1550SOL    HW1 7340   2.913   1.714   4.011
 1550SOL    HW2 7341   3.004   1.732   3.876
 1551SOL     OW 7342   2.326   1.743   4.047
 1551SOL    HW1 7343   2.359   1.782   4.133
 1551SOL    HW2 7344   2.402   1.736   3.982
 1552SOL     OW 7345   2.111   1.785   4.965
 1552SOL    HW1 7346   2.168   1.720   5.015
 1552SOL    HW2 7347   2.095   1.752   4.872
 1553SOL     OW 7348   2.802   1.698   4.628
 1553SOL    HW1 7349   2.882   1.641   4.649
 1553SOL    HW2 7350   2.753   1.658   4.551
 1554SOL     OW 7351   2.665   1.402   4.648
 1554SOL    HW1 7352   2.755   1.416   4.606
 1554SOL    HW2 7353   2.594   1.404   4.577
 1555SOL     OW 7354   2.784   0.503   4.623
 1555SOL    HW1 7355   2.759   0.494   4.527
 1555SOL    HW2 7356   2.832   0.421   4.654
 1556SOL     OW 7357   2.401   0.064   4.236
 1556SOL    HW1 7358   2.320   0.065   4.294
 1556SOL    HW2 7359   2.404   0.147   4.181
 1557SOL     OW 7360   2.797   0.236   4.204
 1557SOL    HW1 7361   2.749   0.277   4.126
 1557SOL    HW2 7362   2.896   0.234   4.185
 1558SOL     OW 7363   3.089   1.570   4.517
 1558SOL    HW1 7364   3.110   1.644   4.452
 1558SOL    HW2 7365   3.157   1.570   4.590
 1559SOL     OW 7366   3.133   1.797   4.315
 1559SOL    HW1 7367   3.177   1.861   4.251
 1559SOL    HW2 7368   3.083   1.849   4.385
 1560SOL     OW 7369   2.894   0.549   3.740
 1560SOL    HW1 7370   2.853   0.631   3.701
 1560SOL    HW2 7371   2.958   0.575   3.813
 1561SOL     OW 7372   2.423   0.222   4.871
 1561SOL    HW1 7373   2.461   0.138   4.908
 1561SOL    HW2 7374   2.335   0.241   4.915
 1562SOL     OW 7375   2.728   0.454   4.366
 1562SOL    HW1 7376   2.696   0.526   4.304
 1562SOL    HW2 7377   2.752   0.373   4.313
 1563SOL     OW 7378   3.291   1.173   4.591
 1563SOL    HW1 7379   3.236   1.089   4.584
 1563SOL    HW2 7380   3.317   1.202   4.499
 1564SOL     OW 7381   3.328   0.590   4.716
 1564SOL    HW1 7382   3.298   0.495   4.723
 1564SOL    HW2 7383   3.401   0.606   4.782
 1565SOL     OW 7384   3.719   0.833   4.101
 1565SOL    HW1 7385   3.761   0.769   4.165
 1565SOL    HW2 7386   3.681   0.782   4.023
 1566SOL     OW 7387   2.350   1.385   3.898
 1566SOL    HW1 7388   2.263   1.370   3.945
 1566SOL    HW2 7389   2.333   1.411   3.803
 1567SOL     OW 7390   3.526   1.280   4.381
 1567SOL    HW1 7391   3.625   1.288   4.395
 1567SOL    HW2 7392   3.481   1.364   4.412
 1568SOL     OW 7393   2.389   0.256   4.052
 1568SOL    HW1 7394   2.416   0.197   3.977
 1568SOL    HW2 7395   2.389   0.351   4.021
 1569SOL     OW 7396   3.500   1.099   4.803
 1569SOL    HW1 7397   3.505   1.180   4.862
 1569SOL    HW2 7398   3.414   1.101   4.752
 1570SOL     OW 7399   2.567   1.050   4.092
 1570SOL    HW1 7400   2.553   1.057   4.191
 1570SOL    HW2 7401   2.651   0.999   4.074
 1571SOL     OW 7402   3.136   0.386   4.986
 1571SOL    HW1 7403   3.157   0.460   5.050
 1571SOL    HW2 7404   3.047   0.403   4.943
 1572SOL     OW 7405   2.229   1.100   4.225
 1572SOL    HW1 7406   2.222   1.183   4.169
 1572SOL    HW2 7407   2.233   1.020   4.165
 1573SOL     OW 7408   3.114   1.348   4.112
 1573SOL    HW1 7409   3.164   1.425   4.152
 1573SOL    HW2 7410   3.019   1.350   4.144
 1574SOL     OW 7411   3.134   1.445   4.866
 1574SOL    HW1 7412   3.181   1.458   4.953
 1574SOL    HW2 7413   3.068   1.371   4.875
 1575SOL     OW 7414   3.444   0.639   4.196
 1575SOL    HW1 7415   3.413   0.700   4.269
 1575SOL    HW2 7416   3.494   0.691   4.127
 1576SOL     OW 7417   2.216   1.510   5.053
 1576SOL    HW1 7418   2.195   1.466   4.966
 1576SOL    HW2 7419   2.313   1.536   5.056
 1577SOL     OW 7420   2.169   0.213   4.955
 1577SOL    HW1 7421   2.146   0.250   5.045
 1577SOL    HW2 7422   2.139   0.118   4.949
 1578SOL     OW 7423   1.899   1.310   5.006
 1578SOL    HW1 7424   1.952   1.261   5.074
 1578SOL    HW2 7425   1.921   1.408   5.011
 1579SOL     OW 7426   3.484   0.367   4.098
 1579SOL    HW1 7427   3.486   0.291   4.162
 1579SOL    HW2 7428   3.436   0.444   4.138
 1580SOL     OW 7429   2.885   0.766   4.690
 1580SOL    HW1 7430   2.900   0.787   4.786
 1580SOL    HW2 7431   2.855   0.671   4.681
 1581SOL     OW 7432   3.022   0.207   5.201
 1581SOL    HW1 7433   3.022   0.271   5.278
 1581SOL    HW2 7434   3.050   0.255   5.118
 1582SOL     OW 7435   1.870   1.326   3.924
 1582SOL    HW1 7436   1.777   1.347   3.893
 1582SOL    HW2 7437   1.880   1.227   3.937
 1583SOL     OW 7438   1.950   1.801   4.651
 1583SOL    HW1 7439   1.908   1.715   4.624
 1583SOL    HW2 7440   2.044   1.804   4.617
 1584SOL     OW 7441   2.366   1.568   4.634
 1584SOL    HW1 7442   2.432   1.642   4.643
 1584SOL    HW2 7443   2.410   1.489   4.592
 1585SOL     OW 7444   2.864   0.796   4.962
 1585SOL    HW1 7445   2.905   0.764   5.048
 1585SOL    HW2 7446   2.768   0.769   4.959
 1586SOL     OW 7447   3.519   0.604   4.930
 1586SOL    HW1 7448   3.481   0.535   4.992
 1586SOL    HW2 7449   3.601   0.568   4.886
 1587SOL     OW 7450   2.533   0.464   4.993
 1587SOL    HW1 7451   2.499   0.375   4.963
 1587SOL    HW2 7452   2.559   0.518   4.913
 1588SOL     OW 7453   2.792   1.678   5.189
 1588SOL    HW1 7454   2.768   1.660   5.094
 1588SOL    HW2 7455   2.822   1.772   5.199
 1589SOL     OW 7456   3.209   1.059   4.958
 1589SOL    HW1 7457   3.233   0.996   4.884
 1589SOL    HW2 7458   3.119   1.099   4.940
 1590SOL     OW 7459   3.621   1.747   4.878
 1590SOL    HW1 7460   3.682   1.777   4.805
 1590SOL    HW2 7461   3.583   1.658   4.856
 1591SOL     OW 7462   3.114   1.731   4.852
 1591SOL    HW1 7463   3.198   1.736   4.798
 1591SOL    HW2 7464   3.091   1.635   4.870
 1592SOL     OW 7465   3.588   0.135   4.247
 1592SOL    HW1 7466   3.661   0.118   4.180
 1592SOL    HW2 7467   3.557   0.048   4.285
 1593SOL     OW 7468   3.250   1.573   4.201
 1593SOL    HW1 7469   3.317   1.585   4.127
 1593SOL    HW2 7470   3.210   1.662   4.224
 1594SOL     OW 7471   2.534   1.616   3.878
 1594SOL    HW1 7472   2.543   1.626   3.779
 1594SOL    HW2 7473   2.494   1.527   3.899
 1595SOL     OW 7474   3.512   1.720   5.118
 1595SOL    HW1 7475   3.565   1.730   5.034
 1595SOL    HW2 7476   3.485   1.810   5.152
 1596SOL     OW 7477   3.703   0.175   4.687
 1596SOL    HW1 7478   3.742   0.090   4.651
 1596SOL    HW2 7479   3.605   0.177   4.668
 1597SOL     OW 7480   3.056   1.612   3.755
 1597SOL    HW1 7481   3.062   1.519   3.792
 1597SOL    HW2 7482   2.997   1.612   3.675
 1598SOL     OW 7483   2.684   1.002   5.096
 1598SOL    HW1 7484   2.724   1.001   5.004
 1598SOL    HW2 7485   2.694   1.094   5.136
 1599SOL     OW 7486   2.778   0.910   4.015
 1599SOL    HW1 7487   2.841   0.948   3.947
 1599SOL    HW2 7488   2.818   0.827   4.054
 1600SOL     OW 7489   3.366   1.607   3.768
 1600SOL    HW1 7490   3.274   1.644   3.775
 1600SOL    HW2 7491   3.404   1.627   3.678
 1601SOL     OW 7492   2.452   1.487   4.215
 1601SOL    HW1 7493   2.494   1.429   4.145
 1601SOL    HW2 7494   2.408   1.566   4.171
 1602SOL     OW 7495   3.571   0.385   5.105
 1602SOL    HW1 7496   3.644   0.454   5.109
 1602SOL    HW2 7497   3.599   0.310   5.046
 1603SOL     OW 7498   2.117   1.348   4.014
 1603SOL    HW1 7499   2.021   1.349   3.987
 1603SOL    HW2 7500   2.129   1.401   4.098
 1604SOL     OW 7501   1.937   0.345   3.757
 1604SOL    HW1 7502   1.845   0.317   3.728
 1604SOL    HW2 7503   1.968   0.422   3.701
 1605SOL     OW 7504   1.934   0.166   4.042
 1605SOL    HW1 7505   1.917   0.249   3.988
 1605SOL    HW2 7506   2.024   0.129   4.020
 1606SOL     OW 7507   3.045   1.335   3.843
 1606SOL    HW1 7508   2.946   1.324   3.845
 1606SOL    HW2 7509   3.079   1.350   3.936
 1607SOL     OW 7510   3.355   1.767   4.683
 1607SOL    HW1 7511   3.388   1.831   4.614
 1607SOL    HW2 7512   3.421   1.761   4.758
 1608SOL     OW 7513   3.312   1.220   5.357
 1608SOL    HW1 7514   3.303   1.210   5.456
 1608SOL    HW2 7515   3.408   1.213   5.331
 1609SOL     OW 7516   3.536   0.883   4.978
 1609SOL    HW1 7517   3.509   0.794   4.941
 1609SOL    HW2 7518   3.537   0.951   4.905
 1610SOL     OW 7519   3.087   0.325   4.173
 1610SOL    HW1 7520   3.152   0.251   4.162
 1610SOL    HW2 7521   3.107   0.375   4.257
 1611SOL     OW 7522   2.456   0.745   4.376
 1611SOL    HW1 7523   2.506   0.830   4.357
 1611SOL    HW2 7524   2.368   0.747   4.328
 1612SOL     OW 7525   3.592   0.934   5.241
 1612SOL    HW1 7526   3.630   1.025   5.256
 1612SOL    HW2 7527   3.584   0.917   5.142
 1613SOL     OW 7528   2.721   1.374   3.740
 1613SOL    HW1 7529   2.675   1.389   3.828
 1613SOL    HW2 7530   2.765   1.459   3.710
 1614SOL     OW 7531   2.523   1.790   4.677
 1614SOL    HW1 7532   2.477   1.878   4.664
 1614SOL    HW2 7533   2.622   1.802   4.670
 1615SOL     OW 7534   3.723   1.569   4.575
 1615SOL    HW1 7535   3.652   1.557   4.505
 1615SOL    HW2 7536   3.724   1.490   4.635
 1616SOL     OW 7537   3.686   0.192   4.951
 1616SOL    HW1 7538   3.682   0.102   4.995
 1616SOL    HW2 7539   3.689   0.181   4.852
 1617SOL     OW 7540   3.567   1.487   4.828
 1617SOL    HW1 7541   3.474   1.462   4.801
 1617SOL    HW2 7542   3.593   1.437   4.910
 1618SOL     OW 7543   2.674   1.586   4.411
 1618SOL    HW1 7544   2.706   1.596   4.317
 1618SOL    HW2 7545   2.595   1.524   4.413
 1619SOL     OW 7546   2.863   0.034   4.878
 1619SOL    HW1 7547   2.800  -0.038   4.847
 1619SOL    HW2 7548   2.956  -0.002   4.878
 1620SOL     OW 7549   2.632   1.330   4.025
 1620SOL    HW1 7550   2.586   1.243   4.042
 1620SOL    HW2 7551   2.723   1.327   4.066
 1621SOL     OW 7552   3.214   0.052   3.892
 1621SOL    HW1 7553   3.249   0.011   3.808
 1621SOL    HW2 7554   3.124   0.014   3.912
 1622SOL     OW 7555   3.162   0.453   4.415
 1622SOL    HW1 7556   3.103   0.533   4.419
 1622SOL    HW2 7557   3.177   0.418   4.508
 1623SOL     OW 7558   1.901   1.077   4.024
 1623SOL    HW1 7559   2.000   1.066   4.015
 1623SOL    HW2 7560   1.861   0.991   4.056
 1624SOL     OW 7561   2.737   1.646   4.061
 1624SOL    HW1 7562   2.660   1.611   4.007
 1624SOL    HW2 7563   2.705   1.717   4.123
 1625SOL     OW 7564   2.092   2.490   0.113
 1625SOL    HW1 7565   1.999   2.488   0.150
 1625SOL    HW2 7566   2.093   2.451   0.021
 1626SOL     OW 7567   2.087   2.137   0.996
 1626SOL    HW1 7568   2.122   2.120   1.088
 1626SOL    HW2 7569   1.999   2.092   0.984
 1627SOL     OW 7570   3.417   3.373   0.703
 1627SOL    HW1 7571   3.360   3.357   0.784
 1627SOL    HW2 7572   3.358   3.383   0.623
 1628SOL     OW 7573   2.997   2.565   0.717
 1628SOL    HW1 7574   3.054   2.643   0.692
 1628SOL    HW2 7575   2.937   2.591   0.793
 1629SOL     OW 7576   2.548   3.023   1.803
 1629SOL    HW1 7577   2.608   3.102   1.817
 1629SOL    HW2 7578   2.462   3.054   1.762
 1630SOL     OW 7579   2.197   3.297   1.061
 1630SOL    HW1 7580   2.119   3.266   1.008
 1630SOL    HW2 7581   2.255   3.355   1.004
 1631SOL     OW 7582   3.322   3.367   1.339
 1631SOL    HW1 7583   3.346   3.461   1.365
 1631SOL    HW2 7584   3.306   3.313   1.421
 1632SOL     OW 7585   3.465   2.309   0.737
 1632SOL    HW1 7586   3.391   2.355   0.687
 1632SOL    HW2 7587   3.516   2.377   0.790
 1633SOL     OW 7588   2.093   3.575   0.483
 1633SOL    HW1 7589   2.127   3.652   0.537
 1633SOL    HW2 7590   2.137   3.575   0.393
 1634SOL     OW 7591   2.989   3.203   1.690
 1634SOL    HW1 7592   3.036   3.203   1.778
 1634SOL    HW2 7593   2.941   3.116   1.679
 1635SOL     OW 7594   2.092   3.296   0.538
 1635SOL    HW1 7595   2.066   3.392   0.538
 1635SOL    HW2 7596   2.021   3.242   0.583
 1636SOL     OW 7597   2.468   2.826   0.123
 1636SOL    HW1 7598   2.475   2.910   0.069
 1636SOL    HW2 7599   2.514   2.839   0.211
 1637SOL     OW 7600   1.984   2.505   0.563
 1637SOL    HW1 7601   1.939   2.417   0.580
 1637SOL    HW2 7602   1.983   2.559   0.647
 1638SOL     OW 7603   3.704   3.629   0.359
 1638SOL    HW1 7604   3.758   3.600   0.439
 1638SOL    HW2 7605   3.734   3.719   0.330
 1639SOL     OW 7606   1.889   3.458   0.117
 1639SOL    HW1 7607   1.870   3.362   0.138
 1639SOL    HW2 7608   1.856   3.516   0.192
 1640SOL     OW 7609   2.671   1.866   0.502
 1640SOL    HW1 7610   2.711   1.957   0.493
 1640SOL    HW2 7611   2.571   1.874   0.508
 1641SOL     OW 7612   3.049   3.654   1.616
 1641SOL    HW1 7613   3.073   3.714   1.540
 1641SOL    HW2 7614   3.056   3.559   1.586
 1642SOL     OW 7615   2.179   2.113   1.801
 1642SOL    HW1 7616   2.250   2.184   1.807
 1642SOL    HW2 7617   2.091   2.152   1.829
 1643SOL     OW 7618   3.529   3.576   0.572
 1643SOL    HW1 7619   3.488   3.553   0.484
 1643SOL    HW2 7620   3.511   3.502   0.637
 1644SOL     OW 7621   2.460   2.591   0.270
 1644SOL    HW1 7622   2.484   2.660   0.202
 1644SOL    HW2 7623   2.382   2.624   0.324
 1645SOL     OW 7624   3.143   2.207   0.944
 1645SOL    HW1 7625   3.057   2.157   0.931
 1645SOL    HW2 7626   3.205   2.153   1.000
 1646SOL     OW 7627   3.438   3.524   0.307
 1646SOL    HW1 7628   3.527   3.570   0.310
 1646SOL    HW2 7629   3.417   3.500   0.212
 1647SOL     OW 7630   3.256   2.331   1.674
 1647SOL    HW1 7631   3.236   2.374   1.762
 1647SOL    HW2 7632   3.334   2.269   1.683
 1648SOL     OW 7633   2.835   2.752   1.572
 1648SOL    HW1 7634   2.881   2.668   1.543
 1648SOL    HW2 7635   2.779   2.786   1.497
 1649SOL     OW 7636   2.853   2.272   1.242
 1649SOL    HW1 7637   2.776   2.306   1.296
 1649SOL    HW2 7638   2.819   2.221   1.163
 1650SOL     OW 7639   3.581   2.447   1.831
 1650SOL    HW1 7640   3.555   2.536   1.795
 1650SOL    HW2 7641   3.579   2.379   1.758
 1651SOL     OW 7642   3.224   3.006   0.545
 1651SOL    HW1 7643   3.307   2.977   0.497
 1651SOL    HW2 7644   3.175   3.073   0.489
 1652SOL     OW 7645   2.412   2.058   0.885
 1652SOL    HW1 7646   2.407   2.053   0.985
 1652SOL    HW2 7647   2.414   2.154   0.856
 1653SOL     OW 7648   2.870   3.318   0.477
 1653SOL    HW1 7649   2.824   3.390   0.425
 1653SOL    HW2 7650   2.866   3.338   0.575
 1654SOL     OW 7651   2.213   3.663   0.853
 1654SOL    HW1 7652   2.263   3.577   0.859
 1654SOL    HW2 7653   2.278   3.740   0.850
 1655SOL     OW 7654   3.089   3.412   1.506
 1655SOL    HW1 7655   3.095   3.335   1.570
 1655SOL    HW2 7656   3.037   3.386   1.426
 1656SOL     OW 7657   2.183   2.805   0.242
 1656SOL    HW1 7658   2.265   2.844   0.200
 1656SOL    HW2 7659   2.156   2.723   0.193
 1657SOL     OW 7660   3.320   2.597   0.728
 1657SOL    HW1 7661   3.315   2.532   0.803
 1657SOL    HW2 7662   3.400   2.656   0.741
 1658SOL     OW 7663   2.323   3.128   1.727
 1658SOL    HW1 7664   2.273   3.129   1.641
 1658SOL    HW2 7665   2.260   3.110   1.803
 1659SOL     OW 7666   2.973   3.638   0.237
 1659SOL    HW1 7667   2.913   3.576   0.287
 1659SOL    HW2 7668   3.004   3.594   0.152
 1660SOL     OW 7669   2.064   2.147   1.498
 1660SOL    HW1 7670   1.984   2.207   1.485
 1660SOL    HW2 7671   2.054   2.098   1.584
 1661SOL     OW 7672   3.494   3.239   0.081
 1661SOL    HW1 7673   3.462   3.333   0.071
 1661SOL    HW2 7674   3.418   3.176   0.069
 1662SOL     OW 7675   2.326   3.605   0.323
 1662SOL    HW1 7676   2.359   3.644   0.409
 1662SOL    HW2 7677   2.402   3.598   0.258
 1663SOL     OW 7678   3.262   1.969   0.426
 1663SOL    HW1 7679   3.238   1.932   0.336
 1663SOL    HW2 7680   3.361   1.985   0.430
 1664SOL     OW 7681   2.802   3.560   0.904
 1664SOL    HW1 7682   2.882   3.503   0.925
 1664SOL    HW2 7683   2.753   3.520   0.827
 1665SOL     OW 7684   2.244   2.562   0.480
 1665SOL    HW1 7685   2.289   2.472   0.477
 1665SOL    HW2 7686   2.150   2.551   0.513
 1666SOL     OW 7687   3.409   2.084   1.729
 1666SOL    HW1 7688   3.404   2.121   1.821
 1666SOL    HW2 7689   3.337   2.015   1.717
 1667SOL     OW 7690   2.750   3.376   1.195
 1667SOL    HW1 7691   2.727   3.351   1.101
 1667SOL    HW2 7692   2.811   3.307   1.234
 1668SOL     OW 7693   3.213   2.452   1.433
 1668SOL    HW1 7694   3.241   2.409   1.518
 1668SOL    HW2 7695   3.238   2.548   1.434
 1669SOL     OW 7696   2.665   3.264   0.924
 1669SOL    HW1 7697   2.755   3.278   0.882
 1669SOL    HW2 7698   2.594   3.266   0.853
 1670SOL     OW 7699   2.784   2.365   0.899
 1670SOL    HW1 7700   2.759   2.356   0.803
 1670SOL    HW2 7701   2.832   2.283   0.930
 1671SOL     OW 7702   2.401   1.926   0.512
 1671SOL    HW1 7703   2.320   1.927   0.570
 1671SOL    HW2 7704   2.404   2.009   0.457
 1672SOL     OW 7705   2.159   1.897   0.171
 1672SOL    HW1 7706   2.208   1.981   0.150
 1672SOL    HW2 7707   2.221   1.832   0.216
 1673SOL     OW 7708   2.797   2.098   0.480
 1673SOL    HW1 7709   2.749   2.139   0.402
 1673SOL    HW2 7710   2.896   2.096   0.461
 1674SOL     OW 7711   2.938   2.545   1.464
 1674SOL    HW1 7712   2.858   2.484   1.467
 1674SOL    HW2 7713   3.019   2.492   1.440
 1675SOL     OW 7714   3.089   3.432   0.793
 1675SOL    HW1 7715   3.110   3.506   0.728
 1675SOL    HW2 7716   3.157   3.432   0.866
 1676SOL     OW 7717   3.133   3.659   0.591
 1676SOL    HW1 7718   3.177   3.723   0.527
 1676SOL    HW2 7719   3.083   3.711   0.661
 1677SOL     OW 7720   1.940   2.418   1.386
 1677SOL    HW1 7721   2.032   2.417   1.345
 1677SOL    HW2 7722   1.934   2.492   1.453
 1678SOL     OW 7723   2.423   2.084   1.147
 1678SOL    HW1 7724   2.461   2.000   1.184
 1678SOL    HW2 7725   2.335   2.103   1.191
 1679SOL     OW 7726   2.728   2.316   0.642
 1679SOL    HW1 7727   2.696   2.388   0.580
 1679SOL    HW2 7728   2.752   2.235   0.589
 1680SOL     OW 7729   2.350   3.247   0.174
 1680SOL    HW1 7730   2.263   3.232   0.221
 1680SOL    HW2 7731   2.333   3.273   0.079
 1681SOL     OW 7732   2.389   2.118   0.328
 1681SOL    HW1 7733   2.416   2.059   0.253
 1681SOL    HW2 7734   2.389   2.213   0.297
 1682SOL     OW 7735   2.926   3.209   1.340
 1682SOL    HW1 7736   2.846   3.186   1.395
 1682SOL    HW2 7737   3.009   3.183   1.389
 1683SOL     OW 7738   2.973   3.057   1.100
 1683SOL    HW1 7739   2.933   3.101   1.181
 1683SOL    HW2 7740   2.932   3.094   1.017
 1684SOL     OW 7741   2.777   1.951   1.402
 1684SOL    HW1 7742   2.802   1.931   1.307
 1684SOL    HW2 7743   2.849   2.007   1.444
 1685SOL     OW 7744   2.842   2.978   1.719
 1685SOL    HW1 7745   2.743   2.984   1.729
 1685SOL    HW2 7746   2.865   2.898   1.663
 1686SOL     OW 7747   2.567   2.912   0.368
 1686SOL    HW1 7748   2.553   2.919   0.467
 1686SOL    HW2 7749   2.651   2.861   0.350
 1687SOL     OW 7750   2.272   2.675   1.251
 1687SOL    HW1 7751   2.358   2.687   1.301
 1687SOL    HW2 7752   2.230   2.588   1.278
 1688SOL     OW 7753   1.926   3.426   1.331
 1688SOL    HW1 7754   1.880   3.508   1.297
 1688SOL    HW2 7755   2.024   3.445   1.340
 1689SOL     OW 7756   2.229   2.962   0.501
 1689SOL    HW1 7757   2.222   3.045   0.445
 1689SOL    HW2 7758   2.233   2.882   0.441
 1690SOL     OW 7759   3.114   3.210   0.388
 1690SOL    HW1 7760   3.164   3.287   0.428
 1690SOL    HW2 7761   3.019   3.212   0.420
 1691SOL     OW 7762   3.134   3.307   1.142
 1691SOL    HW1 7763   3.181   3.320   1.229
 1691SOL    HW2 7764   3.068   3.233   1.151
 1692SOL     OW 7765   3.444   2.501   0.472
 1692SOL    HW1 7766   3.413   2.562   0.545
 1692SOL    HW2 7767   3.494   2.553   0.403
 1693SOL     OW 7768   2.216   3.372   1.329
 1693SOL    HW1 7769   2.195   3.328   1.242
 1693SOL    HW2 7770   2.313   3.398   1.332
 1694SOL     OW 7771   2.875   1.967   1.770
 1694SOL    HW1 7772   2.881   2.052   1.718
 1694SOL    HW2 7773   2.907   1.891   1.713
 1695SOL     OW 7774   3.222   2.724   1.045
 1695SOL    HW1 7775   3.147   2.724   0.979
 1695SOL    HW2 7776   3.259   2.632   1.054
 1696SOL     OW 7777   2.169   2.075   1.231
 1696SOL    HW1 7778   2.146   2.112   1.321
 1696SOL    HW2 7779   2.139   1.980   1.225
 1697SOL     OW 7780   1.899   3.172   1.282
 1697SOL    HW1 7781   1.952   3.123   1.350
 1697SOL    HW2 7782   1.921   3.270   1.287
 1698SOL     OW 7783   2.169   1.925   0.618
 1698SOL    HW1 7784   2.158   2.019   0.651
 1698SOL    HW2 7785   2.164   1.862   0.695
 1699SOL     OW 7786   3.484   2.229   0.374
 1699SOL    HW1 7787   3.486   2.153   0.438
 1699SOL    HW2 7788   3.436   2.306   0.414
 1700SOL     OW 7789   2.885   2.628   0.966
 1700SOL    HW1 7790   2.900   2.649   1.062
 1700SOL    HW2 7791   2.855   2.533   0.957
 1701SOL     OW 7792   2.842   3.435   1.700
 1701SOL    HW1 7793   2.822   3.479   1.612
 1701SOL    HW2 7794   2.881   3.344   1.684
 1702SOL     OW 7795   3.402   2.136   0.125
 1702SOL    HW1 7796   3.341   2.061   0.148
 1702SOL    HW2 7797   3.424   2.188   0.208
 1703SOL     OW 7798   3.165   2.700   0.042
 1703SOL    HW1 7799   3.199   2.607   0.057
 1703SOL    HW2 7800   3.183   2.727  -0.053
 1704SOL     OW 7801   2.930   3.195   0.849
 1704SOL    HW1 7802   2.937   3.111   0.794
 1704SOL    HW2 7803   2.992   3.264   0.813
 1705SOL     OW 7804   2.201   2.371   1.006
 1705SOL    HW1 7805   2.149   2.288   0.989
 1705SOL    HW2 7806   2.278   2.376   0.942
 1706SOL     OW 7807   3.000   2.242   1.678
 1706SOL    HW1 7808   2.955   2.305   1.742
 1706SOL    HW2 7809   3.093   2.273   1.661
 1707SOL     OW 7810   2.366   3.430   0.910
 1707SOL    HW1 7811   2.432   3.504   0.919
 1707SOL    HW2 7812   2.410   3.351   0.868
 1708SOL     OW 7813   2.864   2.658   1.238
 1708SOL    HW1 7814   2.905   2.626   1.324
 1708SOL    HW2 7815   2.768   2.631   1.235
 1709SOL     OW 7816   1.902   2.406   1.114
 1709SOL    HW1 7817   1.987   2.373   1.073
 1709SOL    HW2 7818   1.915   2.421   1.212
 1710SOL     OW 7819   2.114   3.426   1.744
 1710SOL    HW1 7820   2.084   3.483   1.820
 1710SOL    HW2 7821   2.107   3.329   1.770
 1711SOL     OW 7822   2.792   3.540   1.465
 1711SOL    HW1 7823   2.768   3.522   1.370
 1711SOL    HW2 7824   2.822   3.634   1.475
 1712SOL     OW 7825   2.335   2.362   0.191
 1712SOL    HW1 7826   2.396   2.442   0.195
 1712SOL    HW2 7827   2.240   2.393   0.198
 1713SOL     OW 7828   2.021   2.999   1.466
 1713SOL    HW1 7829   2.043   2.938   1.542
 1713SOL    HW2 7830   2.031   2.950   1.380
 1714SOL     OW 7831   3.209   2.921   1.234
 1714SOL    HW1 7832   3.233   2.858   1.160
 1714SOL    HW2 7833   3.119   2.961   1.216
 1715SOL     OW 7834   3.114   3.593   1.128
 1715SOL    HW1 7835   3.198   3.598   1.074
 1715SOL    HW2 7836   3.091   3.497   1.146
 1716SOL     OW 7837   1.945   3.120   1.022
 1716SOL    HW1 7838   1.940   3.119   1.122
 1716SOL    HW2 7839   1.862   3.079   0.984
 1717SOL     OW 7840   2.550   3.524   1.716
 1717SOL    HW1 7841   2.494   3.605   1.725
 1717SOL    HW2 7842   2.602   3.528   1.630
 1718SOL     OW 7843   2.765   1.948   0.133
 1718SOL    HW1 7844   2.816   1.949   0.047
 1718SOL    HW2 7845   2.821   1.906   0.204
 1719SOL     OW 7846   3.588   1.997   0.523
 1719SOL    HW1 7847   3.661   1.980   0.456
 1719SOL    HW2 7848   3.557   1.910   0.561
 1720SOL     OW 7849   3.250   3.435   0.477
 1720SOL    HW1 7850   3.317   3.447   0.403
 1720SOL    HW2 7851   3.210   3.524   0.500
 1721SOL     OW 7852   1.992   3.656   1.851
 1721SOL    HW1 7853   1.951   3.582   1.904
 1721SOL    HW2 7854   2.056   3.707   1.909
 1722SOL     OW 7855   3.142   2.789   0.672
 1722SOL    HW1 7856   3.202   2.708   0.674
 1722SOL    HW2 7857   3.182   2.858   0.612
 1723SOL     OW 7858   2.692   3.135   1.422
 1723SOL    HW1 7859   2.687   3.168   1.517
 1723SOL    HW2 7860   2.606   3.154   1.376
 1724SOL     OW 7861   2.534   3.478   0.154
 1724SOL    HW1 7862   2.543   3.488   0.055
 1724SOL    HW2 7863   2.494   3.389   0.175
 1725SOL     OW 7864   3.512   3.582   1.394
 1725SOL    HW1 7865   3.565   3.592   1.310
 1725SOL    HW2 7866   3.485   3.672   1.428
 1726SOL     OW 7867   2.125   2.188   0.720
 1726SOL    HW1 7868   2.046   2.239   0.686
 1726SOL    HW2 7869   2.116   2.173   0.818
 1727SOL     OW 7870   3.056   3.474   0.031
 1727SOL    HW1 7871   3.062   3.381   0.068
 1727SOL    HW2 7872   2.997   3.474  -0.049
 1728SOL     OW 7873   2.684   2.864   1.372
 1728SOL    HW1 7874   2.724   2.863   1.280
 1728SOL    HW2 7875   2.694   2.956   1.412
 1729SOL     OW 7876   3.366   3.469   0.044
 1729SOL    HW1 7877   3.274   3.506   0.051
 1729SOL    HW2 7878   3.404   3.489  -0.046
 1730SOL     OW 7879   2.234   3.150   1.490
 1730SOL    HW1 7880   2.221   3.243   1.456
 1730SOL    HW2 7881   2.150   3.098   1.477
 1731SOL     OW 7882   3.476   3.154   1.289
 1731SOL    HW1 7883   3.536   3.157   1.369
 1731SOL    HW2 7884   3.401   3.218   1.302
 1732SOL     OW 7885   2.901   2.960   0.696
 1732SOL    HW1 7886   2.831   2.913   0.750
 1732SOL    HW2 7887   2.960   2.892   0.653
 1733SOL     OW 7888   2.876   2.098   0.971
 1733SOL    HW1 7889   2.868   2.062   0.878
 1733SOL    HW2 7890   2.874   2.022   1.036
 1734SOL     OW 7891   2.452   3.349   0.491
 1734SOL    HW1 7892   2.494   3.291   0.421
 1734SOL    HW2 7893   2.408   3.428   0.447
 1735SOL     OW 7894   2.117   3.210   0.290
 1735SOL    HW1 7895   2.021   3.211   0.263
 1735SOL    HW2 7896   2.129   3.263   0.374
 1736SOL     OW 7897   3.302   2.718   1.398
 1736SOL    HW1 7898   3.245   2.770   1.335
 1736SOL    HW2 7899   3.398   2.730   1.374
 1737SOL     OW 7900   1.934   2.028   0.318
 1737SOL    HW1 7901   1.917   2.111   0.264
 1737SOL    HW2 7902   2.024   1.991   0.296
 1738SOL     OW 7903   3.355   3.629   0.959
 1738SOL    HW1 7904   3.388   3.693   0.890
 1738SOL    HW2 7905   3.421   3.623   1.034
 1739SOL     OW 7906   3.536   2.745   1.254
 1739SOL    HW1 7907   3.509   2.656   1.217
 1739SOL    HW2 7908   3.537   2.813   1.181
 1740SOL     OW 7909   3.087   2.187   0.449
 1740SOL    HW1 7910   3.152   2.113   0.438
 1740SOL    HW2 7911   3.107   2.237   0.533
 1741SOL     OW 7912   2.456   2.607   0.652
 1741SOL    HW1 7913   2.506   2.692   0.633
 1741SOL    HW2 7914   2.368   2.609   0.604
 1742SOL     OW 7915   3.639   2.204   1.642
 1742SOL    HW1 7916   3.622   2.235   1.548
 1742SOL    HW2 7917   3.555   2.167   1.680
 1743SOL     OW 7918   2.721   3.236   0.016
 1743SOL    HW1 7919   2.675   3.251   0.104
 1743SOL    HW2 7920   2.765   3.321  -0.014
 1744SOL     OW 7921   2.523   3.652   0.953
 1744SOL    HW1 7922   2.477   3.740   0.940
 1744SOL    HW2 7923   2.622   3.664   0.946
 1745SOL     OW 7924   2.721   2.818   0.861
 1745SOL    HW1 7925   2.775   2.749   0.909
 1745SOL    HW2 7926   2.689   2.887   0.927
 1746SOL     OW 7927   2.945   2.846   0.087
 1746SOL    HW1 7928   2.922   2.899   0.005
 1746SOL    HW2 7929   3.026   2.790   0.068
 1747SOL     OW 7930   2.083   3.176   1.844
 1747SOL    HW1 7931   2.018   3.103   1.823
 1747SOL    HW2 7932   2.087   3.190   1.942
 1748SOL     OW 7933   1.941   3.102   0.653
 1748SOL    HW1 7934   1.940   3.055   0.741
 1748SOL    HW2 7935   2.023   3.074   0.602
 1749SOL     OW 7936   2.534   3.253   1.624
 1749SOL    HW1 7937   2.456   3.203   1.662
 1749SOL    HW2 7938   2.531   3.348   1.655
 1750SOL     OW 7939   2.290   2.286   0.520
 1750SOL    HW1 7940   2.320   2.214   0.458
 1750SOL    HW2 7941   2.251   2.246   0.603
 1751SOL     OW 7942   2.179   2.409   1.280
 1751SOL    HW1 7943   2.217   2.350   1.352
 1751SOL    HW2 7944   2.219   2.383   1.192
 1752SOL     OW 7945   2.674   3.448   0.687
 1752SOL    HW1 7946   2.706   3.458   0.593
 1752SOL    HW2 7947   2.595   3.386   0.689
 1753SOL     OW 7948   2.863   1.896   1.154
 1753SOL    HW1 7949   2.800   1.824   1.123
 1753SOL    HW2 7950   2.956   1.860   1.154
 1754SOL     OW 7951   2.632   3.192   0.301
 1754SOL    HW1 7952   2.586   3.105   0.318
 1754SOL    HW2 7953   2.723   3.189   0.342
 1755SOL     OW 7954   2.480   3.429   1.284
 1755SOL    HW1 7955   2.475   3.511   1.341
 1755SOL    HW2 7956   2.569   3.426   1.239
 1756SOL     OW 7957   3.214   1.914   0.168
 1756SOL    HW1 7958   3.249   1.873   0.084
 1756SOL    HW2 7959   3.124   1.876   0.188
 1757SOL     OW 7960   3.162   2.315   0.691
 1757SOL    HW1 7961   3.103   2.395   0.695
 1757SOL    HW2 7962   3.177   2.280   0.784
 1758SOL     OW 7963   3.455   2.083   0.882
 1758SOL    HW1 7964   3.371   2.082   0.936
 1758SOL    HW2 7965   3.457   2.166   0.826
 1759SOL     OW 7966   1.901   2.939   0.300
 1759SOL    HW1 7967   2.000   2.928   0.291
 1759SOL    HW2 7968   1.861   2.853   0.332
 1760SOL     OW 7969   2.737   3.508   0.337
 1760SOL    HW1 7970   2.660   3.473   0.283
 1760SOL    HW2 7971   2.705   3.579   0.399
 1761SOL     OW 7972   2.092   2.490   1.975
 1761SOL    HW1 7973   1.999   2.488   2.012
 1761SOL    HW2 7974   2.093   2.451   1.883
 1762SOL     OW 7975   2.087   2.137   2.858
 1762SOL    HW1 7976   2.122   2.120   2.950
 1762SOL    HW2 7977   1.999   2.092   2.846
 1763SOL     OW 7978   1.881   2.230   2.509
 1763SOL    HW1 7979   1.799   2.273   2.548
 1763SOL    HW2 7980   1.853   2.157   2.446
 1764SOL     OW 7981   2.431   3.137   3.027
 1764SOL    HW1 7982   2.338   3.130   2.990
 1764SOL    HW2 7983   2.442   3.226   3.071
 1765SOL     OW 7984   3.417   3.373   2.565
 1765SOL    HW1 7985   3.360   3.357   2.646
 1765SOL    HW2 7986   3.358   3.383   2.485
 1766SOL     OW 7987   2.630   3.006   2.885
 1766SOL    HW1 7988   2.552   3.023   2.945
 1766SOL    HW2 7989   2.664   3.093   2.849
 1767SOL     OW 7990   2.712   2.660   3.685
 1767SOL    HW1 7991   2.708   2.736   3.750
 1767SOL    HW2 7992   2.734   2.696   3.594
 1768SOL     OW 7993   2.548   3.023   3.665
 1768SOL    HW1 7994   2.608   3.102   3.679
 1768SOL    HW2 7995   2.462   3.054   3.624
 1769SOL     OW 7996   2.197   3.297   2.923
 1769SOL    HW1 7997   2.119   3.266   2.870
 1769SOL    HW2 7998   2.255   3.355   2.866
 1770SOL     OW 7999   3.322   3.367   3.201
 1770SOL    HW1 8000   3.346   3.461   3.227
 1770SOL    HW2 8001   3.306   3.313   3.283
 1771SOL     OW 8002   3.465   2.309   2.599
 1771SOL    HW1 8003   3.391   2.355   2.549
 1771SOL    HW2 8004   3.516   2.377   2.652
 1772SOL     OW 8005   2.093   3.575   2.345
 1772SOL    HW1 8006   2.127   3.652   2.399
 1772SOL    HW2 8007   2.137   3.575   2.255
 1773SOL     OW 8008   2.989   3.203   3.552
 1773SOL    HW1 8009   3.036   3.203   3.640
 1773SOL    HW2 8010   2.941   3.116   3.541
 1774SOL     OW 8011   2.092   3.296   2.400
 1774SOL    HW1 8012   2.066   3.392   2.400
 1774SOL    HW2 8013   2.021   3.242   2.445
 1775SOL     OW 8014   2.102   2.953   2.748
 1775SOL    HW1 8015   2.116   2.869   2.800
 1775SOL    HW2 8016   2.047   3.017   2.803
 1776SOL     OW 8017   2.468   2.826   1.985
 1776SOL    HW1 8018   2.475   2.910   1.931
 1776SOL    HW2 8019   2.514   2.839   2.073
 1777SOL     OW 8020   3.456   1.976   3.342
 1777SOL    HW1 8021   3.438   2.043   3.270
 1777SOL    HW2 8022   3.453   2.022   3.431
 1778SOL     OW 8023   3.704   3.629   2.221
 1778SOL    HW1 8024   3.758   3.600   2.301
 1778SOL    HW2 8025   3.734   3.719   2.192
 1779SOL     OW 8026   1.889   3.458   1.979
 1779SOL    HW1 8027   1.870   3.362   2.000
 1779SOL    HW2 8028   1.856   3.516   2.054
 1780SOL     OW 8029   3.551   2.784   2.474
 1780SOL    HW1 8030   3.646   2.755   2.482
 1780SOL    HW2 8031   3.543   2.849   2.399
 1781SOL     OW 8032   3.503   2.970   2.294
 1781SOL    HW1 8033   3.589   2.972   2.242
 1781SOL    HW2 8034   3.517   3.017   2.382
 1782SOL     OW 8035   2.475   3.227   2.588
 1782SOL    HW1 8036   2.426   3.140   2.597
 1782SOL    HW2 8037   2.452   3.270   2.501
 1783SOL     OW 8038   3.155   3.090   3.285
 1783SOL    HW1 8039   3.192   3.017   3.227
 1783SOL    HW2 8040   3.207   3.095   3.370
 1784SOL     OW 8041   2.671   1.866   2.364
 1784SOL    HW1 8042   2.711   1.957   2.355
 1784SOL    HW2 8043   2.571   1.874   2.370
 1785SOL     OW 8044   2.059   2.838   3.126
 1785SOL    HW1 8045   2.148   2.793   3.112
 1785SOL    HW2 8046   1.986   2.773   3.107
 1786SOL     OW 8047   3.387   2.861   2.052
 1786SOL    HW1 8048   3.324   2.785   2.065
 1786SOL    HW2 8049   3.435   2.879   2.138
 1787SOL     OW 8050   3.049   3.654   3.478
 1787SOL    HW1 8051   3.073   3.714   3.402
 1787SOL    HW2 8052   3.056   3.559   3.448
 1788SOL     OW 8053   3.328   3.279   2.815
 1788SOL    HW1 8054   3.269   3.285   2.895
 1788SOL    HW2 8055   3.313   3.191   2.769
 1789SOL     OW 8056   3.529   3.576   2.434
 1789SOL    HW1 8057   3.488   3.553   2.346
 1789SOL    HW2 8058   3.511   3.502   2.499
 1790SOL     OW 8059   3.143   2.207   2.806
 1790SOL    HW1 8060   3.057   2.157   2.793
 1790SOL    HW2 8061   3.205   2.153   2.862
 1791SOL     OW 8062   3.438   3.524   2.169
 1791SOL    HW1 8063   3.527   3.570   2.172
 1791SOL    HW2 8064   3.417   3.500   2.074
 1792SOL     OW 8065   2.669   2.467   3.327
 1792SOL    HW1 8066   2.622   2.464   3.416
 1792SOL    HW2 8067   2.618   2.412   3.261
 1793SOL     OW 8068   2.835   2.752   3.434
 1793SOL    HW1 8069   2.881   2.668   3.405
 1793SOL    HW2 8070   2.779   2.786   3.359
 1794SOL     OW 8071   2.853   2.272   3.104
 1794SOL    HW1 8072   2.776   2.306   3.158
 1794SOL    HW2 8073   2.819   2.221   3.025
 1795SOL     OW 8074   2.903   2.563   2.291
 1795SOL    HW1 8075   2.929   2.559   2.387
 1795SOL    HW2 8076   2.818   2.512   2.277
 1796SOL     OW 8077   1.938   2.673   2.651
 1796SOL    HW1 8078   2.037   2.661   2.660
 1796SOL    HW2 8079   1.914   2.768   2.672
 1797SOL     OW 8080   1.992   3.683   3.433
 1797SOL    HW1 8081   1.982   3.668   3.532
 1797SOL    HW2 8082   1.906   3.719   3.397
 1798SOL     OW 8083   2.727   2.210   2.057
 1798SOL    HW1 8084   2.786   2.273   2.008
 1798SOL    HW2 8085   2.746   2.116   2.028
 1799SOL     OW 8086   3.224   3.006   2.407
 1799SOL    HW1 8087   3.307   2.977   2.359
 1799SOL    HW2 8088   3.175   3.073   2.351
 1800SOL     OW 8089   2.412   2.058   2.747
 1800SOL    HW1 8090   2.407   2.053   2.847
 1800SOL    HW2 8091   2.414   2.154   2.718
 1801SOL     OW 8092   2.870   3.318   2.339
 1801SOL    HW1 8093   2.824   3.390   2.287
 1801SOL    HW2 8094   2.866   3.338   2.437
 1802SOL     OW 8095   2.213   3.663   2.715
 1802SOL    HW1 8096   2.263   3.577   2.721
 1802SOL    HW2 8097   2.278   3.740   2.712
 1803SOL     OW 8098   3.657   2.928   2.735
 1803SOL    HW1 8099   3.595   2.913   2.659
 1803SOL    HW2 8100   3.605   2.939   2.820
 1804SOL     OW 8101   3.089   3.412   3.368
 1804SOL    HW1 8102   3.095   3.335   3.432
 1804SOL    HW2 8103   3.037   3.386   3.288
 1805SOL     OW 8104   2.183   2.805   2.104
 1805SOL    HW1 8105   2.265   2.844   2.062
 1805SOL    HW2 8106   2.156   2.723   2.055
 1806SOL     OW 8107   3.320   2.597   2.590
 1806SOL    HW1 8108   3.315   2.532   2.665
 1806SOL    HW2 8109   3.400   2.656   2.603
 1807SOL     OW 8110   2.323   3.128   3.589
 1807SOL    HW1 8111   2.273   3.129   3.503
 1807SOL    HW2 8112   2.260   3.110   3.665
 1808SOL     OW 8113   2.064   2.147   3.360
 1808SOL    HW1 8114   1.984   2.207   3.347
 1808SOL    HW2 8115   2.054   2.098   3.446
 1809SOL     OW 8116   3.494   3.239   1.943
 1809SOL    HW1 8117   3.462   3.333   1.933
 1809SOL    HW2 8118   3.418   3.176   1.931
 1810SOL     OW 8119   2.326   3.605   2.185
 1810SOL    HW1 8120   2.359   3.644   2.271
 1810SOL    HW2 8121   2.402   3.598   2.120
 1811SOL     OW 8122   2.111   3.647   3.103
 1811SOL    HW1 8123   2.168   3.582   3.153
 1811SOL    HW2 8124   2.095   3.614   3.010
 1812SOL     OW 8125   2.802   3.560   2.766
 1812SOL    HW1 8126   2.882   3.503   2.787
 1812SOL    HW2 8127   2.753   3.520   2.689
 1813SOL     OW 8128   2.643   2.126   3.611
 1813SOL    HW1 8129   2.710   2.065   3.654
 1813SOL    HW2 8130   2.570   2.145   3.676
 1814SOL     OW 8131   2.750   3.376   3.057
 1814SOL    HW1 8132   2.727   3.351   2.963
 1814SOL    HW2 8133   2.811   3.307   3.096
 1815SOL     OW 8134   3.213   2.452   3.295
 1815SOL    HW1 8135   3.241   2.409   3.380
 1815SOL    HW2 8136   3.238   2.548   3.296
 1816SOL     OW 8137   2.665   3.264   2.786
 1816SOL    HW1 8138   2.755   3.278   2.744
 1816SOL    HW2 8139   2.594   3.266   2.715
 1817SOL     OW 8140   2.401   1.926   2.374
 1817SOL    HW1 8141   2.320   1.927   2.432
 1817SOL    HW2 8142   2.404   2.009   2.319
 1818SOL     OW 8143   3.296   3.050   1.903
 1818SOL    HW1 8144   3.328   2.974   1.960
 1818SOL    HW2 8145   3.204   3.077   1.933
 1819SOL     OW 8146   2.159   1.897   2.033
 1819SOL    HW1 8147   2.208   1.981   2.012
 1819SOL    HW2 8148   2.221   1.832   2.078
 1820SOL     OW 8149   2.797   2.098   2.342
 1820SOL    HW1 8150   2.749   2.139   2.264
 1820SOL    HW2 8151   2.896   2.096   2.323
 1821SOL     OW 8152   2.938   2.545   3.326
 1821SOL    HW1 8153   2.858   2.484   3.329
 1821SOL    HW2 8154   3.019   2.492   3.302
 1822SOL     OW 8155   2.321   3.014   2.603
 1822SOL    HW1 8156   2.250   2.987   2.668
 1822SOL    HW2 8157   2.295   2.986   2.510
 1823SOL     OW 8158   2.894   2.411   1.878
 1823SOL    HW1 8159   2.853   2.493   1.839
 1823SOL    HW2 8160   2.958   2.437   1.951
 1824SOL     OW 8161   1.940   2.418   3.248
 1824SOL    HW1 8162   2.032   2.417   3.207
 1824SOL    HW2 8163   1.934   2.492   3.315
 1825SOL     OW 8164   2.423   2.084   3.009
 1825SOL    HW1 8165   2.461   2.000   3.046
 1825SOL    HW2 8166   2.335   2.103   3.053
 1826SOL     OW 8167   2.879   1.901   2.615
 1826SOL    HW1 8168   2.807   1.906   2.546
 1826SOL    HW2 8169   2.855   1.832   2.684
 1827SOL     OW 8170   3.291   3.035   2.729
 1827SOL    HW1 8171   3.236   2.951   2.722
 1827SOL    HW2 8172   3.317   3.064   2.637
 1828SOL     OW 8173   3.328   2.452   2.854
 1828SOL    HW1 8174   3.298   2.357   2.861
 1828SOL    HW2 8175   3.401   2.468   2.920
 1829SOL     OW 8176   3.719   2.695   2.239
 1829SOL    HW1 8177   3.761   2.631   2.303
 1829SOL    HW2 8178   3.681   2.644   2.161
 1830SOL     OW 8179   2.350   3.247   2.036
 1830SOL    HW1 8180   2.263   3.232   2.083
 1830SOL    HW2 8181   2.333   3.273   1.941
 1831SOL     OW 8182   3.526   3.142   2.519
 1831SOL    HW1 8183   3.625   3.150   2.533
 1831SOL    HW2 8184   3.481   3.226   2.550
 1832SOL     OW 8185   3.252   2.437   1.940
 1832SOL    HW1 8186   3.198   2.416   2.021
 1832SOL    HW2 8187   3.343   2.396   1.949
 1833SOL     OW 8188   2.389   2.118   2.190
 1833SOL    HW1 8189   2.416   2.059   2.115
 1833SOL    HW2 8190   2.389   2.213   2.159
 1834SOL     OW 8191   3.616   3.085   3.450
 1834SOL    HW1 8192   3.707   3.046   3.437
 1834SOL    HW2 8193   3.624   3.181   3.474
 1835SOL     OW 8194   2.926   3.209   3.202
 1835SOL    HW1 8195   2.846   3.186   3.257
 1835SOL    HW2 8196   3.009   3.183   3.251
 1836SOL     OW 8197   3.454   3.491   3.487
 1836SOL    HW1 8198   3.481   3.525   3.397
 1836SOL    HW2 8199   3.533   3.453   3.533
 1837SOL     OW 8200   2.973   3.057   2.962
 1837SOL    HW1 8201   2.933   3.101   3.043
 1837SOL    HW2 8202   2.932   3.094   2.879
 1838SOL     OW 8203   3.500   2.961   2.941
 1838SOL    HW1 8204   3.505   3.042   3.000
 1838SOL    HW2 8205   3.414   2.963   2.890
 1839SOL     OW 8206   2.777   1.951   3.264
 1839SOL    HW1 8207   2.802   1.931   3.169
 1839SOL    HW2 8208   2.849   2.007   3.306
 1840SOL     OW 8209   2.842   2.978   3.581
 1840SOL    HW1 8210   2.743   2.984   3.591
 1840SOL    HW2 8211   2.865   2.898   3.525
 1841SOL     OW 8212   3.136   2.248   3.124
 1841SOL    HW1 8213   3.157   2.322   3.188
 1841SOL    HW2 8214   3.047   2.265   3.081
 1842SOL     OW 8215   1.926   3.426   3.193
 1842SOL    HW1 8216   1.880   3.508   3.159
 1842SOL    HW2 8217   2.024   3.445   3.202
 1843SOL     OW 8218   2.229   2.962   2.363
 1843SOL    HW1 8219   2.222   3.045   2.307
 1843SOL    HW2 8220   2.233   2.882   2.303
 1844SOL     OW 8221   3.114   3.210   2.250
 1844SOL    HW1 8222   3.164   3.287   2.290
 1844SOL    HW2 8223   3.019   3.212   2.282
 1845SOL     OW 8224   3.134   3.307   3.004
 1845SOL    HW1 8225   3.181   3.320   3.091
 1845SOL    HW2 8226   3.068   3.233   3.013
 1846SOL     OW 8227   3.444   2.501   2.334
 1846SOL    HW1 8228   3.413   2.562   2.407
 1846SOL    HW2 8229   3.494   2.553   2.265
 1847SOL     OW 8230   2.216   3.372   3.191
 1847SOL    HW1 8231   2.195   3.328   3.104
 1847SOL    HW2 8232   2.313   3.398   3.194
 1848SOL     OW 8233   2.875   1.967   3.632
 1848SOL    HW1 8234   2.881   2.052   3.580
 1848SOL    HW2 8235   2.907   1.891   3.575
 1849SOL     OW 8236   2.435   2.732   2.891
 1849SOL    HW1 8237   2.479   2.821   2.882
 1849SOL    HW2 8238   2.372   2.732   2.968
 1850SOL     OW 8239   3.222   2.724   2.907
 1850SOL    HW1 8240   3.147   2.724   2.841
 1850SOL    HW2 8241   3.259   2.632   2.916
 1851SOL     OW 8242   3.071   2.387   2.137
 1851SOL    HW1 8243   3.084   2.303   2.191
 1851SOL    HW2 8244   3.042   2.461   2.197
 1852SOL     OW 8245   2.169   2.075   3.093
 1852SOL    HW1 8246   2.146   2.112   3.183
 1852SOL    HW2 8247   2.139   1.980   3.087
 1853SOL     OW 8248   1.899   3.172   3.144
 1853SOL    HW1 8249   1.952   3.123   3.212
 1853SOL    HW2 8250   1.921   3.270   3.149
 1854SOL     OW 8251   2.169   1.925   2.480
 1854SOL    HW1 8252   2.158   2.019   2.513
 1854SOL    HW2 8253   2.164   1.862   2.557
 1855SOL     OW 8254   2.885   2.628   2.828
 1855SOL    HW1 8255   2.900   2.649   2.924
 1855SOL    HW2 8256   2.855   2.533   2.819
 1856SOL     OW 8257   2.842   3.435   3.562
 1856SOL    HW1 8258   2.822   3.479   3.474
 1856SOL    HW2 8259   2.881   3.344   3.546
 1857SOL     OW 8260   3.721   3.380   3.467
 1857SOL    HW1 8261   3.735   3.407   3.372
 1857SOL    HW2 8262   3.804   3.402   3.520
 1858SOL     OW 8263   3.402   2.136   1.987
 1858SOL    HW1 8264   3.341   2.061   2.010
 1858SOL    HW2 8265   3.424   2.188   2.070
 1859SOL     OW 8266   3.165   2.700   1.904
 1859SOL    HW1 8267   3.199   2.607   1.919
 1859SOL    HW2 8268   3.183   2.727   1.809
 1860SOL     OW 8269   2.930   3.195   2.711
 1860SOL    HW1 8270   2.937   3.111   2.656
 1860SOL    HW2 8271   2.992   3.264   2.675
 1861SOL     OW 8272   2.181   2.672   2.811
 1861SOL    HW1 8273   2.274   2.708   2.816
 1861SOL    HW2 8274   2.175   2.587   2.863
 1862SOL     OW 8275   2.201   2.371   2.868
 1862SOL    HW1 8276   2.149   2.288   2.851
 1862SOL    HW2 8277   2.278   2.376   2.804
 1863SOL     OW 8278   3.000   2.242   3.540
 1863SOL    HW1 8279   2.955   2.305   3.604
 1863SOL    HW2 8280   3.093   2.273   3.523
 1864SOL     OW 8281   3.022   2.069   3.339
 1864SOL    HW1 8282   3.022   2.133   3.416
 1864SOL    HW2 8283   3.050   2.117   3.256
 1865SOL     OW 8284   1.870   3.188   2.062
 1865SOL    HW1 8285   1.777   3.209   2.031
 1865SOL    HW2 8286   1.880   3.089   2.075
 1866SOL     OW 8287   2.366   3.430   2.772
 1866SOL    HW1 8288   2.432   3.504   2.781
 1866SOL    HW2 8289   2.410   3.351   2.730
 1867SOL     OW 8290   2.864   2.658   3.100
 1867SOL    HW1 8291   2.905   2.626   3.186
 1867SOL    HW2 8292   2.768   2.631   3.097
 1868SOL     OW 8293   1.902   2.406   2.976
 1868SOL    HW1 8294   1.987   2.373   2.935
 1868SOL    HW2 8295   1.915   2.421   3.074
 1869SOL     OW 8296   3.231   2.812   3.522
 1869SOL    HW1 8297   3.270   2.901   3.542
 1869SOL    HW2 8298   3.241   2.792   3.425
 1870SOL     OW 8299   2.677   2.434   2.187
 1870SOL    HW1 8300   2.684   2.345   2.141
 1870SOL    HW2 8301   2.583   2.468   2.179
 1871SOL     OW 8302   3.519   2.466   3.068
 1871SOL    HW1 8303   3.481   2.397   3.130
 1871SOL    HW2 8304   3.601   2.430   3.024
 1872SOL     OW 8305   2.114   3.426   3.606
 1872SOL    HW1 8306   2.084   3.483   3.682
 1872SOL    HW2 8307   2.107   3.329   3.632
 1873SOL     OW 8308   2.533   2.326   3.131
 1873SOL    HW1 8309   2.499   2.237   3.101
 1873SOL    HW2 8310   2.559   2.380   3.051
 1874SOL     OW 8311   2.792   3.540   3.327
 1874SOL    HW1 8312   2.768   3.522   3.232
 1874SOL    HW2 8313   2.822   3.634   3.337
 1875SOL     OW 8314   3.209   2.921   3.096
 1875SOL    HW1 8315   3.233   2.858   3.022
 1875SOL    HW2 8316   3.119   2.961   3.078
 1876SOL     OW 8317   3.164   2.717   2.171
 1876SOL    HW1 8318   3.078   2.686   2.213
 1876SOL    HW2 8319   3.160   2.703   2.072
 1877SOL     OW 8320   3.621   3.609   3.016
 1877SOL    HW1 8321   3.682   3.639   2.943
 1877SOL    HW2 8322   3.583   3.520   2.994
 1878SOL     OW 8323   3.114   3.593   2.990
 1878SOL    HW1 8324   3.198   3.598   2.936
 1878SOL    HW2 8325   3.091   3.497   3.008
 1879SOL     OW 8326   1.945   3.120   2.884
 1879SOL    HW1 8327   1.940   3.119   2.984
 1879SOL    HW2 8328   1.862   3.079   2.846
 1880SOL     OW 8329   2.550   3.524   3.578
 1880SOL    HW1 8330   2.494   3.605   3.587
 1880SOL    HW2 8331   2.602   3.528   3.492
 1881SOL     OW 8332   3.588   1.997   2.385
 1881SOL    HW1 8333   3.661   1.980   2.318
 1881SOL    HW2 8334   3.557   1.910   2.423
 1882SOL     OW 8335   1.992   3.656   3.713
 1882SOL    HW1 8336   1.951   3.582   3.766
 1882SOL    HW2 8337   2.056   3.707   3.771
 1883SOL     OW 8338   3.142   2.789   2.534
 1883SOL    HW1 8339   3.202   2.708   2.536
 1883SOL    HW2 8340   3.182   2.858   2.474
 1884SOL     OW 8341   2.692   3.135   3.284
 1884SOL    HW1 8342   2.687   3.168   3.379
 1884SOL    HW2 8343   2.606   3.154   3.238
 1885SOL     OW 8344   2.534   3.478   2.016
 1885SOL    HW1 8345   2.543   3.488   1.917
 1885SOL    HW2 8346   2.494   3.389   2.037
 1886SOL     OW 8347   3.512   3.582   3.256
 1886SOL    HW1 8348   3.565   3.592   3.172
 1886SOL    HW2 8349   3.485   3.672   3.290
 1887SOL     OW 8350   3.703   2.037   2.825
 1887SOL    HW1 8351   3.742   1.952   2.789
 1887SOL    HW2 8352   3.605   2.039   2.806
 1888SOL     OW 8353   3.056   3.474   1.893
 1888SOL    HW1 8354   3.062   3.381   1.930
 1888SOL    HW2 8355   2.997   3.474   1.813
 1889SOL     OW 8356   2.684   2.864   3.234
 1889SOL    HW1 8357   2.724   2.863   3.142
 1889SOL    HW2 8358   2.694   2.956   3.274
 1890SOL     OW 8359   2.778   2.772   2.153
 1890SOL    HW1 8360   2.841   2.810   2.085
 1890SOL    HW2 8361   2.818   2.689   2.192
 1891SOL     OW 8362   3.366   3.469   1.906
 1891SOL    HW1 8363   3.274   3.506   1.913
 1891SOL    HW2 8364   3.404   3.489   1.816
 1892SOL     OW 8365   3.476   3.154   3.151
 1892SOL    HW1 8366   3.536   3.157   3.231
 1892SOL    HW2 8367   3.401   3.218   3.164
 1893SOL     OW 8368   2.901   2.960   2.558
 1893SOL    HW1 8369   2.831   2.913   2.612
 1893SOL    HW2 8370   2.960   2.892   2.515
 1894SOL     OW 8371   2.876   2.098   2.833
 1894SOL    HW1 8372   2.868   2.062   2.740
 1894SOL    HW2 8373   2.874   2.022   2.898
 1895SOL     OW 8374   2.452   3.349   2.353
 1895SOL    HW1 8375   2.494   3.291   2.283
 1895SOL    HW2 8376   2.408   3.428   2.309
 1896SOL     OW 8377   2.117   3.210   2.152
 1896SOL    HW1 8378   2.021   3.211   2.125
 1896SOL    HW2 8379   2.129   3.263   2.236
 1897SOL     OW 8380   2.534   2.065   3.351
 1897SOL    HW1 8381   2.624   2.049   3.311
 1897SOL    HW2 8382   2.542   2.070   3.450
 1898SOL     OW 8383   3.302   2.718   3.260
 1898SOL    HW1 8384   3.245   2.770   3.197
 1898SOL    HW2 8385   3.398   2.730   3.236
 1899SOL     OW 8386   3.045   3.197   1.981
 1899SOL    HW1 8387   2.946   3.186   1.983
 1899SOL    HW2 8388   3.079   3.212   2.074
 1900SOL     OW 8389   2.578   2.427   3.570
 1900SOL    HW1 8390   2.597   2.492   3.644
 1900SOL    HW2 8391   2.638   2.347   3.579
 1901SOL     OW 8392   3.312   3.082   3.495
 1901SOL    HW1 8393   3.303   3.072   3.594
 1901SOL    HW2 8394   3.408   3.075   3.469
 1902SOL     OW 8395   2.252   3.603   3.422
 1902SOL    HW1 8396   2.161   3.644   3.420
 1902SOL    HW2 8397   2.245   3.509   3.454
 1903SOL     OW 8398   3.536   2.745   3.116
 1903SOL    HW1 8399   3.509   2.656   3.079
 1903SOL    HW2 8400   3.537   2.813   3.043
 1904SOL     OW 8401   3.087   2.187   2.311
 1904SOL    HW1 8402   3.152   2.113   2.300
 1904SOL    HW2 8403   3.107   2.237   2.395
 1905SOL     OW 8404   3.592   2.796   3.379
 1905SOL    HW1 8405   3.630   2.887   3.394
 1905SOL    HW2 8406   3.584   2.779   3.280
 1906SOL     OW 8407   2.721   3.236   1.878
 1906SOL    HW1 8408   2.675   3.251   1.966
 1906SOL    HW2 8409   2.765   3.321   1.848
 1907SOL     OW 8410   2.523   3.652   2.815
 1907SOL    HW1 8411   2.477   3.740   2.802
 1907SOL    HW2 8412   2.622   3.664   2.808
 1908SOL     OW 8413   2.945   2.846   1.949
 1908SOL    HW1 8414   2.922   2.899   1.867
 1908SOL    HW2 8415   3.026   2.790   1.930
 1909SOL     OW 8416   3.723   3.431   2.713
 1909SOL    HW1 8417   3.652   3.419   2.643
 1909SOL    HW2 8418   3.724   3.352   2.773
 1910SOL     OW 8419   2.083   3.176   3.706
 1910SOL    HW1 8420   2.018   3.103   3.685
 1910SOL    HW2 8421   2.087   3.190   3.804
 1911SOL     OW 8422   1.941   3.102   2.515
 1911SOL    HW1 8423   1.940   3.055   2.603
 1911SOL    HW2 8424   2.023   3.074   2.464
 1912SOL     OW 8425   2.534   3.253   3.486
 1912SOL    HW1 8426   2.456   3.203   3.524
 1912SOL    HW2 8427   2.531   3.348   3.517
 1913SOL     OW 8428   3.686   2.054   3.089
 1913SOL    HW1 8429   3.682   1.964   3.133
 1913SOL    HW2 8430   3.689   2.043   2.990
 1914SOL     OW 8431   3.567   3.349   2.966
 1914SOL    HW1 8432   3.474   3.324   2.939
 1914SOL    HW2 8433   3.593   3.299   3.048
 1915SOL     OW 8434   2.179   2.409   3.142
 1915SOL    HW1 8435   2.217   2.350   3.214
 1915SOL    HW2 8436   2.219   2.383   3.054
 1916SOL     OW 8437   2.674   3.448   2.549
 1916SOL    HW1 8438   2.706   3.458   2.455
 1916SOL    HW2 8439   2.595   3.386   2.551
 1917SOL     OW 8440   3.286   2.076   2.974
 1917SOL    HW1 8441   3.338   2.011   3.029
 1917SOL    HW2 8442   3.237   2.139   3.035
 1918SOL     OW 8443   2.863   1.896   3.016
 1918SOL    HW1 8444   2.800   1.824   2.985
 1918SOL    HW2 8445   2.956   1.860   3.016
 1919SOL     OW 8446   2.632   3.192   2.163
 1919SOL    HW1 8447   2.586   3.105   2.180
 1919SOL    HW2 8448   2.723   3.189   2.204
 1920SOL     OW 8449   2.480   3.429   3.146
 1920SOL    HW1 8450   2.475   3.511   3.203
 1920SOL    HW2 8451   2.569   3.426   3.101
 1921SOL     OW 8452   3.214   1.914   2.030
 1921SOL    HW1 8453   3.249   1.873   1.946
 1921SOL    HW2 8454   3.124   1.876   2.050
 1922SOL     OW 8455   3.455   2.083   2.744
 1922SOL    HW1 8456   3.371   2.082   2.798
 1922SOL    HW2 8457   3.457   2.166   2.688
 1923SOL     OW 8458   1.901   2.939   2.162
 1923SOL    HW1 8459   2.000   2.928   2.153
 1923SOL    HW2 8460   1.861   2.853   2.194
 1924SOL     OW 8461   2.737   3.508   2.199
 1924SOL    HW1 8462   2.660   3.473   2.145
 1924SOL    HW2 8463   2.705   3.579   2.261
 1925SOL     OW 8464   2.092   2.490   3.837
 1925SOL    HW1 8465   1.999   2.488   3.874
 1925SOL    HW2 8466   2.093   2.451   3.745
 1926SOL     OW 8467   2.431   3.137   4.889
 1926SOL    HW1 8468   2.338   3.130   4.852
 1926SOL    HW2 8469   2.442   3.226   4.933
 1927SOL     OW 8470   3.417   3.373   4.427
 1927SOL    HW1 8471   3.360   3.357   4.508
 1927SOL    HW2 8472   3.358   3.383   4.347
 1928SOL     OW 8473   2.997   2.565   4.441
 1928SOL    HW1 8474   3.054   2.643   4.416
 1928SOL    HW2 8475   2.937   2.591   4.517
 1929SOL     OW 8476   2.630   3.006   4.747
 1929SOL    HW1 8477   2.552   3.023   4.807
 1929SOL    HW2 8478   2.664   3.093   4.711
 1930SOL     OW 8479   2.547   2.874   4.389
 1930SOL    HW1 8480   2.616   2.858   4.459
 1930SOL    HW2 8481   2.474   2.931   4.427
 1931SOL     OW 8482   2.197   3.297   4.785
 1931SOL    HW1 8483   2.119   3.266   4.732
 1931SOL    HW2 8484   2.255   3.355   4.728
 1932SOL     OW 8485   3.465   2.309   4.461
 1932SOL    HW1 8486   3.391   2.355   4.411
 1932SOL    HW2 8487   3.516   2.377   4.514
 1933SOL     OW 8488   2.102   2.953   4.610
 1933SOL    HW1 8489   2.116   2.869   4.662
 1933SOL    HW2 8490   2.047   3.017   4.665
 1934SOL     OW 8491   2.482   3.648   5.163
 1934SOL    HW1 8492   2.390   3.631   5.198
 1934SOL    HW2 8493   2.510   3.740   5.189
 1935SOL     OW 8494   2.468   2.826   3.847
 1935SOL    HW1 8495   2.475   2.910   3.793
 1935SOL    HW2 8496   2.514   2.839   3.935
 1936SOL     OW 8497   1.984   2.505   4.287
 1936SOL    HW1 8498   1.939   2.417   4.304
 1936SOL    HW2 8499   1.983   2.559   4.371
 1937SOL     OW 8500   3.704   3.629   4.083
 1937SOL    HW1 8501   3.758   3.600   4.163
 1937SOL    HW2 8502   3.734   3.719   4.054
 1938SOL     OW 8503   1.889   3.458   3.841
 1938SOL    HW1 8504   1.870   3.362   3.862
 1938SOL    HW2 8505   1.856   3.516   3.916
 1939SOL     OW 8506   2.475   3.227   4.450
 1939SOL    HW1 8507   2.426   3.140   4.459
 1939SOL    HW2 8508   2.452   3.270   4.363
 1940SOL     OW 8509   2.671   1.866   4.226
 1940SOL    HW1 8510   2.711   1.957   4.217
 1940SOL    HW2 8511   2.571   1.874   4.232
 1941SOL     OW 8512   2.059   2.838   4.988
 1941SOL    HW1 8513   2.148   2.793   4.974
 1941SOL    HW2 8514   1.986   2.773   4.969
 1942SOL     OW 8515   3.529   3.576   4.296
 1942SOL    HW1 8516   3.488   3.553   4.208
 1942SOL    HW2 8517   3.511   3.502   4.361
 1943SOL     OW 8518   2.460   2.591   3.994
 1943SOL    HW1 8519   2.484   2.660   3.926
 1943SOL    HW2 8520   2.382   2.624   4.048
 1944SOL     OW 8521   3.143   2.207   4.668
 1944SOL    HW1 8522   3.057   2.157   4.655
 1944SOL    HW2 8523   3.205   2.153   4.724
 1945SOL     OW 8524   3.438   3.524   4.031
 1945SOL    HW1 8525   3.527   3.570   4.034
 1945SOL    HW2 8526   3.417   3.500   3.936
 1946SOL     OW 8527   2.903   2.563   4.153
 1946SOL    HW1 8528   2.929   2.559   4.249
 1946SOL    HW2 8529   2.818   2.512   4.139
 1947SOL     OW 8530   1.938   2.673   4.513
 1947SOL    HW1 8531   2.037   2.661   4.522
 1947SOL    HW2 8532   1.914   2.768   4.534
 1948SOL     OW 8533   2.727   2.210   3.919
 1948SOL    HW1 8534   2.786   2.273   3.870
 1948SOL    HW2 8535   2.746   2.116   3.890
 1949SOL     OW 8536   2.183   2.805   3.966
 1949SOL    HW1 8537   2.265   2.844   3.924
 1949SOL    HW2 8538   2.156   2.723   3.917
 1950SOL     OW 8539   3.494   3.239   3.805
 1950SOL    HW1 8540   3.462   3.333   3.795
 1950SOL    HW2 8541   3.418   3.176   3.793
 1951SOL     OW 8542   3.262   1.969   4.150
 1951SOL    HW1 8543   3.238   1.932   4.060
 1951SOL    HW2 8544   3.361   1.985   4.154
 1952SOL     OW 8545   2.111   3.647   4.965
 1952SOL    HW1 8546   2.168   3.582   5.015
 1952SOL    HW2 8547   2.095   3.614   4.872
 1953SOL     OW 8548   2.802   3.560   4.628
 1953SOL    HW1 8549   2.882   3.503   4.649
 1953SOL    HW2 8550   2.753   3.520   4.551
 1954SOL     OW 8551   2.476   1.984   3.841
 1954SOL    HW1 8552   2.574   1.962   3.848
 1954SOL    HW2 8553   2.445   1.967   3.748
 1955SOL     OW 8554   2.665   3.264   4.648
 1955SOL    HW1 8555   2.755   3.278   4.606
 1955SOL    HW2 8556   2.594   3.266   4.577
 1956SOL     OW 8557   2.784   2.365   4.623
 1956SOL    HW1 8558   2.759   2.356   4.527
 1956SOL    HW2 8559   2.832   2.283   4.654
 1957SOL     OW 8560   2.159   1.897   3.895
 1957SOL    HW1 8561   2.208   1.981   3.874
 1957SOL    HW2 8562   2.221   1.832   3.940
 1958SOL     OW 8563   2.797   2.098   4.204
 1958SOL    HW1 8564   2.749   2.139   4.126
 1958SOL    HW2 8565   2.896   2.096   4.185
 1959SOL     OW 8566   2.321   3.014   4.465
 1959SOL    HW1 8567   2.250   2.987   4.530
 1959SOL    HW2 8568   2.295   2.986   4.372
 1960SOL     OW 8569   2.423   2.084   4.871
 1960SOL    HW1 8570   2.461   2.000   4.908
 1960SOL    HW2 8571   2.335   2.103   4.915
 1961SOL     OW 8572   2.728   2.316   4.366
 1961SOL    HW1 8573   2.696   2.388   4.304
 1961SOL    HW2 8574   2.752   2.235   4.313
 1962SOL     OW 8575   2.879   1.901   4.477
 1962SOL    HW1 8576   2.807   1.906   4.408
 1962SOL    HW2 8577   2.855   1.832   4.546
 1963SOL     OW 8578   3.328   2.452   4.716
 1963SOL    HW1 8579   3.298   2.357   4.723
 1963SOL    HW2 8580   3.401   2.468   4.782
 1964SOL     OW 8581   3.526   3.142   4.381
 1964SOL    HW1 8582   3.625   3.150   4.395
 1964SOL    HW2 8583   3.481   3.226   4.412
 1965SOL     OW 8584   3.500   2.961   4.803
 1965SOL    HW1 8585   3.505   3.042   4.862
 1965SOL    HW2 8586   3.414   2.963   4.752
 1966SOL     OW 8587   2.567   2.912   4.092
 1966SOL    HW1 8588   2.553   2.919   4.191
 1966SOL    HW2 8589   2.651   2.861   4.074
 1967SOL     OW 8590   2.272   2.675   4.975
 1967SOL    HW1 8591   2.358   2.687   5.025
 1967SOL    HW2 8592   2.230   2.588   5.002
 1968SOL     OW 8593   3.444   2.501   4.196
 1968SOL    HW1 8594   3.413   2.562   4.269
 1968SOL    HW2 8595   3.494   2.553   4.127
 1969SOL     OW 8596   2.216   3.372   5.053
 1969SOL    HW1 8597   2.195   3.328   4.966
 1969SOL    HW2 8598   2.313   3.398   5.056
 1970SOL     OW 8599   2.435   2.732   4.753
 1970SOL    HW1 8600   2.479   2.821   4.744
 1970SOL    HW2 8601   2.372   2.732   4.830
 1971SOL     OW 8602   3.222   2.724   4.769
 1971SOL    HW1 8603   3.147   2.724   4.703
 1971SOL    HW2 8604   3.259   2.632   4.778
 1972SOL     OW 8605   2.169   2.075   4.955
 1972SOL    HW1 8606   2.146   2.112   5.045
 1972SOL    HW2 8607   2.139   1.980   4.949
 1973SOL     OW 8608   1.899   3.172   5.006
 1973SOL    HW1 8609   1.952   3.123   5.074
 1973SOL    HW2 8610   1.921   3.270   5.011
 1974SOL     OW 8611   2.594   2.496   4.788
 1974SOL    HW1 8612   2.653   2.470   4.712
 1974SOL    HW2 8613   2.566   2.592   4.777
 1975SOL     OW 8614   2.169   1.925   4.342
 1975SOL    HW1 8615   2.158   2.019   4.375
 1975SOL    HW2 8616   2.164   1.862   4.419
 1976SOL     OW 8617   2.885   2.628   4.690
 1976SOL    HW1 8618   2.900   2.649   4.786
 1976SOL    HW2 8619   2.855   2.533   4.681
 1977SOL     OW 8620   3.022   2.069   5.201
 1977SOL    HW1 8621   3.022   2.133   5.278
 1977SOL    HW2 8622   3.050   2.117   5.118
 1978SOL     OW 8623   1.870   3.188   3.924
 1978SOL    HW1 8624   1.777   3.209   3.893
 1978SOL    HW2 8625   1.880   3.089   3.937
 1979SOL     OW 8626   2.366   3.430   4.634
 1979SOL    HW1 8627   2.432   3.504   4.643
 1979SOL    HW2 8628   2.410   3.351   4.592
 1980SOL     OW 8629   2.677   2.434   4.049
 1980SOL    HW1 8630   2.684   2.345   4.003
 1980SOL    HW2 8631   2.583   2.468   4.041
 1981SOL     OW 8632   3.519   2.466   4.930
 1981SOL    HW1 8633   3.481   2.397   4.992
 1981SOL    HW2 8634   3.601   2.430   4.886
 1982SOL     OW 8635   2.533   2.326   4.993
 1982SOL    HW1 8636   2.499   2.237   4.963
 1982SOL    HW2 8637   2.559   2.380   4.913
 1983SOL     OW 8638   2.792   3.540   5.189
 1983SOL    HW1 8639   2.768   3.522   5.094
 1983SOL    HW2 8640   2.822   3.634   5.199
 1984SOL     OW 8641   2.335   2.362   3.915
 1984SOL    HW1 8642   2.396   2.442   3.919
 1984SOL    HW2 8643   2.240   2.393   3.922
 1985SOL     OW 8644   3.621   3.609   4.878
 1985SOL    HW1 8645   3.682   3.639   4.805
 1985SOL    HW2 8646   3.583   3.520   4.856
 1986SOL     OW 8647   3.114   3.593   4.852
 1986SOL    HW1 8648   3.198   3.598   4.798
 1986SOL    HW2 8649   3.091   3.497   4.870
 1987SOL     OW 8650   1.945   3.120   4.746
 1987SOL    HW1 8651   1.940   3.119   4.846
 1987SOL    HW2 8652   1.862   3.079   4.708
 1988SOL     OW 8653   3.588   1.997   4.247
 1988SOL    HW1 8654   3.661   1.980   4.180
 1988SOL    HW2 8655   3.557   1.910   4.285
 1989SOL     OW 8656   2.534   3.478   3.878
 1989SOL    HW1 8657   2.543   3.488   3.779
 1989SOL    HW2 8658   2.494   3.389   3.899
 1990SOL     OW 8659   3.512   3.582   5.118
 1990SOL    HW1 8660   3.565   3.592   5.034
 1990SOL    HW2 8661   3.485   3.672   5.152
 1991SOL     OW 8662   3.703   2.037   4.687
 1991SOL    HW1 8663   3.742   1.952   4.651
 1991SOL    HW2 8664   3.605   2.039   4.668
 1992SOL     OW 8665   2.684   2.864   5.096
 1992SOL    HW1 8666   2.724   2.863   5.004
 1992SOL    HW2 8667   2.694   2.956   5.136
 1993SOL     OW 8668   2.778   2.772   4.015
 1993SOL    HW1 8669   2.841   2.810   3.947
 1993SOL    HW2 8670   2.818   2.689   4.054
 1994SOL     OW 8671   3.366   3.469   3.768
 1994SOL    HW1 8672   3.274   3.506   3.775
 1994SOL    HW2 8673   3.404   3.489   3.678
 1995SOL     OW 8674   2.901   2.960   4.420
 1995SOL    HW1 8675   2.831   2.913   4.474
 1995SOL    HW2 8676   2.960   2.892   4.377
 1996SOL     OW 8677   2.876   2.098   4.695
 1996SOL    HW1 8678   2.868   2.062   4.602
 1996SOL    HW2 8679   2.874   2.022   4.760
 1997SOL     OW 8680   3.571   2.247   5.105
 1997SOL    HW1 8681   3.644   2.316   5.109
 1997SOL    HW2 8682   3.599   2.172   5.046
 1998SOL     OW 8683   1.937   2.207   3.757
 1998SOL    HW1 8684   1.845   2.179   3.728
 1998SOL    HW2 8685   1.968   2.284   3.701
 1999SOL     OW 8686   3.355   3.629   4.683
 1999SOL    HW1 8687   3.388   3.693   4.614
 1999SOL    HW2 8688   3.421   3.623   4.758
 2000SOL     OW 8689   3.536   2.745   4.978
 2000SOL    HW1 8690   3.509   2.656   4.941
 2000SOL    HW2 8691   3.537   2.813   4.905
 2001SOL     OW 8692   3.087   2.187   4.173
 2001SOL    HW1 8693   3.152   2.113   4.162
 2001SOL    HW2 8694   3.107   2.237   4.257
 2002SOL     OW 8695   2.721   3.236   3.740
 2002SOL    HW1 8696   2.675   3.251   3.828
 2002SOL    HW2 8697   2.765   3.321   3.710
 2003SOL     OW 8698   2.523   3.652   4.677
 2003SOL    HW1 8699   2.477   3.740   4.664
 2003SOL    HW2 8700   2.622   3.664   4.670
 2004SOL     OW 8701   2.721   2.818   4.585
 2004SOL    HW1 8702   2.775   2.749   4.633
 2004SOL    HW2 8703   2.689   2.887   4.651
 2005SOL     OW 8704   2.945   2.846   3.811
 2005SOL    HW1 8705   2.922   2.899   3.729
 2005SOL    HW2 8706   3.026   2.790   3.792
 2006SOL     OW 8707   3.723   3.431   4.575
 2006SOL    HW1 8708   3.652   3.419   4.505
 2006SOL    HW2 8709   3.724   3.352   4.635
 2007SOL     OW 8710   3.686   2.054   4.951
 2007SOL    HW1 8711   3.682   1.964   4.995
 2007SOL    HW2 8712   3.689   2.043   4.852
 2008SOL     OW 8713   3.567   3.349   4.828
 2008SOL    HW1 8714   3.474   3.324   4.801
 2008SOL    HW2 8715   3.593   3.299   4.910
 2009SOL     OW 8716   3.286   2.076   4.836
 2009SOL    HW1 8717   3.338   2.011   4.891
 2009SOL    HW2 8718   3.237   2.139   4.897
 2010SOL     OW 8719   2.863   1.896   4.878
 2010SOL    HW1 8720   2.800   1.824   4.847
 2010SOL    HW2 8721   2.956   1.860   4.878
 2011SOL     OW 8722   2.632   3.192   4.025
 2011SOL    HW1 8723   2.586   3.105   4.042
 2011SOL    HW2 8724   2.723   3.189   4.066
 2012SOL     OW 8725   3.214   1.914   3.892
 2012SOL    HW1 8726   3.249   1.873   3.808
 2012SOL    HW2 8727   3.124   1.876   3.912
 2013SOL     OW 8728   3.162   2.315   4.415
 2013SOL    HW1 8729   3.103   2.395   4.419
 2013SOL    HW2 8730   3.177   2.280   4.508
 2014SOL     OW 8731   3.455   2.083   4.606
 2014SOL    HW1 8732   3.371   2.082   4.660
 2014SOL    HW2 8733   3.457   2.166   4.550
 2015SOL     OW 8734   1.901   2.939   4.024
 2015SOL    HW1 8735   2.000   2.928   4.015
 2015SOL    HW2 8736   1.861   2.853   4.056
 2016SOL     OW 8737   2.087   3.999   0.996
 2016SOL    HW1 8738   2.122   3.982   1.088
 2016SOL    HW2 8739   1.999   3.954   0.984
 2017SOL     OW 8740   2.431   4.999   1.165
 2017SOL    HW1 8741   2.338   4.992   1.128
 2017SOL    HW2 8742   2.442   5.088   1.209
 2018SOL     OW 8743   3.417   5.235   0.703
 2018SOL    HW1 8744   3.360   5.219   0.784
 2018SOL    HW2 8745   3.358   5.245   0.623
 2019SOL     OW 8746   2.997   4.427   0.717
 2019SOL    HW1 8747   3.054   4.505   0.692
 2019SOL    HW2 8748   2.937   4.453   0.793
 2020SOL     OW 8749   3.617   4.331   0.231
 2020SOL    HW1 8750   3.605   4.318   0.132
 2020SOL    HW2 8751   3.587   4.250   0.280
 2021SOL     OW 8752   2.630   4.868   1.023
 2021SOL    HW1 8753   2.552   4.885   1.083
 2021SOL    HW2 8754   2.664   4.955   0.987
 2022SOL     OW 8755   2.197   5.159   1.061
 2022SOL    HW1 8756   2.119   5.128   1.008
 2022SOL    HW2 8757   2.255   5.217   1.004
 2023SOL     OW 8758   2.300   4.116   1.499
 2023SOL    HW1 8759   2.382   4.060   1.508
 2023SOL    HW2 8760   2.219   4.058   1.503
 2024SOL     OW 8761   3.456   3.838   1.480
 2024SOL    HW1 8762   3.438   3.905   1.408
 2024SOL    HW2 8763   3.453   3.884   1.569
 2025SOL     OW 8764   3.551   4.646   0.612
 2025SOL    HW1 8765   3.646   4.617   0.620
 2025SOL    HW2 8766   3.543   4.711   0.537
 2026SOL     OW 8767   3.503   4.832   0.432
 2026SOL    HW1 8768   3.589   4.834   0.380
 2026SOL    HW2 8769   3.517   4.879   0.520
 2027SOL     OW 8770   1.975   4.461   1.597
 2027SOL    HW1 8771   2.063   4.448   1.642
 2027SOL    HW2 8772   1.962   4.558   1.575
 2028SOL     OW 8773   3.155   4.952   1.423
 2028SOL    HW1 8774   3.192   4.879   1.365
 2028SOL    HW2 8775   3.207   4.957   1.508
 2029SOL     OW 8776   2.671   3.728   0.502
 2029SOL    HW1 8777   2.711   3.819   0.493
 2029SOL    HW2 8778   2.571   3.736   0.508
 2030SOL     OW 8779   3.387   4.723   0.190
 2030SOL    HW1 8780   3.324   4.647   0.203
 2030SOL    HW2 8781   3.435   4.741   0.276
 2031SOL     OW 8782   2.179   3.975   1.801
 2031SOL    HW1 8783   2.250   4.046   1.807
 2031SOL    HW2 8784   2.091   4.014   1.829
 2032SOL     OW 8785   3.328   5.141   0.953
 2032SOL    HW1 8786   3.269   5.147   1.033
 2032SOL    HW2 8787   3.313   5.053   0.907
 2033SOL     OW 8788   2.669   4.329   1.465
 2033SOL    HW1 8789   2.622   4.326   1.554
 2033SOL    HW2 8790   2.618   4.274   1.399
 2034SOL     OW 8791   3.256   4.193   1.674
 2034SOL    HW1 8792   3.236   4.236   1.762
 2034SOL    HW2 8793   3.334   4.131   1.683
 2035SOL     OW 8794   2.835   4.614   1.572
 2035SOL    HW1 8795   2.881   4.530   1.543
 2035SOL    HW2 8796   2.779   4.648   1.497
 2036SOL     OW 8797   2.903   4.425   0.429
 2036SOL    HW1 8798   2.929   4.421   0.525
 2036SOL    HW2 8799   2.818   4.374   0.415
 2037SOL     OW 8800   3.581   4.309   1.831
 2037SOL    HW1 8801   3.555   4.398   1.795
 2037SOL    HW2 8802   3.579   4.241   1.758
 2038SOL     OW 8803   3.224   4.868   0.545
 2038SOL    HW1 8804   3.307   4.839   0.497
 2038SOL    HW2 8805   3.175   4.935   0.489
 2039SOL     OW 8806   2.412   3.920   0.885
 2039SOL    HW1 8807   2.407   3.915   0.985
 2039SOL    HW2 8808   2.414   4.016   0.856
 2040SOL     OW 8809   3.320   4.459   0.728
 2040SOL    HW1 8810   3.315   4.394   0.803
 2040SOL    HW2 8811   3.400   4.518   0.741
 2041SOL     OW 8812   3.494   5.101   0.081
 2041SOL    HW1 8813   3.462   5.195   0.071
 2041SOL    HW2 8814   3.418   5.038   0.069
 2042SOL     OW 8815   3.262   3.831   0.426
 2042SOL    HW1 8816   3.238   3.794   0.336
 2042SOL    HW2 8817   3.361   3.847   0.430
 2043SOL     OW 8818   3.409   3.946   1.729
 2043SOL    HW1 8819   3.404   3.983   1.821
 2043SOL    HW2 8820   3.337   3.877   1.717
 2044SOL     OW 8821   2.643   3.988   1.749
 2044SOL    HW1 8822   2.710   3.927   1.792
 2044SOL    HW2 8823   2.570   4.007   1.814
 2045SOL     OW 8824   2.665   5.126   0.924
 2045SOL    HW1 8825   2.755   5.140   0.882
 2045SOL    HW2 8826   2.594   5.128   0.853
 2046SOL     OW 8827   2.401   3.788   0.512
 2046SOL    HW1 8828   2.320   3.789   0.570
 2046SOL    HW2 8829   2.404   3.871   0.457
 2047SOL     OW 8830   2.159   3.759   0.171
 2047SOL    HW1 8831   2.208   3.843   0.150
 2047SOL    HW2 8832   2.221   3.694   0.216
 2048SOL     OW 8833   2.797   3.960   0.480
 2048SOL    HW1 8834   2.749   4.001   0.402
 2048SOL    HW2 8835   2.896   3.958   0.461
 2049SOL     OW 8836   2.938   4.407   1.464
 2049SOL    HW1 8837   2.858   4.346   1.467
 2049SOL    HW2 8838   3.019   4.354   1.440
 2050SOL     OW 8839   3.089   5.294   0.793
 2050SOL    HW1 8840   3.110   5.368   0.728
 2050SOL    HW2 8841   3.157   5.294   0.866
 2051SOL     OW 8842   2.894   4.273   0.016
 2051SOL    HW1 8843   2.853   4.355  -0.023
 2051SOL    HW2 8844   2.958   4.299   0.089
 2052SOL     OW 8845   1.940   4.280   1.386
 2052SOL    HW1 8846   2.032   4.279   1.345
 2052SOL    HW2 8847   1.934   4.354   1.453
 2053SOL     OW 8848   2.423   3.946   1.147
 2053SOL    HW1 8849   2.461   3.862   1.184
 2053SOL    HW2 8850   2.335   3.965   1.191
 2054SOL     OW 8851   2.879   3.763   0.753
 2054SOL    HW1 8852   2.807   3.768   0.684
 2054SOL    HW2 8853   2.855   3.694   0.822
 2055SOL     OW 8854   3.291   4.897   0.867
 2055SOL    HW1 8855   3.236   4.813   0.860
 2055SOL    HW2 8856   3.317   4.926   0.775
 2056SOL     OW 8857   3.328   4.314   0.992
 2056SOL    HW1 8858   3.298   4.219   0.999
 2056SOL    HW2 8859   3.401   4.330   1.058
 2057SOL     OW 8860   3.719   4.557   0.377
 2057SOL    HW1 8861   3.761   4.493   0.441
 2057SOL    HW2 8862   3.681   4.506   0.299
 2058SOL     OW 8863   3.526   5.004   0.657
 2058SOL    HW1 8864   3.625   5.012   0.671
 2058SOL    HW2 8865   3.481   5.088   0.688
 2059SOL     OW 8866   3.252   4.299   0.078
 2059SOL    HW1 8867   3.198   4.278   0.159
 2059SOL    HW2 8868   3.343   4.258   0.087
 2060SOL     OW 8869   3.500   4.823   1.079
 2060SOL    HW1 8870   3.505   4.904   1.138
 2060SOL    HW2 8871   3.414   4.825   1.028
 2061SOL     OW 8872   2.777   3.813   1.402
 2061SOL    HW1 8873   2.802   3.793   1.307
 2061SOL    HW2 8874   2.849   3.869   1.444
 2062SOL     OW 8875   2.428   4.261   0.865
 2062SOL    HW1 8876   2.440   4.327   0.791
 2062SOL    HW2 8877   2.474   4.295   0.948
 2063SOL     OW 8878   3.444   4.363   0.472
 2063SOL    HW1 8879   3.413   4.424   0.545
 2063SOL    HW2 8880   3.494   4.415   0.403
 2064SOL     OW 8881   2.264   4.475   1.598
 2064SOL    HW1 8882   2.332   4.530   1.551
 2064SOL    HW2 8883   2.304   4.387   1.625
 2065SOL     OW 8884   3.449   4.503   1.670
 2065SOL    HW1 8885   3.357   4.541   1.665
 2065SOL    HW2 8886   3.509   4.550   1.605
 2066SOL     OW 8887   2.875   3.829   1.770
 2066SOL    HW1 8888   2.881   3.914   1.718
 2066SOL    HW2 8889   2.907   3.753   1.713
 2067SOL     OW 8890   2.366   3.774   1.740
 2067SOL    HW1 8891   2.324   3.717   1.670
 2067SOL    HW2 8892   2.300   3.843   1.772
 2068SOL     OW 8893   3.222   4.586   1.045
 2068SOL    HW1 8894   3.147   4.586   0.979
 2068SOL    HW2 8895   3.259   4.494   1.054
 2069SOL     OW 8896   3.071   4.249   0.275
 2069SOL    HW1 8897   3.084   4.165   0.329
 2069SOL    HW2 8898   3.042   4.323   0.335
 2070SOL     OW 8899   2.594   4.358   1.064
 2070SOL    HW1 8900   2.653   4.332   0.988
 2070SOL    HW2 8901   2.566   4.454   1.053
 2071SOL     OW 8902   2.169   3.787   0.618
 2071SOL    HW1 8903   2.158   3.881   0.651
 2071SOL    HW2 8904   2.164   3.724   0.695
 2072SOL     OW 8905   3.484   4.091   0.374
 2072SOL    HW1 8906   3.486   4.015   0.438
 2072SOL    HW2 8907   3.436   4.168   0.414
 2073SOL     OW 8908   2.885   4.490   0.966
 2073SOL    HW1 8909   2.900   4.511   1.062
 2073SOL    HW2 8910   2.855   4.395   0.957
 2074SOL     OW 8911   3.721   5.242   1.605
 2074SOL    HW1 8912   3.735   5.269   1.510
 2074SOL    HW2 8913   3.804   5.264   1.658
 2075SOL     OW 8914   2.212   4.622   1.804
 2075SOL    HW1 8915   2.288   4.666   1.852
 2075SOL    HW2 8916   2.247   4.575   1.722
 2076SOL     OW 8917   3.402   3.998   0.125
 2076SOL    HW1 8918   3.341   3.923   0.148
 2076SOL    HW2 8919   3.424   4.050   0.208
 2077SOL     OW 8920   3.165   4.562   0.042
 2077SOL    HW1 8921   3.199   4.469   0.057
 2077SOL    HW2 8922   3.183   4.589  -0.053
 2078SOL     OW 8923   2.201   4.233   1.006
 2078SOL    HW1 8924   2.149   4.150   0.989
 2078SOL    HW2 8925   2.278   4.238   0.942
 2079SOL     OW 8926   3.000   4.104   1.678
 2079SOL    HW1 8927   2.955   4.167   1.742
 2079SOL    HW2 8928   3.093   4.135   1.661
 2080SOL     OW 8929   2.864   4.520   1.238
 2080SOL    HW1 8930   2.905   4.488   1.324
 2080SOL    HW2 8931   2.768   4.493   1.235
 2081SOL     OW 8932   2.051   4.244   1.722
 2081SOL    HW1 8933   2.110   4.204   1.652
 2081SOL    HW2 8934   1.993   4.315   1.681
 2082SOL     OW 8935   3.231   4.674   1.660
 2082SOL    HW1 8936   3.270   4.763   1.680
 2082SOL    HW2 8937   3.241   4.654   1.563
 2083SOL     OW 8938   3.519   4.328   1.206
 2083SOL    HW1 8939   3.481   4.259   1.268
 2083SOL    HW2 8940   3.601   4.292   1.162
 2084SOL     OW 8941   2.533   4.188   1.269
 2084SOL    HW1 8942   2.499   4.099   1.239
 2084SOL    HW2 8943   2.559   4.242   1.189
 2085SOL     OW 8944   2.021   4.861   1.466
 2085SOL    HW1 8945   2.043   4.800   1.542
 2085SOL    HW2 8946   2.031   4.812   1.380
 2086SOL     OW 8947   3.164   4.579   0.309
 2086SOL    HW1 8948   3.078   4.548   0.351
 2086SOL    HW2 8949   3.160   4.565   0.210
 2087SOL     OW 8950   1.945   4.982   1.022
 2087SOL    HW1 8951   1.940   4.981   1.122
 2087SOL    HW2 8952   1.862   4.941   0.984
 2088SOL     OW 8953   2.765   3.810   0.133
 2088SOL    HW1 8954   2.816   3.811   0.047
 2088SOL    HW2 8955   2.821   3.768   0.204
 2089SOL     OW 8956   3.588   3.859   0.523
 2089SOL    HW1 8957   3.661   3.842   0.456
 2089SOL    HW2 8958   3.557   3.772   0.561
 2090SOL     OW 8959   3.142   4.651   0.672
 2090SOL    HW1 8960   3.202   4.570   0.674
 2090SOL    HW2 8961   3.182   4.720   0.612
 2091SOL     OW 8962   2.692   4.997   1.422
 2091SOL    HW1 8963   2.687   5.030   1.517
 2091SOL    HW2 8964   2.606   5.016   1.376
 2092SOL     OW 8965   3.703   3.899   0.963
 2092SOL    HW1 8966   3.742   3.814   0.927
 2092SOL    HW2 8967   3.605   3.901   0.944
 2093SOL     OW 8968   2.125   4.050   0.720
 2093SOL    HW1 8969   2.046   4.101   0.686
 2093SOL    HW2 8970   2.116   4.035   0.818
 2094SOL     OW 8971   2.684   4.726   1.372
 2094SOL    HW1 8972   2.724   4.725   1.280
 2094SOL    HW2 8973   2.694   4.818   1.412
 2095SOL     OW 8974   2.778   4.634   0.291
 2095SOL    HW1 8975   2.841   4.672   0.223
 2095SOL    HW2 8976   2.818   4.551   0.330
 2096SOL     OW 8977   2.234   5.012   1.490
 2096SOL    HW1 8978   2.221   5.105   1.456
 2096SOL    HW2 8979   2.150   4.960   1.477
 2097SOL     OW 8980   2.901   4.822   0.696
 2097SOL    HW1 8981   2.831   4.775   0.750
 2097SOL    HW2 8982   2.960   4.754   0.653
 2098SOL     OW 8983   3.571   4.109   1.381
 2098SOL    HW1 8984   3.644   4.178   1.385
 2098SOL    HW2 8985   3.599   4.034   1.322
 2099SOL     OW 8986   2.534   3.927   1.489
 2099SOL    HW1 8987   2.624   3.911   1.449
 2099SOL    HW2 8988   2.542   3.932   1.588
 2100SOL     OW 8989   3.302   4.580   1.398
 2100SOL    HW1 8990   3.245   4.632   1.335
 2100SOL    HW2 8991   3.398   4.592   1.374
 2101SOL     OW 8992   2.578   4.289   1.708
 2101SOL    HW1 8993   2.597   4.354   1.782
 2101SOL    HW2 8994   2.638   4.209   1.717
 2102SOL     OW 8995   3.536   4.607   1.254
 2102SOL    HW1 8996   3.509   4.518   1.217
 2102SOL    HW2 8997   3.537   4.675   1.181
 2103SOL     OW 8998   3.087   4.049   0.449
 2103SOL    HW1 8999   3.152   3.975   0.438
 2103SOL    HW2 9000   3.107   4.099   0.533
 2104SOL     OW 9001   2.456   4.469   0.652
 2104SOL    HW1 9002   2.506   4.554   0.633
 2104SOL    HW2 9003   2.368   4.471   0.604
 2105SOL     OW 9004   3.639   4.066   1.642
 2105SOL    HW1 9005   3.622   4.097   1.548
 2105SOL    HW2 9006   3.555   4.029   1.680
 2106SOL     OW 9007   2.721   4.680   0.861
 2106SOL    HW1 9008   2.775   4.611   0.909
 2106SOL    HW2 9009   2.689   4.749   0.927
 2107SOL     OW 9010   2.945   4.708   0.087
 2107SOL    HW1 9011   2.922   4.761   0.005
 2107SOL    HW2 9012   3.026   4.652   0.068
 2108SOL     OW 9013   1.941   4.964   0.653
 2108SOL    HW1 9014   1.940   4.917   0.741
 2108SOL    HW2 9015   2.023   4.936   0.602
 2109SOL     OW 9016   3.686   3.916   1.227
 2109SOL    HW1 9017   3.682   3.826   1.271
 2109SOL    HW2 9018   3.689   3.905   1.128
 2110SOL     OW 9019   2.290   4.148   0.520
 2110SOL    HW1 9020   2.320   4.076   0.458
 2110SOL    HW2 9021   2.251   4.108   0.603
 2111SOL     OW 9022   2.179   4.271   1.280
 2111SOL    HW1 9023   2.217   4.212   1.352
 2111SOL    HW2 9024   2.219   4.245   1.192
 2112SOL     OW 9025   3.286   3.938   1.112
 2112SOL    HW1 9026   3.338   3.873   1.167
 2112SOL    HW2 9027   3.237   4.001   1.173
 2113SOL     OW 9028   3.214   3.776   0.168
 2113SOL    HW1 9029   3.249   3.735   0.084
 2113SOL    HW2 9030   3.124   3.738   0.188
 2114SOL     OW 9031   3.162   4.177   0.691
 2114SOL    HW1 9032   3.103   4.257   0.695
 2114SOL    HW2 9033   3.177   4.142   0.784
 2115SOL     OW 9034   3.455   3.945   0.882
 2115SOL    HW1 9035   3.371   3.944   0.936
 2115SOL    HW2 9036   3.457   4.028   0.826
 2116SOL     OW 9037   1.901   4.801   0.300
 2116SOL    HW1 9038   2.000   4.790   0.291
 2116SOL    HW2 9039   1.861   4.715   0.332
 2117SOL     OW 9040   2.092   4.352   1.975
 2117SOL    HW1 9041   1.999   4.350   2.012
 2117SOL    HW2 9042   2.093   4.313   1.883
 2118SOL     OW 9043   2.087   3.999   2.858
 2118SOL    HW1 9044   2.122   3.982   2.950
 2118SOL    HW2 9045   1.999   3.954   2.846
 2119SOL     OW 9046   2.431   4.999   3.027
 2119SOL    HW1 9047   2.338   4.992   2.990
 2119SOL    HW2 9048   2.442   5.088   3.071
 2120SOL     OW 9049   3.417   5.235   2.565
 2120SOL    HW1 9050   3.360   5.219   2.646
 2120SOL    HW2 9051   3.358   5.245   2.485
 2121SOL     OW 9052   2.997   4.427   2.579
 2121SOL    HW1 9053   3.054   4.505   2.554
 2121SOL    HW2 9054   2.937   4.453   2.655
 2122SOL     OW 9055   3.617   4.331   2.093
 2122SOL    HW1 9056   3.605   4.318   1.994
 2122SOL    HW2 9057   3.587   4.250   2.142
 2123SOL     OW 9058   2.712   4.522   3.685
 2123SOL    HW1 9059   2.708   4.598   3.750
 2123SOL    HW2 9060   2.734   4.558   3.594
 2124SOL     OW 9061   2.548   4.885   3.665
 2124SOL    HW1 9062   2.608   4.964   3.679
 2124SOL    HW2 9063   2.462   4.916   3.624
 2125SOL     OW 9064   2.197   5.159   2.923
 2125SOL    HW1 9065   2.119   5.128   2.870
 2125SOL    HW2 9066   2.255   5.217   2.866
 2126SOL     OW 9067   2.300   4.116   3.361
 2126SOL    HW1 9068   2.382   4.060   3.370
 2126SOL    HW2 9069   2.219   4.058   3.365
 2127SOL     OW 9070   3.465   4.171   2.599
 2127SOL    HW1 9071   3.391   4.217   2.549
 2127SOL    HW2 9072   3.516   4.239   2.652
 2128SOL     OW 9073   2.102   4.815   2.748
 2128SOL    HW1 9074   2.116   4.731   2.800
 2128SOL    HW2 9075   2.047   4.879   2.803
 2129SOL     OW 9076   2.468   4.688   1.985
 2129SOL    HW1 9077   2.475   4.772   1.931
 2129SOL    HW2 9078   2.514   4.701   2.073
 2130SOL     OW 9079   3.456   3.838   3.342
 2130SOL    HW1 9080   3.438   3.905   3.270
 2130SOL    HW2 9081   3.453   3.884   3.431
 2131SOL     OW 9082   3.551   4.646   2.474
 2131SOL    HW1 9083   3.646   4.617   2.482
 2131SOL    HW2 9084   3.543   4.711   2.399
 2132SOL     OW 9085   3.155   4.952   3.285
 2132SOL    HW1 9086   3.192   4.879   3.227
 2132SOL    HW2 9087   3.207   4.957   3.370
 2133SOL     OW 9088   2.059   4.700   3.126
 2133SOL    HW1 9089   2.148   4.655   3.112
 2133SOL    HW2 9090   1.986   4.635   3.107
 2134SOL     OW 9091   2.179   3.975   3.663
 2134SOL    HW1 9092   2.250   4.046   3.669
 2134SOL    HW2 9093   2.091   4.014   3.691
 2135SOL     OW 9094   3.328   5.141   2.815
 2135SOL    HW1 9095   3.269   5.147   2.895
 2135SOL    HW2 9096   3.313   5.053   2.769
 2136SOL     OW 9097   2.460   4.453   2.132
 2136SOL    HW1 9098   2.484   4.522   2.064
 2136SOL    HW2 9099   2.382   4.486   2.186
 2137SOL     OW 9100   3.143   4.069   2.806
 2137SOL    HW1 9101   3.057   4.019   2.793
 2137SOL    HW2 9102   3.205   4.015   2.862
 2138SOL     OW 9103   3.256   4.193   3.536
 2138SOL    HW1 9104   3.236   4.236   3.624
 2138SOL    HW2 9105   3.334   4.131   3.545
 2139SOL     OW 9106   2.835   4.614   3.434
 2139SOL    HW1 9107   2.881   4.530   3.405
 2139SOL    HW2 9108   2.779   4.648   3.359
 2140SOL     OW 9109   2.727   4.072   2.057
 2140SOL    HW1 9110   2.786   4.135   2.008
 2140SOL    HW2 9111   2.746   3.978   2.028
 2141SOL     OW 9112   3.581   4.309   3.693
 2141SOL    HW1 9113   3.555   4.398   3.657
 2141SOL    HW2 9114   3.579   4.241   3.620
 2142SOL     OW 9115   3.224   4.868   2.407
 2142SOL    HW1 9116   3.307   4.839   2.359
 2142SOL    HW2 9117   3.175   4.935   2.351
 2143SOL     OW 9118   2.412   3.920   2.747
 2143SOL    HW1 9119   2.407   3.915   2.847
 2143SOL    HW2 9120   2.414   4.016   2.718
 2144SOL     OW 9121   3.657   4.790   2.735
 2144SOL    HW1 9122   3.595   4.775   2.659
 2144SOL    HW2 9123   3.605   4.801   2.820
 2145SOL     OW 9124   2.183   4.667   2.104
 2145SOL    HW1 9125   2.265   4.706   2.062
 2145SOL    HW2 9126   2.156   4.585   2.055
 2146SOL     OW 9127   3.320   4.459   2.590
 2146SOL    HW1 9128   3.315   4.394   2.665
 2146SOL    HW2 9129   3.400   4.518   2.603
 2147SOL     OW 9130   2.064   4.009   3.360
 2147SOL    HW1 9131   1.984   4.069   3.347
 2147SOL    HW2 9132   2.054   3.960   3.446
 2148SOL     OW 9133   2.244   4.424   2.342
 2148SOL    HW1 9134   2.289   4.334   2.339
 2148SOL    HW2 9135   2.150   4.413   2.375
 2149SOL     OW 9136   3.409   3.946   3.591
 2149SOL    HW1 9137   3.404   3.983   3.683
 2149SOL    HW2 9138   3.337   3.877   3.579
 2150SOL     OW 9139   2.476   3.846   1.979
 2150SOL    HW1 9140   2.574   3.824   1.986
 2150SOL    HW2 9141   2.445   3.829   1.886
 2151SOL     OW 9142   3.213   4.314   3.295
 2151SOL    HW1 9143   3.241   4.271   3.380
 2151SOL    HW2 9144   3.238   4.410   3.296
 2152SOL     OW 9145   2.665   5.126   2.786
 2152SOL    HW1 9146   2.755   5.140   2.744
 2152SOL    HW2 9147   2.594   5.128   2.715
 2153SOL     OW 9148   2.401   3.788   2.374
 2153SOL    HW1 9149   2.320   3.789   2.432
 2153SOL    HW2 9150   2.404   3.871   2.319
 2154SOL     OW 9151   3.296   4.912   1.903
 2154SOL    HW1 9152   3.328   4.836   1.960
 2154SOL    HW2 9153   3.204   4.939   1.933
 2155SOL     OW 9154   2.159   3.759   2.033
 2155SOL    HW1 9155   2.208   3.843   2.012
 2155SOL    HW2 9156   2.221   3.694   2.078
 2156SOL     OW 9157   2.938   4.407   3.326
 2156SOL    HW1 9158   2.858   4.346   3.329
 2156SOL    HW2 9159   3.019   4.354   3.302
 2157SOL     OW 9160   3.089   5.294   2.655
 2157SOL    HW1 9161   3.110   5.368   2.590
 2157SOL    HW2 9162   3.157   5.294   2.728
 2158SOL     OW 9163   2.321   4.876   2.603
 2158SOL    HW1 9164   2.250   4.849   2.668
 2158SOL    HW2 9165   2.295   4.848   2.510
 2159SOL     OW 9166   2.894   4.273   1.878
 2159SOL    HW1 9167   2.853   4.355   1.839
 2159SOL    HW2 9168   2.958   4.299   1.951
 2160SOL     OW 9169   1.940   4.280   3.248
 2160SOL    HW1 9170   2.032   4.279   3.207
 2160SOL    HW2 9171   1.934   4.354   3.315
 2161SOL     OW 9172   2.423   3.946   3.009
 2161SOL    HW1 9173   2.461   3.862   3.046
 2161SOL    HW2 9174   2.335   3.965   3.053
 2162SOL     OW 9175   2.728   4.178   2.504
 2162SOL    HW1 9176   2.696   4.250   2.442
 2162SOL    HW2 9177   2.752   4.097   2.451
 2163SOL     OW 9178   3.291   4.897   2.729
 2163SOL    HW1 9179   3.236   4.813   2.722
 2163SOL    HW2 9180   3.317   4.926   2.637
 2164SOL     OW 9181   3.328   4.314   2.854
 2164SOL    HW1 9182   3.298   4.219   2.861
 2164SOL    HW2 9183   3.401   4.330   2.920
 2165SOL     OW 9184   3.526   5.004   2.519
 2165SOL    HW1 9185   3.625   5.012   2.533
 2165SOL    HW2 9186   3.481   5.088   2.550
 2166SOL     OW 9187   3.252   4.299   1.940
 2166SOL    HW1 9188   3.198   4.278   2.021
 2166SOL    HW2 9189   3.343   4.258   1.949
 2167SOL     OW 9190   2.389   3.980   2.190
 2167SOL    HW1 9191   2.416   3.921   2.115
 2167SOL    HW2 9192   2.389   4.075   2.159
 2168SOL     OW 9193   3.616   4.947   3.450
 2168SOL    HW1 9194   3.707   4.908   3.437
 2168SOL    HW2 9195   3.624   5.043   3.474
 2169SOL     OW 9196   3.500   4.823   2.941
 2169SOL    HW1 9197   3.505   4.904   3.000
 2169SOL    HW2 9198   3.414   4.825   2.890
 2170SOL     OW 9199   2.842   4.840   3.581
 2170SOL    HW1 9200   2.743   4.846   3.591
 2170SOL    HW2 9201   2.865   4.760   3.525
 2171SOL     OW 9202   2.567   4.774   2.230
 2171SOL    HW1 9203   2.553   4.781   2.329
 2171SOL    HW2 9204   2.651   4.723   2.212
 2172SOL     OW 9205   2.229   4.824   2.363
 2172SOL    HW1 9206   2.222   4.907   2.307
 2172SOL    HW2 9207   2.233   4.744   2.303
 2173SOL     OW 9208   2.428   4.261   2.727
 2173SOL    HW1 9209   2.440   4.327   2.653
 2173SOL    HW2 9210   2.474   4.295   2.810
 2174SOL     OW 9211   3.444   4.363   2.334
 2174SOL    HW1 9212   3.413   4.424   2.407
 2174SOL    HW2 9213   3.494   4.415   2.265
 2175SOL     OW 9214   2.264   4.475   3.460
 2175SOL    HW1 9215   2.332   4.530   3.413
 2175SOL    HW2 9216   2.304   4.387   3.487
 2176SOL     OW 9217   3.449   4.503   3.532
 2176SOL    HW1 9218   3.357   4.541   3.527
 2176SOL    HW2 9219   3.509   4.550   3.467
 2177SOL     OW 9220   2.366   3.774   3.602
 2177SOL    HW1 9221   2.324   3.717   3.532
 2177SOL    HW2 9222   2.300   3.843   3.634
 2178SOL     OW 9223   3.222   4.586   2.907
 2178SOL    HW1 9224   3.147   4.586   2.841
 2178SOL    HW2 9225   3.259   4.494   2.916
 2179SOL     OW 9226   2.169   3.937   3.093
 2179SOL    HW1 9227   2.146   3.974   3.183
 2179SOL    HW2 9228   2.139   3.842   3.087
 2180SOL     OW 9229   2.169   3.787   2.480
 2180SOL    HW1 9230   2.158   3.881   2.513
 2180SOL    HW2 9231   2.164   3.724   2.557
 2181SOL     OW 9232   3.484   4.091   2.236
 2181SOL    HW1 9233   3.486   4.015   2.300
 2181SOL    HW2 9234   3.436   4.168   2.276
 2182SOL     OW 9235   3.721   5.242   3.467
 2182SOL    HW1 9236   3.735   5.269   3.372
 2182SOL    HW2 9237   3.804   5.264   3.520
 2183SOL     OW 9238   3.402   3.998   1.987
 2183SOL    HW1 9239   3.341   3.923   2.010
 2183SOL    HW2 9240   3.424   4.050   2.070
 2184SOL     OW 9241   3.165   4.562   1.904
 2184SOL    HW1 9242   3.199   4.469   1.919
 2184SOL    HW2 9243   3.183   4.589   1.809
 2185SOL     OW 9244   2.181   4.534   2.811
 2185SOL    HW1 9245   2.274   4.570   2.816
 2185SOL    HW2 9246   2.175   4.449   2.863
 2186SOL     OW 9247   2.201   4.233   2.868
 2186SOL    HW1 9248   2.149   4.150   2.851
 2186SOL    HW2 9249   2.278   4.238   2.804
 2187SOL     OW 9250   1.870   5.050   2.062
 2187SOL    HW1 9251   1.777   5.071   2.031
 2187SOL    HW2 9252   1.880   4.951   2.075
 2188SOL     OW 9253   1.902   4.268   2.976
 2188SOL    HW1 9254   1.987   4.235   2.935
 2188SOL    HW2 9255   1.915   4.283   3.074
 2189SOL     OW 9256   2.051   4.244   3.584
 2189SOL    HW1 9257   2.110   4.204   3.514
 2189SOL    HW2 9258   1.993   4.315   3.543
 2190SOL     OW 9259   3.231   4.674   3.522
 2190SOL    HW1 9260   3.270   4.763   3.542
 2190SOL    HW2 9261   3.241   4.654   3.425
 2191SOL     OW 9262   2.677   4.296   2.187
 2191SOL    HW1 9263   2.684   4.207   2.141
 2191SOL    HW2 9264   2.583   4.330   2.179
 2192SOL     OW 9265   3.519   4.328   3.068
 2192SOL    HW1 9266   3.481   4.259   3.130
 2192SOL    HW2 9267   3.601   4.292   3.024
 2193SOL     OW 9268   2.335   4.224   2.053
 2193SOL    HW1 9269   2.396   4.304   2.057
 2193SOL    HW2 9270   2.240   4.255   2.060
 2194SOL     OW 9271   2.021   4.861   3.328
 2194SOL    HW1 9272   2.043   4.800   3.404
 2194SOL    HW2 9273   2.031   4.812   3.242
 2195SOL     OW 9274   3.209   4.783   3.096
 2195SOL    HW1 9275   3.233   4.720   3.022
 2195SOL    HW2 9276   3.119   4.823   3.078
 2196SOL     OW 9277   3.164   4.579   2.171
 2196SOL    HW1 9278   3.078   4.548   2.213
 2196SOL    HW2 9279   3.160   4.565   2.072
 2197SOL     OW 9280   1.945   4.982   2.884
 2197SOL    HW1 9281   1.940   4.981   2.984
 2197SOL    HW2 9282   1.862   4.941   2.846
 2198SOL     OW 9283   3.588   3.859   2.385
 2198SOL    HW1 9284   3.661   3.842   2.318
 2198SOL    HW2 9285   3.557   3.772   2.423
 2199SOL     OW 9286   3.142   4.651   2.534
 2199SOL    HW1 9287   3.202   4.570   2.536
 2199SOL    HW2 9288   3.182   4.720   2.474
 2200SOL     OW 9289   2.692   4.997   3.284
 2200SOL    HW1 9290   2.687   5.030   3.379
 2200SOL    HW2 9291   2.606   5.016   3.238
 2201SOL     OW 9292   2.125   4.050   2.582
 2201SOL    HW1 9293   2.046   4.101   2.548
 2201SOL    HW2 9294   2.116   4.035   2.680
 2202SOL     OW 9295   3.476   5.016   3.151
 2202SOL    HW1 9296   3.536   5.019   3.231
 2202SOL    HW2 9297   3.401   5.080   3.164
 2203SOL     OW 9298   2.901   4.822   2.558
 2203SOL    HW1 9299   2.831   4.775   2.612
 2203SOL    HW2 9300   2.960   4.754   2.515
 2204SOL     OW 9301   3.571   4.109   3.243
 2204SOL    HW1 9302   3.644   4.178   3.247
 2204SOL    HW2 9303   3.599   4.034   3.184
 2205SOL     OW 9304   1.937   4.069   1.895
 2205SOL    HW1 9305   1.845   4.041   1.866
 2205SOL    HW2 9306   1.968   4.146   1.839
 2206SOL     OW 9307   3.302   4.580   3.260
 2206SOL    HW1 9308   3.245   4.632   3.197
 2206SOL    HW2 9309   3.398   4.592   3.236
 2207SOL     OW 9310   1.934   3.890   2.180
 2207SOL    HW1 9311   1.917   3.973   2.126
 2207SOL    HW2 9312   2.024   3.853   2.158
 2208SOL     OW 9313   2.578   4.289   3.570
 2208SOL    HW1 9314   2.597   4.354   3.644
 2208SOL    HW2 9315   2.638   4.209   3.579
 2209SOL     OW 9316   3.312   4.944   3.495
 2209SOL    HW1 9317   3.303   4.934   3.594
 2209SOL    HW2 9318   3.408   4.937   3.469
 2210SOL     OW 9319   3.536   4.607   3.116
 2210SOL    HW1 9320   3.509   4.518   3.079
 2210SOL    HW2 9321   3.537   4.675   3.043
 2211SOL     OW 9322   2.456   4.469   2.514
 2211SOL    HW1 9323   2.506   4.554   2.495
 2211SOL    HW2 9324   2.368   4.471   2.466
 2212SOL     OW 9325   3.592   4.658   3.379
 2212SOL    HW1 9326   3.630   4.749   3.394
 2212SOL    HW2 9327   3.584   4.641   3.280
 2213SOL     OW 9328   2.945   4.708   1.949
 2213SOL    HW1 9329   2.922   4.761   1.867
 2213SOL    HW2 9330   3.026   4.652   1.930
 2214SOL     OW 9331   3.686   3.916   3.089
 2214SOL    HW1 9332   3.682   3.826   3.133
 2214SOL    HW2 9333   3.689   3.905   2.990
 2215SOL     OW 9334   2.290   4.148   2.382
 2215SOL    HW1 9335   2.320   4.076   2.320
 2215SOL    HW2 9336   2.251   4.108   2.465
 2216SOL     OW 9337   2.179   4.271   3.142
 2216SOL    HW1 9338   2.217   4.212   3.214
 2216SOL    HW2 9339   2.219   4.245   3.054
 2217SOL     OW 9340   3.286   3.938   2.974
 2217SOL    HW1 9341   3.338   3.873   3.029
 2217SOL    HW2 9342   3.237   4.001   3.035
 2218SOL     OW 9343   2.863   3.758   3.016
 2218SOL    HW1 9344   2.800   3.686   2.985
 2218SOL    HW2 9345   2.956   3.722   3.016
 2219SOL     OW 9346   2.632   5.054   2.163
 2219SOL    HW1 9347   2.586   4.967   2.180
 2219SOL    HW2 9348   2.723   5.051   2.204
 2220SOL     OW 9349   3.162   4.177   2.553
 2220SOL    HW1 9350   3.103   4.257   2.557
 2220SOL    HW2 9351   3.177   4.142   2.646
 2221SOL     OW 9352   2.092   4.352   3.837
 2221SOL    HW1 9353   1.999   4.350   3.874
 2221SOL    HW2 9354   2.093   4.313   3.745
 2222SOL     OW 9355   2.087   3.999   4.720
 2222SOL    HW1 9356   2.122   3.982   4.812
 2222SOL    HW2 9357   1.999   3.954   4.708
 2223SOL     OW 9358   2.431   4.999   4.889
 2223SOL    HW1 9359   2.338   4.992   4.852
 2223SOL    HW2 9360   2.442   5.088   4.933
 2224SOL     OW 9361   3.417   5.235   4.427
 2224SOL    HW1 9362   3.360   5.219   4.508
 2224SOL    HW2 9363   3.358   5.245   4.347
 2225SOL     OW 9364   2.997   4.427   4.441
 2225SOL    HW1 9365   3.054   4.505   4.416
 2225SOL    HW2 9366   2.937   4.453   4.517
 2226SOL     OW 9367   3.617   4.331   3.955
 2226SOL    HW1 9368   3.605   4.318   3.856
 2226SOL    HW2 9369   3.587   4.250   4.004
 2227SOL     OW 9370   2.630   4.868   4.747
 2227SOL    HW1 9371   2.552   4.885   4.807
 2227SOL    HW2 9372   2.664   4.955   4.711
 2228SOL     OW 9373   2.547   4.736   4.389
 2228SOL    HW1 9374   2.616   4.720   4.459
 2228SOL    HW2 9375   2.474   4.793   4.427
 2229SOL     OW 9376   2.197   5.159   4.785
 2229SOL    HW1 9377   2.119   5.128   4.732
 2229SOL    HW2 9378   2.255   5.217   4.728
 2230SOL     OW 9379   3.465   4.171   4.461
 2230SOL    HW1 9380   3.391   4.217   4.411
 2230SOL    HW2 9381   3.516   4.239   4.514
 2231SOL     OW 9382   2.102   4.815   4.610
 2231SOL    HW1 9383   2.116   4.731   4.662
 2231SOL    HW2 9384   2.047   4.879   4.665
 2232SOL     OW 9385   1.984   4.367   4.287
 2232SOL    HW1 9386   1.939   4.279   4.304
 2232SOL    HW2 9387   1.983   4.421   4.371
 2233SOL     OW 9388   3.551   4.646   4.336
 2233SOL    HW1 9389   3.646   4.617   4.344
 2233SOL    HW2 9390   3.543   4.711   4.261
 2234SOL     OW 9391   3.503   4.832   4.156
 2234SOL    HW1 9392   3.589   4.834   4.104
 2234SOL    HW2 9393   3.517   4.879   4.244
 2235SOL     OW 9394   2.059   4.700   4.988
 2235SOL    HW1 9395   2.148   4.655   4.974
 2235SOL    HW2 9396   1.986   4.635   4.969
 2236SOL     OW 9397   3.387   4.723   3.914
 2236SOL    HW1 9398   3.324   4.647   3.927
 2236SOL    HW2 9399   3.435   4.741   4.000
 2237SOL     OW 9400   2.460   4.453   3.994
 2237SOL    HW1 9401   2.484   4.522   3.926
 2237SOL    HW2 9402   2.382   4.486   4.048
 2238SOL     OW 9403   3.143   4.069   4.668
 2238SOL    HW1 9404   3.057   4.019   4.655
 2238SOL    HW2 9405   3.205   4.015   4.724
 2239SOL     OW 9406   2.853   4.134   4.966
 2239SOL    HW1 9407   2.776   4.168   5.020
 2239SOL    HW2 9408   2.819   4.083   4.887
 2240SOL     OW 9409   2.903   4.425   4.153
 2240SOL    HW1 9410   2.929   4.421   4.249
 2240SOL    HW2 9411   2.818   4.374   4.139
 2241SOL     OW 9412   1.938   4.535   4.513
 2241SOL    HW1 9413   2.037   4.523   4.522
 2241SOL    HW2 9414   1.914   4.630   4.534
 2242SOL     OW 9415   2.412   3.920   4.609
 2242SOL    HW1 9416   2.407   3.915   4.709
 2242SOL    HW2 9417   2.414   4.016   4.580
 2243SOL     OW 9418   3.657   4.790   4.597
 2243SOL    HW1 9419   3.595   4.775   4.521
 2243SOL    HW2 9420   3.605   4.801   4.682
 2244SOL     OW 9421   3.320   4.459   4.452
 2244SOL    HW1 9422   3.315   4.394   4.527
 2244SOL    HW2 9423   3.400   4.518   4.465
 2245SOL     OW 9424   3.494   5.101   3.805
 2245SOL    HW1 9425   3.462   5.195   3.795
 2245SOL    HW2 9426   3.418   5.038   3.793
 2246SOL     OW 9427   3.262   3.831   4.150
 2246SOL    HW1 9428   3.238   3.794   4.060
 2246SOL    HW2 9429   3.361   3.847   4.154
 2247SOL     OW 9430   2.476   3.846   3.841
 2247SOL    HW1 9431   2.574   3.824   3.848
 2247SOL    HW2 9432   2.445   3.829   3.748
 2248SOL     OW 9433   2.784   4.227   4.623
 2248SOL    HW1 9434   2.759   4.218   4.527
 2248SOL    HW2 9435   2.832   4.145   4.654
 2249SOL     OW 9436   3.296   4.912   3.765
 2249SOL    HW1 9437   3.328   4.836   3.822
 2249SOL    HW2 9438   3.204   4.939   3.795
 2250SOL     OW 9439   2.159   3.759   3.895
 2250SOL    HW1 9440   2.208   3.843   3.874
 2250SOL    HW2 9441   2.221   3.694   3.940
 2251SOL     OW 9442   2.321   4.876   4.465
 2251SOL    HW1 9443   2.250   4.849   4.530
 2251SOL    HW2 9444   2.295   4.848   4.372
 2252SOL     OW 9445   2.423   3.946   4.871
 2252SOL    HW1 9446   2.461   3.862   4.908
 2252SOL    HW2 9447   2.335   3.965   4.915
 2253SOL     OW 9448   2.728   4.178   4.366
 2253SOL    HW1 9449   2.696   4.250   4.304
 2253SOL    HW2 9450   2.752   4.097   4.313
 2254SOL     OW 9451   2.879   3.763   4.477
 2254SOL    HW1 9452   2.807   3.768   4.408
 2254SOL    HW2 9453   2.855   3.694   4.546
 2255SOL     OW 9454   3.328   4.314   4.716
 2255SOL    HW1 9455   3.298   4.219   4.723
 2255SOL    HW2 9456   3.401   4.330   4.782
 2256SOL     OW 9457   3.526   5.004   4.381
 2256SOL    HW1 9458   3.625   5.012   4.395
 2256SOL    HW2 9459   3.481   5.088   4.412
 2257SOL     OW 9460   3.252   4.299   3.802
 2257SOL    HW1 9461   3.198   4.278   3.883
 2257SOL    HW2 9462   3.343   4.258   3.811
 2258SOL     OW 9463   3.500   4.823   4.803
 2258SOL    HW1 9464   3.505   4.904   4.862
 2258SOL    HW2 9465   3.414   4.825   4.752
 2259SOL     OW 9466   2.272   4.537   4.975
 2259SOL    HW1 9467   2.358   4.549   5.025
 2259SOL    HW2 9468   2.230   4.450   5.002
 2260SOL     OW 9469   3.136   4.110   4.986
 2260SOL    HW1 9470   3.157   4.184   5.050
 2260SOL    HW2 9471   3.047   4.127   4.943
 2261SOL     OW 9472   2.229   4.824   4.225
 2261SOL    HW1 9473   2.222   4.907   4.169
 2261SOL    HW2 9474   2.233   4.744   4.165
 2262SOL     OW 9475   2.428   4.261   4.589
 2262SOL    HW1 9476   2.440   4.327   4.515
 2262SOL    HW2 9477   2.474   4.295   4.672
 2263SOL     OW 9478   3.444   4.363   4.196
 2263SOL    HW1 9479   3.413   4.424   4.269
 2263SOL    HW2 9480   3.494   4.415   4.127
 2264SOL     OW 9481   2.435   4.594   4.753
 2264SOL    HW1 9482   2.479   4.683   4.744
 2264SOL    HW2 9483   2.372   4.594   4.830
 2265SOL     OW 9484   3.222   4.586   4.769
 2265SOL    HW1 9485   3.147   4.586   4.703
 2265SOL    HW2 9486   3.259   4.494   4.778
 2266SOL     OW 9487   2.169   3.937   4.955
 2266SOL    HW1 9488   2.146   3.974   5.045
 2266SOL    HW2 9489   2.139   3.842   4.949
 2267SOL     OW 9490   2.594   4.358   4.788
 2267SOL    HW1 9491   2.653   4.332   4.712
 2267SOL    HW2 9492   2.566   4.454   4.777
 2268SOL     OW 9493   3.484   4.091   4.098
 2268SOL    HW1 9494   3.486   4.015   4.162
 2268SOL    HW2 9495   3.436   4.168   4.138
 2269SOL     OW 9496   2.885   4.490   4.690
 2269SOL    HW1 9497   2.900   4.511   4.786
 2269SOL    HW2 9498   2.855   4.395   4.681
 2270SOL     OW 9499   3.402   3.998   3.849
 2270SOL    HW1 9500   3.341   3.923   3.872
 2270SOL    HW2 9501   3.424   4.050   3.932
 2271SOL     OW 9502   3.165   4.562   3.766
 2271SOL    HW1 9503   3.199   4.469   3.781
 2271SOL    HW2 9504   3.183   4.589   3.671
 2272SOL     OW 9505   2.181   4.534   4.673
 2272SOL    HW1 9506   2.274   4.570   4.678
 2272SOL    HW2 9507   2.175   4.449   4.725
 2273SOL     OW 9508   2.201   4.233   4.730
 2273SOL    HW1 9509   2.149   4.150   4.713
 2273SOL    HW2 9510   2.278   4.238   4.666
 2274SOL     OW 9511   3.022   3.931   5.201
 2274SOL    HW1 9512   3.022   3.995   5.278
 2274SOL    HW2 9513   3.050   3.979   5.118
 2275SOL     OW 9514   1.870   5.050   3.924
 2275SOL    HW1 9515   1.777   5.071   3.893
 2275SOL    HW2 9516   1.880   4.951   3.937
 2276SOL     OW 9517   2.864   4.520   4.962
 2276SOL    HW1 9518   2.905   4.488   5.048
 2276SOL    HW2 9519   2.768   4.493   4.959
 2277SOL     OW 9520   1.902   4.268   4.838
 2277SOL    HW1 9521   1.987   4.235   4.797
 2277SOL    HW2 9522   1.915   4.283   4.936
 2278SOL     OW 9523   2.677   4.296   4.049
 2278SOL    HW1 9524   2.684   4.207   4.003
 2278SOL    HW2 9525   2.583   4.330   4.041
 2279SOL     OW 9526   3.519   4.328   4.930
 2279SOL    HW1 9527   3.481   4.259   4.992
 2279SOL    HW2 9528   3.601   4.292   4.886
 2280SOL     OW 9529   2.533   4.188   4.993
 2280SOL    HW1 9530   2.499   4.099   4.963
 2280SOL    HW2 9531   2.559   4.242   4.913
 2281SOL     OW 9532   2.335   4.224   3.915
 2281SOL    HW1 9533   2.396   4.304   3.919
 2281SOL    HW2 9534   2.240   4.255   3.922
 2282SOL     OW 9535   3.164   4.579   4.033
 2282SOL    HW1 9536   3.078   4.548   4.075
 2282SOL    HW2 9537   3.160   4.565   3.934
 2283SOL     OW 9538   3.588   3.859   4.247
 2283SOL    HW1 9539   3.661   3.842   4.180
 2283SOL    HW2 9540   3.557   3.772   4.285
 2284SOL     OW 9541   2.692   4.997   5.146
 2284SOL    HW1 9542   2.687   5.030   5.241
 2284SOL    HW2 9543   2.606   5.016   5.100
 2285SOL     OW 9544   3.703   3.899   4.687
 2285SOL    HW1 9545   3.742   3.814   4.651
 2285SOL    HW2 9546   3.605   3.901   4.668
 2286SOL     OW 9547   2.125   4.050   4.444
 2286SOL    HW1 9548   2.046   4.101   4.410
 2286SOL    HW2 9549   2.116   4.035   4.542
 2287SOL     OW 9550   3.056   5.336   3.755
 2287SOL    HW1 9551   3.062   5.243   3.792
 2287SOL    HW2 9552   2.997   5.336   3.675
 2288SOL     OW 9553   2.684   4.726   5.096
 2288SOL    HW1 9554   2.724   4.725   5.004
 2288SOL    HW2 9555   2.694   4.818   5.136
 2289SOL     OW 9556   2.778   4.634   4.015
 2289SOL    HW1 9557   2.841   4.672   3.947
 2289SOL    HW2 9558   2.818   4.551   4.054
 2290SOL     OW 9559   2.901   4.822   4.420
 2290SOL    HW1 9560   2.831   4.775   4.474
 2290SOL    HW2 9561   2.960   4.754   4.377
 2291SOL     OW 9562   2.876   3.960   4.695
 2291SOL    HW1 9563   2.868   3.924   4.602
 2291SOL    HW2 9564   2.874   3.884   4.760
 2292SOL     OW 9565   3.571   4.109   5.105
 2292SOL    HW1 9566   3.644   4.178   5.109
 2292SOL    HW2 9567   3.599   4.034   5.046
 2293SOL     OW 9568   1.937   4.069   3.757
 2293SOL    HW1 9569   1.845   4.041   3.728
 2293SOL    HW2 9570   1.968   4.146   3.701
 2294SOL     OW 9571   3.312   4.944   5.357
 2294SOL    HW1 9572   3.303   4.934   5.456
 2294SOL    HW2 9573   3.408   4.937   5.331
 2295SOL     OW 9574   3.536   4.607   4.978
 2295SOL    HW1 9575   3.509   4.518   4.941
 2295SOL    HW2 9576   3.537   4.675   4.905
 2296SOL     OW 9577   3.087   4.049   4.173
 2296SOL    HW1 9578   3.152   3.975   4.162
 2296SOL    HW2 9579   3.107   4.099   4.257
 2297SOL     OW 9580   2.456   4.469   4.376
 2297SOL    HW1 9581   2.506   4.554   4.357
 2297SOL    HW2 9582   2.368   4.471   4.328
 2298SOL     OW 9583   3.592   4.658   5.241
 2298SOL    HW1 9584   3.630   4.749   5.256
 2298SOL    HW2 9585   3.584   4.641   5.142
 2299SOL     OW 9586   2.721   4.680   4.585
 2299SOL    HW1 9587   2.775   4.611   4.633
 2299SOL    HW2 9588   2.689   4.749   4.651
 2300SOL     OW 9589   2.945   4.708   3.811
 2300SOL    HW1 9590   2.922   4.761   3.729
 2300SOL    HW2 9591   3.026   4.652   3.792
 2301SOL     OW 9592   3.686   3.916   4.951
 2301SOL    HW1 9593   3.682   3.826   4.995
 2301SOL    HW2 9594   3.689   3.905   4.852
 2302SOL     OW 9595   3.286   3.938   4.836
 2302SOL    HW1 9596   3.338   3.873   4.891
 2302SOL    HW2 9597   3.237   4.001   4.897
 2303SOL     OW 9598   2.863   3.758   4.878
 2303SOL    HW1 9599   2.800   3.686   4.847
 2303SOL    HW2 9600   2.956   3.722   4.878
 2304SOL     OW 9601   3.162   4.177   4.415
 2304SOL    HW1 9602   3.103   4.257   4.419
 2304SOL    HW2 9603   3.177   4.142   4.508
 2305SOL     OW 9604   3.455   3.945   4.606
 2305SOL    HW1 9605   3.371   3.944   4.660
 2305SOL    HW2 9606   3.457   4.028   4.550
 2306SOL     OW 9607   1.901   4.801   4.024
 2306SOL    HW1 9608   2.000   4.790   4.015
 2306SOL    HW2 9609   1.861   4.715   4.056
 2307SOL     OW 9610   3.954   0.628   0.113
 2307SOL    HW1 9611   3.861   0.626   0.150
 2307SOL    HW2 9612   3.955   0.589   0.021
 2308SOL     OW 9613   3.949   0.275   0.996
 2308SOL    HW1 9614   3.984   0.258   1.088
 2308SOL    HW2 9615   3.861   0.230   0.984
 2309SOL     OW 9616   3.743   0.368   0.647
 2309SOL    HW1 9617   3.661   0.411   0.686
 2309SOL    HW2 9618   3.715   0.295   0.584
 2310SOL     OW 9619   4.859   0.703   0.717
 2310SOL    HW1 9620   4.916   0.781   0.692
 2310SOL    HW2 9621   4.799   0.729   0.793
 2311SOL     OW 9622   4.492   1.144   1.023
 2311SOL    HW1 9623   4.414   1.161   1.083
 2311SOL    HW2 9624   4.526   1.231   0.987
 2312SOL     OW 9625   4.574   0.798   1.823
 2312SOL    HW1 9626   4.570   0.874   1.888
 2312SOL    HW2 9627   4.596   0.834   1.732
 2313SOL     OW 9628   4.409   1.012   0.665
 2313SOL    HW1 9629   4.478   0.996   0.735
 2313SOL    HW2 9630   4.336   1.069   0.703
 2314SOL     OW 9631   4.059   1.435   1.061
 2314SOL    HW1 9632   3.981   1.404   1.008
 2314SOL    HW2 9633   4.117   1.493   1.004
 2315SOL     OW 9634   4.162   0.392   1.499
 2315SOL    HW1 9635   4.244   0.336   1.508
 2315SOL    HW2 9636   4.081   0.334   1.503
 2316SOL     OW 9637   3.964   1.091   0.886
 2316SOL    HW1 9638   3.978   1.007   0.938
 2316SOL    HW2 9639   3.909   1.155   0.941
 2317SOL     OW 9640   4.344   1.786   1.439
 2317SOL    HW1 9641   4.252   1.769   1.474
 2317SOL    HW2 9642   4.372   1.878   1.465
 2318SOL     OW 9643   3.846   0.643   0.563
 2318SOL    HW1 9644   3.801   0.555   0.580
 2318SOL    HW2 9645   3.845   0.697   0.647
 2319SOL     OW 9646   3.837   0.737   1.597
 2319SOL    HW1 9647   3.925   0.724   1.642
 2319SOL    HW2 9648   3.824   0.834   1.575
 2320SOL     OW 9649   4.337   1.365   0.726
 2320SOL    HW1 9650   4.288   1.278   0.735
 2320SOL    HW2 9651   4.314   1.408   0.639
 2321SOL     OW 9652   5.017   1.228   1.423
 2321SOL    HW1 9653   5.054   1.155   1.365
 2321SOL    HW2 9654   5.069   1.233   1.508
 2322SOL     OW 9655   3.921   0.976   1.264
 2322SOL    HW1 9656   4.010   0.931   1.250
 2322SOL    HW2 9657   3.848   0.911   1.245
 2323SOL     OW 9658   4.041   0.251   1.801
 2323SOL    HW1 9659   4.112   0.322   1.807
 2323SOL    HW2 9660   3.953   0.290   1.829
 2324SOL     OW 9661   4.322   0.729   0.270
 2324SOL    HW1 9662   4.346   0.798   0.202
 2324SOL    HW2 9663   4.244   0.762   0.324
 2325SOL     OW 9664   4.531   0.605   1.465
 2325SOL    HW1 9665   4.484   0.602   1.554
 2325SOL    HW2 9666   4.480   0.550   1.399
 2326SOL     OW 9667   4.715   0.410   1.242
 2326SOL    HW1 9668   4.638   0.444   1.296
 2326SOL    HW2 9669   4.681   0.359   1.163
 2327SOL     OW 9670   3.800   0.811   0.789
 2327SOL    HW1 9671   3.899   0.799   0.798
 2327SOL    HW2 9672   3.776   0.906   0.810
 2328SOL     OW 9673   3.854   1.821   1.571
 2328SOL    HW1 9674   3.844   1.806   1.670
 2328SOL    HW2 9675   3.768   1.857   1.535
 2329SOL     OW 9676   4.589   0.348   0.195
 2329SOL    HW1 9677   4.648   0.411   0.146
 2329SOL    HW2 9678   4.608   0.254   0.166
 2330SOL     OW 9679   4.274   0.196   0.885
 2330SOL    HW1 9680   4.269   0.191   0.985
 2330SOL    HW2 9681   4.276   0.292   0.856
 2331SOL     OW 9682   4.732   1.456   0.477
 2331SOL    HW1 9683   4.686   1.528   0.425
 2331SOL    HW2 9684   4.728   1.476   0.575
 2332SOL     OW 9685   4.075   1.801   0.853
 2332SOL    HW1 9686   4.125   1.715   0.859
 2332SOL    HW2 9687   4.140   1.878   0.850
 2333SOL     OW 9688   4.951   1.550   1.506
 2333SOL    HW1 9689   4.957   1.473   1.570
 2333SOL    HW2 9690   4.899   1.524   1.426
 2334SOL     OW 9691   4.045   0.943   0.242
 2334SOL    HW1 9692   4.127   0.982   0.200
 2334SOL    HW2 9693   4.018   0.861   0.193
 2335SOL     OW 9694   4.835   1.776   0.237
 2335SOL    HW1 9695   4.775   1.714   0.287
 2335SOL    HW2 9696   4.866   1.732   0.152
 2336SOL     OW 9697   3.926   0.285   1.498
 2336SOL    HW1 9698   3.846   0.345   1.485
 2336SOL    HW2 9699   3.916   0.236   1.584
 2337SOL     OW 9700   5.356   1.377   0.081
 2337SOL    HW1 9701   5.324   1.471   0.071
 2337SOL    HW2 9702   5.280   1.314   0.069
 2338SOL     OW 9703   3.973   1.785   1.241
 2338SOL    HW1 9704   4.030   1.720   1.291
 2338SOL    HW2 9705   3.957   1.752   1.148
 2339SOL     OW 9706   4.106   0.700   0.480
 2339SOL    HW1 9707   4.151   0.610   0.477
 2339SOL    HW2 9708   4.012   0.689   0.513
 2340SOL     OW 9709   4.505   0.264   1.749
 2340SOL    HW1 9710   4.572   0.203   1.792
 2340SOL    HW2 9711   4.432   0.283   1.814
 2341SOL     OW 9712   4.527   1.402   0.924
 2341SOL    HW1 9713   4.617   1.416   0.882
 2341SOL    HW2 9714   4.456   1.404   0.853
 2342SOL     OW 9715   4.800   0.683   1.464
 2342SOL    HW1 9716   4.720   0.622   1.467
 2342SOL    HW2 9717   4.881   0.630   1.440
 2343SOL     OW 9718   4.951   1.570   0.793
 2343SOL    HW1 9719   4.972   1.644   0.728
 2343SOL    HW2 9720   5.019   1.570   0.866
 2344SOL     OW 9721   4.995   1.797   0.591
 2344SOL    HW1 9722   5.039   1.861   0.527
 2344SOL    HW2 9723   4.945   1.849   0.661
 2345SOL     OW 9724   4.756   0.549   0.016
 2345SOL    HW1 9725   4.715   0.631  -0.023
 2345SOL    HW2 9726   4.820   0.575   0.089
 2346SOL     OW 9727   3.802   0.556   1.386
 2346SOL    HW1 9728   3.894   0.555   1.345
 2346SOL    HW2 9729   3.796   0.630   1.453
 2347SOL     OW 9730   4.285   0.222   1.147
 2347SOL    HW1 9731   4.323   0.138   1.184
 2347SOL    HW2 9732   4.197   0.241   1.191
 2348SOL     OW 9733   5.388   1.280   0.657
 2348SOL    HW1 9734   5.487   1.288   0.671
 2348SOL    HW2 9735   5.343   1.364   0.688
 2349SOL     OW 9736   4.835   1.195   1.100
 2349SOL    HW1 9737   4.795   1.239   1.181
 2349SOL    HW2 9738   4.794   1.232   1.017
 2350SOL     OW 9739   4.639   0.089   1.402
 2350SOL    HW1 9740   4.664   0.069   1.307
 2350SOL    HW2 9741   4.711   0.145   1.444
 2351SOL     OW 9742   4.429   1.050   0.368
 2351SOL    HW1 9743   4.415   1.057   0.467
 2351SOL    HW2 9744   4.513   0.999   0.350
 2352SOL     OW 9745   4.134   0.813   1.251
 2352SOL    HW1 9746   4.220   0.825   1.301
 2352SOL    HW2 9747   4.092   0.726   1.278
 2353SOL     OW 9748   4.998   0.386   1.262
 2353SOL    HW1 9749   5.019   0.460   1.326
 2353SOL    HW2 9750   4.909   0.403   1.219
 2354SOL     OW 9751   3.788   1.564   1.331
 2354SOL    HW1 9752   3.742   1.646   1.297
 2354SOL    HW2 9753   3.886   1.583   1.340
 2355SOL     OW 9754   4.290   0.537   0.865
 2355SOL    HW1 9755   4.302   0.603   0.791
 2355SOL    HW2 9756   4.336   0.571   0.948
 2356SOL     OW 9757   4.976   1.348   0.388
 2356SOL    HW1 9758   5.026   1.425   0.428
 2356SOL    HW2 9759   4.881   1.350   0.420
 2357SOL     OW 9760   4.078   1.510   1.329
 2357SOL    HW1 9761   4.057   1.466   1.242
 2357SOL    HW2 9762   4.175   1.536   1.332
 2358SOL     OW 9763   4.228   0.050   1.740
 2358SOL    HW1 9764   4.186  -0.007   1.670
 2358SOL    HW2 9765   4.162   0.119   1.772
 2359SOL     OW 9766   5.084   0.862   1.045
 2359SOL    HW1 9767   5.009   0.862   0.979
 2359SOL    HW2 9768   5.121   0.770   1.054
 2360SOL     OW 9769   4.933   0.525   0.275
 2360SOL    HW1 9770   4.946   0.441   0.329
 2360SOL    HW2 9771   4.904   0.599   0.335
 2361SOL     OW 9772   4.031   0.213   1.231
 2361SOL    HW1 9773   4.008   0.250   1.321
 2361SOL    HW2 9774   4.001   0.118   1.225
 2362SOL     OW 9775   5.346   0.367   0.374
 2362SOL    HW1 9776   5.348   0.291   0.438
 2362SOL    HW2 9777   5.298   0.444   0.414
 2363SOL     OW 9778   5.027   0.838   0.042
 2363SOL    HW1 9779   5.061   0.745   0.057
 2363SOL    HW2 9780   5.045   0.865  -0.053
 2364SOL     OW 9781   4.792   1.333   0.849
 2364SOL    HW1 9782   4.799   1.249   0.794
 2364SOL    HW2 9783   4.854   1.402   0.813
 2365SOL     OW 9784   4.043   0.810   0.949
 2365SOL    HW1 9785   4.136   0.846   0.954
 2365SOL    HW2 9786   4.037   0.725   1.001
 2366SOL     OW 9787   4.063   0.509   1.006
 2366SOL    HW1 9788   4.011   0.426   0.989
 2366SOL    HW2 9789   4.140   0.514   0.942
 2367SOL     OW 9790   4.862   0.380   1.678
 2367SOL    HW1 9791   4.817   0.443   1.742
 2367SOL    HW2 9792   4.955   0.411   1.661
 2368SOL     OW 9793   4.884   0.207   1.477
 2368SOL    HW1 9794   4.884   0.271   1.554
 2368SOL    HW2 9795   4.912   0.255   1.394
 2369SOL     OW 9796   3.812   1.801   0.927
 2369SOL    HW1 9797   3.770   1.715   0.900
 2369SOL    HW2 9798   3.906   1.804   0.893
 2370SOL     OW 9799   4.228   1.568   0.910
 2370SOL    HW1 9800   4.294   1.642   0.919
 2370SOL    HW2 9801   4.272   1.489   0.868
 2371SOL     OW 9802   3.764   0.544   1.114
 2371SOL    HW1 9803   3.849   0.511   1.073
 2371SOL    HW2 9804   3.777   0.559   1.212
 2372SOL     OW 9805   3.913   0.520   1.722
 2372SOL    HW1 9806   3.972   0.480   1.652
 2372SOL    HW2 9807   3.855   0.591   1.681
 2373SOL     OW 9808   4.539   0.572   0.325
 2373SOL    HW1 9809   4.546   0.483   0.279
 2373SOL    HW2 9810   4.445   0.606   0.317
 2374SOL     OW 9811   3.976   1.564   1.744
 2374SOL    HW1 9812   3.946   1.621   1.820
 2374SOL    HW2 9813   3.969   1.467   1.770
 2375SOL     OW 9814   4.395   0.464   1.269
 2375SOL    HW1 9815   4.361   0.375   1.239
 2375SOL    HW2 9816   4.421   0.518   1.189
 2376SOL     OW 9817   4.197   0.500   0.191
 2376SOL    HW1 9818   4.258   0.580   0.195
 2376SOL    HW2 9819   4.102   0.531   0.198
 2377SOL     OW 9820   5.071   1.059   1.234
 2377SOL    HW1 9821   5.095   0.996   1.160
 2377SOL    HW2 9822   4.981   1.099   1.216
 2378SOL     OW 9823   3.807   1.258   1.022
 2378SOL    HW1 9824   3.802   1.257   1.122
 2378SOL    HW2 9825   3.724   1.217   0.984
 2379SOL     OW 9826   4.412   1.662   1.716
 2379SOL    HW1 9827   4.356   1.743   1.725
 2379SOL    HW2 9828   4.464   1.666   1.630
 2380SOL     OW 9829   5.112   1.573   0.477
 2380SOL    HW1 9830   5.179   1.585   0.403
 2380SOL    HW2 9831   5.072   1.662   0.500
 2381SOL     OW 9832   3.854   1.794   1.851
 2381SOL    HW1 9833   3.813   1.720   1.904
 2381SOL    HW2 9834   3.918   1.845   1.909
 2382SOL     OW 9835   5.004   0.927   0.672
 2382SOL    HW1 9836   5.064   0.846   0.674
 2382SOL    HW2 9837   5.044   0.996   0.612
 2383SOL     OW 9838   3.987   0.326   0.720
 2383SOL    HW1 9839   3.908   0.377   0.686
 2383SOL    HW2 9840   3.978   0.311   0.818
 2384SOL     OW 9841   4.640   0.910   0.291
 2384SOL    HW1 9842   4.703   0.948   0.223
 2384SOL    HW2 9843   4.680   0.827   0.330
 2385SOL     OW 9844   4.096   1.288   1.490
 2385SOL    HW1 9845   4.083   1.381   1.456
 2385SOL    HW2 9846   4.012   1.236   1.477
 2386SOL     OW 9847   4.763   1.098   0.696
 2386SOL    HW1 9848   4.693   1.051   0.750
 2386SOL    HW2 9849   4.822   1.030   0.653
 2387SOL     OW 9850   4.738   0.236   0.971
 2387SOL    HW1 9851   4.730   0.200   0.878
 2387SOL    HW2 9852   4.736   0.160   1.036
 2388SOL     OW 9853   4.314   1.487   0.491
 2388SOL    HW1 9854   4.356   1.429   0.421
 2388SOL    HW2 9855   4.270   1.566   0.447
 2389SOL     OW 9856   4.396   0.203   1.489
 2389SOL    HW1 9857   4.486   0.187   1.449
 2389SOL    HW2 9858   4.404   0.208   1.588
 2390SOL     OW 9859   5.164   0.856   1.398
 2390SOL    HW1 9860   5.107   0.908   1.335
 2390SOL    HW2 9861   5.260   0.868   1.374
 2391SOL     OW 9862   3.796   0.166   0.318
 2391SOL    HW1 9863   3.779   0.249   0.264
 2391SOL    HW2 9864   3.886   0.129   0.296
 2392SOL     OW 9865   4.440   0.565   1.708
 2392SOL    HW1 9866   4.459   0.630   1.782
 2392SOL    HW2 9867   4.500   0.485   1.717
 2393SOL     OW 9868   4.114   1.741   1.560
 2393SOL    HW1 9869   4.023   1.782   1.558
 2393SOL    HW2 9870   4.107   1.647   1.592
 2394SOL     OW 9871   4.949   0.325   0.449
 2394SOL    HW1 9872   5.014   0.251   0.438
 2394SOL    HW2 9873   4.969   0.375   0.533
 2395SOL     OW 9874   4.318   0.745   0.652
 2395SOL    HW1 9875   4.368   0.830   0.633
 2395SOL    HW2 9876   4.230   0.747   0.604
 2396SOL     OW 9877   4.385   1.790   0.953
 2396SOL    HW1 9878   4.339   1.878   0.940
 2396SOL    HW2 9879   4.484   1.802   0.946
 2397SOL     OW 9880   4.807   0.984   0.087
 2397SOL    HW1 9881   4.784   1.037   0.005
 2397SOL    HW2 9882   4.888   0.928   0.068
 2398SOL     OW 9883   3.803   1.240   0.653
 2398SOL    HW1 9884   3.802   1.193   0.741
 2398SOL    HW2 9885   3.885   1.212   0.602
 2399SOL     OW 9886   4.396   1.391   1.624
 2399SOL    HW1 9887   4.318   1.341   1.662
 2399SOL    HW2 9888   4.393   1.486   1.655
 2400SOL     OW 9889   4.152   0.424   0.520
 2400SOL    HW1 9890   4.182   0.352   0.458
 2400SOL    HW2 9891   4.113   0.384   0.603
 2401SOL     OW 9892   4.041   0.547   1.280
 2401SOL    HW1 9893   4.079   0.488   1.352
 2401SOL    HW2 9894   4.081   0.521   1.192
 2402SOL     OW 9895   4.536   1.586   0.687
 2402SOL    HW1 9896   4.568   1.596   0.593
 2402SOL    HW2 9897   4.457   1.524   0.689
 2403SOL     OW 9898   4.725   0.034   1.154
 2403SOL    HW1 9899   4.662  -0.038   1.123
 2403SOL    HW2 9900   4.818  -0.002   1.154
 2404SOL     OW 9901   4.494   1.330   0.301
 2404SOL    HW1 9902   4.448   1.243   0.318
 2404SOL    HW2 9903   4.585   1.327   0.342
 2405SOL     OW 9904   4.342   1.567   1.284
 2405SOL    HW1 9905   4.337   1.649   1.341
 2405SOL    HW2 9906   4.431   1.564   1.239
 2406SOL     OW 9907   3.763   1.077   0.300
 2406SOL    HW1 9908   3.862   1.066   0.291
 2406SOL    HW2 9909   3.723   0.991   0.332
 2407SOL     OW 9910   4.599   1.646   0.337
 2407SOL    HW1 9911   4.522   1.611   0.283
 2407SOL    HW2 9912   4.567   1.717   0.399
 2408SOL     OW 9913   3.954   0.628   1.975
 2408SOL    HW1 9914   3.861   0.626   2.012
 2408SOL    HW2 9915   3.955   0.589   1.883
 2409SOL     OW 9916   3.949   0.275   2.858
 2409SOL    HW1 9917   3.984   0.258   2.950
 2409SOL    HW2 9918   3.861   0.230   2.846
 2410SOL     OW 9919   3.743   0.368   2.509
 2410SOL    HW1 9920   3.661   0.411   2.548
 2410SOL    HW2 9921   3.715   0.295   2.446
 2411SOL     OW 9922   4.293   1.275   3.027
 2411SOL    HW1 9923   4.200   1.268   2.990
 2411SOL    HW2 9924   4.304   1.364   3.071
 2412SOL     OW 9925   4.859   0.703   2.579
 2412SOL    HW1 9926   4.916   0.781   2.554
 2412SOL    HW2 9927   4.799   0.729   2.655
 2413SOL     OW 9928   4.492   1.144   2.885
 2413SOL    HW1 9929   4.414   1.161   2.945
 2413SOL    HW2 9930   4.526   1.231   2.849
 2414SOL     OW 9931   4.059   1.435   2.923
 2414SOL    HW1 9932   3.981   1.404   2.870
 2414SOL    HW2 9933   4.117   1.493   2.866
 2415SOL     OW 9934   4.162   0.392   3.361
 2415SOL    HW1 9935   4.244   0.336   3.370
 2415SOL    HW2 9936   4.081   0.334   3.365
 2416SOL     OW 9937   3.955   1.713   2.345
 2416SOL    HW1 9938   3.989   1.790   2.399
 2416SOL    HW2 9939   3.999   1.713   2.255
 2417SOL     OW 9940   4.851   1.341   3.552
 2417SOL    HW1 9941   4.898   1.341   3.640
 2417SOL    HW2 9942   4.803   1.254   3.541
 2418SOL     OW 9943   3.954   1.434   2.400
 2418SOL    HW1 9944   3.928   1.530   2.400
 2418SOL    HW2 9945   3.883   1.380   2.445
 2419SOL     OW 9946   3.964   1.091   2.748
 2419SOL    HW1 9947   3.978   1.007   2.800
 2419SOL    HW2 9948   3.909   1.155   2.803
 2420SOL     OW 9949   4.344   1.786   3.301
 2420SOL    HW1 9950   4.252   1.769   3.336
 2420SOL    HW2 9951   4.372   1.878   3.327
 2421SOL     OW 9952   3.846   0.643   2.425
 2421SOL    HW1 9953   3.801   0.555   2.442
 2421SOL    HW2 9954   3.845   0.697   2.509
 2422SOL     OW 9955   3.751   1.596   1.979
 2422SOL    HW1 9956   3.732   1.500   2.000
 2422SOL    HW2 9957   3.718   1.654   2.054
 2423SOL     OW 9958   3.837   0.737   3.459
 2423SOL    HW1 9959   3.925   0.724   3.504
 2423SOL    HW2 9960   3.824   0.834   3.437
 2424SOL     OW 9961   4.337   1.365   2.588
 2424SOL    HW1 9962   4.288   1.278   2.597
 2424SOL    HW2 9963   4.314   1.408   2.501
 2425SOL     OW 9964   5.017   1.228   3.285
 2425SOL    HW1 9965   5.054   1.155   3.227
 2425SOL    HW2 9966   5.069   1.233   3.370
 2426SOL     OW 9967   3.921   0.976   3.126
 2426SOL    HW1 9968   4.010   0.931   3.112
 2426SOL    HW2 9969   3.848   0.911   3.107
 2427SOL     OW 9970   4.041   0.251   3.663
 2427SOL    HW1 9971   4.112   0.322   3.669
 2427SOL    HW2 9972   3.953   0.290   3.691
 2428SOL     OW 9973   4.322   0.729   2.132
 2428SOL    HW1 9974   4.346   0.798   2.064
 2428SOL    HW2 9975   4.244   0.762   2.186
 2429SOL     OW 9976   5.005   0.345   2.806
 2429SOL    HW1 9977   4.919   0.295   2.793
 2429SOL    HW2 9978   5.067   0.291   2.862
 2430SOL     OW 9979   4.531   0.605   3.327
 2430SOL    HW1 9980   4.484   0.602   3.416
 2430SOL    HW2 9981   4.480   0.550   3.261
 2431SOL     OW 9982   4.697   0.890   3.434
 2431SOL    HW1 9983   4.743   0.806   3.405
 2431SOL    HW2 9984   4.641   0.924   3.359
 2432SOL     OW 9985   4.715   0.410   3.104
 2432SOL    HW1 9986   4.638   0.444   3.158
 2432SOL    HW2 9987   4.681   0.359   3.025
 2433SOL     OW 9988   4.765   0.701   2.291
 2433SOL    HW1 9989   4.791   0.697   2.387
 2433SOL    HW2 9990   4.680   0.650   2.277
 2434SOL     OW 9991   3.800   0.811   2.651
 2434SOL    HW1 9992   3.899   0.799   2.660
 2434SOL    HW2 9993   3.776   0.906   2.672
 2435SOL     OW 9994   3.854   1.821   3.433
 2435SOL    HW1 9995   3.844   1.806   3.532
 2435SOL    HW2 9996   3.768   1.857   3.397
 2436SOL     OW 9997   4.589   0.348   2.057
 2436SOL    HW1 9998   4.648   0.411   2.008
 2436SOL    HW2 9999   4.608   0.254   2.028
 2437SOL     OW10000   4.274   0.196   2.747
 2437SOL    HW110001   4.269   0.191   2.847
 2437SOL    HW210002   4.276   0.292   2.718
 2438SOL     OW10003   4.075   1.801   2.715
 2438SOL    HW110004   4.125   1.715   2.721
 2438SOL    HW210005   4.140   1.878   2.712
 2439SOL     OW10006   4.951   1.550   3.368
 2439SOL    HW110007   4.957   1.473   3.432
 2439SOL    HW210008   4.899   1.524   3.288
 2440SOL     OW10009   3.926   0.285   3.360
 2440SOL    HW110010   3.846   0.345   3.347
 2440SOL    HW210011   3.916   0.236   3.446
 2441SOL     OW10012   4.664   1.698   2.766
 2441SOL    HW110013   4.744   1.641   2.787
 2441SOL    HW210014   4.615   1.658   2.689
 2442SOL     OW10015   4.106   0.700   2.342
 2442SOL    HW110016   4.151   0.610   2.339
 2442SOL    HW210017   4.012   0.689   2.375
 2443SOL     OW10018   4.338   0.122   1.979
 2443SOL    HW110019   4.436   0.100   1.986
 2443SOL    HW210020   4.307   0.105   1.886
 2444SOL     OW10021   4.505   0.264   3.611
 2444SOL    HW110022   4.572   0.203   3.654
 2444SOL    HW210023   4.432   0.283   3.676
 2445SOL     OW10024   4.646   0.503   2.761
 2445SOL    HW110025   4.621   0.494   2.665
 2445SOL    HW210026   4.694   0.421   2.792
 2446SOL     OW10027   4.659   0.236   2.342
 2446SOL    HW110028   4.611   0.277   2.264
 2446SOL    HW210029   4.758   0.234   2.323
 2447SOL     OW10030   4.800   0.683   3.326
 2447SOL    HW110031   4.720   0.622   3.329
 2447SOL    HW210032   4.881   0.630   3.302
 2448SOL     OW10033   4.183   1.152   2.603
 2448SOL    HW110034   4.112   1.125   2.668
 2448SOL    HW210035   4.157   1.124   2.510
 2449SOL     OW10036   4.756   0.549   1.878
 2449SOL    HW110037   4.715   0.631   1.839
 2449SOL    HW210038   4.820   0.575   1.951
 2450SOL     OW10039   3.802   0.556   3.248
 2450SOL    HW110040   3.894   0.555   3.207
 2450SOL    HW210041   3.796   0.630   3.315
 2451SOL     OW10042   4.285   0.222   3.009
 2451SOL    HW110043   4.323   0.138   3.046
 2451SOL    HW210044   4.197   0.241   3.053
 2452SOL     OW10045   4.590   0.454   2.504
 2452SOL    HW110046   4.558   0.526   2.442
 2452SOL    HW210047   4.614   0.373   2.451
 2453SOL     OW10048   4.212   1.385   2.036
 2453SOL    HW110049   4.125   1.370   2.083
 2453SOL    HW210050   4.195   1.411   1.941
 2454SOL     OW10051   5.388   1.280   2.519
 2454SOL    HW110052   5.487   1.288   2.533
 2454SOL    HW210053   5.343   1.364   2.550
 2455SOL     OW10054   4.251   0.256   2.190
 2455SOL    HW110055   4.278   0.197   2.115
 2455SOL    HW210056   4.251   0.351   2.159
 2456SOL     OW10057   4.788   1.347   3.202
 2456SOL    HW110058   4.708   1.324   3.257
 2456SOL    HW210059   4.871   1.321   3.251
 2457SOL     OW10060   4.639   0.089   3.264
 2457SOL    HW110061   4.664   0.069   3.169
 2457SOL    HW210062   4.711   0.145   3.306
 2458SOL     OW10063   4.704   1.116   3.581
 2458SOL    HW110064   4.605   1.122   3.591
 2458SOL    HW210065   4.727   1.036   3.525
 2459SOL     OW10066   4.134   0.813   3.113
 2459SOL    HW110067   4.220   0.825   3.163
 2459SOL    HW210068   4.092   0.726   3.140
 2460SOL     OW10069   4.998   0.386   3.124
 2460SOL    HW110070   5.019   0.460   3.188
 2460SOL    HW210071   4.909   0.403   3.081
 2461SOL     OW10072   3.788   1.564   3.193
 2461SOL    HW110073   3.742   1.646   3.159
 2461SOL    HW210074   3.886   1.583   3.202
 2462SOL     OW10075   4.290   0.537   2.727
 2462SOL    HW110076   4.302   0.603   2.653
 2462SOL    HW210077   4.336   0.571   2.810
 2463SOL     OW10078   4.078   1.510   3.191
 2463SOL    HW110079   4.057   1.466   3.104
 2463SOL    HW210080   4.175   1.536   3.194
 2464SOL     OW10081   4.737   0.105   3.632
 2464SOL    HW110082   4.743   0.190   3.580
 2464SOL    HW210083   4.769   0.029   3.575
 2465SOL     OW10084   4.228   0.050   3.602
 2465SOL    HW110085   4.186  -0.007   3.532
 2465SOL    HW210086   4.162   0.119   3.634
 2466SOL     OW10087   4.297   0.870   2.891
 2466SOL    HW110088   4.341   0.959   2.882
 2466SOL    HW210089   4.234   0.870   2.968
 2467SOL     OW10090   5.084   0.862   2.907
 2467SOL    HW110091   5.009   0.862   2.841
 2467SOL    HW210092   5.121   0.770   2.916
 2468SOL     OW10093   4.933   0.525   2.137
 2468SOL    HW110094   4.946   0.441   2.191
 2468SOL    HW210095   4.904   0.599   2.197
 2469SOL     OW10096   4.031   0.213   3.093
 2469SOL    HW110097   4.008   0.250   3.183
 2469SOL    HW210098   4.001   0.118   3.087
 2470SOL     OW10099   3.761   1.310   3.144
 2470SOL    HW110100   3.814   1.261   3.212
 2470SOL    HW210101   3.783   1.408   3.149
 2471SOL     OW10102   4.456   0.634   2.926
 2471SOL    HW110103   4.515   0.608   2.850
 2471SOL    HW210104   4.428   0.730   2.915
 2472SOL     OW10105   4.031   0.063   2.480
 2472SOL    HW110106   4.020   0.157   2.513
 2472SOL    HW210107   4.026   0.000   2.557
 2473SOL     OW10108   5.346   0.367   2.236
 2473SOL    HW110109   5.348   0.291   2.300
 2473SOL    HW210110   5.298   0.444   2.276
 2474SOL     OW10111   4.747   0.766   2.828
 2474SOL    HW110112   4.762   0.787   2.924
 2474SOL    HW210113   4.717   0.671   2.819
 2475SOL     OW10114   4.704   1.573   3.562
 2475SOL    HW110115   4.684   1.617   3.474
 2475SOL    HW210116   4.743   1.482   3.546
 2476SOL     OW10117   5.027   0.838   1.904
 2476SOL    HW110118   5.061   0.745   1.919
 2476SOL    HW210119   5.045   0.865   1.809
 2477SOL     OW10120   4.043   0.810   2.811
 2477SOL    HW110121   4.136   0.846   2.816
 2477SOL    HW210122   4.037   0.725   2.863
 2478SOL     OW10123   4.063   0.509   2.868
 2478SOL    HW110124   4.011   0.426   2.851
 2478SOL    HW210125   4.140   0.514   2.804
 2479SOL     OW10126   4.884   0.207   3.339
 2479SOL    HW110127   4.884   0.271   3.416
 2479SOL    HW210128   4.912   0.255   3.256
 2480SOL     OW10129   3.732   1.326   2.062
 2480SOL    HW110130   3.639   1.347   2.031
 2480SOL    HW210131   3.742   1.227   2.075
 2481SOL     OW10132   3.812   1.801   2.789
 2481SOL    HW110133   3.770   1.715   2.762
 2481SOL    HW210134   3.906   1.804   2.755
 2482SOL     OW10135   4.228   1.568   2.772
 2482SOL    HW110136   4.294   1.642   2.781
 2482SOL    HW210137   4.272   1.489   2.730
 2483SOL     OW10138   4.726   0.796   3.100
 2483SOL    HW110139   4.767   0.764   3.186
 2483SOL    HW210140   4.630   0.769   3.097
 2484SOL     OW10141   3.764   0.544   2.976
 2484SOL    HW110142   3.849   0.511   2.935
 2484SOL    HW210143   3.777   0.559   3.074
 2485SOL     OW10144   3.913   0.520   3.584
 2485SOL    HW110145   3.972   0.480   3.514
 2485SOL    HW210146   3.855   0.591   3.543
 2486SOL     OW10147   4.539   0.572   2.187
 2486SOL    HW110148   4.546   0.483   2.141
 2486SOL    HW210149   4.445   0.606   2.179
 2487SOL     OW10150   4.395   0.464   3.131
 2487SOL    HW110151   4.361   0.375   3.101
 2487SOL    HW210152   4.421   0.518   3.051
 2488SOL     OW10153   4.654   1.678   3.327
 2488SOL    HW110154   4.630   1.660   3.232
 2488SOL    HW210155   4.684   1.772   3.337
 2489SOL     OW10156   4.197   0.500   2.053
 2489SOL    HW110157   4.258   0.580   2.057
 2489SOL    HW210158   4.102   0.531   2.060
 2490SOL     OW10159   3.883   1.137   3.328
 2490SOL    HW110160   3.905   1.076   3.404
 2490SOL    HW210161   3.893   1.088   3.242
 2491SOL     OW10162   5.071   1.059   3.096
 2491SOL    HW110163   5.095   0.996   3.022
 2491SOL    HW210164   4.981   1.099   3.078
 2492SOL     OW10165   4.976   1.731   2.990
 2492SOL    HW110166   5.060   1.736   2.936
 2492SOL    HW210167   4.953   1.635   3.008
 2493SOL     OW10168   3.807   1.258   2.884
 2493SOL    HW110169   3.802   1.257   2.984
 2493SOL    HW210170   3.724   1.217   2.846
 2494SOL     OW10171   4.412   1.662   3.578
 2494SOL    HW110172   4.356   1.743   3.587
 2494SOL    HW210173   4.464   1.666   3.492
 2495SOL     OW10174   5.112   1.573   2.339
 2495SOL    HW110175   5.179   1.585   2.265
 2495SOL    HW210176   5.072   1.662   2.362
 2496SOL     OW10177   5.004   0.927   2.534
 2496SOL    HW110178   5.064   0.846   2.536
 2496SOL    HW210179   5.044   0.996   2.474
 2497SOL     OW10180   3.987   0.326   2.582
 2497SOL    HW110181   3.908   0.377   2.548
 2497SOL    HW210182   3.978   0.311   2.680
 2498SOL     OW10183   4.546   1.002   3.234
 2498SOL    HW110184   4.586   1.001   3.142
 2498SOL    HW210185   4.556   1.094   3.274
 2499SOL     OW10186   4.640   0.910   2.153
 2499SOL    HW110187   4.703   0.948   2.085
 2499SOL    HW210188   4.680   0.827   2.192
 2500SOL     OW10189   4.096   1.288   3.352
 2500SOL    HW110190   4.083   1.381   3.318
 2500SOL    HW210191   4.012   1.236   3.339
 2501SOL     OW10192   4.738   0.236   2.833
 2501SOL    HW110193   4.730   0.200   2.740
 2501SOL    HW210194   4.736   0.160   2.898
 2502SOL     OW10195   3.979   1.348   2.152
 2502SOL    HW110196   3.883   1.349   2.125
 2502SOL    HW210197   3.991   1.401   2.236
 2503SOL     OW10198   4.396   0.203   3.351
 2503SOL    HW110199   4.486   0.187   3.311
 2503SOL    HW210200   4.404   0.208   3.450
 2504SOL     OW10201   3.799   0.345   1.895
 2504SOL    HW110202   3.707   0.317   1.866
 2504SOL    HW210203   3.830   0.422   1.839
 2505SOL     OW10204   5.164   0.856   3.260
 2505SOL    HW110205   5.107   0.908   3.197
 2505SOL    HW210206   5.260   0.868   3.236
 2506SOL     OW10207   3.796   0.166   2.180
 2506SOL    HW110208   3.779   0.249   2.126
 2506SOL    HW210209   3.886   0.129   2.158
 2507SOL     OW10210   4.337   0.842   3.293
 2507SOL    HW110211   4.393   0.923   3.276
 2507SOL    HW210212   4.396   0.762   3.296
 2508SOL     OW10213   4.440   0.565   3.570
 2508SOL    HW110214   4.459   0.630   3.644
 2508SOL    HW210215   4.500   0.485   3.579
 2509SOL     OW10216   4.114   1.741   3.422
 2509SOL    HW110217   4.023   1.782   3.420
 2509SOL    HW210218   4.107   1.647   3.454
 2510SOL     OW10219   4.949   0.325   2.311
 2510SOL    HW110220   5.014   0.251   2.300
 2510SOL    HW210221   4.969   0.375   2.395
 2511SOL     OW10222   4.318   0.745   2.514
 2511SOL    HW110223   4.368   0.830   2.495
 2511SOL    HW210224   4.230   0.747   2.466
 2512SOL     OW10225   4.385   1.790   2.815
 2512SOL    HW110226   4.339   1.878   2.802
 2512SOL    HW210227   4.484   1.802   2.808
 2513SOL     OW10228   4.583   0.956   2.723
 2513SOL    HW110229   4.637   0.887   2.771
 2513SOL    HW210230   4.551   1.025   2.789
 2514SOL     OW10231   4.807   0.984   1.949
 2514SOL    HW110232   4.784   1.037   1.867
 2514SOL    HW210233   4.888   0.928   1.930
 2515SOL     OW10234   3.803   1.240   2.515
 2515SOL    HW110235   3.802   1.193   2.603
 2515SOL    HW210236   3.885   1.212   2.464
 2516SOL     OW10237   4.152   0.424   2.382
 2516SOL    HW110238   4.182   0.352   2.320
 2516SOL    HW210239   4.113   0.384   2.465
 2517SOL     OW10240   4.041   0.547   3.142
 2517SOL    HW110241   4.079   0.488   3.214
 2517SOL    HW210242   4.081   0.521   3.054
 2518SOL     OW10243   4.725   0.034   3.016
 2518SOL    HW110244   4.662  -0.038   2.985
 2518SOL    HW210245   4.818  -0.002   3.016
 2519SOL     OW10246   4.342   1.567   3.146
 2519SOL    HW110247   4.337   1.649   3.203
 2519SOL    HW210248   4.431   1.564   3.101
 2520SOL     OW10249   3.954   0.628   3.837
 2520SOL    HW110250   3.861   0.626   3.874
 2520SOL    HW210251   3.955   0.589   3.745
 2521SOL     OW10252   3.949   0.275   4.720
 2521SOL    HW110253   3.984   0.258   4.812
 2521SOL    HW210254   3.861   0.230   4.708
 2522SOL     OW10255   3.743   0.368   4.371
 2522SOL    HW110256   3.661   0.411   4.410
 2522SOL    HW210257   3.715   0.295   4.308
 2523SOL     OW10258   4.409   1.012   4.389
 2523SOL    HW110259   4.478   0.996   4.459
 2523SOL    HW210260   4.336   1.069   4.427
 2524SOL     OW10261   4.059   1.435   4.785
 2524SOL    HW110262   3.981   1.404   4.732
 2524SOL    HW210263   4.117   1.493   4.728
 2525SOL     OW10264   3.955   1.713   4.207
 2525SOL    HW110265   3.989   1.790   4.261
 2525SOL    HW210266   3.999   1.713   4.117
 2526SOL     OW10267   3.954   1.434   4.262
 2526SOL    HW110268   3.928   1.530   4.262
 2526SOL    HW210269   3.883   1.380   4.307
 2527SOL     OW10270   3.964   1.091   4.610
 2527SOL    HW110271   3.978   1.007   4.662
 2527SOL    HW210272   3.909   1.155   4.665
 2528SOL     OW10273   3.846   0.643   4.287
 2528SOL    HW110274   3.801   0.555   4.304
 2528SOL    HW210275   3.845   0.697   4.371
 2529SOL     OW10276   4.337   1.365   4.450
 2529SOL    HW110277   4.288   1.278   4.459
 2529SOL    HW210278   4.314   1.408   4.363
 2530SOL     OW10279   4.533   0.004   4.226
 2530SOL    HW110280   4.573   0.095   4.217
 2530SOL    HW210281   4.433   0.012   4.232
 2531SOL     OW10282   3.921   0.976   4.988
 2531SOL    HW110283   4.010   0.931   4.974
 2531SOL    HW210284   3.848   0.911   4.969
 2532SOL     OW10285   4.322   0.729   3.994
 2532SOL    HW110286   4.346   0.798   3.926
 2532SOL    HW210287   4.244   0.762   4.048
 2533SOL     OW10288   5.005   0.345   4.668
 2533SOL    HW110289   4.919   0.295   4.655
 2533SOL    HW210290   5.067   0.291   4.724
 2534SOL     OW10291   3.800   0.811   4.513
 2534SOL    HW110292   3.899   0.799   4.522
 2534SOL    HW210293   3.776   0.906   4.534
 2535SOL     OW10294   4.589   0.348   3.919
 2535SOL    HW110295   4.648   0.411   3.870
 2535SOL    HW210296   4.608   0.254   3.890
 2536SOL     OW10297   4.732   1.456   4.201
 2536SOL    HW110298   4.686   1.528   4.149
 2536SOL    HW210299   4.728   1.476   4.299
 2537SOL     OW10300   4.045   0.943   3.966
 2537SOL    HW110301   4.127   0.982   3.924
 2537SOL    HW210302   4.018   0.861   3.917
 2538SOL     OW10303   4.835   1.776   3.961
 2538SOL    HW110304   4.775   1.714   4.011
 2538SOL    HW210305   4.866   1.732   3.876
 2539SOL     OW10306   4.188   1.743   4.047
 2539SOL    HW110307   4.221   1.782   4.133
 2539SOL    HW210308   4.264   1.736   3.982
 2540SOL     OW10309   4.664   1.698   4.628
 2540SOL    HW110310   4.744   1.641   4.649
 2540SOL    HW210311   4.615   1.658   4.551
 2541SOL     OW10312   4.106   0.700   4.204
 2541SOL    HW110313   4.151   0.610   4.201
 2541SOL    HW210314   4.012   0.689   4.237
 2542SOL     OW10315   4.338   0.122   3.841
 2542SOL    HW110316   4.436   0.100   3.848
 2542SOL    HW210317   4.307   0.105   3.748
 2543SOL     OW10318   4.646   0.503   4.623
 2543SOL    HW110319   4.621   0.494   4.527
 2543SOL    HW210320   4.694   0.421   4.654
 2544SOL     OW10321   4.263   0.064   4.236
 2544SOL    HW110322   4.182   0.065   4.294
 2544SOL    HW210323   4.266   0.147   4.181
 2545SOL     OW10324   4.021   0.035   3.895
 2545SOL    HW110325   4.070   0.119   3.874
 2545SOL    HW210326   4.083  -0.030   3.940
 2546SOL     OW10327   4.659   0.236   4.204
 2546SOL    HW110328   4.611   0.277   4.126
 2546SOL    HW210329   4.758   0.234   4.185
 2547SOL     OW10330   4.951   1.570   4.517
 2547SOL    HW110331   4.972   1.644   4.452
 2547SOL    HW210332   5.019   1.570   4.590
 2548SOL     OW10333   4.183   1.152   4.465
 2548SOL    HW110334   4.112   1.125   4.530
 2548SOL    HW210335   4.157   1.124   4.372
 2549SOL     OW10336   4.995   1.797   4.315
 2549SOL    HW110337   5.039   1.861   4.251
 2549SOL    HW210338   4.945   1.849   4.385
 2550SOL     OW10339   4.590   0.454   4.366
 2550SOL    HW110340   4.558   0.526   4.304
 2550SOL    HW210341   4.614   0.373   4.313
 2551SOL     OW10342   5.388   1.280   4.381
 2551SOL    HW110343   5.487   1.288   4.395
 2551SOL    HW210344   5.343   1.364   4.412
 2552SOL     OW10345   4.251   0.256   4.052
 2552SOL    HW110346   4.278   0.197   3.977
 2552SOL    HW210347   4.251   0.351   4.021
 2553SOL     OW10348   5.316   1.629   5.349
 2553SOL    HW110349   5.343   1.663   5.259
 2553SOL    HW210350   5.395   1.591   5.395
 2554SOL     OW10351   4.091   1.100   4.225
 2554SOL    HW110352   4.084   1.183   4.169
 2554SOL    HW210353   4.095   1.020   4.165
 2555SOL     OW10354   4.290   0.537   4.589
 2555SOL    HW110355   4.302   0.603   4.515
 2555SOL    HW210356   4.336   0.571   4.672
 2556SOL     OW10357   4.976   1.348   4.112
 2556SOL    HW110358   5.026   1.425   4.152
 2556SOL    HW210359   4.881   1.350   4.144
 2557SOL     OW10360   4.078   1.510   5.053
 2557SOL    HW110361   4.057   1.466   4.966
 2557SOL    HW210362   4.175   1.536   5.056
 2558SOL     OW10363   5.084   0.862   4.769
 2558SOL    HW110364   5.009   0.862   4.703
 2558SOL    HW210365   5.121   0.770   4.778
 2559SOL     OW10366   4.456   0.634   4.788
 2559SOL    HW110367   4.515   0.608   4.712
 2559SOL    HW210368   4.428   0.730   4.777
 2560SOL     OW10369   4.031   0.063   4.342
 2560SOL    HW110370   4.020   0.157   4.375
 2560SOL    HW210371   4.026   0.000   4.419
 2561SOL     OW10372   5.346   0.367   4.098
 2561SOL    HW110373   5.348   0.291   4.162
 2561SOL    HW210374   5.298   0.444   4.138
 2562SOL     OW10375   4.747   0.766   4.690
 2562SOL    HW110376   4.762   0.787   4.786
 2562SOL    HW210377   4.717   0.671   4.681
 2563SOL     OW10378   5.027   0.838   3.766
 2563SOL    HW110379   5.061   0.745   3.781
 2563SOL    HW210380   5.045   0.865   3.671
 2564SOL     OW10381   4.043   0.810   4.673
 2564SOL    HW110382   4.136   0.846   4.678
 2564SOL    HW210383   4.037   0.725   4.725
 2565SOL     OW10384   4.063   0.509   4.730
 2565SOL    HW110385   4.011   0.426   4.713
 2565SOL    HW210386   4.140   0.514   4.666
 2566SOL     OW10387   3.732   1.326   3.924
 2566SOL    HW110388   3.639   1.347   3.893
 2566SOL    HW210389   3.742   1.227   3.937
 2567SOL     OW10390   4.228   1.568   4.634
 2567SOL    HW110391   4.294   1.642   4.643
 2567SOL    HW210392   4.272   1.489   4.592
 2568SOL     OW10393   4.726   0.796   4.962
 2568SOL    HW110394   4.767   0.764   5.048
 2568SOL    HW210395   4.630   0.769   4.959
 2569SOL     OW10396   3.764   0.544   4.838
 2569SOL    HW110397   3.849   0.511   4.797
 2569SOL    HW210398   3.777   0.559   4.936
 2570SOL     OW10399   4.539   0.572   4.049
 2570SOL    HW110400   4.546   0.483   4.003
 2570SOL    HW210401   4.445   0.606   4.041
 2571SOL     OW10402   4.395   0.464   4.993
 2571SOL    HW110403   4.361   0.375   4.963
 2571SOL    HW210404   4.421   0.518   4.913
 2572SOL     OW10405   4.654   1.678   5.189
 2572SOL    HW110406   4.630   1.660   5.094
 2572SOL    HW210407   4.684   1.772   5.199
 2573SOL     OW10408   4.197   0.500   3.915
 2573SOL    HW110409   4.258   0.580   3.919
 2573SOL    HW210410   4.102   0.531   3.922
 2574SOL     OW10411   5.071   1.059   4.958
 2574SOL    HW110412   5.095   0.996   4.884
 2574SOL    HW210413   4.981   1.099   4.940
 2575SOL     OW10414   5.112   1.573   4.201
 2575SOL    HW110415   5.179   1.585   4.127
 2575SOL    HW210416   5.072   1.662   4.224
 2576SOL     OW10417   4.396   1.616   3.878
 2576SOL    HW110418   4.405   1.626   3.779
 2576SOL    HW210419   4.356   1.527   3.899
 2577SOL     OW10420   3.987   0.326   4.444
 2577SOL    HW110421   3.908   0.377   4.410
 2577SOL    HW210422   3.978   0.311   4.542
 2578SOL     OW10423   4.763   1.098   4.420
 2578SOL    HW110424   4.693   1.051   4.474
 2578SOL    HW210425   4.822   1.030   4.377
 2579SOL     OW10426   4.738   0.236   4.695
 2579SOL    HW110427   4.730   0.200   4.602
 2579SOL    HW210428   4.736   0.160   4.760
 2580SOL     OW10429   4.314   1.487   4.215
 2580SOL    HW110430   4.356   1.429   4.145
 2580SOL    HW210431   4.270   1.566   4.171
 2581SOL     OW10432   3.799   0.345   3.757
 2581SOL    HW110433   3.707   0.317   3.728
 2581SOL    HW210434   3.830   0.422   3.701
 2582SOL     OW10435   3.796   0.166   4.042
 2582SOL    HW110436   3.779   0.249   3.988
 2582SOL    HW210437   3.886   0.129   4.020
 2583SOL     OW10438   4.949   0.325   4.173
 2583SOL    HW110439   5.014   0.251   4.162
 2583SOL    HW210440   4.969   0.375   4.257
 2584SOL     OW10441   4.318   0.745   4.376
 2584SOL    HW110442   4.368   0.830   4.357
 2584SOL    HW210443   4.230   0.747   4.328
 2585SOL     OW10444   4.583   1.374   3.740
 2585SOL    HW110445   4.537   1.389   3.828
 2585SOL    HW210446   4.627   1.459   3.710
 2586SOL     OW10447   4.385   1.790   4.677
 2586SOL    HW110448   4.339   1.878   4.664
 2586SOL    HW210449   4.484   1.802   4.670
 2587SOL     OW10450   4.583   0.956   4.585
 2587SOL    HW110451   4.637   0.887   4.633
 2587SOL    HW210452   4.551   1.025   4.651
 2588SOL     OW10453   3.803   1.240   4.377
 2588SOL    HW110454   3.802   1.193   4.465
 2588SOL    HW210455   3.885   1.212   4.326
 2589SOL     OW10456   4.152   0.424   4.244
 2589SOL    HW110457   4.182   0.352   4.182
 2589SOL    HW210458   4.113   0.384   4.327
 2590SOL     OW10459   4.536   1.586   4.411
 2590SOL    HW110460   4.568   1.596   4.317
 2590SOL    HW210461   4.457   1.524   4.413
 2591SOL     OW10462   4.725   0.034   4.878
 2591SOL    HW110463   4.662  -0.038   4.847
 2591SOL    HW210464   4.818  -0.002   4.878
 2592SOL     OW10465   4.494   1.330   4.025
 2592SOL    HW110466   4.448   1.243   4.042
 2592SOL    HW210467   4.585   1.327   4.066
 2593SOL     OW10468   3.763   1.077   4.024
 2593SOL    HW110469   3.862   1.066   4.015
 2593SOL    HW210470   3.723   0.991   4.056
 2594SOL     OW10471   4.599   1.646   4.061
 2594SOL    HW110472   4.522   1.611   4.007
 2594SOL    HW210473   4.567   1.717   4.123
 2595SOL     OW10474   3.743   2.230   0.647
 2595SOL    HW110475   3.661   2.273   0.686
 2595SOL    HW210476   3.715   2.157   0.584
 2596SOL     OW10477   4.859   2.565   0.717
 2596SOL    HW110478   4.916   2.643   0.692
 2596SOL    HW210479   4.799   2.591   0.793
 2597SOL     OW10480   4.574   2.660   1.823
 2597SOL    HW110481   4.570   2.736   1.888
 2597SOL    HW210482   4.596   2.696   1.732
 2598SOL     OW10483   4.409   2.874   0.665
 2598SOL    HW110484   4.478   2.858   0.735
 2598SOL    HW210485   4.336   2.931   0.703
 2599SOL     OW10486   4.410   3.023   1.803
 2599SOL    HW110487   4.470   3.102   1.817
 2599SOL    HW210488   4.324   3.054   1.762
 2600SOL     OW10489   4.059   3.297   1.061
 2600SOL    HW110490   3.981   3.266   1.008
 2600SOL    HW210491   4.117   3.355   1.004
 2601SOL     OW10492   4.162   2.254   1.499
 2601SOL    HW110493   4.244   2.198   1.508
 2601SOL    HW210494   4.081   2.196   1.503
 2602SOL     OW10495   3.955   3.575   0.483
 2602SOL    HW110496   3.989   3.652   0.537
 2602SOL    HW210497   3.999   3.575   0.393
 2603SOL     OW10498   4.851   3.203   1.690
 2603SOL    HW110499   4.898   3.203   1.778
 2603SOL    HW210500   4.803   3.116   1.679
 2604SOL     OW10501   3.954   3.296   0.538
 2604SOL    HW110502   3.928   3.392   0.538
 2604SOL    HW210503   3.883   3.242   0.583
 2605SOL     OW10504   4.344   3.648   1.439
 2605SOL    HW110505   4.252   3.631   1.474
 2605SOL    HW210506   4.372   3.740   1.465
 2606SOL     OW10507   4.330   2.826   0.123
 2606SOL    HW110508   4.337   2.910   0.069
 2606SOL    HW210509   4.376   2.839   0.211
 2607SOL     OW10510   3.846   2.505   0.563
 2607SOL    HW110511   3.801   2.417   0.580
 2607SOL    HW210512   3.845   2.559   0.647
 2608SOL     OW10513   3.837   2.599   1.597
 2608SOL    HW110514   3.925   2.586   1.642
 2608SOL    HW210515   3.824   2.696   1.575
 2609SOL     OW10516   4.337   3.227   0.726
 2609SOL    HW110517   4.288   3.140   0.735
 2609SOL    HW210518   4.314   3.270   0.639
 2610SOL     OW10519   5.017   3.090   1.423
 2610SOL    HW110520   5.054   3.017   1.365
 2610SOL    HW210521   5.069   3.095   1.508
 2611SOL     OW10522   4.533   1.866   0.502
 2611SOL    HW110523   4.573   1.957   0.493
 2611SOL    HW210524   4.433   1.874   0.508
 2612SOL     OW10525   4.911   3.654   1.616
 2612SOL    HW110526   4.935   3.714   1.540
 2612SOL    HW210527   4.918   3.559   1.586
 2613SOL     OW10528   4.322   2.591   0.270
 2613SOL    HW110529   4.346   2.660   0.202
 2613SOL    HW210530   4.244   2.624   0.324
 2614SOL     OW10531   5.005   2.207   0.944
 2614SOL    HW110532   4.919   2.157   0.931
 2614SOL    HW210533   5.067   2.153   1.000
 2615SOL     OW10534   4.531   2.467   1.465
 2615SOL    HW110535   4.484   2.464   1.554
 2615SOL    HW210536   4.480   2.412   1.399
 2616SOL     OW10537   4.697   2.752   1.572
 2616SOL    HW110538   4.743   2.668   1.543
 2616SOL    HW210539   4.641   2.786   1.497
 2617SOL     OW10540   4.715   2.272   1.242
 2617SOL    HW110541   4.638   2.306   1.296
 2617SOL    HW210542   4.681   2.221   1.163
 2618SOL     OW10543   4.765   2.563   0.429
 2618SOL    HW110544   4.791   2.559   0.525
 2618SOL    HW210545   4.680   2.512   0.415
 2619SOL     OW10546   3.854   3.683   1.571
 2619SOL    HW110547   3.844   3.668   1.670
 2619SOL    HW210548   3.768   3.719   1.535
 2620SOL     OW10549   4.589   2.210   0.195
 2620SOL    HW110550   4.648   2.273   0.146
 2620SOL    HW210551   4.608   2.116   0.166
 2621SOL     OW10552   4.274   2.058   0.885
 2621SOL    HW110553   4.269   2.053   0.985
 2621SOL    HW210554   4.276   2.154   0.856
 2622SOL     OW10555   4.732   3.318   0.477
 2622SOL    HW110556   4.686   3.390   0.425
 2622SOL    HW210557   4.728   3.338   0.575
 2623SOL     OW10558   4.075   3.663   0.853
 2623SOL    HW110559   4.125   3.577   0.859
 2623SOL    HW210560   4.140   3.740   0.850
 2624SOL     OW10561   4.951   3.412   1.506
 2624SOL    HW110562   4.957   3.335   1.570
 2624SOL    HW210563   4.899   3.386   1.426
 2625SOL     OW10564   4.045   2.805   0.242
 2625SOL    HW110565   4.127   2.844   0.200
 2625SOL    HW210566   4.018   2.723   0.193
 2626SOL     OW10567   4.185   3.128   1.727
 2626SOL    HW110568   4.135   3.129   1.641
 2626SOL    HW210569   4.122   3.110   1.803
 2627SOL     OW10570   4.835   3.638   0.237
 2627SOL    HW110571   4.775   3.576   0.287
 2627SOL    HW210572   4.866   3.594   0.152
 2628SOL     OW10573   5.356   3.239   0.081
 2628SOL    HW110574   5.324   3.333   0.071
 2628SOL    HW210575   5.280   3.176   0.069
 2629SOL     OW10576   4.188   3.605   0.323
 2629SOL    HW110577   4.221   3.644   0.409
 2629SOL    HW210578   4.264   3.598   0.258
 2630SOL     OW10579   3.973   3.647   1.241
 2630SOL    HW110580   4.030   3.582   1.291
 2630SOL    HW210581   3.957   3.614   1.148
 2631SOL     OW10582   4.664   3.560   0.904
 2631SOL    HW110583   4.744   3.503   0.925
 2631SOL    HW210584   4.615   3.520   0.827
 2632SOL     OW10585   4.106   2.562   0.480
 2632SOL    HW110586   4.151   2.472   0.477
 2632SOL    HW210587   4.012   2.551   0.513
 2633SOL     OW10588   4.505   2.126   1.749
 2633SOL    HW110589   4.572   2.065   1.792
 2633SOL    HW210590   4.432   2.145   1.814
 2634SOL     OW10591   4.527   3.264   0.924
 2634SOL    HW110592   4.617   3.278   0.882
 2634SOL    HW210593   4.456   3.266   0.853
 2635SOL     OW10594   4.646   2.365   0.899
 2635SOL    HW110595   4.621   2.356   0.803
 2635SOL    HW210596   4.694   2.283   0.930
 2636SOL     OW10597   4.263   1.926   0.512
 2636SOL    HW110598   4.182   1.927   0.570
 2636SOL    HW210599   4.266   2.009   0.457
 2637SOL     OW10600   4.021   1.897   0.171
 2637SOL    HW110601   4.070   1.981   0.150
 2637SOL    HW210602   4.083   1.832   0.216
 2638SOL     OW10603   4.659   2.098   0.480
 2638SOL    HW110604   4.611   2.139   0.402
 2638SOL    HW210605   4.758   2.096   0.461
 2639SOL     OW10606   4.800   2.545   1.464
 2639SOL    HW110607   4.720   2.484   1.467
 2639SOL    HW210608   4.881   2.492   1.440
 2640SOL     OW10609   4.951   3.432   0.793
 2640SOL    HW110610   4.972   3.506   0.728
 2640SOL    HW210611   5.019   3.432   0.866
 2641SOL     OW10612   4.183   3.014   0.741
 2641SOL    HW110613   4.112   2.987   0.806
 2641SOL    HW210614   4.157   2.986   0.648
 2642SOL     OW10615   4.995   3.659   0.591
 2642SOL    HW110616   5.039   3.723   0.527
 2642SOL    HW210617   4.945   3.711   0.661
 2643SOL     OW10618   4.756   2.411   0.016
 2643SOL    HW110619   4.715   2.493  -0.023
 2643SOL    HW210620   4.820   2.437   0.089
 2644SOL     OW10621   4.285   2.084   1.147
 2644SOL    HW110622   4.323   2.000   1.184
 2644SOL    HW210623   4.197   2.103   1.191
 2645SOL     OW10624   4.590   2.316   0.642
 2645SOL    HW110625   4.558   2.388   0.580
 2645SOL    HW210626   4.614   2.235   0.589
 2646SOL     OW10627   4.741   1.901   0.753
 2646SOL    HW110628   4.669   1.906   0.684
 2646SOL    HW210629   4.717   1.832   0.822
 2647SOL     OW10630   4.212   3.247   0.174
 2647SOL    HW110631   4.125   3.232   0.221
 2647SOL    HW210632   4.195   3.273   0.079
 2648SOL     OW10633   4.251   2.118   0.328
 2648SOL    HW110634   4.278   2.059   0.253
 2648SOL    HW210635   4.251   2.213   0.297
 2649SOL     OW10636   4.788   3.209   1.340
 2649SOL    HW110637   4.708   3.186   1.395
 2649SOL    HW210638   4.871   3.183   1.389
 2650SOL     OW10639   4.704   2.978   1.719
 2650SOL    HW110640   4.605   2.984   1.729
 2650SOL    HW210641   4.727   2.898   1.663
 2651SOL     OW10642   4.429   2.912   0.368
 2651SOL    HW110643   4.415   2.919   0.467
 2651SOL    HW210644   4.513   2.861   0.350
 2652SOL     OW10645   4.998   2.248   1.262
 2652SOL    HW110646   5.019   2.322   1.326
 2652SOL    HW210647   4.909   2.265   1.219
 2653SOL     OW10648   4.091   2.962   0.501
 2653SOL    HW110649   4.084   3.045   0.445
 2653SOL    HW210650   4.095   2.882   0.441
 2654SOL     OW10651   4.290   2.399   0.865
 2654SOL    HW110652   4.302   2.465   0.791
 2654SOL    HW210653   4.336   2.433   0.948
 2655SOL     OW10654   4.976   3.210   0.388
 2655SOL    HW110655   5.026   3.287   0.428
 2655SOL    HW210656   4.881   3.212   0.420
 2656SOL     OW10657   4.126   2.613   1.598
 2656SOL    HW110658   4.194   2.668   1.551
 2656SOL    HW210659   4.166   2.525   1.625
 2657SOL     OW10660   4.228   1.912   1.740
 2657SOL    HW110661   4.186   1.855   1.670
 2657SOL    HW210662   4.162   1.981   1.772
 2658SOL     OW10663   5.084   2.724   1.045
 2658SOL    HW110664   5.009   2.724   0.979
 2658SOL    HW210665   5.121   2.632   1.054
 2659SOL     OW10666   4.933   2.387   0.275
 2659SOL    HW110667   4.946   2.303   0.329
 2659SOL    HW210668   4.904   2.461   0.335
 2660SOL     OW10669   4.031   2.075   1.231
 2660SOL    HW110670   4.008   2.112   1.321
 2660SOL    HW210671   4.001   1.980   1.225
 2661SOL     OW10672   4.456   2.496   1.064
 2661SOL    HW110673   4.515   2.470   0.988
 2661SOL    HW210674   4.428   2.592   1.053
 2662SOL     OW10675   4.031   1.925   0.618
 2662SOL    HW110676   4.020   2.019   0.651
 2662SOL    HW210677   4.026   1.862   0.695
 2663SOL     OW10678   5.346   2.229   0.374
 2663SOL    HW110679   5.348   2.153   0.438
 2663SOL    HW210680   5.298   2.306   0.414
 2664SOL     OW10681   4.747   2.628   0.966
 2664SOL    HW110682   4.762   2.649   1.062
 2664SOL    HW210683   4.717   2.533   0.957
 2665SOL     OW10684   4.704   3.435   1.700
 2665SOL    HW110685   4.684   3.479   1.612
 2665SOL    HW210686   4.743   3.344   1.684
 2666SOL     OW10687   4.074   2.760   1.804
 2666SOL    HW110688   4.150   2.804   1.852
 2666SOL    HW210689   4.109   2.713   1.722
 2667SOL     OW10690   5.027   2.700   0.042
 2667SOL    HW110691   5.061   2.607   0.057
 2667SOL    HW210692   5.045   2.727  -0.053
 2668SOL     OW10693   4.792   3.195   0.849
 2668SOL    HW110694   4.799   3.111   0.794
 2668SOL    HW210695   4.854   3.264   0.813
 2669SOL     OW10696   4.862   2.242   1.678
 2669SOL    HW110697   4.817   2.305   1.742
 2669SOL    HW210698   4.955   2.273   1.661
 2670SOL     OW10699   3.812   3.663   0.927
 2670SOL    HW110700   3.770   3.577   0.900
 2670SOL    HW210701   3.906   3.666   0.893
 2671SOL     OW10702   4.228   3.430   0.910
 2671SOL    HW110703   4.294   3.504   0.919
 2671SOL    HW210704   4.272   3.351   0.868
 2672SOL     OW10705   4.726   2.658   1.238
 2672SOL    HW110706   4.767   2.626   1.324
 2672SOL    HW210707   4.630   2.631   1.235
 2673SOL     OW10708   3.913   2.382   1.722
 2673SOL    HW110709   3.972   2.342   1.652
 2673SOL    HW210710   3.855   2.453   1.681
 2674SOL     OW10711   4.539   2.434   0.325
 2674SOL    HW110712   4.546   2.345   0.279
 2674SOL    HW210713   4.445   2.468   0.317
 2675SOL     OW10714   3.976   3.426   1.744
 2675SOL    HW110715   3.946   3.483   1.820
 2675SOL    HW210716   3.969   3.329   1.770
 2676SOL     OW10717   4.395   2.326   1.269
 2676SOL    HW110718   4.361   2.237   1.239
 2676SOL    HW210719   4.421   2.380   1.189
 2677SOL     OW10720   4.654   3.540   1.465
 2677SOL    HW110721   4.630   3.522   1.370
 2677SOL    HW210722   4.684   3.634   1.475
 2678SOL     OW10723   5.071   2.921   1.234
 2678SOL    HW110724   5.095   2.858   1.160
 2678SOL    HW210725   4.981   2.961   1.216
 2679SOL     OW10726   4.976   3.593   1.128
 2679SOL    HW110727   5.060   3.598   1.074
 2679SOL    HW210728   4.953   3.497   1.146
 2680SOL     OW10729   4.412   3.524   1.716
 2680SOL    HW110730   4.356   3.605   1.725
 2680SOL    HW210731   4.464   3.528   1.630
 2681SOL     OW10732   4.627   1.948   0.133
 2681SOL    HW110733   4.678   1.949   0.047
 2681SOL    HW210734   4.683   1.906   0.204
 2682SOL     OW10735   5.112   3.435   0.477
 2682SOL    HW110736   5.179   3.447   0.403
 2682SOL    HW210737   5.072   3.524   0.500
 2683SOL     OW10738   3.854   3.656   1.851
 2683SOL    HW110739   3.813   3.582   1.904
 2683SOL    HW210740   3.918   3.707   1.909
 2684SOL     OW10741   5.004   2.789   0.672
 2684SOL    HW110742   5.064   2.708   0.674
 2684SOL    HW210743   5.044   2.858   0.612
 2685SOL     OW10744   4.554   3.135   1.422
 2685SOL    HW110745   4.549   3.168   1.517
 2685SOL    HW210746   4.468   3.154   1.376
 2686SOL     OW10747   4.396   3.478   0.154
 2686SOL    HW110748   4.405   3.488   0.055
 2686SOL    HW210749   4.356   3.389   0.175
 2687SOL     OW10750   3.987   2.188   0.720
 2687SOL    HW110751   3.908   2.239   0.686
 2687SOL    HW210752   3.978   2.173   0.818
 2688SOL     OW10753   4.918   3.474   0.031
 2688SOL    HW110754   4.924   3.381   0.068
 2688SOL    HW210755   4.859   3.474  -0.049
 2689SOL     OW10756   4.640   2.772   0.291
 2689SOL    HW110757   4.703   2.810   0.223
 2689SOL    HW210758   4.680   2.689   0.330
 2690SOL     OW10759   4.096   3.150   1.490
 2690SOL    HW110760   4.083   3.243   1.456
 2690SOL    HW210761   4.012   3.098   1.477
 2691SOL     OW10762   4.738   2.098   0.971
 2691SOL    HW110763   4.730   2.062   0.878
 2691SOL    HW210764   4.736   2.022   1.036
 2692SOL     OW10765   4.314   3.349   0.491
 2692SOL    HW110766   4.356   3.291   0.421
 2692SOL    HW210767   4.270   3.428   0.447
 2693SOL     OW10768   4.396   2.065   1.489
 2693SOL    HW110769   4.486   2.049   1.449
 2693SOL    HW210770   4.404   2.070   1.588
 2694SOL     OW10771   5.164   2.718   1.398
 2694SOL    HW110772   5.107   2.770   1.335
 2694SOL    HW210773   5.260   2.730   1.374
 2695SOL     OW10774   4.337   2.704   1.431
 2695SOL    HW110775   4.393   2.785   1.414
 2695SOL    HW210776   4.396   2.624   1.434
 2696SOL     OW10777   4.440   2.427   1.708
 2696SOL    HW110778   4.459   2.492   1.782
 2696SOL    HW210779   4.500   2.347   1.717
 2697SOL     OW10780   4.114   3.603   1.560
 2697SOL    HW110781   4.023   3.644   1.558
 2697SOL    HW210782   4.107   3.509   1.592
 2698SOL     OW10783   4.949   2.187   0.449
 2698SOL    HW110784   5.014   2.113   0.438
 2698SOL    HW210785   4.969   2.237   0.533
 2699SOL     OW10786   4.318   2.607   0.652
 2699SOL    HW110787   4.368   2.692   0.633
 2699SOL    HW210788   4.230   2.609   0.604
 2700SOL     OW10789   4.385   3.652   0.953
 2700SOL    HW110790   4.339   3.740   0.940
 2700SOL    HW210791   4.484   3.664   0.946
 2701SOL     OW10792   4.396   3.253   1.624
 2701SOL    HW110793   4.318   3.203   1.662
 2701SOL    HW210794   4.393   3.348   1.655
 2702SOL     OW10795   4.152   2.286   0.520
 2702SOL    HW110796   4.182   2.214   0.458
 2702SOL    HW210797   4.113   2.246   0.603
 2703SOL     OW10798   4.536   3.448   0.687
 2703SOL    HW110799   4.568   3.458   0.593
 2703SOL    HW210800   4.457   3.386   0.689
 2704SOL     OW10801   4.494   3.192   0.301
 2704SOL    HW110802   4.448   3.105   0.318
 2704SOL    HW210803   4.585   3.189   0.342
 2705SOL     OW10804   4.599   3.508   0.337
 2705SOL    HW110805   4.522   3.473   0.283
 2705SOL    HW210806   4.567   3.579   0.399
 2706SOL     OW10807   3.949   2.137   2.858
 2706SOL    HW110808   3.984   2.120   2.950
 2706SOL    HW210809   3.861   2.092   2.846
 2707SOL     OW10810   4.293   3.137   3.027
 2707SOL    HW110811   4.200   3.130   2.990
 2707SOL    HW210812   4.304   3.226   3.071
 2708SOL     OW10813   4.859   2.565   2.579
 2708SOL    HW110814   4.916   2.643   2.554
 2708SOL    HW210815   4.799   2.591   2.655
 2709SOL     OW10816   4.574   2.660   3.685
 2709SOL    HW110817   4.570   2.736   3.750
 2709SOL    HW210818   4.596   2.696   3.594
 2710SOL     OW10819   4.410   3.023   3.665
 2710SOL    HW110820   4.470   3.102   3.679
 2710SOL    HW210821   4.324   3.054   3.624
 2711SOL     OW10822   4.059   3.297   2.923
 2711SOL    HW110823   3.981   3.266   2.870
 2711SOL    HW210824   4.117   3.355   2.866
 2712SOL     OW10825   3.955   3.575   2.345
 2712SOL    HW110826   3.989   3.652   2.399
 2712SOL    HW210827   3.999   3.575   2.255
 2713SOL     OW10828   4.851   3.203   3.552
 2713SOL    HW110829   4.898   3.203   3.640
 2713SOL    HW210830   4.803   3.116   3.541
 2714SOL     OW10831   3.954   3.296   2.400
 2714SOL    HW110832   3.928   3.392   2.400
 2714SOL    HW210833   3.883   3.242   2.445
 2715SOL     OW10834   3.964   2.953   2.748
 2715SOL    HW110835   3.978   2.869   2.800
 2715SOL    HW210836   3.909   3.017   2.803
 2716SOL     OW10837   4.344   3.648   3.301
 2716SOL    HW110838   4.252   3.631   3.336
 2716SOL    HW210839   4.372   3.740   3.327
 2717SOL     OW10840   4.330   2.826   1.985
 2717SOL    HW110841   4.337   2.910   1.931
 2717SOL    HW210842   4.376   2.839   2.073
 2718SOL     OW10843   3.751   3.458   1.979
 2718SOL    HW110844   3.732   3.362   2.000
 2718SOL    HW210845   3.718   3.516   2.054
 2719SOL     OW10846   3.837   2.599   3.459
 2719SOL    HW110847   3.925   2.586   3.504
 2719SOL    HW210848   3.824   2.696   3.437
 2720SOL     OW10849   4.337   3.227   2.588
 2720SOL    HW110850   4.288   3.140   2.597
 2720SOL    HW210851   4.314   3.270   2.501
 2721SOL     OW10852   5.017   3.090   3.285
 2721SOL    HW110853   5.054   3.017   3.227
 2721SOL    HW210854   5.069   3.095   3.370
 2722SOL     OW10855   4.533   1.866   2.364
 2722SOL    HW110856   4.573   1.957   2.355
 2722SOL    HW210857   4.433   1.874   2.370
 2723SOL     OW10858   3.921   2.838   3.126
 2723SOL    HW110859   4.010   2.793   3.112
 2723SOL    HW210860   3.848   2.773   3.107
 2724SOL     OW10861   4.911   3.654   3.478
 2724SOL    HW110862   4.935   3.714   3.402
 2724SOL    HW210863   4.918   3.559   3.448
 2725SOL     OW10864   4.041   2.113   3.663
 2725SOL    HW110865   4.112   2.184   3.669
 2725SOL    HW210866   3.953   2.152   3.691
 2726SOL     OW10867   4.322   2.591   2.132
 2726SOL    HW110868   4.346   2.660   2.064
 2726SOL    HW210869   4.244   2.624   2.186
 2727SOL     OW10870   5.005   2.207   2.806
 2727SOL    HW110871   4.919   2.157   2.793
 2727SOL    HW210872   5.067   2.153   2.862
 2728SOL     OW10873   4.697   2.752   3.434
 2728SOL    HW110874   4.743   2.668   3.405
 2728SOL    HW210875   4.641   2.786   3.359
 2729SOL     OW10876   4.715   2.272   3.104
 2729SOL    HW110877   4.638   2.306   3.158
 2729SOL    HW210878   4.681   2.221   3.025
 2730SOL     OW10879   3.800   2.673   2.651
 2730SOL    HW110880   3.899   2.661   2.660
 2730SOL    HW210881   3.776   2.768   2.672
 2731SOL     OW10882   3.854   3.683   3.433
 2731SOL    HW110883   3.844   3.668   3.532
 2731SOL    HW210884   3.768   3.719   3.397
 2732SOL     OW10885   4.589   2.210   2.057
 2732SOL    HW110886   4.648   2.273   2.008
 2732SOL    HW210887   4.608   2.116   2.028
 2733SOL     OW10888   4.274   2.058   2.747
 2733SOL    HW110889   4.269   2.053   2.847
 2733SOL    HW210890   4.276   2.154   2.718
 2734SOL     OW10891   4.075   3.663   2.715
 2734SOL    HW110892   4.125   3.577   2.721
 2734SOL    HW210893   4.140   3.740   2.712
 2735SOL     OW10894   4.951   3.412   3.368
 2735SOL    HW110895   4.957   3.335   3.432
 2735SOL    HW210896   4.899   3.386   3.288
 2736SOL     OW10897   4.045   2.805   2.104
 2736SOL    HW110898   4.127   2.844   2.062
 2736SOL    HW210899   4.018   2.723   2.055
 2737SOL     OW10900   4.185   3.128   3.589
 2737SOL    HW110901   4.135   3.129   3.503
 2737SOL    HW210902   4.122   3.110   3.665
 2738SOL     OW10903   4.835   3.638   2.099
 2738SOL    HW110904   4.775   3.576   2.149
 2738SOL    HW210905   4.866   3.594   2.014
 2739SOL     OW10906   4.188   3.605   2.185
 2739SOL    HW110907   4.221   3.644   2.271
 2739SOL    HW210908   4.264   3.598   2.120
 2740SOL     OW10909   3.973   3.647   3.103
 2740SOL    HW110910   4.030   3.582   3.153
 2740SOL    HW210911   3.957   3.614   3.010
 2741SOL     OW10912   4.106   2.562   2.342
 2741SOL    HW110913   4.151   2.472   2.339
 2741SOL    HW210914   4.012   2.551   2.375
 2742SOL     OW10915   4.338   1.984   1.979
 2742SOL    HW110916   4.436   1.962   1.986
 2742SOL    HW210917   4.307   1.967   1.886
 2743SOL     OW10918   4.505   2.126   3.611
 2743SOL    HW110919   4.572   2.065   3.654
 2743SOL    HW210920   4.432   2.145   3.676
 2744SOL     OW10921   4.527   3.264   2.786
 2744SOL    HW110922   4.617   3.278   2.744
 2744SOL    HW210923   4.456   3.266   2.715
 2745SOL     OW10924   4.263   1.926   2.374
 2745SOL    HW110925   4.182   1.927   2.432
 2745SOL    HW210926   4.266   2.009   2.319
 2746SOL     OW10927   4.021   1.897   2.033
 2746SOL    HW110928   4.070   1.981   2.012
 2746SOL    HW210929   4.083   1.832   2.078
 2747SOL     OW10930   4.800   2.545   3.326
 2747SOL    HW110931   4.720   2.484   3.329
 2747SOL    HW210932   4.881   2.492   3.302
 2748SOL     OW10933   4.183   3.014   2.603
 2748SOL    HW110934   4.112   2.987   2.668
 2748SOL    HW210935   4.157   2.986   2.510
 2749SOL     OW10936   4.756   2.411   1.878
 2749SOL    HW110937   4.715   2.493   1.839
 2749SOL    HW210938   4.820   2.437   1.951
 2750SOL     OW10939   4.285   2.084   3.009
 2750SOL    HW110940   4.323   2.000   3.046
 2750SOL    HW210941   4.197   2.103   3.053
 2751SOL     OW10942   4.741   1.901   2.615
 2751SOL    HW110943   4.669   1.906   2.546
 2751SOL    HW210944   4.717   1.832   2.684
 2752SOL     OW10945   4.212   3.247   2.036
 2752SOL    HW110946   4.125   3.232   2.083
 2752SOL    HW210947   4.195   3.273   1.941
 2753SOL     OW10948   5.388   3.142   2.519
 2753SOL    HW110949   5.487   3.150   2.533
 2753SOL    HW210950   5.343   3.226   2.550
 2754SOL     OW10951   4.251   2.118   2.190
 2754SOL    HW110952   4.278   2.059   2.115
 2754SOL    HW210953   4.251   2.213   2.159
 2755SOL     OW10954   4.788   3.209   3.202
 2755SOL    HW110955   4.708   3.186   3.257
 2755SOL    HW210956   4.871   3.183   3.251
 2756SOL     OW10957   4.835   3.057   2.962
 2756SOL    HW110958   4.795   3.101   3.043
 2756SOL    HW210959   4.794   3.094   2.879
 2757SOL     OW10960   4.639   1.951   3.264
 2757SOL    HW110961   4.664   1.931   3.169
 2757SOL    HW210962   4.711   2.007   3.306
 2758SOL     OW10963   4.704   2.978   3.581
 2758SOL    HW110964   4.605   2.984   3.591
 2758SOL    HW210965   4.727   2.898   3.525
 2759SOL     OW10966   4.429   2.912   2.230
 2759SOL    HW110967   4.415   2.919   2.329
 2759SOL    HW210968   4.513   2.861   2.212
 2760SOL     OW10969   4.134   2.675   3.113
 2760SOL    HW110970   4.220   2.687   3.163
 2760SOL    HW210971   4.092   2.588   3.140
 2761SOL     OW10972   4.998   2.248   3.124
 2761SOL    HW110973   5.019   2.322   3.188
 2761SOL    HW210974   4.909   2.265   3.081
 2762SOL     OW10975   3.788   3.426   3.193
 2762SOL    HW110976   3.742   3.508   3.159
 2762SOL    HW210977   3.886   3.445   3.202
 2763SOL     OW10978   4.091   2.962   2.363
 2763SOL    HW110979   4.084   3.045   2.307
 2763SOL    HW210980   4.095   2.882   2.303
 2764SOL     OW10981   4.290   2.399   2.727
 2764SOL    HW110982   4.302   2.465   2.653
 2764SOL    HW210983   4.336   2.433   2.810
 2765SOL     OW10984   4.976   3.210   2.250
 2765SOL    HW110985   5.026   3.287   2.290
 2765SOL    HW210986   4.881   3.212   2.282
 2766SOL     OW10987   4.078   3.372   3.191
 2766SOL    HW110988   4.057   3.328   3.104
 2766SOL    HW210989   4.175   3.398   3.194
 2767SOL     OW10990   4.228   1.912   3.602
 2767SOL    HW110991   4.186   1.855   3.532
 2767SOL    HW210992   4.162   1.981   3.634
 2768SOL     OW10993   5.084   2.724   2.907
 2768SOL    HW110994   5.009   2.724   2.841
 2768SOL    HW210995   5.121   2.632   2.916
 2769SOL     OW10996   3.761   3.172   3.144
 2769SOL    HW110997   3.814   3.123   3.212
 2769SOL    HW210998   3.783   3.270   3.149
 2770SOL     OW10999   4.031   1.925   2.480
 2770SOL    HW111000   4.020   2.019   2.513
 2770SOL    HW211001   4.026   1.862   2.557
 2771SOL     OW11002   5.346   2.229   2.236
 2771SOL    HW111003   5.348   2.153   2.300
 2771SOL    HW211004   5.298   2.306   2.276
 2772SOL     OW11005   4.704   3.435   3.562
 2772SOL    HW111006   4.684   3.479   3.474
 2772SOL    HW211007   4.743   3.344   3.546
 2773SOL     OW11008   4.074   2.760   3.666
 2773SOL    HW111009   4.150   2.804   3.714
 2773SOL    HW211010   4.109   2.713   3.584
 2774SOL     OW11011   4.792   3.195   2.711
 2774SOL    HW111012   4.799   3.111   2.656
 2774SOL    HW211013   4.854   3.264   2.675
 2775SOL     OW11014   4.043   2.672   2.811
 2775SOL    HW111015   4.136   2.708   2.816
 2775SOL    HW211016   4.037   2.587   2.863
 2776SOL     OW11017   4.063   2.371   2.868
 2776SOL    HW111018   4.011   2.288   2.851
 2776SOL    HW211019   4.140   2.376   2.804
 2777SOL     OW11020   4.884   2.069   3.339
 2777SOL    HW111021   4.884   2.133   3.416
 2777SOL    HW211022   4.912   2.117   3.256
 2778SOL     OW11023   3.732   3.188   2.062
 2778SOL    HW111024   3.639   3.209   2.031
 2778SOL    HW211025   3.742   3.089   2.075
 2779SOL     OW11026   3.812   3.663   2.789
 2779SOL    HW111027   3.770   3.577   2.762
 2779SOL    HW211028   3.906   3.666   2.755
 2780SOL     OW11029   4.228   3.430   2.772
 2780SOL    HW111030   4.294   3.504   2.781
 2780SOL    HW211031   4.272   3.351   2.730
 2781SOL     OW11032   3.764   2.406   2.976
 2781SOL    HW111033   3.849   2.373   2.935
 2781SOL    HW211034   3.777   2.421   3.074
 2782SOL     OW11035   4.539   2.434   2.187
 2782SOL    HW111036   4.546   2.345   2.141
 2782SOL    HW211037   4.445   2.468   2.179
 2783SOL     OW11038   3.976   3.426   3.606
 2783SOL    HW111039   3.946   3.483   3.682
 2783SOL    HW211040   3.969   3.329   3.632
 2784SOL     OW11041   4.395   2.326   3.131
 2784SOL    HW111042   4.361   2.237   3.101
 2784SOL    HW211043   4.421   2.380   3.051
 2785SOL     OW11044   4.654   3.540   3.327
 2785SOL    HW111045   4.630   3.522   3.232
 2785SOL    HW211046   4.684   3.634   3.337
 2786SOL     OW11047   4.197   2.362   2.053
 2786SOL    HW111048   4.258   2.442   2.057
 2786SOL    HW211049   4.102   2.393   2.060
 2787SOL     OW11050   3.883   2.999   3.328
 2787SOL    HW111051   3.905   2.938   3.404
 2787SOL    HW211052   3.893   2.950   3.242
 2788SOL     OW11053   5.071   2.921   3.096
 2788SOL    HW111054   5.095   2.858   3.022
 2788SOL    HW211055   4.981   2.961   3.078
 2789SOL     OW11056   4.976   3.593   2.990
 2789SOL    HW111057   5.060   3.598   2.936
 2789SOL    HW211058   4.953   3.497   3.008
 2790SOL     OW11059   3.807   3.120   2.884
 2790SOL    HW111060   3.802   3.119   2.984
 2790SOL    HW211061   3.724   3.079   2.846
 2791SOL     OW11062   4.412   3.524   3.578
 2791SOL    HW111063   4.356   3.605   3.587
 2791SOL    HW211064   4.464   3.528   3.492
 2792SOL     OW11065   3.854   3.656   3.713
 2792SOL    HW111066   3.813   3.582   3.766
 2792SOL    HW211067   3.918   3.707   3.771
 2793SOL     OW11068   5.004   2.789   2.534
 2793SOL    HW111069   5.064   2.708   2.536
 2793SOL    HW211070   5.044   2.858   2.474
 2794SOL     OW11071   4.554   3.135   3.284
 2794SOL    HW111072   4.549   3.168   3.379
 2794SOL    HW211073   4.468   3.154   3.238
 2795SOL     OW11074   4.396   3.478   2.016
 2795SOL    HW111075   4.405   3.488   1.917
 2795SOL    HW211076   4.356   3.389   2.037
 2796SOL     OW11077   3.987   2.188   2.582
 2796SOL    HW111078   3.908   2.239   2.548
 2796SOL    HW211079   3.978   2.173   2.680
 2797SOL     OW11080   4.918   3.474   1.893
 2797SOL    HW111081   4.924   3.381   1.930
 2797SOL    HW211082   4.859   3.474   1.813
 2798SOL     OW11083   4.640   2.772   2.153
 2798SOL    HW111084   4.703   2.810   2.085
 2798SOL    HW211085   4.680   2.689   2.192
 2799SOL     OW11086   4.096   3.150   3.352
 2799SOL    HW111087   4.083   3.243   3.318
 2799SOL    HW211088   4.012   3.098   3.339
 2800SOL     OW11089   4.738   2.098   2.833
 2800SOL    HW111090   4.730   2.062   2.740
 2800SOL    HW211091   4.736   2.022   2.898
 2801SOL     OW11092   4.314   3.349   2.353
 2801SOL    HW111093   4.356   3.291   2.283
 2801SOL    HW211094   4.270   3.428   2.309
 2802SOL     OW11095   3.979   3.210   2.152
 2802SOL    HW111096   3.883   3.211   2.125
 2802SOL    HW211097   3.991   3.263   2.236
 2803SOL     OW11098   3.829   2.875   3.588
 2803SOL    HW111099   3.752   2.842   3.642
 2803SOL    HW211100   3.914   2.845   3.630
 2804SOL     OW11101   4.396   2.065   3.351
 2804SOL    HW111102   4.486   2.049   3.311
 2804SOL    HW211103   4.404   2.070   3.450
 2805SOL     OW11104   5.164   2.718   3.260
 2805SOL    HW111105   5.107   2.770   3.197
 2805SOL    HW211106   5.260   2.730   3.236
 2806SOL     OW11107   4.440   2.427   3.570
 2806SOL    HW111108   4.459   2.492   3.644
 2806SOL    HW211109   4.500   2.347   3.579
 2807SOL     OW11110   4.114   3.603   3.422
 2807SOL    HW111111   4.023   3.644   3.420
 2807SOL    HW211112   4.107   3.509   3.454
 2808SOL     OW11113   4.949   2.187   2.311
 2808SOL    HW111114   5.014   2.113   2.300
 2808SOL    HW211115   4.969   2.237   2.395
 2809SOL     OW11116   4.583   3.236   1.878
 2809SOL    HW111117   4.537   3.251   1.966
 2809SOL    HW211118   4.627   3.321   1.848
 2810SOL     OW11119   4.807   2.846   1.949
 2810SOL    HW111120   4.784   2.899   1.867
 2810SOL    HW211121   4.888   2.790   1.930
 2811SOL     OW11122   3.945   3.176   3.706
 2811SOL    HW111123   3.880   3.103   3.685
 2811SOL    HW211124   3.949   3.190   3.804
 2812SOL     OW11125   3.803   3.102   2.515
 2812SOL    HW111126   3.802   3.055   2.603
 2812SOL    HW211127   3.885   3.074   2.464
 2813SOL     OW11128   4.396   3.253   3.486
 2813SOL    HW111129   4.318   3.203   3.524
 2813SOL    HW211130   4.393   3.348   3.517
 2814SOL     OW11131   4.152   2.286   2.382
 2814SOL    HW111132   4.182   2.214   2.320
 2814SOL    HW211133   4.113   2.246   2.465
 2815SOL     OW11134   4.041   2.409   3.142
 2815SOL    HW111135   4.079   2.350   3.214
 2815SOL    HW211136   4.081   2.383   3.054
 2816SOL     OW11137   4.725   1.896   3.016
 2816SOL    HW111138   4.662   1.824   2.985
 2816SOL    HW211139   4.818   1.860   3.016
 2817SOL     OW11140   4.494   3.192   2.163
 2817SOL    HW111141   4.448   3.105   2.180
 2817SOL    HW211142   4.585   3.189   2.204
 2818SOL     OW11143   3.763   2.939   2.162
 2818SOL    HW111144   3.862   2.928   2.153
 2818SOL    HW211145   3.723   2.853   2.194
 2819SOL     OW11146   4.599   3.508   2.199
 2819SOL    HW111147   4.522   3.473   2.145
 2819SOL    HW211148   4.567   3.579   2.261
 2820SOL     OW11149   3.949   2.137   4.720
 2820SOL    HW111150   3.984   2.120   4.812
 2820SOL    HW211151   3.861   2.092   4.708
 2821SOL     OW11152   4.409   2.874   4.389
 2821SOL    HW111153   4.478   2.858   4.459
 2821SOL    HW211154   4.336   2.931   4.427
 2822SOL     OW11155   3.964   2.953   4.610
 2822SOL    HW111156   3.978   2.869   4.662
 2822SOL    HW211157   3.909   3.017   4.665
 2823SOL     OW11158   4.344   3.648   5.163
 2823SOL    HW111159   4.252   3.631   5.198
 2823SOL    HW211160   4.372   3.740   5.189
 2824SOL     OW11161   4.330   2.826   3.847
 2824SOL    HW111162   4.337   2.910   3.793
 2824SOL    HW211163   4.376   2.839   3.935
 2825SOL     OW11164   3.751   3.458   3.841
 2825SOL    HW111165   3.732   3.362   3.862
 2825SOL    HW211166   3.718   3.516   3.916
 2826SOL     OW11167   4.337   3.227   4.450
 2826SOL    HW111168   4.288   3.140   4.459
 2826SOL    HW211169   4.314   3.270   4.363
 2827SOL     OW11170   4.533   1.866   4.226
 2827SOL    HW111171   4.573   1.957   4.217
 2827SOL    HW211172   4.433   1.874   4.232
 2828SOL     OW11173   4.322   2.591   3.994
 2828SOL    HW111174   4.346   2.660   3.926
 2828SOL    HW211175   4.244   2.624   4.048
 2829SOL     OW11176   4.715   2.272   4.966
 2829SOL    HW111177   4.638   2.306   5.020
 2829SOL    HW211178   4.681   2.221   4.887
 2830SOL     OW11179   4.835   3.638   3.961
 2830SOL    HW111180   4.775   3.576   4.011
 2830SOL    HW211181   4.866   3.594   3.876
 2831SOL     OW11182   4.188   3.605   4.047
 2831SOL    HW111183   4.221   3.644   4.133
 2831SOL    HW211184   4.264   3.598   3.982
 2832SOL     OW11185   4.664   3.560   4.628
 2832SOL    HW111186   4.744   3.503   4.649
 2832SOL    HW211187   4.615   3.520   4.551
 2833SOL     OW11188   4.338   1.984   3.841
 2833SOL    HW111189   4.436   1.962   3.848
 2833SOL    HW211190   4.307   1.967   3.748
 2834SOL     OW11191   4.527   3.264   4.648
 2834SOL    HW111192   4.617   3.278   4.606
 2834SOL    HW211193   4.456   3.266   4.577
 2835SOL     OW11194   4.646   2.365   4.623
 2835SOL    HW111195   4.621   2.356   4.527
 2835SOL    HW211196   4.694   2.283   4.654
 2836SOL     OW11197   4.263   1.926   4.236
 2836SOL    HW111198   4.182   1.927   4.294
 2836SOL    HW211199   4.266   2.009   4.181
 2837SOL     OW11200   4.659   2.098   4.204
 2837SOL    HW111201   4.611   2.139   4.126
 2837SOL    HW211202   4.758   2.096   4.185
 2838SOL     OW11203   4.951   3.432   4.517
 2838SOL    HW111204   4.972   3.506   4.452
 2838SOL    HW211205   5.019   3.432   4.590
 2839SOL     OW11206   4.183   3.014   4.465
 2839SOL    HW111207   4.112   2.987   4.530
 2839SOL    HW211208   4.157   2.986   4.372
 2840SOL     OW11209   4.995   3.659   4.315
 2840SOL    HW111210   5.039   3.723   4.251
 2840SOL    HW211211   4.945   3.711   4.385
 2841SOL     OW11212   4.590   2.316   4.366
 2841SOL    HW111213   4.558   2.388   4.304
 2841SOL    HW211214   4.614   2.235   4.313
 2842SOL     OW11215   4.741   1.901   4.477
 2842SOL    HW111216   4.669   1.906   4.408
 2842SOL    HW211217   4.717   1.832   4.546
 2843SOL     OW11218   4.212   3.247   3.898
 2843SOL    HW111219   4.125   3.232   3.945
 2843SOL    HW211220   4.195   3.273   3.803
 2844SOL     OW11221   5.388   3.142   4.381
 2844SOL    HW111222   5.487   3.150   4.395
 2844SOL    HW211223   5.343   3.226   4.412
 2845SOL     OW11224   5.316   3.491   5.349
 2845SOL    HW111225   5.343   3.525   5.259
 2845SOL    HW211226   5.395   3.453   5.395
 2846SOL     OW11227   4.429   2.912   4.092
 2846SOL    HW111228   4.415   2.919   4.191
 2846SOL    HW211229   4.513   2.861   4.074
 2847SOL     OW11230   4.134   2.675   4.975
 2847SOL    HW111231   4.220   2.687   5.025
 2847SOL    HW211232   4.092   2.588   5.002
 2848SOL     OW11233   4.091   2.962   4.225
 2848SOL    HW111234   4.084   3.045   4.169
 2848SOL    HW211235   4.095   2.882   4.165
 2849SOL     OW11236   4.976   3.210   4.112
 2849SOL    HW111237   5.026   3.287   4.152
 2849SOL    HW211238   4.881   3.212   4.144
 2850SOL     OW11239   4.297   2.732   4.753
 2850SOL    HW111240   4.341   2.821   4.744
 2850SOL    HW211241   4.234   2.732   4.830
 2851SOL     OW11242   4.884   2.069   5.201
 2851SOL    HW111243   4.884   2.133   5.278
 2851SOL    HW211244   4.912   2.117   5.118
 2852SOL     OW11245   3.732   3.188   3.924
 2852SOL    HW111246   3.639   3.209   3.893
 2852SOL    HW211247   3.742   3.089   3.937
 2853SOL     OW11248   3.764   2.406   4.838
 2853SOL    HW111249   3.849   2.373   4.797
 2853SOL    HW211250   3.777   2.421   4.936
 2854SOL     OW11251   4.654   3.540   5.189
 2854SOL    HW111252   4.630   3.522   5.094
 2854SOL    HW211253   4.684   3.634   5.199
 2855SOL     OW11254   4.197   2.362   3.915
 2855SOL    HW111255   4.258   2.442   3.919
 2855SOL    HW211256   4.102   2.393   3.922
 2856SOL     OW11257   4.976   3.593   4.852
 2856SOL    HW111258   5.060   3.598   4.798
 2856SOL    HW211259   4.953   3.497   4.870
 2857SOL     OW11260   3.807   3.120   4.746
 2857SOL    HW111261   3.802   3.119   4.846
 2857SOL    HW211262   3.724   3.079   4.708
 2858SOL     OW11263   5.112   3.435   4.201
 2858SOL    HW111264   5.179   3.447   4.127
 2858SOL    HW211265   5.072   3.524   4.224
 2859SOL     OW11266   5.004   2.789   4.396
 2859SOL    HW111267   5.064   2.708   4.398
 2859SOL    HW211268   5.044   2.858   4.336
 2860SOL     OW11269   4.396   3.478   3.878
 2860SOL    HW111270   4.405   3.488   3.779
 2860SOL    HW211271   4.356   3.389   3.899
 2861SOL     OW11272   4.918   3.474   3.755
 2861SOL    HW111273   4.924   3.381   3.792
 2861SOL    HW211274   4.859   3.474   3.675
 2862SOL     OW11275   4.546   2.864   5.096
 2862SOL    HW111276   4.586   2.863   5.004
 2862SOL    HW211277   4.556   2.956   5.136
 2863SOL     OW11278   4.640   2.772   4.015
 2863SOL    HW111279   4.703   2.810   3.947
 2863SOL    HW211280   4.680   2.689   4.054
 2864SOL     OW11281   4.763   2.960   4.420
 2864SOL    HW111282   4.693   2.913   4.474
 2864SOL    HW211283   4.822   2.892   4.377
 2865SOL     OW11284   4.738   2.098   4.695
 2865SOL    HW111285   4.730   2.062   4.602
 2865SOL    HW211286   4.736   2.022   4.760
 2866SOL     OW11287   4.314   3.349   4.215
 2866SOL    HW111288   4.356   3.291   4.145
 2866SOL    HW211289   4.270   3.428   4.171
 2867SOL     OW11290   3.979   3.210   4.014
 2867SOL    HW111291   3.883   3.211   3.987
 2867SOL    HW211292   3.991   3.263   4.098
 2868SOL     OW11293   3.796   2.028   4.042
 2868SOL    HW111294   3.779   2.111   3.988
 2868SOL    HW211295   3.886   1.991   4.020
 2869SOL     OW11296   4.949   2.187   4.173
 2869SOL    HW111297   5.014   2.113   4.162
 2869SOL    HW211298   4.969   2.237   4.257
 2870SOL     OW11299   4.318   2.607   4.376
 2870SOL    HW111300   4.368   2.692   4.357
 2870SOL    HW211301   4.230   2.609   4.328
 2871SOL     OW11302   4.583   3.236   3.740
 2871SOL    HW111303   4.537   3.251   3.828
 2871SOL    HW211304   4.627   3.321   3.710
 2872SOL     OW11305   4.385   3.652   4.677
 2872SOL    HW111306   4.339   3.740   4.664
 2872SOL    HW211307   4.484   3.664   4.670
 2873SOL     OW11308   4.807   2.846   3.811
 2873SOL    HW111309   4.784   2.899   3.729
 2873SOL    HW211310   4.888   2.790   3.792
 2874SOL     OW11311   3.803   3.102   4.377
 2874SOL    HW111312   3.802   3.055   4.465
 2874SOL    HW211313   3.885   3.074   4.326
 2875SOL     OW11314   4.536   3.448   4.411
 2875SOL    HW111315   4.568   3.458   4.317
 2875SOL    HW211316   4.457   3.386   4.413
 2876SOL     OW11317   4.725   1.896   4.878
 2876SOL    HW111318   4.662   1.824   4.847
 2876SOL    HW211319   4.818   1.860   4.878
 2877SOL     OW11320   4.494   3.192   4.025
 2877SOL    HW111321   4.448   3.105   4.042
 2877SOL    HW211322   4.585   3.189   4.066
 2878SOL     OW11323   4.599   3.508   4.061
 2878SOL    HW111324   4.522   3.473   4.007
 2878SOL    HW211325   4.567   3.579   4.123
 2879SOL     OW11326   3.954   4.352   0.113
 2879SOL    HW111327   3.861   4.350   0.150
 2879SOL    HW211328   3.955   4.313   0.021
 2880SOL     OW11329   3.949   3.999   0.996
 2880SOL    HW111330   3.984   3.982   1.088
 2880SOL    HW211331   3.861   3.954   0.984
 2881SOL     OW11332   4.293   4.999   1.165
 2881SOL    HW111333   4.200   4.992   1.128
 2881SOL    HW211334   4.304   5.088   1.209
 2882SOL     OW11335   4.859   4.427   0.717
 2882SOL    HW111336   4.916   4.505   0.692
 2882SOL    HW211337   4.799   4.453   0.793
 2883SOL     OW11338   4.492   4.868   1.023
 2883SOL    HW111339   4.414   4.885   1.083
 2883SOL    HW211340   4.526   4.955   0.987
 2884SOL     OW11341   4.574   4.522   1.823
 2884SOL    HW111342   4.570   4.598   1.888
 2884SOL    HW211343   4.596   4.558   1.732
 2885SOL     OW11344   4.409   4.736   0.665
 2885SOL    HW111345   4.478   4.720   0.735
 2885SOL    HW211346   4.336   4.793   0.703
 2886SOL     OW11347   4.059   5.159   1.061
 2886SOL    HW111348   3.981   5.128   1.008
 2886SOL    HW211349   4.117   5.217   1.004
 2887SOL     OW11350   4.162   4.116   1.499
 2887SOL    HW111351   4.244   4.060   1.508
 2887SOL    HW211352   4.081   4.058   1.503
 2888SOL     OW11353   4.330   4.688   0.123
 2888SOL    HW111354   4.337   4.772   0.069
 2888SOL    HW211355   4.376   4.701   0.211
 2889SOL     OW11356   4.533   3.728   0.502
 2889SOL    HW111357   4.573   3.819   0.493
 2889SOL    HW211358   4.433   3.736   0.508
 2890SOL     OW11359   3.921   4.700   1.264
 2890SOL    HW111360   4.010   4.655   1.250
 2890SOL    HW211361   3.848   4.635   1.245
 2891SOL     OW11362   4.041   3.975   1.801
 2891SOL    HW111363   4.112   4.046   1.807
 2891SOL    HW211364   3.953   4.014   1.829
 2892SOL     OW11365   4.322   4.453   0.270
 2892SOL    HW111366   4.346   4.522   0.202
 2892SOL    HW211367   4.244   4.486   0.324
 2893SOL     OW11368   5.005   4.069   0.944
 2893SOL    HW111369   4.919   4.019   0.931
 2893SOL    HW211370   5.067   4.015   1.000
 2894SOL     OW11371   4.531   4.329   1.465
 2894SOL    HW111372   4.484   4.326   1.554
 2894SOL    HW211373   4.480   4.274   1.399
 2895SOL     OW11374   4.697   4.614   1.572
 2895SOL    HW111375   4.743   4.530   1.543
 2895SOL    HW211376   4.641   4.648   1.497
 2896SOL     OW11377   4.715   4.134   1.242
 2896SOL    HW111378   4.638   4.168   1.296
 2896SOL    HW211379   4.681   4.083   1.163
 2897SOL     OW11380   4.765   4.425   0.429
 2897SOL    HW111381   4.791   4.421   0.525
 2897SOL    HW211382   4.680   4.374   0.415
 2898SOL     OW11383   4.589   4.072   0.195
 2898SOL    HW111384   4.648   4.135   0.146
 2898SOL    HW211385   4.608   3.978   0.166
 2899SOL     OW11386   4.274   3.920   0.885
 2899SOL    HW111387   4.269   3.915   0.985
 2899SOL    HW211388   4.276   4.016   0.856
 2900SOL     OW11389   4.045   4.667   0.242
 2900SOL    HW111390   4.127   4.706   0.200
 2900SOL    HW211391   4.018   4.585   0.193
 2901SOL     OW11392   3.926   4.009   1.498
 2901SOL    HW111393   3.846   4.069   1.485
 2901SOL    HW211394   3.916   3.960   1.584
 2902SOL     OW11395   4.505   3.988   1.749
 2902SOL    HW111396   4.572   3.927   1.792
 2902SOL    HW211397   4.432   4.007   1.814
 2903SOL     OW11398   4.527   5.126   0.924
 2903SOL    HW111399   4.617   5.140   0.882
 2903SOL    HW211400   4.456   5.128   0.853
 2904SOL     OW11401   4.646   4.227   0.899
 2904SOL    HW111402   4.621   4.218   0.803
 2904SOL    HW211403   4.694   4.145   0.930
 2905SOL     OW11404   4.659   3.960   0.480
 2905SOL    HW111405   4.611   4.001   0.402
 2905SOL    HW211406   4.758   3.958   0.461
 2906SOL     OW11407   4.800   4.407   1.464
 2906SOL    HW111408   4.720   4.346   1.467
 2906SOL    HW211409   4.881   4.354   1.440
 2907SOL     OW11410   4.756   4.273   0.016
 2907SOL    HW111411   4.715   4.355  -0.023
 2907SOL    HW211412   4.820   4.299   0.089
 2908SOL     OW11413   3.802   4.280   1.386
 2908SOL    HW111414   3.894   4.279   1.345
 2908SOL    HW211415   3.796   4.354   1.453
 2909SOL     OW11416   4.285   3.946   1.147
 2909SOL    HW111417   4.323   3.862   1.184
 2909SOL    HW211418   4.197   3.965   1.191
 2910SOL     OW11419   4.590   4.178   0.642
 2910SOL    HW111420   4.558   4.250   0.580
 2910SOL    HW211421   4.614   4.097   0.589
 2911SOL     OW11422   4.741   3.763   0.753
 2911SOL    HW111423   4.669   3.768   0.684
 2911SOL    HW211424   4.717   3.694   0.822
 2912SOL     OW11425   4.639   3.813   1.402
 2912SOL    HW111426   4.664   3.793   1.307
 2912SOL    HW211427   4.711   3.869   1.444
 2913SOL     OW11428   4.429   4.774   0.368
 2913SOL    HW111429   4.415   4.781   0.467
 2913SOL    HW211430   4.513   4.723   0.350
 2914SOL     OW11431   4.134   4.537   1.251
 2914SOL    HW111432   4.220   4.549   1.301
 2914SOL    HW211433   4.092   4.450   1.278
 2915SOL     OW11434   4.998   4.110   1.262
 2915SOL    HW111435   5.019   4.184   1.326
 2915SOL    HW211436   4.909   4.127   1.219
 2916SOL     OW11437   4.126   4.475   1.598
 2916SOL    HW111438   4.194   4.530   1.551
 2916SOL    HW211439   4.166   4.387   1.625
 2917SOL     OW11440   4.737   3.829   1.770
 2917SOL    HW111441   4.743   3.914   1.718
 2917SOL    HW211442   4.769   3.753   1.713
 2918SOL     OW11443   4.228   3.774   1.740
 2918SOL    HW111444   4.186   3.717   1.670
 2918SOL    HW211445   4.162   3.843   1.772
 2919SOL     OW11446   4.297   4.594   1.029
 2919SOL    HW111447   4.341   4.683   1.020
 2919SOL    HW211448   4.234   4.594   1.106
 2920SOL     OW11449   5.084   4.586   1.045
 2920SOL    HW111450   5.009   4.586   0.979
 2920SOL    HW211451   5.121   4.494   1.054
 2921SOL     OW11452   4.933   4.249   0.275
 2921SOL    HW111453   4.946   4.165   0.329
 2921SOL    HW211454   4.904   4.323   0.335
 2922SOL     OW11455   4.031   3.937   1.231
 2922SOL    HW111456   4.008   3.974   1.321
 2922SOL    HW211457   4.001   3.842   1.225
 2923SOL     OW11458   4.456   4.358   1.064
 2923SOL    HW111459   4.515   4.332   0.988
 2923SOL    HW211460   4.428   4.454   1.053
 2924SOL     OW11461   4.747   4.490   0.966
 2924SOL    HW111462   4.762   4.511   1.062
 2924SOL    HW211463   4.717   4.395   0.957
 2925SOL     OW11464   4.074   4.622   1.804
 2925SOL    HW111465   4.150   4.666   1.852
 2925SOL    HW211466   4.109   4.575   1.722
 2926SOL     OW11467   5.027   4.562   0.042
 2926SOL    HW111468   5.061   4.469   0.057
 2926SOL    HW211469   5.045   4.589  -0.053
 2927SOL     OW11470   4.043   4.534   0.949
 2927SOL    HW111471   4.136   4.570   0.954
 2927SOL    HW211472   4.037   4.449   1.001
 2928SOL     OW11473   4.862   4.104   1.678
 2928SOL    HW111474   4.817   4.167   1.742
 2928SOL    HW211475   4.955   4.135   1.661
 2929SOL     OW11476   4.884   3.931   1.477
 2929SOL    HW111477   4.884   3.995   1.554
 2929SOL    HW211478   4.912   3.979   1.394
 2930SOL     OW11479   3.764   4.268   1.114
 2930SOL    HW111480   3.849   4.235   1.073
 2930SOL    HW211481   3.777   4.283   1.212
 2931SOL     OW11482   4.539   4.296   0.325
 2931SOL    HW111483   4.546   4.207   0.279
 2931SOL    HW211484   4.445   4.330   0.317
 2932SOL     OW11485   4.395   4.188   1.269
 2932SOL    HW111486   4.361   4.099   1.239
 2932SOL    HW211487   4.421   4.242   1.189
 2933SOL     OW11488   4.197   4.224   0.191
 2933SOL    HW111489   4.258   4.304   0.195
 2933SOL    HW211490   4.102   4.255   0.198
 2934SOL     OW11491   3.883   4.861   1.466
 2934SOL    HW111492   3.905   4.800   1.542
 2934SOL    HW211493   3.893   4.812   1.380
 2935SOL     OW11494   3.807   4.982   1.022
 2935SOL    HW111495   3.802   4.981   1.122
 2935SOL    HW211496   3.724   4.941   0.984
 2936SOL     OW11497   4.627   3.810   0.133
 2936SOL    HW111498   4.678   3.811   0.047
 2936SOL    HW211499   4.683   3.768   0.204
 2937SOL     OW11500   5.004   4.651   0.672
 2937SOL    HW111501   5.064   4.570   0.674
 2937SOL    HW211502   5.044   4.720   0.612
 2938SOL     OW11503   4.554   4.997   1.422
 2938SOL    HW111504   4.549   5.030   1.517
 2938SOL    HW211505   4.468   5.016   1.376
 2939SOL     OW11506   4.546   4.726   1.372
 2939SOL    HW111507   4.586   4.725   1.280
 2939SOL    HW211508   4.556   4.818   1.412
 2940SOL     OW11509   4.640   4.634   0.291
 2940SOL    HW111510   4.703   4.672   0.223
 2940SOL    HW211511   4.680   4.551   0.330
 2941SOL     OW11512   4.096   5.012   1.490
 2941SOL    HW111513   4.083   5.105   1.456
 2941SOL    HW211514   4.012   4.960   1.477
 2942SOL     OW11515   4.763   4.822   0.696
 2942SOL    HW111516   4.693   4.775   0.750
 2942SOL    HW211517   4.822   4.754   0.653
 2943SOL     OW11518   4.738   3.960   0.971
 2943SOL    HW111519   4.730   3.924   0.878
 2943SOL    HW211520   4.736   3.884   1.036
 2944SOL     OW11521   3.829   4.737   1.726
 2944SOL    HW111522   3.752   4.704   1.780
 2944SOL    HW211523   3.914   4.707   1.768
 2945SOL     OW11524   4.396   3.927   1.489
 2945SOL    HW111525   4.486   3.911   1.449
 2945SOL    HW211526   4.404   3.932   1.588
 2946SOL     OW11527   3.796   3.890   0.318
 2946SOL    HW111528   3.779   3.973   0.264
 2946SOL    HW211529   3.886   3.853   0.296
 2947SOL     OW11530   4.337   4.566   1.431
 2947SOL    HW111531   4.393   4.647   1.414
 2947SOL    HW211532   4.396   4.486   1.434
 2948SOL     OW11533   4.440   4.289   1.708
 2948SOL    HW111534   4.459   4.354   1.782
 2948SOL    HW211535   4.500   4.209   1.717
 2949SOL     OW11536   5.174   4.944   1.633
 2949SOL    HW111537   5.165   4.934   1.732
 2949SOL    HW211538   5.270   4.937   1.607
 2950SOL     OW11539   4.583   4.680   0.861
 2950SOL    HW111540   4.637   4.611   0.909
 2950SOL    HW211541   4.551   4.749   0.927
 2951SOL     OW11542   4.807   4.708   0.087
 2951SOL    HW111543   4.784   4.761   0.005
 2951SOL    HW211544   4.888   4.652   0.068
 2952SOL     OW11545   3.803   4.964   0.653
 2952SOL    HW111546   3.802   4.917   0.741
 2952SOL    HW211547   3.885   4.936   0.602
 2953SOL     OW11548   4.041   4.271   1.280
 2953SOL    HW111549   4.079   4.212   1.352
 2953SOL    HW211550   4.081   4.245   1.192
 2954SOL     OW11551   4.725   3.758   1.154
 2954SOL    HW111552   4.662   3.686   1.123
 2954SOL    HW211553   4.818   3.722   1.154
 2955SOL     OW11554   3.763   4.801   0.300
 2955SOL    HW111555   3.862   4.790   0.291
 2955SOL    HW211556   3.723   4.715   0.332
 2956SOL     OW11557   3.743   4.092   2.509
 2956SOL    HW111558   3.661   4.135   2.548
 2956SOL    HW211559   3.715   4.019   2.446
 2957SOL     OW11560   4.293   4.999   3.027
 2957SOL    HW111561   4.200   4.992   2.990
 2957SOL    HW211562   4.304   5.088   3.071
 2958SOL     OW11563   4.859   4.427   2.579
 2958SOL    HW111564   4.916   4.505   2.554
 2958SOL    HW211565   4.799   4.453   2.655
 2959SOL     OW11566   4.492   4.868   2.885
 2959SOL    HW111567   4.414   4.885   2.945
 2959SOL    HW211568   4.526   4.955   2.849
 2960SOL     OW11569   4.574   4.522   3.685
 2960SOL    HW111570   4.570   4.598   3.750
 2960SOL    HW211571   4.596   4.558   3.594
 2961SOL     OW11572   4.410   4.885   3.665
 2961SOL    HW111573   4.470   4.964   3.679
 2961SOL    HW211574   4.324   4.916   3.624
 2962SOL     OW11575   4.059   5.159   2.923
 2962SOL    HW111576   3.981   5.128   2.870
 2962SOL    HW211577   4.117   5.217   2.866
 2963SOL     OW11578   4.162   4.116   3.361
 2963SOL    HW111579   4.244   4.060   3.370
 2963SOL    HW211580   4.081   4.058   3.365
 2964SOL     OW11581   3.846   4.367   2.425
 2964SOL    HW111582   3.801   4.279   2.442
 2964SOL    HW211583   3.845   4.421   2.509
 2965SOL     OW11584   3.837   4.461   3.459
 2965SOL    HW111585   3.925   4.448   3.504
 2965SOL    HW211586   3.824   4.558   3.437
 2966SOL     OW11587   5.017   4.952   3.285
 2966SOL    HW111588   5.054   4.879   3.227
 2966SOL    HW211589   5.069   4.957   3.370
 2967SOL     OW11590   4.533   3.728   2.364
 2967SOL    HW111591   4.573   3.819   2.355
 2967SOL    HW211592   4.433   3.736   2.370
 2968SOL     OW11593   4.322   4.453   2.132
 2968SOL    HW111594   4.346   4.522   2.064
 2968SOL    HW211595   4.244   4.486   2.186
 2969SOL     OW11596   5.005   4.069   2.806
 2969SOL    HW111597   4.919   4.019   2.793
 2969SOL    HW211598   5.067   4.015   2.862
 2970SOL     OW11599   4.715   4.134   3.104
 2970SOL    HW111600   4.638   4.168   3.158
 2970SOL    HW211601   4.681   4.083   3.025
 2971SOL     OW11602   4.765   4.425   2.291
 2971SOL    HW111603   4.791   4.421   2.387
 2971SOL    HW211604   4.680   4.374   2.277
 2972SOL     OW11605   3.800   4.535   2.651
 2972SOL    HW111606   3.899   4.523   2.660
 2972SOL    HW211607   3.776   4.630   2.672
 2973SOL     OW11608   4.589   4.072   2.057
 2973SOL    HW111609   4.648   4.135   2.008
 2973SOL    HW211610   4.608   3.978   2.028
 2974SOL     OW11611   4.274   3.920   2.747
 2974SOL    HW111612   4.269   3.915   2.847
 2974SOL    HW211613   4.276   4.016   2.718
 2975SOL     OW11614   4.045   4.667   2.104
 2975SOL    HW111615   4.127   4.706   2.062
 2975SOL    HW211616   4.018   4.585   2.055
 2976SOL     OW11617   3.926   4.009   3.360
 2976SOL    HW111618   3.846   4.069   3.347
 2976SOL    HW211619   3.916   3.960   3.446
 2977SOL     OW11620   4.106   4.424   2.342
 2977SOL    HW111621   4.151   4.334   2.339
 2977SOL    HW211622   4.012   4.413   2.375
 2978SOL     OW11623   4.338   3.846   1.979
 2978SOL    HW111624   4.436   3.824   1.986
 2978SOL    HW211625   4.307   3.829   1.886
 2979SOL     OW11626   4.505   3.988   3.611
 2979SOL    HW111627   4.572   3.927   3.654
 2979SOL    HW211628   4.432   4.007   3.676
 2980SOL     OW11629   4.527   5.126   2.786
 2980SOL    HW111630   4.617   5.140   2.744
 2980SOL    HW211631   4.456   5.128   2.715
 2981SOL     OW11632   4.646   4.227   2.761
 2981SOL    HW111633   4.621   4.218   2.665
 2981SOL    HW211634   4.694   4.145   2.792
 2982SOL     OW11635   4.263   3.788   2.374
 2982SOL    HW111636   4.182   3.789   2.432
 2982SOL    HW211637   4.266   3.871   2.319
 2983SOL     OW11638   5.158   4.912   1.903
 2983SOL    HW111639   5.190   4.836   1.960
 2983SOL    HW211640   5.066   4.939   1.933
 2984SOL     OW11641   4.021   3.759   2.033
 2984SOL    HW111642   4.070   3.843   2.012
 2984SOL    HW211643   4.083   3.694   2.078
 2985SOL     OW11644   4.800   4.407   3.326
 2985SOL    HW111645   4.720   4.346   3.329
 2985SOL    HW211646   4.881   4.354   3.302
 2986SOL     OW11647   4.951   5.294   2.655
 2986SOL    HW111648   4.972   5.368   2.590
 2986SOL    HW211649   5.019   5.294   2.728
 2987SOL     OW11650   4.183   4.876   2.603
 2987SOL    HW111651   4.112   4.849   2.668
 2987SOL    HW211652   4.157   4.848   2.510
 2988SOL     OW11653   4.756   4.273   1.878
 2988SOL    HW111654   4.715   4.355   1.839
 2988SOL    HW211655   4.820   4.299   1.951
 2989SOL     OW11656   3.802   4.280   3.248
 2989SOL    HW111657   3.894   4.279   3.207
 2989SOL    HW211658   3.796   4.354   3.315
 2990SOL     OW11659   4.285   3.946   3.009
 2990SOL    HW111660   4.323   3.862   3.046
 2990SOL    HW211661   4.197   3.965   3.053
 2991SOL     OW11662   4.251   3.980   2.190
 2991SOL    HW111663   4.278   3.921   2.115
 2991SOL    HW211664   4.251   4.075   2.159
 2992SOL     OW11665   4.639   3.813   3.264
 2992SOL    HW111666   4.664   3.793   3.169
 2992SOL    HW211667   4.711   3.869   3.306
 2993SOL     OW11668   4.704   4.840   3.581
 2993SOL    HW111669   4.605   4.846   3.591
 2993SOL    HW211670   4.727   4.760   3.525
 2994SOL     OW11671   4.998   4.110   3.124
 2994SOL    HW111672   5.019   4.184   3.188
 2994SOL    HW211673   4.909   4.127   3.081
 2995SOL     OW11674   4.091   4.824   2.363
 2995SOL    HW111675   4.084   4.907   2.307
 2995SOL    HW211676   4.095   4.744   2.303
 2996SOL     OW11677   4.126   4.475   3.460
 2996SOL    HW111678   4.194   4.530   3.413
 2996SOL    HW211679   4.166   4.387   3.487
 2997SOL     OW11680   4.737   3.829   3.632
 2997SOL    HW111681   4.743   3.914   3.580
 2997SOL    HW211682   4.769   3.753   3.575
 2998SOL     OW11683   4.228   3.774   3.602
 2998SOL    HW111684   4.186   3.717   3.532
 2998SOL    HW211685   4.162   3.843   3.634
 2999SOL     OW11686   5.084   4.586   2.907
 2999SOL    HW111687   5.009   4.586   2.841
 2999SOL    HW211688   5.121   4.494   2.916
 3000SOL     OW11689   4.933   4.249   2.137
 3000SOL    HW111690   4.946   4.165   2.191
 3000SOL    HW211691   4.904   4.323   2.197
 3001SOL     OW11692   4.031   3.937   3.093
 3001SOL    HW111693   4.008   3.974   3.183
 3001SOL    HW211694   4.001   3.842   3.087
 3002SOL     OW11695   4.031   3.787   2.480
 3002SOL    HW111696   4.020   3.881   2.513
 3002SOL    HW211697   4.026   3.724   2.557
 3003SOL     OW11698   5.346   4.091   2.236
 3003SOL    HW111699   5.348   4.015   2.300
 3003SOL    HW211700   5.298   4.168   2.276
 3004SOL     OW11701   4.747   4.490   2.828
 3004SOL    HW111702   4.762   4.511   2.924
 3004SOL    HW211703   4.717   4.395   2.819
 3005SOL     OW11704   4.074   4.622   3.666
 3005SOL    HW111705   4.150   4.666   3.714
 3005SOL    HW211706   4.109   4.575   3.584
 3006SOL     OW11707   5.027   4.562   1.904
 3006SOL    HW111708   5.061   4.469   1.919
 3006SOL    HW211709   5.045   4.589   1.809
 3007SOL     OW11710   4.043   4.534   2.811
 3007SOL    HW111711   4.136   4.570   2.816
 3007SOL    HW211712   4.037   4.449   2.863
 3008SOL     OW11713   4.862   4.104   3.540
 3008SOL    HW111714   4.817   4.167   3.604
 3008SOL    HW211715   4.955   4.135   3.523
 3009SOL     OW11716   4.884   3.931   3.339
 3009SOL    HW111717   4.884   3.995   3.416
 3009SOL    HW211718   4.912   3.979   3.256
 3010SOL     OW11719   4.726   4.520   3.100
 3010SOL    HW111720   4.767   4.488   3.186
 3010SOL    HW211721   4.630   4.493   3.097
 3011SOL     OW11722   3.764   4.268   2.976
 3011SOL    HW111723   3.849   4.235   2.935
 3011SOL    HW211724   3.777   4.283   3.074
 3012SOL     OW11725   4.539   4.296   2.187
 3012SOL    HW111726   4.546   4.207   2.141
 3012SOL    HW211727   4.445   4.330   2.179
 3013SOL     OW11728   4.197   4.224   2.053
 3013SOL    HW111729   4.258   4.304   2.057
 3013SOL    HW211730   4.102   4.255   2.060
 3014SOL     OW11731   3.883   4.861   3.328
 3014SOL    HW111732   3.905   4.800   3.404
 3014SOL    HW211733   3.893   4.812   3.242
 3015SOL     OW11734   5.071   4.783   3.096
 3015SOL    HW111735   5.095   4.720   3.022
 3015SOL    HW211736   4.981   4.823   3.078
 3016SOL     OW11737   3.807   4.982   2.884
 3016SOL    HW111738   3.802   4.981   2.984
 3016SOL    HW211739   3.724   4.941   2.846
 3017SOL     OW11740   4.554   4.997   3.284
 3017SOL    HW111741   4.549   5.030   3.379
 3017SOL    HW211742   4.468   5.016   3.238
 3018SOL     OW11743   4.918   5.336   1.893
 3018SOL    HW111744   4.924   5.243   1.930
 3018SOL    HW211745   4.859   5.336   1.813
 3019SOL     OW11746   4.640   4.634   2.153
 3019SOL    HW111747   4.703   4.672   2.085
 3019SOL    HW211748   4.680   4.551   2.192
 3020SOL     OW11749   4.096   5.012   3.352
 3020SOL    HW111750   4.083   5.105   3.318
 3020SOL    HW211751   4.012   4.960   3.339
 3021SOL     OW11752   4.396   3.927   3.351
 3021SOL    HW111753   4.486   3.911   3.311
 3021SOL    HW211754   4.404   3.932   3.450
 3022SOL     OW11755   3.799   4.069   1.895
 3022SOL    HW111756   3.707   4.041   1.866
 3022SOL    HW211757   3.830   4.146   1.839
 3023SOL     OW11758   5.164   4.580   3.260
 3023SOL    HW111759   5.107   4.632   3.197
 3023SOL    HW211760   5.260   4.592   3.236
 3024SOL     OW11761   3.796   3.890   2.180
 3024SOL    HW111762   3.779   3.973   2.126
 3024SOL    HW211763   3.886   3.853   2.158
 3025SOL     OW11764   4.440   4.289   3.570
 3025SOL    HW111765   4.459   4.354   3.644
 3025SOL    HW211766   4.500   4.209   3.579
 3026SOL     OW11767   5.174   4.944   3.495
 3026SOL    HW111768   5.165   4.934   3.594
 3026SOL    HW211769   5.270   4.937   3.469
 3027SOL     OW11770   4.949   4.049   2.311
 3027SOL    HW111771   5.014   3.975   2.300
 3027SOL    HW211772   4.969   4.099   2.395
 3028SOL     OW11773   4.318   4.469   2.514
 3028SOL    HW111774   4.368   4.554   2.495
 3028SOL    HW211775   4.230   4.471   2.466
 3029SOL     OW11776   4.807   4.708   1.949
 3029SOL    HW111777   4.784   4.761   1.867
 3029SOL    HW211778   4.888   4.652   1.930
 3030SOL     OW11779   4.152   4.148   2.382
 3030SOL    HW111780   4.182   4.076   2.320
 3030SOL    HW211781   4.113   4.108   2.465
 3031SOL     OW11782   4.725   3.758   3.016
 3031SOL    HW111783   4.662   3.686   2.985
 3031SOL    HW211784   4.818   3.722   3.016
 3032SOL     OW11785   5.076   3.776   2.030
 3032SOL    HW111786   5.111   3.735   1.946
 3032SOL    HW211787   4.986   3.738   2.050
 3033SOL     OW11788   3.949   3.999   4.720
 3033SOL    HW111789   3.984   3.982   4.812
 3033SOL    HW211790   3.861   3.954   4.708
 3034SOL     OW11791   3.743   4.092   4.371
 3034SOL    HW111792   3.661   4.135   4.410
 3034SOL    HW211793   3.715   4.019   4.308
 3035SOL     OW11794   4.859   4.427   4.441
 3035SOL    HW111795   4.916   4.505   4.416
 3035SOL    HW211796   4.799   4.453   4.517
 3036SOL     OW11797   4.409   4.736   4.389
 3036SOL    HW111798   4.478   4.720   4.459
 3036SOL    HW211799   4.336   4.793   4.427
 3037SOL     OW11800   3.964   4.815   4.610
 3037SOL    HW111801   3.978   4.731   4.662
 3037SOL    HW211802   3.909   4.879   4.665
 3038SOL     OW11803   4.330   4.688   3.847
 3038SOL    HW111804   4.337   4.772   3.793
 3038SOL    HW211805   4.376   4.701   3.935
 3039SOL     OW11806   3.846   4.367   4.287
 3039SOL    HW111807   3.801   4.279   4.304
 3039SOL    HW211808   3.845   4.421   4.371
 3040SOL     OW11809   4.533   3.728   4.226
 3040SOL    HW111810   4.573   3.819   4.217
 3040SOL    HW211811   4.433   3.736   4.232
 3041SOL     OW11812   4.322   4.453   3.994
 3041SOL    HW111813   4.346   4.522   3.926
 3041SOL    HW211814   4.244   4.486   4.048
 3042SOL     OW11815   5.005   4.069   4.668
 3042SOL    HW111816   4.919   4.019   4.655
 3042SOL    HW211817   5.067   4.015   4.724
 3043SOL     OW11818   4.715   4.134   4.966
 3043SOL    HW111819   4.638   4.168   5.020
 3043SOL    HW211820   4.681   4.083   4.887
 3044SOL     OW11821   4.765   4.425   4.153
 3044SOL    HW111822   4.791   4.421   4.249
 3044SOL    HW211823   4.680   4.374   4.139
 3045SOL     OW11824   3.800   4.535   4.513
 3045SOL    HW111825   3.899   4.523   4.522
 3045SOL    HW211826   3.776   4.630   4.534
 3046SOL     OW11827   4.589   4.072   3.919
 3046SOL    HW111828   4.648   4.135   3.870
 3046SOL    HW211829   4.608   3.978   3.890
 3047SOL     OW11830   4.274   3.920   4.609
 3047SOL    HW111831   4.269   3.915   4.709
 3047SOL    HW211832   4.276   4.016   4.580
 3048SOL     OW11833   4.045   4.667   3.966
 3048SOL    HW111834   4.127   4.706   3.924
 3048SOL    HW211835   4.018   4.585   3.917
 3049SOL     OW11836   4.106   4.424   4.204
 3049SOL    HW111837   4.151   4.334   4.201
 3049SOL    HW211838   4.012   4.413   4.237
 3050SOL     OW11839   4.338   3.846   3.841
 3050SOL    HW111840   4.436   3.824   3.848
 3050SOL    HW211841   4.307   3.829   3.748
 3051SOL     OW11842   4.646   4.227   4.623
 3051SOL    HW111843   4.621   4.218   4.527
 3051SOL    HW211844   4.694   4.145   4.654
 3052SOL     OW11845   5.158   4.912   3.765
 3052SOL    HW111846   5.190   4.836   3.822
 3052SOL    HW211847   5.066   4.939   3.795
 3053SOL     OW11848   4.021   3.759   3.895
 3053SOL    HW111849   4.070   3.843   3.874
 3053SOL    HW211850   4.083   3.694   3.940
 3054SOL     OW11851   4.659   3.960   4.204
 3054SOL    HW111852   4.611   4.001   4.126
 3054SOL    HW211853   4.758   3.958   4.185
 3055SOL     OW11854   4.951   5.294   4.517
 3055SOL    HW111855   4.972   5.368   4.452
 3055SOL    HW211856   5.019   5.294   4.590
 3056SOL     OW11857   4.183   4.876   4.465
 3056SOL    HW111858   4.112   4.849   4.530
 3056SOL    HW211859   4.157   4.848   4.372
 3057SOL     OW11860   4.756   4.273   3.740
 3057SOL    HW111861   4.715   4.355   3.701
 3057SOL    HW211862   4.820   4.299   3.813
 3058SOL     OW11863   4.285   3.946   4.871
 3058SOL    HW111864   4.323   3.862   4.908
 3058SOL    HW211865   4.197   3.965   4.915
 3059SOL     OW11866   4.590   4.178   4.366
 3059SOL    HW111867   4.558   4.250   4.304
 3059SOL    HW211868   4.614   4.097   4.313
 3060SOL     OW11869   4.741   3.763   4.477
 3060SOL    HW111870   4.669   3.768   4.408
 3060SOL    HW211871   4.717   3.694   4.546
 3061SOL     OW11872   4.251   3.980   4.052
 3061SOL    HW111873   4.278   3.921   3.977
 3061SOL    HW211874   4.251   4.075   4.021
 3062SOL     OW11875   4.429   4.774   4.092
 3062SOL    HW111876   4.415   4.781   4.191
 3062SOL    HW211877   4.513   4.723   4.074
 3063SOL     OW11878   4.091   4.824   4.225
 3063SOL    HW111879   4.084   4.907   4.169
 3063SOL    HW211880   4.095   4.744   4.165
 3064SOL     OW11881   4.290   4.261   4.589
 3064SOL    HW111882   4.302   4.327   4.515
 3064SOL    HW211883   4.336   4.295   4.672
 3065SOL     OW11884   4.976   5.072   4.112
 3065SOL    HW111885   5.026   5.149   4.152
 3065SOL    HW211886   4.881   5.074   4.144
 3066SOL     OW11887   4.933   4.249   3.999
 3066SOL    HW111888   4.946   4.165   4.053
 3066SOL    HW211889   4.904   4.323   4.059
 3067SOL     OW11890   5.346   4.091   4.098
 3067SOL    HW111891   5.348   4.015   4.162
 3067SOL    HW211892   5.298   4.168   4.138
 3068SOL     OW11893   5.027   4.562   3.766
 3068SOL    HW111894   5.061   4.469   3.781
 3068SOL    HW211895   5.045   4.589   3.671
 3069SOL     OW11896   4.043   4.534   4.673
 3069SOL    HW111897   4.136   4.570   4.678
 3069SOL    HW211898   4.037   4.449   4.725
 3070SOL     OW11899   4.063   4.233   4.730
 3070SOL    HW111900   4.011   4.150   4.713
 3070SOL    HW211901   4.140   4.238   4.666
 3071SOL     OW11902   4.884   3.931   5.201
 3071SOL    HW111903   4.884   3.995   5.278
 3071SOL    HW211904   4.912   3.979   5.118
 3072SOL     OW11905   3.732   5.050   3.924
 3072SOL    HW111906   3.639   5.071   3.893
 3072SOL    HW211907   3.742   4.951   3.937
 3073SOL     OW11908   4.726   4.520   4.962
 3073SOL    HW111909   4.767   4.488   5.048
 3073SOL    HW211910   4.630   4.493   4.959
 3074SOL     OW11911   3.764   4.268   4.838
 3074SOL    HW111912   3.849   4.235   4.797
 3074SOL    HW211913   3.777   4.283   4.936
 3075SOL     OW11914   4.539   4.296   4.049
 3075SOL    HW111915   4.546   4.207   4.003
 3075SOL    HW211916   4.445   4.330   4.041
 3076SOL     OW11917   4.395   4.188   4.993
 3076SOL    HW111918   4.361   4.099   4.963
 3076SOL    HW211919   4.421   4.242   4.913
 3077SOL     OW11920   4.197   4.224   3.915
 3077SOL    HW111921   4.258   4.304   3.919
 3077SOL    HW211922   4.102   4.255   3.922
 3078SOL     OW11923   5.071   4.783   4.958
 3078SOL    HW111924   5.095   4.720   4.884
 3078SOL    HW211925   4.981   4.823   4.940
 3079SOL     OW11926   3.807   4.982   4.746
 3079SOL    HW111927   3.802   4.981   4.846
 3079SOL    HW211928   3.724   4.941   4.708
 3080SOL     OW11929   3.987   4.050   4.444
 3080SOL    HW111930   3.908   4.101   4.410
 3080SOL    HW211931   3.978   4.035   4.542
 3081SOL     OW11932   4.918   5.336   3.755
 3081SOL    HW111933   4.924   5.243   3.792
 3081SOL    HW211934   4.859   5.336   3.675
 3082SOL     OW11935   4.546   4.726   5.096
 3082SOL    HW111936   4.586   4.725   5.004
 3082SOL    HW211937   4.556   4.818   5.136
 3083SOL     OW11938   4.640   4.634   4.015
 3083SOL    HW111939   4.703   4.672   3.947
 3083SOL    HW211940   4.680   4.551   4.054
 3084SOL     OW11941   4.738   3.960   4.695
 3084SOL    HW111942   4.730   3.924   4.602
 3084SOL    HW211943   4.736   3.884   4.760
 3085SOL     OW11944   3.796   3.890   4.042
 3085SOL    HW111945   3.779   3.973   3.988
 3085SOL    HW211946   3.886   3.853   4.020
 3086SOL     OW11947   4.949   4.049   4.173
 3086SOL    HW111948   5.014   3.975   4.162
 3086SOL    HW211949   4.969   4.099   4.257
 3087SOL     OW11950   4.318   4.469   4.376
 3087SOL    HW111951   4.368   4.554   4.357
 3087SOL    HW211952   4.230   4.471   4.328
 3088SOL     OW11953   4.807   4.708   3.811
 3088SOL    HW111954   4.784   4.761   3.729
 3088SOL    HW211955   4.888   4.652   3.792
 3089SOL     OW11956   3.803   4.964   4.377
 3089SOL    HW111957   3.802   4.917   4.465
 3089SOL    HW211958   3.885   4.936   4.326
 3090SOL     OW11959   4.725   3.758   4.878
 3090SOL    HW111960   4.662   3.686   4.847
 3090SOL    HW211961   4.818   3.722   4.878
 3091SOL     OW11962   4.494   5.054   4.025
 3091SOL    HW111963   4.448   4.967   4.042
 3091SOL    HW211964   4.585   5.051   4.066
 3092SOL     OW11965   5.076   3.776   3.892
 3092SOL    HW111966   5.111   3.735   3.808
 3092SOL    HW211967   4.986   3.738   3.912
   5.08970   5.08970   5.08970
