256-Lipid DPPC Bilayer in water | solvent-stripped DPPC template
47504
    1DPPC    C1    1   5.809   5.563   5.786
    1DPPC    C2    2   5.821   5.721   5.621
    1DPPC    C3    3   5.683   5.541   5.569
    1DPPC    N4    4   5.727   5.626   5.681
    1DPPC    C5    5   5.620   5.699   5.750
    1DPPC    C6    6   5.531   5.797   5.675
    1DPPC    O7    7   5.586   5.924   5.640
    1DPPC    P8    8   5.463   6.027   5.633
    1DPPC    O9    9   5.548   6.147   5.623
    1DPPC   O10   10   5.390   5.988   5.756
    1DPPC   O11   11   5.380   6.000   5.497
    1DPPC   C12   12   5.406   6.111   5.411
    1DPPC   C13   13   5.362   6.089   5.266
    1DPPC   O14   14   5.227   6.129   5.238
    1DPPC   C15   15   5.209   6.261   5.214
    1DPPC   O16   16   5.296   6.336   5.259
    1DPPC   C17   17   5.073   6.309   5.164
    1DPPC   C18   18   5.077   6.427   5.067
    1DPPC   C19   19   4.962   6.436   4.967
    1DPPC   C20   20   4.964   6.559   4.875
    1DPPC   C21   21   5.079   6.543   4.775
    1DPPC   C22   22   5.074   6.645   4.661
    1DPPC   C23   23   5.184   6.592   4.568
    1DPPC   C24   24   5.176   6.674   4.440
    1DPPC   C25   25   5.258   6.595   4.337
    1DPPC   C26   26   5.242   6.671   4.205
    1DPPC   C27   27   5.301   6.602   4.082
    1DPPC   C28   28   5.268   6.679   3.953
    1DPPC   C29   29   5.326   6.610   3.830
    1DPPC   C30   30   5.276   6.660   3.695
    1DPPC   C31   31   5.303   6.811   3.686
    1DPPC   C32   32   5.409   5.949   5.224
    1DPPC   O33   33   5.503   5.958   5.118
    1DPPC   C34   34   5.592   5.855   5.105
    1DPPC   O35   35   5.592   5.772   5.196
    1DPPC   C36   36   5.683   5.853   4.982
    1DPPC   C37   37   5.665   5.720   4.909
    1DPPC   C38   38   5.752   5.709   4.784
    1DPPC   C39   39   5.896   5.707   4.837
    1DPPC   C40   40   6.002   5.702   4.727
    1DPPC   C41   41   5.995   5.577   4.640
    1DPPC   C42   42   6.048   5.615   4.501
    1DPPC   C43   43   6.033   5.491   4.413
    1DPPC   C44   44   6.088   5.520   4.273
    1DPPC   C45   45   6.065   5.411   4.168
    1DPPC   C46   46   6.106   5.475   4.035
    1DPPC   C47   47   6.018   5.591   3.987
    1DPPC   C48   48   6.082   5.658   3.865
    1DPPC   C49   49   5.991   5.758   3.793
    1DPPC   C50   50   5.966   5.868   3.897
    2DPPC    C1   51   3.473   0.842   1.933
    2DPPC    C2   52   3.629   0.950   1.804
    2DPPC    C3   53   3.424   1.056   1.860
    2DPPC    N4   54   3.534   0.975   1.914
    2DPPC    C5   55   3.583   1.026   2.042
    2DPPC    C6   56   3.647   1.165   2.042
    2DPPC    O7   57   3.668   1.213   2.175
    2DPPC    P8   58   3.762   1.343   2.182
    2DPPC    O9   59   3.698   1.433   2.084
    2DPPC   O10   60   3.905   1.308   2.197
    2DPPC   O11   61   3.711   1.383   2.330
    2DPPC   C12   62   3.781   1.311   2.433
    2DPPC   C13   63   3.763   1.349   2.580
    2DPPC   O14   64   3.868   1.285   2.655
    2DPPC   C15   65   3.992   1.333   2.629
    2DPPC   O16   66   4.007   1.451   2.598
    2DPPC   C17   67   4.106   1.251   2.689
    2DPPC   C18   68   4.073   1.185   2.823
    2DPPC   C19   69   4.174   1.075   2.855
    2DPPC   C20   70   4.152   1.014   2.994
    2DPPC   C21   71   4.274   0.924   3.012
    2DPPC   C22   72   4.250   0.847   3.142
    2DPPC   C23   73   4.205   0.935   3.259
    2DPPC   C24   74   4.181   0.834   3.372
    2DPPC   C25   75   4.153   0.914   3.499
    2DPPC   C26   76   4.050   0.840   3.584
    2DPPC   C27   77   3.995   0.943   3.684
    2DPPC   C28   78   3.914   0.862   3.785
    2DPPC   C29   79   3.907   0.954   3.907
    2DPPC   C30   80   3.827   0.885   4.017
    2DPPC   C31   81   3.683   0.871   3.967
    2DPPC   C32   82   3.619   1.312   2.614
    2DPPC   O33   83   3.594   1.352   2.749
    2DPPC   C34   84   3.467   1.331   2.793
    2DPPC   O35   85   3.373   1.312   2.716
    2DPPC   C36   86   3.438   1.370   2.938
    2DPPC   C37   87   3.306   1.319   2.997
    2DPPC   C38   88   3.296   1.362   3.143
    2DPPC   C39   89   3.424   1.321   3.216
    2DPPC   C40   90   3.417   1.406   3.343
    2DPPC   C41   91   3.415   1.555   3.308
    2DPPC   C42   92   3.451   1.654   3.419
    2DPPC   C43   93   3.408   1.796   3.382
    2DPPC   C44   94   3.256   1.800   3.363
    2DPPC   C45   95   3.207   1.944   3.347
    2DPPC   C46   96   3.071   1.945   3.277
    2DPPC   C47   97   3.036   2.087   3.233
    2DPPC   C48   98   2.910   2.059   3.152
    2DPPC   C49   99   2.785   2.002   3.219
    2DPPC   C50  100   2.683   1.962   3.112
    3DPPC    C1  101   6.441   4.485   5.382
    3DPPC    C2  102   6.465   4.495   5.622
    3DPPC    C3  103   6.535   4.312   5.504
    3DPPC    N4  104   6.530   4.459   5.496
    3DPPC    C5  105   6.651   4.538   5.469
    3DPPC    C6  106   6.652   4.683   5.517
    3DPPC    O7  107   6.564   4.773   5.450
    3DPPC    P8  108   6.577   4.922   5.511
    3DPPC    O9  109   6.626   4.904   5.649
    3DPPC   O10  110   6.460   5.004   5.470
    3DPPC   O11  111   6.711   4.965   5.432
    3DPPC   C12  112   6.667   4.989   5.298
    3DPPC   C13  113   6.779   5.038   5.205
    3DPPC   O14  114   6.725   5.081   5.079
    3DPPC   C15  115   6.790   5.163   4.992
    3DPPC   O16  116   6.874   5.238   5.042
    3DPPC   C17  117   6.726   5.185   4.855
    3DPPC   C18  118   6.812   5.170   4.730
    3DPPC   C19  119   6.747   5.149   4.593
    3DPPC   C20  120   6.827   5.222   4.485
    3DPPC   C21  121   6.798   5.148   4.354
    3DPPC   C22  122   6.865   5.213   4.233
    3DPPC   C23  123   6.830   5.130   4.110
    3DPPC   C24  124   6.877   4.985   4.127
    3DPPC   C25  125   6.824   4.900   4.012
    3DPPC   C26  126   6.890   4.763   3.996
    3DPPC   C27  127   6.833   4.673   3.886
    3DPPC   C28  128   6.878   4.527   3.896
    3DPPC   C29  129   6.838   4.470   4.032
    3DPPC   C30  130   6.887   4.327   4.053
    3DPPC   C31  131   6.810   4.244   3.950
    3DPPC   C32  132   6.874   4.918   5.208
    3DPPC   O33  133   6.817   4.815   5.126
    3DPPC   C34  134   6.889   4.702   5.107
    3DPPC   O35  135   7.003   4.699   5.154
    3DPPC   C36  136   6.852   4.595   5.004
    3DPPC   C37  137   6.751   4.502   5.070
    3DPPC   C38  138   6.712   4.383   4.981
    3DPPC   C39  139   6.666   4.443   4.848
    3DPPC   C40  140   6.651   4.332   4.743
    3DPPC   C41  141   6.647   4.384   4.599
    3DPPC   C42  142   6.776   4.461   4.571
    3DPPC   C43  143   6.798   4.509   4.427
    3DPPC   C44  144   6.853   4.650   4.405
    3DPPC   C45  145   7.004   4.656   4.430
    3DPPC   C46  146   7.058   4.798   4.443
    3DPPC   C47  147   7.199   4.805   4.501
    3DPPC   C48  148   7.202   4.760   4.647
    3DPPC   C49  149   7.163   4.875   4.741
    3DPPC   C50  150   7.166   4.833   4.888
    4DPPC    C1  151   8.532   4.077   1.919
    4DPPC    C2  152   8.440   4.205   1.775
    4DPPC    C3  153   8.347   3.979   1.779
    4DPPC    N4  154   8.399   4.091   1.859
    4DPPC    C5  155   8.303   4.135   1.962
    4DPPC    C6  156   8.165   4.170   1.906
    4DPPC    O7  157   8.144   4.275   1.811
    4DPPC    P8  158   7.992   4.270   1.757
    4DPPC    O9  159   7.942   4.131   1.768
    4DPPC   O10  160   7.985   4.351   1.634
    4DPPC   O11  161   7.906   4.346   1.869
    4DPPC   C12  162   7.969   4.474   1.886
    4DPPC   C13  163   7.883   4.588   1.831
    4DPPC   O14  164   7.940   4.717   1.861
    4DPPC   C15  165   7.871   4.827   1.822
    4DPPC   O16  166   7.786   4.814   1.733
    4DPPC   C17  167   7.927   4.960   1.870
    4DPPC   C18  168   7.844   5.015   1.986
    4DPPC   C19  169   7.819   4.917   2.101
    4DPPC   C20  170   7.946   4.893   2.183
    4DPPC   C21  171   7.901   4.818   2.309
    4DPPC   C22  172   7.822   4.928   2.381
    4DPPC   C23  173   7.765   4.869   2.510
    4DPPC   C24  174   7.699   4.980   2.592
    4DPPC   C25  175   7.621   4.923   2.710
    4DPPC   C26  176   7.498   4.851   2.653
    4DPPC   C27  177   7.412   4.785   2.761
    4DPPC   C28  178   7.342   4.887   2.851
    4DPPC   C29  179   7.275   4.799   2.957
    4DPPC   C30  180   7.176   4.896   3.021
    4DPPC   C31  181   7.057   4.810   3.063
    4DPPC   C32  182   7.744   4.556   1.888
    4DPPC   O33  183   7.730   4.578   2.028
    4DPPC   C34  184   7.619   4.521   2.081
    4DPPC   O35  185   7.567   4.421   2.031
    4DPPC   C36  186   7.578   4.568   2.220
    4DPPC   C37  187   7.525   4.447   2.298
    4DPPC   C38  188   7.541   4.450   2.450
    4DPPC   C39  189   7.496   4.310   2.492
    4DPPC   C40  190   7.506   4.286   2.643
    4DPPC   C41  191   7.426   4.372   2.742
    4DPPC   C42  192   7.446   4.325   2.886
    4DPPC   C43  193   7.348   4.407   2.970
    4DPPC   C44  194   7.354   4.361   3.115
    4DPPC   C45  195   7.322   4.212   3.130
    4DPPC   C46  196   7.305   4.174   3.277
    4DPPC   C47  197   7.415   4.216   3.375
    4DPPC   C48  198   7.415   4.155   3.515
    4DPPC   C49  199   7.274   4.162   3.574
    4DPPC   C50  200   7.279   4.185   3.725
    5DPPC    C1  201   8.665   4.759   5.779
    5DPPC    C2  202   8.842   4.914   5.793
    5DPPC    C3  203   8.823   4.745   5.951
    5DPPC    N4  204   8.809   4.772   5.807
    5DPPC    C5  205   8.894   4.687   5.722
    5DPPC    C6  206   8.841   4.547   5.692
    5DPPC    O7  207   8.825   4.459   5.803
    5DPPC    P8  208   8.751   4.324   5.757
    5DPPC    O9  209   8.713   4.220   5.855
    5DPPC   O10  210   8.778   4.290   5.615
    5DPPC   O11  211   8.615   4.410   5.753
    5DPPC   C12  212   8.530   4.320   5.680
    5DPPC   C13  213   8.399   4.377   5.628
    5DPPC   O14  214   8.319   4.270   5.575
    5DPPC   C15  215   8.190   4.287   5.535
    5DPPC   O16  216   8.139   4.398   5.520
    5DPPC   C17  217   8.118   4.162   5.484
    5DPPC   C18  218   8.152   4.141   5.336
    5DPPC   C19  219   8.079   4.017   5.283
    5DPPC   C20  220   8.116   3.992   5.137
    5DPPC   C21  221   8.263   3.949   5.141
    5DPPC   C22  222   8.313   3.936   4.997
    5DPPC   C23  223   8.304   4.074   4.932
    5DPPC   C24  224   8.299   4.062   4.779
    5DPPC   C25  225   8.443   4.032   4.735
    5DPPC   C26  226   8.429   4.039   4.583
    5DPPC   C27  227   8.556   3.994   4.511
    5DPPC   C28  228   8.524   3.992   4.361
    5DPPC   C29  229   8.638   3.923   4.286
    5DPPC   C30  230   8.599   3.900   4.140
    5DPPC   C31  231   8.684   3.794   4.068
    5DPPC   C32  232   8.449   4.491   5.538
    5DPPC   O33  233   8.513   4.443   5.420
    5DPPC   C34  234   8.596   4.529   5.356
    5DPPC   O35  235   8.644   4.619   5.425
    5DPPC   C36  236   8.657   4.488   5.222
    5DPPC   C37  237   8.806   4.507   5.196
    5DPPC   C38  238   8.845   4.474   5.051
    5DPPC   C39  239   8.997   4.469   5.034
    5DPPC   C40  240   9.049   4.405   4.906
    5DPPC   C41  241   9.020   4.255   4.899
    5DPPC   C42  242   9.123   4.190   4.808
    5DPPC   C43  243   9.127   4.253   4.668
    5DPPC   C44  244   9.021   4.193   4.575
    5DPPC   C45  245   9.021   4.287   4.454
    5DPPC   C46  246   8.898   4.252   4.371
    5DPPC   C47  247   8.914   4.315   4.232
    5DPPC   C48  248   8.909   4.200   4.130
    5DPPC   C49  249   8.892   4.261   3.991
    5DPPC   C50  250   8.888   4.162   3.874
    6DPPC    C1  251   6.199   0.628   5.704
    6DPPC    C2  252   6.203   0.811   5.564
    6DPPC    C3  253   6.394   0.678   5.570
    6DPPC    N4  254   6.247   0.672   5.572
    6DPPC    C5  255   6.205   0.593   5.456
    6DPPC    C6  256   6.171   0.446   5.481
    6DPPC    O7  257   6.290   0.377   5.519
    6DPPC    P8  258   6.251   0.222   5.542
    6DPPC    O9  259   6.177   0.166   5.427
    6DPPC   O10  260   6.184   0.235   5.674
    6DPPC   O11  261   6.393   0.149   5.560
    6DPPC   C12  262   6.422   0.080   5.438
    6DPPC   C13  263   6.562   0.018   5.440
    6DPPC   O14  264   6.655   0.082   5.352
    6DPPC   C15  265   6.787   0.086   5.383
    6DPPC   O16  266   6.833   0.048   5.491
    6DPPC   C17  267   6.864   0.184   5.293
    6DPPC   C18  268   7.016   0.167   5.296
    6DPPC   C19  269   7.080   0.253   5.188
    6DPPC   C20  270   7.231   0.262   5.211
    6DPPC   C21  271   7.309   0.337   5.103
    6DPPC   C22  272   7.418   0.424   5.166
    6DPPC   C23  273   7.467   0.525   5.062
    6DPPC   C24  274   7.515   0.462   4.931
    6DPPC   C25  275   7.550   0.582   4.843
    6DPPC   C26  276   7.596   0.545   4.701
    6DPPC   C27  277   7.652   0.664   4.622
    6DPPC   C28  278   7.787   0.706   4.679
    6DPPC   C29  279   7.858   0.823   4.611
    6DPPC   C30  280   7.986   0.845   4.692
    6DPPC   C31  281   7.956   0.911   4.827
    6DPPC   C32  282   6.536  -0.133   5.429
    6DPPC   O33  283   6.461  -0.154   5.309
    6DPPC   C34  284   6.445  -0.284   5.271
    6DPPC   O35  285   6.486  -0.371   5.347
    6DPPC   C36  286   6.361  -0.318   5.148
    6DPPC   C37  287   6.401  -0.265   5.010
    6DPPC   C38  288   6.301  -0.327   4.912
    6DPPC   C39  289   6.327  -0.297   4.765
    6DPPC   C40  290   6.211  -0.330   4.671
    6DPPC   C41  291   6.255  -0.382   4.534
    6DPPC   C42  292   6.343  -0.507   4.528
    6DPPC   C43  293   6.472  -0.484   4.450
    6DPPC   C44  294   6.501  -0.596   4.350
    6DPPC   C45  295   6.602  -0.561   4.241
    6DPPC   C46  296   6.632  -0.696   4.176
    6DPPC   C47  297   6.764  -0.691   4.098
    6DPPC   C48  298   6.763  -0.596   3.978
    6DPPC   C49  299   6.909  -0.576   3.936
    6DPPC   C50  300   6.904  -0.472   3.824
    7DPPC    C1  301   2.931   1.575   5.732
    7DPPC    C2  302   2.739   1.533   5.862
    7DPPC    C3  303   2.753   1.517   5.610
    7DPPC    N4  304   2.813   1.489   5.742
    7DPPC    C5  305   2.858   1.350   5.751
    7DPPC    C6  306   2.754   1.244   5.790
    7DPPC    O7  307   2.674   1.224   5.673
    7DPPC    P8  308   2.551   1.130   5.716
    7DPPC    O9  309   2.461   1.235   5.770
    7DPPC   O10  310   2.616   1.029   5.802
    7DPPC   O11  311   2.529   1.082   5.564
    7DPPC   C12  312   2.479   1.183   5.477
    7DPPC   C13  313   2.489   1.131   5.333
    7DPPC   O14  314   2.380   1.052   5.286
    7DPPC   C15  315   2.258   1.106   5.258
    7DPPC   O16  316   2.216   1.209   5.309
    7DPPC   C17  317   2.158   1.010   5.192
    7DPPC   C18  318   2.206   1.005   5.047
    7DPPC   C19  319   2.147   0.890   4.965
    7DPPC   C20  320   1.998   0.923   4.958
    7DPPC   C21  321   1.924   0.835   4.857
    7DPPC   C22  322   1.992   0.836   4.720
    7DPPC   C23  323   2.002   0.969   4.645
    7DPPC   C24  324   2.072   0.961   4.509
    7DPPC   C25  325   2.089   1.100   4.446
    7DPPC   C26  326   1.951   1.151   4.403
    7DPPC   C27  327   1.961   1.271   4.308
    7DPPC   C28  328   2.040   1.241   4.181
    7DPPC   C29  329   1.966   1.135   4.098
    7DPPC   C30  330   2.047   1.129   3.969
    7DPPC   C31  331   2.016   1.248   3.879
    7DPPC   C32  332   2.626   1.062   5.326
    7DPPC   O33  333   2.722   1.167   5.341
    7DPPC   C34  334   2.850   1.122   5.336
    7DPPC   O35  335   2.888   1.005   5.347
    7DPPC   C36  336   2.959   1.230   5.334
    7DPPC   C37  337   2.943   1.322   5.213
    7DPPC   C38  338   3.044   1.436   5.216
    7DPPC   C39  339   3.027   1.521   5.089
    7DPPC   C40  340   2.885   1.576   5.095
    7DPPC   C41  341   2.851   1.631   4.956
    7DPPC   C42  342   2.864   1.523   4.849
    7DPPC   C43  343   2.833   1.548   4.701
    7DPPC   C44  344   2.841   1.424   4.611
    7DPPC   C45  345   2.802   1.467   4.469
    7DPPC   C46  346   2.825   1.355   4.368
    7DPPC   C47  347   2.782   1.402   4.229
    7DPPC   C48  348   2.806   1.305   4.112
    7DPPC   C49  349   2.770   1.359   3.974
    7DPPC   C50  350   2.774   1.250   3.866
    8DPPC    C1  351   8.482   5.852   4.844
    8DPPC    C2  352   8.671   5.789   4.980
    8DPPC    C3  353   8.523   5.969   5.037
    8DPPC    N4  354   8.531   5.833   4.981
    8DPPC    C5  355   8.440   5.747   5.058
    8DPPC    C6  356   8.449   5.701   5.203
    8DPPC    O7  357   8.568   5.628   5.237
    8DPPC    P8  358   8.553   5.573   5.387
    8DPPC    O9  359   8.494   5.681   5.471
    8DPPC   O10  360   8.674   5.498   5.429
    8DPPC   O11  361   8.431   5.471   5.368
    8DPPC   C12  362   8.468   5.384   5.261
    8DPPC   C13  363   8.376   5.269   5.220
    8DPPC   O14  364   8.437   5.170   5.136
    8DPPC   C15  365   8.481   5.053   5.188
    8DPPC   O16  366   8.503   5.034   5.308
    8DPPC   C17  367   8.512   4.952   5.078
    8DPPC   C18  368   8.392   4.901   4.997
    8DPPC   C19  369   8.315   5.008   4.919
    8DPPC   C20  370   8.240   4.940   4.804
    8DPPC   C21  371   8.094   4.917   4.842
    8DPPC   C22  372   8.022   4.890   4.710
    8DPPC   C23  373   8.061   4.997   4.608
    8DPPC   C24  374   7.989   4.981   4.475
    8DPPC   C25  375   8.025   5.104   4.391
    8DPPC   C26  376   7.973   5.099   4.248
    8DPPC   C27  377   8.022   5.221   4.170
    8DPPC   C28  378   8.173   5.214   4.149
    8DPPC   C29  379   8.211   5.100   4.054
    8DPPC   C30  380   8.350   5.104   3.990
    8DPPC   C31  381   8.403   4.966   3.954
    8DPPC   C32  382   8.250   5.328   5.156
    8DPPC   O33  383   8.255   5.442   5.069
    8DPPC   C34  384   8.133   5.482   5.026
    8DPPC   O35  385   8.025   5.452   5.076
    8DPPC   C36  386   8.141   5.571   4.902
    8DPPC   C37  387   8.211   5.512   4.779
    8DPPC   C38  388   8.243   5.606   4.663
    8DPPC   C39  389   8.141   5.569   4.555
    8DPPC   C40  390   8.192   5.633   4.426
    8DPPC   C41  391   8.095   5.601   4.311
    8DPPC   C42  392   8.162   5.660   4.186
    8DPPC   C43  393   8.078   5.642   4.060
    8DPPC   C44  394   8.146   5.707   3.939
    8DPPC   C45  395   8.065   5.658   3.820
    8DPPC   C46  396   8.015   5.514   3.833
    8DPPC   C47  397   7.971   5.451   3.700
    8DPPC   C48  398   7.898   5.321   3.733
    8DPPC   C49  399   7.871   5.240   3.606
    8DPPC   C50  400   7.843   5.093   3.636
    9DPPC    C1  401   3.150   2.978   6.271
    9DPPC    C2  402   3.014   2.817   6.399
    9DPPC    C3  403   2.943   3.040   6.362
    9DPPC    N4  404   3.015   2.927   6.302
    9DPPC    C5  405   2.950   2.874   6.181
    9DPPC    C6  406   2.891   2.978   6.087
    9DPPC    O7  407   2.981   3.035   5.992
    9DPPC    P8  408   2.895   3.082   5.864
    9DPPC    O9  409   2.966   3.202   5.818
    9DPPC   O10  410   2.756   3.089   5.915
    9DPPC   O11  411   2.897   2.952   5.769
    9DPPC   C12  412   3.020   2.977   5.700
    9DPPC   C13  413   3.082   2.842   5.660
    9DPPC   O14  414   3.208   2.860   5.596
    9DPPC   C15  415   3.293   2.754   5.591
    9DPPC   O16  416   3.304   2.683   5.691
    9DPPC   C17  417   3.406   2.768   5.489
    9DPPC   C18  418   3.370   2.728   5.346
    9DPPC   C19  419   3.493   2.719   5.256
    9DPPC   C20  420   3.456   2.716   5.108
    9DPPC   C21  421   3.578   2.690   5.019
    9DPPC   C22  422   3.552   2.661   4.871
    9DPPC   C23  423   3.685   2.652   4.796
    9DPPC   C24  424   3.677   2.575   4.664
    9DPPC   C25  425   3.815   2.562   4.600
    9DPPC   C26  426   3.795   2.444   4.505
    9DPPC   C27  427   3.912   2.435   4.407
    9DPPC   C28  428   3.898   2.319   4.308
    9DPPC   C29  429   4.027   2.322   4.225
    9DPPC   C30  430   4.154   2.284   4.301
    9DPPC   C31  431   4.258   2.265   4.190
    9DPPC   C32  432   2.973   2.781   5.572
    9DPPC   O33  433   2.947   2.857   5.453
    9DPPC   C34  434   2.851   2.813   5.368
    9DPPC   O35  435   2.765   2.726   5.387
    9DPPC   C36  436   2.862   2.891   5.237
    9DPPC   C37  437   2.845   2.795   5.119
    9DPPC   C38  438   2.852   2.875   4.989
    9DPPC   C39  439   2.747   2.986   4.997
    9DPPC   C40  440   2.750   3.069   4.869
    9DPPC   C41  441   2.630   3.163   4.870
    9DPPC   C42  442   2.617   3.252   4.746
    9DPPC   C43  443   2.506   3.356   4.762
    9DPPC   C44  444   2.487   3.449   4.642
    9DPPC   C45  445   2.388   3.402   4.535
    9DPPC   C46  446   2.245   3.381   4.586
    9DPPC   C47  447   2.164   3.321   4.471
    9DPPC   C48  448   2.221   3.185   4.431
    9DPPC   C49  449   2.109   3.080   4.430
    9DPPC   C50  450   2.158   2.942   4.388
   10DPPC    C1  451   8.361   6.256   5.646
   10DPPC    C2  452   8.470   6.449   5.589
   10DPPC    C3  453   8.468   6.278   5.432
   10DPPC    N4  454   8.383   6.346   5.531
   10DPPC    C5  455   8.263   6.414   5.480
   10DPPC    C6  456   8.154   6.330   5.412
   10DPPC    O7  457   8.043   6.409   5.368
   10DPPC    P8  458   7.949   6.298   5.299
   10DPPC    O9  459   7.857   6.388   5.225
   10DPPC   O10  460   7.909   6.185   5.386
   10DPPC   O11  461   8.057   6.240   5.195
   10DPPC   C12  462   8.052   6.324   5.079
   10DPPC   C13  463   8.180   6.307   4.997
   10DPPC   O14  464   8.209   6.426   4.922
   10DPPC   C15  465   8.331   6.445   4.865
   10DPPC   O16  466   8.427   6.386   4.913
   10DPPC   C17  467   8.336   6.534   4.741
   10DPPC   C18  468   8.346   6.444   4.618
   10DPPC   C19  469   8.472   6.359   4.604
   10DPPC   C20  470   8.442   6.266   4.486
   10DPPC   C21  471   8.390   6.132   4.539
   10DPPC   C22  472   8.388   6.043   4.414
   10DPPC   C23  473   8.529   6.039   4.354
   10DPPC   C24  474   8.522   5.985   4.211
   10DPPC   C25  475   8.657   5.999   4.143
   10DPPC   C26  476   8.659   5.918   4.013
   10DPPC   C27  477   8.796   5.919   3.944
   10DPPC   C28  478   8.901   5.862   4.039
   10DPPC   C29  479   9.042   5.887   3.986
   10DPPC   C30  480   9.094   6.030   4.004
   10DPPC   C31  481   9.240   6.040   3.959
   10DPPC   C32  482   8.181   6.170   4.929
   10DPPC   O33  483   8.062   6.149   4.851
   10DPPC   C34  484   8.062   6.038   4.773
   10DPPC   O35  485   8.164   5.972   4.755
   10DPPC   C36  486   7.957   6.045   4.662
   10DPPC   C37  487   7.949   5.935   4.556
   10DPPC   C38  488   7.833   5.968   4.462
   10DPPC   C39  489   7.835   5.868   4.346
   10DPPC   C40  490   7.755   5.939   4.235
   10DPPC   C41  491   7.760   5.853   4.109
   10DPPC   C42  492   7.662   5.933   4.024
   10DPPC   C43  493   7.651   5.871   3.884
   10DPPC   C44  494   7.707   5.960   3.774
   10DPPC   C45  495   7.687   5.888   3.641
   10DPPC   C46  496   7.734   5.742   3.646
   10DPPC   C47  497   7.715   5.680   3.508
   10DPPC   C48  498   7.811   5.729   3.400
   10DPPC   C49  499   7.770   5.674   3.263
   10DPPC   C50  500   7.881   5.685   3.158
   11DPPC    C1  501   6.406   7.656   5.733
   11DPPC    C2  502   6.488   7.733   5.939
   11DPPC    C3  503   6.526   7.500   5.877
   11DPPC    N4  504   6.516   7.639   5.830
   11DPPC    C5  505   6.632   7.665   5.744
   11DPPC    C6  506   6.716   7.792   5.762
   11DPPC    O7  507   6.645   7.895   5.693
   11DPPC    P8  508   6.702   8.035   5.749
   11DPPC    O9  509   6.752   8.011   5.886
   11DPPC   O10  510   6.597   8.139   5.735
   11DPPC   O11  511   6.816   8.046   5.637
   11DPPC   C12  512   6.757   8.098   5.517
   11DPPC   C13  513   6.860   8.102   5.404
   11DPPC   O14  514   6.837   8.201   5.304
   11DPPC   C15  515   6.949   8.240   5.237
   11DPPC   O16  516   7.057   8.241   5.297
   11DPPC   C17  517   6.919   8.339   5.125
   11DPPC   C18  518   6.792   8.304   5.047
   11DPPC   C19  519   6.775   8.393   4.923
   11DPPC   C20  520   6.780   8.536   4.976
   11DPPC   C21  521   6.814   8.627   4.858
   11DPPC   C22  522   6.778   8.775   4.878
   11DPPC   C23  523   6.796   8.849   4.746
   11DPPC   C24  524   6.756   8.997   4.756
   11DPPC   C25  525   6.742   9.068   4.621
   11DPPC   C26  526   6.646   9.187   4.619
   11DPPC   C27  527   6.509   9.120   4.605
   11DPPC   C28  528   6.473   9.036   4.482
   11DPPC   C29  529   6.329   8.984   4.487
   11DPPC   C30  530   6.305   8.896   4.364
   11DPPC   C31  531   6.159   8.851   4.358
   11DPPC   C32  532   6.886   7.953   5.381
   11DPPC   O33  533   6.763   7.897   5.335
   11DPPC   C34  534   6.775   7.769   5.292
   11DPPC   O35  535   6.867   7.697   5.330
   11DPPC   C36  536   6.664   7.724   5.196
   11DPPC   C37  537   6.669   7.815   5.072
   11DPPC   C38  538   6.551   7.797   4.978
   11DPPC   C39  539   6.574   7.897   4.864
   11DPPC   C40  540   6.719   7.930   4.825
   11DPPC   C41  541   6.711   8.033   4.713
   11DPPC   C42  542   6.852   8.079   4.674
   11DPPC   C43  543   6.894   7.982   4.563
   11DPPC   C44  544   7.038   8.028   4.536
   11DPPC   C45  545   7.036   8.173   4.488
   11DPPC   C46  546   6.961   8.177   4.355
   11DPPC   C47  547   6.973   8.323   4.309
   11DPPC   C48  548   7.118   8.350   4.268
   11DPPC   C49  549   7.121   8.501   4.247
   11DPPC   C50  550   7.262   8.561   4.240
   12DPPC    C1  551   9.289   1.831   5.238
   12DPPC    C2  552   9.504   1.906   5.241
   12DPPC    C3  553   9.398   1.861   5.447
   12DPPC    N4  554   9.416   1.811   5.310
   12DPPC    C5  555   9.465   1.673   5.290
   12DPPC    C6  556   9.401   1.549   5.351
   12DPPC    O7  557   9.424   1.442   5.258
   12DPPC    P8  558   9.371   1.309   5.332
   12DPPC    O9  559   9.377   1.316   5.480
   12DPPC   O10  560   9.424   1.193   5.258
   12DPPC   O11  561   9.214   1.337   5.305
   12DPPC   C12  562   9.177   1.268   5.185
   12DPPC   C13  563   9.028   1.284   5.154
   12DPPC   O14  564   8.978   1.204   5.046
   12DPPC   C15  565   8.949   1.073   5.069
   12DPPC   O16  566   8.944   1.030   5.184
   12DPPC   C17  567   8.885   1.004   4.948
   12DPPC   C18  568   8.842   1.081   4.824
   12DPPC   C19  569   8.735   1.188   4.847
   12DPPC   C20  570   8.714   1.255   4.711
   12DPPC   C21  571   8.613   1.370   4.714
   12DPPC   C22  572   8.591   1.448   4.584
   12DPPC   C23  573   8.528   1.359   4.476
   12DPPC   C24  574   8.473   1.445   4.362
   12DPPC   C25  575   8.363   1.540   4.412
   12DPPC   C26  576   8.333   1.632   4.293
   12DPPC   C27  577   8.245   1.585   4.178
   12DPPC   C28  578   8.101   1.543   4.207
   12DPPC   C29  579   8.022   1.479   4.093
   12DPPC   C30  580   7.881   1.444   4.141
   12DPPC   C31  581   7.892   1.342   4.255
   12DPPC   C32  582   8.999   1.431   5.126
   12DPPC   O33  583   9.075   1.466   5.010
   12DPPC   C34  584   9.057   1.592   4.961
   12DPPC   O35  585   9.005   1.683   5.025
   12DPPC   C36  586   9.148   1.631   4.844
   12DPPC   C37  587   9.095   1.580   4.709
   12DPPC   C38  588   8.977   1.660   4.653
   12DPPC   C39  589   8.972   1.629   4.504
   12DPPC   C40  590   8.856   1.678   4.416
   12DPPC   C41  591   8.867   1.660   4.264
   12DPPC   C42  592   8.771   1.748   4.184
   12DPPC   C43  593   8.763   1.693   4.042
   12DPPC   C44  594   8.652   1.768   3.967
   12DPPC   C45  595   8.688   1.911   3.928
   12DPPC   C46  596   8.575   1.992   3.865
   12DPPC   C47  597   8.448   2.005   3.950
   12DPPC   C48  598   8.368   2.130   3.914
   12DPPC   C49  599   8.234   2.114   3.986
   12DPPC   C50  600   8.161   1.987   3.940
   13DPPC    C1  601   1.596   1.646   5.285
   13DPPC    C2  602   1.728   1.506   5.440
   13DPPC    C3  603   1.565   1.625   5.531
   13DPPC    N4  604   1.595   1.559   5.403
   13DPPC    C5  605   1.516   1.436   5.390
   13DPPC    C6  606   1.366   1.452   5.414
   13DPPC    O7  607   1.271   1.362   5.357
   13DPPC    P8  608   1.123   1.419   5.386
   13DPPC    O9  609   1.114   1.442   5.532
   13DPPC   O10  610   1.033   1.321   5.321
   13DPPC   O11  611   1.126   1.566   5.321
   13DPPC   C12  612   1.032   1.573   5.214
   13DPPC   C13  613   1.031   1.712   5.151
   13DPPC   O14  614   0.944   1.732   5.039
   13DPPC   C15  615   0.810   1.731   5.061
   13DPPC   O16  616   0.766   1.717   5.175
   13DPPC   C17  617   0.719   1.731   4.937
   13DPPC   C18  618   0.701   1.591   4.880
   13DPPC   C19  619   0.608   1.609   4.760
   13DPPC   C20  620   0.558   1.476   4.704
   13DPPC   C21  621   0.448   1.497   4.600
   13DPPC   C22  622   0.305   1.510   4.653
   13DPPC   C23  623   0.201   1.515   4.541
   13DPPC   C24  624   0.062   1.484   4.598
   13DPPC   C25  625  -0.032   1.510   4.480
   13DPPC   C26  626  -0.014   1.650   4.421
   13DPPC   C27  627  -0.106   1.648   4.298
   13DPPC   C28  628  -0.093   1.772   4.211
   13DPPC   C29  629  -0.227   1.795   4.140
   13DPPC   C30  630  -0.199   1.894   4.027
   13DPPC   C31  631  -0.154   2.031   4.077
   13DPPC   C32  632   1.179   1.730   5.115
   13DPPC   O33  633   1.237   1.622   5.042
   13DPPC   C34  634   1.349   1.657   4.973
   13DPPC   O35  635   1.424   1.744   5.015
   13DPPC   C36  636   1.387   1.562   4.858
   13DPPC   C37  637   1.313   1.602   4.730
   13DPPC   C38  638   1.182   1.524   4.717
   13DPPC   C39  639   1.107   1.556   4.588
   13DPPC   C40  640   0.975   1.478   4.580
   13DPPC   C41  641   0.896   1.516   4.455
   13DPPC   C42  642   0.776   1.421   4.450
   13DPPC   C43  643   0.742   1.409   4.302
   13DPPC   C44  644   0.619   1.319   4.290
   13DPPC   C45  645   0.646   1.180   4.348
   13DPPC   C46  646   0.723   1.090   4.251
   13DPPC   C47  647   0.741   0.955   4.322
   13DPPC   C48  648   0.796   0.850   4.226
   13DPPC   C49  649   0.802   0.705   4.276
   13DPPC   C50  650   0.878   0.692   4.408
   14DPPC    C1  651   8.468   3.425   5.790
   14DPPC    C2  652   8.431   3.593   5.959
   14DPPC    C3  653   8.644   3.520   5.902
   14DPPC    N4  654   8.513   3.554   5.844
   14DPPC    C5  655   8.514   3.669   5.752
   14DPPC    C6  656   8.585   3.656   5.618
   14DPPC    O7  657   8.723   3.620   5.632
   14DPPC    P8  658   8.767   3.527   5.508
   14DPPC    O9  659   8.663   3.421   5.508
   14DPPC   O10  660   8.911   3.494   5.509
   14DPPC   O11  661   8.752   3.649   5.404
   14DPPC   C12  662   8.680   3.601   5.289
   14DPPC   C13  663   8.554   3.685   5.268
   14DPPC   O14  664   8.470   3.625   5.168
   14DPPC   C15  665   8.371   3.544   5.213
   14DPPC   O16  666   8.348   3.536   5.334
   14DPPC   C17  667   8.296   3.467   5.105
   14DPPC   C18  668   8.387   3.361   5.043
   14DPPC   C19  669   8.336   3.294   4.915
   14DPPC   C20  670   8.332   3.390   4.796
   14DPPC   C21  671   8.280   3.336   4.663
   14DPPC   C22  672   8.256   3.447   4.561
   14DPPC   C23  673   8.384   3.527   4.535
   14DPPC   C24  674   8.359   3.636   4.430
   14DPPC   C25  675   8.305   3.569   4.304
   14DPPC   C26  676   8.312   3.674   4.193
   14DPPC   C27  677   8.282   3.621   4.053
   14DPPC   C28  678   8.268   3.726   3.941
   14DPPC   C29  679   8.167   3.833   3.981
   14DPPC   C30  680   8.138   3.904   3.849
   14DPPC   C31  681   8.273   3.954   3.797
   14DPPC   C32  682   8.608   3.817   5.214
   14DPPC   O33  683   8.720   3.812   5.125
   14DPPC   C34  684   8.758   3.936   5.084
   14DPPC   O35  685   8.709   4.035   5.138
   14DPPC   C36  686   8.879   3.935   4.991
   14DPPC   C37  687   8.885   3.819   4.891
   14DPPC   C38  688   8.789   3.855   4.778
   14DPPC   C39  689   8.829   3.774   4.655
   14DPPC   C40  690   8.807   3.623   4.668
   14DPPC   C41  691   8.876   3.553   4.550
   14DPPC   C42  692   8.824   3.410   4.529
   14DPPC   C43  693   8.873   3.347   4.399
   14DPPC   C44  694   8.783   3.238   4.340
   14DPPC   C45  695   8.853   3.109   4.298
   14DPPC   C46  696   8.757   3.032   4.207
   14DPPC   C47  697   8.828   2.900   4.177
   14DPPC   C48  698   8.872   2.893   4.031
   14DPPC   C49  699   8.952   2.765   4.001
   14DPPC   C50  700   8.979   2.734   3.854
   15DPPC    C1  701   5.264   8.182   5.222
   15DPPC    C2  702   5.437   8.295   5.096
   15DPPC    C3  703   5.208   8.375   5.140
   15DPPC    N4  704   5.328   8.311   5.194
   15DPPC    C5  705   5.356   8.371   5.325
   15DPPC    C6  706   5.435   8.286   5.423
   15DPPC    O7  707   5.574   8.276   5.393
   15DPPC    P8  708   5.639   8.142   5.453
   15DPPC    O9  709   5.548   8.036   5.405
   15DPPC   O10  710   5.640   8.185   5.595
   15DPPC   O11  711   5.779   8.155   5.374
   15DPPC   C12  712   5.733   8.141   5.240
   15DPPC   C13  713   5.843   8.197   5.149
   15DPPC   O14  714   5.806   8.214   5.011
   15DPPC   C15  715   5.890   8.278   4.925
   15DPPC   O16  716   5.975   8.350   4.976
   15DPPC   C17  717   5.829   8.306   4.787
   15DPPC   C18  718   5.831   8.455   4.753
   15DPPC   C19  719   5.758   8.536   4.861
   15DPPC   C20  720   5.762   8.685   4.825
   15DPPC   C21  721   5.908   8.729   4.809
   15DPPC   C22  722   5.924   8.876   4.769
   15DPPC   C23  723   5.857   8.897   4.633
   15DPPC   C24  724   5.890   9.041   4.594
   15DPPC   C25  725   5.821   9.073   4.461
   15DPPC   C26  726   5.669   9.074   4.475
   15DPPC   C27  727   5.620   9.116   4.336
   15DPPC   C28  728   5.471   9.149   4.341
   15DPPC   C29  729   5.437   9.228   4.214
   15DPPC   C30  730   5.291   9.267   4.194
   15DPPC   C31  731   5.248   9.352   4.313
   15DPPC   C32  732   5.967   8.111   5.172
   15DPPC   O33  733   5.974   7.991   5.095
   15DPPC   C34  734   6.078   7.906   5.118
   15DPPC   O35  735   6.155   7.930   5.211
   15DPPC   C36  736   6.079   7.781   5.031
   15DPPC   C37  737   6.043   7.652   5.106
   15DPPC   C38  738   6.027   7.530   5.016
   15DPPC   C39  739   5.943   7.567   4.893
   15DPPC   C40  740   5.893   7.449   4.810
   15DPPC   C41  741   6.001   7.346   4.778
   15DPPC   C42  742   5.922   7.235   4.709
   15DPPC   C43  743   6.003   7.153   4.609
   15DPPC   C44  744   5.907   7.056   4.540
   15DPPC   C45  745   5.991   6.960   4.455
   15DPPC   C46  746   6.032   7.037   4.330
   15DPPC   C47  747   5.921   7.098   4.244
   15DPPC   C48  748   5.976   7.168   4.120
   15DPPC   C49  749   5.867   7.233   4.035
   15DPPC   C50  750   5.808   7.349   4.114
   16DPPC    C1  751   9.219   0.907   5.291
   16DPPC    C2  752   9.165   0.910   5.531
   16DPPC    C3  753   9.044   0.767   5.368
   16DPPC    N4  754   9.170   0.831   5.407
   16DPPC    C5  755   9.261   0.717   5.423
   16DPPC    C6  756   9.242   0.625   5.545
   16DPPC    O7  757   9.303   0.496   5.543
   16DPPC    P8  758   9.202   0.389   5.608
   16DPPC    O9  759   9.144   0.471   5.717
   16DPPC   O10  760   9.263   0.258   5.638
   16DPPC   O11  761   9.112   0.366   5.477
   16DPPC   C12  762   9.193   0.298   5.381
   16DPPC   C13  763   9.159   0.338   5.237
   16DPPC   O14  764   9.221   0.459   5.192
   16DPPC   C15  765   9.345   0.447   5.136
   16DPPC   O16  766   9.420   0.360   5.178
   16DPPC   C17  767   9.406   0.558   5.050
   16DPPC   C18  768   9.327   0.688   5.035
   16DPPC   C19  769   9.363   0.760   4.904
   16DPPC   C20  770   9.280   0.700   4.791
   16DPPC   C21  771   9.133   0.717   4.831
   16DPPC   C22  772   9.031   0.659   4.733
   16DPPC   C23  773   9.003   0.745   4.609
   16DPPC   C24  774   8.898   0.669   4.528
   16DPPC   C25  775   8.821   0.727   4.409
   16DPPC   C26  776   8.759   0.616   4.324
   16DPPC   C27  777   8.699   0.683   4.199
   16DPPC   C28  778   8.570   0.605   4.174
   16DPPC   C29  779   8.488   0.634   4.048
   16DPPC   C30  780   8.574   0.582   3.932
   16DPPC   C31  781   8.519   0.608   3.791
   16DPPC   C32  782   9.006   0.345   5.234
   16DPPC   O33  783   8.947   0.215   5.237
   16DPPC   C34  784   8.814   0.208   5.210
   16DPPC   O35  785   8.741   0.283   5.275
   16DPPC   C36  786   8.767   0.066   5.176
   16DPPC   C37  787   8.716   0.082   5.033
   16DPPC   C38  788   8.741  -0.050   4.960
   16DPPC   C39  789   8.721  -0.043   4.808
   16DPPC   C40  790   8.786  -0.161   4.735
   16DPPC   C41  791   8.767  -0.156   4.583
   16DPPC   C42  792   8.623  -0.189   4.542
   16DPPC   C43  793   8.626  -0.219   4.392
   16DPPC   C44  794   8.497  -0.300   4.377
   16DPPC   C45  795   8.457  -0.326   4.231
   16DPPC   C46  796   8.316  -0.381   4.253
   16DPPC   C47  797   8.238  -0.426   4.129
   16DPPC   C48  798   8.108  -0.474   4.195
   16DPPC   C49  799   8.013  -0.548   4.101
   16DPPC   C50  800   7.894  -0.610   4.174
   17DPPC    C1  801   1.569   0.612   5.576
   17DPPC    C2  802   1.628   0.615   5.353
   17DPPC    C3  803   1.492   0.448   5.426
   17DPPC    N4  804   1.513   0.592   5.441
   17DPPC    C5  805   1.394   0.671   5.407
   17DPPC    C6  806   1.422   0.821   5.396
   17DPPC    O7  807   1.304   0.901   5.393
   17DPPC    P8  808   1.323   1.061   5.389
   17DPPC    O9  809   1.468   1.076   5.411
   17DPPC   O10  810   1.219   1.112   5.481
   17DPPC   O11  811   1.286   1.074   5.233
   17DPPC   C12  812   1.407   1.131   5.182
   17DPPC   C13  813   1.382   1.170   5.036
   17DPPC   O14  814   1.489   1.240   4.971
   17DPPC   C15  815   1.576   1.159   4.905
   17DPPC   O16  816   1.540   1.045   4.877
   17DPPC   C17  817   1.705   1.221   4.849
   17DPPC   C18  818   1.727   1.355   4.920
   17DPPC   C19  819   1.813   1.448   4.834
   17DPPC   C20  820   1.931   1.370   4.776
   17DPPC   C21  821   2.011   1.471   4.694
   17DPPC   C22  822   2.144   1.406   4.656
   17DPPC   C23  823   2.231   1.514   4.592
   17DPPC   C24  824   2.365   1.457   4.545
   17DPPC   C25  825   2.336   1.359   4.431
   17DPPC   C26  826   2.450   1.279   4.368
   17DPPC   C27  827   2.393   1.203   4.248
   17DPPC   C28  828   2.493   1.094   4.209
   17DPPC   C29  829   2.438   1.008   4.095
   17DPPC   C30  830   2.435   1.079   3.959
   17DPPC   C31  831   2.403   0.978   3.849
   17DPPC   C32  832   1.254   1.254   5.034
   17DPPC   O33  833   1.169   1.251   4.918
   17DPPC   C34  834   1.100   1.142   4.876
   17DPPC   O35  835   1.125   1.031   4.923
   17DPPC   C36  836   1.040   1.148   4.736
   17DPPC   C37  837   1.130   1.080   4.633
   17DPPC   C38  838   1.042   1.012   4.529
   17DPPC   C39  839   1.119   0.967   4.404
   17DPPC   C40  840   1.152   1.094   4.326
   17DPPC   C41  841   1.210   1.057   4.189
   17DPPC   C42  842   1.287   1.175   4.129
   17DPPC   C43  843   1.352   1.164   3.991
   17DPPC   C44  844   1.421   1.293   3.946
   17DPPC   C45  845   1.472   1.279   3.802
   17DPPC   C46  846   1.519   1.415   3.748
   17DPPC   C47  847   1.645   1.460   3.821
   17DPPC   C48  848   1.697   1.599   3.783
   17DPPC   C49  849   1.817   1.656   3.859
   17DPPC   C50  850   1.830   1.806   3.830
   18DPPC    C1  851   1.891   7.217   5.703
   18DPPC    C2  852   1.961   7.016   5.778
   18DPPC    C3  853   1.748   7.029   5.662
   18DPPC    N4  854   1.888   7.075   5.665
   18DPPC    C5  855   1.954   7.070   5.534
   18DPPC    C6  856   1.983   6.927   5.488
   18DPPC    O7  857   2.053   6.924   5.364
   18DPPC    P8  858   2.052   6.775   5.302
   18DPPC    O9  859   1.914   6.732   5.333
   18DPPC   O10  860   2.166   6.694   5.350
   18DPPC   O11  861   2.063   6.799   5.143
   18DPPC   C12  862   2.106   6.681   5.076
   18DPPC   C13  863   2.129   6.692   4.925
   18DPPC   O14  864   2.132   6.568   4.853
   18DPPC   C15  865   2.015   6.506   4.823
   18DPPC   O16  866   1.912   6.508   4.890
   18DPPC   C17  867   2.024   6.384   4.732
   18DPPC   C18  868   1.902   6.381   4.639
   18DPPC   C19  869   1.945   6.320   4.505
   18DPPC   C20  870   1.822   6.302   4.416
   18DPPC   C21  871   1.851   6.216   4.292
   18DPPC   C22  872   1.720   6.205   4.215
   18DPPC   C23  873   1.741   6.112   4.095
   18DPPC   C24  874   1.612   6.112   4.013
   18DPPC   C25  875   1.480   6.082   4.086
   18DPPC   C26  876   1.462   5.939   4.137
   18DPPC   C27  877   1.339   5.948   4.228
   18DPPC   C28  878   1.213   5.985   4.150
   18DPPC   C29  879   1.165   5.881   4.049
   18DPPC   C30  880   1.035   5.921   3.980
   18DPPC   C31  881   1.004   5.801   3.889
   18DPPC   C32  882   2.246   6.789   4.909
   18DPPC   O33  883   2.278   6.819   4.772
   18DPPC   C34  884   2.408   6.853   4.751
   18DPPC   O35  885   2.485   6.857   4.846
   18DPPC   C36  886   2.432   6.883   4.602
   18DPPC   C37  887   2.485   6.759   4.529
   18DPPC   C38  888   2.507   6.800   4.383
   18DPPC   C39  889   2.587   6.702   4.296
   18DPPC   C40  890   2.731   6.679   4.340
   18DPPC   C41  891   2.797   6.585   4.239
   18DPPC   C42  892   2.882   6.475   4.302
   18DPPC   C43  893   2.949   6.395   4.190
   18DPPC   C44  894   2.996   6.258   4.238
   18DPPC   C45  895   3.110   6.279   4.337
   18DPPC   C46  896   3.156   6.165   4.428
   18DPPC   C47  897   3.263   6.213   4.526
   18DPPC   C48  898   3.202   6.301   4.636
   18DPPC   C49  899   3.318   6.340   4.728
   18DPPC   C50  900   3.278   6.420   4.852
   19DPPC    C1  901   2.618   5.762   5.838
   19DPPC    C2  902   2.405   5.814   5.780
   19DPPC    C3  903   2.576   5.822   5.609
   19DPPC    N4  904   2.524   5.749   5.726
   19DPPC    C5  905   2.485   5.612   5.689
   19DPPC    C6  906   2.590   5.508   5.651
   19DPPC    O7  907   2.663   5.530   5.530
   19DPPC    P8  908   2.793   5.435   5.528
   19DPPC    O9  909   2.832   5.431   5.671
   19DPPC   O10  910   2.874   5.496   5.420
   19DPPC   O11  911   2.726   5.308   5.456
   19DPPC   C12  912   2.764   5.291   5.319
   19DPPC   C13  913   2.682   5.175   5.262
   19DPPC   O14  914   2.757   5.094   5.171
   19DPPC   C15  915   2.722   4.962   5.172
   19DPPC   O16  916   2.646   4.908   5.252
   19DPPC   C17  917   2.796   4.877   5.068
   19DPPC   C18  918   2.929   4.815   5.112
   19DPPC   C19  919   2.990   4.747   4.990
   19DPPC   C20  920   2.909   4.621   4.961
   19DPPC   C21  921   2.973   4.544   4.845
   19DPPC   C22  922   2.891   4.419   4.811
   19DPPC   C23  923   2.958   4.362   4.686
   19DPPC   C24  924   3.101   4.310   4.700
   19DPPC   C25  925   3.160   4.270   4.565
   19DPPC   C26  926   3.129   4.379   4.462
   19DPPC   C27  927   3.192   4.335   4.329
   19DPPC   C28  928   3.140   4.424   4.217
   19DPPC   C29  929   3.208   4.390   4.084
   19DPPC   C30  930   3.130   4.439   3.963
   19DPPC   C31  931   3.125   4.591   3.976
   19DPPC   C32  932   2.542   5.227   5.227
   19DPPC   O33  933   2.548   5.326   5.125
   19DPPC   C34  934   2.438   5.356   5.050
   19DPPC   O35  935   2.332   5.298   5.073
   19DPPC   C36  936   2.448   5.460   4.938
   19DPPC   C37  937   2.340   5.427   4.835
   19DPPC   C38  938   2.374   5.473   4.693
   19DPPC   C39  939   2.267   5.469   4.584
   19DPPC   C40  940   2.305   5.553   4.462
   19DPPC   C41  941   2.207   5.576   4.347
   19DPPC   C42  942   2.262   5.678   4.247
   19DPPC   C43  943   2.408   5.638   4.223
   19DPPC   C44  944   2.471   5.728   4.117
   19DPPC   C45  945   2.615   5.677   4.103
   19DPPC   C46  946   2.675   5.737   3.976
   19DPPC   C47  947   2.826   5.711   3.965
   19DPPC   C48  948   2.895   5.765   4.090
   19DPPC   C49  949   3.048   5.770   4.074
   19DPPC   C50  950   3.123   5.814   4.200
   20DPPC    C1  951   6.768   5.505   5.261
   20DPPC    C2  952   6.585   5.463   5.120
   20DPPC    C3  953   6.570   5.374   5.329
   20DPPC    N4  954   6.622   5.492   5.259
   20DPPC    C5  955   6.543   5.607   5.308
   20DPPC    C6  956   6.614   5.727   5.369
   20DPPC    O7  957   6.690   5.811   5.281
   20DPPC    P8  958   6.774   5.920   5.362
   20DPPC    O9  959   6.852   5.823   5.442
   20DPPC   O10  960   6.681   6.019   5.421
   20DPPC   O11  961   6.872   5.999   5.261
   20DPPC   C12  962   6.969   5.902   5.222
   20DPPC   C13  963   7.097   5.950   5.152
   20DPPC   O14  964   7.085   6.036   5.038
   20DPPC   C15  965   7.086   6.172   5.026
   20DPPC   O16  966   7.126   6.236   5.122
   20DPPC   C17  967   7.062   6.237   4.889
   20DPPC   C18  968   7.137   6.366   4.853
   20DPPC   C19  969   7.082   6.407   4.716
   20DPPC   C20  970   6.931   6.430   4.729
   20DPPC   C21  971   6.880   6.474   4.592
   20DPPC   C22  972   6.955   6.597   4.540
   20DPPC   C23  973   6.945   6.615   4.388
   20DPPC   C24  974   7.031   6.725   4.326
   20DPPC   C25  975   7.038   6.699   4.175
   20DPPC   C26  976   7.119   6.794   4.086
   20DPPC   C27  977   7.266   6.782   4.128
   20DPPC   C28  978   7.355   6.874   4.046
   20DPPC   C29  979   7.504   6.839   4.047
   20DPPC   C30  980   7.593   6.924   3.956
   20DPPC   C31  981   7.733   6.862   3.956
   20DPPC   C32  982   7.183   5.826   5.130
   20DPPC   O33  983   7.108   5.715   5.082
   20DPPC   C34  984   7.166   5.592   5.082
   20DPPC   O35  985   7.266   5.561   5.147
   20DPPC   C36  986   7.110   5.504   4.970
   20DPPC   C37  987   7.225   5.434   4.898
   20DPPC   C38  988   7.170   5.374   4.768
   20DPPC   C39  989   7.271   5.297   4.682
   20DPPC   C40  990   7.227   5.278   4.537
   20DPPC   C41  991   7.331   5.216   4.443
   20DPPC   C42  992   7.251   5.206   4.313
   20DPPC   C43  993   7.342   5.150   4.203
   20DPPC   C44  994   7.260   5.093   4.087
   20DPPC   C45  995   7.349   5.020   3.987
   20DPPC   C46  996   7.262   4.972   3.871
   20DPPC   C47  997   7.192   5.084   3.794
   20DPPC   C48  998   7.096   5.023   3.692
   20DPPC   C49  999   7.003   5.119   3.618
   20DPPC   C50 1000   7.084   5.207   3.522
   21DPPC    C1 1001   3.223   2.262   6.404
   21DPPC    C2 1002   3.388   2.211   6.237
   21DPPC    C3 1003   3.433   2.156   6.457
   21DPPC    N4 1004   3.323   2.164   6.360
   21DPPC    C5 1005   3.273   2.026   6.350
   21DPPC    C6 1006   3.136   2.000   6.285
   21DPPC    O7 1007   3.132   2.013   6.143
   21DPPC    P8 1008   2.985   2.049   6.086
   21DPPC    O9 1009   2.916   2.140   6.179
   21DPPC   O10 1010   2.944   1.914   6.042
   21DPPC   O11 1011   3.032   2.122   5.950
   21DPPC   C12 1012   3.041   2.018   5.853
   21DPPC   C13 1013   3.039   2.076   5.711
   21DPPC   O14 1014   3.027   1.982   5.603
   21DPPC   C15 1015   2.901   1.946   5.570
   21DPPC   O16 1016   2.811   1.938   5.655
   21DPPC   C17 1017   2.896   1.880   5.432
   21DPPC   C18 1018   2.992   1.957   5.340
   21DPPC   C19 1019   2.961   1.924   5.194
   21DPPC   C20 1020   3.033   2.025   5.105
   21DPPC   C21 1021   2.971   2.005   4.967
   21DPPC   C22 1022   3.029   2.104   4.865
   21DPPC   C23 1023   2.975   2.078   4.724
   21DPPC   C24 1024   3.059   2.140   4.613
   21DPPC   C25 1025   2.972   2.145   4.487
   21DPPC   C26 1026   3.047   2.186   4.360
   21DPPC   C27 1027   2.966   2.174   4.231
   21DPPC   C28 1028   3.055   2.208   4.112
   21DPPC   C29 1029   2.987   2.193   3.976
   21DPPC   C30 1030   3.098   2.156   3.878
   21DPPC   C31 1031   3.064   2.164   3.729
   21DPPC   C32 1032   3.167   2.159   5.706
   21DPPC   O33 1033   3.196   2.242   5.593
   21DPPC   C34 1034   3.128   2.358   5.571
   21DPPC   O35 1035   3.032   2.393   5.640
   21DPPC   C36 1036   3.168   2.434   5.444
   21DPPC   C37 1037   3.086   2.399   5.320
   21DPPC   C38 1038   3.133   2.486   5.204
   21DPPC   C39 1039   3.050   2.449   5.080
   21DPPC   C40 1040   3.081   2.532   4.956
   21DPPC   C41 1041   2.995   2.491   4.836
   21DPPC   C42 1042   3.048   2.549   4.705
   21DPPC   C43 1043   3.200   2.546   4.686
   21DPPC   C44 1044   3.254   2.631   4.571
   21DPPC   C45 1045   3.207   2.578   4.435
   21DPPC   C46 1046   3.237   2.670   4.316
   21DPPC   C47 1047   3.194   2.610   4.183
   21DPPC   C48 1048   3.248   2.697   4.069
   21DPPC   C49 1049   3.177   2.646   3.944
   21DPPC   C50 1050   3.185   2.744   3.827
   22DPPC    C1 1051   1.644   2.057   5.787
   22DPPC    C2 1052   1.828   2.151   5.667
   22DPPC    C3 1053   1.863   2.046   5.886
   22DPPC    N4 1054   1.787   2.044   5.759
   22DPPC    C5 1055   1.803   1.918   5.686
   22DPPC    C6 1056   1.930   1.886   5.606
   22DPPC    O7 1057   1.918   1.767   5.528
   22DPPC    P8 1058   2.065   1.731   5.472
   22DPPC    O9 1059   2.054   1.607   5.392
   22DPPC   O10 1060   2.159   1.743   5.585
   22DPPC   O11 1061   2.069   1.862   5.378
   22DPPC   C12 1062   2.015   1.840   5.247
   22DPPC   C13 1063   1.997   1.975   5.179
   22DPPC   O14 1064   1.937   1.965   5.048
   22DPPC   C15 1065   1.803   1.948   5.041
   22DPPC   O16 1066   1.735   1.934   5.143
   22DPPC   C17 1067   1.743   1.952   4.900
   22DPPC   C18 1068   1.804   1.847   4.808
   22DPPC   C19 1069   1.739   1.851   4.670
   22DPPC   C20 1070   1.781   1.738   4.576
   22DPPC   C21 1071   1.678   1.720   4.464
   22DPPC   C22 1072   1.699   1.591   4.383
   22DPPC   C23 1073   1.570   1.560   4.307
   22DPPC   C24 1074   1.525   1.669   4.209
   22DPPC   C25 1075   1.408   1.597   4.141
   22DPPC   C26 1076   1.358   1.697   4.037
   22DPPC   C27 1077   1.224   1.651   3.979
   22DPPC   C28 1078   1.122   1.621   4.088
   22DPPC   C29 1079   0.995   1.562   4.026
   22DPPC   C30 1080   1.020   1.431   3.951
   22DPPC   C31 1081   0.899   1.368   3.882
   22DPPC   C32 1082   2.129   2.053   5.185
   22DPPC   O33 1083   2.245   1.979   5.149
   22DPPC   C34 1084   2.356   2.056   5.139
   22DPPC   O35 1085   2.339   2.178   5.144
   22DPPC   C36 1086   2.477   2.002   5.063
   22DPPC   C37 1087   2.447   1.887   4.967
   22DPPC   C38 1088   2.550   1.900   4.855
   22DPPC   C39 1089   2.526   1.804   4.738
   22DPPC   C40 1090   2.608   1.847   4.617
   22DPPC   C41 1091   2.580   1.767   4.489
   22DPPC   C42 1092   2.665   1.807   4.369
   22DPPC   C43 1093   2.628   1.735   4.239
   22DPPC   C44 1094   2.727   1.791   4.137
   22DPPC   C45 1095   2.703   1.739   3.995
   22DPPC   C46 1096   2.762   1.823   3.881
   22DPPC   C47 1097   2.724   1.763   3.745
   22DPPC   C48 1098   2.797   1.634   3.706
   22DPPC   C49 1099   2.772   1.579   3.565
   22DPPC   C50 1100   2.808   1.682   3.457
   23DPPC    C1 1101   1.402   7.359   5.269
   23DPPC    C2 1102   1.497   7.161   5.331
   23DPPC    C3 1103   1.348   7.145   5.158
   23DPPC    N4 1104   1.452   7.233   5.211
   23DPPC    C5 1105   1.564   7.245   5.117
   23DPPC    C6 1106   1.560   7.320   4.983
   23DPPC    O7 1107   1.483   7.273   4.872
   23DPPC    P8 1108   1.419   7.395   4.788
   23DPPC    O9 1109   1.464   7.523   4.849
   23DPPC   O10 1110   1.279   7.361   4.759
   23DPPC   O11 1111   1.509   7.369   4.658
   23DPPC   C12 1112   1.463   7.250   4.593
   23DPPC   C13 1113   1.491   7.240   4.443
   23DPPC   O14 1114   1.631   7.243   4.415
   23DPPC   C15 1115   1.676   7.133   4.348
   23DPPC   O16 1116   1.611   7.029   4.352
   23DPPC   C17 1117   1.821   7.157   4.303
   23DPPC   C18 1118   1.837   7.251   4.184
   23DPPC   C19 1119   1.975   7.313   4.167
   23DPPC   C20 1120   1.981   7.429   4.068
   23DPPC   C21 1121   1.963   7.562   4.142
   23DPPC   C22 1122   1.950   7.660   4.026
   23DPPC   C23 1123   1.924   7.804   4.071
   23DPPC   C24 1124   1.901   7.902   3.956
   23DPPC   C25 1125   1.874   8.037   4.022
   23DPPC   C26 1126   1.881   8.152   3.920
   23DPPC   C27 1127   1.836   8.292   3.962
   23DPPC   C28 1128   1.685   8.288   3.983
   23DPPC   C29 1129   1.632   8.272   3.841
   23DPPC   C30 1130   1.481   8.248   3.852
   23DPPC   C31 1131   1.420   8.240   3.711
   23DPPC   C32 1132   1.419   7.365   4.391
   23DPPC   O33 1133   1.449   7.390   4.254
   23DPPC   C34 1134   1.389   7.493   4.189
   23DPPC   O35 1135   1.310   7.562   4.252
   23DPPC   C36 1136   1.441   7.519   4.047
   23DPPC   C37 1137   1.555   7.621   4.044
   23DPPC   C38 1138   1.609   7.642   3.902
   23DPPC   C39 1139   1.666   7.509   3.853
   23DPPC   C40 1140   1.696   7.526   3.704
   23DPPC   C41 1141   1.749   7.400   3.635
   23DPPC   C42 1142   1.633   7.303   3.610
   23DPPC   C43 1143   1.670   7.155   3.619
   23DPPC   C44 1144   1.558   7.071   3.558
   23DPPC   C45 1145   1.531   7.128   3.418
   23DPPC   C46 1146   1.429   7.035   3.353
   23DPPC   C47 1147   1.399   7.073   3.207
   23DPPC   C48 1148   1.310   6.983   3.122
   23DPPC   C49 1149   1.177   6.943   3.186
   23DPPC   C50 1150   1.061   6.990   3.099
   24DPPC    C1 1151   3.207   5.411   5.391
   24DPPC    C2 1152   3.367   5.448   5.560
   24DPPC    C3 1153   3.210   5.614   5.513
   24DPPC    N4 1154   3.225   5.469   5.525
   24DPPC    C5 1155   3.142   5.408   5.630
   24DPPC    C6 1156   3.157   5.258   5.655
   24DPPC    O7 1157   3.059   5.181   5.584
   24DPPC    P8 1158   3.095   5.027   5.613
   24DPPC    O9 1159   2.989   4.949   5.545
   24DPPC   O10 1160   3.129   5.023   5.757
   24DPPC   O11 1161   3.234   5.012   5.534
   24DPPC   C12 1162   3.196   4.991   5.397
   24DPPC   C13 1163   3.315   4.985   5.301
   24DPPC   O14 1164   3.256   4.998   5.171
   24DPPC   C15 1165   3.228   5.119   5.116
   24DPPC   O16 1166   3.286   5.221   5.153
   24DPPC   C17 1167   3.160   5.112   4.979
   24DPPC   C18 1168   3.253   5.155   4.866
   24DPPC   C19 1169   3.350   5.047   4.818
   24DPPC   C20 1170   3.492   5.106   4.826
   24DPPC   C21 1171   3.579   5.009   4.745
   24DPPC   C22 1172   3.721   5.057   4.715
   24DPPC   C23 1173   3.784   4.971   4.606
   24DPPC   C24 1174   3.922   5.018   4.562
   24DPPC   C25 1175   3.979   4.957   4.433
   24DPPC   C26 1176   4.106   5.035   4.400
   24DPPC   C27 1177   4.169   4.989   4.268
   24DPPC   C28 1178   4.276   5.091   4.230
   24DPPC   C29 1179   4.372   5.032   4.126
   24DPPC   C30 1180   4.485   5.129   4.093
   24DPPC   C31 1181   4.586   5.174   4.199
   24DPPC   C32 1182   3.368   4.844   5.322
   24DPPC   O33 1183   3.280   4.732   5.314
   24DPPC   C34 1184   3.333   4.607   5.323
   24DPPC   O35 1185   3.448   4.593   5.364
   24DPPC   C36 1186   3.257   4.487   5.267
   24DPPC   C37 1187   3.313   4.439   5.133
   24DPPC   C38 1188   3.307   4.548   5.026
   24DPPC   C39 1189   3.356   4.498   4.890
   24DPPC   C40 1190   3.394   4.610   4.792
   24DPPC   C41 1191   3.416   4.553   4.652
   24DPPC   C42 1192   3.480   4.660   4.564
   24DPPC   C43 1193   3.533   4.605   4.431
   24DPPC   C44 1194   3.618   4.713   4.365
   24DPPC   C45 1195   3.692   4.681   4.234
   24DPPC   C46 1196   3.788   4.790   4.187
   24DPPC   C47 1197   3.883   4.735   4.080
   24DPPC   C48 1198   3.944   4.839   3.986
   24DPPC   C49 1199   4.017   4.778   3.866
   24DPPC   C50 1200   4.105   4.666   3.921
   25DPPC    C1 1201   3.936   5.440   5.513
   25DPPC    C2 1202   3.889   5.602   5.346
   25DPPC    C3 1203   3.746   5.410   5.401
   25DPPC    N4 1204   3.829   5.520   5.452
   25DPPC    C5 1205   3.774   5.597   5.565
   25DPPC    C6 1206   3.708   5.732   5.534
   25DPPC    O7 1207   3.595   5.711   5.448
   25DPPC    P8 1208   3.499   5.836   5.419
   25DPPC    O9 1209   3.600   5.923   5.354
   25DPPC   O10 1210   3.420   5.885   5.535
   25DPPC   O11 1211   3.410   5.753   5.314
   25DPPC   C12 1212   3.504   5.719   5.212
   25DPPC   C13 1213   3.465   5.659   5.077
   25DPPC   O14 1214   3.570   5.595   5.003
   25DPPC   C15 1215   3.627   5.476   5.036
   25DPPC   O16 1216   3.603   5.427   5.146
   25DPPC   C17 1217   3.717   5.412   4.930
   25DPPC   C18 1218   3.794   5.524   4.861
   25DPPC   C19 1219   3.829   5.465   4.724
   25DPPC   C20 1220   3.942   5.362   4.734
   25DPPC   C21 1221   4.087   5.411   4.743
   25DPPC   C22 1222   4.182   5.303   4.692
   25DPPC   C23 1223   4.316   5.325   4.763
   25DPPC   C24 1224   4.433   5.254   4.696
   25DPPC   C25 1225   4.556   5.230   4.784
   25DPPC   C26 1226   4.674   5.205   4.690
   25DPPC   C27 1227   4.771   5.323   4.684
   25DPPC   C28 1228   4.888   5.277   4.597
   25DPPC   C29 1229   4.971   5.403   4.570
   25DPPC   C30 1230   5.069   5.354   4.463
   25DPPC   C31 1231   4.998   5.285   4.347
   25DPPC   C32 1232   3.404   5.781   5.007
   25DPPC   O33 1233   3.496   5.889   4.990
   25DPPC   C34 1234   3.439   6.003   4.941
   25DPPC   O35 1235   3.325   6.039   4.971
   25DPPC   C36 1236   3.542   6.105   4.894
   25DPPC   C37 1237   3.557   6.090   4.743
   25DPPC   C38 1238   3.655   5.976   4.710
   25DPPC   C39 1239   3.715   5.979   4.569
   25DPPC   C40 1240   3.621   5.918   4.465
   25DPPC   C41 1241   3.678   5.914   4.323
   25DPPC   C42 1242   3.808   5.835   4.315
   25DPPC   C43 1243   3.802   5.687   4.353
   25DPPC   C44 1244   3.921   5.596   4.322
   25DPPC   C45 1245   3.940   5.569   4.173
   25DPPC   C46 1246   4.059   5.483   4.130
   25DPPC   C47 1247   4.044   5.423   3.990
   25DPPC   C48 1248   4.161   5.335   3.945
   25DPPC   C49 1249   4.130   5.251   3.821
   25DPPC   C50 1250   4.261   5.184   3.778
   26DPPC    C1 1251   3.625   2.707   6.050
   26DPPC    C2 1252   3.620   2.558   5.876
   26DPPC    C3 1253   3.619   2.775   5.815
   26DPPC    N4 1254   3.680   2.686   5.914
   26DPPC    C5 1255   3.825   2.677   5.897
   26DPPC    C6 1256   3.901   2.806   5.931
   26DPPC    O7 1257   3.914   2.901   5.824
   26DPPC    P8 1258   3.972   3.036   5.889
   26DPPC    O9 1259   3.942   3.032   6.034
   26DPPC   O10 1260   3.973   3.162   5.811
   26DPPC   O11 1261   4.123   2.979   5.890
   26DPPC   C12 1262   4.210   3.030   5.789
   26DPPC   C13 1263   4.347   2.963   5.791
   26DPPC   O14 1264   4.423   2.998   5.674
   26DPPC   C15 1265   4.490   3.114   5.652
   26DPPC   O16 1266   4.474   3.200   5.738
   26DPPC   C17 1267   4.536   3.144   5.509
   26DPPC   C18 1268   4.686   3.174   5.513
   26DPPC   C19 1269   4.739   3.197   5.371
   26DPPC   C20 1270   4.887   3.234   5.359
   26DPPC   C21 1271   4.914   3.223   5.208
   26DPPC   C22 1272   4.912   3.076   5.166
   26DPPC   C23 1273   4.925   3.075   5.014
   26DPPC   C24 1274   4.895   2.945   4.938
   26DPPC   C25 1275   4.927   2.945   4.788
   26DPPC   C26 1276   4.890   2.813   4.720
   26DPPC   C27 1277   4.904   2.823   4.568
   26DPPC   C28 1278   4.865   2.704   4.480
   26DPPC   C29 1279   4.852   2.750   4.335
   26DPPC   C30 1280   4.827   2.629   4.245
   26DPPC   C31 1281   4.848   2.655   4.096
   26DPPC   C32 1282   4.314   2.814   5.791
   26DPPC   O33 1283   4.227   2.770   5.687
   26DPPC   C34 1284   4.171   2.646   5.699
   26DPPC   O35 1285   4.174   2.603   5.814
   26DPPC   C36 1286   4.095   2.601   5.574
   26DPPC   C37 1287   4.176   2.514   5.477
   26DPPC   C38 1288   4.091   2.489   5.353
   26DPPC   C39 1289   4.045   2.621   5.292
   26DPPC   C40 1290   4.026   2.590   5.143
   26DPPC   C41 1291   3.998   2.718   5.064
   26DPPC   C42 1292   4.001   2.685   4.915
   26DPPC   C43 1293   4.003   2.817   4.839
   26DPPC   C44 1294   4.143   2.877   4.843
   26DPPC   C45 1295   4.141   3.000   4.753
   26DPPC   C46 1296   4.088   2.962   4.614
   26DPPC   C47 1297   4.044   3.076   4.522
   26DPPC   C48 1298   3.992   3.039   4.383
   26DPPC   C49 1299   3.962   3.156   4.288
   26DPPC   C50 1300   3.873   3.265   4.349
   27DPPC    C1 1301   3.723   0.244   5.599
   27DPPC    C2 1302   3.611   0.430   5.528
   27DPPC    C3 1303   3.793   0.360   5.393
   27DPPC    N4 1304   3.682   0.311   5.475
   27DPPC    C5 1305   3.585   0.221   5.412
   27DPPC    C6 1306   3.629   0.082   5.366
   27DPPC    O7 1307   3.741   0.075   5.277
   27DPPC    P8 1308   3.790  -0.078   5.287
   27DPPC    O9 1309   3.680  -0.158   5.346
   27DPPC   O10 1310   3.927  -0.074   5.343
   27DPPC   O11 1311   3.797  -0.121   5.132
   27DPPC   C12 1312   3.906  -0.048   5.075
   27DPPC   C13 1313   3.901  -0.030   4.923
   27DPPC   O14 1314   3.831   0.090   4.888
   27DPPC   C15 1315   3.907   0.182   4.823
   27DPPC   O16 1316   4.021   0.206   4.864
   27DPPC   C17 1317   3.822   0.298   4.770
   27DPPC   C18 1318   3.883   0.366   4.647
   27DPPC   C19 1319   3.798   0.487   4.606
   27DPPC   C20 1320   3.865   0.546   4.482
   27DPPC   C21 1321   3.844   0.453   4.362
   27DPPC   C22 1322   3.953   0.475   4.256
   27DPPC   C23 1323   3.953   0.417   4.115
   27DPPC   C24 1324   4.054   0.487   4.024
   27DPPC   C25 1325   4.055   0.408   3.893
   27DPPC   C26 1326   4.136   0.283   3.926
   27DPPC   C27 1327   4.122   0.179   3.815
   27DPPC   C28 1328   4.193   0.045   3.833
   27DPPC   C29 1329   4.173  -0.069   3.732
   27DPPC   C30 1330   4.022  -0.070   3.708
   27DPPC   C31 1331   3.965  -0.209   3.737
   27DPPC   C32 1332   3.831  -0.155   4.870
   27DPPC   O33 1333   3.902  -0.278   4.878
   27DPPC   C34 1334   3.832  -0.392   4.853
   27DPPC   O35 1335   3.710  -0.408   4.845
   27DPPC   C36 1336   3.924  -0.514   4.844
   27DPPC   C37 1337   3.972  -0.562   4.707
   27DPPC   C38 1338   4.055  -0.452   4.641
   27DPPC   C39 1339   4.094  -0.499   4.501
   27DPPC   C40 1340   4.203  -0.398   4.462
   27DPPC   C41 1341   4.260  -0.437   4.325
   27DPPC   C42 1342   4.345  -0.321   4.272
   27DPPC   C43 1343   4.417  -0.361   4.143
   27DPPC   C44 1344   4.514  -0.253   4.094
   27DPPC   C45 1345   4.573  -0.308   3.963
   27DPPC   C46 1346   4.471  -0.295   3.850
   27DPPC   C47 1347   4.538  -0.350   3.724
   27DPPC   C48 1348   4.453  -0.349   3.597
   27DPPC   C49 1349   4.561  -0.397   3.501
   27DPPC   C50 1350   4.580  -0.549   3.489
   28DPPC    C1 1351   8.696   2.528   5.679
   28DPPC    C2 1352   8.754   2.530   5.908
   28DPPC    C3 1353   8.702   2.734   5.797
   28DPPC    N4 1354   8.666   2.592   5.808
   28DPPC    C5 1355   8.536   2.538   5.851
   28DPPC    C6 1356   8.411   2.602   5.790
   28DPPC    O7 1357   8.364   2.695   5.888
   28DPPC    P8 1358   8.237   2.783   5.843
   28DPPC    O9 1359   8.248   2.899   5.934
   28DPPC   O10 1360   8.131   2.680   5.849
   28DPPC   O11 1361   8.309   2.811   5.702
   28DPPC   C12 1362   8.213   2.836   5.599
   28DPPC   C13 1363   8.287   2.900   5.481
   28DPPC   O14 1364   8.202   2.959   5.381
   28DPPC   C15 1365   8.240   3.075   5.321
   28DPPC   O16 1366   8.356   3.114   5.336
   28DPPC   C17 1367   8.151   3.123   5.206
   28DPPC   C18 1368   8.011   3.162   5.254
   28DPPC   C19 1369   7.903   3.165   5.146
   28DPPC   C20 1370   7.935   3.263   5.034
   28DPPC   C21 1371   7.847   3.238   4.911
   28DPPC   C22 1372   7.881   3.345   4.808
   28DPPC   C23 1373   7.796   3.306   4.687
   28DPPC   C24 1374   7.790   3.426   4.593
   28DPPC   C25 1375   7.737   3.389   4.454
   28DPPC   C26 1376   7.787   3.498   4.359
   28DPPC   C27 1377   7.720   3.488   4.222
   28DPPC   C28 1378   7.739   3.618   4.143
   28DPPC   C29 1379   7.627   3.631   4.040
   28DPPC   C30 1380   7.650   3.752   3.949
   28DPPC   C31 1381   7.542   3.747   3.840
   28DPPC   C32 1382   8.386   2.795   5.430
   28DPPC   O33 1383   8.322   2.674   5.391
   28DPPC   C34 1384   8.395   2.567   5.347
   28DPPC   O35 1385   8.510   2.552   5.388
   28DPPC   C36 1386   8.316   2.450   5.287
   28DPPC   C37 1387   8.290   2.471   5.138
   28DPPC   C38 1388   8.183   2.576   5.107
   28DPPC   C39 1389   8.166   2.586   4.956
   28DPPC   C40 1390   8.076   2.704   4.918
   28DPPC   C41 1391   8.046   2.710   4.768
   28DPPC   C42 1392   7.976   2.844   4.744
   28DPPC   C43 1393   7.928   2.863   4.600
   28DPPC   C44 1394   7.999   2.982   4.536
   28DPPC   C45 1395   7.969   3.004   4.387
   28DPPC   C46 1396   8.022   3.138   4.334
   28DPPC   C47 1397   7.986   3.127   4.185
   28DPPC   C48 1398   8.017   3.263   4.123
   28DPPC   C49 1399   7.961   3.257   3.981
   28DPPC   C50 1400   7.999   3.374   3.890
   29DPPC    C1 1401   0.497   4.854   5.382
   29DPPC    C2 1402   0.434   4.765   5.182
   29DPPC    C3 1403   0.269   4.858   5.281
   29DPPC    N4 1404   0.413   4.884   5.266
   29DPPC    C5 1405   0.452   5.003   5.189
   29DPPC    C6 1406   0.430   5.136   5.261
   29DPPC    O7 1407   0.497   5.241   5.191
   29DPPC    P8 1408   0.445   5.385   5.242
   29DPPC    O9 1409   0.554   5.430   5.332
   29DPPC   O10 1410   0.315   5.354   5.305
   29DPPC   O11 1411   0.462   5.456   5.099
   29DPPC   C12 1412   0.373   5.404   5.000
   29DPPC   C13 1413   0.396   5.468   4.864
   29DPPC   O14 1414   0.293   5.430   4.771
   29DPPC   C15 1415   0.185   5.510   4.750
   29DPPC   O16 1416   0.163   5.610   4.818
   29DPPC   C17 1417   0.099   5.483   4.626
   29DPPC   C18 1418   0.176   5.522   4.500
   29DPPC   C19 1419   0.105   5.461   4.379
   29DPPC   C20 1420   0.203   5.446   4.262
   29DPPC   C21 1421   0.135   5.423   4.127
   29DPPC   C22 1422   0.019   5.518   4.096
   29DPPC   C23 1423  -0.069   5.492   3.974
   29DPPC   C24 1424  -0.150   5.612   3.925
   29DPPC   C25 1425  -0.211   5.610   3.785
   29DPPC   C26 1426  -0.333   5.519   3.769
   29DPPC   C27 1427  -0.414   5.530   3.640
   29DPPC   C28 1428  -0.538   5.440   3.629
   29DPPC   C29 1429  -0.606   5.460   3.494
   29DPPC   C30 1430  -0.665   5.601   3.504
   29DPPC   C31 1431  -0.746   5.646   3.382
   29DPPC   C32 1432   0.540   5.433   4.826
   29DPPC   O33 1433   0.578   5.295   4.822
   29DPPC   C34 1434   0.705   5.274   4.780
   29DPPC   O35 1435   0.769   5.369   4.733
   29DPPC   C36 1436   0.758   5.132   4.800
   29DPPC   C37 1437   0.842   5.095   4.678
   29DPPC   C38 1438   0.927   4.969   4.689
   29DPPC   C39 1439   1.016   4.951   4.566
   29DPPC   C40 1440   0.943   4.941   4.432
   29DPPC   C41 1441   1.039   4.906   4.318
   29DPPC   C42 1442   0.970   4.930   4.183
   29DPPC   C43 1443   1.060   4.917   4.060
   29DPPC   C44 1444   0.987   4.954   3.931
   29DPPC   C45 1445   1.068   4.930   3.803
   29DPPC   C46 1446   0.997   5.003   3.689
   29DPPC   C47 1447   1.067   4.977   3.556
   29DPPC   C48 1448   1.020   5.067   3.442
   29DPPC   C49 1449   1.114   5.056   3.322
   29DPPC   C50 1450   1.068   5.137   3.201
   30DPPC    C1 1451   6.783   1.967   6.263
   30DPPC    C2 1452   6.967   1.945   6.103
   30DPPC    C3 1453   6.771   2.020   6.020
   30DPPC    N4 1454   6.849   2.022   6.144
   30DPPC    C5 1455   6.903   2.157   6.168
   30DPPC    C6 1456   6.806   2.258   6.229
   30DPPC    O7 1457   6.862   2.390   6.237
   30DPPC    P8 1458   6.764   2.489   6.156
   30DPPC    O9 1459   6.811   2.627   6.179
   30DPPC   O10 1460   6.621   2.460   6.179
   30DPPC   O11 1461   6.793   2.454   6.002
   30DPPC   C12 1462   6.748   2.569   5.930
   30DPPC   C13 1463   6.824   2.574   5.798
   30DPPC   O14 1464   6.779   2.670   5.701
   30DPPC   C15 1465   6.857   2.781   5.690
   30DPPC   O16 1466   6.935   2.818   5.778
   30DPPC   C17 1467   6.830   2.868   5.566
   30DPPC   C18 1468   6.772   3.008   5.589
   30DPPC   C19 1469   6.753   3.094   5.465
   30DPPC   C20 1470   6.887   3.151   5.417
   30DPPC   C21 1471   6.875   3.221   5.281
   30DPPC   C22 1472   7.005   3.295   5.248
   30DPPC   C23 1473   6.978   3.386   5.128
   30DPPC   C24 1474   6.854   3.475   5.143
   30DPPC   C25 1475   6.860   3.561   5.017
   30DPPC   C26 1476   6.928   3.693   5.054
   30DPPC   C27 1477   6.961   3.767   4.924
   30DPPC   C28 1478   6.839   3.799   4.838
   30DPPC   C29 1479   6.760   3.903   4.917
   30DPPC   C30 1480   6.609   3.880   4.903
   30DPPC   C31 1481   6.573   3.896   4.756
   30DPPC   C32 1482   6.818   2.436   5.731
   30DPPC   O33 1483   6.896   2.411   5.614
   30DPPC   C34 1484   6.920   2.283   5.574
   30DPPC   O35 1485   6.829   2.212   5.616
   30DPPC   C36 1486   7.043   2.251   5.489
   30DPPC   C37 1487   7.012   2.225   5.342
   30DPPC   C38 1488   6.988   2.349   5.254
   30DPPC   C39 1489   6.989   2.310   5.106
   30DPPC   C40 1490   6.967   2.437   5.024
   30DPPC   C41 1491   6.933   2.392   4.882
   30DPPC   C42 1492   6.824   2.488   4.833
   30DPPC   C43 1493   6.794   2.496   4.683
   30DPPC   C44 1494   6.676   2.590   4.660
   30DPPC   C45 1495   6.662   2.619   4.510
   30DPPC   C46 1496   6.535   2.697   4.479
   30DPPC   C47 1497   6.520   2.815   4.575
   30DPPC   C48 1498   6.406   2.909   4.536
   30DPPC   C49 1499   6.414   3.032   4.628
   30DPPC   C50 1500   6.305   3.125   4.576
   31DPPC    C1 1501   5.956   7.132   5.391
   31DPPC    C2 1502   6.090   7.128   5.193
   31DPPC    C3 1503   6.175   7.154   5.421
   31DPPC    N4 1504   6.082   7.082   5.333
   31DPPC    C5 1505   6.094   6.939   5.365
   31DPPC    C6 1506   6.030   6.834   5.275
   31DPPC    O7 1507   5.888   6.846   5.281
   31DPPC    P8 1508   5.806   6.768   5.395
   31DPPC    O9 1509   5.795   6.867   5.505
   31DPPC   O10 1510   5.889   6.649   5.425
   31DPPC   O11 1511   5.665   6.739   5.324
   31DPPC   C12 1512   5.694   6.672   5.201
   31DPPC   C13 1513   5.601   6.555   5.168
   31DPPC   O14 1514   5.640   6.472   5.057
   31DPPC   C15 1515   5.631   6.339   5.081
   31DPPC   O16 1516   5.660   6.305   5.196
   31DPPC   C17 1517   5.647   6.250   4.957
   31DPPC   C18 1518   5.511   6.222   4.894
   31DPPC   C19 1519   5.541   6.181   4.749
   31DPPC   C20 1520   5.421   6.174   4.655
   31DPPC   C21 1521   5.464   6.121   4.518
   31DPPC   C22 1522   5.334   6.089   4.444
   31DPPC   C23 1523   5.243   6.212   4.442
   31DPPC   C24 1524   5.132   6.187   4.341
   31DPPC   C25 1525   5.052   6.317   4.327
   31DPPC   C26 1526   4.979   6.308   4.193
   31DPPC   C27 1527   4.934   6.452   4.166
   31DPPC   C28 1528   4.829   6.487   4.272
   31DPPC   C29 1529   4.757   6.616   4.230
   31DPPC   C30 1530   4.641   6.639   4.326
   31DPPC   C31 1531   4.702   6.678   4.461
   31DPPC   C32 1532   5.461   6.616   5.167
   31DPPC   O33 1533   5.443   6.718   5.069
   31DPPC   C34 1534   5.333   6.798   5.073
   31DPPC   O35 1535   5.238   6.767   5.145
   31DPPC   C36 1536   5.341   6.917   4.978
   31DPPC   C37 1537   5.304   6.881   4.834
   31DPPC   C38 1538   5.320   7.007   4.749
   31DPPC   C39 1539   5.283   6.959   4.608
   31DPPC   C40 1540   5.304   7.062   4.497
   31DPPC   C41 1541   5.429   7.144   4.527
   31DPPC   C42 1542   5.451   7.248   4.417
   31DPPC   C43 1543   5.591   7.311   4.413
   31DPPC   C44 1544   5.621   7.410   4.525
   31DPPC   C45 1545   5.523   7.526   4.502
   31DPPC   C46 1546   5.544   7.626   4.616
   31DPPC   C47 1547   5.492   7.572   4.749
   31DPPC   C48 1548   5.347   7.525   4.738
   31DPPC   C49 1549   5.278   7.541   4.873
   31DPPC   C50 1550   5.146   7.463   4.878
   32DPPC    C1 1551   1.092   7.650   4.936
   32DPPC    C2 1552   0.975   7.855   4.918
   32DPPC    C3 1553   0.960   7.676   4.751
   32DPPC    N4 1554   0.965   7.710   4.894
   32DPPC    C5 1555   0.861   7.640   4.971
   32DPPC    C6 1556   0.729   7.711   4.999
   32DPPC    O7 1557   0.655   7.736   4.879
   32DPPC    P8 1558   0.543   7.850   4.900
   32DPPC    O9 1559   0.613   7.980   4.908
   32DPPC   O10 1560   0.441   7.810   4.999
   32DPPC   O11 1561   0.482   7.828   4.752
   32DPPC   C12 1562   0.578   7.867   4.655
   32DPPC   C13 1563   0.544   7.809   4.517
   32DPPC   O14 1564   0.641   7.827   4.412
   32DPPC   C15 1565   0.618   7.744   4.308
   32DPPC   O16 1566   0.563   7.637   4.333
   32DPPC   C17 1567   0.684   7.773   4.173
   32DPPC   C18 1568   0.797   7.675   4.144
   32DPPC   C19 1569   0.878   7.705   4.018
   32DPPC   C20 1570   1.028   7.712   4.046
   32DPPC   C21 1571   1.116   7.726   3.922
   32DPPC   C22 1572   1.094   7.608   3.827
   32DPPC   C23 1573   1.188   7.607   3.707
   32DPPC   C24 1574   1.160   7.500   3.601
   32DPPC   C25 1575   1.165   7.367   3.677
   32DPPC   C26 1576   1.140   7.258   3.573
   32DPPC   C27 1577   0.999   7.277   3.516
   32DPPC   C28 1578   0.961   7.162   3.422
   32DPPC   C29 1579   0.951   7.031   3.501
   32DPPC   C30 1580   0.819   7.026   3.578
   32DPPC   C31 1581   0.810   6.880   3.625
   32DPPC   C32 1582   0.403   7.857   4.482
   32DPPC   O33 1583   0.395   7.995   4.446
   32DPPC   C34 1584   0.268   8.037   4.421
   32DPPC   O35 1585   0.174   7.958   4.410
   32DPPC   C36 1586   0.248   8.188   4.404
   32DPPC   C37 1587   0.144   8.232   4.301
   32DPPC   C38 1588   0.157   8.381   4.271
   32DPPC   C39 1589   0.034   8.414   4.186
   32DPPC   C40 1590   0.041   8.558   4.133
   32DPPC   C41 1591  -0.015   8.572   3.991
   32DPPC   C42 1592  -0.020   8.716   3.942
   32DPPC   C43 1593  -0.039   8.727   3.790
   32DPPC   C44 1594  -0.174   8.678   3.739
   32DPPC   C45 1595  -0.164   8.695   3.588
   32DPPC   C46 1596  -0.294   8.668   3.511
   32DPPC   C47 1597  -0.272   8.683   3.360
   32DPPC   C48 1598  -0.397   8.643   3.280
   32DPPC   C49 1599  -0.379   8.624   3.130
   32DPPC   C50 1600  -0.269   8.518   3.118
   33DPPC    C1 1601   2.305   2.398   5.451
   33DPPC    C2 1602   2.186   2.586   5.408
   33DPPC    C3 1603   2.302   2.493   5.225
   33DPPC    N4 1604   2.224   2.459   5.345
   33DPPC    C5 1605   2.114   2.377   5.291
   33DPPC    C6 1606   2.001   2.329   5.382
   33DPPC    O7 1607   1.886   2.269   5.322
   33DPPC    P8 1608   1.762   2.368   5.294
   33DPPC    O9 1609   1.786   2.473   5.395
   33DPPC   O10 1610   1.644   2.279   5.291
   33DPPC   O11 1611   1.804   2.423   5.149
   33DPPC   C12 1612   1.760   2.335   5.045
   33DPPC   C13 1613   1.772   2.400   4.907
   33DPPC   O14 1614   1.697   2.329   4.806
   33DPPC   C15 1615   1.574   2.384   4.786
   33DPPC   O16 1616   1.551   2.490   4.843
   33DPPC   C17 1617   1.497   2.338   4.662
   33DPPC   C18 1618   1.419   2.449   4.590
   33DPPC   C19 1619   1.361   2.420   4.452
   33DPPC   C20 1620   1.280   2.539   4.401
   33DPPC   C21 1621   1.196   2.505   4.277
   33DPPC   C22 1622   1.095   2.392   4.297
   33DPPC   C23 1623   1.022   2.382   4.163
   33DPPC   C24 1624   1.117   2.337   4.052
   33DPPC   C25 1625   1.032   2.337   3.925
   33DPPC   C26 1626   1.105   2.251   3.822
   33DPPC   C27 1627   1.249   2.300   3.842
   33DPPC   C28 1628   1.341   2.228   3.743
   33DPPC   C29 1629   1.492   2.237   3.763
   33DPPC   C30 1630   1.564   2.153   3.656
   33DPPC   C31 1631   1.649   2.230   3.554
   33DPPC   C32 1632   1.923   2.409   4.885
   33DPPC   O33 1633   2.002   2.290   4.897
   33DPPC   C34 1634   2.137   2.304   4.888
   33DPPC   O35 1635   2.185   2.416   4.906
   33DPPC   C36 1636   2.234   2.197   4.838
   33DPPC   C37 1637   2.162   2.072   4.786
   33DPPC   C38 1638   2.143   2.080   4.634
   33DPPC   C39 1639   2.093   1.946   4.579
   33DPPC   C40 1640   2.088   1.949   4.427
   33DPPC   C41 1641   2.072   1.809   4.367
   33DPPC   C42 1642   2.065   1.826   4.215
   33DPPC   C43 1643   2.192   1.901   4.173
   33DPPC   C44 1644   2.208   1.900   4.020
   33DPPC   C45 1645   2.127   2.022   3.976
   33DPPC   C46 1646   2.161   2.059   3.831
   33DPPC   C47 1647   2.086   2.180   3.774
   33DPPC   C48 1648   2.137   2.218   3.635
   33DPPC   C49 1649   2.039   2.326   3.588
   33DPPC   C50 1650   2.055   2.350   3.437
   34DPPC    C1 1651   2.936   4.433   5.633
   34DPPC    C2 1652   2.858   4.566   5.471
   34DPPC    C3 1653   2.870   4.675   5.683
   34DPPC    N4 1654   2.935   4.575   5.596
   34DPPC    C5 1655   3.068   4.628   5.564
   34DPPC    C6 1656   3.170   4.613   5.677
   34DPPC    O7 1657   3.276   4.705   5.652
   34DPPC    P8 1658   3.379   4.696   5.775
   34DPPC    O9 1659   3.302   4.693   5.902
   34DPPC   O10 1660   3.511   4.762   5.766
   34DPPC   O11 1661   3.403   4.538   5.755
   34DPPC   C12 1662   3.505   4.512   5.657
   34DPPC   C13 1663   3.569   4.374   5.660
   34DPPC   O14 1664   3.664   4.336   5.559
   34DPPC   C15 1665   3.788   4.390   5.565
   34DPPC   O16 1666   3.816   4.485   5.638
   34DPPC   C17 1667   3.899   4.338   5.473
   34DPPC   C18 1668   3.936   4.413   5.344
   34DPPC   C19 1669   3.818   4.430   5.249
   34DPPC   C20 1670   3.844   4.518   5.127
   34DPPC   C21 1671   3.715   4.559   5.056
   34DPPC   C22 1672   3.743   4.625   4.922
   34DPPC   C23 1673   3.795   4.528   4.816
   34DPPC   C24 1674   3.838   4.611   4.695
   34DPPC   C25 1675   3.886   4.521   4.580
   34DPPC   C26 1676   4.022   4.564   4.526
   34DPPC   C27 1677   4.092   4.451   4.450
   34DPPC   C28 1678   4.225   4.506   4.398
   34DPPC   C29 1679   4.298   4.415   4.299
   34DPPC   C30 1680   4.446   4.447   4.272
   34DPPC   C31 1681   4.457   4.586   4.208
   34DPPC   C32 1682   3.451   4.279   5.686
   34DPPC   O33 1683   3.346   4.278   5.588
   34DPPC   C34 1684   3.255   4.178   5.592
   34DPPC   O35 1685   3.221   4.149   5.707
   34DPPC   C36 1686   3.176   4.160   5.462
   34DPPC   C37 1687   3.177   4.013   5.419
   34DPPC   C38 1688   3.117   4.017   5.278
   34DPPC   C39 1689   3.222   4.067   5.179
   34DPPC   C40 1690   3.166   4.057   5.037
   34DPPC   C41 1691   3.250   3.969   4.945
   34DPPC   C42 1692   3.161   3.930   4.827
   34DPPC   C43 1693   3.258   3.879   4.720
   34DPPC   C44 1694   3.200   3.863   4.579
   34DPPC   C45 1695   3.311   3.797   4.498
   34DPPC   C46 1696   3.266   3.790   4.351
   34DPPC   C47 1697   3.283   3.927   4.286
   34DPPC   C48 1698   3.250   3.920   4.137
   34DPPC   C49 1699   3.297   4.052   4.075
   34DPPC   C50 1700   3.287   4.045   3.922
   35DPPC    C1 1701   1.456   2.749   1.586
   35DPPC    C2 1702   1.357   2.952   1.672
   35DPPC    C3 1703   1.420   2.770   1.818
   35DPPC    N4 1704   1.455   2.845   1.697
   35DPPC    C5 1705   1.590   2.902   1.709
   35DPPC    C6 1706   1.648   2.979   1.590
   35DPPC    O7 1707   1.765   3.053   1.625
   35DPPC    P8 1708   1.765   3.187   1.537
   35DPPC    O9 1709   1.685   3.171   1.414
   35DPPC   O10 1710   1.880   3.280   1.547
   35DPPC   O11 1711   1.643   3.249   1.622
   35DPPC   C12 1712   1.698   3.312   1.739
   35DPPC   C13 1713   1.573   3.374   1.801
   35DPPC   O14 1714   1.604   3.490   1.880
   35DPPC   C15 1715   1.671   3.595   1.826
   35DPPC   O16 1716   1.653   3.614   1.706
   35DPPC   C17 1717   1.724   3.699   1.926
   35DPPC   C18 1718   1.612   3.739   2.022
   35DPPC   C19 1719   1.675   3.767   2.159
   35DPPC   C20 1720   1.576   3.816   2.265
   35DPPC   C21 1721   1.655   3.829   2.395
   35DPPC   C22 1722   1.560   3.854   2.513
   35DPPC   C23 1723   1.643   3.882   2.639
   35DPPC   C24 1724   1.546   3.947   2.738
   35DPPC   C25 1725   1.623   4.045   2.827
   35DPPC   C26 1726   1.525   4.134   2.904
   35DPPC   C27 1727   1.465   4.047   3.015
   35DPPC   C28 1728   1.371   4.128   3.105
   35DPPC   C29 1729   1.333   4.040   3.224
   35DPPC   C30 1730   1.262   4.127   3.328
   35DPPC   C31 1731   1.350   4.248   3.359
   35DPPC   C32 1732   1.490   3.273   1.881
   35DPPC   O33 1733   1.570   3.173   1.945
   35DPPC   C34 1734   1.498   3.076   2.006
   35DPPC   O35 1735   1.386   3.046   1.963
   35DPPC   C36 1736   1.571   2.983   2.103
   35DPPC   C37 1737   1.675   3.054   2.190
   35DPPC   C38 1738   1.604   3.159   2.275
   35DPPC   C39 1739   1.707   3.212   2.375
   35DPPC   C40 1740   1.640   3.321   2.460
   35DPPC   C41 1741   1.677   3.327   2.608
   35DPPC   C42 1742   1.586   3.438   2.662
   35DPPC   C43 1743   1.580   3.435   2.814
   35DPPC   C44 1744   1.486   3.535   2.881
   35DPPC   C45 1745   1.487   3.527   3.034
   35DPPC   C46 1746   1.401   3.650   3.066
   35DPPC   C47 1747   1.256   3.607   3.043
   35DPPC   C48 1748   1.162   3.727   3.028
   35DPPC   C49 1749   1.020   3.670   3.023
   35DPPC   C50 1750   0.965   3.621   3.157
   36DPPC    C1 1751   6.132   6.432   1.941
   36DPPC    C2 1752   6.293   6.433   2.101
   36DPPC    C3 1753   6.309   6.595   1.917
   36DPPC    N4 1754   6.221   6.525   2.012
   36DPPC    C5 1755   6.144   6.617   2.098
   36DPPC    C6 1756   6.062   6.733   2.040
   36DPPC    O7 1757   6.135   6.840   1.980
   36DPPC    P8 1758   6.023   6.953   1.955
   36DPPC    O9 1759   5.897   6.881   1.925
   36DPPC   O10 1760   6.080   7.050   1.859
   36DPPC   O11 1761   6.013   7.011   2.105
   36DPPC   C12 1762   6.144   7.032   2.159
   36DPPC   C13 1763   6.159   7.105   2.293
   36DPPC   O14 1764   6.289   7.078   2.347
   36DPPC   C15 1765   6.382   7.175   2.325
   36DPPC   O16 1766   6.379   7.255   2.231
   36DPPC   C17 1767   6.516   7.171   2.398
   36DPPC   C18 1768   6.476   7.165   2.546
   36DPPC   C19 1769   6.601   7.157   2.633
   36DPPC   C20 1770   6.574   7.170   2.783
   36DPPC   C21 1771   6.690   7.167   2.883
   36DPPC   C22 1772   6.638   7.183   3.026
   36DPPC   C23 1773   6.757   7.171   3.120
   36DPPC   C24 1774   6.730   7.228   3.259
   36DPPC   C25 1775   6.854   7.292   3.322
   36DPPC   C26 1776   6.815   7.355   3.456
   36DPPC   C27 1777   6.741   7.252   3.543
   36DPPC   C28 1778   6.673   7.303   3.670
   36DPPC   C29 1779   6.765   7.367   3.774
   36DPPC   C30 1780   6.693   7.412   3.901
   36DPPC   C31 1781   6.805   7.464   3.991
   36DPPC   C32 1782   6.040   7.050   2.371
   36DPPC   O33 1783   5.996   7.131   2.480
   36DPPC   C34 1784   5.917   7.080   2.578
   36DPPC   O35 1785   5.851   6.980   2.550
   36DPPC   C36 1786   5.896   7.158   2.708
   36DPPC   C37 1787   6.017   7.138   2.800
   36DPPC   C38 1788   6.000   7.186   2.944
   36DPPC   C39 1789   5.886   7.108   3.008
   36DPPC   C40 1790   5.937   7.087   3.151
   36DPPC   C41 1791   5.821   7.036   3.236
   36DPPC   C42 1792   5.841   7.034   3.388
   36DPPC   C43 1793   5.753   6.928   3.456
   36DPPC   C44 1794   5.788   6.920   3.605
   36DPPC   C45 1795   5.677   6.858   3.690
   36DPPC   C46 1796   5.735   6.821   3.826
   36DPPC   C47 1797   5.635   6.874   3.930
   36DPPC   C48 1798   5.647   6.792   4.059
   36DPPC   C49 1799   5.564   6.863   4.166
   36DPPC   C50 1800   5.604   6.793   4.295
   37DPPC    C1 1801   8.450   3.090   1.817
   37DPPC    C2 1802   8.529   3.078   1.598
   37DPPC    C3 1803   8.338   3.208   1.627
   37DPPC    N4 1804   8.463   3.168   1.693
   37DPPC    C5 1805   8.557   3.279   1.711
   37DPPC    C6 1806   8.506   3.388   1.805
   37DPPC    O7 1807   8.600   3.496   1.811
   37DPPC    P8 1808   8.527   3.622   1.879
   37DPPC    O9 1809   8.422   3.561   1.963
   37DPPC   O10 1810   8.494   3.688   1.750
   37DPPC   O11 1811   8.655   3.689   1.950
   37DPPC   C12 1812   8.677   3.612   2.068
   37DPPC   C13 1813   8.741   3.687   2.185
   37DPPC   O14 1814   8.798   3.605   2.288
   37DPPC   C15 1815   8.906   3.525   2.265
   37DPPC   O16 1816   8.962   3.529   2.155
   37DPPC   C17 1817   8.957   3.436   2.378
   37DPPC   C18 1818   9.058   3.328   2.339
   37DPPC   C19 1819   9.091   3.251   2.468
   37DPPC   C20 1820   9.169   3.128   2.423
   37DPPC   C21 1821   9.193   3.022   2.531
   37DPPC   C22 1822   9.298   2.925   2.478
   37DPPC   C23 1823   9.326   2.832   2.596
   37DPPC   C24 1824   9.393   2.892   2.720
   37DPPC   C25 1825   9.537   2.935   2.695
   37DPPC   C26 1826   9.609   2.969   2.825
   37DPPC   C27 1827   9.654   2.852   2.912
   37DPPC   C28 1828   9.685   2.902   3.053
   37DPPC   C29 1829   9.702   2.785   3.150
   37DPPC   C30 1830   9.765   2.804   3.289
   37DPPC   C31 1831   9.673   2.889   3.376
   37DPPC   C32 1832   8.634   3.789   2.225
   37DPPC   O33 1833   8.512   3.723   2.259
   37DPPC   C34 1834   8.405   3.777   2.196
   37DPPC   O35 1835   8.412   3.848   2.095
   37DPPC   C36 1836   8.264   3.735   2.238
   37DPPC   C37 1837   8.255   3.732   2.390
   37DPPC   C38 1838   8.306   3.859   2.460
   37DPPC   C39 1839   8.248   3.888   2.598
   37DPPC   C40 1840   8.292   3.778   2.694
   37DPPC   C41 1841   8.204   3.781   2.819
   37DPPC   C42 1842   8.293   3.710   2.923
   37DPPC   C43 1843   8.246   3.727   3.068
   37DPPC   C44 1844   8.364   3.673   3.149
   37DPPC   C45 1845   8.344   3.711   3.296
   37DPPC   C46 1846   8.461   3.654   3.376
   37DPPC   C47 1847   8.462   3.692   3.524
   37DPPC   C48 1848   8.572   3.619   3.601
   37DPPC   C49 1849   8.680   3.723   3.630
   37DPPC   C50 1850   8.804   3.647   3.678
   38DPPC    C1 1851   3.409   4.326   1.639
   38DPPC    C2 1852   3.405   4.560   1.579
   38DPPC    C3 1853   3.225   4.427   1.513
   38DPPC    N4 1854   3.324   4.444   1.620
   38DPPC    C5 1855   3.246   4.487   1.737
   38DPPC    C6 1856   3.153   4.391   1.812
   38DPPC    O7 1857   3.225   4.287   1.879
   38DPPC    P8 1858   3.122   4.173   1.926
   38DPPC    O9 1859   3.191   4.072   2.009
   38DPPC   O10 1860   3.055   4.136   1.799
   38DPPC   O11 1861   3.024   4.267   2.013
   38DPPC   C12 1862   3.063   4.275   2.151
   38DPPC   C13 1863   3.161   4.389   2.175
   38DPPC   O14 1864   3.238   4.362   2.293
   38DPPC   C15 1865   3.329   4.445   2.349
   38DPPC   O16 1866   3.388   4.532   2.284
   38DPPC   C17 1867   3.373   4.395   2.487
   38DPPC   C18 1868   3.370   4.511   2.587
   38DPPC   C19 1869   3.432   4.467   2.719
   38DPPC   C20 1870   3.427   4.588   2.813
   38DPPC   C21 1871   3.490   4.545   2.945
   38DPPC   C22 1872   3.412   4.441   3.026
   38DPPC   C23 1873   3.471   4.387   3.156
   38DPPC   C24 1874   3.516   4.505   3.243
   38DPPC   C25 1875   3.399   4.597   3.278
   38DPPC   C26 1876   3.462   4.703   3.370
   38DPPC   C27 1877   3.357   4.810   3.399
   38DPPC   C28 1878   3.412   4.923   3.487
   38DPPC   C29 1879   3.314   5.040   3.490
   38DPPC   C30 1880   3.363   5.141   3.594
   38DPPC   C31 1881   3.248   5.237   3.625
   38DPPC   C32 1882   3.087   4.523   2.165
   38DPPC   O33 1883   2.976   4.532   2.254
   38DPPC   C34 1884   2.916   4.654   2.263
   38DPPC   O35 1885   2.963   4.763   2.230
   38DPPC   C36 1886   2.792   4.645   2.353
   38DPPC   C37 1887   2.807   4.618   2.503
   38DPPC   C38 1888   2.711   4.508   2.547
   38DPPC   C39 1889   2.763   4.445   2.676
   38DPPC   C40 1890   2.656   4.347   2.727
   38DPPC   C41 1891   2.705   4.254   2.838
   38DPPC   C42 1892   2.768   4.323   2.959
   38DPPC   C43 1893   2.784   4.231   3.080
   38DPPC   C44 1894   2.848   4.321   3.186
   38DPPC   C45 1895   3.001   4.329   3.177
   38DPPC   C46 1896   3.052   4.423   3.286
   38DPPC   C47 1897   3.018   4.370   3.426
   38DPPC   C48 1898   3.084   4.460   3.531
   38DPPC   C49 1899   3.018   4.598   3.521
   38DPPC   C50 1900   3.050   4.691   3.638
   39DPPC    C1 1901   4.209   8.061   2.152
   39DPPC    C2 1902   4.290   8.079   1.920
   39DPPC    C3 1903   4.246   7.867   2.036
   39DPPC    N4 1904   4.204   8.006   2.015
   39DPPC    C5 1905   4.071   8.008   1.955
   39DPPC    C6 1906   3.979   8.129   1.972
   39DPPC    O7 1907   3.850   8.109   1.913
   39DPPC    P8 1908   3.731   8.187   1.988
   39DPPC    O9 1909   3.618   8.202   1.894
   39DPPC   O10 1910   3.778   8.316   2.045
   39DPPC   O11 1911   3.691   8.074   2.096
   39DPPC   C12 1912   3.549   8.069   2.109
   39DPPC   C13 1913   3.494   8.013   2.241
   39DPPC   O14 1914   3.352   8.022   2.257
   39DPPC   C15 1915   3.289   7.903   2.270
   39DPPC   O16 1916   3.332   7.811   2.200
   39DPPC   C17 1917   3.146   7.915   2.322
   39DPPC   C18 1918   3.101   7.780   2.379
   39DPPC   C19 1919   2.950   7.780   2.406
   39DPPC   C20 1920   2.889   7.650   2.459
   39DPPC   C21 1921   2.756   7.677   2.530
   39DPPC   C22 1922   2.715   7.547   2.599
   39DPPC   C23 1923   2.572   7.567   2.651
   39DPPC   C24 1924   2.479   7.607   2.536
   39DPPC   C25 1925   2.343   7.647   2.593
   39DPPC   C26 1926   2.280   7.536   2.677
   39DPPC   C27 1927   2.134   7.519   2.634
   39DPPC   C28 1928   2.053   7.398   2.682
   39DPPC   C29 1929   1.907   7.413   2.637
   39DPPC   C30 1930   1.887   7.424   2.486
   39DPPC   C31 1931   1.740   7.412   2.445
   39DPPC   C32 1932   3.589   8.079   2.342
   39DPPC   O33 1933   3.580   8.221   2.354
   39DPPC   C34 1934   3.641   8.267   2.466
   39DPPC   O35 1935   3.729   8.204   2.524
   39DPPC   C36 1936   3.609   8.405   2.524
   39DPPC   C37 1937   3.482   8.411   2.609
   39DPPC   C38 1938   3.508   8.335   2.740
   39DPPC   C39 1939   3.381   8.328   2.825
   39DPPC   C40 1940   3.386   8.285   2.972
   39DPPC   C41 1941   3.259   8.315   3.052
   39DPPC   C42 1942   3.240   8.239   3.184
   39DPPC   C43 1943   3.104   8.279   3.242
   39DPPC   C44 1944   3.109   8.247   3.391
   39DPPC   C45 1945   2.986   8.311   3.456
   39DPPC   C46 1946   2.940   8.237   3.582
   39DPPC   C47 1947   2.815   8.304   3.640
   39DPPC   C48 1948   2.757   8.222   3.756
   39DPPC   C49 1949   2.832   8.247   3.887
   39DPPC   C50 1950   2.789   8.155   4.002
   40DPPC    C1 1951   3.140   7.222   2.337
   40DPPC    C2 1952   3.259   7.128   2.169
   40DPPC    C3 1953   3.231   7.008   2.380
   40DPPC    N4 1954   3.166   7.091   2.278
   40DPPC    C5 1955   3.043   7.030   2.227
   40DPPC    C6 1956   3.034   6.932   2.109
   40DPPC    O7 1957   3.118   6.818   2.129
   40DPPC    P8 1958   3.092   6.700   2.023
   40DPPC    O9 1959   3.206   6.607   2.037
   40DPPC   O10 1960   3.033   6.729   1.891
   40DPPC   O11 1961   2.974   6.649   2.121
   40DPPC   C12 1962   3.039   6.560   2.213
   40DPPC   C13 1963   2.954   6.528   2.336
   40DPPC   O14 1964   2.848   6.440   2.296
   40DPPC   C15 1965   2.873   6.307   2.278
   40DPPC   O16 1966   2.982   6.250   2.268
   40DPPC   C17 1967   2.741   6.231   2.273
   40DPPC   C18 1968   2.677   6.230   2.412
   40DPPC   C19 1969   2.542   6.159   2.409
   40DPPC   C20 1970   2.495   6.140   2.553
   40DPPC   C21 1971   2.484   6.265   2.641
   40DPPC   C22 1972   2.437   6.224   2.781
   40DPPC   C23 1973   2.436   6.338   2.883
   40DPPC   C24 1974   2.377   6.289   3.015
   40DPPC   C25 1975   2.369   6.409   3.110
   40DPPC   C26 1976   2.262   6.503   3.054
   40DPPC   C27 1977   2.219   6.582   3.178
   40DPPC   C28 1978   2.146   6.496   3.280
   40DPPC   C29 1979   2.198   6.490   3.424
   40DPPC   C30 1980   2.141   6.391   3.525
   40DPPC   C31 1981   2.165   6.430   3.671
   40DPPC   C32 1982   2.906   6.659   2.398
   40DPPC   O33 1983   2.979   6.688   2.518
   40DPPC   C34 1984   2.965   6.818   2.556
   40DPPC   O35 1985   2.933   6.912   2.484
   40DPPC   C36 1986   3.010   6.849   2.699
   40DPPC   C37 1987   2.970   6.989   2.747
   40DPPC   C38 1988   3.004   7.001   2.896
   40DPPC   C39 1989   2.873   7.027   2.971
   40DPPC   C40 1990   2.896   7.042   3.122
   40DPPC   C41 1991   2.750   7.072   3.157
   40DPPC   C42 1992   2.737   7.129   3.299
   40DPPC   C43 1993   2.809   7.033   3.394
   40DPPC   C44 1994   2.803   7.096   3.533
   40DPPC   C45 1995   2.659   7.137   3.567
   40DPPC   C46 1996   2.643   7.187   3.711
   40DPPC   C47 1997   2.507   7.254   3.728
   40DPPC   C48 1998   2.499   7.327   3.863
   40DPPC   C49 1999   2.363   7.391   3.891
   40DPPC   C50 2000   2.323   7.507   3.800
   41DPPC    C1 2001   3.096   5.787   2.010
   41DPPC    C2 2002   2.987   5.980   2.039
   41DPPC    C3 2003   3.215   5.980   1.963
   41DPPC    N4 2004   3.083   5.919   1.946
   41DPPC    C5 2005   3.052   5.907   1.802
   41DPPC    C6 2006   2.950   5.812   1.740
   41DPPC    O7 2007   2.812   5.835   1.771
   41DPPC    P8 2008   2.717   5.762   1.663
   41DPPC    O9 2009   2.799   5.740   1.542
   41DPPC   O10 2010   2.594   5.843   1.660
   41DPPC   O11 2011   2.691   5.619   1.733
   41DPPC   C12 2012   2.598   5.618   1.842
   41DPPC   C13 2013   2.528   5.485   1.869
   41DPPC   O14 2014   2.402   5.484   1.938
   41DPPC   C15 2015   2.283   5.537   1.898
   41DPPC   O16 2016   2.289   5.607   1.797
   41DPPC   C17 2017   2.178   5.547   2.009
   41DPPC   C18 2018   2.171   5.407   2.070
   41DPPC   C19 2019   2.061   5.398   2.175
   41DPPC   C20 2020   2.048   5.269   2.256
   41DPPC   C21 2021   1.913   5.283   2.326
   41DPPC   C22 2022   1.867   5.149   2.384
   41DPPC   C23 2023   1.742   5.181   2.467
   41DPPC   C24 2024   1.672   5.060   2.529
   41DPPC   C25 2025   1.560   5.096   2.627
   41DPPC   C26 2026   1.509   4.963   2.684
   41DPPC   C27 2027   1.418   5.005   2.799
   41DPPC   C28 2028   1.513   5.078   2.894
   41DPPC   C29 2029   1.441   5.113   3.024
   41DPPC   C30 2030   1.540   5.138   3.137
   41DPPC   C31 2031   1.470   5.141   3.273
   41DPPC   C32 2032   2.635   5.402   1.941
   41DPPC   O33 2033   2.713   5.483   2.030
   41DPPC   C34 2034   2.818   5.417   2.084
   41DPPC   O35 2035   2.861   5.305   2.057
   41DPPC   C36 2036   2.889   5.490   2.198
   41DPPC   C37 2037   2.871   5.394   2.316
   41DPPC   C38 2038   2.939   5.447   2.443
   41DPPC   C39 2039   2.918   5.362   2.569
   41DPPC   C40 2040   3.021   5.393   2.678
   41DPPC   C41 2041   2.973   5.297   2.788
   41DPPC   C42 2042   3.061   5.301   2.913
   41DPPC   C43 2043   3.185   5.213   2.901
   41DPPC   C44 2044   3.268   5.237   3.028
   41DPPC   C45 2045   3.380   5.133   3.026
   41DPPC   C46 2046   3.467   5.143   2.900
   41DPPC   C47 2047   3.568   5.028   2.905
   41DPPC   C48 2048   3.690   5.071   2.824
   41DPPC   C49 2049   3.771   5.185   2.887
   41DPPC   C50 2050   3.892   5.207   2.795
   42DPPC    C1 2051   1.939   4.526   2.033
   42DPPC    C2 2052   2.080   4.555   1.831
   42DPPC    C3 2053   2.081   4.358   1.951
   42DPPC    N4 2054   1.992   4.467   1.909
   42DPPC    C5 2055   1.887   4.411   1.822
   42DPPC    C6 2056   1.772   4.505   1.786
   42DPPC    O7 2057   1.800   4.606   1.688
   42DPPC    P8 2058   1.665   4.691   1.670
   42DPPC    O9 2059   1.548   4.602   1.654
   42DPPC   O10 2060   1.699   4.790   1.566
   42DPPC   O11 2061   1.678   4.757   1.817
   42DPPC   C12 2062   1.749   4.881   1.809
   42DPPC   C13 2063   1.788   4.932   1.947
   42DPPC   O14 2064   1.899   4.872   2.016
   42DPPC   C15 2065   2.026   4.903   1.981
   42DPPC   O16 2066   2.055   4.951   1.871
   42DPPC   C17 2067   2.130   4.866   2.087
   42DPPC   C18 2068   2.091   4.896   2.232
   42DPPC   C19 2069   2.004   4.782   2.284
   42DPPC   C20 2070   2.004   4.767   2.437
   42DPPC   C21 2071   1.932   4.635   2.465
   42DPPC   C22 2072   1.934   4.632   2.617
   42DPPC   C23 2073   1.883   4.504   2.682
   42DPPC   C24 2074   1.863   4.539   2.830
   42DPPC   C25 2075   1.819   4.415   2.907
   42DPPC   C26 2076   1.816   4.446   3.057
   42DPPC   C27 2077   1.774   4.333   3.152
   42DPPC   C28 2078   1.765   4.379   3.297
   42DPPC   C29 2079   1.902   4.429   3.344
   42DPPC   C30 2080   1.901   4.474   3.490
   42DPPC   C31 2081   1.845   4.616   3.490
   42DPPC   C32 2082   1.661   4.949   2.031
   42DPPC   O33 2083   1.594   5.073   2.006
   42DPPC   C34 2084   1.494   5.085   2.097
   42DPPC   O35 2085   1.445   4.986   2.151
   42DPPC   C36 2086   1.434   5.223   2.124
   42DPPC   C37 2087   1.374   5.237   2.264
   42DPPC   C38 2088   1.349   5.382   2.306
   42DPPC   C39 2089   1.222   5.435   2.238
   42DPPC   C40 2090   1.174   5.553   2.322
   42DPPC   C41 2091   1.038   5.518   2.384
   42DPPC   C42 2092   1.024   5.609   2.506
   42DPPC   C43 2093   0.912   5.569   2.603
   42DPPC   C44 2094   0.922   5.656   2.729
   42DPPC   C45 2095   0.839   5.588   2.839
   42DPPC   C46 2096   0.829   5.663   2.972
   42DPPC   C47 2097   0.719   5.604   3.060
   42DPPC   C48 2098   0.722   5.685   3.190
   42DPPC   C49 2099   0.606   5.669   3.288
   42DPPC   C50 2100   0.629   5.749   3.416
   43DPPC    C1 2101   1.676   6.537   1.832
   43DPPC    C2 2102   1.453   6.614   1.823
   43DPPC    C3 2103   1.636   6.738   1.925
   43DPPC    N4 2104   1.593   6.656   1.811
   43DPPC    C5 2105   1.647   6.714   1.687
   43DPPC    C6 2106   1.560   6.822   1.622
   43DPPC    O7 2107   1.530   6.926   1.715
   43DPPC    P8 2108   1.397   7.002   1.667
   43DPPC    O9 2109   1.336   6.944   1.545
   43DPPC   O10 2110   1.421   7.148   1.672
   43DPPC   O11 2111   1.316   6.951   1.796
   43DPPC   C12 2112   1.212   7.038   1.842
   43DPPC   C13 2113   1.141   6.980   1.964
   43DPPC   O14 2114   1.085   7.079   2.054
   43DPPC   C15 2115   0.951   7.076   2.073
   43DPPC   O16 2116   0.879   7.039   1.981
   43DPPC   C17 2117   0.908   7.162   2.192
   43DPPC   C18 2118   0.959   7.306   2.182
   43DPPC   C19 2119   0.903   7.385   2.300
   43DPPC   C20 2120   0.983   7.514   2.312
   43DPPC   C21 2121   0.911   7.604   2.412
   43DPPC   C22 2122   0.892   7.527   2.543
   43DPPC   C23 2123   0.811   7.605   2.646
   43DPPC   C24 2124   0.828   7.529   2.777
   43DPPC   C25 2125   0.974   7.523   2.822
   43DPPC   C26 2126   0.962   7.471   2.966
   43DPPC   C27 2127   1.090   7.412   3.025
   43DPPC   C28 2128   1.196   7.509   3.079
   43DPPC   C29 2129   1.307   7.439   3.158
   43DPPC   C30 2130   1.415   7.538   3.202
   43DPPC   C31 2131   1.517   7.475   3.297
   43DPPC   C32 2132   1.244   6.892   2.034
   43DPPC   O33 2133   1.215   6.799   2.139
   43DPPC   C34 2134   1.309   6.731   2.209
   43DPPC   O35 2135   1.412   6.688   2.156
   43DPPC   C36 2136   1.261   6.651   2.330
   43DPPC   C37 2137   1.263   6.732   2.460
   43DPPC   C38 2138   1.180   6.645   2.555
   43DPPC   C39 2139   1.129   6.732   2.670
   43DPPC   C40 2140   1.046   6.846   2.610
   43DPPC   C41 2141   0.975   6.933   2.713
   43DPPC   C42 2142   0.858   7.007   2.648
   43DPPC   C43 2143   0.762   7.070   2.749
   43DPPC   C44 2144   0.716   6.985   2.867
   43DPPC   C45 2145   0.631   7.083   2.948
   43DPPC   C46 2146   0.699   7.156   3.064
   43DPPC   C47 2147   0.596   7.227   3.152
   43DPPC   C48 2148   0.681   7.311   3.248
   43DPPC   C49 2149   0.598   7.429   3.296
   43DPPC   C50 2150   0.568   7.524   3.179
   44DPPC    C1 2151   4.884   1.727   1.643
   44DPPC    C2 2152   4.671   1.810   1.610
   44DPPC    C3 2153   4.758   1.812   1.824
   44DPPC    N4 2154   4.795   1.836   1.684
   44DPPC    C5 2155   4.864   1.965   1.668
   44DPPC    C6 2156   4.784   2.095   1.687
   44DPPC    O7 2157   4.733   2.121   1.818
   44DPPC    P8 2158   4.713   2.281   1.822
   44DPPC    O9 2159   4.604   2.301   1.921
   44DPPC   O10 2160   4.686   2.333   1.686
   44DPPC   O11 2161   4.860   2.319   1.876
   44DPPC   C12 2162   4.872   2.289   2.015
   44DPPC   C13 2163   5.020   2.260   2.038
   44DPPC   O14 2164   5.049   2.179   2.153
   44DPPC   C15 2165   5.170   2.117   2.156
   44DPPC   O16 2166   5.224   2.110   2.046
   44DPPC   C17 2167   5.210   2.033   2.278
   44DPPC   C18 2168   5.362   2.039   2.295
   44DPPC   C19 2169   5.389   2.002   2.441
   44DPPC   C20 2170   5.541   2.003   2.464
   44DPPC   C21 2171   5.583   1.985   2.610
   44DPPC   C22 2172   5.734   1.982   2.638
   44DPPC   C23 2173   5.764   1.963   2.787
   44DPPC   C24 2174   5.705   1.838   2.852
   44DPPC   C25 2175   5.720   1.838   3.004
   44DPPC   C26 2176   5.845   1.768   3.057
   44DPPC   C27 2177   5.829   1.735   3.205
   44DPPC   C28 2178   5.929   1.624   3.241
   44DPPC   C29 2179   5.930   1.583   3.388
   44DPPC   C30 2180   6.047   1.486   3.405
   44DPPC   C31 2181   6.060   1.437   3.549
   44DPPC   C32 2182   5.080   2.401   2.041
   44DPPC   O33 2183   5.015   2.492   2.130
   44DPPC   C34 2184   5.065   2.618   2.137
   44DPPC   O35 2185   5.156   2.659   2.065
   44DPPC   C36 2186   4.995   2.706   2.241
   44DPPC   C37 2187   5.074   2.831   2.279
   44DPPC   C38 2188   5.174   2.783   2.384
   44DPPC   C39 2189   5.102   2.765   2.518
   44DPPC   C40 2190   5.212   2.718   2.613
   44DPPC   C41 2191   5.146   2.684   2.747
   44DPPC   C42 2192   5.260   2.654   2.845
   44DPPC   C43 2193   5.202   2.582   2.967
   44DPPC   C44 2194   5.315   2.556   3.066
   44DPPC   C45 2195   5.262   2.500   3.198
   44DPPC   C46 2196   5.371   2.512   3.305
   44DPPC   C47 2197   5.326   2.426   3.424
   44DPPC   C48 2198   5.437   2.456   3.525
   44DPPC   C49 2199   5.566   2.421   3.451
   44DPPC   C50 2200   5.682   2.407   3.550
   45DPPC    C1 2201   0.215   4.354   1.527
   45DPPC    C2 2202   0.255   4.415   1.302
   45DPPC    C3 2203   0.434   4.389   1.456
   45DPPC    N4 2204   0.305   4.332   1.413
   45DPPC    C5 2205   0.322   4.189   1.382
   45DPPC    C6 2206   0.346   4.096   1.501
   45DPPC    O7 2207   0.483   4.060   1.524
   45DPPC    P8 2208   0.491   3.958   1.648
   45DPPC    O9 2209   0.637   3.935   1.646
   45DPPC   O10 2210   0.389   3.858   1.607
   45DPPC   O11 2211   0.440   4.031   1.781
   45DPPC   C12 2212   0.552   4.051   1.867
   45DPPC   C13 2213   0.529   4.151   1.981
   45DPPC   O14 2214   0.624   4.146   2.088
   45DPPC   C15 2215   0.721   4.242   2.085
   45DPPC   O16 2216   0.785   4.260   1.982
   45DPPC   C17 2217   0.773   4.264   2.227
   45DPPC   C18 2218   0.674   4.357   2.298
   45DPPC   C19 2219   0.703   4.378   2.447
   45DPPC   C20 2220   0.597   4.475   2.499
   45DPPC   C21 2221   0.633   4.570   2.613
   45DPPC   C22 2222   0.518   4.671   2.623
   45DPPC   C23 2223   0.383   4.607   2.653
   45DPPC   C24 2224   0.270   4.710   2.647
   45DPPC   C25 2225   0.164   4.635   2.728
   45DPPC   C26 2226   0.046   4.732   2.735
   45DPPC   C27 2227  -0.051   4.679   2.841
   45DPPC   C28 2228   0.025   4.634   2.966
   45DPPC   C29 2229  -0.061   4.590   3.085
   45DPPC   C30 2230   0.021   4.555   3.209
   45DPPC   C31 2231  -0.053   4.463   3.306
   45DPPC   C32 2232   0.385   4.130   2.027
   45DPPC   O33 2233   0.347   4.239   2.112
   45DPPC   C34 2234   0.219   4.234   2.158
   45DPPC   O35 2235   0.138   4.157   2.107
   45DPPC   C36 2236   0.189   4.333   2.271
   45DPPC   C37 2237   0.092   4.270   2.371
   45DPPC   C38 2238   0.107   4.348   2.501
   45DPPC   C39 2239   0.013   4.289   2.607
   45DPPC   C40 2240   0.048   4.148   2.655
   45DPPC   C41 2241  -0.054   4.102   2.759
   45DPPC   C42 2242  -0.079   4.176   2.891
   45DPPC   C43 2243  -0.178   4.086   2.965
   45DPPC   C44 2244  -0.115   3.946   2.964
   45DPPC   C45 2245  -0.224   3.848   3.010
   45DPPC   C46 2246  -0.272   3.887   3.150
   45DPPC   C47 2247  -0.369   3.789   3.217
   45DPPC   C48 2248  -0.510   3.790   3.157
   45DPPC   C49 2249  -0.583   3.659   3.185
   45DPPC   C50 2250  -0.714   3.642   3.107
   46DPPC    C1 2251   9.333   1.777   1.423
   46DPPC    C2 2252   9.338   1.833   1.639
   46DPPC    C3 2253   9.545   1.823   1.501
   46DPPC    N4 2254   9.406   1.867   1.513
   46DPPC    C5 2255   9.392   2.007   1.471
   46DPPC    C6 2256   9.374   2.129   1.562
   46DPPC    O7 2257   9.257   2.137   1.644
   46DPPC    P8 2258   9.250   2.282   1.714
   46DPPC    O9 2259   9.114   2.310   1.767
   46DPPC   O10 2260   9.331   2.378   1.637
   46DPPC   O11 2261   9.345   2.254   1.841
   46DPPC   C12 2262   9.279   2.183   1.946
   46DPPC   C13 2263   9.384   2.165   2.055
   46DPPC   O14 2264   9.370   2.045   2.133
   46DPPC   C15 2265   9.423   1.932   2.079
   46DPPC   O16 2266   9.459   1.923   1.962
   46DPPC   C17 2267   9.423   1.812   2.174
   46DPPC   C18 2268   9.356   1.829   2.311
   46DPPC   C19 2269   9.305   1.698   2.371
   46DPPC   C20 2270   9.253   1.726   2.512
   46DPPC   C21 2271   9.208   1.595   2.578
   46DPPC   C22 2272   9.127   1.611   2.707
   46DPPC   C23 2273   9.087   1.471   2.753
   46DPPC   C24 2274   8.989   1.448   2.868
   46DPPC   C25 2275   9.036   1.506   3.002
   46DPPC   C26 2276   8.946   1.449   3.112
   46DPPC   C27 2277   8.925   1.558   3.216
   46DPPC   C28 2278   9.063   1.578   3.278
   46DPPC   C29 2279   9.047   1.656   3.409
   46DPPC   C30 2280   8.944   1.592   3.502
   46DPPC   C31 2281   8.939   1.664   3.638
   46DPPC   C32 2282   9.391   2.298   2.128
   46DPPC   O33 2283   9.273   2.336   2.199
   46DPPC   C34 2284   9.273   2.460   2.254
   46DPPC   O35 2285   9.372   2.529   2.227
   46DPPC   C36 2286   9.144   2.512   2.318
   46DPPC   C37 2287   9.131   2.456   2.459
   46DPPC   C38 2288   9.055   2.573   2.523
   46DPPC   C39 2289   9.032   2.541   2.670
   46DPPC   C40 2290   8.895   2.477   2.697
   46DPPC   C41 2291   8.874   2.427   2.840
   46DPPC   C42 2292   8.748   2.341   2.852
   46DPPC   C43 2293   8.715   2.296   2.994
   46DPPC   C44 2294   8.588   2.212   3.015
   46DPPC   C45 2295   8.557   2.196   3.164
   46DPPC   C46 2296   8.415   2.204   3.221
   46DPPC   C47 2297   8.402   2.188   3.373
   46DPPC   C48 2298   8.490   2.300   3.430
   46DPPC   C49 2299   8.477   2.293   3.582
   46DPPC   C50 2300   8.591   2.373   3.645
   47DPPC    C1 2301   7.658   2.077   1.456
   47DPPC    C2 2302   7.673   1.908   1.292
   47DPPC    C3 2303   7.724   1.861   1.520
   47DPPC    N4 2304   7.633   1.935   1.431
   47DPPC    C5 2305   7.491   1.897   1.431
   47DPPC    C6 2306   7.432   1.836   1.559
   47DPPC    O7 2307   7.423   1.912   1.680
   47DPPC    P8 2308   7.405   1.828   1.816
   47DPPC    O9 2309   7.357   1.698   1.764
   47DPPC   O10 2310   7.324   1.908   1.910
   47DPPC   O11 2311   7.562   1.825   1.847
   47DPPC   C12 2312   7.602   1.769   1.973
   47DPPC   C13 2313   7.733   1.823   2.031
   47DPPC   O14 2314   7.800   1.734   2.121
   47DPPC   C15 2315   7.861   1.624   2.069
   47DPPC   O16 2316   7.885   1.609   1.950
   47DPPC   C17 2317   7.887   1.511   2.169
   47DPPC   C18 2318   7.793   1.393   2.144
   47DPPC   C19 2319   7.790   1.312   2.274
   47DPPC   C20 2320   7.740   1.393   2.394
   47DPPC   C21 2321   7.602   1.452   2.364
   47DPPC   C22 2322   7.555   1.523   2.490
   47DPPC   C23 2323   7.627   1.655   2.516
   47DPPC   C24 2324   7.537   1.730   2.614
   47DPPC   C25 2325   7.399   1.767   2.558
   47DPPC   C26 2326   7.324   1.841   2.669
   47DPPC   C27 2327   7.328   1.778   2.809
   47DPPC   C28 2328   7.263   1.876   2.907
   47DPPC   C29 2329   7.246   1.802   3.040
   47DPPC   C30 2330   7.155   1.873   3.140
   47DPPC   C31 2331   7.139   1.806   3.277
   47DPPC   C32 2332   7.694   1.960   2.089
   47DPPC   O33 2333   7.565   1.965   2.151
   47DPPC   C34 2334   7.509   2.081   2.193
   47DPPC   O35 2335   7.561   2.193   2.185
   47DPPC   C36 2336   7.383   2.052   2.275
   47DPPC   C37 2337   7.366   2.119   2.411
   47DPPC   C38 2338   7.218   2.130   2.445
   47DPPC   C39 2339   7.190   2.204   2.576
   47DPPC   C40 2340   7.051   2.170   2.629
   47DPPC   C41 2341   7.020   2.023   2.657
   47DPPC   C42 2342   6.888   2.006   2.732
   47DPPC   C43 2343   6.899   1.865   2.792
   47DPPC   C44 2344   6.775   1.861   2.881
   47DPPC   C45 2345   6.767   1.750   2.986
   47DPPC   C46 2346   6.704   1.807   3.112
   47DPPC   C47 2347   6.740   1.716   3.230
   47DPPC   C48 2348   6.697   1.763   3.369
   47DPPC   C49 2349   6.779   1.887   3.403
   47DPPC   C50 2350   6.767   1.909   3.554
   48DPPC    C1 2351   8.579   0.552   1.026
   48DPPC    C2 2352   8.403   0.584   0.876
   48DPPC    C3 2353   8.488   0.362   0.905
   48DPPC    N4 2354   8.457   0.488   0.973
   48DPPC    C5 2355   8.373   0.473   1.092
   48DPPC    C6 2356   8.299   0.346   1.134
   48DPPC    O7 2357   8.265   0.365   1.272
   48DPPC    P8 2358   8.185   0.231   1.312
   48DPPC    O9 2359   8.247   0.114   1.245
   48DPPC   O10 2360   8.043   0.262   1.283
   48DPPC   O11 2361   8.215   0.242   1.470
   48DPPC   C12 2362   8.353   0.240   1.509
   48DPPC   C13 2363   8.355   0.284   1.656
   48DPPC   O14 2364   8.478   0.287   1.730
   48DPPC   C15 2365   8.564   0.392   1.719
   48DPPC   O16 2366   8.541   0.469   1.627
   48DPPC   C17 2367   8.699   0.400   1.791
   48DPPC   C18 2368   8.690   0.321   1.922
   48DPPC   C19 2369   8.829   0.328   1.985
   48DPPC   C20 2370   8.843   0.269   2.125
   48DPPC   C21 2371   8.756   0.342   2.228
   48DPPC   C22 2372   8.781   0.268   2.360
   48DPPC   C23 2373   8.681   0.153   2.344
   48DPPC   C24 2374   8.672   0.059   2.463
   48DPPC   C25 2375   8.655   0.139   2.592
   48DPPC   C26 2376   8.639   0.048   2.714
   48DPPC   C27 2377   8.493   0.003   2.724
   48DPPC   C28 2378   8.445  -0.065   2.852
   48DPPC   C29 2379   8.318  -0.149   2.834
   48DPPC   C30 2380   8.257  -0.205   2.963
   48DPPC   C31 2381   8.156  -0.311   2.917
   48DPPC   C32 2382   8.245   0.203   1.723
   48DPPC   O33 2383   8.221   0.209   1.864
   48DPPC   C34 2384   8.154   0.317   1.909
   48DPPC   O35 2385   8.138   0.410   1.830
   48DPPC   C36 2386   8.109   0.323   2.055
   48DPPC   C37 2387   8.218   0.347   2.160
   48DPPC   C38 2388   8.150   0.360   2.296
   48DPPC   C39 2389   8.263   0.381   2.396
   48DPPC   C40 2390   8.213   0.374   2.541
   48DPPC   C41 2391   8.148   0.504   2.586
   48DPPC   C42 2392   8.114   0.489   2.734
   48DPPC   C43 2393   8.091   0.627   2.796
   48DPPC   C44 2394   8.039   0.630   2.940
   48DPPC   C45 2395   8.034   0.777   2.982
   48DPPC   C46 2396   8.011   0.804   3.131
   48DPPC   C47 2397   8.119   0.732   3.212
   48DPPC   C48 2398   8.125   0.761   3.363
   48DPPC   C49 2399   8.163   0.906   3.390
   48DPPC   C50 2400   8.171   0.923   3.542
   49DPPC    C1 2401   4.268   7.384   2.421
   49DPPC    C2 2402   4.201   7.395   2.659
   49DPPC    C3 2403   4.228   7.584   2.527
   49DPPC    N4 2404   4.181   7.445   2.522
   49DPPC    C5 2405   4.043   7.449   2.470
   49DPPC    C6 2406   3.973   7.316   2.440
   49DPPC    O7 2407   3.844   7.339   2.384
   49DPPC    P8 2408   3.797   7.245   2.262
   49DPPC    O9 2409   3.916   7.251   2.174
   49DPPC   O10 2410   3.672   7.315   2.224
   49DPPC   O11 2411   3.798   7.118   2.360
   49DPPC   C12 2412   3.672   7.050   2.357
   49DPPC   C13 2413   3.668   6.922   2.442
   49DPPC   O14 2414   3.552   6.839   2.431
   49DPPC   C15 2415   3.535   6.764   2.319
   49DPPC   O16 2416   3.613   6.765   2.224
   49DPPC   C17 2417   3.422   6.661   2.330
   49DPPC   C18 2418   3.481   6.539   2.401
   49DPPC   C19 2419   3.375   6.432   2.429
   49DPPC   C20 2420   3.273   6.474   2.535
   49DPPC   C21 2421   3.163   6.368   2.545
   49DPPC   C22 2422   3.068   6.395   2.662
   49DPPC   C23 2423   2.942   6.308   2.653
   49DPPC   C24 2424   2.962   6.156   2.655
   49DPPC   C25 2425   2.833   6.087   2.701
   49DPPC   C26 2426   2.845   5.936   2.681
   49DPPC   C27 2427   2.747   5.848   2.759
   49DPPC   C28 2428   2.777   5.699   2.739
   49DPPC   C29 2429   2.679   5.616   2.823
   49DPPC   C30 2430   2.692   5.615   2.975
   49DPPC   C31 2431   2.702   5.471   3.025
   49DPPC   C32 2432   3.711   6.974   2.579
   49DPPC   O33 2433   3.611   7.060   2.635
   49DPPC   C34 2434   3.638   7.109   2.759
   49DPPC   O35 2435   3.738   7.081   2.825
   49DPPC   C36 2436   3.512   7.168   2.823
   49DPPC   C37 2437   3.509   7.318   2.795
   49DPPC   C38 2438   3.397   7.382   2.878
   49DPPC   C39 2439   3.353   7.515   2.817
   49DPPC   C40 2440   3.245   7.581   2.904
   49DPPC   C41 2441   3.114   7.503   2.897
   49DPPC   C42 2442   3.000   7.554   2.986
   49DPPC   C43 2443   2.879   7.462   2.966
   49DPPC   C44 2444   2.751   7.535   3.007
   49DPPC   C45 2445   2.755   7.575   3.155
   49DPPC   C46 2446   2.619   7.632   3.196
   49DPPC   C47 2447   2.508   7.530   3.171
   49DPPC   C48 2448   2.372   7.586   3.215
   49DPPC   C49 2449   2.246   7.513   3.169
   49DPPC   C50 2450   2.249   7.495   3.018
   50DPPC    C1 2451   5.546   1.971   1.613
   50DPPC    C2 2452   5.595   1.785   1.452
   50DPPC    C3 2453   5.756   1.925   1.535
   50DPPC    N4 2454   5.631   1.858   1.575
   50DPPC    C5 2455   5.663   1.752   1.670
   50DPPC    C6 2456   5.556   1.694   1.763
   50DPPC    O7 2457   5.609   1.588   1.842
   50DPPC    P8 2458   5.486   1.487   1.865
   50DPPC    O9 2459   5.572   1.377   1.912
   50DPPC   O10 2460   5.418   1.476   1.733
   50DPPC   O11 2461   5.415   1.576   1.979
   50DPPC   C12 2462   5.472   1.540   2.105
   50DPPC   C13 2463   5.396   1.599   2.224
   50DPPC   O14 2464   5.445   1.557   2.352
   50DPPC   C15 2465   5.542   1.625   2.419
   50DPPC   O16 2466   5.617   1.703   2.360
   50DPPC   C17 2467   5.600   1.553   2.541
   50DPPC   C18 2468   5.507   1.575   2.660
   50DPPC   C19 2469   5.561   1.489   2.774
   50DPPC   C20 2470   5.477   1.497   2.901
   50DPPC   C21 2471   5.556   1.448   3.022
   50DPPC   C22 2472   5.497   1.477   3.160
   50DPPC   C23 2473   5.583   1.417   3.271
   50DPPC   C24 2474   5.517   1.455   3.404
   50DPPC   C25 2475   5.378   1.390   3.412
   50DPPC   C26 2476   5.294   1.457   3.520
   50DPPC   C27 2477   5.236   1.592   3.479
   50DPPC   C28 2478   5.146   1.669   3.576
   50DPPC   C29 2479   5.146   1.816   3.536
   50DPPC   C30 2480   5.073   1.893   3.646
   50DPPC   C31 2481   5.093   2.043   3.629
   50DPPC   C32 2482   5.246   1.586   2.198
   50DPPC   O33 2483   5.161   1.666   2.282
   50DPPC   C34 2484   5.134   1.624   2.408
   50DPPC   O35 2485   5.105   1.504   2.418
   50DPPC   C36 2486   5.052   1.732   2.479
   50DPPC   C37 2487   5.116   1.782   2.608
   50DPPC   C38 2488   5.049   1.904   2.671
   50DPPC   C39 2489   4.906   1.869   2.713
   50DPPC   C40 2490   4.856   2.008   2.754
   50DPPC   C41 2491   4.707   2.017   2.790
   50DPPC   C42 2492   4.675   1.911   2.896
   50DPPC   C43 2493   4.582   1.947   3.012
   50DPPC   C44 2494   4.565   1.824   3.100
   50DPPC   C45 2495   4.492   1.844   3.233
   50DPPC   C46 2496   4.473   1.707   3.299
   50DPPC   C47 2497   4.371   1.709   3.413
   50DPPC   C48 2498   4.438   1.783   3.529
   50DPPC   C49 2499   4.339   1.807   3.643
   50DPPC   C50 2500   4.393   1.878   3.767
   51DPPC    C1 2501   4.057   5.679   2.068
   51DPPC    C2 2502   4.256   5.795   2.062
   51DPPC    C3 2503   4.092   5.849   1.903
   51DPPC    N4 2504   4.111   5.813   2.045
   51DPPC    C5 2505   4.066   5.910   2.146
   51DPPC    C6 2506   3.920   5.953   2.131
   51DPPC    O7 2507   3.824   5.857   2.176
   51DPPC    P8 2508   3.678   5.905   2.127
   51DPPC    O9 2509   3.591   5.789   2.098
   51DPPC   O10 2510   3.680   6.004   2.017
   51DPPC   O11 2511   3.626   5.982   2.259
   51DPPC   C12 2512   3.636   5.893   2.370
   51DPPC   C13 2513   3.747   5.933   2.468
   51DPPC   O14 2514   3.781   5.826   2.557
   51DPPC   C15 2515   3.902   5.764   2.562
   51DPPC   O16 2516   3.991   5.772   2.478
   51DPPC   C17 2517   3.902   5.649   2.663
   51DPPC   C18 2518   3.943   5.704   2.800
   51DPPC   C19 2519   3.981   5.580   2.881
   51DPPC   C20 2520   4.015   5.644   3.016
   51DPPC   C21 2521   3.994   5.557   3.140
   51DPPC   C22 2522   4.073   5.427   3.120
   51DPPC   C23 2523   4.070   5.338   3.244
   51DPPC   C24 2524   4.131   5.199   3.220
   51DPPC   C25 2525   4.196   5.144   3.347
   51DPPC   C26 2526   4.254   5.003   3.339
   51DPPC   C27 2527   4.352   4.987   3.456
   51DPPC   C28 2528   4.431   4.858   3.432
   51DPPC   C29 2529   4.338   4.737   3.438
   51DPPC   C30 2530   4.419   4.609   3.419
   51DPPC   C31 2531   4.478   4.598   3.278
   51DPPC   C32 2532   3.720   6.072   2.526
   51DPPC   O33 2533   3.592   6.077   2.592
   51DPPC   C34 2534   3.555   6.190   2.657
   51DPPC   O35 2535   3.631   6.285   2.674
   51DPPC   C36 2536   3.416   6.195   2.722
   51DPPC   C37 2537   3.449   6.171   2.870
   51DPPC   C38 2538   3.327   6.148   2.959
   51DPPC   C39 2539   3.223   6.260   2.963
   51DPPC   C40 2540   3.113   6.248   3.069
   51DPPC   C41 2541   3.181   6.218   3.203
   51DPPC   C42 2542   3.083   6.232   3.319
   51DPPC   C43 2543   3.138   6.155   3.439
   51DPPC   C44 2544   3.096   6.214   3.574
   51DPPC   C45 2545   3.150   6.123   3.684
   51DPPC   C46 2546   3.087   6.173   3.814
   51DPPC   C47 2547   2.943   6.126   3.794
   51DPPC   C48 2548   2.857   6.184   3.907
   51DPPC   C49 2549   2.716   6.125   3.905
   51DPPC   C50 2550   2.653   6.184   4.031
   52DPPC    C1 2551   0.792   6.103   1.600
   52DPPC    C2 2552   0.846   6.177   1.810
   52DPPC    C3 2553   1.022   6.135   1.662
   52DPPC    N4 2554   0.887   6.192   1.670
   52DPPC    C5 2555   0.850   6.329   1.630
   52DPPC    C6 2556   0.938   6.441   1.684
   52DPPC    O7 2557   0.908   6.479   1.819
   52DPPC    P8 2558   1.016   6.567   1.899
   52DPPC    O9 2559   0.943   6.600   2.024
   52DPPC   O10 2560   1.066   6.672   1.807
   52DPPC   O11 2561   1.121   6.446   1.902
   52DPPC   C12 2562   1.096   6.368   2.020
   52DPPC   C13 2563   1.169   6.236   1.994
   52DPPC   O14 2564   1.112   6.137   2.080
   52DPPC   C15 2565   1.107   6.003   2.054
   52DPPC   O16 2566   1.158   5.956   1.952
   52DPPC   C17 2567   1.033   5.929   2.165
   52DPPC   C18 2568   0.888   5.891   2.132
   52DPPC   C19 2569   0.834   5.803   2.244
   52DPPC   C20 2570   0.685   5.783   2.220
   52DPPC   C21 2571   0.637   5.646   2.270
   52DPPC   C22 2572   0.629   5.640   2.423
   52DPPC   C23 2573   0.590   5.499   2.466
   52DPPC   C24 2574   0.561   5.483   2.615
   52DPPC   C25 2575   0.446   5.568   2.670
   52DPPC   C26 2576   0.416   5.550   2.818
   52DPPC   C27 2577   0.291   5.634   2.846
   52DPPC   C28 2578   0.245   5.621   2.991
   52DPPC   C29 2579   0.136   5.726   3.016
   52DPPC   C30 2580   0.109   5.718   3.166
   52DPPC   C31 2581  -0.006   5.814   3.198
   52DPPC   C32 2582   1.319   6.260   2.009
   52DPPC   O33 2583   1.363   6.304   2.138
   52DPPC   C34 2584   1.493   6.321   2.172
   52DPPC   O35 2585   1.581   6.316   2.086
   52DPPC   C36 2586   1.514   6.384   2.310
   52DPPC   C37 2587   1.631   6.326   2.390
   52DPPC   C38 2588   1.624   6.174   2.374
   52DPPC   C39 2589   1.756   6.109   2.415
   52DPPC   C40 2590   1.775   6.137   2.564
   52DPPC   C41 2591   1.896   6.065   2.623
   52DPPC   C42 2592   1.966   6.154   2.726
   52DPPC   C43 2593   1.888   6.178   2.855
   52DPPC   C44 2594   1.847   6.043   2.914
   52DPPC   C45 2595   1.754   6.061   3.034
   52DPPC   C46 2596   1.717   5.922   3.085
   52DPPC   C47 2597   1.719   5.921   3.238
   52DPPC   C48 2598   1.851   5.980   3.287
   52DPPC   C49 2599   1.870   6.019   3.434
   52DPPC   C50 2600   2.018   6.057   3.438
   53DPPC    C1 2601   4.682   3.320   1.494
   53DPPC    C2 2602   4.465   3.230   1.565
   53DPPC    C3 2603   4.549   3.189   1.350
   53DPPC    N4 2604   4.589   3.206   1.490
   53DPPC    C5 2605   4.655   3.083   1.538
   53DPPC    C6 2606   4.704   3.081   1.683
   53DPPC    O7 2607   4.779   2.961   1.704
   53DPPC    P8 2608   4.736   2.917   1.853
   53DPPC    O9 2609   4.803   2.787   1.878
   53DPPC   O10 2610   4.591   2.940   1.869
   53DPPC   O11 2611   4.809   3.051   1.905
   53DPPC   C12 2612   4.907   3.035   2.008
   53DPPC   C13 2613   4.989   3.159   2.042
   53DPPC   O14 2614   5.106   3.133   2.120
   53DPPC   C15 2615   5.207   3.224   2.123
   53DPPC   O16 2616   5.203   3.326   2.054
   53DPPC   C17 2617   5.301   3.221   2.244
   53DPPC   C18 2618   5.220   3.197   2.371
   53DPPC   C19 2619   5.121   3.310   2.399
   53DPPC   C20 2620   5.029   3.282   2.518
   53DPPC   C21 2621   4.963   3.144   2.506
   53DPPC   C22 2622   4.911   3.095   2.641
   53DPPC   C23 2623   4.831   3.204   2.714
   53DPPC   C24 2624   4.817   3.171   2.863
   53DPPC   C25 2625   4.726   3.270   2.935
   53DPPC   C26 2626   4.731   3.232   3.084
   53DPPC   C27 2627   4.626   3.313   3.160
   53DPPC   C28 2628   4.634   3.274   3.308
   53DPPC   C29 2629   4.624   3.129   3.358
   53DPPC   C30 2630   4.620   3.127   3.511
   53DPPC   C31 2631   4.583   2.989   3.567
   53DPPC   C32 2632   4.894   3.272   2.083
   53DPPC   O33 2633   4.791   3.251   2.180
   53DPPC   C34 2634   4.709   3.358   2.199
   53DPPC   O35 2635   4.741   3.469   2.157
   53DPPC   C36 2636   4.580   3.323   2.273
   53DPPC   C37 2637   4.601   3.299   2.423
   53DPPC   C38 2638   4.461   3.274   2.479
   53DPPC   C39 2639   4.471   3.283   2.631
   53DPPC   C40 2640   4.348   3.235   2.708
   53DPPC   C41 2641   4.370   3.237   2.859
   53DPPC   C42 2642   4.236   3.212   2.927
   53DPPC   C43 2643   4.261   3.235   3.076
   53DPPC   C44 2644   4.138   3.181   3.149
   53DPPC   C45 2645   4.187   3.203   3.293
   53DPPC   C46 2646   4.081   3.170   3.398
   53DPPC   C47 2647   4.158   3.204   3.525
   53DPPC   C48 2648   4.097   3.150   3.655
   53DPPC   C49 2649   4.200   3.164   3.767
   53DPPC   C50 2650   4.148   3.092   3.892
   54DPPC    C1 2651   6.227   0.313   1.972
   54DPPC    C2 2652   6.162   0.243   1.754
   54DPPC    C3 2653   6.332   0.417   1.776
   54DPPC    N4 2654   6.275   0.294   1.834
   54DPPC    C5 2655   6.368   0.181   1.835
   54DPPC    C6 2656   6.507   0.199   1.896
   54DPPC    O7 2657   6.514   0.214   2.038
   54DPPC    P8 2658   6.644   0.295   2.088
   54DPPC    O9 2659   6.613   0.427   2.028
   54DPPC   O10 2660   6.753   0.204   2.048
   54DPPC   O11 2661   6.608   0.284   2.244
   54DPPC   C12 2662   6.485   0.355   2.263
   54DPPC   C13 2663   6.463   0.392   2.410
   54DPPC   O14 2664   6.539   0.511   2.440
   54DPPC   C15 2665   6.496   0.634   2.400
   54DPPC   O16 2666   6.391   0.648   2.338
   54DPPC   C17 2667   6.596   0.743   2.439
   54DPPC   C18 2668   6.657   0.723   2.577
   54DPPC   C19 2669   6.558   0.718   2.694
   54DPPC   C20 2670   6.608   0.691   2.836
   54DPPC   C21 2671   6.500   0.674   2.943
   54DPPC   C22 2672   6.554   0.649   3.083
   54DPPC   C23 2673   6.439   0.647   3.184
   54DPPC   C24 2674   6.473   0.625   3.331
   54DPPC   C25 2675   6.344   0.599   3.408
   54DPPC   C26 2676   6.248   0.718   3.396
   54DPPC   C27 2677   6.301   0.838   3.475
   54DPPC   C28 2678   6.182   0.926   3.514
   54DPPC   C29 2679   6.217   1.029   3.622
   54DPPC   C30 2680   6.116   1.034   3.737
   54DPPC   C31 2681   6.171   1.111   3.857
   54DPPC   C32 2682   6.497   0.262   2.483
   54DPPC   O33 2683   6.481   0.261   2.625
   54DPPC   C34 2684   6.505   0.139   2.680
   54DPPC   O35 2685   6.580   0.068   2.614
   54DPPC   C36 2686   6.464   0.097   2.822
   54DPPC   C37 2687   6.481   0.205   2.929
   54DPPC   C38 2688   6.526   0.134   3.057
   54DPPC   C39 2689   6.531   0.244   3.164
   54DPPC   C40 2690   6.592   0.190   3.293
   54DPPC   C41 2691   6.603   0.298   3.400
   54DPPC   C42 2692   6.645   0.232   3.532
   54DPPC   C43 2693   6.654   0.333   3.647
   54DPPC   C44 2694   6.676   0.261   3.780
   54DPPC   C45 2695   6.688   0.356   3.900
   54DPPC   C46 2696   6.718   0.278   4.028
   54DPPC   C47 2697   6.701   0.366   4.152
   54DPPC   C48 2698   6.747   0.308   4.285
   54DPPC   C49 2699   6.896   0.274   4.293
   54DPPC   C50 2700   6.958   0.281   4.433
   55DPPC    C1 2701   0.254   7.192   1.919
   55DPPC    C2 2702   0.366   7.388   1.994
   55DPPC    C3 2703   0.399   7.296   1.769
   55DPPC    N4 2704   0.304   7.323   1.878
   55DPPC    C5 2705   0.190   7.409   1.840
   55DPPC    C6 2706   0.110   7.400   1.710
   55DPPC    O7 2707   0.013   7.504   1.698
   55DPPC    P8 2708  -0.064   7.497   1.557
   55DPPC    O9 2709   0.019   7.407   1.474
   55DPPC   O10 2710  -0.115   7.630   1.516
   55DPPC   O11 2711  -0.186   7.416   1.624
   55DPPC   C12 2712  -0.245   7.499   1.725
   55DPPC   C13 2713  -0.328   7.407   1.815
   55DPPC   O14 2714  -0.411   7.469   1.914
   55DPPC   C15 2715  -0.543   7.437   1.905
   55DPPC   O16 2716  -0.596   7.387   1.806
   55DPPC   C17 2717  -0.636   7.473   2.021
   55DPPC   C18 2718  -0.650   7.371   2.134
   55DPPC   C19 2719  -0.680   7.228   2.089
   55DPPC   C20 2720  -0.661   7.141   2.214
   55DPPC   C21 2721  -0.667   6.992   2.180
   55DPPC   C22 2722  -0.642   6.910   2.307
   55DPPC   C23 2723  -0.755   6.943   2.405
   55DPPC   C24 2724  -0.709   6.902   2.545
   55DPPC   C25 2725  -0.592   6.977   2.610
   55DPPC   C26 2726  -0.564   6.927   2.752
   55DPPC   C27 2727  -0.438   6.984   2.817
   55DPPC   C28 2728  -0.449   6.938   2.963
   55DPPC   C29 2729  -0.324   6.949   3.050
   55DPPC   C30 2730  -0.346   6.897   3.193
   55DPPC   C31 2731  -0.446   6.997   3.251
   55DPPC   C32 2732  -0.218   7.319   1.876
   55DPPC   O33 2733  -0.247   7.225   1.980
   55DPPC   C34 2734  -0.139   7.160   2.031
   55DPPC   O35 2735  -0.029   7.159   1.977
   55DPPC   C36 2736  -0.168   7.053   2.137
   55DPPC   C37 2737  -0.221   7.115   2.266
   55DPPC   C38 2738  -0.134   7.223   2.331
   55DPPC   C39 2739  -0.195   7.246   2.470
   55DPPC   C40 2740  -0.342   7.289   2.463
   55DPPC   C41 2741  -0.383   7.301   2.610
   55DPPC   C42 2742  -0.278   7.372   2.695
   55DPPC   C43 2743  -0.314   7.390   2.843
   55DPPC   C44 2744  -0.202   7.467   2.912
   55DPPC   C45 2745  -0.208   7.454   3.064
   55DPPC   C46 2746  -0.191   7.307   3.104
   55DPPC   C47 2747  -0.176   7.292   3.255
   55DPPC   C48 2748  -0.305   7.350   3.314
   55DPPC   C49 2749  -0.308   7.308   3.461
   55DPPC   C50 2750  -0.207   7.383   3.548
   56DPPC    C1 2751   4.208   1.925   2.511
   56DPPC    C2 2752   4.259   1.871   2.734
   56DPPC    C3 2753   4.289   1.710   2.556
   56DPPC    N4 2754   4.303   1.851   2.595
   56DPPC    C5 2755   4.439   1.904   2.576
   56DPPC    C6 2756   4.516   1.871   2.448
   56DPPC    O7 2757   4.630   1.957   2.442
   56DPPC    P8 2758   4.684   1.968   2.291
   56DPPC    O9 2759   4.562   1.978   2.208
   56DPPC   O10 2760   4.790   1.868   2.267
   56DPPC   O11 2761   4.756   2.112   2.297
   56DPPC   C12 2762   4.826   2.128   2.420
   56DPPC   C13 2763   4.916   2.251   2.427
   56DPPC   O14 2764   5.011   2.242   2.534
   56DPPC   C15 2765   5.105   2.338   2.556
   56DPPC   O16 2766   5.120   2.430   2.476
   56DPPC   C17 2767   5.169   2.331   2.695
   56DPPC   C18 2768   5.319   2.307   2.673
   56DPPC   C19 2769   5.388   2.298   2.809
   56DPPC   C20 2770   5.366   2.174   2.895
   56DPPC   C21 2771   5.442   2.194   3.026
   56DPPC   C22 2772   5.432   2.081   3.128
   56DPPC   C23 2773   5.515   2.104   3.255
   56DPPC   C24 2774   5.541   1.977   3.335
   56DPPC   C25 2775   5.640   2.019   3.444
   56DPPC   C26 2776   5.657   1.889   3.523
   56DPPC   C27 2777   5.736   1.907   3.653
   56DPPC   C28 2778   5.652   1.992   3.748
   56DPPC   C29 2779   5.716   2.025   3.882
   56DPPC   C30 2780   5.606   2.053   3.985
   56DPPC   C31 2781   5.515   2.149   3.908
   56DPPC   C32 2782   4.826   2.375   2.415
   56DPPC   O33 2783   4.711   2.361   2.498
   56DPPC   C34 2784   4.610   2.450   2.477
   56DPPC   O35 2785   4.628   2.546   2.402
   56DPPC   C36 2786   4.467   2.412   2.517
   56DPPC   C37 2787   4.475   2.339   2.652
   56DPPC   C38 2788   4.342   2.285   2.703
   56DPPC   C39 2789   4.354   2.287   2.855
   56DPPC   C40 2790   4.395   2.429   2.896
   56DPPC   C41 2791   4.376   2.427   3.048
   56DPPC   C42 2792   4.483   2.339   3.112
   56DPPC   C43 2793   4.454   2.339   3.262
   56DPPC   C44 2794   4.535   2.241   3.347
   56DPPC   C45 2795   4.488   2.236   3.492
   56DPPC   C46 2796   4.492   2.378   3.550
   56DPPC   C47 2797   4.468   2.389   3.701
   56DPPC   C48 2798   4.451   2.533   3.749
   56DPPC   C49 2799   4.444   2.511   3.900
   56DPPC   C50 2800   4.566   2.442   3.961
   57DPPC    C1 2801   5.715   7.076   2.200
   57DPPC    C2 2802   5.524   6.958   2.255
   57DPPC    C3 2803   5.609   6.940   2.025
   57DPPC    N4 2804   5.642   6.952   2.168
   57DPPC    C5 2805   5.735   6.844   2.206
   57DPPC    C6 2806   5.686   6.699   2.194
   57DPPC    O7 2807   5.793   6.604   2.183
   57DPPC    P8 2808   5.734   6.463   2.134
   57DPPC    O9 2809   5.850   6.393   2.075
   57DPPC   O10 2810   5.613   6.491   2.055
   57DPPC   O11 2811   5.691   6.404   2.278
   57DPPC   C12 2812   5.815   6.376   2.344
   57DPPC   C13 2813   5.822   6.425   2.488
   57DPPC   O14 2814   5.949   6.379   2.539
   57DPPC   C15 2815   6.028   6.477   2.590
   57DPPC   O16 2816   5.971   6.586   2.585
   57DPPC   C17 2817   6.169   6.441   2.637
   57DPPC   C18 2818   6.174   6.394   2.782
   57DPPC   C19 2819   6.133   6.511   2.871
   57DPPC   C20 2820   6.112   6.473   3.018
   57DPPC   C21 2821   6.029   6.577   3.093
   57DPPC   C22 2822   6.015   6.530   3.238
   57DPPC   C23 2823   5.939   6.620   3.335
   57DPPC   C24 2824   5.968   6.583   3.481
   57DPPC   C25 2825   5.902   6.446   3.495
   57DPPC   C26 2826   5.919   6.379   3.632
   57DPPC   C27 2827   5.844   6.446   3.747
   57DPPC   C28 2828   5.856   6.366   3.876
   57DPPC   C29 2829   5.744   6.386   3.979
   57DPPC   C30 2830   5.764   6.335   4.122
   57DPPC   C31 2831   5.627   6.320   4.188
   57DPPC   C32 2832   5.704   6.368   2.567
   57DPPC   O33 2833   5.715   6.233   2.614
   57DPPC   C34 2834   5.597   6.171   2.639
   57DPPC   O35 2835   5.496   6.219   2.587
   57DPPC   C36 2836   5.603   6.034   2.706
   57DPPC   C37 2837   5.479   6.039   2.796
   57DPPC   C38 2838   5.493   5.943   2.914
   57DPPC   C39 2839   5.367   5.942   3.000
   57DPPC   C40 2840   5.387   5.864   3.129
   57DPPC   C41 2841   5.254   5.873   3.205
   57DPPC   C42 2842   5.265   5.817   3.347
   57DPPC   C43 2843   5.132   5.802   3.422
   57DPPC   C44 2844   5.151   5.719   3.549
   57DPPC   C45 2845   5.014   5.696   3.612
   57DPPC   C46 2846   5.038   5.614   3.739
   57DPPC   C47 2847   5.072   5.468   3.707
   57DPPC   C48 2848   5.175   5.419   3.809
   57DPPC   C49 2849   5.124   5.398   3.951
   57DPPC   C50 2850   5.238   5.397   4.054
   58DPPC    C1 2851   8.469   6.932   1.535
   58DPPC    C2 2852   8.492   7.145   1.429
   58DPPC    C3 2853   8.287   7.096   1.536
   58DPPC    N4 2854   8.432   7.075   1.543
   58DPPC    C5 2855   8.480   7.128   1.672
   58DPPC    C6 2856   8.418   7.256   1.727
   58DPPC    O7 2857   8.461   7.377   1.662
   58DPPC    P8 2858   8.338   7.480   1.663
   58DPPC    O9 2859   8.220   7.402   1.619
   58DPPC   O10 2860   8.375   7.605   1.594
   58DPPC   O11 2861   8.336   7.495   1.824
   58DPPC   C12 2862   8.422   7.602   1.864
   58DPPC   C13 2863   8.439   7.632   2.013
   58DPPC   O14 2864   8.541   7.732   2.020
   58DPPC   C15 2865   8.496   7.860   2.014
   58DPPC   O16 2866   8.380   7.895   1.992
   58DPPC   C17 2867   8.607   7.964   2.028
   58DPPC   C18 2868   8.571   8.050   2.149
   58DPPC   C19 2869   8.671   8.155   2.198
   58DPPC   C20 2870   8.636   8.214   2.334
   58DPPC   C21 2871   8.638   8.108   2.445
   58DPPC   C22 2872   8.615   8.167   2.584
   58DPPC   C23 2873   8.580   8.051   2.677
   58DPPC   C24 2874   8.596   8.083   2.826
   58DPPC   C25 2875   8.520   7.983   2.912
   58DPPC   C26 2876   8.507   8.030   3.057
   58DPPC   C27 2877   8.441   7.925   3.147
   58DPPC   C28 2878   8.463   7.943   3.297
   58DPPC   C29 2879   8.609   7.910   3.329
   58DPPC   C30 2880   8.631   7.903   3.480
   58DPPC   C31 2881   8.781   7.912   3.507
   58DPPC   C32 2882   8.474   7.497   2.075
   58DPPC   O33 2883   8.444   7.488   2.215
   58DPPC   C34 2884   8.443   7.360   2.258
   58DPPC   O35 2885   8.453   7.270   2.175
   58DPPC   C36 2886   8.446   7.342   2.410
   58DPPC   C37 2887   8.592   7.318   2.452
   58DPPC   C38 2888   8.589   7.310   2.605
   58DPPC   C39 2889   8.727   7.272   2.661
   58DPPC   C40 2890   8.751   7.329   2.801
   58DPPC   C41 2891   8.648   7.280   2.902
   58DPPC   C42 2892   8.722   7.292   3.035
   58DPPC   C43 2893   8.664   7.178   3.118
   58DPPC   C44 2894   8.708   7.041   3.066
   58DPPC   C45 2895   8.643   6.933   3.152
   58DPPC   C46 2896   8.656   6.942   3.304
   58DPPC   C47 2897   8.586   6.831   3.383
   58DPPC   C48 2898   8.642   6.809   3.524
   58DPPC   C49 2899   8.588   6.682   3.590
   58DPPC   C50 2900   8.647   6.661   3.730
   59DPPC    C1 2901   0.920   5.345   2.043
   59DPPC    C2 2902   0.746   5.177   2.056
   59DPPC    C3 2903   0.721   5.377   1.930
   59DPPC    N4 2904   0.817   5.272   1.968
   59DPPC    C5 2905   0.881   5.206   1.854
   59DPPC    C6 2906   0.804   5.097   1.780
   59DPPC    O7 2907   0.664   5.115   1.757
   59DPPC    P8 2908   0.604   4.977   1.700
   59DPPC    O9 2909   0.712   4.878   1.678
   59DPPC   O10 2910   0.495   5.002   1.602
   59DPPC   O11 2911   0.527   4.924   1.831
   59DPPC   C12 2912   0.408   5.002   1.842
   59DPPC   C13 2913   0.346   5.020   1.981
   59DPPC   O14 2914   0.410   5.096   2.084
   59DPPC   C15 2915   0.330   5.197   2.126
   59DPPC   O16 2916   0.289   5.288   2.055
   59DPPC   C17 2917   0.371   5.236   2.269
   59DPPC   C18 2918   0.264   5.260   2.375
   59DPPC   C19 2919   0.191   5.128   2.401
   59DPPC   C20 2920   0.120   5.111   2.536
   59DPPC   C21 2921   0.234   5.128   2.636
   59DPPC   C22 2922   0.191   5.119   2.783
   59DPPC   C23 2923   0.311   5.176   2.858
   59DPPC   C24 2924   0.444   5.101   2.849
   59DPPC   C25 2925   0.555   5.197   2.893
   59DPPC   C26 2926   0.691   5.127   2.890
   59DPPC   C27 2927   0.683   4.998   2.973
   59DPPC   C28 2928   0.813   4.921   2.999
   59DPPC   C29 2929   0.865   4.879   2.862
   59DPPC   C30 2930   0.999   4.806   2.865
   59DPPC   C31 2931   1.026   4.734   2.732
   59DPPC   C32 2932   0.339   4.873   2.023
   59DPPC   O33 2933   0.231   4.847   2.113
   59DPPC   C34 2934   0.200   4.715   2.126
   59DPPC   O35 2935   0.244   4.638   2.040
   59DPPC   C36 2936   0.093   4.672   2.226
   59DPPC   C37 2937   0.033   4.797   2.290
   59DPPC   C38 2938  -0.105   4.763   2.347
   59DPPC   C39 2939  -0.179   4.892   2.382
   59DPPC   C40 2940  -0.305   4.878   2.468
   59DPPC   C41 2941  -0.362   5.017   2.493
   59DPPC   C42 2942  -0.483   5.014   2.586
   59DPPC   C43 2943  -0.436   4.956   2.719
   59DPPC   C44 2944  -0.550   4.938   2.819
   59DPPC   C45 2945  -0.495   4.848   2.930
   59DPPC   C46 2946  -0.386   4.918   3.011
   59DPPC   C47 2947  -0.304   4.817   3.093
   59DPPC   C48 2948  -0.405   4.784   3.203
   59DPPC   C49 2949  -0.453   4.904   3.286
   59DPPC   C50 2950  -0.542   4.843   3.394
   60DPPC    C1 2951   6.874   4.844   1.450
   60DPPC    C2 2952   6.664   4.751   1.537
   60DPPC    C3 2953   6.792   4.889   1.665
   60DPPC    N4 2954   6.751   4.869   1.525
   60DPPC    C5 2955   6.696   4.988   1.458
   60DPPC    C6 2956   6.573   5.052   1.523
   60DPPC    O7 2957   6.554   5.188   1.482
   60DPPC    P8 2958   6.498   5.280   1.602
   60DPPC    O9 2959   6.412   5.185   1.675
   60DPPC   O10 2960   6.458   5.401   1.527
   60DPPC   O11 2961   6.638   5.308   1.677
   60DPPC   C12 2962   6.652   5.244   1.804
   60DPPC   C13 2963   6.773   5.279   1.892
   60DPPC   O14 2964   6.785   5.188   2.002
   60DPPC   C15 2965   6.877   5.088   1.989
   60DPPC   O16 2966   6.941   5.076   1.885
   60DPPC   C17 2967   6.887   5.002   2.114
   60DPPC   C18 2968   6.800   4.878   2.093
   60DPPC   C19 2969   6.807   4.780   2.210
   60DPPC   C20 2970   6.701   4.672   2.189
   60DPPC   C21 2971   6.681   4.573   2.304
   60DPPC   C22 2972   6.620   4.648   2.422
   60DPPC   C23 2973   6.615   4.546   2.536
   60DPPC   C24 2974   6.574   4.611   2.668
   60DPPC   C25 2975   6.526   4.507   2.770
   60DPPC   C26 2976   6.513   4.562   2.913
   60DPPC   C27 2977   6.443   4.463   3.007
   60DPPC   C28 2978   6.512   4.327   2.990
   60DPPC   C29 2979   6.465   4.233   3.101
   60DPPC   C30 2980   6.494   4.084   3.083
   60DPPC   C31 2981   6.490   4.009   3.217
   60DPPC   C32 2982   6.763   5.427   1.933
   60DPPC   O33 2983   6.631   5.460   1.978
   60DPPC   C34 2984   6.618   5.591   2.011
   60DPPC   O35 2985   6.698   5.676   1.972
   60DPPC   C36 2986   6.496   5.630   2.095
   60DPPC   C37 2987   6.505   5.613   2.247
   60DPPC   C38 2988   6.372   5.667   2.300
   60DPPC   C39 2989   6.397   5.751   2.426
   60DPPC   C40 2990   6.261   5.800   2.474
   60DPPC   C41 2991   6.264   5.891   2.597
   60DPPC   C42 2992   6.119   5.908   2.640
   60DPPC   C43 2993   6.109   6.000   2.762
   60DPPC   C44 2994   5.964   6.007   2.811
   60DPPC   C45 2995   5.971   6.104   2.930
   60DPPC   C46 2996   6.062   6.054   3.042
   60DPPC   C47 2997   6.063   6.131   3.175
   60DPPC   C48 2998   6.145   6.052   3.277
   60DPPC   C49 2999   6.146   6.157   3.387
   60DPPC   C50 3000   6.207   6.104   3.517
   61DPPC    C1 3001   3.996   0.331   2.369
   61DPPC    C2 3002   4.029   0.224   2.177
   61DPPC    C3 3003   3.801   0.254   2.234
   61DPPC    N4 3004   3.933   0.319   2.237
   61DPPC    C5 3005   3.929   0.446   2.164
   61DPPC    C6 3006   3.838   0.558   2.214
   61DPPC    O7 3007   3.900   0.655   2.300
   61DPPC    P8 3008   3.788   0.766   2.328
   61DPPC    O9 3009   3.662   0.711   2.382
   61DPPC   O10 3010   3.803   0.877   2.232
   61DPPC   O11 3011   3.867   0.826   2.455
   61DPPC   C12 3012   3.887   0.717   2.546
   61DPPC   C13 3013   3.925   0.763   2.686
   61DPPC   O14 3014   3.963   0.654   2.772
   61DPPC   C15 3015   4.096   0.644   2.796
   61DPPC   O16 3016   4.167   0.684   2.704
   61DPPC   C17 3017   4.142   0.535   2.893
   61DPPC   C18 3018   4.058   0.407   2.904
   61DPPC   C19 3019   4.127   0.303   2.992
   61DPPC   C20 3020   4.263   0.246   2.951
   61DPPC   C21 3021   4.272   0.109   3.018
   61DPPC   C22 3022   4.398   0.032   2.977
   61DPPC   C23 3023   4.525   0.112   3.006
   61DPPC   C24 3024   4.651   0.039   2.958
   61DPPC   C25 3025   4.773   0.129   2.937
   61DPPC   C26 3026   4.912   0.074   2.969
   61DPPC   C27 3027   5.018   0.108   2.864
   61DPPC   C28 3028   5.149   0.034   2.889
   61DPPC   C29 3029   5.135  -0.116   2.916
   61DPPC   C30 3030   5.050  -0.199   2.820
   61DPPC   C31 3031   5.061  -0.344   2.869
   61DPPC   C32 3032   3.811   0.857   2.726
   61DPPC   O33 3033   3.841   0.941   2.838
   61DPPC   C34 3034   3.743   1.024   2.883
   61DPPC   O35 3035   3.643   1.039   2.812
   61DPPC   C36 3036   3.778   1.121   2.996
   61DPPC   C37 3037   3.742   1.062   3.132
   61DPPC   C38 3038   3.769   1.169   3.237
   61DPPC   C39 3039   3.741   1.118   3.379
   61DPPC   C40 3040   3.596   1.071   3.390
   61DPPC   C41 3041   3.590   0.946   3.479
   61DPPC   C42 3042   3.442   0.907   3.484
   61DPPC   C43 3043   3.439   0.793   3.586
   61DPPC   C44 3044   3.306   0.717   3.592
   61DPPC   C45 3045   3.325   0.610   3.699
   61DPPC   C46 3046   3.363   0.664   3.837
   61DPPC   C47 3047   3.264   0.760   3.904
   61DPPC   C48 3048   3.321   0.779   4.045
   61DPPC   C49 3049   3.213   0.847   4.129
   61DPPC   C50 3050   3.243   0.839   4.278
   62DPPC    C1 3051   7.796   4.457   1.257
   62DPPC    C2 3052   7.609   4.303   1.321
   62DPPC    C3 3053   7.735   4.422   1.478
   62DPPC    N4 3054   7.680   4.430   1.342
   62DPPC    C5 3055   7.598   4.550   1.318
   62DPPC    C6 3056   7.452   4.551   1.363
   62DPPC    O7 3057   7.446   4.573   1.504
   62DPPC    P8 3058   7.299   4.556   1.567
   62DPPC    O9 3059   7.310   4.450   1.670
   62DPPC   O10 3060   7.213   4.556   1.446
   62DPPC   O11 3061   7.293   4.705   1.628
   62DPPC   C12 3062   7.385   4.714   1.736
   62DPPC   C13 3063   7.345   4.830   1.829
   62DPPC   O14 3064   7.430   4.853   1.942
   62DPPC   C15 3065   7.422   4.978   1.995
   62DPPC   O16 3066   7.409   5.074   1.919
   62DPPC   C17 3067   7.476   4.989   2.138
   62DPPC   C18 3068   7.379   5.027   2.250
   62DPPC   C19 3069   7.262   4.928   2.256
   62DPPC   C20 3070   7.210   4.953   2.398
   62DPPC   C21 3071   7.064   4.913   2.422
   62DPPC   C22 3072   7.023   4.951   2.565
   62DPPC   C23 3073   6.886   4.899   2.607
   62DPPC   C24 3074   6.843   4.941   2.747
   62DPPC   C25 3075   6.699   4.913   2.788
   62DPPC   C26 3076   6.593   4.964   2.690
   62DPPC   C27 3077   6.449   4.937   2.736
   62DPPC   C28 3078   6.331   4.952   2.639
   62DPPC   C29 3079   6.198   4.929   2.710
   62DPPC   C30 3080   6.211   4.797   2.788
   62DPPC   C31 3081   6.074   4.765   2.848
   62DPPC   C32 3082   7.195   4.821   1.857
   62DPPC   O33 3083   7.173   4.695   1.922
   62DPPC   C34 3084   7.045   4.650   1.928
   62DPPC   O35 3085   6.964   4.685   1.842
   62DPPC   C36 3086   7.030   4.528   2.019
   62DPPC   C37 3087   7.125   4.531   2.139
   62DPPC   C38 3088   7.094   4.423   2.243
   62DPPC   C39 3089   7.180   4.442   2.368
   62DPPC   C40 3090   7.126   4.383   2.499
   62DPPC   C41 3091   6.986   4.437   2.528
   62DPPC   C42 3092   6.934   4.399   2.667
   62DPPC   C43 3093   7.034   4.437   2.777
   62DPPC   C44 3094   6.973   4.411   2.914
   62DPPC   C45 3095   6.937   4.262   2.911
   62DPPC   C46 3096   6.901   4.214   3.052
   62DPPC   C47 3097   6.873   4.066   3.079
   62DPPC   C48 3098   6.834   4.051   3.226
   62DPPC   C49 3099   6.918   4.125   3.330
   62DPPC   C50 3100   6.846   4.128   3.465
   63DPPC    C1 3101   7.812   8.498   1.176
   63DPPC    C2 3102   7.787   8.275   1.160
   63DPPC    C3 3103   7.981   8.349   1.269
   63DPPC    N4 3104   7.837   8.376   1.255
   63DPPC    C5 3105   7.753   8.364   1.375
   63DPPC    C6 3106   7.813   8.416   1.506
   63DPPC    O7 3107   7.823   8.556   1.534
   63DPPC    P8 3108   7.892   8.551   1.680
   63DPPC    O9 3109   7.927   8.692   1.703
   63DPPC   O10 3110   7.996   8.446   1.668
   63DPPC   O11 3111   7.769   8.494   1.767
   63DPPC   C12 3112   7.707   8.605   1.831
   63DPPC   C13 3113   7.583   8.571   1.914
   63DPPC   O14 3114   7.511   8.686   1.959
   63DPPC   C15 3115   7.399   8.714   1.887
   63DPPC   O16 3116   7.372   8.660   1.780
   63DPPC   C17 3117   7.310   8.824   1.945
   63DPPC   C18 3118   7.381   8.898   2.059
   63DPPC   C19 3119   7.277   8.970   2.144
   63DPPC   C20 3120   7.332   9.043   2.267
   63DPPC   C21 3121   7.237   9.085   2.379
   63DPPC   C22 3122   7.300   9.061   2.517
   63DPPC   C23 3123   7.203   9.125   2.616
   63DPPC   C24 3124   7.194   9.075   2.760
   63DPPC   C25 3125   7.088   9.159   2.832
   63DPPC   C26 3126   7.040   9.104   2.966
   63DPPC   C27 3127   7.147   9.109   3.075
   63DPPC   C28 3128   7.101   9.070   3.216
   63DPPC   C29 3129   7.062   8.924   3.238
   63DPPC   C30 3130   7.025   8.898   3.385
   63DPPC   C31 3131   7.140   8.812   3.438
   63DPPC   C32 3132   7.636   8.494   2.035
   63DPPC   O33 3133   7.752   8.552   2.096
   63DPPC   C34 3134   7.801   8.482   2.202
   63DPPC   O35 3135   7.732   8.398   2.260
   63DPPC   C36 3136   7.924   8.551   2.261
   63DPPC   C37 3137   7.906   8.601   2.405
   63DPPC   C38 3138   7.836   8.737   2.410
   63DPPC   C39 3139   7.812   8.776   2.556
   63DPPC   C40 3140   7.743   8.912   2.571
   63DPPC   C41 3141   7.728   8.954   2.717
   63DPPC   C42 3142   7.658   9.090   2.718
   63DPPC   C43 3143   7.620   9.138   2.858
   63DPPC   C44 3144   7.548   9.272   2.869
   63DPPC   C45 3145   7.570   9.344   3.002
   63DPPC   C46 3146   7.498   9.260   3.107
   63DPPC   C47 3147   7.506   9.329   3.244
   63DPPC   C48 3148   7.424   9.263   3.355
   63DPPC   C49 3149   7.435   9.342   3.485
   63DPPC   C50 3150   7.355   9.279   3.599
   64DPPC    C1 3151   3.421   0.059   2.111
   64DPPC    C2 3152   3.342  -0.008   1.898
   64DPPC    C3 3153   3.218   0.162   2.019
   64DPPC    N4 3154   3.351   0.106   1.991
   64DPPC    C5 3155   3.446   0.194   1.921
   64DPPC    C6 3156   3.513   0.313   1.989
   64DPPC    O7 3157   3.421   0.408   2.042
   64DPPC    P8 3158   3.486   0.527   2.128
   64DPPC    O9 3159   3.377   0.615   2.174
   64DPPC   O10 3160   3.598   0.573   2.042
   64DPPC   O11 3161   3.542   0.442   2.252
   64DPPC   C12 3162   3.424   0.428   2.332
   64DPPC   C13 3163   3.447   0.377   2.474
   64DPPC   O14 3164   3.318   0.360   2.534
   64DPPC   C15 3165   3.236   0.257   2.499
   64DPPC   O16 3166   3.268   0.182   2.407
   64DPPC   C17 3167   3.102   0.250   2.571
   64DPPC   C18 3168   3.126   0.232   2.721
   64DPPC   C19 3169   3.164   0.366   2.784
   64DPPC   C20 3170   3.172   0.352   2.936
   64DPPC   C21 3171   3.043   0.296   2.997
   64DPPC   C22 3172   3.057   0.283   3.149
   64DPPC   C23 3173   3.185   0.213   3.196
   64DPPC   C24 3174   3.235   0.278   3.325
   64DPPC   C25 3175   3.361   0.221   3.389
   64DPPC   C26 3176   3.320   0.102   3.476
   64DPPC   C27 3177   3.447   0.022   3.507
   64DPPC   C28 3178   3.398  -0.104   3.579
   64DPPC   C29 3179   3.515  -0.203   3.580
   64DPPC   C30 3180   3.544  -0.256   3.439
   64DPPC   C31 3181   3.626  -0.384   3.455
   64DPPC   C32 3182   3.537   0.484   2.537
   64DPPC   O33 3183   3.577   0.442   2.667
   64DPPC   C34 3184   3.670   0.342   2.667
   64DPPC   O35 3185   3.738   0.319   2.568
   64DPPC   C36 3186   3.704   0.278   2.802
   64DPPC   C37 3187   3.593   0.189   2.859
   64DPPC   C38 3188   3.603   0.204   3.011
   64DPPC   C39 3189   3.736   0.161   3.072
   64DPPC   C40 3190   3.741   0.008   3.059
   64DPPC   C41 3191   3.883  -0.039   3.089
   64DPPC   C42 3192   3.924   0.016   3.225
   64DPPC   C43 3193   4.043  -0.059   3.286
   64DPPC   C44 3194   3.993  -0.203   3.305
   64DPPC   C45 3195   4.104  -0.293   3.360
   64DPPC   C46 3196   4.045  -0.419   3.425
   64DPPC   C47 3197   4.160  -0.514   3.460
   64DPPC   C48 3198   4.098  -0.646   3.507
   64DPPC   C49 3199   4.212  -0.746   3.527
   64DPPC   C50 3200   4.283  -0.771   3.393
   65DPPC    C1 3201   2.384   5.119   5.828
   65DPPC    C2 3202   2.563   5.090   5.676
   65DPPC    C3 3203   2.548   4.951   5.872
   65DPPC    N4 3204   2.471   5.018   5.766
   65DPPC    C5 3205   2.389   4.911   5.708
   65DPPC    C6 3206   2.441   4.791   5.630
   65DPPC    O7 3207   2.348   4.682   5.620
   65DPPC    P8 3208   2.428   4.549   5.578
   65DPPC    O9 3209   2.312   4.458   5.572
   65DPPC   O10 3210   2.542   4.537   5.672
   65DPPC   O11 3211   2.488   4.594   5.435
   65DPPC   C12 3212   2.411   4.546   5.325
   65DPPC   C13 3213   2.471   4.593   5.193
   65DPPC   O14 3214   2.381   4.589   5.081
   65DPPC   C15 3215   2.287   4.685   5.058
   65DPPC   O16 3216   2.277   4.776   5.140
   65DPPC   C17 3217   2.233   4.697   4.916
   65DPPC   C18 3218   2.271   4.827   4.844
   65DPPC   C19 3219   2.422   4.850   4.831
   65DPPC   C20 3220   2.444   4.971   4.739
   65DPPC   C21 3221   2.591   4.982   4.697
   65DPPC   C22 3222   2.611   5.108   4.613
   65DPPC   C23 3223   2.500   5.101   4.507
   65DPPC   C24 3224   2.540   5.215   4.413
   65DPPC   C25 3225   2.677   5.182   4.353
   65DPPC   C26 3226   2.741   5.297   4.276
   65DPPC   C27 3227   2.885   5.256   4.241
   65DPPC   C28 3228   2.954   5.361   4.154
   65DPPC   C29 3229   3.097   5.311   4.131
   65DPPC   C30 3230   3.181   5.409   4.050
   65DPPC   C31 3231   3.320   5.346   4.039
   65DPPC   C32 3232   2.600   4.511   5.187
   65DPPC   O33 3233   2.597   4.369   5.200
   65DPPC   C34 3234   2.723   4.317   5.192
   65DPPC   O35 3235   2.824   4.385   5.206
   65DPPC   C36 3236   2.718   4.165   5.211
   65DPPC   C37 3237   2.655   4.068   5.111
   65DPPC   C38 3238   2.725   4.092   4.977
   65DPPC   C39 3239   2.670   4.005   4.864
   65DPPC   C40 3240   2.764   4.008   4.743
   65DPPC   C41 3241   2.725   3.940   4.611
   65DPPC   C42 3242   2.821   3.951   4.492
   65DPPC   C43 3243   2.809   4.090   4.428
   65DPPC   C44 3244   2.869   4.076   4.288
   65DPPC   C45 3245   2.825   4.197   4.206
   65DPPC   C46 3246   2.900   4.183   4.073
   65DPPC   C47 3247   2.824   4.113   3.960
   65DPPC   C48 3248   2.907   4.094   3.834
   65DPPC   C49 3249   2.828   4.008   3.736
   65DPPC   C50 3250   2.701   4.086   3.699
   66DPPC    C1 3251   8.109   1.346   1.607
   66DPPC    C2 3252   8.074   1.578   1.613
   66DPPC    C3 3253   8.163   1.476   1.802
   66DPPC    N4 3254   8.167   1.472   1.655
   66DPPC    C5 3255   8.290   1.503   1.581
   66DPPC    C6 3256   8.400   1.397   1.586
   66DPPC    O7 3257   8.514   1.450   1.518
   66DPPC    P8 3258   8.641   1.352   1.502
   66DPPC    O9 3259   8.765   1.404   1.441
   66DPPC   O10 3260   8.585   1.225   1.449
   66DPPC   O11 3261   8.661   1.333   1.660
   66DPPC   C12 3262   8.698   1.447   1.738
   66DPPC   C13 3263   8.653   1.421   1.882
   66DPPC   O14 3264   8.640   1.538   1.965
   66DPPC   C15 3265   8.524   1.608   1.947
   66DPPC   O16 3266   8.461   1.599   1.842
   66DPPC   C17 3267   8.480   1.704   2.058
   66DPPC   C18 3268   8.395   1.636   2.166
   66DPPC   C19 3269   8.344   1.716   2.285
   66DPPC   C20 3270   8.243   1.825   2.249
   66DPPC   C21 3271   8.145   1.856   2.362
   66DPPC   C22 3272   8.055   1.976   2.331
   66DPPC   C23 3273   7.935   1.972   2.427
   66DPPC   C24 3274   7.862   2.105   2.410
   66DPPC   C25 3275   7.733   2.119   2.490
   66DPPC   C26 3276   7.751   2.098   2.640
   66DPPC   C27 3277   7.634   2.117   2.736
   66DPPC   C28 3278   7.672   2.071   2.876
   66DPPC   C29 3279   7.551   2.090   2.969
   66DPPC   C30 3280   7.595   2.081   3.115
   66DPPC   C31 3281   7.484   2.104   3.218
   66DPPC   C32 3282   8.741   1.304   1.927
   66DPPC   O33 3283   8.715   1.250   2.056
   66DPPC   C34 3284   8.596   1.192   2.087
   66DPPC   O35 3285   8.495   1.217   2.022
   66DPPC   C36 3286   8.594   1.107   2.215
   66DPPC   C37 3287   8.628   1.187   2.341
   66DPPC   C38 3288   8.668   1.090   2.452
   66DPPC   C39 3289   8.694   1.154   2.588
   66DPPC   C40 3290   8.714   1.061   2.708
   66DPPC   C41 3291   8.841   0.975   2.700
   66DPPC   C42 3292   8.864   0.905   2.834
   66DPPC   C43 3293   8.881   0.992   2.959
   66DPPC   C44 3294   8.917   0.901   3.077
   66DPPC   C45 3295   8.906   0.985   3.204
   66DPPC   C46 3296   8.882   0.898   3.328
   66DPPC   C47 3297   9.003   0.805   3.339
   66DPPC   C48 3298   8.991   0.723   3.468
   66DPPC   C49 3299   9.102   0.622   3.498
   66DPPC   C50 3300   9.086   0.538   3.625
   67DPPC    C1 3301   4.869   3.025   6.148
   67DPPC    C2 3302   4.674   2.912   6.153
   67DPPC    C3 3303   4.687   3.084   5.998
   67DPPC    N4 3304   4.766   2.974   6.057
   67DPPC    C5 3305   4.822   2.875   5.964
   67DPPC    C6 3306   4.906   2.761   6.024
   67DPPC    O7 3307   4.997   2.699   5.934
   67DPPC    P8 3308   5.061   2.574   6.013
   67DPPC    O9 3309   5.008   2.551   6.150
   67DPPC   O10 3310   5.206   2.575   5.982
   67DPPC   O11 3311   4.993   2.457   5.926
   67DPPC   C12 3312   5.032   2.475   5.790
   67DPPC   C13 3313   4.978   2.367   5.696
   67DPPC   O14 3314   5.050   2.356   5.573
   67DPPC   C15 3315   5.157   2.272   5.574
   67DPPC   O16 3316   5.192   2.218   5.679
   67DPPC   C17 3317   5.241   2.256   5.447
   67DPPC   C18 3318   5.240   2.107   5.412
   67DPPC   C19 3319   5.310   2.104   5.276
   67DPPC   C20 3320   5.441   2.179   5.298
   67DPPC   C21 3321   5.525   2.179   5.171
   67DPPC   C22 3322   5.670   2.225   5.185
   67DPPC   C23 3323   5.749   2.216   5.054
   67DPPC   C24 3324   5.683   2.293   4.939
   67DPPC   C25 3325   5.770   2.296   4.814
   67DPPC   C26 3326   5.701   2.375   4.702
   67DPPC   C27 3327   5.779   2.354   4.572
   67DPPC   C28 3328   5.696   2.391   4.448
   67DPPC   C29 3329   5.762   2.361   4.314
   67DPPC   C30 3330   5.696   2.437   4.199
   67DPPC   C31 3331   5.772   2.399   4.072
   67DPPC   C32 3332   4.828   2.387   5.676
   67DPPC   O33 3333   4.780   2.502   5.606
   67DPPC   C34 3334   4.645   2.515   5.611
   67DPPC   O35 3335   4.582   2.488   5.713
   67DPPC   C36 3336   4.589   2.580   5.485
   67DPPC   C37 3337   4.591   2.733   5.496
   67DPPC   C38 3338   4.524   2.782   5.367
   67DPPC   C39 3339   4.567   2.736   5.228
   67DPPC   C40 3340   4.491   2.804   5.113
   67DPPC   C41 3341   4.552   2.768   4.978
   67DPPC   C42 3342   4.511   2.865   4.867
   67DPPC   C43 3343   4.545   3.010   4.900
   67DPPC   C44 3344   4.487   3.087   4.780
   67DPPC   C45 3345   4.542   3.033   4.648
   67DPPC   C46 3346   4.501   3.117   4.526
   67DPPC   C47 3347   4.566   3.068   4.396
   67DPPC   C48 3348   4.533   3.154   4.274
   67DPPC   C49 3349   4.592   3.074   4.158
   67DPPC   C50 3350   4.615   3.168   4.040
   68DPPC    C1 3351   0.674   4.041   1.264
   68DPPC    C2 3352   0.871   3.943   1.170
   68DPPC    C3 3353   0.913   4.101   1.316
   68DPPC    N4 3354   0.811   3.997   1.293
   68DPPC    C5 3355   0.814   3.899   1.402
   68DPPC    C6 3356   0.753   3.761   1.372
   68DPPC    O7 3357   0.771   3.664   1.475
   68DPPC    P8 3358   0.703   3.521   1.447
   68DPPC    O9 3359   0.797   3.409   1.469
   68DPPC   O10 3360   0.631   3.527   1.317
   68DPPC   O11 3361   0.614   3.548   1.578
   68DPPC   C12 3362   0.702   3.528   1.689
   68DPPC   C13 3363   0.667   3.624   1.803
   68DPPC   O14 3364   0.741   3.584   1.919
   68DPPC   C15 3365   0.851   3.653   1.960
   68DPPC   O16 3366   0.906   3.736   1.888
   68DPPC   C17 3367   0.893   3.617   2.103
   68DPPC   C18 3368   0.813   3.680   2.217
   68DPPC   C19 3369   0.795   3.827   2.181
   68DPPC   C20 3370   0.702   3.887   2.287
   68DPPC   C21 3371   0.768   3.867   2.423
   68DPPC   C22 3372   0.666   3.939   2.511
   68DPPC   C23 3373   0.696   3.933   2.661
   68DPPC   C24 3374   0.587   4.012   2.733
   68DPPC   C25 3375   0.578   4.162   2.702
   68DPPC   C26 3376   0.451   4.225   2.759
   68DPPC   C27 3377   0.448   4.196   2.910
   68DPPC   C28 3378   0.322   4.240   2.985
   68DPPC   C29 3379   0.317   4.219   3.136
   68DPPC   C30 3380   0.316   4.070   3.169
   68DPPC   C31 3381   0.298   4.040   3.318
   68DPPC   C32 3382   0.516   3.610   1.827
   68DPPC   O33 3383   0.460   3.716   1.905
   68DPPC   C34 3384   0.350   3.676   1.974
   68DPPC   O35 3385   0.282   3.585   1.929
   68DPPC   C36 3386   0.279   3.784   2.057
   68DPPC   C37 3387   0.278   3.751   2.207
   68DPPC   C38 3388   0.251   3.862   2.308
   68DPPC   C39 3389   0.103   3.901   2.309
   68DPPC   C40 3390   0.005   3.810   2.383
   68DPPC   C41 3391  -0.138   3.858   2.358
   68DPPC   C42 3392  -0.235   3.760   2.424
   68DPPC   C43 3393  -0.206   3.769   2.574
   68DPPC   C44 3394  -0.309   3.668   2.626
   68DPPC   C45 3395  -0.444   3.736   2.643
   68DPPC   C46 3396  -0.438   3.857   2.737
   68DPPC   C47 3397  -0.579   3.916   2.731
   68DPPC   C48 3398  -0.611   4.042   2.812
   68DPPC   C49 3399  -0.755   4.090   2.791
   68DPPC   C50 3400  -0.841   3.981   2.854
   69DPPC    C1 3401   5.480   2.612   6.511
   69DPPC    C2 3402   5.543   2.617   6.284
   69DPPC    C3 3403   5.486   2.408   6.389
   69DPPC    N4 3404   5.453   2.551   6.380
   69DPPC    C5 3405   5.314   2.584   6.345
   69DPPC    C6 3406   5.259   2.719   6.392
   69DPPC    O7 3407   5.308   2.839   6.330
   69DPPC    P8 3408   5.217   2.971   6.315
   69DPPC    O9 3409   5.302   3.078   6.373
   69DPPC   O10 3410   5.086   2.930   6.369
   69DPPC   O11 3411   5.224   2.952   6.156
   69DPPC   C12 3412   5.351   2.980   6.097
   69DPPC   C13 3413   5.331   2.947   5.949
   69DPPC   O14 3414   5.441   2.991   5.868
   69DPPC   C15 3415   5.469   3.116   5.821
   69DPPC   O16 3416   5.426   3.212   5.884
   69DPPC   C17 3417   5.587   3.131   5.726
   69DPPC   C18 3418   5.519   3.116   5.589
   69DPPC   C19 3419   5.626   3.120   5.479
   69DPPC   C20 3420   5.581   3.071   5.341
   69DPPC   C21 3421   5.697   3.086   5.242
   69DPPC   C22 3422   5.656   3.068   5.096
   69DPPC   C23 3423   5.778   3.116   5.018
   69DPPC   C24 3424   5.736   3.168   4.880
   69DPPC   C25 3425   5.865   3.229   4.827
   69DPPC   C26 3426   5.861   3.299   4.691
   69DPPC   C27 3427   5.816   3.203   4.581
   69DPPC   C28 3428   5.777   3.270   4.449
   69DPPC   C29 3429   5.742   3.160   4.350
   69DPPC   C30 3430   5.723   3.223   4.212
   69DPPC   C31 3431   5.688   3.120   4.104
   69DPPC   C32 3432   5.195   3.003   5.910
   69DPPC   O33 3433   5.164   2.962   5.776
   69DPPC   C34 3434   5.054   3.013   5.714
   69DPPC   O35 3435   4.976   3.089   5.770
   69DPPC   C36 3436   5.055   3.001   5.562
   69DPPC   C37 3437   4.995   2.867   5.519
   69DPPC   C38 3438   5.049   2.823   5.383
   69DPPC   C39 3439   4.992   2.688   5.338
   69DPPC   C40 3440   5.005   2.669   5.186
   69DPPC   C41 3441   5.017   2.521   5.150
   69DPPC   C42 3442   5.072   2.494   5.010
   69DPPC   C43 3443   5.125   2.352   4.987
   69DPPC   C44 3444   5.189   2.331   4.850
   69DPPC   C45 3445   5.248   2.190   4.854
   69DPPC   C46 3446   5.346   2.163   4.740
   69DPPC   C47 3447   5.275   2.191   4.607
   69DPPC   C48 3448   5.374   2.155   4.496
   69DPPC   C49 3449   5.310   2.178   4.359
   69DPPC   C50 3450   5.282   2.328   4.353
   70DPPC    C1 3451   2.692   0.100   5.418
   70DPPC    C2 3452   2.787  -0.011   5.224
   70DPPC    C3 3453   2.917   0.089   5.407
   70DPPC    N4 3454   2.799   0.011   5.369
   70DPPC    C5 3455   2.777  -0.103   5.460
   70DPPC    C6 3456   2.885  -0.212   5.466
   70DPPC    O7 3457   2.931  -0.266   5.342
   70DPPC    P8 3458   2.986  -0.414   5.371
   70DPPC    O9 3459   2.871  -0.470   5.445
   70DPPC   O10 3460   3.110  -0.372   5.440
   70DPPC   O11 3461   2.991  -0.465   5.218
   70DPPC   C12 3462   2.862  -0.459   5.158
   70DPPC   C13 3463   2.881  -0.484   5.008
   70DPPC   O14 3464   2.902  -0.619   4.967
   70DPPC   C15 3465   2.809  -0.718   4.979
   70DPPC   O16 3466   2.696  -0.691   5.017
   70DPPC   C17 3467   2.845  -0.857   4.927
   70DPPC   C18 3468   2.870  -0.837   4.777
   70DPPC   C19 3469   2.872  -0.967   4.696
   70DPPC   C20 3470   2.928  -0.928   4.559
   70DPPC   C21 3471   3.070  -0.872   4.575
   70DPPC   C22 3472   3.117  -0.828   4.436
   70DPPC   C23 3473   3.268  -0.819   4.410
   70DPPC   C24 3474   3.303  -0.746   4.280
   70DPPC   C25 3475   3.446  -0.690   4.280
   70DPPC   C26 3476   3.459  -0.623   4.143
   70DPPC   C27 3477   3.606  -0.589   4.121
   70DPPC   C28 3478   3.639  -0.510   3.993
   70DPPC   C29 3479   3.787  -0.540   3.969
   70DPPC   C30 3480   3.872  -0.492   4.087
   70DPPC   C31 3481   4.019  -0.520   4.055
   70DPPC   C32 3482   2.993  -0.392   4.958
   70DPPC   O33 3483   2.949  -0.256   4.952
   70DPPC   C34 3484   3.044  -0.168   4.912
   70DPPC   O35 3485   3.156  -0.209   4.882
   70DPPC   C36 3486   2.999  -0.025   4.882
   70DPPC   C37 3487   3.070   0.038   4.762
   70DPPC   C38 3488   2.997   0.166   4.720
   70DPPC   C39 3489   3.041   0.208   4.579
   70DPPC   C40 3490   2.964   0.111   4.488
   70DPPC   C41 3491   3.007   0.114   4.341
   70DPPC   C42 3492   2.957  -0.012   4.269
   70DPPC   C43 3493   2.805  -0.022   4.278
   70DPPC   C44 3494   2.747   0.092   4.195
   70DPPC   C45 3495   2.692   0.049   4.059
   70DPPC   C46 3496   2.540   0.030   4.048
   70DPPC   C47 3497   2.497  -0.032   3.915
   70DPPC   C48 3498   2.348  -0.063   3.897
   70DPPC   C49 3499   2.318  -0.150   3.775
   70DPPC   C50 3500   2.167  -0.167   3.758
   71DPPC    C1 3501   3.984   3.741   5.674
   71DPPC    C2 3502   4.019   3.830   5.899
   71DPPC    C3 3503   4.035   3.596   5.838
   71DPPC    N4 3504   4.064   3.734   5.797
   71DPPC    C5 3505   4.207   3.765   5.780
   71DPPC    C6 3506   4.294   3.772   5.905
   71DPPC    O7 3507   4.309   3.645   5.968
   71DPPC    P8 3508   4.409   3.646   6.094
   71DPPC    O9 3509   4.390   3.527   6.180
   71DPPC   O10 3510   4.407   3.780   6.157
   71DPPC   O11 3511   4.539   3.643   5.999
   71DPPC   C12 3512   4.569   3.510   5.955
   71DPPC   C13 3513   4.645   3.510   5.822
   71DPPC   O14 3514   4.786   3.534   5.822
   71DPPC   C15 3515   4.856   3.422   5.854
   71DPPC   O16 3516   4.819   3.355   5.950
   71DPPC   C17 3517   5.005   3.424   5.818
   71DPPC   C18 3518   5.021   3.402   5.668
   71DPPC   C19 3519   5.161   3.439   5.620
   71DPPC   C20 3520   5.183   3.391   5.476
   71DPPC   C21 3521   5.306   3.451   5.408
   71DPPC   C22 3522   5.282   3.416   5.261
   71DPPC   C23 3523   5.311   3.268   5.232
   71DPPC   C24 3524   5.304   3.246   5.081
   71DPPC   C25 3525   5.378   3.337   4.982
   71DPPC   C26 3526   5.370   3.275   4.843
   71DPPC   C27 3527   5.417   3.366   4.729
   71DPPC   C28 3528   5.377   3.301   4.596
   71DPPC   C29 3529   5.422   3.390   4.480
   71DPPC   C30 3530   5.377   3.335   4.345
   71DPPC   C31 3531   5.416   3.427   4.229
   71DPPC   C32 3532   4.563   3.597   5.726
   71DPPC   O33 3533   4.586   3.569   5.588
   71DPPC   C34 3534   4.507   3.638   5.501
   71DPPC   O35 3535   4.435   3.730   5.538
   71DPPC   C36 3536   4.508   3.602   5.353
   71DPPC   C37 3537   4.415   3.486   5.317
   71DPPC   C38 3538   4.392   3.445   5.172
   71DPPC   C39 3539   4.284   3.336   5.177
   71DPPC   C40 3540   4.227   3.310   5.038
   71DPPC   C41 3541   4.174   3.440   4.977
   71DPPC   C42 3542   4.156   3.419   4.827
   71DPPC   C43 3543   4.105   3.541   4.751
   71DPPC   C44 3544   4.101   3.503   4.603
   71DPPC   C45 3545   4.248   3.479   4.571
   71DPPC   C46 3546   4.275   3.417   4.434
   71DPPC   C47 3547   4.221   3.504   4.319
   71DPPC   C48 3548   4.284   3.466   4.185
   71DPPC   C49 3549   4.272   3.577   4.081
   71DPPC   C50 3550   4.128   3.603   4.036
   72DPPC    C1 3551   0.937   8.473   4.914
   72DPPC    C2 3552   1.095   8.617   5.005
   72DPPC    C3 3553   0.865   8.630   5.070
   72DPPC    N4 3554   0.976   8.538   5.040
   72DPPC    C5 3555   0.994   8.441   5.150
   72DPPC    C6 3556   1.084   8.319   5.134
   72DPPC    O7 3557   1.214   8.354   5.086
   72DPPC    P8 3558   1.321   8.233   5.077
   72DPPC    O9 3559   1.261   8.139   5.174
   72DPPC   O10 3560   1.456   8.292   5.091
   72DPPC   O11 3561   1.295   8.157   4.937
   72DPPC   C12 3562   1.276   8.265   4.845
   72DPPC   C13 3563   1.258   8.234   4.696
   72DPPC   O14 3564   1.274   8.353   4.618
   72DPPC   C15 3565   1.359   8.366   4.513
   72DPPC   O16 3566   1.455   8.292   4.489
   72DPPC   C17 3567   1.325   8.493   4.434
   72DPPC   C18 3568   1.348   8.468   4.285
   72DPPC   C19 3569   1.341   8.586   4.188
   72DPPC   C20 3570   1.337   8.532   4.044
   72DPPC   C21 3571   1.270   8.641   3.959
   72DPPC   C22 3572   1.305   8.630   3.811
   72DPPC   C23 3573   1.260   8.749   3.727
   72DPPC   C24 3574   1.287   8.723   3.579
   72DPPC   C25 3575   1.267   8.845   3.489
   72DPPC   C26 3576   1.273   8.813   3.340
   72DPPC   C27 3577   1.158   8.722   3.296
   72DPPC   C28 3578   1.028   8.797   3.325
   72DPPC   C29 3579   0.907   8.703   3.329
   72DPPC   C30 3580   0.789   8.794   3.363
   72DPPC   C31 3581   0.806   8.829   3.511
   72DPPC   C32 3582   1.129   8.153   4.684
   72DPPC   O33 3583   1.006   8.225   4.687
   72DPPC   C34 3584   0.904   8.147   4.643
   72DPPC   O35 3585   0.884   8.027   4.666
   72DPPC   C36 3586   0.778   8.222   4.600
   72DPPC   C37 3587   0.740   8.196   4.454
   72DPPC   C38 3588   0.620   8.276   4.405
   72DPPC   C39 3589   0.609   8.272   4.253
   72DPPC   C40 3590   0.592   8.124   4.216
   72DPPC   C41 3591   0.566   8.098   4.067
   72DPPC   C42 3592   0.424   8.141   4.031
   72DPPC   C43 3593   0.426   8.123   3.879
   72DPPC   C44 3594   0.308   8.196   3.816
   72DPPC   C45 3595   0.180   8.156   3.889
   72DPPC   C46 3596   0.065   8.225   3.816
   72DPPC   C47 3597  -0.069   8.170   3.865
   72DPPC   C48 3598  -0.167   8.238   3.768
   72DPPC   C49 3599  -0.311   8.201   3.805
   72DPPC   C50 3600  -0.325   8.050   3.789
   73DPPC    C1 3601   8.466   8.281   5.100
   73DPPC    C2 3602   8.377   8.166   4.903
   73DPPC    C3 3603   8.578   8.095   5.003
   73DPPC    N4 3604   8.446   8.152   5.032
   73DPPC    C5 3605   8.381   8.055   5.122
   73DPPC    C6 3606   8.257   8.091   5.205
   73DPPC    O7 3607   8.210   7.969   5.264
   73DPPC    P8 3608   8.059   7.959   5.318
   73DPPC    O9 3609   8.036   8.088   5.387
   73DPPC   O10 3610   8.045   7.826   5.382
   73DPPC   O11 3611   7.993   7.956   5.171
   73DPPC   C12 3612   8.021   7.827   5.117
   73DPPC   C13 3613   7.951   7.787   4.987
   73DPPC   O14 3614   7.996   7.860   4.872
   73DPPC   C15 3615   8.117   7.837   4.816
   73DPPC   O16 3616   8.207   7.790   4.886
   73DPPC   C17 3617   8.155   7.912   4.688
   73DPPC   C18 3618   8.190   7.813   4.577
   73DPPC   C19 3619   8.077   7.728   4.518
   73DPPC   C20 3620   8.146   7.629   4.424
   73DPPC   C21 3621   8.153   7.491   4.489
   73DPPC   C22 3622   8.211   7.388   4.392
   73DPPC   C23 3623   8.344   7.441   4.339
   73DPPC   C24 3624   8.393   7.353   4.224
   73DPPC   C25 3625   8.308   7.362   4.096
   73DPPC   C26 3626   8.381   7.313   3.971
   73DPPC   C27 3627   8.446   7.178   4.005
   73DPPC   C28 3628   8.515   7.141   3.873
   73DPPC   C29 3629   8.630   7.232   3.830
   73DPPC   C30 3630   8.688   7.199   3.692
   73DPPC   C31 3631   8.819   7.270   3.655
   73DPPC   C32 3632   7.801   7.796   5.012
   73DPPC   O33 3633   7.720   7.768   4.898
   73DPPC   C34 3634   7.729   7.641   4.851
   73DPPC   O35 3635   7.788   7.556   4.916
   73DPPC   C36 3636   7.667   7.609   4.715
   73DPPC   C37 3637   7.713   7.474   4.657
   73DPPC   C38 3638   7.640   7.435   4.529
   73DPPC   C39 3639   7.660   7.538   4.418
   73DPPC   C40 3640   7.605   7.488   4.284
   73DPPC   C41 3641   7.646   7.593   4.180
   73DPPC   C42 3642   7.637   7.535   4.038
   73DPPC   C43 3643   7.714   7.636   3.952
   73DPPC   C44 3644   7.773   7.576   3.824
   73DPPC   C45 3645   7.845   7.676   3.734
   73DPPC   C46 3646   7.753   7.794   3.703
   73DPPC   C47 3647   7.818   7.897   3.610
   73DPPC   C48 3648   7.931   7.971   3.681
   73DPPC   C49 3649   7.889   8.114   3.714
   73DPPC   C50 3650   8.020   8.182   3.754
   74DPPC    C1 3651   5.864   4.834   5.939
   74DPPC    C2 3652   5.659   4.943   5.848
   74DPPC    C3 3653   5.868   5.034   5.814
   74DPPC    N4 3654   5.800   4.905   5.828
   74DPPC    C5 3655   5.794   4.820   5.708
   74DPPC    C6 3656   5.916   4.808   5.616
   74DPPC    O7 3657   5.915   4.689   5.536
   74DPPC    P8 3658   6.073   4.672   5.514
   74DPPC    O9 3659   6.103   4.557   5.426
   74DPPC   O10 3660   6.147   4.689   5.642
   74DPPC   O11 3661   6.107   4.804   5.428
   74DPPC   C12 3662   6.215   4.770   5.341
   74DPPC   C13 3663   6.237   4.862   5.221
   74DPPC   O14 3664   6.368   4.862   5.163
   74DPPC   C15 3665   6.401   4.760   5.079
   74DPPC   O16 3666   6.336   4.656   5.088
   74DPPC   C17 3667   6.524   4.790   4.994
   74DPPC   C18 3668   6.486   4.794   4.846
   74DPPC   C19 3669   6.606   4.848   4.768
   74DPPC   C20 3670   6.562   4.854   4.621
   74DPPC   C21 3671   6.445   4.951   4.600
   74DPPC   C22 3672   6.368   4.916   4.472
   74DPPC   C23 3673   6.461   4.925   4.351
   74DPPC   C24 3674   6.379   4.915   4.223
   74DPPC   C25 3675   6.470   4.941   4.102
   74DPPC   C26 3676   6.392   4.907   3.975
   74DPPC   C27 3677   6.493   4.853   3.874
   74DPPC   C28 3678   6.432   4.785   3.751
   74DPPC   C29 3679   6.367   4.656   3.801
   74DPPC   C30 3680   6.454   4.561   3.884
   74DPPC   C31 3681   6.368   4.444   3.931
   74DPPC   C32 3682   6.209   5.001   5.279
   74DPPC   O33 3683   6.169   5.085   5.170
   74DPPC   C34 3684   6.180   5.219   5.188
   74DPPC   O35 3685   6.191   5.265   5.301
   74DPPC   C36 3686   6.175   5.317   5.071
   74DPPC   C37 3687   6.154   5.237   4.942
   74DPPC   C38 3688   6.193   5.328   4.825
   74DPPC   C39 3689   6.340   5.368   4.842
   74DPPC   C40 3690   6.392   5.446   4.721
   74DPPC   C41 3691   6.409   5.351   4.602
   74DPPC   C42 3692   6.484   5.424   4.491
   74DPPC   C43 3693   6.470   5.347   4.360
   74DPPC   C44 3694   6.551   5.406   4.245
   74DPPC   C45 3695   6.504   5.343   4.114
   74DPPC   C46 3696   6.605   5.372   4.002
   74DPPC   C47 3697   6.558   5.302   3.875
   74DPPC   C48 3698   6.674   5.303   3.775
   74DPPC   C49 3699   6.622   5.256   3.639
   74DPPC   C50 3700   6.503   5.328   3.575
   75DPPC    C1 3701   3.748   1.475   5.897
   75DPPC    C2 3702   3.722   1.536   5.659
   75DPPC    C3 3703   3.639   1.341   5.753
   75DPPC    N4 3704   3.659   1.484   5.781
   75DPPC    C5 3705   3.545   1.566   5.823
   75DPPC    C6 3706   3.450   1.640   5.729
   75DPPC    O7 3707   3.514   1.760   5.683
   75DPPC    P8 3708   3.378   1.844   5.665
   75DPPC    O9 3709   3.344   1.876   5.805
   75DPPC   O10 3710   3.298   1.765   5.569
   75DPPC   O11 3711   3.432   1.976   5.590
   75DPPC   C12 3712   3.386   1.985   5.456
   75DPPC   C13 3713   3.444   2.110   5.389
   75DPPC   O14 3714   3.411   2.123   5.250
   75DPPC   C15 3715   3.432   2.241   5.187
   75DPPC   O16 3716   3.465   2.344   5.245
   75DPPC   C17 3717   3.411   2.251   5.036
   75DPPC   C18 3718   3.530   2.305   4.956
   75DPPC   C19 3719   3.649   2.209   4.963
   75DPPC   C20 3720   3.781   2.281   4.939
   75DPPC   C21 3721   3.901   2.187   4.931
   75DPPC   C22 3722   4.020   2.282   4.914
   75DPPC   C23 3723   4.150   2.206   4.888
   75DPPC   C24 3724   4.261   2.306   4.855
   75DPPC   C25 3725   4.226   2.400   4.740
   75DPPC   C26 3726   4.339   2.457   4.655
   75DPPC   C27 3727   4.288   2.552   4.546
   75DPPC   C28 3728   4.391   2.603   4.445
   75DPPC   C29 3729   4.320   2.659   4.321
   75DPPC   C30 3730   4.420   2.730   4.230
   75DPPC   C31 3731   4.341   2.802   4.120
   75DPPC   C32 3732   3.594   2.098   5.420
   75DPPC   O33 3733   3.648   1.969   5.390
   75DPPC   C34 3734   3.783   1.954   5.387
   75DPPC   O35 3735   3.849   2.036   5.450
   75DPPC   C36 3736   3.822   1.815   5.336
   75DPPC   C37 3737   3.853   1.831   5.187
   75DPPC   C38 3738   3.902   1.703   5.119
   75DPPC   C39 3739   3.941   1.719   4.971
   75DPPC   C40 3740   3.833   1.751   4.868
   75DPPC   C41 3741   3.885   1.779   4.727
   75DPPC   C42 3742   3.763   1.814   4.641
   75DPPC   C43 3743   3.829   1.869   4.515
   75DPPC   C44 3744   3.733   1.895   4.398
   75DPPC   C45 3745   3.666   1.763   4.361
   75DPPC   C46 3746   3.578   1.774   4.236
   75DPPC   C47 3747   3.673   1.810   4.122
   75DPPC   C48 3748   3.593   1.841   3.996
   75DPPC   C49 3749   3.697   1.861   3.885
   75DPPC   C50 3750   3.626   1.927   3.767
   76DPPC    C1 3751   5.886   0.024   5.444
   76DPPC    C2 3752   5.683   0.087   5.524
   76DPPC    C3 3753   5.817   0.256   5.420
   76DPPC    N4 3754   5.775   0.115   5.413
   76DPPC    C5 3755   5.720   0.070   5.284
   76DPPC    C6 3756   5.592   0.145   5.249
   76DPPC    O7 3757   5.512   0.106   5.137
   76DPPC    P8 3758   5.404   0.225   5.119
   76DPPC    O9 3759   5.483   0.345   5.083
   76DPPC   O10 3760   5.325   0.220   5.243
   76DPPC   O11 3761   5.335   0.140   5.001
   76DPPC   C12 3762   5.381   0.184   4.873
   76DPPC   C13 3763   5.272   0.194   4.765
   76DPPC   O14 3764   5.199   0.316   4.749
   76DPPC   C15 3765   5.268   0.422   4.698
   76DPPC   O16 3766   5.391   0.419   4.707
   76DPPC   C17 3767   5.191   0.553   4.684
   76DPPC   C18 3768   5.172   0.630   4.815
   76DPPC   C19 3769   5.094   0.761   4.797
   76DPPC   C20 3770   4.966   0.738   4.716
   76DPPC   C21 3771   4.880   0.860   4.681
   76DPPC   C22 3772   4.775   0.826   4.576
   76DPPC   C23 3773   4.862   0.780   4.459
   76DPPC   C24 3774   4.785   0.770   4.327
   76DPPC   C25 3775   4.840   0.665   4.231
   76DPPC   C26 3776   4.793   0.672   4.085
   76DPPC   C27 3777   4.861   0.562   4.004
   76DPPC   C28 3778   5.013   0.584   4.001
   76DPPC   C29 3779   5.097   0.457   4.010
   76DPPC   C30 3780   5.077   0.371   3.885
   76DPPC   C31 3781   5.175   0.253   3.886
   76DPPC   C32 3782   5.210   0.054   4.756
   76DPPC   O33 3783   5.311  -0.040   4.720
   76DPPC   C34 3784   5.274  -0.169   4.743
   76DPPC   O35 3785   5.191  -0.193   4.830
   76DPPC   C36 3786   5.366  -0.280   4.693
   76DPPC   C37 3787   5.386  -0.253   4.543
   76DPPC   C38 3788   5.530  -0.293   4.513
   76DPPC   C39 3789   5.564  -0.268   4.366
   76DPPC   C40 3790   5.658  -0.370   4.301
   76DPPC   C41 3791   5.579  -0.496   4.267
   76DPPC   C42 3792   5.657  -0.601   4.187
   76DPPC   C43 3793   5.573  -0.729   4.189
   76DPPC   C44 3794   5.449  -0.703   4.105
   76DPPC   C45 3795   5.394  -0.837   4.054
   76DPPC   C46 3796   5.278  -0.800   3.962
   76DPPC   C47 3797   5.323  -0.794   3.815
   76DPPC   C48 3798   5.372  -0.929   3.764
   76DPPC   C49 3799   5.459  -0.905   3.641
   76DPPC   C50 3800   5.476  -1.034   3.561
   77DPPC    C1 3801   9.300   6.067   4.927
   77DPPC    C2 3802   9.427   5.885   4.828
   77DPPC    C3 3803   9.393   5.893   5.061
   77DPPC    N4 3804   9.329   5.923   4.931
   77DPPC    C5 3805   9.214   5.835   4.904
   77DPPC    C6 3806   9.079   5.818   4.974
   77DPPC    O7 3807   9.099   5.749   5.097
   77DPPC    P8 3808   8.979   5.770   5.202
   77DPPC    O9 3809   8.897   5.888   5.168
   77DPPC   O10 3810   9.034   5.762   5.339
   77DPPC   O11 3811   8.897   5.633   5.175
   77DPPC   C12 3812   8.961   5.510   5.210
   77DPPC   C13 3813   8.876   5.388   5.172
   77DPPC   O14 3814   8.957   5.277   5.131
   77DPPC   C15 3815   8.974   5.168   5.211
   77DPPC   O16 3816   8.974   5.184   5.333
   77DPPC   C17 3817   9.012   5.031   5.155
   77DPPC   C18 3818   8.960   5.011   5.012
   77DPPC   C19 3819   9.048   4.907   4.944
   77DPPC   C20 3820   9.194   4.954   4.939
   77DPPC   C21 3821   9.284   4.832   4.917
   77DPPC   C22 3822   9.287   4.798   4.768
   77DPPC   C23 3823   9.349   4.916   4.693
   77DPPC   C24 3824   9.349   4.878   4.544
   77DPPC   C25 3825   9.396   4.994   4.457
   77DPPC   C26 3826   9.397   4.957   4.308
   77DPPC   C27 3827   9.466   5.069   4.230
   77DPPC   C28 3828   9.455   5.015   4.087
   77DPPC   C29 3829   9.508   5.112   3.982
   77DPPC   C30 3830   9.545   5.032   3.857
   77DPPC   C31 3831   9.422   5.003   3.770
   77DPPC   C32 3832   8.793   5.435   5.052
   77DPPC   O33 3833   8.725   5.330   4.982
   77DPPC   C34 3834   8.654   5.375   4.876
   77DPPC   O35 3835   8.677   5.486   4.829
   77DPPC   C36 3836   8.583   5.259   4.804
   77DPPC   C37 3837   8.507   5.294   4.676
   77DPPC   C38 3838   8.488   5.162   4.602
   77DPPC   C39 3839   8.505   5.201   4.455
   77DPPC   C40 3840   8.466   5.075   4.378
   77DPPC   C41 3841   8.534   4.940   4.404
   77DPPC   C42 3842   8.457   4.822   4.345
   77DPPC   C43 3843   8.522   4.687   4.376
   77DPPC   C44 3844   8.450   4.566   4.316
   77DPPC   C45 3845   8.497   4.422   4.336
   77DPPC   C46 3846   8.453   4.339   4.215
   77DPPC   C47 3847   8.505   4.401   4.085
   77DPPC   C48 3848   8.484   4.323   3.956
   77DPPC   C49 3849   8.552   4.389   3.836
   77DPPC   C50 3850   8.546   4.303   3.710
   78DPPC    C1 3851   1.043   5.327   5.418
   78DPPC    C2 3852   1.138   5.147   5.330
   78DPPC    C3 3853   1.193   5.378   5.255
   78DPPC    N4 3854   1.175   5.285   5.367
   78DPPC    C5 3855   1.266   5.309   5.480
   78DPPC    C6 3856   1.408   5.252   5.467
   78DPPC    O7 3857   1.421   5.110   5.469
   78DPPC    P8 3858   1.572   5.067   5.432
   78DPPC    O9 3859   1.604   4.940   5.501
   78DPPC   O10 3860   1.645   5.193   5.458
   78DPPC   O11 3861   1.541   5.062   5.274
   78DPPC   C12 3862   1.486   4.934   5.241
   78DPPC   C13 3863   1.402   4.921   5.114
   78DPPC   O14 3864   1.336   4.797   5.086
   78DPPC   C15 3865   1.224   4.760   5.153
   78DPPC   O16 3866   1.143   4.837   5.205
   78DPPC   C17 3867   1.173   4.626   5.100
   78DPPC   C18 3868   1.109   4.632   4.962
   78DPPC   C19 3869   1.057   4.492   4.931
   78DPPC   C20 3870   1.005   4.495   4.787
   78DPPC   C21 3871   1.128   4.528   4.701
   78DPPC   C22 3872   1.111   4.575   4.556
   78DPPC   C23 3873   1.248   4.575   4.488
   78DPPC   C24 3874   1.237   4.602   4.338
   78DPPC   C25 3875   1.156   4.496   4.263
   78DPPC   C26 3876   1.143   4.541   4.118
   78DPPC   C27 3877   1.292   4.552   4.084
   78DPPC   C28 3878   1.301   4.628   3.952
   78DPPC   C29 3879   1.432   4.603   3.876
   78DPPC   C30 3880   1.425   4.462   3.816
   78DPPC   C31 3881   1.554   4.425   3.741
   78DPPC   C32 3882   1.501   4.958   5.003
   78DPPC   O33 3883   1.444   4.975   4.873
   78DPPC   C34 3884   1.539   5.016   4.785
   78DPPC   O35 3885   1.655   4.982   4.804
   78DPPC   C36 3886   1.494   5.106   4.669
   78DPPC   C37 3887   1.385   5.036   4.588
   78DPPC   C38 3888   1.447   4.933   4.493
   78DPPC   C39 3889   1.526   5.024   4.398
   78DPPC   C40 3890   1.620   4.942   4.310
   78DPPC   C41 3891   1.553   4.859   4.200
   78DPPC   C42 3892   1.659   4.787   4.116
   78DPPC   C43 3893   1.742   4.896   4.048
   78DPPC   C44 3894   1.845   4.839   3.950
   78DPPC   C45 3895   1.885   4.944   3.847
   78DPPC   C46 3896   1.939   5.067   3.920
   78DPPC   C47 3897   1.986   5.181   3.830
   78DPPC   C48 3898   2.055   5.292   3.910
   78DPPC   C49 3899   2.201   5.255   3.940
   78DPPC   C50 3900   2.281   5.377   3.985
   79DPPC    C1 3901   0.057   3.600   6.239
   79DPPC    C2 3902   0.078   3.602   6.004
   79DPPC    C3 3903  -0.145   3.574   6.102
   79DPPC    N4 3904  -0.012   3.636   6.115
   79DPPC    C5 3905  -0.009   3.783   6.110
   79DPPC    C6 3906  -0.109   3.864   6.027
   79DPPC    O7 3907  -0.069   3.862   5.890
   79DPPC    P8 3908  -0.195   3.937   5.824
   79DPPC    O9 3909  -0.207   4.070   5.888
   79DPPC   O10 3910  -0.301   3.834   5.818
   79DPPC   O11 3911  -0.122   3.944   5.680
   79DPPC   C12 3912  -0.067   3.818   5.641
   79DPPC   C13 3913  -0.019   3.820   5.496
   79DPPC   O14 3914   0.018   3.686   5.460
   79DPPC   C15 3915  -0.064   3.583   5.427
   79DPPC   O16 3916  -0.174   3.580   5.482
   79DPPC   C17 3917  -0.010   3.468   5.343
   79DPPC   C18 3918   0.009   3.512   5.197
   79DPPC   C19 3919   0.019   3.387   5.109
   79DPPC   C20 3920  -0.002   3.425   4.962
   79DPPC   C21 3921   0.011   3.301   4.874
   79DPPC   C22 3922  -0.025   3.348   4.733
   79DPPC   C23 3923  -0.043   3.232   4.634
   79DPPC   C24 3924  -0.093   3.282   4.499
   79DPPC   C25 3925  -0.112   3.169   4.398
   79DPPC   C26 3926  -0.112   3.235   4.260
   79DPPC   C27 3927  -0.137   3.138   4.145
   79DPPC   C28 3928  -0.130   3.224   4.019
   79DPPC   C29 3929  -0.170   3.139   3.898
   79DPPC   C30 3930  -0.081   3.017   3.879
   79DPPC   C31 3931  -0.113   2.947   3.746
   79DPPC   C32 3932   0.098   3.918   5.508
   79DPPC   O33 3933   0.141   3.975   5.384
   79DPPC   C34 3934   0.236   4.071   5.390
   79DPPC   O35 3935   0.265   4.112   5.502
   79DPPC   C36 3936   0.303   4.122   5.262
   79DPPC   C37 3937   0.214   4.128   5.137
   79DPPC   C38 3938   0.303   4.143   5.014
   79DPPC   C39 3939   0.212   4.125   4.893
   79DPPC   C40 3940   0.106   4.233   4.864
   79DPPC   C41 3941   0.012   4.189   4.752
   79DPPC   C42 3942   0.075   4.189   4.613
   79DPPC   C43 3943  -0.030   4.131   4.517
   79DPPC   C44 3944   0.026   4.149   4.375
   79DPPC   C45 3945  -0.098   4.121   4.290
   79DPPC   C46 3946  -0.062   4.193   4.160
   79DPPC   C47 3947  -0.171   4.206   4.053
   79DPPC   C48 3948  -0.103   4.257   3.926
   79DPPC   C49 3949  -0.199   4.239   3.808
   79DPPC   C50 3950  -0.132   4.267   3.673
   80DPPC    C1 3951   0.560   4.392   5.835
   80DPPC    C2 3952   0.714   4.471   6.016
   80DPPC    C3 3953   0.586   4.277   6.042
   80DPPC    N4 3954   0.655   4.359   5.941
   80DPPC    C5 3955   0.760   4.280   5.875
   80DPPC    C6 3956   0.855   4.347   5.776
   80DPPC    O7 3957   0.973   4.268   5.757
   80DPPC    P8 3958   1.072   4.371   5.682
   80DPPC    O9 3959   1.207   4.321   5.715
   80DPPC   O10 3960   1.028   4.511   5.703
   80DPPC   O11 3961   1.011   4.311   5.545
   80DPPC   C12 3962   1.039   4.414   5.450
   80DPPC   C13 3963   0.979   4.373   5.315
   80DPPC   O14 3964   0.838   4.352   5.313
   80DPPC   C15 3965   0.750   4.454   5.294
   80DPPC   O16 3966   0.772   4.565   5.343
   80DPPC   C17 3967   0.614   4.404   5.248
   80DPPC   C18 3968   0.612   4.400   5.095
   80DPPC   C19 3969   0.646   4.527   5.017
   80DPPC   C20 3970   0.626   4.532   4.865
   80DPPC   C21 3971   0.671   4.663   4.800
   80DPPC   C22 3972   0.620   4.652   4.656
   80DPPC   C23 3973   0.738   4.614   4.565
   80DPPC   C24 3974   0.684   4.593   4.424
   80DPPC   C25 3975   0.806   4.540   4.348
   80DPPC   C26 3976   0.788   4.483   4.207
   80DPPC   C27 3977   0.748   4.582   4.098
   80DPPC   C28 3978   0.713   4.504   3.971
   80DPPC   C29 3979   0.697   4.586   3.843
   80DPPC   C30 3980   0.648   4.506   3.722
   80DPPC   C31 3981   0.642   4.584   3.591
   80DPPC   C32 3982   1.062   4.254   5.266
   80DPPC   O33 3983   1.177   4.291   5.188
   80DPPC   C34 3984   1.235   4.187   5.123
   80DPPC   O35 3985   1.187   4.076   5.144
   80DPPC   C36 3986   1.343   4.224   5.021
   80DPPC   C37 3987   1.329   4.130   4.901
   80DPPC   C38 3988   1.225   4.165   4.794
   80DPPC   C39 3989   1.210   4.055   4.689
   80DPPC   C40 3990   1.093   4.090   4.596
   80DPPC   C41 3991   1.064   3.974   4.501
   80DPPC   C42 3992   0.988   4.005   4.373
   80DPPC   C43 3993   1.025   4.111   4.269
   80DPPC   C44 3994   0.960   4.093   4.132
   80DPPC   C45 3995   1.017   4.159   4.006
   80DPPC   C46 3996   0.923   4.156   3.885
   80DPPC   C47 3997   1.004   4.103   3.766
   80DPPC   C48 3998   0.910   4.081   3.648
   80DPPC   C49 3999   0.983   4.011   3.534
   80DPPC   C50 4000   0.886   3.964   3.425
   81DPPC    C1 4001   5.913   4.189   5.520
   81DPPC    C2 4002   5.707   4.152   5.639
   81DPPC    C3 4003   5.882   4.263   5.743
   81DPPC    N4 4004   5.815   4.249   5.612
   81DPPC    C5 4005   5.759   4.370   5.551
   81DPPC    C6 4006   5.689   4.473   5.639
   81DPPC    O7 4007   5.590   4.422   5.730
   81DPPC    P8 4008   5.560   4.530   5.845
   81DPPC    O9 4009   5.697   4.578   5.874
   81DPPC   O10 4010   5.465   4.483   5.948
   81DPPC   O11 4011   5.491   4.650   5.762
   81DPPC   C12 4012   5.373   4.603   5.695
   81DPPC   C13 4013   5.289   4.717   5.637
   81DPPC   O14 4014   5.176   4.681   5.556
   81DPPC   C15 4015   5.057   4.668   5.619
   81DPPC   O16 4016   5.046   4.720   5.730
   81DPPC   C17 4017   4.931   4.618   5.548
   81DPPC   C18 4018   4.945   4.609   5.396
   81DPPC   C19 4019   4.818   4.563   5.326
   81DPPC   C20 4020   4.773   4.430   5.388
   81DPPC   C21 4021   4.644   4.378   5.322
   81DPPC   C22 4022   4.671   4.323   5.182
   81DPPC   C23 4023   4.534   4.313   5.115
   81DPPC   C24 4024   4.549   4.313   4.963
   81DPPC   C25 4025   4.409   4.278   4.913
   81DPPC   C26 4026   4.294   4.374   4.943
   81DPPC   C27 4027   4.166   4.303   4.898
   81DPPC   C28 4028   4.173   4.267   4.750
   81DPPC   C29 4029   4.085   4.147   4.712
   81DPPC   C30 4030   4.137   4.103   4.576
   81DPPC   C31 4031   4.056   3.999   4.498
   81DPPC   C32 4032   5.388   4.808   5.564
   81DPPC   O33 4033   5.475   4.761   5.460
   81DPPC   C34 4034   5.588   4.829   5.426
   81DPPC   O35 4035   5.613   4.940   5.472
   81DPPC   C36 4036   5.655   4.779   5.298
   81DPPC   C37 4037   5.629   4.631   5.266
   81DPPC   C38 4038   5.725   4.599   5.151
   81DPPC   C39 4039   5.723   4.450   5.116
   81DPPC   C40 4040   5.866   4.408   5.079
   81DPPC   C41 4041   5.903   4.261   5.058
   81DPPC   C42 4042   5.830   4.194   4.941
   81DPPC   C43 4043   5.871   4.249   4.804
   81DPPC   C44 4044   5.801   4.195   4.679
   81DPPC   C45 4045   5.835   4.245   4.539
   81DPPC   C46 4046   5.738   4.160   4.456
   81DPPC   C47 4047   5.722   4.212   4.313
   81DPPC   C48 4048   5.848   4.171   4.236
   81DPPC   C49 4049   5.845   4.229   4.095
   81DPPC   C50 4050   5.971   4.218   4.007
   82DPPC    C1 4051   9.166   5.635   5.618
   82DPPC    C2 4052   9.373   5.539   5.660
   82DPPC    C3 4053   9.188   5.456   5.763
   82DPPC    N4 4054   9.232   5.505   5.632
   82DPPC    C5 4055   9.207   5.425   5.511
   82DPPC    C6 4056   9.263   5.284   5.492
   82DPPC    O7 4057   9.404   5.292   5.472
   82DPPC    P8 4058   9.453   5.148   5.417
   82DPPC    O9 4059   9.384   5.046   5.499
   82DPPC   O10 4060   9.601   5.148   5.411
   82DPPC   O11 4061   9.391   5.163   5.269
   82DPPC   C12 4062   9.487   5.215   5.176
   82DPPC   C13 4063   9.445   5.184   5.032
   82DPPC   O14 4064   9.560   5.171   4.947
   82DPPC   C15 4065   9.622   5.051   4.932
   82DPPC   O16 4066   9.625   4.975   5.029
   82DPPC   C17 4067   9.752   5.058   4.852
   82DPPC   C18 4068   9.715   5.057   4.703
   82DPPC   C19 4069   9.835   5.071   4.610
   82DPPC   C20 4070   9.786   5.068   4.465
   82DPPC   C21 4071   9.912   5.072   4.379
   82DPPC   C22 4072   9.867   5.009   4.247
   82DPPC   C23 4073   9.960   5.063   4.139
   82DPPC   C24 4074   9.955   4.973   4.015
   82DPPC   C25 4075  10.048   5.029   3.907
   82DPPC   C26 4076  10.033   4.962   3.770
   82DPPC   C27 4077  10.122   5.028   3.663
   82DPPC   C28 4078  10.110   4.960   3.527
   82DPPC   C29 4079  10.157   5.046   3.410
   82DPPC   C30 4080  10.063   5.166   3.411
   82DPPC   C31 4081  10.097   5.259   3.294
   82DPPC   C32 4082   9.351   5.300   4.996
   82DPPC   O33 4083   9.257   5.267   4.894
   82DPPC   C34 4084   9.179   5.376   4.867
   82DPPC   O35 4085   9.206   5.489   4.906
   82DPPC   C36 4086   9.072   5.348   4.761
   82DPPC   C37 4087   9.131   5.353   4.620
   82DPPC   C38 4088   9.024   5.301   4.524
   82DPPC   C39 4089   9.032   5.149   4.528
   82DPPC   C40 4090   8.910   5.076   4.471
   82DPPC   C41 4091   8.866   5.124   4.333
   82DPPC   C42 4092   8.938   5.056   4.216
   82DPPC   C43 4093   8.870   5.102   4.086
   82DPPC   C44 4094   8.948   5.032   3.975
   82DPPC   C45 4095   8.900   5.061   3.833
   82DPPC   C46 4096   9.002   5.009   3.731
   82DPPC   C47 4097   9.073   4.875   3.751
   82DPPC   C48 4098   8.968   4.763   3.747
   82DPPC   C49 4099   9.026   4.622   3.740
   82DPPC   C50 4100   9.137   4.614   3.635
   83DPPC    C1 4101   7.579   5.231   5.980
   83DPPC    C2 4102   7.693   5.027   5.985
   83DPPC    C3 4103   7.467   5.027   6.000
   83DPPC    N4 4104   7.575   5.094   5.928
   83DPPC    C5 4105   7.572   5.103   5.781
   83DPPC    C6 4106   7.536   4.983   5.694
   83DPPC    O7 4107   7.640   4.885   5.688
   83DPPC    P8 4108   7.606   4.778   5.572
   83DPPC    O9 4109   7.460   4.757   5.578
   83DPPC   O10 4110   7.709   4.678   5.608
   83DPPC   O11 4111   7.648   4.860   5.440
   83DPPC   C12 4112   7.776   4.818   5.393
   83DPPC   C13 4113   7.875   4.924   5.344
   83DPPC   O14 4114   7.850   4.987   5.218
   83DPPC   C15 4115   7.909   5.108   5.197
   83DPPC   O16 4116   7.987   5.159   5.277
   83DPPC   C17 4117   7.907   5.156   5.052
   83DPPC   C18 4118   7.771   5.212   5.008
   83DPPC   C19 4119   7.746   5.239   4.860
   83DPPC   C20 4120   7.849   5.332   4.794
   83DPPC   C21 4121   7.855   5.323   4.641
   83DPPC   C22 4122   7.729   5.380   4.575
   83DPPC   C23 4123   7.758   5.388   4.425
   83DPPC   C24 4124   7.643   5.449   4.345
   83DPPC   C25 4125   7.671   5.438   4.195
   83DPPC   C26 4126   7.553   5.480   4.106
   83DPPC   C27 4127   7.578   5.461   3.956
   83DPPC   C28 4128   7.450   5.499   3.880
   83DPPC   C29 4129   7.469   5.491   3.728
   83DPPC   C30 4130   7.454   5.352   3.667
   83DPPC   C31 4131   7.486   5.344   3.518
   83DPPC   C32 4132   8.006   4.845   5.345
   83DPPC   O33 4133   8.007   4.726   5.265
   83DPPC   C34 4134   8.132   4.679   5.238
   83DPPC   O35 4135   8.235   4.735   5.273
   83DPPC   C36 4136   8.139   4.550   5.156
   83DPPC   C37 4137   8.259   4.543   5.061
   83DPPC   C38 4138   8.234   4.450   4.942
   83DPPC   C39 4139   8.367   4.424   4.871
   83DPPC   C40 4140   8.431   4.552   4.819
   83DPPC   C41 4141   8.558   4.503   4.749
   83DPPC   C42 4142   8.659   4.618   4.738
   83DPPC   C43 4143   8.773   4.589   4.641
   83DPPC   C44 4144   8.861   4.708   4.602
   83DPPC   C45 4145   8.996   4.655   4.555
   83DPPC   C46 4146   8.990   4.671   4.403
   83DPPC   C47 4147   9.118   4.623   4.333
   83DPPC   C48 4148   9.125   4.651   4.183
   83DPPC   C49 4149   9.268   4.615   4.142
   83DPPC   C50 4150   9.301   4.642   3.995
   84DPPC    C1 4151   0.842   7.176   4.746
   84DPPC    C2 4152   0.657   7.237   4.620
   84DPPC    C3 4153   0.709   7.003   4.647
   84DPPC    N4 4154   0.704   7.134   4.714
   84DPPC    C5 4155   0.618   7.146   4.832
   84DPPC    C6 4156   0.484   7.073   4.839
   84DPPC    O7 4157   0.370   7.117   4.764
   84DPPC    P8 4158   0.243   7.033   4.817
   84DPPC    O9 4159   0.224   7.055   4.962
   84DPPC   O10 4160   0.280   6.898   4.769
   84DPPC   O11 4161   0.123   7.100   4.734
   84DPPC   C12 4162   0.089   7.004   4.634
   84DPPC   C13 4163  -0.031   7.057   4.555
   84DPPC   O14 4164  -0.077   6.965   4.455
   84DPPC   C15 4165  -0.132   6.844   4.484
   84DPPC   O16 4166  -0.094   6.780   4.582
   84DPPC   C17 4167  -0.213   6.785   4.368
   84DPPC   C18 4168  -0.161   6.840   4.235
   84DPPC   C19 4169  -0.268   6.817   4.128
   84DPPC   C20 4170  -0.390   6.887   4.189
   84DPPC   C21 4171  -0.515   6.844   4.112
   84DPPC   C22 4172  -0.633   6.857   4.207
   84DPPC   C23 4173  -0.752   6.782   4.146
   84DPPC   C24 4174  -0.884   6.827   4.210
   84DPPC   C25 4175  -1.008   6.751   4.164
   84DPPC   C26 4176  -1.137   6.793   4.234
   84DPPC   C27 4177  -1.258   6.706   4.200
   84DPPC   C28 4178  -1.376   6.775   4.269
   84DPPC   C29 4179  -1.512   6.706   4.254
   84DPPC   C30 4180  -1.602   6.781   4.352
   84DPPC   C31 4181  -1.753   6.760   4.338
   84DPPC   C32 4182  -0.004   7.193   4.492
   84DPPC   O33 4183   0.065   7.204   4.368
   84DPPC   C34 4184   0.087   7.335   4.337
   84DPPC   O35 4185   0.034   7.428   4.397
   84DPPC   C36 4186   0.134   7.355   4.192
   84DPPC   C37 4187   0.277   7.303   4.176
   84DPPC   C38 4188   0.322   7.313   4.030
   84DPPC   C39 4189   0.228   7.231   3.941
   84DPPC   C40 4190   0.228   7.092   4.004
   84DPPC   C41 4191   0.151   6.998   3.913
   84DPPC   C42 4192   0.176   6.851   3.949
   84DPPC   C43 4193   0.327   6.824   3.940
   84DPPC   C44 4194   0.360   6.684   3.991
   84DPPC   C45 4195   0.509   6.682   4.029
   84DPPC   C46 4196   0.542   6.800   4.120
   84DPPC   C47 4197   0.681   6.773   4.178
   84DPPC   C48 4198   0.770   6.756   4.054
   84DPPC   C49 4199   0.899   6.837   4.059
   84DPPC   C50 4200   0.981   6.824   3.930
   85DPPC    C1 4201   8.288   7.424   4.872
   85DPPC    C2 4202   8.217   7.482   5.083
   85DPPC    C3 4203   8.376   7.309   5.045
   85DPPC    N4 4204   8.339   7.446   5.008
   85DPPC    C5 4205   8.440   7.551   4.993
   85DPPC    C6 4206   8.531   7.606   5.104
   85DPPC    O7 4207   8.644   7.524   5.134
   85DPPC    P8 4208   8.784   7.604   5.138
   85DPPC    O9 4209   8.877   7.507   5.198
   85DPPC   O10 4210   8.751   7.737   5.194
   85DPPC   O11 4211   8.798   7.602   4.977
   85DPPC   C12 4212   8.826   7.467   4.940
   85DPPC   C13 4213   8.824   7.438   4.790
   85DPPC   O14 4214   8.795   7.301   4.760
   85DPPC   C15 4215   8.670   7.255   4.735
   85DPPC   O16 4216   8.571   7.315   4.776
   85DPPC   C17 4217   8.663   7.126   4.652
   85DPPC   C18 4218   8.530   7.094   4.584
   85DPPC   C19 4219   8.460   6.987   4.668
   85DPPC   C20 4220   8.323   6.959   4.605
   85DPPC   C21 4221   8.230   7.074   4.643
   85DPPC   C22 4222   8.093   7.058   4.577
   85DPPC   C23 4223   7.972   7.135   4.630
   85DPPC   C24 4224   7.868   7.119   4.519
   85DPPC   C25 4225   7.913   7.159   4.378
   85DPPC   C26 4226   7.801   7.151   4.275
   85DPPC   C27 4227   7.842   7.209   4.140
   85DPPC   C28 4228   7.964   7.145   4.075
   85DPPC   C29 4229   7.977   7.177   3.926
   85DPPC   C30 4230   8.102   7.108   3.870
   85DPPC   C31 4231   8.121   7.146   3.723
   85DPPC   C32 4232   8.955   7.494   4.734
   85DPPC   O33 4233   8.962   7.533   4.597
   85DPPC   C34 4234   9.076   7.596   4.556
   85DPPC   O35 4235   9.162   7.639   4.633
   85DPPC   C36 4236   9.081   7.623   4.406
   85DPPC   C37 4237   9.223   7.649   4.356
   85DPPC   C38 4238   9.231   7.726   4.224
   85DPPC   C39 4239   9.376   7.737   4.174
   85DPPC   C40 4240   9.379   7.800   4.035
   85DPPC   C41 4241   9.489   7.739   3.949
   85DPPC   C42 4242   9.478   7.786   3.804
   85DPPC   C43 4243   9.581   7.699   3.732
   85DPPC   C44 4244   9.594   7.701   3.579
   85DPPC   C45 4245   9.708   7.610   3.533
   85DPPC   C46 4246   9.683   7.462   3.563
   85DPPC   C47 4247   9.774   7.356   3.502
   85DPPC   C48 4248   9.700   7.224   3.524
   85DPPC   C49 4249   9.738   7.111   3.428
   85DPPC   C50 4250   9.886   7.081   3.450
   86DPPC    C1 4251   7.160   7.301   5.671
   86DPPC    C2 4252   7.367   7.267   5.532
   86DPPC    C3 4253   7.336   7.430   5.697
   86DPPC    N4 4254   7.307   7.290   5.664
   86DPPC    C5 4255   7.369   7.206   5.767
   86DPPC    C6 4256   7.360   7.054   5.747
   86DPPC    O7 4257   7.227   7.003   5.731
   86DPPC    P8 4258   7.238   6.845   5.699
   86DPPC    O9 4259   7.137   6.801   5.797
   86DPPC   O10 4260   7.379   6.801   5.698
   86DPPC   O11 4261   7.170   6.866   5.555
   86DPPC   C12 4262   7.256   6.861   5.441
   86DPPC   C13 4263   7.179   6.841   5.311
   86DPPC   O14 4264   7.270   6.846   5.200
   86DPPC   C15 4265   7.234   6.774   5.090
   86DPPC   O16 4266   7.145   6.690   5.101
   86DPPC   C17 4267   7.349   6.766   4.989
   86DPPC   C18 4268   7.310   6.716   4.850
   86DPPC   C19 4269   7.407   6.767   4.743
   86DPPC   C20 4270   7.341   6.738   4.608
   86DPPC   C21 4271   7.426   6.799   4.496
   86DPPC   C22 4272   7.403   6.950   4.488
   86DPPC   C23 4273   7.298   7.013   4.397
   86DPPC   C24 4274   7.302   7.165   4.418
   86DPPC   C25 4275   7.213   7.246   4.324
   86DPPC   C26 4276   7.268   7.239   4.182
   86DPPC   C27 4277   7.180   7.334   4.101
   86DPPC   C28 4278   7.236   7.367   3.962
   86DPPC   C29 4279   7.283   7.255   3.871
   86DPPC   C30 4280   7.355   7.303   3.744
   86DPPC   C31 4281   7.250   7.366   3.652
   86DPPC   C32 4282   7.063   6.940   5.301
   86DPPC   O33 4283   7.095   7.078   5.286
   86DPPC   C34 4284   6.990   7.163   5.306
   86DPPC   O35 4285   6.876   7.121   5.326
   86DPPC   C36 4286   7.033   7.309   5.322
   86DPPC   C37 4287   7.024   7.381   5.187
   86DPPC   C38 4288   6.884   7.422   5.140
   86DPPC   C39 4289   6.889   7.468   4.995
   86DPPC   C40 4290   6.977   7.593   4.997
   86DPPC   C41 4291   7.065   7.591   4.871
   86DPPC   C42 4292   7.142   7.721   4.848
   86DPPC   C43 4293   7.239   7.742   4.965
   86DPPC   C44 4294   7.323   7.868   4.942
   86DPPC   C45 4295   7.218   7.980   4.943
   86DPPC   C46 4296   7.261   8.113   4.879
   86DPPC   C47 4297   7.159   8.227   4.884
   86DPPC   C48 4298   7.239   8.340   4.819
   86DPPC   C49 4299   7.149   8.464   4.823
   86DPPC   C50 4300   7.207   8.561   4.720
   87DPPC    C1 4301   5.185   4.625   6.084
   87DPPC    C2 4302   5.029   4.488   6.193
   87DPPC    C3 4303   4.971   4.648   6.033
   87DPPC    N4 4304   5.067   4.541   6.061
   87DPPC    C5 4305   5.081   4.447   5.949
   87DPPC    C6 4306   5.197   4.348   5.947
   87DPPC    O7 4307   5.162   4.241   6.035
   87DPPC    P8 4308   5.280   4.134   6.059
   87DPPC    O9 4309   5.213   4.002   6.072
   87DPPC   O10 4310   5.357   4.201   6.166
   87DPPC   O11 4311   5.348   4.146   5.914
   87DPPC   C12 4312   5.311   4.034   5.833
   87DPPC   C13 4313   5.243   4.070   5.701
   87DPPC   O14 4314   5.195   3.955   5.630
   87DPPC   C15 4315   5.064   3.921   5.646
   87DPPC   O16 4316   4.992   3.961   5.737
   87DPPC   C17 4317   5.013   3.804   5.562
   87DPPC   C18 4318   4.891   3.829   5.474
   87DPPC   C19 4319   4.850   3.716   5.379
   87DPPC   C20 4320   4.958   3.696   5.272
   87DPPC   C21 4321   4.911   3.586   5.176
   87DPPC   C22 4322   5.027   3.556   5.081
   87DPPC   C23 4323   5.072   3.687   5.017
   87DPPC   C24 4324   5.196   3.665   4.929
   87DPPC   C25 4325   5.168   3.612   4.788
   87DPPC   C26 4326   5.079   3.709   4.710
   87DPPC   C27 4327   5.038   3.642   4.578
   87DPPC   C28 4328   4.920   3.710   4.507
   87DPPC   C29 4329   4.890   3.626   4.382
   87DPPC   C30 4330   4.758   3.681   4.328
   87DPPC   C31 4331   4.727   3.622   4.191
   87DPPC   C32 4332   5.333   4.167   5.625
   87DPPC   O33 4333   5.250   4.248   5.542
   87DPPC   C34 4334   5.320   4.315   5.446
   87DPPC   O35 4335   5.443   4.312   5.442
   87DPPC   C36 4336   5.237   4.361   5.326
   87DPPC   C37 4337   5.220   4.250   5.221
   87DPPC   C38 4338   5.135   4.137   5.279
   87DPPC   C39 4339   5.086   4.037   5.174
   87DPPC   C40 4340   4.981   4.108   5.089
   87DPPC   C41 4341   4.925   4.020   4.977
   87DPPC   C42 4342   4.802   4.075   4.904
   87DPPC   C43 4343   4.790   4.015   4.764
   87DPPC   C44 4344   4.660   4.073   4.709
   87DPPC   C45 4345   4.651   4.032   4.562
   87DPPC   C46 4346   4.549   4.125   4.496
   87DPPC   C47 4347   4.536   4.114   4.344
   87DPPC   C48 4348   4.504   3.968   4.313
   87DPPC   C49 4349   4.475   3.966   4.163
   87DPPC   C50 4350   4.359   4.050   4.110
   88DPPC    C1 4351   7.926   6.676   5.557
   88DPPC    C2 4352   7.793   6.492   5.628
   88DPPC    C3 4353   7.817   6.693   5.762
   88DPPC    N4 4354   7.802   6.639   5.627
   88DPPC    C5 4355   7.684   6.682   5.549
   88DPPC    C6 4356   7.644   6.829   5.542
   88DPPC    O7 4357   7.744   6.914   5.485
   88DPPC    P8 4358   7.700   7.069   5.485
   88DPPC    O9 4359   7.819   7.144   5.440
   88DPPC   O10 4360   7.624   7.101   5.608
   88DPPC   O11 4361   7.596   7.059   5.362
   88DPPC   C12 4362   7.661   7.014   5.243
   88DPPC   C13 4363   7.587   6.980   5.113
   88DPPC   O14 4364   7.676   6.953   5.003
   88DPPC   C15 4365   7.728   6.830   4.979
   88DPPC   O16 4366   7.720   6.753   5.074
   88DPPC   C17 4367   7.781   6.793   4.840
   88DPPC   C18 4368   7.770   6.643   4.810
   88DPPC   C19 4369   7.876   6.616   4.702
   88DPPC   C20 4370   7.873   6.470   4.657
   88DPPC   C21 4371   7.984   6.456   4.553
   88DPPC   C22 4372   7.937   6.386   4.425
   88DPPC   C23 4373   8.062   6.337   4.353
   88DPPC   C24 4374   8.027   6.279   4.215
   88DPPC   C25 4375   8.146   6.217   4.143
   88DPPC   C26 4376   8.117   6.207   3.993
   88DPPC   C27 4377   8.239   6.157   3.915
   88DPPC   C28 4378   8.195   6.088   3.786
   88DPPC   C29 4379   8.130   6.189   3.692
   88DPPC   C30 4380   8.119   6.150   3.545
   88DPPC   C31 4381   8.099   6.263   3.443
   88DPPC   C32 4382   7.500   7.103   5.089
   88DPPC   O33 4383   7.381   7.085   5.011
   88DPPC   C34 4384   7.300   7.195   5.015
   88DPPC   O35 4385   7.342   7.295   5.072
   88DPPC   C36 4386   7.158   7.175   4.963
   88DPPC   C37 4387   7.149   7.196   4.812
   88DPPC   C38 4388   7.014   7.156   4.752
   88DPPC   C39 4389   6.991   7.005   4.761
   88DPPC   C40 4390   6.844   6.975   4.727
   88DPPC   C41 4391   6.826   6.831   4.774
   88DPPC   C42 4392   6.678   6.791   4.778
   88DPPC   C43 4393   6.616   6.789   4.638
   88DPPC   C44 4394   6.480   6.720   4.627
   88DPPC   C45 4395   6.396   6.761   4.505
   88DPPC   C46 4396   6.306   6.644   4.466
   88DPPC   C47 4397   6.242   6.667   4.329
   88DPPC   C48 4398   6.156   6.543   4.300
   88DPPC   C49 4399   6.236   6.418   4.335
   88DPPC   C50 4400   6.174   6.296   4.265
   89DPPC    C1 4401   8.895   1.171   5.770
   89DPPC    C2 4402   8.949   1.393   5.785
   89DPPC    C3 4403   9.020   1.278   5.601
   89DPPC    N4 4404   8.903   1.293   5.688
   89DPPC    C5 4405   8.792   1.331   5.600
   89DPPC    C6 4406   8.652   1.377   5.642
   89DPPC    O7 4407   8.664   1.460   5.758
   89DPPC    P8 4408   8.532   1.552   5.767
   89DPPC    O9 4409   8.562   1.668   5.854
   89DPPC   O10 4410   8.424   1.453   5.784
   89DPPC   O11 4411   8.537   1.599   5.613
   89DPPC   C12 4412   8.432   1.684   5.566
   89DPPC   C13 4413   8.477   1.757   5.440
   89DPPC   O14 4414   8.371   1.845   5.399
   89DPPC   C15 4415   8.373   1.978   5.425
   89DPPC   O16 4416   8.435   2.017   5.524
   89DPPC   C17 4417   8.286   2.069   5.337
   89DPPC   C18 4418   8.267   2.024   5.192
   89DPPC   C19 4419   8.200   2.124   5.098
   89DPPC   C20 4420   8.171   2.062   4.961
   89DPPC   C21 4421   8.105   2.161   4.865
   89DPPC   C22 4422   7.973   2.209   4.926
   89DPPC   C23 4423   7.916   2.295   4.814
   89DPPC   C24 4424   7.785   2.357   4.863
   89DPPC   C25 4425   7.709   2.442   4.761
   89DPPC   C26 4426   7.664   2.354   4.644
   89DPPC   C27 4427   7.566   2.433   4.557
   89DPPC   C28 4428   7.618   2.564   4.497
   89DPPC   C29 4429   7.514   2.616   4.397
   89DPPC   C30 4430   7.572   2.747   4.344
   89DPPC   C31 4431   7.701   2.732   4.264
   89DPPC   C32 4432   8.522   1.658   5.332
   89DPPC   O33 4433   8.591   1.731   5.230
   89DPPC   C34 4434   8.620   1.672   5.111
   89DPPC   O35 4435   8.584   1.555   5.096
   89DPPC   C36 4436   8.698   1.746   5.001
   89DPPC   C37 4437   8.600   1.815   4.906
   89DPPC   C38 4438   8.665   1.940   4.847
   89DPPC   C39 4439   8.677   1.949   4.695
   89DPPC   C40 4440   8.542   1.968   4.625
   89DPPC   C41 4441   8.570   2.008   4.479
   89DPPC   C42 4442   8.447   1.984   4.392
   89DPPC   C43 4443   8.318   2.029   4.462
   89DPPC   C44 4444   8.200   1.972   4.383
   89DPPC   C45 4445   8.080   2.043   4.445
   89DPPC   C46 4446   7.954   2.002   4.367
   89DPPC   C47 4447   7.822   2.035   4.435
   89DPPC   C48 4448   7.713   1.969   4.350
   89DPPC   C49 4449   7.577   2.022   4.398
   89DPPC   C50 4450   7.473   1.985   4.292
   90DPPC    C1 4451   6.078   3.117   6.264
   90DPPC    C2 4452   5.918   3.283   6.171
   90DPPC    C3 4453   6.045   3.331   6.338
   90DPPC    N4 4454   6.056   3.253   6.214
   90DPPC    C5 4455   6.156   3.303   6.119
   90DPPC    C6 4456   6.186   3.453   6.111
   90DPPC    O7 4457   6.091   3.529   6.036
   90DPPC    P8 4458   6.093   3.684   6.078
   90DPPC    O9 4459   6.118   3.680   6.224
   90DPPC   O10 4460   5.993   3.770   6.011
   90DPPC   O11 4461   6.234   3.711   6.005
   90DPPC   C12 4462   6.212   3.718   5.864
   90DPPC   C13 4463   6.339   3.720   5.778
   90DPPC   O14 4464   6.323   3.762   5.642
   90DPPC   C15 4465   6.259   3.878   5.609
   90DPPC   O16 4466   6.247   3.970   5.689
   90DPPC   C17 4467   6.232   3.900   5.460
   90DPPC   C18 4468   6.108   3.822   5.416
   90DPPC   C19 4469   6.052   3.872   5.282
   90DPPC   C20 4470   6.146   3.892   5.163
   90DPPC   C21 4471   6.084   3.933   5.029
   90DPPC   C22 4472   6.191   3.988   4.934
   90DPPC   C23 4473   6.153   4.016   4.789
   90DPPC   C24 4474   6.271   4.060   4.702
   90DPPC   C25 4475   6.227   4.088   4.558
   90DPPC   C26 4476   6.344   4.064   4.462
   90DPPC   C27 4477   6.303   4.100   4.319
   90DPPC   C28 4478   6.425   4.081   4.230
   90DPPC   C29 4479   6.396   4.046   4.083
   90DPPC   C30 4480   6.356   3.900   4.062
   90DPPC   C31 4481   6.488   3.823   4.065
   90DPPC   C32 4482   6.418   3.590   5.790
   90DPPC   O33 4483   6.343   3.471   5.762
   90DPPC   C34 4484   6.408   3.354   5.783
   90DPPC   O35 4485   6.507   3.355   5.856
   90DPPC   C36 4486   6.331   3.222   5.772
   90DPPC   C37 4487   6.354   3.145   5.642
   90DPPC   C38 4488   6.242   3.041   5.633
   90DPPC   C39 4489   6.230   2.977   5.495
   90DPPC   C40 4490   6.119   2.872   5.494
   90DPPC   C41 4491   6.118   2.806   5.355
   90DPPC   C42 4492   6.026   2.689   5.324
   90DPPC   C43 4493   6.018   2.661   5.174
   90DPPC   C44 4494   5.973   2.776   5.083
   90DPPC   C45 4495   5.986   2.720   4.941
   90DPPC   C46 4496   5.961   2.820   4.828
   90DPPC   C47 4497   6.026   2.766   4.701
   90DPPC   C48 4498   5.932   2.785   4.582
   90DPPC   C49 4499   5.964   2.676   4.480
   90DPPC   C50 4500   6.105   2.697   4.425
   91DPPC    C1 4501   4.517   7.123   5.689
   91DPPC    C2 4502   4.461   7.260   5.861
   91DPPC    C3 4503   4.648   7.329   5.742
   91DPPC    N4 4504   4.516   7.265   5.725
   91DPPC    C5 4505   4.415   7.346   5.654
   91DPPC    C6 4506   4.448   7.348   5.505
   91DPPC    O7 4507   4.357   7.441   5.446
   91DPPC    P8 4508   4.311   7.389   5.301
   91DPPC    O9 4509   4.242   7.507   5.244
   91DPPC   O10 4510   4.239   7.263   5.333
   91DPPC   O11 4511   4.452   7.338   5.242
   91DPPC   C12 4512   4.456   7.406   5.116
   91DPPC   C13 4513   4.574   7.356   5.033
   91DPPC   O14 4514   4.617   7.433   4.919
   91DPPC   C15 4515   4.695   7.544   4.930
   91DPPC   O16 4516   4.740   7.591   5.034
   91DPPC   C17 4517   4.760   7.579   4.796
   91DPPC   C18 4518   4.727   7.498   4.670
   91DPPC   C19 4519   4.821   7.531   4.554
   91DPPC   C20 4520   4.763   7.478   4.423
   91DPPC   C21 4521   4.835   7.547   4.307
   91DPPC   C22 4522   4.827   7.465   4.178
   91DPPC   C23 4523   4.894   7.531   4.058
   91DPPC   C24 4524   4.916   7.440   3.937
   91DPPC   C25 4525   4.965   7.525   3.820
   91DPPC   C26 4526   4.979   7.431   3.700
   91DPPC   C27 4527   5.078   7.315   3.717
   91DPPC   C28 4528   5.121   7.267   3.578
   91DPPC   C29 4529   5.228   7.157   3.580
   91DPPC   C30 4530   5.308   7.143   3.451
   91DPPC   C31 4531   5.220   7.094   3.336
   91DPPC   C32 4532   4.557   7.206   5.008
   91DPPC   O33 4533   4.419   7.169   4.998
   91DPPC   C34 4534   4.390   7.042   4.958
   91DPPC   O35 4535   4.474   6.955   4.984
   91DPPC   C36 4536   4.257   7.015   4.889
   91DPPC   C37 4537   4.276   6.913   4.776
   91DPPC   C38 4538   4.133   6.881   4.730
   91DPPC   C39 4539   4.147   6.785   4.612
   91DPPC   C40 4540   4.210   6.878   4.508
   91DPPC   C41 4541   4.252   6.798   4.385
   91DPPC   C42 4542   4.138   6.712   4.330
   91DPPC   C43 4543   4.189   6.622   4.217
   91DPPC   C44 4544   4.313   6.546   4.264
   91DPPC   C45 4545   4.334   6.428   4.168
   91DPPC   C46 4546   4.354   6.470   4.022
   91DPPC   C47 4547   4.375   6.351   3.929
   91DPPC   C48 4548   4.339   6.403   3.790
   91DPPC   C49 4549   4.343   6.280   3.698
   91DPPC   C50 4550   4.312   6.313   3.552
   92DPPC    C1 4551   1.860   5.977   5.553
   92DPPC    C2 4552   1.834   6.206   5.639
   92DPPC    C3 4553   1.802   6.032   5.777
   92DPPC    N4 4554   1.886   6.070   5.663
   92DPPC    C5 4555   2.027   6.069   5.706
   92DPPC    C6 4556   2.126   6.114   5.599
   92DPPC    O7 4557   2.186   6.005   5.529
   92DPPC    P8 4558   2.307   6.050   5.432
   92DPPC    O9 4559   2.320   5.921   5.362
   92DPPC   O10 4560   2.385   6.093   5.550
   92DPPC   O11 4561   2.216   6.153   5.347
   92DPPC   C12 4562   2.177   6.079   5.231
   92DPPC   C13 4563   2.093   6.153   5.127
   92DPPC   O14 4564   2.056   6.068   5.017
   92DPPC   C15 4565   1.924   6.037   5.010
   92DPPC   O16 4566   1.846   6.111   5.070
   92DPPC   C17 4567   1.880   5.923   4.918
   92DPPC   C18 4568   1.869   5.974   4.774
   92DPPC   C19 4569   1.890   5.843   4.699
   92DPPC   C20 4570   1.861   5.882   4.554
   92DPPC   C21 4571   1.840   5.757   4.468
   92DPPC   C22 4572   1.798   5.797   4.326
   92DPPC   C23 4573   1.794   5.674   4.235
   92DPPC   C24 4574   1.695   5.573   4.294
   92DPPC   C25 4575   1.682   5.459   4.193
   92DPPC   C26 4576   1.561   5.375   4.237
   92DPPC   C27 4577   1.536   5.289   4.114
   92DPPC   C28 4578   1.553   5.373   3.987
   92DPPC   C29 4579   1.498   5.284   3.876
   92DPPC   C30 4580   1.519   5.319   3.729
   92DPPC   C31 4581   1.475   5.466   3.720
   92DPPC   C32 4582   2.177   6.277   5.095
   92DPPC   O33 4583   2.313   6.256   5.055
   92DPPC   C34 4584   2.397   6.362   5.042
   92DPPC   O35 4585   2.403   6.465   5.108
   92DPPC   C36 4586   2.528   6.331   4.969
   92DPPC   C37 4587   2.584   6.451   4.893
   92DPPC   C38 4588   2.728   6.425   4.849
   92DPPC   C39 4589   2.742   6.313   4.746
   92DPPC   C40 4590   2.658   6.349   4.623
   92DPPC   C41 4591   2.696   6.255   4.509
   92DPPC   C42 4592   2.677   6.106   4.539
   92DPPC   C43 4593   2.678   6.028   4.407
   92DPPC   C44 4594   2.629   5.887   4.442
   92DPPC   C45 4595   2.729   5.814   4.531
   92DPPC   C46 4596   2.690   5.670   4.568
   92DPPC   C47 4597   2.782   5.604   4.671
   92DPPC   C48 4598   2.741   5.467   4.725
   92DPPC   C49 4599   2.841   5.410   4.826
   92DPPC   C50 4600   2.785   5.277   4.876
   93DPPC    C1 4601   1.340   2.764   5.183
   93DPPC    C2 4602   1.253   2.947   5.064
   93DPPC    C3 4603   1.125   2.741   5.102
   93DPPC    N4 4604   1.216   2.841   5.159
   93DPPC    C5 4605   1.165   2.874   5.293
   93DPPC    C6 4606   1.232   2.991   5.367
   93DPPC    O7 4607   1.163   3.111   5.332
   93DPPC    P8 4608   1.240   3.236   5.398
   93DPPC    O9 4609   1.325   3.183   5.507
   93DPPC   O10 4610   1.129   3.330   5.428
   93DPPC   O11 4611   1.318   3.277   5.263
   93DPPC   C12 4612   1.220   3.320   5.169
   93DPPC   C13 4613   1.256   3.438   5.078
   93DPPC   O14 4614   1.165   3.488   4.979
   93DPPC   C15 4615   1.058   3.565   5.012
   93DPPC   O16 4616   1.023   3.588   5.128
   93DPPC   C17 4617   0.975   3.607   4.891
   93DPPC   C18 4618   0.838   3.538   4.895
   93DPPC   C19 4619   0.745   3.580   4.781
   93DPPC   C20 4620   0.816   3.553   4.648
   93DPPC   C21 4621   0.755   3.587   4.512
   93DPPC   C22 4622   0.729   3.737   4.492
   93DPPC   C23 4623   0.669   3.772   4.356
   93DPPC   C24 4624   0.774   3.757   4.245
   93DPPC   C25 4625   0.720   3.807   4.111
   93DPPC   C26 4626   0.606   3.712   4.073
   93DPPC   C27 4627   0.539   3.733   3.937
   93DPPC   C28 4628   0.630   3.710   3.816
   93DPPC   C29 4629   0.546   3.741   3.691
   93DPPC   C30 4630   0.627   3.679   3.577
   93DPPC   C31 4631   0.559   3.719   3.446
   93DPPC   C32 4632   1.383   3.386   5.010
   93DPPC   O33 4633   1.358   3.283   4.914
   93DPPC   C34 4634   1.453   3.259   4.820
   93DPPC   O35 4635   1.572   3.284   4.840
   93DPPC   C36 4636   1.421   3.160   4.708
   93DPPC   C37 4637   1.279   3.174   4.653
   93DPPC   C38 4638   1.249   3.069   4.546
   93DPPC   C39 4639   1.336   3.082   4.420
   93DPPC   C40 4640   1.299   2.974   4.319
   93DPPC   C41 4641   1.382   2.989   4.191
   93DPPC   C42 4642   1.316   2.901   4.085
   93DPPC   C43 4643   1.387   2.899   3.950
   93DPPC   C44 4644   1.308   2.986   3.851
   93DPPC   C45 4645   1.393   3.014   3.727
   93DPPC   C46 4646   1.305   3.110   3.646
   93DPPC   C47 4647   1.371   3.198   3.541
   93DPPC   C48 4648   1.389   3.129   3.406
   93DPPC   C49 4649   1.420   3.213   3.282
   93DPPC   C50 4650   1.442   3.140   3.149
   94DPPC    C1 4651   3.477   6.515   5.563
   94DPPC    C2 4652   3.571   6.618   5.767
   94DPPC    C3 4653   3.340   6.605   5.741
   94DPPC    N4 4654   3.465   6.535   5.708
   94DPPC    C5 4655   3.451   6.402   5.769
   94DPPC    C6 4656   3.574   6.313   5.791
   94DPPC    O7 4657   3.645   6.280   5.671
   94DPPC    P8 4658   3.764   6.182   5.716
   94DPPC    O9 4659   3.684   6.081   5.788
   94DPPC   O10 4660   3.849   6.281   5.788
   94DPPC   O11 4661   3.800   6.154   5.562
   94DPPC   C12 4662   3.866   6.270   5.511
   94DPPC   C13 4663   3.884   6.263   5.359
   94DPPC   O14 4664   3.769   6.318   5.293
   94DPPC   C15 4665   3.768   6.452   5.269
   94DPPC   O16 4666   3.856   6.525   5.314
   94DPPC   C17 4667   3.640   6.507   5.206
   94DPPC   C18 4668   3.680   6.600   5.091
   94DPPC   C19 4669   3.545   6.633   5.027
   94DPPC   C20 4670   3.566   6.734   4.914
   94DPPC   C21 4671   3.438   6.760   4.835
   94DPPC   C22 4672   3.478   6.867   4.733
   94DPPC   C23 4673   3.595   6.824   4.645
   94DPPC   C24 4674   3.557   6.704   4.558
   94DPPC   C25 4675   3.643   6.689   4.432
   94DPPC   C26 4676   3.647   6.546   4.378
   94DPPC   C27 4677   3.696   6.556   4.234
   94DPPC   C28 4678   3.756   6.420   4.195
   94DPPC   C29 4679   3.653   6.309   4.221
   94DPPC   C30 4680   3.582   6.277   4.090
   94DPPC   C31 4681   3.493   6.154   4.110
   94DPPC   C32 4682   3.915   6.119   5.320
   94DPPC   O33 4683   3.969   6.087   5.191
   94DPPC   C34 4684   4.023   5.963   5.198
   94DPPC   O35 4685   4.013   5.904   5.306
   94DPPC   C36 4686   4.105   5.918   5.077
   94DPPC   C37 4687   4.024   5.812   5.002
   94DPPC   C38 4688   4.065   5.829   4.856
   94DPPC   C39 4689   4.195   5.755   4.824
   94DPPC   C40 4690   4.233   5.819   4.690
   94DPPC   C41 4691   4.125   5.779   4.589
   94DPPC   C42 4692   4.183   5.816   4.452
   94DPPC   C43 4693   4.309   5.739   4.412
   94DPPC   C44 4694   4.315   5.753   4.260
   94DPPC   C45 4695   4.437   5.678   4.205
   94DPPC   C46 4696   4.451   5.684   4.053
   94DPPC   C47 4697   4.548   5.576   4.005
   94DPPC   C48 4698   4.596   5.600   3.861
   94DPPC   C49 4699   4.662   5.472   3.808
   94DPPC   C50 4700   4.696   5.494   3.660
   95DPPC    C1 4701   1.114   1.849   5.722
   95DPPC    C2 4702   0.955   1.767   5.573
   95DPPC    C3 4703   0.894   1.873   5.779
   95DPPC    N4 4704   0.983   1.880   5.663
   95DPPC    C5 4705   0.981   2.005   5.585
   95DPPC    C6 4706   0.989   2.136   5.664
   95DPPC    O7 4707   1.124   2.180   5.684
   95DPPC    P8 4708   1.114   2.325   5.753
   95DPPC    O9 4709   1.257   2.354   5.772
   95DPPC   O10 4710   1.028   2.309   5.872
   95DPPC   O11 4711   1.055   2.402   5.625
   95DPPC   C12 4712   1.157   2.432   5.529
   95DPPC   C13 4713   1.093   2.476   5.398
   95DPPC   O14 4714   1.177   2.488   5.282
   95DPPC   C15 4715   1.204   2.369   5.223
   95DPPC   O16 4716   1.153   2.268   5.271
   95DPPC   C17 4717   1.322   2.358   5.126
   95DPPC   C18 4718   1.323   2.231   5.040
   95DPPC   C19 4719   1.203   2.235   4.945
   95DPPC   C20 4720   1.187   2.096   4.882
   95DPPC   C21 4721   1.071   2.096   4.783
   95DPPC   C22 4722   1.055   1.955   4.725
   95DPPC   C23 4723   0.938   1.958   4.627
   95DPPC   C24 4724   0.979   2.042   4.506
   95DPPC   C25 4725   0.867   2.040   4.401
   95DPPC   C26 4726   0.919   1.995   4.265
   95DPPC   C27 4727   0.802   1.984   4.167
   95DPPC   C28 4728   0.863   1.954   4.030
   95DPPC   C29 4729   0.762   1.917   3.921
   95DPPC   C30 4730   0.850   1.866   3.806
   95DPPC   C31 4731   0.747   1.834   3.697
   95DPPC   C32 4732   1.013   2.592   5.456
   95DPPC   O33 4733   0.939   2.665   5.358
   95DPPC   C34 4734   0.816   2.702   5.403
   95DPPC   O35 4735   0.770   2.629   5.491
   95DPPC   C36 4736   0.740   2.818   5.338
   95DPPC   C37 4737   0.770   2.834   5.189
   95DPPC   C38 4738   0.689   2.952   5.135
   95DPPC   C39 4739   0.746   2.975   4.995
   95DPPC   C40 4740   0.829   3.103   4.985
   95DPPC   C41 4741   0.896   3.110   4.848
   95DPPC   C42 4742   0.803   3.162   4.738
   95DPPC   C43 4743   0.882   3.166   4.607
   95DPPC   C44 4744   0.785   3.200   4.493
   95DPPC   C45 4745   0.869   3.231   4.369
   95DPPC   C46 4746   0.788   3.266   4.244
   95DPPC   C47 4747   0.873   3.304   4.123
   95DPPC   C48 4748   0.794   3.327   3.994
   95DPPC   C49 4749   0.717   3.200   3.955
   95DPPC   C50 4750   0.799   3.076   3.918
   96DPPC    C1 4751   2.003   8.032   4.849
   96DPPC    C2 4752   1.980   7.940   5.072
   96DPPC    C3 4753   2.149   7.858   4.921
   96DPPC    N4 4754   2.074   7.977   4.965
   96DPPC    C5 4755   2.166   8.084   5.005
   96DPPC    C6 4756   2.283   8.053   5.099
   96DPPC    O7 4757   2.337   8.174   5.152
   96DPPC    P8 4758   2.491   8.172   5.197
   96DPPC    O9 4759   2.513   8.035   5.247
   96DPPC   O10 4760   2.507   8.293   5.281
   96DPPC   O11 4761   2.547   8.187   5.047
   96DPPC   C12 4762   2.552   8.327   5.016
   96DPPC   C13 4763   2.629   8.351   4.886
   96DPPC   O14 4764   2.572   8.458   4.809
   96DPPC   C15 4765   2.616   8.585   4.831
   96DPPC   O16 4766   2.659   8.618   4.942
   96DPPC   C17 4767   2.557   8.691   4.738
   96DPPC   C18 4768   2.648   8.700   4.615
   96DPPC   C19 4769   2.567   8.774   4.508
   96DPPC   C20 4770   2.439   8.699   4.474
   96DPPC   C21 4771   2.361   8.768   4.362
   96DPPC   C22 4772   2.245   8.683   4.309
   96DPPC   C23 4773   2.215   8.707   4.160
   96DPPC   C24 4774   2.161   8.844   4.120
   96DPPC   C25 4775   2.131   8.853   3.970
   96DPPC   C26 4776   2.098   8.996   3.925
   96DPPC   C27 4777   2.137   9.007   3.778
   96DPPC   C28 4778   2.091   9.147   3.735
   96DPPC   C29 4779   2.130   9.183   3.592
   96DPPC   C30 4780   2.282   9.165   3.595
   96DPPC   C31 4781   2.333   9.157   3.451
   96DPPC   C32 4782   2.633   8.225   4.800
   96DPPC   O33 4783   2.712   8.227   4.681
   96DPPC   C34 4784   2.671   8.135   4.590
   96DPPC   O35 4785   2.593   8.044   4.615
   96DPPC   C36 4786   2.741   8.140   4.454
   96DPPC   C37 4787   2.889   8.110   4.479
   96DPPC   C38 4788   2.976   8.126   4.354
   96DPPC   C39 4789   3.122   8.093   4.387
   96DPPC   C40 4790   3.158   8.172   4.512
   96DPPC   C41 4791   3.287   8.122   4.577
   96DPPC   C42 4792   3.402   8.132   4.476
   96DPPC   C43 4793   3.530   8.114   4.558
   96DPPC   C44 4794   3.656   8.150   4.479
   96DPPC   C45 4795   3.649   8.295   4.433
   96DPPC   C46 4796   3.761   8.337   4.337
   96DPPC   C47 4797   3.748   8.485   4.299
   96DPPC   C48 4798   3.866   8.535   4.215
   96DPPC   C49 4799   3.989   8.481   4.288
   96DPPC   C50 4800   4.117   8.524   4.215
   97DPPC    C1 4801   9.528   4.414   5.925
   97DPPC    C2 4802   9.487   4.264   5.732
   97DPPC    C3 4803   9.676   4.379   5.749
   97DPPC    N4 4804   9.580   4.310   5.836
   97DPPC    C5 4805   9.614   4.200   5.928
   97DPPC    C6 4806   9.711   4.088   5.890
   97DPPC    O7 4807   9.851   4.111   5.877
   97DPPC    P8 4808   9.914   3.963   5.891
   97DPPC    O9 4809   9.811   3.868   5.844
   97DPPC   O10 4810   9.936   3.957   6.037
   97DPPC   O11 4811  10.046   3.956   5.798
   97DPPC   C12 4812   9.993   3.985   5.669
   97DPPC   C13 4813  10.070   3.912   5.559
   97DPPC   O14 4814  10.082   3.996   5.444
   97DPPC   C15 4815  10.156   3.943   5.343
   97DPPC   O16 4816  10.219   3.839   5.360
   97DPPC   C17 4817  10.199   4.037   5.230
   97DPPC   C18 4818  10.208   3.951   5.104
   97DPPC   C19 4819  10.245   4.045   4.989
   97DPPC   C20 4820  10.247   3.976   4.853
   97DPPC   C21 4821  10.235   4.071   4.733
   97DPPC   C22 4822  10.092   4.122   4.717
   97DPPC   C23 4823  10.088   4.233   4.611
   97DPPC   C24 4824   9.942   4.255   4.572
   97DPPC   C25 4825   9.913   4.344   4.451
   97DPPC   C26 4826   9.967   4.288   4.320
   97DPPC   C27 4827   9.921   4.144   4.296
   97DPPC   C28 4828   9.915   4.106   4.148
   97DPPC   C29 4829   9.816   4.201   4.081
   97DPPC   C30 4830   9.801   4.159   3.934
   97DPPC   C31 4831   9.934   4.157   3.859
   97DPPC   C32 4832  10.012   3.772   5.532
   97DPPC   O33 4833   9.914   3.780   5.428
   97DPPC   C34 4834   9.850   3.667   5.388
   97DPPC   O35 4835   9.866   3.561   5.449
   97DPPC   C36 4836   9.780   3.684   5.253
   97DPPC   C37 4837   9.879   3.698   5.138
   97DPPC   C38 4838   9.808   3.704   5.003
   97DPPC   C39 4839   9.881   3.763   4.882
   97DPPC   C40 4840   9.791   3.778   4.760
   97DPPC   C41 4841   9.873   3.793   4.631
   97DPPC   C42 4842   9.793   3.748   4.508
   97DPPC   C43 4843   9.653   3.807   4.495
   97DPPC   C44 4844   9.578   3.771   4.367
   97DPPC   C45 4845   9.655   3.799   4.238
   97DPPC   C46 4846   9.566   3.761   4.119
   97DPPC   C47 4847   9.643   3.786   3.989
   97DPPC   C48 4848   9.559   3.789   3.861
   97DPPC   C49 4849   9.643   3.794   3.733
   97DPPC   C50 4850   9.570   3.833   3.604
   98DPPC    C1 4851   7.929   4.365   5.856
   98DPPC    C2 4852   7.755   4.216   5.907
   98DPPC    C3 4853   7.777   4.451   6.001
   98DPPC    N4 4854   7.785   4.358   5.888
   98DPPC    C5 4855   7.719   4.418   5.771
   98DPPC    C6 4856   7.566   4.426   5.767
   98DPPC    O7 4857   7.496   4.301   5.768
   98DPPC    P8 4858   7.350   4.354   5.813
   98DPPC    O9 4859   7.382   4.432   5.934
   98DPPC   O10 4860   7.259   4.237   5.812
   98DPPC   O11 4861   7.311   4.441   5.683
   98DPPC   C12 4862   7.284   4.342   5.583
   98DPPC   C13 4863   7.254   4.410   5.449
   98DPPC   O14 4864   7.211   4.316   5.350
   98DPPC   C15 4865   7.081   4.317   5.309
   98DPPC   O16 4866   7.014   4.398   5.374
   98DPPC   C17 4867   7.040   4.243   5.182
   98DPPC   C18 4868   7.159   4.241   5.086
   98DPPC   C19 4869   7.184   4.369   5.006
   98DPPC   C20 4870   7.192   4.350   4.854
   98DPPC   C21 4871   7.299   4.249   4.812
   98DPPC   C22 4872   7.329   4.256   4.662
   98DPPC   C23 4873   7.387   4.390   4.617
   98DPPC   C24 4874   7.423   4.415   4.470
   98DPPC   C25 4875   7.290   4.434   4.397
   98DPPC   C26 4876   7.305   4.413   4.247
   98DPPC   C27 4877   7.406   4.510   4.185
   98DPPC   C28 4878   7.379   4.522   4.035
   98DPPC   C29 4879   7.239   4.582   4.019
   98DPPC   C30 4880   7.197   4.575   3.872
   98DPPC   C31 4881   7.298   4.631   3.772
   98DPPC   C32 4882   7.385   4.480   5.410
   98DPPC   O33 4883   7.383   4.569   5.299
   98DPPC   C34 4884   7.501   4.573   5.230
   98DPPC   O35 4885   7.602   4.517   5.273
   98DPPC   C36 4886   7.495   4.618   5.084
   98DPPC   C37 4887   7.601   4.719   5.039
   98DPPC   C38 4888   7.560   4.775   4.903
   98DPPC   C39 4889   7.657   4.754   4.787
   98DPPC   C40 4890   7.604   4.831   4.666
   98DPPC   C41 4891   7.666   4.778   4.536
   98DPPC   C42 4892   7.627   4.861   4.414
   98DPPC   C43 4893   7.697   4.807   4.289
   98DPPC   C44 4894   7.669   4.881   4.158
   98DPPC   C45 4895   7.705   4.795   4.036
   98DPPC   C46 4896   7.855   4.766   4.035
   98DPPC   C47 4897   7.887   4.693   3.904
   98DPPC   C48 4898   8.035   4.721   3.875
   98DPPC   C49 4899   8.093   4.596   3.809
   98DPPC   C50 4900   8.245   4.608   3.792
   99DPPC    C1 4901   8.338   5.446   1.398
   99DPPC    C2 4902   8.474   5.558   1.569
   99DPPC    C3 4903   8.487   5.595   1.331
   99DPPC    N4 4904   8.396   5.572   1.445
   99DPPC    C5 4905   8.301   5.684   1.451
   99DPPC    C6 4906   8.188   5.687   1.555
   99DPPC    O7 4907   8.054   5.675   1.506
   99DPPC    P8 4908   7.963   5.784   1.581
   99DPPC    O9 4909   7.828   5.799   1.522
   99DPPC   O10 4910   8.038   5.911   1.588
   99DPPC   O11 4911   7.957   5.741   1.736
   99DPPC   C12 4912   7.834   5.788   1.793
   99DPPC   C13 4913   7.833   5.792   1.946
   99DPPC   O14 4914   7.851   5.925   1.996
   99DPPC   C15 4915   7.748   6.014   1.981
   99DPPC   O16 4916   7.654   6.012   1.903
   99DPPC   C17 4917   7.750   6.137   2.073
   99DPPC   C18 4918   7.608   6.172   2.116
   99DPPC   C19 4919   7.614   6.307   2.187
   99DPPC   C20 4920   7.693   6.284   2.316
   99DPPC   C21 4921   7.671   6.412   2.397
   99DPPC   C22 4922   7.522   6.414   2.431
   99DPPC   C23 4923   7.488   6.536   2.517
   99DPPC   C24 4924   7.340   6.575   2.510
   99DPPC   C25 4925   7.320   6.700   2.596
   99DPPC   C26 4926   7.396   6.685   2.728
   99DPPC   C27 4927   7.323   6.630   2.851
   99DPPC   C28 4928   7.413   6.558   2.952
   99DPPC   C29 4929   7.325   6.536   3.075
   99DPPC   C30 4930   7.380   6.416   3.152
   99DPPC   C31 4931   7.289   6.396   3.274
   99DPPC   C32 4932   7.937   5.691   1.994
   99DPPC   O33 4933   7.885   5.568   2.045
   99DPPC   C34 4934   7.983   5.494   2.102
   99DPPC   O35 4935   8.096   5.539   2.116
   99DPPC   C36 4936   7.935   5.378   2.191
   99DPPC   C37 4937   7.995   5.389   2.331
   99DPPC   C38 4938   7.952   5.274   2.423
   99DPPC   C39 4939   8.031   5.300   2.552
   99DPPC   C40 4940   7.995   5.191   2.653
   99DPPC   C41 4941   8.082   5.193   2.779
   99DPPC   C42 4942   8.002   5.135   2.896
   99DPPC   C43 4943   7.879   5.219   2.930
   99DPPC   C44 4944   7.817   5.190   3.067
   99DPPC   C45 4945   7.756   5.051   3.088
   99DPPC   C46 4946   7.716   5.029   3.234
   99DPPC   C47 4947   7.630   4.903   3.244
   99DPPC   C48 4948   7.597   4.847   3.382
   99DPPC   C49 4949   7.486   4.741   3.376
   99DPPC   C50 4950   7.354   4.816   3.361
  100DPPC    C1 4951   4.384   4.550   2.422
  100DPPC    C2 4952   4.252   4.574   2.227
  100DPPC    C3 4953   4.171   4.463   2.423
  100DPPC    N4 4954   4.248   4.578   2.373
  100DPPC    C5 4955   4.194   4.702   2.432
  100DPPC    C6 4956   4.052   4.741   2.390
  100DPPC    O7 4957   4.030   4.881   2.408
  100DPPC    P8 4958   3.931   4.937   2.294
  100DPPC    O9 4959   3.987   4.928   2.157
  100DPPC   O10 4960   3.885   5.067   2.349
  100DPPC   O11 4961   3.801   4.843   2.309
  100DPPC   C12 4962   3.709   4.884   2.411
  100DPPC   C13 4963   3.598   4.786   2.449
  100DPPC   O14 4964   3.484   4.849   2.510
  100DPPC   C15 4965   3.413   4.948   2.451
  100DPPC   O16 4966   3.421   4.964   2.329
  100DPPC   C17 4967   3.296   4.985   2.542
  100DPPC   C18 4968   3.168   4.906   2.513
  100DPPC   C19 4969   3.135   4.799   2.617
  100DPPC   C20 4970   3.121   4.862   2.756
  100DPPC   C21 4971   3.070   4.766   2.865
  100DPPC   C22 4972   3.048   4.843   2.995
  100DPPC   C23 4973   2.984   4.739   3.088
  100DPPC   C24 4974   2.979   4.798   3.229
  100DPPC   C25 4975   2.871   4.906   3.228
  100DPPC   C26 4976   2.854   4.979   3.362
  100DPPC   C27 4977   2.809   5.120   3.322
  100DPPC   C28 4978   2.795   5.210   3.445
  100DPPC   C29 4979   2.787   5.354   3.394
  100DPPC   C30 4980   2.777   5.446   3.516
  100DPPC   C31 4981   2.876   5.407   3.626
  100DPPC   C32 4982   3.665   4.660   2.505
  100DPPC   O33 4983   3.758   4.688   2.610
  100DPPC   C34 4984   3.812   4.573   2.659
  100DPPC   O35 4985   3.787   4.464   2.607
  100DPPC   C36 4986   3.931   4.593   2.753
  100DPPC   C37 4987   3.896   4.568   2.900
  100DPPC   C38 4988   4.019   4.587   2.990
  100DPPC   C39 4989   3.985   4.607   3.138
  100DPPC   C40 4990   3.931   4.748   3.163
  100DPPC   C41 4991   3.914   4.756   3.315
  100DPPC   C42 4992   3.874   4.889   3.378
  100DPPC   C43 4993   3.764   4.970   3.308
  100DPPC   C44 4994   3.729   5.098   3.384
  100DPPC   C45 4995   3.673   5.210   3.297
  100DPPC   C46 4996   3.663   5.339   3.378
  100DPPC   C47 4997   3.594   5.446   3.293
  100DPPC   C48 4998   3.578   5.572   3.378
  100DPPC   C49 4999   3.718   5.606   3.432
  100DPPC   C50 5000   3.696   5.747   3.486
  101DPPC    C1 5001   5.680   0.467   2.094
  101DPPC    C2 5002   5.657   0.260   2.186
  101DPPC    C3 5003   5.666   0.452   2.325
  101DPPC    N4 5004   5.607   0.397   2.202
  101DPPC    C5 5005   5.461   0.415   2.192
  101DPPC    C6 5006   5.375   0.336   2.093
  101DPPC    O7 5007   5.238   0.375   2.101
  101DPPC    P8 5008   5.138   0.258   2.054
  101DPPC    O9 5009   5.214   0.162   1.970
  101DPPC   O10 5010   5.020   0.322   1.992
  101DPPC   O11 5011   5.113   0.202   2.202
  101DPPC   C12 5012   5.038   0.297   2.278
  101DPPC   C13 5013   5.007   0.257   2.422
  101DPPC   O14 5014   4.953   0.379   2.475
  101DPPC   C15 5015   4.826   0.381   2.524
  101DPPC   O16 5016   4.744   0.304   2.474
  101DPPC   C17 5017   4.789   0.479   2.635
  101DPPC   C18 5018   4.866   0.429   2.758
  101DPPC   C19 5019   4.846   0.541   2.860
  101DPPC   C20 5020   4.888   0.515   3.005
  101DPPC   C21 5021   4.867   0.631   3.103
  101DPPC   C22 5022   4.721   0.663   3.135
  101DPPC   C23 5023   4.662   0.526   3.168
  101DPPC   C24 5024   4.512   0.535   3.199
  101DPPC   C25 5025   4.449   0.410   3.259
  101DPPC   C26 5026   4.306   0.441   3.306
  101DPPC   C27 5027   4.286   0.343   3.422
  101DPPC   C28 5028   4.327   0.204   3.372
  101DPPC   C29 5029   4.365   0.119   3.494
  101DPPC   C30 5030   4.428  -0.012   3.446
  101DPPC   C31 5031   4.566  -0.002   3.382
  101DPPC   C32 5032   5.130   0.196   2.489
  101DPPC   O33 5033   5.255   0.265   2.500
  101DPPC   C34 5034   5.355   0.189   2.553
  101DPPC   O35 5035   5.357   0.069   2.525
  101DPPC   C36 5036   5.482   0.261   2.598
  101DPPC   C37 5037   5.466   0.286   2.748
  101DPPC   C38 5038   5.587   0.342   2.824
  101DPPC   C39 5039   5.562   0.350   2.975
  101DPPC   C40 5040   5.670   0.448   3.023
  101DPPC   C41 5041   5.652   0.475   3.172
  101DPPC   C42 5042   5.762   0.554   3.243
  101DPPC   C43 5043   5.746   0.539   3.395
  101DPPC   C44 5044   5.858   0.601   3.478
  101DPPC   C45 5045   5.840   0.586   3.629
  101DPPC   C46 5046   5.959   0.645   3.706
  101DPPC   C47 5047   5.925   0.632   3.854
  101DPPC   C48 5048   6.030   0.699   3.942
  101DPPC   C49 5049   6.002   0.692   4.093
  101DPPC   C50 5050   6.122   0.703   4.187
  102DPPC    C1 5051   2.395   1.299   2.027
  102DPPC    C2 5052   2.501   1.202   2.210
  102DPPC    C3 5053   2.285   1.151   2.187
  102DPPC    N4 5054   2.403   1.174   2.104
  102DPPC    C5 5055   2.451   1.062   2.023
  102DPPC    C6 5056   2.414   1.055   1.874
  102DPPC    O7 5057   2.272   1.059   1.855
  102DPPC    P8 5058   2.229   0.950   1.745
  102DPPC    O9 5059   2.355   0.906   1.682
  102DPPC   O10 5060   2.098   0.982   1.684
  102DPPC   O11 5061   2.199   0.830   1.848
  102DPPC   C12 5062   2.083   0.873   1.921
  102DPPC   C13 5063   2.012   0.775   2.014
  102DPPC   O14 5064   1.887   0.823   2.068
  102DPPC   C15 5065   1.802   0.733   2.125
  102DPPC   O16 5066   1.818   0.613   2.103
  102DPPC   C17 5067   1.687   0.789   2.208
  102DPPC   C18 5068   1.727   0.758   2.352
  102DPPC   C19 5069   1.641   0.813   2.466
  102DPPC   C20 5070   1.696   0.770   2.602
  102DPPC   C21 5071   1.600   0.822   2.710
  102DPPC   C22 5072   1.666   0.818   2.848
  102DPPC   C23 5073   1.583   0.848   2.973
  102DPPC   C24 5074   1.543   0.995   2.973
  102DPPC   C25 5075   1.427   1.034   3.064
  102DPPC   C26 5076   1.430   1.185   3.086
  102DPPC   C27 5077   1.543   1.216   3.184
  102DPPC   C28 5078   1.588   1.358   3.149
  102DPPC   C29 5079   1.474   1.458   3.170
  102DPPC   C30 5080   1.515   1.599   3.129
  102DPPC   C31 5081   1.546   1.601   2.979
  102DPPC   C32 5082   2.116   0.742   2.121
  102DPPC   O33 5083   2.183   0.836   2.206
  102DPPC   C34 5084   2.247   0.771   2.307
  102DPPC   O35 5085   2.266   0.650   2.319
  102DPPC   C36 5086   2.304   0.852   2.423
  102DPPC   C37 5087   2.209   0.858   2.543
  102DPPC   C38 5088   2.204   0.725   2.618
  102DPPC   C39 5089   2.092   0.715   2.722
  102DPPC   C40 5090   2.124   0.829   2.819
  102DPPC   C41 5091   2.041   0.803   2.945
  102DPPC   C42 5092   2.082   0.668   3.006
  102DPPC   C43 5093   2.012   0.637   3.138
  102DPPC   C44 5094   2.082   0.518   3.203
  102DPPC   C45 5095   1.979   0.457   3.298
  102DPPC   C46 5096   2.025   0.337   3.381
  102DPPC   C47 5097   1.926   0.301   3.492
  102DPPC   C48 5098   1.941   0.150   3.515
  102DPPC   C49 5099   1.870   0.110   3.645
  102DPPC   C50 5100   1.720   0.095   3.617
  103DPPC    C1 5101   2.552   7.363   1.439
  103DPPC    C2 5102   2.503   7.159   1.550
  103DPPC    C3 5103   2.719   7.244   1.553
  103DPPC    N4 5104   2.578   7.285   1.561
  103DPPC    C5 5105   2.543   7.351   1.688
  103DPPC    C6 5106   2.618   7.480   1.719
  103DPPC    O7 5107   2.750   7.455   1.768
  103DPPC    P8 5108   2.839   7.588   1.787
  103DPPC    O9 5109   2.836   7.633   1.647
  103DPPC   O10 5110   2.967   7.552   1.851
  103DPPC   O11 5111   2.749   7.657   1.902
  103DPPC   C12 5112   2.796   7.625   2.034
  103DPPC   C13 5113   2.671   7.639   2.121
  103DPPC   O14 5114   2.576   7.534   2.100
  103DPPC   C15 5115   2.619   7.415   2.150
  103DPPC   O16 5116   2.729   7.398   2.203
  103DPPC   C17 5117   2.524   7.299   2.116
  103DPPC   C18 5118   2.533   7.203   2.235
  103DPPC   C19 5119   2.473   7.258   2.365
  103DPPC   C20 5120   2.497   7.153   2.473
  103DPPC   C21 5121   2.447   7.198   2.611
  103DPPC   C22 5122   2.459   7.092   2.721
  103DPPC   C23 5123   2.391   7.154   2.843
  103DPPC   C24 5124   2.355   7.062   2.960
  103DPPC   C25 5125   2.330   7.121   3.099
  103DPPC   C26 5126   2.287   7.029   3.214
  103DPPC   C27 5127   2.260   7.110   3.340
  103DPPC   C28 5128   2.249   6.999   3.445
  103DPPC   C29 5129   2.372   6.908   3.444
  103DPPC   C30 5130   2.367   6.791   3.542
  103DPPC   C31 5131   2.491   6.705   3.567
  103DPPC   C32 5132   2.622   7.783   2.106
  103DPPC   O33 5133   2.722   7.874   2.151
  103DPPC   C34 5134   2.693   8.006   2.139
  103DPPC   O35 5135   2.581   8.040   2.101
  103DPPC   C36 5136   2.795   8.107   2.193
  103DPPC   C37 5137   2.792   8.108   2.346
  103DPPC   C38 5138   2.868   8.221   2.414
  103DPPC   C39 5139   2.845   8.231   2.565
  103DPPC   C40 5140   2.955   8.324   2.615
  103DPPC   C41 5141   2.966   8.317   2.767
  103DPPC   C42 5142   2.834   8.372   2.822
  103DPPC   C43 5143   2.855   8.402   2.970
  103DPPC   C44 5144   2.734   8.443   3.055
  103DPPC   C45 5145   2.764   8.490   3.197
  103DPPC   C46 5146   2.627   8.537   3.246
  103DPPC   C47 5147   2.648   8.623   3.371
  103DPPC   C48 5148   2.508   8.666   3.416
  103DPPC   C49 5149   2.520   8.775   3.523
  103DPPC   C50 5150   2.579   8.715   3.651
  104DPPC    C1 5151   3.890   3.955   1.742
  104DPPC    C2 5152   3.956   3.728   1.742
  104DPPC    C3 5153   4.091   3.884   1.634
  104DPPC    N4 5154   4.006   3.866   1.753
  104DPPC    C5 5155   4.072   3.898   1.880
  104DPPC    C6 5156   4.177   3.808   1.946
  104DPPC    O7 5157   4.283   3.759   1.863
  104DPPC    P8 5158   4.318   3.611   1.917
  104DPPC    O9 5159   4.438   3.564   1.844
  104DPPC   O10 5160   4.190   3.538   1.907
  104DPPC   O11 5161   4.353   3.654   2.068
  104DPPC   C12 5162   4.491   3.676   2.098
  104DPPC   C13 5163   4.508   3.764   2.222
  104DPPC   O14 5164   4.646   3.780   2.258
  104DPPC   C15 5165   4.677   3.888   2.336
  104DPPC   O16 5166   4.624   3.998   2.325
  104DPPC   C17 5167   4.796   3.862   2.429
  104DPPC   C18 5168   4.816   3.723   2.491
  104DPPC   C19 5169   4.925   3.704   2.597
  104DPPC   C20 5170   4.896   3.594   2.699
  104DPPC   C21 5171   5.020   3.579   2.786
  104DPPC   C22 5172   4.972   3.533   2.924
  104DPPC   C23 5173   5.083   3.495   3.022
  104DPPC   C24 5174   5.025   3.453   3.157
  104DPPC   C25 5175   5.125   3.398   3.259
  104DPPC   C26 5176   5.081   3.404   3.406
  104DPPC   C27 5177   5.037   3.544   3.447
  104DPPC   C28 5178   4.982   3.537   3.590
  104DPPC   C29 5179   4.937   3.657   3.674
  104DPPC   C30 5180   4.844   3.616   3.788
  104DPPC   C31 5181   4.832   3.752   3.857
  104DPPC   C32 5182   4.440   3.677   2.328
  104DPPC   O33 5183   4.410   3.741   2.453
  104DPPC   C34 5184   4.317   3.685   2.535
  104DPPC   O35 5185   4.241   3.597   2.494
  104DPPC   C36 5186   4.301   3.763   2.666
  104DPPC   C37 5187   4.432   3.725   2.736
  104DPPC   C38 5188   4.459   3.838   2.837
  104DPPC   C39 5189   4.583   3.812   2.922
  104DPPC   C40 5190   4.571   3.676   2.992
  104DPPC   C41 5191   4.660   3.674   3.116
  104DPPC   C42 5192   4.642   3.792   3.212
  104DPPC   C43 5193   4.721   3.772   3.341
  104DPPC   C44 5194   4.750   3.903   3.415
  104DPPC   C45 5195   4.620   3.969   3.461
  104DPPC   C46 5196   4.627   4.073   3.574
  104DPPC   C47 5197   4.490   4.084   3.642
  104DPPC   C48 5198   4.483   4.170   3.768
  104DPPC   C49 5199   4.474   4.315   3.721
  104DPPC   C50 5200   4.492   4.407   3.842
  105DPPC    C1 5201   4.465   5.142   1.949
  105DPPC    C2 5202   4.474   4.993   1.769
  105DPPC    C3 5203   4.522   5.235   1.735
  105DPPC    N4 5204   4.534   5.117   1.822
  105DPPC    C5 5205   4.679   5.091   1.821
  105DPPC    C6 5206   4.736   5.011   1.938
  105DPPC    O7 5207   4.785   5.091   2.046
  105DPPC    P8 5208   4.865   4.994   2.147
  105DPPC    O9 5209   4.942   5.096   2.221
  105DPPC   O10 5210   4.937   4.899   2.059
  105DPPC   O11 5211   4.746   4.921   2.227
  105DPPC   C12 5212   4.735   4.975   2.359
  105DPPC   C13 5213   4.612   4.936   2.441
  105DPPC   O14 5214   4.564   5.035   2.533
  105DPPC   C15 5215   4.481   5.124   2.473
  105DPPC   O16 5216   4.408   5.081   2.384
  105DPPC   C17 5217   4.453   5.251   2.555
  105DPPC   C18 5218   4.303   5.269   2.577
  105DPPC   C19 5219   4.290   5.384   2.677
  105DPPC   C20 5220   4.335   5.512   2.605
  105DPPC   C21 5221   4.331   5.632   2.700
  105DPPC   C22 5222   4.388   5.751   2.622
  105DPPC   C23 5223   4.367   5.885   2.694
  105DPPC   C24 5224   4.460   5.890   2.815
  105DPPC   C25 5225   4.428   6.013   2.900
  105DPPC   C26 5226   4.294   5.985   2.968
  105DPPC   C27 5227   4.254   6.116   3.038
  105DPPC   C28 5228   4.108   6.096   3.078
  105DPPC   C29 5229   4.039   6.211   3.153
  105DPPC   C30 5230   4.072   6.346   3.089
  105DPPC   C31 5231   3.963   6.439   3.141
  105DPPC   C32 5232   4.635   4.794   2.492
  105DPPC   O33 5233   4.753   4.789   2.573
  105DPPC   C34 5234   4.782   4.670   2.632
  105DPPC   O35 5235   4.715   4.567   2.616
  105DPPC   C36 5236   4.929   4.662   2.673
  105DPPC   C37 5237   4.933   4.632   2.823
  105DPPC   C38 5238   4.888   4.757   2.901
  105DPPC   C39 5239   4.901   4.737   3.052
  105DPPC   C40 5240   4.827   4.845   3.131
  105DPPC   C41 5241   4.850   4.832   3.282
  105DPPC   C42 5242   4.810   4.965   3.345
  105DPPC   C43 5243   4.817   4.968   3.498
  105DPPC   C44 5244   4.752   5.093   3.558
  105DPPC   C45 5245   4.797   5.095   3.704
  105DPPC   C46 5246   4.747   4.975   3.785
  105DPPC   C47 5247   4.814   4.985   3.922
  105DPPC   C48 5248   4.785   4.866   4.013
  105DPPC   C49 5249   4.857   4.881   4.147
  105DPPC   C50 5250   5.009   4.893   4.138
  106DPPC    C1 5251   9.117   0.567   1.361
  106DPPC    C2 5252   8.963   0.459   1.498
  106DPPC    C3 5253   9.113   0.324   1.384
  106DPPC    N4 5254   9.103   0.453   1.454
  106DPPC    C5 5255   9.205   0.463   1.558
  106DPPC    C6 5256   9.356   0.451   1.535
  106DPPC    O7 5257   9.424   0.524   1.638
  106DPPC    P8 5258   9.583   0.501   1.625
  106DPPC    O9 5259   9.616   0.538   1.486
  106DPPC   O10 5260   9.650   0.385   1.688
  106DPPC   O11 5261   9.619   0.631   1.713
  106DPPC   C12 5262   9.607   0.611   1.854
  106DPPC   C13 5263   9.518   0.716   1.920
  106DPPC   O14 5264   9.577   0.772   2.038
  106DPPC   C15 5265   9.609   0.904   2.034
  106DPPC   O16 5266   9.581   0.966   1.932
  106DPPC   C17 5267   9.673   0.971   2.155
  106DPPC   C18 5268   9.603   0.925   2.283
  106DPPC   C19 5269   9.697   0.930   2.404
  106DPPC   C20 5270   9.639   0.881   2.537
  106DPPC   C21 5271   9.748   0.922   2.636
  106DPPC   C22 5272   9.845   0.806   2.656
  106DPPC   C23 5273   9.959   0.861   2.742
  106DPPC   C24 5274  10.052   0.946   2.655
  106DPPC   C25 5275  10.193   0.933   2.714
  106DPPC   C26 5276  10.307   0.986   2.627
  106DPPC   C27 5277  10.446   0.970   2.689
  106DPPC   C28 5278  10.433   1.020   2.833
  106DPPC   C29 5279  10.566   1.013   2.909
  106DPPC   C30 5280  10.539   1.067   3.050
  106DPPC   C31 5281  10.513   1.218   3.045
  106DPPC   C32 5282   9.380   0.650   1.931
  106DPPC   O33 5283   9.382   0.519   1.988
  106DPPC   C34 5284   9.265   0.452   1.966
  106DPPC   O35 5285   9.169   0.515   1.923
  106DPPC   C36 5286   9.258   0.306   2.013
  106DPPC   C37 5287   9.314   0.281   2.153
  106DPPC   C38 5288   9.234   0.355   2.260
  106DPPC   C39 5289   9.308   0.469   2.330
  106DPPC   C40 5290   9.215   0.526   2.438
  106DPPC   C41 5291   9.154   0.420   2.529
  106DPPC   C42 5292   9.054   0.502   2.611
  106DPPC   C43 5293   9.042   0.436   2.748
  106DPPC   C44 5294   8.963   0.519   2.850
  106DPPC   C45 5295   8.953   0.437   2.978
  106DPPC   C46 5296   8.902   0.530   3.088
  106DPPC   C47 5297   8.869   0.469   3.225
  106DPPC   C48 5298   8.754   0.368   3.225
  106DPPC   C49 5299   8.741   0.318   3.369
  106DPPC   C50 5300   8.735   0.439   3.463
  107DPPC    C1 5301   6.157   7.916   2.216
  107DPPC    C2 5302   6.116   8.012   2.012
  107DPPC    C3 5303   6.033   8.126   2.217
  107DPPC    N4 5304   6.140   8.047   2.152
  107DPPC    C5 5305   6.275   8.103   2.141
  107DPPC    C6 5306   6.318   8.192   2.259
  107DPPC    O7 5307   6.247   8.316   2.261
  107DPPC    P8 5308   6.345   8.425   2.194
  107DPPC    O9 5309   6.271   8.462   2.071
  107DPPC   O10 5310   6.481   8.365   2.196
  107DPPC   O11 5311   6.336   8.543   2.302
  107DPPC   C12 5312   6.195   8.557   2.322
  107DPPC   C13 5313   6.140   8.594   2.460
  107DPPC   O14 5314   6.178   8.728   2.496
  107DPPC   C15 5315   6.085   8.823   2.523
  107DPPC   O16 5316   5.980   8.815   2.460
  107DPPC   C17 5317   6.140   8.956   2.576
  107DPPC   C18 5318   6.217   8.941   2.707
  107DPPC   C19 5319   6.135   8.890   2.826
  107DPPC   C20 5320   6.024   8.987   2.868
  107DPPC   C21 5321   6.088   9.074   2.976
  107DPPC   C22 5322   6.007   9.200   3.012
  107DPPC   C23 5323   6.058   9.310   3.105
  107DPPC   C24 5324   6.171   9.385   3.035
  107DPPC   C25 5325   6.235   9.497   3.117
  107DPPC   C26 5326   6.135   9.609   3.147
  107DPPC   C27 5327   6.106   9.685   3.017
  107DPPC   C28 5328   5.999   9.790   3.047
  107DPPC   C29 5329   5.994   9.912   2.956
  107DPPC   C30 5330   5.944   9.867   2.818
  107DPPC   C31 5331   5.930   9.976   2.712
  107DPPC   C32 5332   6.191   8.480   2.549
  107DPPC   O33 5333   6.123   8.473   2.675
  107DPPC   C34 5334   5.989   8.449   2.682
  107DPPC   O35 5335   5.930   8.418   2.579
  107DPPC   C36 5336   5.923   8.476   2.818
  107DPPC   C37 5337   6.026   8.532   2.917
  107DPPC   C38 5338   5.965   8.577   3.050
  107DPPC   C39 5339   6.072   8.650   3.131
  107DPPC   C40 5340   6.018   8.778   3.194
  107DPPC   C41 5341   6.124   8.854   3.274
  107DPPC   C42 5342   6.163   8.766   3.393
  107DPPC   C43 5343   6.056   8.750   3.502
  107DPPC   C44 5344   6.128   8.712   3.631
  107DPPC   C45 5345   6.029   8.684   3.744
  107DPPC   C46 5346   6.114   8.651   3.868
  107DPPC   C47 5347   6.018   8.661   3.986
  107DPPC   C48 5348   5.942   8.794   3.983
  107DPPC   C49 5349   5.794   8.769   4.009
  107DPPC   C50 5350   5.704   8.890   3.987
  108DPPC    C1 5351   7.138   0.593   1.370
  108DPPC    C2 5352   6.986   0.780   1.395
  108DPPC    C3 5353   6.994   0.655   1.195
  108DPPC    N4 5354   7.003   0.644   1.341
  108DPPC    C5 5355   6.887   0.562   1.376
  108DPPC    C6 5356   6.905   0.454   1.483
  108DPPC    O7 5357   6.890   0.504   1.616
  108DPPC    P8 5358   6.907   0.374   1.709
  108DPPC    O9 5359   7.051   0.342   1.707
  108DPPC   O10 5360   6.802   0.282   1.661
  108DPPC   O11 5361   6.855   0.444   1.844
  108DPPC   C12 5362   6.957   0.526   1.901
  108DPPC   C13 5363   6.912   0.617   2.015
  108DPPC   O14 5364   6.991   0.735   2.036
  108DPPC   C15 5365   6.910   0.844   2.038
  108DPPC   O16 5366   6.797   0.837   1.989
  108DPPC   C17 5367   6.960   0.975   2.098
  108DPPC   C18 5368   6.930   0.993   2.247
  108DPPC   C19 5369   6.947   1.142   2.281
  108DPPC   C20 5370   6.881   1.179   2.413
  108DPPC   C21 5371   6.987   1.130   2.512
  108DPPC   C22 5372   6.947   1.155   2.658
  108DPPC   C23 5373   6.820   1.087   2.711
  108DPPC   C24 5374   6.846   1.002   2.836
  108DPPC   C25 5375   6.912   1.106   2.928
  108DPPC   C26 5376   6.974   1.038   3.049
  108DPPC   C27 5377   6.879   0.955   3.136
  108DPPC   C28 5378   6.933   0.913   3.273
  108DPPC   C29 5379   6.839   0.812   3.339
  108DPPC   C30 5380   6.899   0.802   3.480
  108DPPC   C31 5381   6.820   0.723   3.584
  108DPPC   C32 5382   6.925   0.513   2.126
  108DPPC   O33 5383   6.892   0.543   2.262
  108DPPC   C34 5384   6.905   0.434   2.342
  108DPPC   O35 5385   6.964   0.332   2.308
  108DPPC   C36 5386   6.902   0.459   2.493
  108DPPC   C37 5387   6.862   0.335   2.573
  108DPPC   C38 5388   6.884   0.367   2.721
  108DPPC   C39 5389   6.846   0.245   2.805
  108DPPC   C40 5390   6.934   0.122   2.779
  108DPPC   C41 5391   6.883  -0.004   2.849
  108DPPC   C42 5392   6.886   0.021   3.000
  108DPPC   C43 5393   6.828  -0.096   3.081
  108DPPC   C44 5394   6.863  -0.094   3.230
  108DPPC   C45 5395   6.816  -0.223   3.298
  108DPPC   C46 5396   6.859  -0.224   3.445
  108DPPC   C47 5397   6.777  -0.126   3.529
  108DPPC   C48 5398   6.818  -0.128   3.677
  108DPPC   C49 5399   6.964  -0.104   3.717
  108DPPC   C50 5400   6.976  -0.025   3.848
  109DPPC    C1 5401   9.325   6.064   0.628
  109DPPC    C2 5402   9.372   6.052   0.856
  109DPPC    C3 5403   9.445   6.236   0.723
  109DPPC    N4 5404   9.332   6.146   0.750
  109DPPC    C5 5405   9.202   6.213   0.765
  109DPPC    C6 5406   9.159   6.240   0.909
  109DPPC    O7 5407   9.087   6.128   0.960
  109DPPC    P8 5408   8.978   6.165   1.072
  109DPPC    O9 5409   8.881   6.056   1.050
  109DPPC   O10 5410   8.942   6.309   1.063
  109DPPC   O11 5411   9.070   6.154   1.203
  109DPPC   C12 5412   9.053   6.023   1.257
  109DPPC   C13 5413   9.166   5.969   1.345
  109DPPC   O14 5414   9.142   5.839   1.401
  109DPPC   C15 5415   9.245   5.767   1.454
  109DPPC   O16 5416   9.362   5.795   1.426
  109DPPC   C17 5417   9.205   5.632   1.513
  109DPPC   C18 5418   9.131   5.654   1.645
  109DPPC   C19 5419   9.217   5.736   1.741
  109DPPC   C20 5420   9.158   5.705   1.879
  109DPPC   C21 5421   9.229   5.765   2.000
  109DPPC   C22 5422   9.155   5.746   2.132
  109DPPC   C23 5423   9.222   5.829   2.242
  109DPPC   C24 5424   9.160   5.804   2.380
  109DPPC   C25 5425   9.232   5.867   2.499
  109DPPC   C26 5426   9.141   5.877   2.622
  109DPPC   C27 5427   9.207   5.901   2.758
  109DPPC   C28 5428   9.090   5.876   2.852
  109DPPC   C29 5429   9.131   5.880   3.000
  109DPPC   C30 5430   9.007   5.868   3.088
  109DPPC   C31 5431   9.049   5.886   3.234
  109DPPC   C32 5432   9.196   6.081   1.445
  109DPPC   O33 5433   9.102   6.098   1.552
  109DPPC   C34 5434   9.096   6.224   1.605
  109DPPC   O35 5435   9.182   6.306   1.573
  109DPPC   C36 5436   9.014   6.228   1.734
  109DPPC   C37 5437   9.104   6.208   1.856
  109DPPC   C38 5438   9.046   6.258   1.988
  109DPPC   C39 5439   9.153   6.260   2.098
  109DPPC   C40 5440   9.093   6.302   2.233
  109DPPC   C41 5441   9.208   6.300   2.334
  109DPPC   C42 5442   9.136   6.331   2.465
  109DPPC   C43 5443   9.232   6.348   2.583
  109DPPC   C44 5444   9.328   6.229   2.594
  109DPPC   C45 5445   9.412   6.258   2.718
  109DPPC   C46 5446   9.514   6.148   2.746
  109DPPC   C47 5447   9.605   6.189   2.862
  109DPPC   C48 5448   9.716   6.085   2.878
  109DPPC   C49 5449   9.788   6.104   3.011
  109DPPC   C50 5450   9.883   5.985   2.996
  110DPPC    C1 5451   1.342   3.470   1.115
  110DPPC    C2 5452   1.555   3.388   1.225
  110DPPC    C3 5453   1.558   3.561   1.065
  110DPPC    N4 5454   1.475   3.498   1.169
  110DPPC    C5 5455   1.460   3.604   1.270
  110DPPC    C6 5456   1.369   3.574   1.389
  110DPPC    O7 5457   1.330   3.685   1.470
  110DPPC    P8 5458   1.193   3.758   1.427
  110DPPC    O9 5459   1.133   3.669   1.325
  110DPPC   O10 5460   1.210   3.903   1.404
  110DPPC   O11 5461   1.132   3.745   1.576
  110DPPC   C12 5462   1.067   3.618   1.585
  110DPPC   C13 5463   1.128   3.515   1.681
  110DPPC   O14 5464   1.053   3.393   1.692
  110DPPC   C15 5465   1.122   3.279   1.718
  110DPPC   O16 5466   1.232   3.251   1.670
  110DPPC   C17 5467   1.028   3.172   1.774
  110DPPC   C18 5468   1.040   3.193   1.925
  110DPPC   C19 5469   0.955   3.090   1.999
  110DPPC   C20 5470   0.971   3.114   2.149
  110DPPC   C21 5471   0.868   3.031   2.227
  110DPPC   C22 5472   0.866   3.076   2.373
  110DPPC   C23 5473   0.767   2.990   2.451
  110DPPC   C24 5474   0.629   2.993   2.385
  110DPPC   C25 5475   0.534   2.936   2.491
  110DPPC   C26 5476   0.561   3.022   2.614
  110DPPC   C27 5477   0.470   2.989   2.733
  110DPPC   C28 5478   0.487   3.095   2.842
  110DPPC   C29 5479   0.626   3.075   2.902
  110DPPC   C30 5480   0.670   3.168   3.016
  110DPPC   C31 5481   0.595   3.152   3.148
  110DPPC   C32 5482   1.163   3.587   1.811
  110DPPC   O33 5483   1.241   3.510   1.903
  110DPPC   C34 5484   1.255   3.573   2.023
  110DPPC   O35 5485   1.248   3.695   2.036
  110DPPC   C36 5486   1.324   3.495   2.135
  110DPPC   C37 5487   1.217   3.433   2.225
  110DPPC   C38 5488   1.282   3.349   2.336
  110DPPC   C39 5489   1.185   3.282   2.433
  110DPPC   C40 5490   1.243   3.219   2.559
  110DPPC   C41 5491   1.134   3.136   2.625
  110DPPC   C42 5492   1.202   3.055   2.736
  110DPPC   C43 5493   1.101   2.990   2.831
  110DPPC   C44 5494   1.188   2.929   2.942
  110DPPC   C45 5495   1.115   2.886   3.069
  110DPPC   C46 5496   1.068   3.009   3.146
  110DPPC   C47 5497   0.986   2.996   3.274
  110DPPC   C48 5498   0.957   3.137   3.326
  110DPPC   C49 5499   0.872   3.103   3.449
  110DPPC   C50 5500   0.793   3.231   3.477
  111DPPC    C1 5501   1.688   1.092   1.840
  111DPPC    C2 5502   1.714   1.154   1.608
  111DPPC    C3 5503   1.702   0.933   1.660
  111DPPC    N4 5504   1.647   1.062   1.702
  111DPPC    C5 5505   1.501   1.062   1.681
  111DPPC    C6 5506   1.410   0.946   1.722
  111DPPC    O7 5507   1.436   0.904   1.856
  111DPPC    P8 5508   1.338   0.779   1.882
  111DPPC    O9 5509   1.425   0.677   1.943
  111DPPC   O10 5510   1.273   0.734   1.756
  111DPPC   O11 5511   1.245   0.856   1.989
  111DPPC   C12 5512   1.331   0.870   2.102
  111DPPC   C13 5513   1.249   0.880   2.231
  111DPPC   O14 5514   1.317   0.947   2.338
  111DPPC   C15 5515   1.245   1.007   2.436
  111DPPC   O16 5516   1.123   0.997   2.428
  111DPPC   C17 5517   1.318   1.056   2.561
  111DPPC   C18 5518   1.375   1.191   2.518
  111DPPC   C19 5519   1.443   1.247   2.643
  111DPPC   C20 5520   1.489   1.391   2.620
  111DPPC   C21 5521   1.386   1.489   2.564
  111DPPC   C22 5522   1.452   1.626   2.552
  111DPPC   C23 5523   1.345   1.728   2.591
  111DPPC   C24 5524   1.270   1.708   2.723
  111DPPC   C25 5525   1.144   1.794   2.716
  111DPPC   C26 5526   1.055   1.783   2.840
  111DPPC   C27 5527   0.956   1.900   2.838
  111DPPC   C28 5528   0.908   1.913   2.983
  111DPPC   C29 5529   0.825   2.041   2.995
  111DPPC   C30 5530   0.770   2.066   3.136
  111DPPC   C31 5531   0.700   1.943   3.193
  111DPPC   C32 5532   1.180   0.744   2.239
  111DPPC   O33 5533   1.267   0.642   2.289
  111DPPC   C34 5534   1.246   0.509   2.268
  111DPPC   O35 5535   1.175   0.480   2.172
  111DPPC   C36 5536   1.313   0.400   2.352
  111DPPC   C37 5537   1.372   0.452   2.484
  111DPPC   C38 5538   1.264   0.518   2.569
  111DPPC   C39 5539   1.311   0.559   2.709
  111DPPC   C40 5540   1.198   0.635   2.780
  111DPPC   C41 5541   1.237   0.684   2.919
  111DPPC   C42 5542   1.261   0.567   3.015
  111DPPC   C43 5543   1.285   0.627   3.154
  111DPPC   C44 5544   1.167   0.692   3.226
  111DPPC   C45 5545   1.212   0.729   3.368
  111DPPC   C46 5546   1.252   0.876   3.377
  111DPPC   C47 5547   1.274   0.922   3.521
  111DPPC   C48 5548   1.296   1.073   3.513
  111DPPC   C49 5549   1.176   1.121   3.430
  111DPPC   C50 5550   1.157   1.271   3.449
  112DPPC    C1 5551   4.890   8.075   1.955
  112DPPC    C2 5552   5.063   8.088   2.110
  112DPPC    C3 5553   4.850   8.095   2.197
  112DPPC    N4 5554   4.929   8.031   2.090
  112DPPC    C5 5555   4.943   7.885   2.097
  112DPPC    C6 5556   4.826   7.786   2.090
  112DPPC    O7 5557   4.720   7.802   2.184
  112DPPC    P8 5558   4.616   7.680   2.177
  112DPPC    O9 5559   4.606   7.626   2.040
  112DPPC   O10 5560   4.495   7.717   2.255
  112DPPC   O11 5561   4.701   7.567   2.254
  112DPPC   C12 5562   4.637   7.545   2.379
  112DPPC   C13 5563   4.709   7.452   2.477
  112DPPC   O14 5564   4.628   7.381   2.572
  112DPPC   C15 5565   4.591   7.260   2.524
  112DPPC   O16 5566   4.613   7.222   2.408
  112DPPC   C17 5567   4.544   7.162   2.631
  112DPPC   C18 5568   4.624   7.171   2.761
  112DPPC   C19 5569   4.575   7.084   2.877
  112DPPC   C20 5570   4.568   6.938   2.833
  112DPPC   C21 5571   4.536   6.860   2.961
  112DPPC   C22 5572   4.396   6.879   3.021
  112DPPC   C23 5573   4.366   6.764   3.118
  112DPPC   C24 5574   4.239   6.800   3.196
  112DPPC   C25 5575   4.119   6.835   3.107
  112DPPC   C26 5576   3.992   6.846   3.192
  112DPPC   C27 5577   3.888   6.917   3.104
  112DPPC   C28 5578   3.779   6.957   3.204
  112DPPC   C29 5579   3.684   7.061   3.145
  112DPPC   C30 5580   3.575   7.109   3.241
  112DPPC   C31 5581   3.462   7.202   3.196
  112DPPC   C32 5582   4.819   7.543   2.532
  112DPPC   O33 5583   4.931   7.479   2.595
  112DPPC   C34 5584   5.044   7.537   2.643
  112DPPC   O35 5585   5.079   7.651   2.616
  112DPPC   C36 5586   5.134   7.444   2.725
  112DPPC   C37 5587   5.179   7.514   2.854
  112DPPC   C38 5588   5.269   7.427   2.942
  112DPPC   C39 5589   5.291   7.503   3.073
  112DPPC   C40 5590   5.374   7.423   3.173
  112DPPC   C41 5591   5.502   7.357   3.122
  112DPPC   C42 5592   5.613   7.462   3.111
  112DPPC   C43 5593   5.710   7.439   3.227
  112DPPC   C44 5594   5.813   7.552   3.219
  112DPPC   C45 5595   5.883   7.551   3.355
  112DPPC   C46 5596   5.944   7.690   3.379
  112DPPC   C47 5597   5.992   7.699   3.524
  112DPPC   C48 5598   5.867   7.688   3.611
  112DPPC   C49 5599   5.916   7.676   3.755
  112DPPC   C50 5600   5.806   7.718   3.852
  113DPPC    C1 5601   0.932   1.572   1.702
  113DPPC    C2 5602   0.994   1.613   1.923
  113DPPC    C3 5603   0.790   1.526   1.877
  113DPPC    N4 5604   0.931   1.513   1.837
  113DPPC    C5 5605   0.980   1.375   1.850
  113DPPC    C6 5606   1.111   1.343   1.777
  113DPPC    O7 5607   1.220   1.424   1.822
  113DPPC    P8 5608   1.361   1.376   1.762
  113DPPC    O9 5609   1.474   1.472   1.764
  113DPPC   O10 5610   1.336   1.300   1.637
  113DPPC   O11 5611   1.381   1.277   1.888
  113DPPC   C12 5612   1.422   1.369   1.989
  113DPPC   C13 5613   1.427   1.309   2.129
  113DPPC   O14 5614   1.533   1.217   2.160
  113DPPC   C15 5615   1.658   1.264   2.185
  113DPPC   O16 5616   1.678   1.379   2.146
  113DPPC   C17 5617   1.757   1.154   2.223
  113DPPC   C18 5618   1.869   1.196   2.319
  113DPPC   C19 5619   1.808   1.202   2.459
  113DPPC   C20 5620   1.920   1.240   2.556
  113DPPC   C21 5621   1.868   1.238   2.699
  113DPPC   C22 5622   1.983   1.245   2.799
  113DPPC   C23 5623   1.927   1.244   2.941
  113DPPC   C24 5624   2.040   1.240   3.045
  113DPPC   C25 5625   1.987   1.227   3.188
  113DPPC   C26 5626   2.079   1.144   3.278
  113DPPC   C27 5627   2.009   1.128   3.413
  113DPPC   C28 5628   1.867   1.075   3.393
  113DPPC   C29 5629   1.851   0.928   3.351
  113DPPC   C30 5630   1.705   0.890   3.378
  113DPPC   C31 5631   1.690   0.740   3.352
  113DPPC   C32 5632   1.293   1.243   2.166
  113DPPC   O33 5633   1.194   1.338   2.205
  113DPPC   C34 5634   1.079   1.270   2.233
  113DPPC   O35 5635   1.047   1.172   2.165
  113DPPC   C36 5636   0.975   1.362   2.296
  113DPPC   C37 5637   0.911   1.299   2.419
  113DPPC   C38 5638   0.798   1.391   2.467
  113DPPC   C39 5639   0.758   1.348   2.608
  113DPPC   C40 5640   0.667   1.455   2.668
  113DPPC   C41 5641   0.598   1.416   2.799
  113DPPC   C42 5642   0.708   1.364   2.893
  113DPPC   C43 5643   0.657   1.365   3.038
  113DPPC   C44 5644   0.529   1.285   3.060
  113DPPC   C45 5645   0.556   1.140   3.101
  113DPPC   C46 5646   0.429   1.062   3.133
  113DPPC   C47 5647   0.469   0.917   3.165
  113DPPC   C48 5648   0.343   0.832   3.182
  113DPPC   C49 5649   0.381   0.689   3.222
  113DPPC   C50 5650   0.245   0.618   3.218
  114DPPC    C1 5651   1.114   3.976   1.926
  114DPPC    C2 5652   1.209   4.041   1.711
  114DPPC    C3 5653   1.155   4.201   1.875
  114DPPC    N4 5654   1.208   4.065   1.856
  114DPPC    C5 5655   1.333   4.042   1.930
  114DPPC    C6 5656   1.465   4.107   1.887
  114DPPC    O7 5657   1.574   4.056   1.964
  114DPPC    P8 5658   1.707   4.124   1.902
  114DPPC    O9 5659   1.671   4.171   1.767
  114DPPC   O10 5660   1.821   4.029   1.910
  114DPPC   O11 5661   1.713   4.242   2.011
  114DPPC   C12 5662   1.752   4.173   2.130
  114DPPC   C13 5663   1.693   4.241   2.253
  114DPPC   O14 5664   1.742   4.181   2.374
  114DPPC   C15 5665   1.856   4.229   2.431
  114DPPC   O16 5666   1.938   4.283   2.357
  114DPPC   C17 5667   1.905   4.166   2.561
  114DPPC   C18 5668   1.990   4.041   2.536
  114DPPC   C19 5669   2.115   4.047   2.624
  114DPPC   C20 5670   2.203   3.923   2.620
  114DPPC   C21 5671   2.302   3.909   2.736
  114DPPC   C22 5672   2.225   3.927   2.867
  114DPPC   C23 5673   2.325   3.962   2.977
  114DPPC   C24 5674   2.247   4.049   3.076
  114DPPC   C25 5675   2.347   4.125   3.163
  114DPPC   C26 5676   2.297   4.202   3.285
  114DPPC   C27 5677   2.407   4.285   3.351
  114DPPC   C28 5678   2.356   4.360   3.474
  114DPPC   C29 5679   2.470   4.434   3.544
  114DPPC   C30 5680   2.547   4.529   3.452
  114DPPC   C31 5681   2.657   4.581   3.544
  114DPPC   C32 5682   1.545   4.213   2.229
  114DPPC   O33 5683   1.453   4.312   2.278
  114DPPC   C34 5684   1.325   4.267   2.283
  114DPPC   O35 5685   1.286   4.198   2.188
  114DPPC   C36 5686   1.223   4.337   2.373
  114DPPC   C37 5687   1.165   4.240   2.477
  114DPPC   C38 5688   1.074   4.313   2.576
  114DPPC   C39 5689   1.016   4.201   2.662
  114DPPC   C40 5690   1.118   4.144   2.761
  114DPPC   C41 5691   1.056   4.041   2.856
  114DPPC   C42 5692   0.943   4.093   2.945
  114DPPC   C43 5693   1.002   4.190   3.048
  114DPPC   C44 5694   0.894   4.267   3.125
  114DPPC   C45 5695   0.959   4.394   3.181
  114DPPC   C46 5696   0.869   4.481   3.268
  114DPPC   C47 5697   0.793   4.576   3.176
  114DPPC   C48 5698   0.640   4.563   3.173
  114DPPC   C49 5699   0.567   4.662   3.082
  114DPPC   C50 5700   0.419   4.623   3.081
  115DPPC    C1 5701   3.999   3.202   2.270
  115DPPC    C2 5702   3.900   3.342   2.109
  115DPPC    C3 5703   3.792   3.314   2.317
  115DPPC    N4 5704   3.924   3.327   2.253
  115DPPC    C5 5705   4.008   3.432   2.312
  115DPPC    C6 5706   3.995   3.573   2.254
  115DPPC    O7 5707   3.875   3.640   2.293
  115DPPC    P8 5708   3.866   3.787   2.229
  115DPPC    O9 5709   3.761   3.752   2.131
  115DPPC   O10 5710   4.011   3.806   2.206
  115DPPC   O11 5711   3.807   3.864   2.357
  115DPPC   C12 5712   3.927   3.885   2.431
  115DPPC   C13 5713   3.922   3.980   2.551
  115DPPC   O14 5714   4.047   3.993   2.621
  115DPPC   C15 5715   4.099   4.118   2.632
  115DPPC   O16 5716   4.051   4.209   2.564
  115DPPC   C17 5717   4.220   4.134   2.724
  115DPPC   C18 5718   4.259   4.282   2.735
  115DPPC   C19 5719   4.402   4.289   2.787
  115DPPC   C20 5720   4.440   4.431   2.827
  115DPPC   C21 5721   4.577   4.443   2.894
  115DPPC   C22 5722   4.577   4.359   3.022
  115DPPC   C23 5723   4.722   4.326   3.059
  115DPPC   C24 5724   4.742   4.313   3.210
  115DPPC   C25 5725   4.882   4.262   3.244
  115DPPC   C26 5726   4.897   4.258   3.396
  115DPPC   C27 5727   5.043   4.238   3.437
  115DPPC   C28 5728   5.066   4.231   3.588
  115DPPC   C29 5729   5.007   4.104   3.649
  115DPPC   C30 5730   5.006   4.110   3.802
  115DPPC   C31 5731   4.882   4.190   3.842
  115DPPC   C32 5732   3.796   3.928   2.620
  115DPPC   O33 5733   3.753   4.005   2.732
  115DPPC   C34 5734   3.697   4.127   2.714
  115DPPC   O35 5735   3.676   4.186   2.608
  115DPPC   C36 5736   3.672   4.198   2.848
  115DPPC   C37 5737   3.780   4.183   2.956
  115DPPC   C38 5738   3.783   4.050   3.031
  115DPPC   C39 5739   3.876   4.071   3.150
  115DPPC   C40 5740   4.011   4.118   3.094
  115DPPC   C41 5741   4.111   4.139   3.208
  115DPPC   C42 5742   4.077   4.262   3.292
  115DPPC   C43 5743   4.161   4.240   3.418
  115DPPC   C44 5744   4.132   4.354   3.516
  115DPPC   C45 5745   3.981   4.368   3.534
  115DPPC   C46 5746   3.949   4.486   3.626
  115DPPC   C47 5747   3.799   4.500   3.649
  115DPPC   C48 5748   3.737   4.621   3.720
  115DPPC   C49 5749   3.586   4.596   3.735
  115DPPC   C50 5750   3.511   4.701   3.816
  116DPPC    C1 5751   6.743   8.506   2.319
  116DPPC    C2 5752   6.965   8.483   2.380
  116DPPC    C3 5753   6.797   8.338   2.462
  116DPPC    N4 5754   6.847   8.404   2.340
  116DPPC    C5 5755   6.875   8.320   2.223
  116DPPC    C6 5756   6.768   8.214   2.197
  116DPPC    O7 5757   6.783   8.094   2.273
  116DPPC    P8 5758   6.663   7.991   2.242
  116DPPC    O9 5759   6.705   7.849   2.246
  116DPPC   O10 5760   6.591   8.045   2.125
  116DPPC   O11 5761   6.578   8.025   2.374
  116DPPC   C12 5762   6.573   7.915   2.466
  116DPPC   C13 5763   6.479   7.938   2.584
  116DPPC   O14 5764   6.343   7.947   2.539
  116DPPC   C15 5765   6.227   7.967   2.606
  116DPPC   O16 5766   6.118   7.962   2.550
  116DPPC   C17 5767   6.242   7.942   2.756
  116DPPC   C18 5768   6.203   8.056   2.851
  116DPPC   C19 5769   6.252   8.013   2.989
  116DPPC   C20 5770   6.220   8.129   3.084
  116DPPC   C21 5771   6.323   8.238   3.055
  116DPPC   C22 5772   6.291   8.358   3.145
  116DPPC   C23 5773   6.282   8.311   3.290
  116DPPC   C24 5774   6.298   8.427   3.389
  116DPPC   C25 5775   6.326   8.391   3.535
  116DPPC   C26 5776   6.217   8.307   3.602
  116DPPC   C27 5777   6.262   8.257   3.739
  116DPPC   C28 5778   6.177   8.137   3.784
  116DPPC   C29 5779   6.210   8.076   3.920
  116DPPC   C30 5780   6.111   7.969   3.965
  116DPPC   C31 5781   5.971   8.024   3.996
  116DPPC   C32 5782   6.533   8.062   2.656
  116DPPC   O33 5783   6.650   8.018   2.725
  116DPPC   C34 5784   6.699   8.119   2.802
  116DPPC   O35 5785   6.629   8.217   2.824
  116DPPC   C36 5786   6.823   8.084   2.885
  116DPPC   C37 5787   6.947   8.057   2.799
  116DPPC   C38 5788   7.066   8.031   2.892
  116DPPC   C39 5789   7.090   8.132   3.004
  116DPPC   C40 5790   7.193   8.093   3.109
  116DPPC   C41 5791   7.322   8.044   3.041
  116DPPC   C42 5792   7.411   8.161   2.997
  116DPPC   C43 5793   7.488   8.237   3.104
  116DPPC   C44 5794   7.625   8.173   3.129
  116DPPC   C45 5795   7.694   8.233   3.252
  116DPPC   C46 5796   7.720   8.382   3.228
  116DPPC   C47 5797   7.822   8.432   3.331
  116DPPC   C48 5798   7.756   8.476   3.462
  116DPPC   C49 5799   7.842   8.578   3.537
  116DPPC   C50 5800   7.976   8.519   3.582
  117DPPC    C1 5801   5.677   4.569   2.049
  117DPPC    C2 5802   5.816   4.608   1.879
  117DPPC    C3 5803   5.863   4.664   2.112
  117DPPC    N4 5804   5.820   4.560   2.018
  117DPPC    C5 5805   5.856   4.419   2.040
  117DPPC    C6 5806   5.983   4.369   1.970
  117DPPC    O7 5807   6.000   4.228   1.982
  117DPPC    P8 5808   6.128   4.190   1.892
  117DPPC    O9 5809   6.115   4.263   1.763
  117DPPC   O10 5810   6.189   4.056   1.900
  117DPPC   O11 5811   6.237   4.277   1.971
  117DPPC   C12 5812   6.290   4.212   2.087
  117DPPC   C13 5813   6.397   4.297   2.157
  117DPPC   O14 5814   6.493   4.224   2.234
  117DPPC   C15 5815   6.591   4.149   2.176
  117DPPC   O16 5816   6.601   4.147   2.054
  117DPPC   C17 5817   6.686   4.066   2.263
  117DPPC   C18 5818   6.645   4.070   2.410
  117DPPC   C19 5819   6.764   4.024   2.494
  117DPPC   C20 5820   6.766   4.058   2.644
  117DPPC   C21 5821   6.831   3.950   2.731
  117DPPC   C22 5822   6.777   3.813   2.693
  117DPPC   C23 5823   6.843   3.700   2.772
  117DPPC   C24 5824   6.824   3.726   2.922
  117DPPC   C25 5825   6.870   3.601   2.996
  117DPPC   C26 5826   6.786   3.480   2.953
  117DPPC   C27 5827   6.699   3.424   3.066
  117DPPC   C28 5828   6.620   3.301   3.021
  117DPPC   C29 5829   6.547   3.247   3.144
  117DPPC   C30 5830   6.426   3.158   3.117
  117DPPC   C31 5831   6.352   3.111   3.242
  117DPPC   C32 5832   6.325   4.413   2.227
  117DPPC   O33 5833   6.229   4.371   2.325
  117DPPC   C34 5834   6.153   4.478   2.363
  117DPPC   O35 5835   6.146   4.571   2.282
  117DPPC   C36 5836   6.054   4.445   2.474
  117DPPC   C37 5837   5.924   4.393   2.413
  117DPPC   C38 5838   5.821   4.376   2.525
  117DPPC   C39 5839   5.817   4.506   2.606
  117DPPC   C40 5840   5.692   4.589   2.580
  117DPPC   C41 5841   5.695   4.701   2.684
  117DPPC   C42 5842   5.700   4.635   2.822
  117DPPC   C43 5843   5.658   4.741   2.925
  117DPPC   C44 5844   5.690   4.693   3.067
  117DPPC   C45 5845   5.681   4.799   3.177
  117DPPC   C46 5846   5.708   4.727   3.309
  117DPPC   C47 5847   5.655   4.824   3.416
  117DPPC   C48 5848   5.703   4.781   3.554
  117DPPC   C49 5849   5.671   4.632   3.554
  117DPPC   C50 5850   5.716   4.578   3.690
  118DPPC    C1 5851   4.637   0.160   1.724
  118DPPC    C2 5852   4.864   0.110   1.751
  118DPPC    C3 5853   4.764   0.340   1.809
  118DPPC    N4 5854   4.755   0.193   1.805
  118DPPC    C5 5855   4.743   0.162   1.948
  118DPPC    C6 5856   4.719   0.017   1.991
  118DPPC    O7 5857   4.577  -0.002   1.991
  118DPPC    P8 5858   4.547  -0.154   2.035
  118DPPC    O9 5859   4.616  -0.232   1.930
  118DPPC   O10 5860   4.402  -0.170   2.062
  118DPPC   O11 5861   4.628  -0.143   2.173
  118DPPC   C12 5862   4.528  -0.134   2.275
  118DPPC   C13 5863   4.575  -0.119   2.420
  118DPPC   O14 5864   4.591  -0.244   2.488
  118DPPC   C15 5865   4.715  -0.256   2.543
  118DPPC   O16 5866   4.788  -0.157   2.547
  118DPPC   C17 5867   4.747  -0.382   2.624
  118DPPC   C18 5868   4.758  -0.515   2.549
  118DPPC   C19 5869   4.848  -0.605   2.634
  118DPPC   C20 5870   4.781  -0.637   2.768
  118DPPC   C21 5871   4.733  -0.780   2.793
  118DPPC   C22 5872   4.645  -0.801   2.916
  118DPPC   C23 5873   4.568  -0.932   2.934
  118DPPC   C24 5874   4.487  -0.940   3.064
  118DPPC   C25 5875   4.401  -1.065   3.052
  118DPPC   C26 5876   4.295  -1.094   3.158
  118DPPC   C27 5877   4.213  -1.220   3.132
  118DPPC   C28 5878   4.126  -1.255   3.252
  118DPPC   C29 5879   4.202  -1.255   3.385
  118DPPC   C30 5880   4.108  -1.260   3.506
  118DPPC   C31 5881   4.012  -1.377   3.483
  118DPPC   C32 5882   4.478  -0.019   2.483
  118DPPC   O33 5883   4.347  -0.074   2.503
  118DPPC   C34 5884   4.259   0.024   2.537
  118DPPC   O35 5885   4.289   0.139   2.569
  118DPPC   C36 5886   4.117  -0.026   2.564
  118DPPC   C37 5887   4.133  -0.135   2.670
  118DPPC   C38 5888   3.995  -0.187   2.711
  118DPPC   C39 5889   4.011  -0.294   2.819
  118DPPC   C40 5890   3.868  -0.330   2.859
  118DPPC   C41 5891   3.850  -0.443   2.961
  118DPPC   C42 5892   3.704  -0.440   3.005
  118DPPC   C43 5893   3.667  -0.562   3.089
  118DPPC   C44 5894   3.515  -0.563   3.100
  118DPPC   C45 5895   3.477  -0.679   3.192
  118DPPC   C46 5896   3.324  -0.689   3.192
  118DPPC   C47 5897   3.291  -0.809   3.282
  118DPPC   C48 5898   3.273  -0.760   3.425
  118DPPC   C49 5899   3.163  -0.654   3.439
  118DPPC   C50 5900   3.038  -0.715   3.375
  119DPPC    C1 5901   0.390   6.285   0.748
  119DPPC    C2 5902   0.504   6.190   0.947
  119DPPC    C3 5903   0.567   6.400   0.855
  119DPPC    N4 5904   0.454   6.309   0.878
  119DPPC    C5 5905   0.361   6.375   0.971
  119DPPC    C6 5906   0.218   6.323   0.984
  119DPPC    O7 5907   0.157   6.371   1.104
  119DPPC    P8 5908   0.031   6.274   1.131
  119DPPC    O9 5909   0.077   6.135   1.111
  119DPPC   O10 5910  -0.075   6.341   1.053
  119DPPC   O11 5911   0.011   6.287   1.290
  119DPPC   C12 5912   0.111   6.197   1.338
  119DPPC   C13 5913   0.157   6.230   1.480
  119DPPC   O14 5914   0.071   6.201   1.592
  119DPPC   C15 5915   0.097   6.078   1.643
  119DPPC   O16 5916   0.196   6.018   1.602
  119DPPC   C17 5917   0.000   6.013   1.742
  119DPPC   C18 5918   0.028   6.051   1.888
  119DPPC   C19 5919  -0.022   6.186   1.939
  119DPPC   C20 5920   0.062   6.201   2.066
  119DPPC   C21 5921   0.032   6.339   2.125
  119DPPC   C22 5922   0.115   6.345   2.253
  119DPPC   C23 5923   0.073   6.458   2.347
  119DPPC   C24 5924   0.131   6.438   2.487
  119DPPC   C25 5925   0.283   6.451   2.487
  119DPPC   C26 5926   0.326   6.445   2.633
  119DPPC   C27 5927   0.475   6.439   2.667
  119DPPC   C28 5928   0.568   6.532   2.588
  119DPPC   C29 5929   0.700   6.535   2.664
  119DPPC   C30 5930   0.676   6.576   2.810
  119DPPC   C31 5931   0.802   6.555   2.894
  119DPPC   C32 5932   0.204   6.375   1.466
  119DPPC   O33 5933   0.231   6.435   1.593
  119DPPC   C34 5934   0.242   6.570   1.593
  119DPPC   O35 5935   0.232   6.621   1.482
  119DPPC   C36 5936   0.226   6.654   1.720
  119DPPC   C37 5937   0.249   6.580   1.852
  119DPPC   C38 5938   0.221   6.662   1.978
  119DPPC   C39 5939   0.309   6.787   1.987
  119DPPC   C40 5940   0.307   6.865   2.119
  119DPPC   C41 5941   0.357   6.755   2.213
  119DPPC   C42 5942   0.307   6.803   2.349
  119DPPC   C43 5943   0.387   6.929   2.384
  119DPPC   C44 5944   0.333   6.983   2.516
  119DPPC   C45 5945   0.381   7.122   2.557
  119DPPC   C46 5946   0.321   7.162   2.692
  119DPPC   C47 5947   0.191   7.240   2.675
  119DPPC   C48 5948   0.130   7.280   2.810
  119DPPC   C49 5949   0.230   7.351   2.901
  119DPPC   C50 5950   0.191   7.351   3.049
  120DPPC    C1 5951   4.085   6.547   2.224
  120DPPC    C2 5952   3.887   6.638   2.118
  120DPPC    C3 5953   3.858   6.474   2.282
  120DPPC    N4 5954   3.944   6.586   2.243
  120DPPC    C5 5955   3.943   6.689   2.348
  120DPPC    C6 5956   4.036   6.810   2.351
  120DPPC    O7 5957   4.020   6.896   2.464
  120DPPC    P8 5958   4.157   6.978   2.488
  120DPPC    O9 5959   4.139   7.081   2.593
  120DPPC   O10 5960   4.200   7.013   2.351
  120DPPC   O11 5961   4.245   6.859   2.551
  120DPPC   C12 5962   4.202   6.840   2.686
  120DPPC   C13 5963   4.121   6.712   2.702
  120DPPC   O14 5964   4.007   6.728   2.789
  120DPPC   C15 5965   3.885   6.699   2.736
  120DPPC   O16 5966   3.867   6.633   2.634
  120DPPC   C17 5967   3.760   6.710   2.824
  120DPPC   C18 5968   3.737   6.574   2.889
  120DPPC   C19 5969   3.602   6.555   2.960
  120DPPC   C20 5970   3.580   6.661   3.068
  120DPPC   C21 5971   3.435   6.661   3.118
  120DPPC   C22 5972   3.432   6.767   3.229
  120DPPC   C23 5973   3.292   6.764   3.292
  120DPPC   C24 5974   3.279   6.885   3.385
  120DPPC   C25 5975   3.154   6.862   3.470
  120DPPC   C26 5976   3.157   6.726   3.541
  120DPPC   C27 5977   3.018   6.686   3.590
  120DPPC   C28 5978   3.019   6.697   3.742
  120DPPC   C29 5979   2.897   6.639   3.815
  120DPPC   C30 5980   2.795   6.749   3.844
  120DPPC   C31 5981   2.674   6.704   3.927
  120DPPC   C32 5982   4.199   6.581   2.720
  120DPPC   O33 5983   4.316   6.590   2.802
  120DPPC   C34 5984   4.377   6.470   2.817
  120DPPC   O35 5985   4.337   6.372   2.753
  120DPPC   C36 5986   4.497   6.441   2.909
  120DPPC   C37 5987   4.458   6.430   3.056
  120DPPC   C38 5988   4.574   6.402   3.151
  120DPPC   C39 5989   4.666   6.525   3.144
  120DPPC   C40 5990   4.790   6.521   3.233
  120DPPC   C41 5991   4.851   6.661   3.249
  120DPPC   C42 5992   4.881   6.727   3.115
  120DPPC   C43 5993   4.915   6.875   3.131
  120DPPC   C44 5994   4.923   6.941   2.993
  120DPPC   C45 5995   4.960   7.089   2.997
  120DPPC   C46 5996   4.883   7.174   3.099
  120DPPC   C47 5997   4.965   7.300   3.128
  120DPPC   C48 5998   4.888   7.396   3.219
  120DPPC   C49 5999   4.985   7.507   3.258
  120DPPC   C50 6000   4.919   7.609   3.351
  121DPPC    C1 6001   7.191   3.257   2.358
  121DPPC    C2 6002   7.241   3.072   2.489
  121DPPC    C3 6003   7.083   3.047   2.303
  121DPPC    N4 6004   7.206   3.111   2.352
  121DPPC    C5 6005   7.315   3.063   2.266
  121DPPC    C6 6006   7.348   3.135   2.135
  121DPPC    O7 6007   7.476   3.086   2.094
  121DPPC    P8 6008   7.518   3.132   1.946
  121DPPC    O9 6009   7.405   3.183   1.866
  121DPPC   O10 6010   7.613   3.035   1.886
  121DPPC   O11 6011   7.614   3.255   1.990
  121DPPC   C12 6012   7.728   3.209   2.063
  121DPPC   C13 6013   7.767   3.289   2.188
  121DPPC   O14 6014   7.890   3.248   2.250
  121DPPC   C15 6015   7.991   3.339   2.252
  121DPPC   O16 6016   7.996   3.428   2.166
  121DPPC   C17 6017   8.111   3.316   2.343
  121DPPC   C18 6018   8.107   3.410   2.465
  121DPPC   C19 6019   8.002   3.360   2.564
  121DPPC   C20 6020   8.021   3.436   2.696
  121DPPC   C21 6021   7.973   3.359   2.820
  121DPPC   C22 6022   8.006   3.448   2.941
  121DPPC   C23 6023   7.927   3.408   3.066
  121DPPC   C24 6024   7.779   3.438   3.043
  121DPPC   C25 6025   7.697   3.389   3.162
  121DPPC   C26 6026   7.749   3.442   3.296
  121DPPC   C27 6027   7.702   3.584   3.326
  121DPPC   C28 6028   7.779   3.636   3.448
  121DPPC   C29 6029   7.921   3.655   3.395
  121DPPC   C30 6030   8.014   3.699   3.508
  121DPPC   C31 6031   8.019   3.599   3.624
  121DPPC   C32 6032   7.657   3.275   2.294
  121DPPC   O33 6033   7.654   3.387   2.382
  121DPPC   C34 6034   7.571   3.365   2.487
  121DPPC   O35 6035   7.464   3.304   2.474
  121DPPC   C36 6036   7.608   3.430   2.621
  121DPPC   C37 6037   7.622   3.580   2.599
  121DPPC   C38 6038   7.699   3.649   2.712
  121DPPC   C39 6039   7.729   3.798   2.696
  121DPPC   C40 6040   7.812   3.832   2.820
  121DPPC   C41 6041   7.857   3.978   2.808
  121DPPC   C42 6042   7.926   4.015   2.940
  121DPPC   C43 6043   7.830   4.000   3.059
  121DPPC   C44 6044   7.893   4.067   3.181
  121DPPC   C45 6045   7.798   4.081   3.301
  121DPPC   C46 6046   7.883   4.142   3.413
  121DPPC   C47 6047   7.809   4.159   3.546
  121DPPC   C48 6048   7.909   4.188   3.658
  121DPPC   C49 6049   7.842   4.197   3.795
  121DPPC   C50 6050   7.952   4.251   3.887
  122DPPC    C1 6051   6.857   6.598   1.747
  122DPPC    C2 6052   7.090   6.612   1.700
  122DPPC    C3 6053   6.936   6.758   1.603
  122DPPC    N4 6054   6.969   6.691   1.729
  122DPPC    C5 6055   6.973   6.777   1.849
  122DPPC    C6 6056   7.094   6.866   1.876
  122DPPC    O7 6057   7.107   6.980   1.791
  122DPPC    P8 6058   7.267   6.999   1.797
  122DPPC    O9 6059   7.288   7.125   1.722
  122DPPC   O10 6060   7.318   6.865   1.764
  122DPPC   O11 6061   7.286   7.044   1.951
  122DPPC   C12 6062   7.227   7.167   1.995
  122DPPC   C13 6063   7.278   7.208   2.134
  122DPPC   O14 6064   7.416   7.236   2.157
  122DPPC   C15 6065   7.468   7.356   2.120
  122DPPC   O16 6066   7.403   7.438   2.054
  122DPPC   C17 6067   7.595   7.397   2.194
  122DPPC   C18 6068   7.580   7.388   2.346
  122DPPC   C19 6069   7.716   7.437   2.397
  122DPPC   C20 6070   7.709   7.443   2.549
  122DPPC   C21 6071   7.851   7.443   2.608
  122DPPC   C22 6072   7.918   7.306   2.613
  122DPPC   C23 6073   8.055   7.320   2.680
  122DPPC   C24 6074   8.078   7.179   2.735
  122DPPC   C25 6075   8.196   7.166   2.831
  122DPPC   C26 6076   8.197   7.018   2.872
  122DPPC   C27 6077   8.292   7.003   2.991
  122DPPC   C28 6078   8.258   7.109   3.095
  122DPPC   C29 6079   8.331   7.086   3.228
  122DPPC   C30 6080   8.320   7.212   3.313
  122DPPC   C31 6081   8.366   7.193   3.458
  122DPPC   C32 6082   7.238   7.084   2.214
  122DPPC   O33 6083   7.095   7.083   2.221
  122DPPC   C34 6084   7.037   6.985   2.295
  122DPPC   O35 6085   7.091   6.875   2.297
  122DPPC   C36 6086   6.887   7.002   2.322
  122DPPC   C37 6087   6.859   6.976   2.470
  122DPPC   C38 6088   6.842   6.826   2.491
  122DPPC   C39 6089   6.812   6.805   2.640
  122DPPC   C40 6090   6.933   6.838   2.728
  122DPPC   C41 6091   6.894   6.813   2.873
  122DPPC   C42 6092   7.005   6.833   2.977
  122DPPC   C43 6093   7.059   6.975   2.987
  122DPPC   C44 6094   7.195   6.987   3.057
  122DPPC   C45 6095   7.180   6.925   3.197
  122DPPC   C46 6096   7.310   6.937   3.276
  122DPPC   C47 6097   7.336   6.817   3.368
  122DPPC   C48 6098   7.461   6.829   3.457
  122DPPC   C49 6099   7.581   6.779   3.377
  122DPPC   C50 6100   7.705   6.823   3.456
  123DPPC    C1 6101   8.081   8.134   1.985
  123DPPC    C2 6102   7.897   8.239   1.901
  123DPPC    C3 6103   8.012   8.130   1.755
  123DPPC    N4 6104   7.968   8.110   1.894
  123DPPC    C5 6105   7.888   7.989   1.917
  123DPPC    C6 6106   7.958   7.855   1.895
  123DPPC    O7 6107   7.868   7.746   1.874
  123DPPC    P8 6108   7.956   7.630   1.804
  123DPPC    O9 6109   8.018   7.717   1.701
  123DPPC   O10 6110   7.857   7.523   1.779
  123DPPC   O11 6111   8.045   7.602   1.936
  123DPPC   C12 6112   7.994   7.476   1.983
  123DPPC   C13 6113   8.076   7.436   2.106
  123DPPC   O14 6114   8.016   7.316   2.156
  123DPPC   C15 6115   8.079   7.200   2.123
  123DPPC   O16 6116   8.150   7.193   2.024
  123DPPC   C17 6117   8.008   7.072   2.169
  123DPPC   C18 6118   8.106   6.975   2.234
  123DPPC   C19 6119   8.036   6.852   2.293
  123DPPC   C20 6120   8.139   6.779   2.379
  123DPPC   C21 6121   8.132   6.814   2.528
  123DPPC   C22 6122   8.040   6.732   2.619
  123DPPC   C23 6123   8.054   6.581   2.598
  123DPPC   C24 6124   7.937   6.526   2.681
  123DPPC   C25 6125   7.916   6.375   2.670
  123DPPC   C26 6126   7.799   6.328   2.758
  123DPPC   C27 6127   7.755   6.185   2.727
  123DPPC   C28 6128   7.661   6.123   2.830
  123DPPC   C29 6129   7.747   6.120   2.956
  123DPPC   C30 6130   7.694   6.036   3.073
  123DPPC   C31 6131   7.771   6.054   3.204
  123DPPC   C32 6132   8.059   7.555   2.200
  123DPPC   O33 6133   8.182   7.599   2.259
  123DPPC   C34 6134   8.158   7.699   2.348
  123DPPC   O35 6135   8.066   7.700   2.429
  123DPPC   C36 6136   8.290   7.777   2.360
  123DPPC   C37 6137   8.328   7.809   2.504
  123DPPC   C38 6138   8.363   7.685   2.587
  123DPPC   C39 6139   8.373   7.710   2.737
  123DPPC   C40 6140   8.409   7.585   2.817
  123DPPC   C41 6141   8.383   7.603   2.967
  123DPPC   C42 6142   8.247   7.549   3.010
  123DPPC   C43 6143   8.248   7.589   3.157
  123DPPC   C44 6144   8.108   7.569   3.215
  123DPPC   C45 6145   8.109   7.601   3.365
  123DPPC   C46 6146   8.165   7.743   3.371
  123DPPC   C47 6147   8.184   7.763   3.521
  123DPPC   C48 6148   8.250   7.638   3.581
  123DPPC   C49 6149   8.299   7.663   3.724
  123DPPC   C50 6150   8.189   7.679   3.830
  124DPPC    C1 6151   6.318   3.413   2.261
  124DPPC    C2 6152   6.294   3.253   2.425
  124DPPC    C3 6153   6.115   3.291   2.266
  124DPPC    N4 6154   6.260   3.280   2.285
  124DPPC    C5 6155   6.309   3.179   2.190
  124DPPC    C6 6156   6.458   3.179   2.156
  124DPPC    O7 6157   6.553   3.183   2.263
  124DPPC    P8 6158   6.701   3.181   2.200
  124DPPC    O9 6159   6.688   3.247   2.068
  124DPPC   O10 6160   6.785   3.059   2.210
  124DPPC   O11 6161   6.761   3.278   2.313
  124DPPC   C12 6162   6.775   3.216   2.441
  124DPPC   C13 6163   6.811   3.313   2.553
  124DPPC   O14 6164   6.806   3.249   2.682
  124DPPC   C15 6165   6.912   3.170   2.713
  124DPPC   O16 6166   7.001   3.157   2.630
  124DPPC   C17 6167   6.926   3.104   2.851
  124DPPC   C18 6168   7.068   3.109   2.908
  124DPPC   C19 6169   7.069   3.074   3.057
  124DPPC   C20 6170   6.979   3.160   3.146
  124DPPC   C21 6171   6.989   3.115   3.292
  124DPPC   C22 6172   6.909   3.198   3.392
  124DPPC   C23 6173   6.907   3.147   3.536
  124DPPC   C24 6174   6.781   3.209   3.596
  124DPPC   C25 6175   6.660   3.185   3.506
  124DPPC   C26 6176   6.530   3.222   3.577
  124DPPC   C27 6177   6.522   3.374   3.577
  124DPPC   C28 6178   6.405   3.407   3.669
  124DPPC   C29 6179   6.405   3.540   3.746
  124DPPC   C30 6180   6.293   3.538   3.850
  124DPPC   C31 6181   6.338   3.497   3.991
  124DPPC   C32 6182   6.724   3.438   2.544
  124DPPC   O33 6183   6.581   3.442   2.554
  124DPPC   C34 6184   6.542   3.572   2.543
  124DPPC   O35 6185   6.591   3.639   2.453
  124DPPC   C36 6186   6.436   3.621   2.642
  124DPPC   C37 6187   6.427   3.536   2.769
  124DPPC   C38 6188   6.312   3.584   2.858
  124DPPC   C39 6189   6.294   3.489   2.976
  124DPPC   C40 6190   6.156   3.503   3.041
  124DPPC   C41 6191   6.144   3.450   3.184
  124DPPC   C42 6192   5.996   3.434   3.221
  124DPPC   C43 6193   5.969   3.410   3.370
  124DPPC   C44 6194   5.935   3.262   3.387
  124DPPC   C45 6195   5.918   3.244   3.538
  124DPPC   C46 6196   5.931   3.094   3.563
  124DPPC   C47 6197   5.899   3.064   3.709
  124DPPC   C48 6198   5.907   2.913   3.736
  124DPPC   C49 6199   5.814   2.870   3.849
  124DPPC   C50 6200   5.838   2.721   3.874
  125DPPC    C1 6201   2.375   0.089   1.654
  125DPPC    C2 6202   2.247   0.204   1.822
  125DPPC    C3 6203   2.148   0.116   1.634
  125DPPC    N4 6204   2.252   0.087   1.733
  125DPPC    C5 6205   2.235  -0.033   1.818
  125DPPC    C6 6206   2.239  -0.168   1.746
  125DPPC    O7 6207   2.114  -0.203   1.685
  125DPPC    P8 6208   2.135  -0.327   1.586
  125DPPC    O9 6209   2.266  -0.303   1.521
  125DPPC   O10 6210   2.009  -0.340   1.509
  125DPPC   O11 6211   2.137  -0.429   1.711
  125DPPC   C12 6212   2.001  -0.470   1.730
  125DPPC   C13 6213   1.974  -0.532   1.867
  125DPPC   O14 6214   1.897  -0.451   1.956
  125DPPC   C15 6215   1.765  -0.442   1.923
  125DPPC   O16 6216   1.701  -0.525   1.858
  125DPPC   C17 6217   1.699  -0.335   2.010
  125DPPC   C18 6218   1.634  -0.404   2.130
  125DPPC   C19 6219   1.555  -0.298   2.206
  125DPPC   C20 6220   1.634  -0.210   2.303
  125DPPC   C21 6221   1.544  -0.100   2.360
  125DPPC   C22 6222   1.621  -0.031   2.473
  125DPPC   C23 6223   1.518   0.054   2.549
  125DPPC   C24 6224   1.400  -0.040   2.571
  125DPPC   C25 6225   1.286   0.026   2.650
  125DPPC   C26 6226   1.327   0.080   2.787
  125DPPC   C27 6227   1.219   0.167   2.850
  125DPPC   C28 6228   1.108   0.072   2.896
  125DPPC   C29 6229   0.981   0.153   2.920
  125DPPC   C30 6230   0.864   0.072   2.977
  125DPPC   C31 6231   0.744   0.166   2.991
  125DPPC   C32 6232   2.111  -0.562   1.929
  125DPPC   O33 6233   2.115  -0.636   2.051
  125DPPC   C34 6234   2.239  -0.657   2.105
  125DPPC   O35 6235   2.337  -0.662   2.031
  125DPPC   C36 6236   2.235  -0.710   2.248
  125DPPC   C37 6237   2.146  -0.624   2.338
  125DPPC   C38 6238   2.215  -0.494   2.380
  125DPPC   C39 6239   2.355  -0.529   2.432
  125DPPC   C40 6240   2.433  -0.399   2.456
  125DPPC   C41 6241   2.361  -0.296   2.542
  125DPPC   C42 6242   2.460  -0.194   2.599
  125DPPC   C43 6243   2.370  -0.099   2.679
  125DPPC   C44 6244   2.456   0.017   2.729
  125DPPC   C45 6245   2.523   0.096   2.617
  125DPPC   C46 6246   2.580   0.226   2.673
  125DPPC   C47 6247   2.460   0.286   2.747
  125DPPC   C48 6248   2.492   0.423   2.806
  125DPPC   C49 6249   2.380   0.457   2.904
  125DPPC   C50 6250   2.432   0.567   2.997
  126DPPC    C1 6251   6.532   3.827   1.898
  126DPPC    C2 6252   6.498   3.986   1.738
  126DPPC    C3 6253   6.555   3.771   1.655
  126DPPC    N4 6254   6.481   3.841   1.761
  126DPPC    C5 6255   6.338   3.813   1.745
  126DPPC    C6 6256   6.282   3.681   1.800
  126DPPC    O7 6257   6.144   3.651   1.782
  126DPPC    P8 6258   6.075   3.517   1.838
  126DPPC    O9 6259   6.182   3.445   1.911
  126DPPC   O10 6260   6.008   3.475   1.713
  126DPPC   O11 6261   5.979   3.590   1.944
  126DPPC   C12 6262   6.031   3.640   2.068
  126DPPC   C13 6263   6.083   3.783   2.060
  126DPPC   O14 6264   6.140   3.829   2.184
  126DPPC   C15 6265   6.268   3.797   2.216
  126DPPC   O16 6266   6.335   3.714   2.154
  126DPPC   C17 6267   6.317   3.874   2.338
  126DPPC   C18 6268   6.196   3.922   2.419
  126DPPC   C19 6269   6.237   3.948   2.564
  126DPPC   C20 6270   6.133   4.019   2.651
  126DPPC   C21 6271   6.172   4.031   2.798
  126DPPC   C22 6272   6.066   4.107   2.878
  126DPPC   C23 6273   6.061   4.255   2.840
  126DPPC   C24 6274   5.970   4.323   2.942
  126DPPC   C25 6275   6.033   4.317   3.082
  126DPPC   C26 6276   5.962   4.410   3.181
  126DPPC   C27 6277   6.036   4.428   3.313
  126DPPC   C28 6278   6.169   4.505   3.312
  126DPPC   C29 6279   6.242   4.479   3.444
  126DPPC   C30 6280   6.255   4.328   3.464
  126DPPC   C31 6281   6.295   4.290   3.607
  126DPPC   C32 6282   5.963   3.862   2.007
  126DPPC   O33 6283   5.853   3.861   2.097
  126DPPC   C34 6284   5.754   3.947   2.060
  126DPPC   O35 6285   5.742   3.986   1.944
  126DPPC   C36 6286   5.643   3.951   2.165
  126DPPC   C37 6287   5.677   4.031   2.291
  126DPPC   C38 6288   5.573   4.040   2.402
  126DPPC   C39 6289   5.643   4.072   2.534
  126DPPC   C40 6290   5.538   4.124   2.632
  126DPPC   C41 6291   5.613   4.147   2.763
  126DPPC   C42 6292   5.524   4.195   2.877
  126DPPC   C43 6293   5.607   4.203   3.006
  126DPPC   C44 6294   5.512   4.257   3.112
  126DPPC   C45 6295   5.572   4.230   3.250
  126DPPC   C46 6296   5.472   4.262   3.362
  126DPPC   C47 6297   5.535   4.244   3.500
  126DPPC   C48 6298   5.429   4.241   3.610
  126DPPC   C49 6299   5.495   4.227   3.747
  126DPPC   C50 6300   5.394   4.198   3.858
  127DPPC    C1 6301   2.187   6.247   1.444
  127DPPC    C2 6302   2.364   6.330   1.576
  127DPPC    C3 6303   2.365   6.316   1.328
  127DPPC    N4 6304   2.291   6.351   1.450
  127DPPC    C5 6305   2.209   6.472   1.444
  127DPPC    C6 6306   2.286   6.602   1.470
  127DPPC    O7 6307   2.189   6.699   1.508
  127DPPC    P8 6308   2.260   6.836   1.555
  127DPPC    O9 6309   2.240   6.926   1.439
  127DPPC   O10 6310   2.396   6.812   1.609
  127DPPC   O11 6311   2.162   6.894   1.669
  127DPPC   C12 6312   2.176   6.822   1.792
  127DPPC   C13 6313   2.129   6.892   1.920
  127DPPC   O14 6314   2.153   6.819   2.041
  127DPPC   C15 6315   2.274   6.802   2.100
  127DPPC   O16 6316   2.372   6.835   2.034
  127DPPC   C17 6317   2.286   6.775   2.251
  127DPPC   C18 6318   2.425   6.720   2.285
  127DPPC   C19 6319   2.438   6.694   2.435
  127DPPC   C20 6320   2.580   6.646   2.466
  127DPPC   C21 6321   2.589   6.630   2.618
  127DPPC   C22 6322   2.584   6.764   2.690
  127DPPC   C23 6323   2.591   6.745   2.842
  127DPPC   C24 6324   2.717   6.681   2.900
  127DPPC   C25 6325   2.711   6.693   3.052
  127DPPC   C26 6326   2.843   6.628   3.094
  127DPPC   C27 6327   2.841   6.602   3.244
  127DPPC   C28 6328   2.735   6.497   3.279
  127DPPC   C29 6329   2.759   6.447   3.421
  127DPPC   C30 6330   2.646   6.346   3.443
  127DPPC   C31 6331   2.654   6.287   3.584
  127DPPC   C32 6332   1.981   6.915   1.888
  127DPPC   O33 6333   1.901   7.014   1.952
  127DPPC   C34 6334   1.810   7.073   1.870
  127DPPC   O35 6335   1.812   7.047   1.749
  127DPPC   C36 6336   1.713   7.173   1.932
  127DPPC   C37 6337   1.666   7.115   2.066
  127DPPC   C38 6338   1.534   7.184   2.103
  127DPPC   C39 6339   1.487   7.149   2.244
  127DPPC   C40 6340   1.356   7.219   2.281
  127DPPC   C41 6341   1.280   7.159   2.399
  127DPPC   C42 6342   1.371   7.176   2.521
  127DPPC   C43 6343   1.307   7.116   2.647
  127DPPC   C44 6344   1.396   7.165   2.762
  127DPPC   C45 6345   1.544   7.130   2.749
  127DPPC   C46 6346   1.603   7.180   2.881
  127DPPC   C47 6347   1.746   7.125   2.883
  127DPPC   C48 6348   1.794   7.132   3.028
  127DPPC   C49 6349   1.787   7.277   3.076
  127DPPC   C50 6350   1.863   7.295   3.207
  128DPPC    C1 6351   2.009   4.063   1.604
  128DPPC    C2 6352   1.804   3.946   1.588
  128DPPC    C3 6353   1.994   3.860   1.473
  128DPPC    N4 6354   1.950   3.929   1.595
  128DPPC    C5 6355   1.983   3.853   1.716
  128DPPC    C6 6356   2.126   3.801   1.731
  128DPPC    O7 6357   2.185   3.841   1.855
  128DPPC    P8 6358   2.343   3.866   1.834
  128DPPC    O9 6359   2.353   4.014   1.841
  128DPPC   O10 6360   2.404   3.784   1.726
  128DPPC   O11 6361   2.393   3.793   1.968
  128DPPC   C12 6362   2.427   3.656   1.949
  128DPPC   C13 6363   2.435   3.573   2.077
  128DPPC   O14 6364   2.341   3.465   2.083
  128DPPC   C15 6365   2.396   3.351   2.131
  128DPPC   O16 6366   2.507   3.320   2.086
  128DPPC   C17 6367   2.301   3.243   2.184
  128DPPC   C18 6368   2.350   3.200   2.322
  128DPPC   C19 6369   2.343   3.312   2.426
  128DPPC   C20 6370   2.337   3.266   2.572
  128DPPC   C21 6371   2.297   3.376   2.671
  128DPPC   C22 6372   2.325   3.334   2.816
  128DPPC   C23 6373   2.311   3.456   2.907
  128DPPC   C24 6374   2.309   3.414   3.054
  128DPPC   C25 6375   2.270   3.539   3.134
  128DPPC   C26 6376   2.385   3.634   3.168
  128DPPC   C27 6377   2.334   3.705   3.293
  128DPPC   C28 6378   2.454   3.768   3.364
  128DPPC   C29 6379   2.554   3.658   3.397
  128DPPC   C30 6380   2.658   3.716   3.493
  128DPPC   C31 6381   2.594   3.761   3.625
  128DPPC   C32 6382   2.420   3.665   2.198
  128DPPC   O33 6383   2.488   3.616   2.314
  128DPPC   C34 6384   2.524   3.718   2.397
  128DPPC   O35 6385   2.510   3.838   2.373
  128DPPC   C36 6386   2.560   3.673   2.539
  128DPPC   C37 6387   2.616   3.783   2.629
  128DPPC   C38 6388   2.633   3.718   2.766
  128DPPC   C39 6389   2.678   3.823   2.867
  128DPPC   C40 6390   2.753   3.753   2.980
  128DPPC   C41 6391   2.819   3.846   3.082
  128DPPC   C42 6392   2.924   3.766   3.159
  128DPPC   C43 6393   2.999   3.870   3.243
  128DPPC   C44 6394   3.022   3.793   3.373
  128DPPC   C45 6395   3.096   3.882   3.474
  128DPPC   C46 6396   3.225   3.936   3.413
  128DPPC   C47 6397   3.305   4.004   3.525
  128DPPC   C48 6398   3.431   4.054   3.454
  128DPPC   C49 6399   3.524   4.124   3.553
  128DPPC   C50 6400   3.645   4.182   3.479
  129DPPC    C1 6401   2.737   2.233   5.794
  129DPPC    C2 6402   2.649   2.207   6.021
  129DPPC    C3 6403   2.688   2.418   5.921
  129DPPC    N4 6404   2.642   2.281   5.894
  129DPPC    C5 6405   2.501   2.278   5.851
  129DPPC    C6 6406   2.444   2.157   5.777
  129DPPC    O7 6407   2.341   2.188   5.683
  129DPPC    P8 6408   2.249   2.059   5.655
  129DPPC    O9 6409   2.155   2.128   5.564
  129DPPC   O10 6410   2.202   2.017   5.788
  129DPPC   O11 6411   2.351   1.953   5.590
  129DPPC   C12 6412   2.387   2.013   5.465
  129DPPC   C13 6413   2.534   1.982   5.437
  129DPPC   O14 6414   2.587   2.064   5.332
  129DPPC   C15 6415   2.643   2.184   5.362
  129DPPC   O16 6416   2.600   2.239   5.463
  129DPPC   C17 6417   2.714   2.270   5.257
  129DPPC   C18 6418   2.641   2.400   5.226
  129DPPC   C19 6419   2.669   2.453   5.085
  129DPPC   C20 6420   2.625   2.340   4.991
  129DPPC   C21 6421   2.653   2.380   4.846
  129DPPC   C22 6422   2.583   2.277   4.757
  129DPPC   C23 6423   2.539   2.345   4.627
  129DPPC   C24 6424   2.500   2.241   4.523
  129DPPC   C25 6425   2.474   2.300   4.384
  129DPPC   C26 6426   2.483   2.193   4.275
  129DPPC   C27 6427   2.486   2.258   4.137
  129DPPC   C28 6428   2.508   2.145   4.036
  129DPPC   C29 6429   2.527   2.205   3.896
  129DPPC   C30 6430   2.506   2.096   3.792
  129DPPC   C31 6431   2.548   2.155   3.657
  129DPPC   C32 6432   2.546   1.832   5.412
  129DPPC   O33 6433   2.435   1.786   5.335
  129DPPC   C34 6434   2.444   1.652   5.310
  129DPPC   O35 6435   2.541   1.593   5.357
  129DPPC   C36 6436   2.338   1.584   5.225
  129DPPC   C37 6437   2.381   1.446   5.174
  129DPPC   C38 6438   2.504   1.469   5.085
  129DPPC   C39 6439   2.543   1.329   5.036
  129DPPC   C40 6440   2.444   1.268   4.937
  129DPPC   C41 6441   2.526   1.158   4.869
  129DPPC   C42 6442   2.456   1.105   4.743
  129DPPC   C43 6443   2.530   0.978   4.700
  129DPPC   C44 6444   2.445   0.900   4.600
  129DPPC   C45 6445   2.533   0.798   4.527
  129DPPC   C46 6446   2.457   0.732   4.411
  129DPPC   C47 6447   2.551   0.636   4.338
  129DPPC   C48 6448   2.492   0.609   4.199
  129DPPC   C49 6449   2.587   0.526   4.113
  129DPPC   C50 6450   2.530   0.460   3.987
  130DPPC    C1 6451   0.627   7.741   1.412
  130DPPC    C2 6452   0.804   7.904   1.410
  130DPPC    C3 6453   0.575   7.968   1.429
  130DPPC    N4 6454   0.675   7.868   1.469
  130DPPC    C5 6455   0.659   7.864   1.615
  130DPPC    C6 6456   0.733   7.755   1.692
  130DPPC    O7 6457   0.643   7.663   1.754
  130DPPC    P8 6458   0.714   7.599   1.883
  130DPPC    O9 6459   0.845   7.664   1.900
  130DPPC   O10 6460   0.695   7.452   1.882
  130DPPC   O11 6461   0.608   7.663   1.986
  130DPPC   C12 6462   0.675   7.768   2.058
  130DPPC   C13 6463   0.589   7.832   2.167
  130DPPC   O14 6464   0.678   7.869   2.273
  130DPPC   C15 6465   0.767   7.972   2.270
  130DPPC   O16 6466   0.753   8.054   2.179
  130DPPC   C17 6467   0.853   7.986   2.396
  130DPPC   C18 6468   0.800   8.085   2.500
  130DPPC   C19 6469   0.812   8.019   2.637
  130DPPC   C20 6470   0.953   7.962   2.657
  130DPPC   C21 6471   1.043   8.084   2.682
  130DPPC   C22 6472   1.191   8.043   2.682
  130DPPC   C23 6473   1.257   8.148   2.771
  130DPPC   C24 6474   1.271   8.105   2.917
  130DPPC   C25 6475   1.388   8.007   2.931
  130DPPC   C26 6476   1.401   7.960   3.076
  130DPPC   C27 6477   1.444   8.064   3.180
  130DPPC   C28 6478   1.452   8.026   3.328
  130DPPC   C29 6479   1.558   7.915   3.327
  130DPPC   C30 6480   1.571   7.855   3.467
  130DPPC   C31 6481   1.440   7.848   3.545
  130DPPC   C32 6482   0.487   7.725   2.207
  130DPPC   O33 6483   0.371   7.780   2.270
  130DPPC   C34 6484   0.298   7.680   2.327
  130DPPC   O35 6485   0.318   7.561   2.304
  130DPPC   C36 6486   0.168   7.726   2.393
  130DPPC   C37 6487   0.114   7.621   2.491
  130DPPC   C38 6488  -0.031   7.637   2.536
  130DPPC   C39 6489  -0.064   7.774   2.596
  130DPPC   C40 6490  -0.195   7.791   2.673
  130DPPC   C41 6491  -0.206   7.941   2.696
  130DPPC   C42 6492  -0.351   7.975   2.732
  130DPPC   C43 6493  -0.375   8.122   2.767
  130DPPC   C44 6494  -0.491   8.153   2.861
  130DPPC   C45 6495  -0.512   8.303   2.883
  130DPPC   C46 6496  -0.625   8.344   2.977
  130DPPC   C47 6497  -0.586   8.293   3.116
  130DPPC   C48 6498  -0.709   8.293   3.208
  130DPPC   C49 6499  -0.762   8.437   3.216
  130DPPC   C50 6500  -0.908   8.438   3.263
  131DPPC    C1 6501   1.370   4.060   5.722
  131DPPC    C2 6502   1.395   3.885   5.552
  131DPPC    C3 6503   1.256   4.074   5.521
  131DPPC    N4 6504   1.384   4.029   5.579
  131DPPC    C5 6505   1.484   4.109   5.507
  131DPPC    C6 6506   1.497   4.259   5.536
  131DPPC    O7 6507   1.418   4.339   5.447
  131DPPC    P8 6508   1.437   4.491   5.496
  131DPPC    O9 6509   1.496   4.497   5.632
  131DPPC   O10 6510   1.315   4.568   5.464
  131DPPC   O11 6511   1.550   4.528   5.388
  131DPPC   C12 6512   1.491   4.514   5.259
  131DPPC   C13 6513   1.595   4.510   5.147
  131DPPC   O14 6514   1.530   4.525   5.021
  131DPPC   C15 6515   1.587   4.622   4.943
  131DPPC   O16 6516   1.686   4.686   4.977
  131DPPC   C17 6517   1.539   4.614   4.798
  131DPPC   C18 6518   1.643   4.529   4.724
  131DPPC   C19 6519   1.587   4.498   4.585
  131DPPC   C20 6520   1.705   4.483   4.489
  131DPPC   C21 6521   1.665   4.436   4.349
  131DPPC   C22 6522   1.788   4.459   4.261
  131DPPC   C23 6523   1.766   4.403   4.120
  131DPPC   C24 6524   1.882   4.433   4.025
  131DPPC   C25 6525   2.018   4.386   4.076
  131DPPC   C26 6526   2.125   4.410   3.968
  131DPPC   C27 6527   2.265   4.377   4.021
  131DPPC   C28 6528   2.368   4.381   3.908
  131DPPC   C29 6529   2.511   4.386   3.963
  131DPPC   C30 6530   2.583   4.515   3.923
  131DPPC   C31 6531   2.731   4.516   3.961
  131DPPC   C32 6532   1.677   4.383   5.169
  131DPPC   O33 6533   1.751   4.322   5.063
  131DPPC   C34 6534   1.816   4.203   5.061
  131DPPC   O35 6535   1.785   4.126   5.152
  131DPPC   C36 6536   1.898   4.149   4.944
  131DPPC   C37 6537   1.814   4.155   4.816
  131DPPC   C38 6538   1.887   4.092   4.698
  131DPPC   C39 6539   1.794   4.100   4.576
  131DPPC   C40 6540   1.651   4.045   4.579
  131DPPC   C41 6541   1.610   4.047   4.431
  131DPPC   C42 6542   1.457   4.040   4.428
  131DPPC   C43 6543   1.413   4.034   4.281
  131DPPC   C44 6544   1.469   3.912   4.208
  131DPPC   C45 6545   1.403   3.899   4.071
  131DPPC   C46 6546   1.455   3.995   3.963
  131DPPC   C47 6547   1.454   3.931   3.824
  131DPPC   C48 6548   1.476   4.033   3.712
  131DPPC   C49 6549   1.475   3.967   3.574
  131DPPC   C50 6550   1.579   3.860   3.542
  132DPPC    C1 6551   9.180   6.455   1.296
  132DPPC    C2 6552   9.381   6.565   1.399
  132DPPC    C3 6553   9.238   6.678   1.257
  132DPPC    N4 6554   9.239   6.573   1.360
  132DPPC    C5 6555   9.158   6.609   1.478
  132DPPC    C6 6556   9.006   6.621   1.476
  132DPPC    O7 6557   8.957   6.653   1.607
  132DPPC    P8 6558   8.800   6.627   1.627
  132DPPC    O9 6559   8.781   6.483   1.597
  132DPPC   O10 6560   8.744   6.732   1.540
  132DPPC   O11 6561   8.789   6.643   1.787
  132DPPC   C12 6562   8.902   6.595   1.859
  132DPPC   C13 6563   8.895   6.624   2.009
  132DPPC   O14 6564   9.011   6.581   2.083
  132DPPC   C15 6565   9.124   6.656   2.082
  132DPPC   O16 6566   9.147   6.727   1.984
  132DPPC   C17 6567   9.225   6.644   2.196
  132DPPC   C18 6568   9.197   6.727   2.322
  132DPPC   C19 6569   9.306   6.713   2.429
  132DPPC   C20 6570   9.249   6.767   2.560
  132DPPC   C21 6571   9.318   6.734   2.693
  132DPPC   C22 6572   9.466   6.771   2.699
  132DPPC   C23 6573   9.490   6.803   2.847
  132DPPC   C24 6574   9.627   6.750   2.889
  132DPPC   C25 6575   9.664   6.789   3.033
  132DPPC   C26 6576   9.814   6.759   3.030
  132DPPC   C27 6577   9.855   6.764   3.178
  132DPPC   C28 6578  10.007   6.761   3.198
  132DPPC   C29 6579  10.029   6.713   3.342
  132DPPC   C30 6580  10.018   6.560   3.340
  132DPPC   C31 6581  10.034   6.501   3.480
  132DPPC   C32 6582   8.765   6.561   2.061
  132DPPC   O33 6583   8.746   6.558   2.202
  132DPPC   C34 6584   8.630   6.507   2.254
  132DPPC   O35 6585   8.539   6.481   2.175
  132DPPC   C36 6586   8.618   6.503   2.406
  132DPPC   C37 6587   8.543   6.620   2.471
  132DPPC   C38 6588   8.486   6.582   2.608
  132DPPC   C39 6589   8.442   6.704   2.688
  132DPPC   C40 6590   8.441   6.675   2.838
  132DPPC   C41 6591   8.343   6.561   2.870
  132DPPC   C42 6592   8.352   6.527   3.019
  132DPPC   C43 6593   8.330   6.656   3.099
  132DPPC   C44 6594   8.300   6.612   3.242
  132DPPC   C45 6595   8.242   6.731   3.318
  132DPPC   C46 6596   8.230   6.692   3.466
  132DPPC   C47 6597   8.158   6.809   3.534
  132DPPC   C48 6598   8.150   6.801   3.686
  132DPPC   C49 6599   8.050   6.692   3.724
  132DPPC   C50 6600   8.061   6.669   3.875
  133DPPC    C1 6601   7.243   0.346   5.614
  133DPPC    C2 6602   7.221   0.548   5.705
  133DPPC    C3 6603   7.343   0.361   5.825
  133DPPC    N4 6604   7.318   0.438   5.702
  133DPPC    C5 6605   7.447   0.473   5.640
  133DPPC    C6 6606   7.548   0.573   5.695
  133DPPC    O7 6607   7.668   0.576   5.617
  133DPPC    P8 6608   7.779   0.676   5.676
  133DPPC    O9 6609   7.904   0.677   5.598
  133DPPC   O10 6610   7.761   0.668   5.823
  133DPPC   O11 6611   7.703   0.810   5.628
  133DPPC   C12 6612   7.728   0.832   5.489
  133DPPC   C13 6613   7.639   0.934   5.418
  133DPPC   O14 6614   7.693   1.067   5.404
  133DPPC   C15 6615   7.783   1.083   5.304
  133DPPC   O16 6616   7.818   0.979   5.247
  133DPPC   C17 6617   7.867   1.210   5.293
  133DPPC   C18 6618   7.804   1.334   5.229
  133DPPC   C19 6619   7.812   1.331   5.076
  133DPPC   C20 6620   7.760   1.464   5.021
  133DPPC   C21 6621   7.835   1.587   5.073
  133DPPC   C22 6622   7.754   1.713   5.040
  133DPPC   C23 6623   7.843   1.837   5.054
  133DPPC   C24 6624   7.745   1.956   5.059
  133DPPC   C25 6625   7.667   1.961   4.928
  133DPPC   C26 6626   7.552   2.061   4.921
  133DPPC   C27 6627   7.479   2.045   4.787
  133DPPC   C28 6628   7.368   2.151   4.789
  133DPPC   C29 6629   7.283   2.133   4.663
  133DPPC   C30 6630   7.151   2.210   4.666
  133DPPC   C31 6631   7.063   2.177   4.545
  133DPPC   C32 6632   7.514   0.944   5.506
  133DPPC   O33 6633   7.386   0.937   5.444
  133DPPC   C34 6634   7.339   0.812   5.417
  133DPPC   O35 6635   7.381   0.707   5.467
  133DPPC   C36 6636   7.201   0.810   5.351
  133DPPC   C37 6637   7.218   0.791   5.200
  133DPPC   C38 6638   7.079   0.821   5.144
  133DPPC   C39 6639   7.098   0.843   4.994
  133DPPC   C40 6640   7.154   0.718   4.925
  133DPPC   C41 6641   7.147   0.740   4.774
  133DPPC   C42 6642   7.158   0.608   4.697
  133DPPC   C43 6643   7.134   0.638   4.550
  133DPPC   C44 6644   7.232   0.729   4.475
  133DPPC   C45 6645   7.210   0.725   4.324
  133DPPC   C46 6646   7.223   0.582   4.273
  133DPPC   C47 6647   7.196   0.576   4.122
  133DPPC   C48 6648   7.217   0.436   4.063
  133DPPC   C49 6649   7.211   0.437   3.911
  133DPPC   C50 6650   7.065   0.452   3.865
  134DPPC    C1 6651   0.217   7.807   5.455
  134DPPC    C2 6652   0.157   7.855   5.662
  134DPPC    C3 6653   0.393   7.839   5.612
  134DPPC    N4 6654   0.263   7.891   5.567
  134DPPC    C5 6655   0.263   8.036   5.547
  134DPPC    C6 6656   0.348   8.099   5.437
  134DPPC    O7 6657   0.320   8.066   5.301
  134DPPC    P8 6658   0.426   8.153   5.217
  134DPPC    O9 6659   0.548   8.070   5.230
  134DPPC   O10 6660   0.416   8.288   5.277
  134DPPC   O11 6661   0.375   8.145   5.065
  134DPPC   C12 6662   0.392   8.267   4.991
  134DPPC   C13 6663   0.425   8.247   4.843
  134DPPC   O14 6664   0.424   8.369   4.768
  134DPPC   C15 6665   0.520   8.465   4.770
  134DPPC   O16 6666   0.628   8.433   4.819
  134DPPC   C17 6667   0.503   8.595   4.693
  134DPPC   C18 6668   0.412   8.582   4.570
  134DPPC   C19 6669   0.439   8.698   4.474
  134DPPC   C20 6670   0.367   8.686   4.340
  134DPPC   C21 6671   0.440   8.764   4.231
  134DPPC   C22 6672   0.345   8.871   4.177
  134DPPC   C23 6673   0.399   8.966   4.070
  134DPPC   C24 6674   0.384   9.112   4.113
  134DPPC   C25 6675   0.452   9.204   4.012
  134DPPC   C26 6676   0.433   9.352   4.045
  134DPPC   C27 6677   0.503   9.435   3.937
  134DPPC   C28 6678   0.455   9.580   3.936
  134DPPC   C29 6679   0.563   9.666   3.871
  134DPPC   C30 6680   0.568   9.617   3.727
  134DPPC   C31 6681   0.671   9.705   3.655
  134DPPC   C32 6682   0.316   8.150   4.796
  134DPPC   O33 6683   0.184   8.197   4.822
  134DPPC   C34 6684   0.082   8.106   4.820
  134DPPC   O35 6685   0.103   7.990   4.784
  134DPPC   C36 6686  -0.051   8.164   4.866
  134DPPC   C37 6687  -0.134   8.208   4.745
  134DPPC   C38 6688  -0.187   8.098   4.653
  134DPPC   C39 6689  -0.260   8.157   4.532
  134DPPC   C40 6690  -0.311   8.062   4.423
  134DPPC   C41 6691  -0.352   8.128   4.292
  134DPPC   C42 6692  -0.441   8.249   4.322
  134DPPC   C43 6693  -0.497   8.289   4.185
  134DPPC   C44 6694  -0.557   8.164   4.122
  134DPPC   C45 6695  -0.668   8.224   4.035
  134DPPC   C46 6696  -0.746   8.115   3.960
  134DPPC   C47 6697  -0.869   8.168   3.885
  134DPPC   C48 6698  -0.958   8.047   3.855
  134DPPC   C49 6699  -1.075   8.108   3.778
  134DPPC   C50 6700  -1.016   8.187   3.662
  135DPPC    C1 6701   7.829   7.821   5.740
  135DPPC    C2 6702   7.890   7.997   5.874
  135DPPC    C3 6703   8.023   7.972   5.680
  135DPPC    N4 6704   7.887   7.956   5.733
  135DPPC    C5 6705   7.787   8.038   5.661
  135DPPC    C6 6706   7.737   7.992   5.524
  135DPPC    O7 6707   7.613   8.035   5.467
  135DPPC    P8 6708   7.607   7.991   5.313
  135DPPC    O9 6709   7.476   8.034   5.258
  135DPPC   O10 6710   7.662   7.854   5.306
  135DPPC   O11 6711   7.719   8.099   5.271
  135DPPC   C12 6712   7.670   8.217   5.206
  135DPPC   C13 6713   7.777   8.325   5.194
  135DPPC   O14 6714   7.726   8.459   5.181
  135DPPC   C15 6715   7.813   8.564   5.178
  135DPPC   O16 6716   7.918   8.553   5.240
  135DPPC   C17 6717   7.751   8.704   5.169
  135DPPC   C18 6718   7.841   8.804   5.096
  135DPPC   C19 6719   7.883   8.750   4.960
  135DPPC   C20 6720   7.768   8.710   4.868
  135DPPC   C21 6721   7.793   8.581   4.790
  135DPPC   C22 6722   7.651   8.538   4.750
  135DPPC   C23 6723   7.581   8.639   4.660
  135DPPC   C24 6724   7.651   8.642   4.523
  135DPPC   C25 6725   7.579   8.715   4.409
  135DPPC   C26 6726   7.662   8.715   4.280
  135DPPC   C27 6727   7.594   8.805   4.177
  135DPPC   C28 6728   7.701   8.853   4.079
  135DPPC   C29 6729   7.617   8.947   3.992
  135DPPC   C30 6730   7.690   9.002   3.869
  135DPPC   C31 6731   7.654   8.920   3.745
  135DPPC   C32 6732   7.888   8.275   5.100
  135DPPC   O33 6733   7.835   8.217   4.981
  135DPPC   C34 6734   7.932   8.175   4.896
  135DPPC   O35 6735   8.049   8.207   4.919
  135DPPC   C36 6736   7.885   8.148   4.753
  135DPPC   C37 6737   7.756   8.067   4.771
  135DPPC   C38 6738   7.673   8.068   4.643
  135DPPC   C39 6739   7.550   7.978   4.635
  135DPPC   C40 6740   7.475   7.967   4.501
  135DPPC   C41 6741   7.460   8.112   4.454
  135DPPC   C42 6742   7.387   8.102   4.319
  135DPPC   C43 6743   7.479   8.020   4.228
  135DPPC   C44 6744   7.429   8.033   4.084
  135DPPC   C45 6745   7.537   7.988   3.984
  135DPPC   C46 6746   7.503   7.974   3.836
  135DPPC   C47 6747   7.411   7.855   3.806
  135DPPC   C48 6748   7.379   7.854   3.656
  135DPPC   C49 6749   7.288   7.742   3.605
  135DPPC   C50 6750   7.271   7.758   3.454
  136DPPC    C1 6751   7.052   3.255   6.152
  136DPPC    C2 6752   7.263   3.254   6.068
  136DPPC    C3 6753   7.145   3.440   6.039
  136DPPC    N4 6754   7.172   3.340   6.143
  136DPPC    C5 6755   7.228   3.392   6.269
  136DPPC    C6 6756   7.374   3.436   6.265
  136DPPC    O7 6757   7.402   3.555   6.191
  136DPPC    P8 6758   7.555   3.553   6.141
  136DPPC    O9 6759   7.619   3.453   6.230
  136DPPC   O10 6760   7.592   3.696   6.137
  136DPPC   O11 6761   7.522   3.499   5.993
  136DPPC   C12 6762   7.502   3.620   5.919
  136DPPC   C13 6763   7.577   3.613   5.785
  136DPPC   O14 6764   7.541   3.725   5.702
  136DPPC   C15 6765   7.606   3.844   5.715
  136DPPC   O16 6766   7.704   3.856   5.789
  136DPPC   C17 6767   7.545   3.966   5.647
  136DPPC   C18 6768   7.605   4.013   5.514
  136DPPC   C19 6769   7.538   4.132   5.445
  136DPPC   C20 6770   7.610   4.157   5.313
  136DPPC   C21 6771   7.627   4.042   5.214
  136DPPC   C22 6772   7.707   4.091   5.093
  136DPPC   C23 6773   7.637   4.213   5.032
  136DPPC   C24 6774   7.744   4.297   4.963
  136DPPC   C25 6775   7.800   4.251   4.828
  136DPPC   C26 6776   7.918   4.334   4.779
  136DPPC   C27 6777   7.991   4.257   4.669
  136DPPC   C28 6778   8.101   4.336   4.598
  136DPPC   C29 6779   8.049   4.471   4.548
  136DPPC   C30 6780   8.112   4.505   4.412
  136DPPC   C31 6781   8.074   4.644   4.363
  136DPPC   C32 6782   7.510   3.486   5.733
  136DPPC   O33 6783   7.589   3.400   5.650
  136DPPC   C34 6784   7.542   3.287   5.590
  136DPPC   O35 6785   7.425   3.254   5.605
  136DPPC   C36 6786   7.622   3.236   5.470
  136DPPC   C37 6787   7.587   3.334   5.358
  136DPPC   C38 6788   7.535   3.267   5.231
  136DPPC   C39 6789   7.467   3.362   5.132
  136DPPC   C40 6790   7.415   3.292   5.006
  136DPPC   C41 6791   7.332   3.392   4.926
  136DPPC   C42 6792   7.268   3.328   4.802
  136DPPC   C43 6793   7.207   3.439   4.716
  136DPPC   C44 6794   7.167   3.377   4.582
  136DPPC   C45 6795   7.093   3.473   4.489
  136DPPC   C46 6796   7.059   3.393   4.363
  136DPPC   C47 6797   7.005   3.491   4.258
  136DPPC   C48 6798   7.024   3.425   4.121
  136DPPC   C49 6799   6.927   3.307   4.110
  136DPPC   C50 6800   6.954   3.260   3.967
  137DPPC    C1 6801   3.041   6.203   5.136
  137DPPC    C2 6802   3.153   6.030   5.258
  137DPPC    C3 6803   3.258   6.243   5.195
  137DPPC    N4 6804   3.137   6.176   5.244
  137DPPC    C5 6805   3.104   6.248   5.368
  137DPPC    C6 6806   2.969   6.216   5.432
  137DPPC    O7 6807   2.854   6.285   5.383
  137DPPC    P8 6808   2.719   6.200   5.408
  137DPPC    O9 6809   2.606   6.275   5.350
  137DPPC   O10 6810   2.735   6.157   5.549
  137DPPC   O11 6811   2.749   6.073   5.315
  137DPPC   C12 6812   2.649   6.044   5.217
  137DPPC   C13 6813   2.684   5.912   5.149
  137DPPC   O14 6814   2.806   5.918   5.074
  137DPPC   C15 6815   2.876   5.803   5.058
  137DPPC   O16 6816   2.846   5.712   5.135
  137DPPC   C17 6817   3.002   5.796   4.972
  137DPPC   C18 6818   2.978   5.858   4.834
  137DPPC   C19 6819   3.103   5.832   4.750
  137DPPC   C20 6820   3.144   5.685   4.735
  137DPPC   C21 6821   3.250   5.677   4.625
  137DPPC   C22 6822   3.306   5.536   4.605
  137DPPC   C23 6823   3.428   5.519   4.514
  137DPPC   C24 6824   3.472   5.373   4.495
  137DPPC   C25 6825   3.586   5.358   4.394
  137DPPC   C26 6826   3.612   5.209   4.376
  137DPPC   C27 6827   3.733   5.175   4.289
  137DPPC   C28 6828   3.715   5.239   4.151
  137DPPC   C29 6829   3.805   5.175   4.045
  137DPPC   C30 6830   3.719   5.171   3.919
  137DPPC   C31 6831   3.780   5.082   3.810
  137DPPC   C32 6832   2.556   5.873   5.074
  137DPPC   O33 6833   2.492   5.976   4.998
  137DPPC   C34 6834   2.394   5.936   4.912
  137DPPC   O35 6835   2.365   5.817   4.900
  137DPPC   C36 6836   2.337   6.042   4.818
  137DPPC   C37 6837   2.302   5.996   4.676
  137DPPC   C38 6838   2.283   6.101   4.567
  137DPPC   C39 6839   2.252   6.031   4.435
  137DPPC   C40 6840   2.312   6.113   4.321
  137DPPC   C41 6841   2.221   6.230   4.284
  137DPPC   C42 6842   2.248   6.278   4.141
  137DPPC   C43 6843   2.222   6.159   4.049
  137DPPC   C44 6844   2.267   6.170   3.903
  137DPPC   C45 6845   2.214   6.051   3.822
  137DPPC   C46 6846   2.244   5.919   3.893
  137DPPC   C47 6847   2.183   5.804   3.814
  137DPPC   C48 6848   2.031   5.797   3.828
  137DPPC   C49 6849   1.960   5.688   3.748
  137DPPC   C50 6850   1.819   5.660   3.801
  138DPPC    C1 6851   2.022   2.748   5.791
  138DPPC    C2 6852   1.982   2.971   5.863
  138DPPC    C3 6853   2.152   2.838   5.953
  138DPPC    N4 6854   2.087   2.875   5.826
  138DPPC    C5 6855   2.173   2.911   5.713
  138DPPC    C6 6856   2.106   2.965   5.585
  138DPPC    O7 6857   2.027   2.879   5.504
  138DPPC    P8 6858   1.994   2.966   5.373
  138DPPC    O9 6859   1.937   3.086   5.439
  138DPPC   O10 6860   1.918   2.879   5.281
  138DPPC   O11 6861   2.149   2.986   5.333
  138DPPC   C12 6862   2.159   3.073   5.220
  138DPPC   C13 6863   2.297   3.135   5.199
  138DPPC   O14 6864   2.310   3.248   5.112
  138DPPC   C15 6865   2.288   3.374   5.158
  138DPPC   O16 6866   2.265   3.389   5.278
  138DPPC   C17 6867   2.289   3.486   5.053
  138DPPC   C18 6868   2.401   3.587   5.075
  138DPPC   C19 6869   2.400   3.695   4.966
  138DPPC   C20 6870   2.263   3.762   4.950
  138DPPC   C21 6871   2.253   3.852   4.826
  138DPPC   C22 6872   2.212   3.777   4.699
  138DPPC   C23 6873   2.209   3.877   4.583
  138DPPC   C24 6874   2.228   3.789   4.459
  138DPPC   C25 6875   2.249   3.858   4.324
  138DPPC   C26 6876   2.262   3.737   4.231
  138DPPC   C27 6877   2.281   3.780   4.085
  138DPPC   C28 6878   2.163   3.873   4.054
  138DPPC   C29 6879   2.200   3.958   3.932
  138DPPC   C30 6880   2.090   4.052   3.884
  138DPPC   C31 6881   1.981   3.964   3.823
  138DPPC   C32 6882   2.383   3.018   5.151
  138DPPC   O33 6883   2.317   2.951   5.043
  138DPPC   C34 6884   2.358   2.822   5.033
  138DPPC   O35 6885   2.422   2.773   5.126
  138DPPC   C36 6886   2.333   2.734   4.910
  138DPPC   C37 6887   2.395   2.802   4.787
  138DPPC   C38 6888   2.378   2.698   4.676
  138DPPC   C39 6889   2.236   2.664   4.632
  138DPPC   C40 6890   2.229   2.550   4.530
  138DPPC   C41 6891   2.084   2.535   4.482
  138DPPC   C42 6892   2.064   2.403   4.407
  138DPPC   C43 6893   1.919   2.403   4.360
  138DPPC   C44 6894   1.872   2.279   4.282
  138DPPC   C45 6895   1.720   2.281   4.302
  138DPPC   C46 6896   1.662   2.176   4.208
  138DPPC   C47 6897   1.509   2.172   4.219
  138DPPC   C48 6898   1.449   2.046   4.157
  138DPPC   C49 6899   1.302   2.021   4.190
  138DPPC   C50 6900   1.312   2.029   4.342
  139DPPC    C1 6901   9.023   3.869   5.468
  139DPPC    C2 6902   8.848   4.027   5.421
  139DPPC    C3 6903   8.847   3.894   5.617
  139DPPC    N4 6904   8.933   3.970   5.526
  139DPPC    C5 6905   9.002   4.068   5.611
  139DPPC    C6 6906   9.083   4.173   5.534
  139DPPC    O7 6907   9.153   4.257   5.628
  139DPPC    P8 6908   9.190   4.397   5.559
  139DPPC    O9 6909   9.222   4.501   5.660
  139DPPC   O10 6910   9.092   4.425   5.452
  139DPPC   O11 6911   9.319   4.353   5.474
  139DPPC   C12 6912   9.336   4.432   5.357
  139DPPC   C13 6913   9.402   4.357   5.241
  139DPPC   O14 6914   9.449   4.440   5.134
  139DPPC   C15 6915   9.562   4.516   5.144
  139DPPC   O16 6916   9.627   4.514   5.248
  139DPPC   C17 6917   9.575   4.626   5.039
  139DPPC   C18 6918   9.664   4.584   4.922
  139DPPC   C19 6919   9.663   4.679   4.802
  139DPPC   C20 6920   9.700   4.608   4.672
  139DPPC   C21 6921   9.681   4.692   4.545
  139DPPC   C22 6922   9.661   4.590   4.433
  139DPPC   C23 6923   9.670   4.664   4.299
  139DPPC   C24 6924   9.676   4.563   4.185
  139DPPC   C25 6925   9.684   4.632   4.049
  139DPPC   C26 6926   9.688   4.521   3.944
  139DPPC   C27 6927   9.744   4.571   3.811
  139DPPC   C28 6928   9.663   4.679   3.739
  139DPPC   C29 6929   9.742   4.703   3.610
  139DPPC   C30 6930   9.669   4.803   3.520
  139DPPC   C31 6931   9.730   4.818   3.381
  139DPPC   C32 6932   9.303   4.245   5.211
  139DPPC   O33 6933   9.364   4.119   5.183
  139DPPC   C34 6934   9.281   4.011   5.186
  139DPPC   O35 6935   9.168   4.032   5.230
  139DPPC   C36 6936   9.322   3.875   5.131
  139DPPC   C37 6937   9.286   3.877   4.982
  139DPPC   C38 6938   9.334   3.754   4.903
  139DPPC   C39 6939   9.288   3.783   4.760
  139DPPC   C40 6940   9.291   3.672   4.655
  139DPPC   C41 6941   9.234   3.723   4.522
  139DPPC   C42 6942   9.201   3.597   4.442
  139DPPC   C43 6943   9.179   3.630   4.294
  139DPPC   C44 6944   9.062   3.724   4.267
  139DPPC   C45 6945   9.034   3.729   4.117
  139DPPC   C46 6946   9.117   3.822   4.028
  139DPPC   C47 6947   9.097   3.791   3.879
  139DPPC   C48 6948   9.167   3.888   3.784
  139DPPC   C49 6949   9.145   3.830   3.644
  139DPPC   C50 6950   9.218   3.912   3.537
  140DPPC    C1 6951   0.117   2.511   5.481
  140DPPC    C2 6952   0.250   2.637   5.650
  140DPPC    C3 6953   0.093   2.732   5.524
  140DPPC    N4 6954   0.118   2.605   5.594
  140DPPC    C5 6955   0.029   2.583   5.709
  140DPPC    C6 6956  -0.114   2.530   5.691
  140DPPC    O7 6957  -0.188   2.623   5.611
  140DPPC    P8 6958  -0.343   2.591   5.586
  140DPPC    O9 6959  -0.389   2.719   5.527
  140DPPC   O10 6960  -0.405   2.535   5.709
  140DPPC   O11 6961  -0.329   2.483   5.468
  140DPPC   C12 6962  -0.288   2.534   5.341
  140DPPC   C13 6963  -0.295   2.420   5.238
  140DPPC   O14 6964  -0.196   2.415   5.134
  140DPPC   C15 6965  -0.071   2.365   5.148
  140DPPC   O16 6966  -0.017   2.322   5.251
  140DPPC   C17 6967  -0.008   2.326   5.014
  140DPPC   C18 6968   0.044   2.450   4.941
  140DPPC   C19 6969   0.078   2.412   4.796
  140DPPC   C20 6970   0.210   2.474   4.749
  140DPPC   C21 6971   0.237   2.461   4.599
  140DPPC   C22 6972   0.371   2.526   4.564
  140DPPC   C23 6973   0.449   2.456   4.452
  140DPPC   C24 6974   0.369   2.455   4.322
  140DPPC   C25 6975   0.453   2.424   4.198
  140DPPC   C26 6976   0.390   2.392   4.062
  140DPPC   C27 6977   0.496   2.372   3.953
  140DPPC   C28 6978   0.438   2.329   3.818
  140DPPC   C29 6979   0.328   2.223   3.829
  140DPPC   C30 6980   0.310   2.156   3.692
  140DPPC   C31 6981   0.211   2.040   3.705
  140DPPC   C32 6982  -0.436   2.439   5.181
  140DPPC   O33 6983  -0.461   2.575   5.147
  140DPPC   C34 6984  -0.547   2.610   5.047
  140DPPC   O35 6985  -0.564   2.544   4.944
  140DPPC   C36 6986  -0.611   2.749   5.055
  140DPPC   C37 6987  -0.756   2.700   5.062
  140DPPC   C38 6988  -0.836   2.781   4.961
  140DPPC   C39 6989  -0.987   2.763   4.985
  140DPPC   C40 6990  -1.045   2.880   4.905
  140DPPC   C41 6991  -1.013   2.867   4.756
  140DPPC   C42 6992  -1.056   2.989   4.673
  140DPPC   C43 6993  -1.033   2.967   4.524
  140DPPC   C44 6994  -1.097   3.075   4.437
  140DPPC   C45 6995  -1.072   3.034   4.292
  140DPPC   C46 6996  -1.136   2.897   4.265
  140DPPC   C47 6997  -1.079   2.850   4.132
  140DPPC   C48 6998  -1.178   2.867   4.016
  140DPPC   C49 6999  -1.156   2.760   3.909
  140DPPC   C50 7000  -1.022   2.798   3.844
  141DPPC    C1 7001   5.802   1.821   6.373
  141DPPC    C2 7002   5.648   1.688   6.263
  141DPPC    C3 7003   5.569   1.891   6.330
  141DPPC    N4 7004   5.690   1.828   6.278
  141DPPC    C5 7005   5.719   1.880   6.143
  141DPPC    C6 7006   5.763   2.027   6.139
  141DPPC    O7 7007   5.650   2.115   6.141
  141DPPC    P8 7008   5.695   2.253   6.072
  141DPPC    O9 7009   5.823   2.284   6.139
  141DPPC   O10 7010   5.574   2.339   6.075
  141DPPC   O11 7011   5.713   2.209   5.918
  141DPPC   C12 7012   5.596   2.171   5.846
  141DPPC   C13 7013   5.620   2.162   5.695
  141DPPC   O14 7014   5.702   2.060   5.635
  141DPPC   C15 7015   5.626   1.962   5.580
  141DPPC   O16 7016   5.505   1.949   5.591
  141DPPC   C17 7017   5.711   1.848   5.523
  141DPPC   C18 7018   5.719   1.862   5.371
  141DPPC   C19 7019   5.790   1.744   5.305
  141DPPC   C20 7020   5.724   1.715   5.170
  141DPPC   C21 7021   5.573   1.698   5.193
  141DPPC   C22 7022   5.494   1.644   5.073
  141DPPC   C23 7023   5.503   1.739   4.954
  141DPPC   C24 7024   5.452   1.675   4.825
  141DPPC   C25 7025   5.510   1.536   4.800
  141DPPC   C26 7026   5.469   1.481   4.663
  141DPPC   C27 7027   5.562   1.541   4.557
  141DPPC   C28 7028   5.528   1.487   4.418
  141DPPC   C29 7029   5.387   1.536   4.384
  141DPPC   C30 7030   5.379   1.671   4.313
  141DPPC   C31 7031   5.237   1.727   4.301
  141DPPC   C32 7032   5.677   2.299   5.658
  141DPPC   O33 7033   5.582   2.406   5.663
  141DPPC   C34 7034   5.630   2.532   5.648
  141DPPC   O35 7035   5.751   2.543   5.666
  141DPPC   C36 7036   5.534   2.650   5.628
  141DPPC   C37 7037   5.500   2.682   5.482
  141DPPC   C38 7038   5.441   2.565   5.405
  141DPPC   C39 7039   5.398   2.619   5.268
  141DPPC   C40 7040   5.517   2.652   5.178
  141DPPC   C41 7041   5.471   2.699   5.041
  141DPPC   C42 7042   5.583   2.689   4.937
  141DPPC   C43 7043   5.538   2.726   4.796
  141DPPC   C44 7044   5.418   2.638   4.763
  141DPPC   C45 7045   5.364   2.679   4.626
  141DPPC   C46 7046   5.306   2.820   4.627
  141DPPC   C47 7047   5.268   2.866   4.486
  141DPPC   C48 7048   5.377   2.879   4.380
  141DPPC   C49 7049   5.315   2.918   4.245
  141DPPC   C50 7050   5.210   2.821   4.191
  142DPPC    C1 7051   1.515   6.081   5.074
  142DPPC    C2 7052   1.523   6.312   5.102
  142DPPC    C3 7053   1.570   6.223   4.892
  142DPPC    N4 7054   1.481   6.208   5.007
  142DPPC    C5 7055   1.342   6.195   4.962
  142DPPC    C6 7056   1.259   6.322   4.942
  142DPPC    O7 7057   1.296   6.404   4.831
  142DPPC    P8 7058   1.245   6.556   4.852
  142DPPC    O9 7059   1.333   6.641   4.769
  142DPPC   O10 7060   1.224   6.579   4.997
  142DPPC   O11 7061   1.103   6.546   4.776
  142DPPC   C12 7062   1.120   6.507   4.639
  142DPPC   C13 7063   0.993   6.533   4.557
  142DPPC   O14 7064   0.988   6.448   4.442
  142DPPC   C15 7065   0.871   6.438   4.374
  142DPPC   O16 7066   0.760   6.467   4.418
  142DPPC   C17 7067   0.885   6.360   4.243
  142DPPC   C18 7068   0.779   6.392   4.136
  142DPPC   C19 7069   0.824   6.305   4.018
  142DPPC   C20 7070   0.726   6.281   3.904
  142DPPC   C21 7071   0.597   6.224   3.965
  142DPPC   C22 7072   0.615   6.077   4.002
  142DPPC   C23 7073   0.485   6.036   4.071
  142DPPC   C24 7074   0.489   5.900   4.141
  142DPPC   C25 7075   0.356   5.825   4.149
  142DPPC   C26 7076   0.259   5.923   4.216
  142DPPC   C27 7077   0.122   5.857   4.237
  142DPPC   C28 7078   0.016   5.944   4.303
  142DPPC   C29 7079  -0.117   5.869   4.320
  142DPPC   C30 7080  -0.122   5.734   4.391
  142DPPC   C31 7081  -0.249   5.652   4.369
  142DPPC   C32 7082   0.987   6.682   4.524
  142DPPC   O33 7083   1.097   6.747   4.459
  142DPPC   C34 7084   1.060   6.874   4.427
  142DPPC   O35 7085   0.974   6.938   4.486
  142DPPC   C36 7086   1.171   6.939   4.343
  142DPPC   C37 7087   1.149   7.089   4.329
  142DPPC   C38 7088   1.039   7.125   4.228
  142DPPC   C39 7089   1.034   7.269   4.178
  142DPPC   C40 7090   0.920   7.299   4.080
  142DPPC   C41 7091   0.924   7.206   3.959
  142DPPC   C42 7092   0.854   7.268   3.838
  142DPPC   C43 7093   0.710   7.283   3.888
  142DPPC   C44 7094   0.624   7.369   3.794
  142DPPC   C45 7095   0.690   7.507   3.796
  142DPPC   C46 7096   0.625   7.590   3.685
  142DPPC   C47 7097   0.685   7.730   3.678
  142DPPC   C48 7098   0.634   7.821   3.566
  142DPPC   C49 7099   0.697   7.772   3.436
  142DPPC   C50 7100   0.845   7.808   3.424
  143DPPC    C1 7101   0.265   0.075   5.362
  143DPPC    C2 7102   0.085   0.219   5.446
  143DPPC    C3 7103   0.303   0.236   5.534
  143DPPC    N4 7104   0.227   0.208   5.412
  143DPPC    C5 7105   0.258   0.305   5.306
  143DPPC    C6 7106   0.219   0.453   5.311
  143DPPC    O7 7107   0.331   0.527   5.360
  143DPPC    P8 7108   0.283   0.679   5.384
  143DPPC    O9 7109   0.406   0.754   5.416
  143DPPC   O10 7110   0.173   0.664   5.482
  143DPPC   O11 7111   0.253   0.705   5.228
  143DPPC   C12 7112   0.347   0.796   5.169
  143DPPC   C13 7113   0.330   0.843   5.025
  143DPPC   O14 7114   0.241   0.955   5.017
  143DPPC   C15 7115   0.295   1.079   5.023
  143DPPC   O16 7116   0.401   1.095   5.082
  143DPPC   C17 7117   0.220   1.195   4.955
  143DPPC   C18 7118   0.116   1.144   4.855
  143DPPC   C19 7119  -0.022   1.176   4.913
  143DPPC   C20 7120  -0.138   1.141   4.820
  143DPPC   C21 7121  -0.186   1.266   4.746
  143DPPC   C22 7122  -0.316   1.239   4.670
  143DPPC   C23 7123  -0.284   1.118   4.583
  143DPPC   C24 7124  -0.416   1.078   4.516
  143DPPC   C25 7125  -0.462   1.183   4.415
  143DPPC   C26 7126  -0.599   1.159   4.353
  143DPPC   C27 7127  -0.628   1.273   4.255
  143DPPC   C28 7128  -0.541   1.290   4.130
  143DPPC   C29 7129  -0.570   1.166   4.045
  143DPPC   C30 7130  -0.482   1.173   3.920
  143DPPC   C31 7131  -0.536   1.298   3.850
  143DPPC   C32 7132   0.309   0.718   4.939
  143DPPC   O33 7133   0.259   0.740   4.806
  143DPPC   C34 7134   0.225   0.627   4.740
  143DPPC   O35 7135   0.174   0.538   4.808
  143DPPC   C36 7136   0.181   0.648   4.595
  143DPPC   C37 7137   0.113   0.522   4.541
  143DPPC   C38 7138   0.043   0.534   4.405
  143DPPC   C39 7139  -0.073   0.633   4.422
  143DPPC   C40 7140  -0.154   0.655   4.294
  143DPPC   C41 7141  -0.062   0.720   4.190
  143DPPC   C42 7142  -0.089   0.644   4.060
  143DPPC   C43 7143  -0.008   0.698   3.942
  143DPPC   C44 7144  -0.020   0.847   3.913
  143DPPC   C45 7145   0.071   0.867   3.791
  143DPPC   C46 7146   0.106   1.011   3.754
  143DPPC   C47 7147   0.195   1.004   3.630
  143DPPC   C48 7148   0.241   1.138   3.573
  143DPPC   C49 7149   0.142   1.248   3.535
  143DPPC   C50 7150   0.211   1.370   3.472
  144DPPC    C1 7151   8.663   0.302   5.814
  144DPPC    C2 7152   8.866   0.418   5.865
  144DPPC    C3 7153   8.861   0.187   5.803
  144DPPC    N4 7154   8.803   0.319   5.775
  144DPPC    C5 7155   8.815   0.354   5.633
  144DPPC    C6 7156   8.819   0.503   5.596
  144DPPC    O7 7157   8.708   0.587   5.627
  144DPPC    P8 7158   8.753   0.738   5.594
  144DPPC    O9 7159   8.887   0.735   5.656
  144DPPC   O10 7160   8.642   0.813   5.657
  144DPPC   O11 7161   8.747   0.733   5.433
  144DPPC   C12 7162   8.612   0.750   5.391
  144DPPC   C13 7163   8.596   0.708   5.245
  144DPPC   O14 7164   8.463   0.728   5.193
  144DPPC   C15 7165   8.443   0.851   5.138
  144DPPC   O16 7166   8.489   0.958   5.177
  144DPPC   C17 7167   8.319   0.866   5.049
  144DPPC   C18 7168   8.340   0.912   4.904
  144DPPC   C19 7169   8.436   0.814   4.837
  144DPPC   C20 7170   8.471   0.853   4.693
  144DPPC   C21 7171   8.343   0.835   4.612
  144DPPC   C22 7172   8.380   0.844   4.463
  144DPPC   C23 7173   8.472   0.965   4.446
  144DPPC   C24 7174   8.496   1.008   4.301
  144DPPC   C25 7175   8.378   1.053   4.215
  144DPPC   C26 7176   8.433   1.115   4.087
  144DPPC   C27 7177   8.505   1.018   3.992
  144DPPC   C28 7178   8.576   1.108   3.891
  144DPPC   C29 7179   8.633   1.035   3.769
  144DPPC   C30 7180   8.513   0.960   3.709
  144DPPC   C31 7181   8.558   0.908   3.572
  144DPPC   C32 7182   8.659   0.569   5.234
  144DPPC   O33 7183   8.654   0.514   5.102
  144DPPC   C34 7184   8.768   0.548   5.037
  144DPPC   O35 7185   8.863   0.592   5.102
  144DPPC   C36 7186   8.791   0.486   4.899
  144DPPC   C37 7187   8.662   0.470   4.819
  144DPPC   C38 7188   8.677   0.348   4.729
  144DPPC   C39 7189   8.555   0.355   4.637
  144DPPC   C40 7190   8.556   0.232   4.546
  144DPPC   C41 7191   8.475   0.246   4.416
  144DPPC   C42 7192   8.484   0.115   4.337
  144DPPC   C43 7193   8.367   0.115   4.238
  144DPPC   C44 7194   8.399   0.022   4.121
  144DPPC   C45 7195   8.263  -0.007   4.056
  144DPPC   C46 7196   8.200   0.123   4.003
  144DPPC   C47 7197   8.063   0.118   3.935
  144DPPC   C48 7198   8.041   0.242   3.847
  144DPPC   C49 7199   8.073   0.369   3.926
  144DPPC   C50 7200   8.047   0.498   3.848
  145DPPC    C1 7201   7.995   5.639   5.703
  145DPPC    C2 7202   8.244   5.655   5.734
  145DPPC    C3 7203   8.162   5.456   5.669
  145DPPC    N4 7204   8.130   5.599   5.660
  145DPPC    C5 7205   8.134   5.627   5.516
  145DPPC    C6 7206   8.156   5.775   5.479
  145DPPC    O7 7207   8.172   5.794   5.339
  145DPPC    P8 7208   8.176   5.952   5.307
  145DPPC    O9 7209   8.239   5.957   5.174
  145DPPC   O10 7210   8.239   6.016   5.425
  145DPPC   O11 7211   8.017   5.936   5.295
  145DPPC   C12 7212   7.991   5.904   5.158
  145DPPC   C13 7213   7.848   5.858   5.126
  145DPPC   O14 7214   7.848   5.793   4.998
  145DPPC   C15 7215   7.751   5.702   4.969
  145DPPC   O16 7216   7.671   5.674   5.058
  145DPPC   C17 7217   7.725   5.675   4.821
  145DPPC   C18 7218   7.616   5.778   4.789
  145DPPC   C19 7219   7.575   5.746   4.645
  145DPPC   C20 7220   7.436   5.684   4.653
  145DPPC   C21 7221   7.398   5.625   4.517
  145DPPC   C22 7222   7.368   5.748   4.431
  145DPPC   C23 7223   7.257   5.839   4.484
  145DPPC   C24 7224   7.267   5.977   4.419
  145DPPC   C25 7225   7.134   6.051   4.404
  145DPPC   C26 7226   7.175   6.190   4.355
  145DPPC   C27 7227   7.222   6.199   4.210
  145DPPC   C28 7228   7.106   6.171   4.114
  145DPPC   C29 7229   7.155   6.145   3.971
  145DPPC   C30 7230   7.237   6.016   3.969
  145DPPC   C31 7231   7.284   5.990   3.826
  145DPPC   C32 7232   7.746   5.967   5.157
  145DPPC   O33 7233   7.752   6.081   5.071
  145DPPC   C34 7234   7.642   6.159   5.088
  145DPPC   O35 7235   7.568   6.148   5.186
  145DPPC   C36 7236   7.598   6.231   4.961
  145DPPC   C37 7237   7.503   6.146   4.875
  145DPPC   C38 7238   7.447   6.223   4.755
  145DPPC   C39 7239   7.542   6.264   4.643
  145DPPC   C40 7240   7.471   6.343   4.532
  145DPPC   C41 7241   7.555   6.398   4.416
  145DPPC   C42 7242   7.605   6.270   4.348
  145DPPC   C43 7243   7.664   6.294   4.209
  145DPPC   C44 7244   7.554   6.354   4.122
  145DPPC   C45 7245   7.605   6.377   3.980
  145DPPC   C46 7246   7.490   6.448   3.908
  145DPPC   C47 7247   7.546   6.484   3.770
  145DPPC   C48 7248   7.575   6.358   3.687
  145DPPC   C49 7249   7.632   6.376   3.546
  145DPPC   C50 7250   7.768   6.443   3.564
  146DPPC    C1 7251   6.862   4.182   5.980
  146DPPC    C2 7252   7.063   4.196   6.112
  146DPPC    C3 7253   6.873   4.137   6.218
  146DPPC    N4 7254   6.940   4.120   6.088
  146DPPC    C5 7255   6.983   3.981   6.065
  146DPPC    C6 7256   6.875   3.887   6.010
  146DPPC    O7 7257   6.918   3.752   5.988
  146DPPC    P8 7258   6.795   3.656   5.951
  146DPPC    O9 7259   6.670   3.703   6.016
  146DPPC   O10 7260   6.840   3.515   5.953
  146DPPC   O11 7261   6.777   3.694   5.795
  146DPPC   C12 7262   6.863   3.613   5.715
  146DPPC   C13 7263   6.885   3.642   5.566
  146DPPC   O14 7264   6.989   3.735   5.533
  146DPPC   C15 7265   7.121   3.707   5.554
  146DPPC   O16 7266   7.158   3.637   5.649
  146DPPC   C17 7267   7.212   3.814   5.495
  146DPPC   C18 7268   7.146   3.899   5.387
  146DPPC   C19 7269   7.170   3.833   5.251
  146DPPC   C20 7270   7.323   3.832   5.243
  146DPPC   C21 7271   7.361   3.783   5.104
  146DPPC   C22 7272   7.302   3.887   5.008
  146DPPC   C23 7273   7.357   3.860   4.868
  146DPPC   C24 7274   7.509   3.880   4.855
  146DPPC   C25 7275   7.537   3.881   4.705
  146DPPC   C26 7276   7.529   3.738   4.652
  146DPPC   C27 7277   7.569   3.753   4.505
  146DPPC   C28 7278   7.501   3.878   4.449
  146DPPC   C29 7279   7.549   3.917   4.309
  146DPPC   C30 7280   7.481   4.049   4.271
  146DPPC   C31 7281   7.465   4.053   4.119
  146DPPC   C32 7282   6.758   3.695   5.498
  146DPPC   O33 7283   6.662   3.596   5.459
  146DPPC   C34 7284   6.559   3.647   5.387
  146DPPC   O35 7285   6.561   3.757   5.334
  146DPPC   C36 7286   6.437   3.554   5.387
  146DPPC   C37 7287   6.370   3.553   5.249
  146DPPC   C38 7288   6.280   3.436   5.211
  146DPPC   C39 7289   6.188   3.493   5.102
  146DPPC   C40 7290   6.256   3.524   4.968
  146DPPC   C41 7291   6.164   3.587   4.863
  146DPPC   C42 7292   6.232   3.606   4.727
  146DPPC   C43 7293   6.134   3.683   4.638
  146DPPC   C44 7294   6.165   3.643   4.493
  146DPPC   C45 7295   6.052   3.701   4.408
  146DPPC   C46 7296   6.065   3.633   4.272
  146DPPC   C47 7297   5.962   3.701   4.180
  146DPPC   C48 7298   5.953   3.648   4.037
  146DPPC   C49 7299   5.835   3.708   3.961
  146DPPC   C50 7300   5.703   3.667   4.027
  147DPPC    C1 7301   8.218   3.129   6.296
  147DPPC    C2 7302   8.072   2.940   6.300
  147DPPC    C3 7303   7.982   3.162   6.333
  147DPPC    N4 7304   8.083   3.082   6.263
  147DPPC    C5 7305   8.061   3.078   6.117
  147DPPC    C6 7306   8.070   3.210   6.041
  147DPPC    O7 7307   7.972   3.313   6.056
  147DPPC    P8 7308   8.049   3.453   6.037
  147DPPC    O9 7309   8.168   3.426   6.121
  147DPPC   O10 7310   7.962   3.571   6.053
  147DPPC   O11 7311   8.083   3.425   5.882
  147DPPC   C12 7312   7.961   3.469   5.821
  147DPPC   C13 7313   8.004   3.459   5.674
  147DPPC   O14 7314   7.911   3.526   5.588
  147DPPC   C15 7315   7.956   3.647   5.544
  147DPPC   O16 7316   8.052   3.697   5.602
  147DPPC   C17 7317   7.858   3.712   5.446
  147DPPC   C18 7318   7.884   3.670   5.301
  147DPPC   C19 7319   7.748   3.682   5.232
  147DPPC   C20 7320   7.769   3.645   5.085
  147DPPC   C21 7321   7.867   3.748   5.026
  147DPPC   C22 7322   7.888   3.715   4.878
  147DPPC   C23 7323   7.970   3.825   4.811
  147DPPC   C24 7324   7.973   3.779   4.665
  147DPPC   C25 7325   7.999   3.902   4.578
  147DPPC   C26 7326   8.011   3.868   4.430
  147DPPC   C27 7327   8.011   3.995   4.345
  147DPPC   C28 7328   7.890   4.083   4.377
  147DPPC   C29 7329   7.898   4.218   4.306
  147DPPC   C30 7330   7.760   4.286   4.314
  147DPPC   C31 7331   7.758   4.407   4.222
  147DPPC   C32 7332   8.036   3.311   5.652
  147DPPC   O33 7333   7.930   3.226   5.696
  147DPPC   C34 7334   7.953   3.093   5.708
  147DPPC   O35 7335   8.057   3.034   5.738
  147DPPC   C36 7336   7.826   3.010   5.736
  147DPPC   C37 7337   7.832   2.870   5.675
  147DPPC   C38 7338   7.833   2.866   5.523
  147DPPC   C39 7339   7.808   2.724   5.472
  147DPPC   C40 7340   7.816   2.731   5.320
  147DPPC   C41 7341   7.713   2.818   5.247
  147DPPC   C42 7342   7.740   2.805   5.096
  147DPPC   C43 7343   7.626   2.884   5.032
  147DPPC   C44 7344   7.636   2.864   4.881
  147DPPC   C45 7345   7.519   2.941   4.820
  147DPPC   C46 7346   7.513   2.941   4.667
  147DPPC   C47 7347   7.382   3.012   4.633
  147DPPC   C48 7348   7.333   3.017   4.488
  147DPPC   C49 7349   7.184   3.045   4.466
  147DPPC   C50 7350   7.143   3.048   4.319
  148DPPC    C1 7351   2.598   6.556   5.582
  148DPPC    C2 7352   2.822   6.580   5.646
  148DPPC    C3 7353   2.754   6.608   5.415
  148DPPC    N4 7354   2.719   6.635   5.556
  148DPPC    C5 7355   2.711   6.778   5.586
  148DPPC    C6 7356   2.793   6.884   5.511
  148DPPC    O7 7357   2.933   6.858   5.503
  148DPPC    P8 7358   3.020   6.992   5.527
  148DPPC    O9 7359   3.161   6.951   5.515
  148DPPC   O10 7360   2.982   7.058   5.654
  148DPPC   O11 7361   2.959   7.068   5.399
  148DPPC   C12 7362   3.018   7.042   5.272
  148DPPC   C13 7363   2.926   7.086   5.158
  148DPPC   O14 7364   2.960   7.018   5.037
  148DPPC   C15 7365   2.938   6.886   5.012
  148DPPC   O16 7366   2.871   6.821   5.093
  148DPPC   C17 7367   2.995   6.822   4.886
  148DPPC   C18 7368   2.900   6.733   4.805
  148DPPC   C19 7369   2.963   6.658   4.687
  148DPPC   C20 7370   3.051   6.767   4.625
  148DPPC   C21 7371   3.147   6.687   4.536
  148DPPC   C22 7372   3.205   6.778   4.428
  148DPPC   C23 7373   3.110   6.861   4.342
  148DPPC   C24 7374   3.189   6.933   4.233
  148DPPC   C25 7375   3.248   6.840   4.127
  148DPPC   C26 7376   3.292   6.919   4.004
  148DPPC   C27 7377   3.404   6.837   3.939
  148DPPC   C28 7378   3.474   6.913   3.826
  148DPPC   C29 7379   3.563   6.819   3.745
  148DPPC   C30 7380   3.616   6.890   3.620
  148DPPC   C31 7381   3.740   6.806   3.585
  148DPPC   C32 7382   2.942   7.238   5.161
  148DPPC   O33 7383   3.074   7.290   5.181
  148DPPC   C34 7384   3.074   7.426   5.195
  148DPPC   O35 7385   2.966   7.484   5.193
  148DPPC   C36 7386   3.202   7.509   5.184
  148DPPC   C37 7387   3.242   7.569   5.049
  148DPPC   C38 7388   3.366   7.657   5.062
  148DPPC   C39 7389   3.439   7.679   4.929
  148DPPC   C40 7390   3.488   7.542   4.881
  148DPPC   C41 7391   3.547   7.559   4.741
  148DPPC   C42 7392   3.655   7.667   4.733
  148DPPC   C43 7393   3.703   7.680   4.589
  148DPPC   C44 7394   3.818   7.589   4.545
  148DPPC   C45 7395   3.864   7.619   4.402
  148DPPC   C46 7396   3.926   7.494   4.339
  148DPPC   C47 7397   3.952   7.531   4.192
  148DPPC   C48 7398   4.033   7.427   4.114
  148DPPC   C49 7399   4.045   7.467   3.967
  148DPPC   C50 7400   4.138   7.370   3.893
  149DPPC    C1 7401   5.161   0.562   5.410
  149DPPC    C2 7402   5.223   0.617   5.185
  149DPPC    C3 7403   5.060   0.735   5.311
  149DPPC    N4 7404   5.193   0.672   5.318
  149DPPC    C5 7405   5.288   0.772   5.367
  149DPPC    C6 7406   5.376   0.751   5.490
  149DPPC    O7 7407   5.470   0.853   5.528
  149DPPC    P8 7408   5.585   0.798   5.626
  149DPPC    O9 7409   5.544   0.666   5.678
  149DPPC   O10 7410   5.655   0.901   5.707
  149DPPC   O11 7411   5.675   0.736   5.508
  149DPPC   C12 7412   5.766   0.835   5.457
  149DPPC   C13 7413   5.791   0.820   5.307
  149DPPC   O14 7414   5.909   0.891   5.265
  149DPPC   C15 7415   6.018   0.840   5.203
  149DPPC   O16 7416   6.046   0.721   5.216
  149DPPC   C17 7417   6.116   0.946   5.153
  149DPPC   C18 7418   6.100   0.954   5.001
  149DPPC   C19 7419   6.211   1.033   4.932
  149DPPC   C20 7420   6.206   1.014   4.780
  149DPPC   C21 7421   6.291   1.108   4.695
  149DPPC   C22 7422   6.302   1.040   4.558
  149DPPC   C23 7423   6.381   1.137   4.471
  149DPPC   C24 7424   6.411   1.085   4.330
  149DPPC   C25 7425   6.515   1.189   4.287
  149DPPC   C26 7426   6.503   1.251   4.148
  149DPPC   C27 7427   6.624   1.344   4.140
  149DPPC   C28 7428   6.620   1.414   4.004
  149DPPC   C29 7429   6.719   1.532   4.002
  149DPPC   C30 7430   6.702   1.620   3.879
  149DPPC   C31 7431   6.573   1.703   3.874
  149DPPC   C32 7432   5.656   0.844   5.239
  149DPPC   O33 7433   5.655   0.833   5.097
  149DPPC   C34 7434   5.535   0.879   5.053
  149DPPC   O35 7435   5.431   0.882   5.118
  149DPPC   C36 7436   5.522   0.887   4.900
  149DPPC   C37 7437   5.535   1.030   4.848
  149DPPC   C38 7438   5.534   1.047   4.696
  149DPPC   C39 7439   5.654   1.009   4.608
  149DPPC   C40 7440   5.652   1.054   4.462
  149DPPC   C41 7441   5.771   1.000   4.383
  149DPPC   C42 7442   5.883   1.097   4.345
  149DPPC   C43 7443   5.807   1.211   4.278
  149DPPC   C44 7444   5.880   1.259   4.153
  149DPPC   C45 7445   5.804   1.379   4.096
  149DPPC   C46 7446   5.849   1.436   3.962
  149DPPC   C47 7447   5.766   1.556   3.915
  149DPPC   C48 7448   5.616   1.533   3.895
  149DPPC   C49 7449   5.542   1.666   3.879
  149DPPC   C50 7450   5.389   1.661   3.873
  150DPPC    C1 7451   4.648   0.967   6.017
  150DPPC    C2 7452   4.781   0.793   5.945
  150DPPC    C3 7453   4.690   0.953   5.786
  150DPPC    N4 7454   4.751   0.935   5.918
  150DPPC    C5 7455   4.860   1.032   5.934
  150DPPC    C6 7456   4.988   1.017   5.851
  150DPPC    O7 7457   4.980   1.048   5.712
  150DPPC    P8 7458   5.113   1.022   5.624
  150DPPC    O9 7459   5.140   0.883   5.668
  150DPPC   O10 7460   5.214   1.127   5.649
  150DPPC   O11 7461   5.047   1.019   5.478
  150DPPC   C12 7462   5.002   1.153   5.459
  150DPPC   C13 7463   4.873   1.186   5.383
  150DPPC   O14 7464   4.747   1.149   5.442
  150DPPC   C15 7465   4.662   1.251   5.469
  150DPPC   O16 7466   4.690   1.367   5.440
  150DPPC   C17 7467   4.520   1.216   5.514
  150DPPC   C18 7468   4.420   1.312   5.451
  150DPPC   C19 7469   4.340   1.228   5.351
  150DPPC   C20 7470   4.232   1.315   5.287
  150DPPC   C21 7471   4.136   1.244   5.192
  150DPPC   C22 7472   4.042   1.348   5.131
  150DPPC   C23 7473   3.910   1.271   5.114
  150DPPC   C24 7474   3.800   1.351   5.044
  150DPPC   C25 7475   3.687   1.260   4.995
  150DPPC   C26 7476   3.589   1.344   4.913
  150DPPC   C27 7477   3.471   1.250   4.884
  150DPPC   C28 7478   3.354   1.346   4.864
  150DPPC   C29 7479   3.233   1.281   4.797
  150DPPC   C30 7480   3.280   1.245   4.656
  150DPPC   C31 7481   3.167   1.163   4.592
  150DPPC   C32 7482   4.889   1.125   5.243
  150DPPC   O33 7483   5.007   1.162   5.171
  150DPPC   C34 7484   5.058   1.083   5.073
  150DPPC   O35 7485   5.020   0.966   5.069
  150DPPC   C36 7486   5.158   1.146   4.976
  150DPPC   C37 7487   5.090   1.181   4.843
  150DPPC   C38 7488   5.176   1.268   4.751
  150DPPC   C39 7489   5.107   1.300   4.618
  150DPPC   C40 7490   5.092   1.179   4.526
  150DPPC   C41 7491   5.011   1.228   4.406
  150DPPC   C42 7492   4.968   1.119   4.308
  150DPPC   C43 7493   4.836   1.151   4.236
  150DPPC   C44 7494   4.723   1.180   4.335
  150DPPC   C45 7495   4.589   1.188   4.262
  150DPPC   C46 7496   4.492   1.268   4.350
  150DPPC   C47 7497   4.351   1.237   4.301
  150DPPC   C48 7498   4.354   1.270   4.152
  150DPPC   C49 7499   4.212   1.274   4.095
  150DPPC   C50 7500   4.212   1.320   3.949
  151DPPC    C1 7501   0.944   0.973   5.295
  151DPPC    C2 7502   1.072   0.814   5.179
  151DPPC    C3 7503   0.964   0.756   5.386
  151DPPC    N4 7504   0.951   0.831   5.260
  151DPPC    C5 7505   0.840   0.800   5.168
  151DPPC    C6 7506   0.753   0.680   5.207
  151DPPC    O7 7507   0.660   0.638   5.107
  151DPPC    P8 7508   0.630   0.481   5.122
  151DPPC    O9 7509   0.494   0.435   5.085
  151DPPC   O10 7510   0.702   0.433   5.242
  151DPPC   O11 7511   0.712   0.458   4.985
  151DPPC   C12 7512   0.618   0.474   4.878
  151DPPC   C13 7513   0.671   0.502   4.737
  151DPPC   O14 7514   0.709   0.388   4.658
  151DPPC   C15 7515   0.825   0.321   4.678
  151DPPC   O16 7516   0.902   0.345   4.772
  151DPPC   C17 7517   0.846   0.206   4.580
  151DPPC   C18 7518   0.883   0.250   4.438
  151DPPC   C19 7519   0.910   0.128   4.348
  151DPPC   C20 7520   0.992   0.165   4.225
  151DPPC   C21 7521   0.915   0.255   4.128
  151DPPC   C22 7522   0.806   0.181   4.051
  151DPPC   C23 7523   0.866   0.084   3.949
  151DPPC   C24 7524   0.760   0.004   3.873
  151DPPC   C25 7525   0.667   0.096   3.794
  151DPPC   C26 7526   0.569   0.028   3.698
  151DPPC   C27 7527   0.506   0.129   3.602
  151DPPC   C28 7528   0.429   0.236   3.680
  151DPPC   C29 7529   0.338   0.335   3.607
  151DPPC   C30 7530   0.298   0.456   3.691
  151DPPC   C31 7531   0.226   0.570   3.618
  151DPPC   C32 7532   0.772   0.617   4.748
  151DPPC   O33 7533   0.703   0.731   4.802
  151DPPC   C34 7534   0.773   0.845   4.825
  151DPPC   O35 7535   0.895   0.839   4.814
  151DPPC   C36 7536   0.697   0.977   4.836
  151DPPC   C37 7537   0.626   1.002   4.703
  151DPPC   C38 7538   0.477   1.035   4.702
  151DPPC   C39 7539   0.416   1.015   4.563
  151DPPC   C40 7540   0.265   1.030   4.549
  151DPPC   C41 7541   0.226   1.017   4.401
  151DPPC   C42 7542   0.079   1.058   4.392
  151DPPC   C43 7543   0.028   1.066   4.248
  151DPPC   C44 7544   0.124   1.169   4.188
  151DPPC   C45 7545   0.098   1.320   4.200
  151DPPC   C46 7546   0.180   1.406   4.104
  151DPPC   C47 7547   0.130   1.398   3.960
  151DPPC   C48 7548  -0.002   1.474   3.941
  151DPPC   C49 7549  -0.040   1.489   3.793
  151DPPC   C50 7550  -0.186   1.531   3.776
  152DPPC    C1 7551   4.819   1.881   6.166
  152DPPC    C2 7552   5.031   1.894   6.044
  152DPPC    C3 7553   4.965   1.690   6.124
  152DPPC    N4 7554   4.910   1.815   6.071
  152DPPC    C5 7555   4.843   1.795   5.941
  152DPPC    C6 7556   4.733   1.694   5.910
  152DPPC    O7 7557   4.602   1.731   5.865
  152DPPC    P8 7558   4.498   1.608   5.855
  152DPPC    O9 7559   4.400   1.605   5.965
  152DPPC   O10 7560   4.569   1.489   5.803
  152DPPC   O11 7561   4.413   1.693   5.748
  152DPPC   C12 7562   4.487   1.704   5.626
  152DPPC   C13 7563   4.410   1.782   5.520
  152DPPC   O14 7564   4.415   1.719   5.391
  152DPPC   C15 7565   4.288   1.712   5.342
  152DPPC   O16 7566   4.194   1.689   5.417
  152DPPC   C17 7567   4.279   1.688   5.191
  152DPPC   C18 7568   4.314   1.816   5.115
  152DPPC   C19 7569   4.462   1.853   5.094
  152DPPC   C20 7570   4.462   1.984   5.016
  152DPPC   C21 7571   4.601   2.048   5.009
  152DPPC   C22 7572   4.642   2.080   4.865
  152DPPC   C23 7573   4.776   2.153   4.872
  152DPPC   C24 7574   4.823   2.181   4.729
  152DPPC   C25 7575   4.745   2.305   4.686
  152DPPC   C26 7576   4.775   2.330   4.538
  152DPPC   C27 7577   4.747   2.206   4.452
  152DPPC   C28 7578   4.867   2.172   4.363
  152DPPC   C29 7579   4.847   2.047   4.277
  152DPPC   C30 7580   4.936   2.035   4.153
  152DPPC   C31 7581   4.855   2.119   4.054
  152DPPC   C32 7582   4.431   1.934   5.525
  152DPPC   O33 7583   4.571   1.960   5.513
  152DPPC   C34 7584   4.613   2.084   5.475
  152DPPC   O35 7585   4.537   2.177   5.452
  152DPPC   C36 7586   4.756   2.089   5.421
  152DPPC   C37 7587   4.781   1.964   5.337
  152DPPC   C38 7588   4.919   1.966   5.269
  152DPPC   C39 7589   4.924   1.844   5.176
  152DPPC   C40 7590   5.049   1.873   5.094
  152DPPC   C41 7591   5.074   1.768   4.985
  152DPPC   C42 7592   4.961   1.785   4.882
  152DPPC   C43 7593   4.985   1.705   4.754
  152DPPC   C44 7594   4.894   1.750   4.640
  152DPPC   C45 7595   4.906   1.655   4.522
  152DPPC   C46 7596   4.835   1.710   4.397
  152DPPC   C47 7597   4.855   1.622   4.274
  152DPPC   C48 7598   4.750   1.655   4.168
  152DPPC   C49 7599   4.766   1.560   4.050
  152DPPC   C50 7600   4.647   1.562   3.955
  153DPPC    C1 7601   1.985   1.358   5.719
  153DPPC    C2 7602   2.146   1.226   5.829
  153DPPC    C3 7603   1.914   1.168   5.816
  153DPPC    N4 7604   2.029   1.219   5.740
  153DPPC    C5 7605   2.033   1.152   5.609
  153DPPC    C6 7606   2.073   1.004   5.613
  153DPPC    O7 7607   2.210   0.983   5.648
  153DPPC    P8 7608   2.217   0.835   5.712
  153DPPC    O9 7609   2.079   0.800   5.753
  153DPPC   O10 7610   2.337   0.827   5.797
  153DPPC   O11 7611   2.249   0.762   5.572
  153DPPC   C12 7612   2.376   0.802   5.520
  153DPPC   C13 7613   2.445   0.702   5.426
  153DPPC   O14 7614   2.565   0.750   5.365
  153DPPC   C15 7615   2.651   0.663   5.305
  153DPPC   O16 7616   2.648   0.544   5.335
  153DPPC   C17 7617   2.744   0.710   5.192
  153DPPC   C18 7618   2.694   0.657   5.058
  153DPPC   C19 7619   2.785   0.691   4.939
  153DPPC   C20 7620   2.723   0.637   4.810
  153DPPC   C21 7621   2.851   0.623   4.726
  153DPPC   C22 7622   2.836   0.537   4.600
  153DPPC   C23 7623   2.956   0.543   4.506
  153DPPC   C24 7624   2.917   0.461   4.383
  153DPPC   C25 7625   2.984   0.500   4.252
  153DPPC   C26 7626   2.942   0.430   4.122
  153DPPC   C27 7627   3.010   0.495   4.002
  153DPPC   C28 7628   2.972   0.433   3.867
  153DPPC   C29 7629   2.988   0.507   3.733
  153DPPC   C30 7630   2.904   0.440   3.624
  153DPPC   C31 7631   2.970   0.307   3.585
  153DPPC   C32 7632   2.335   0.670   5.325
  153DPPC   O33 7633   2.365   0.577   5.220
  153DPPC   C34 7634   2.262   0.523   5.149
  153DPPC   O35 7635   2.148   0.554   5.183
  153DPPC   C36 7636   2.287   0.454   5.015
  153DPPC   C37 7637   2.196   0.480   4.895
  153DPPC   C38 7638   2.254   0.418   4.768
  153DPPC   C39 7639   2.149   0.416   4.657
  153DPPC   C40 7640   2.160   0.532   4.558
  153DPPC   C41 7641   2.047   0.524   4.456
  153DPPC   C42 7642   2.050   0.644   4.362
  153DPPC   C43 7643   1.905   0.648   4.312
  153DPPC   C44 7644   1.802   0.680   4.420
  153DPPC   C45 7645   1.666   0.660   4.354
  153DPPC   C46 7646   1.563   0.737   4.437
  153DPPC   C47 7647   1.598   0.886   4.428
  153DPPC   C48 7648   1.510   0.981   4.509
  153DPPC   C49 7649   1.542   1.119   4.451
  153DPPC   C50 7650   1.447   1.217   4.520
  154DPPC    C1 7651   9.055   7.669   5.617
  154DPPC    C2 7652   9.143   7.882   5.583
  154DPPC    C3 7653   9.001   7.785   5.418
  154DPPC    N4 7654   9.022   7.802   5.563
  154DPPC    C5 7655   8.904   7.850   5.636
  154DPPC    C6 7656   8.848   7.992   5.624
  154DPPC    O7 7657   8.769   8.007   5.505
  154DPPC    P8 7658   8.745   8.162   5.470
  154DPPC    O9 7659   8.722   8.237   5.596
  154DPPC   O10 7660   8.656   8.185   5.353
  154DPPC   O11 7661   8.896   8.186   5.420
  154DPPC   C12 7662   8.901   8.239   5.287
  154DPPC   C13 7663   9.037   8.297   5.245
  154DPPC   O14 7664   9.032   8.376   5.125
  154DPPC   C15 7665   9.138   8.449   5.081
  154DPPC   O16 7666   9.240   8.474   5.146
  154DPPC   C17 7667   9.111   8.510   4.944
  154DPPC   C18 7668   9.199   8.627   4.900
  154DPPC   C19 7669   9.146   8.702   4.778
  154DPPC   C20 7670   9.248   8.800   4.720
  154DPPC   C21 7671   9.254   8.771   4.570
  154DPPC   C22 7672   9.111   8.808   4.528
  154DPPC   C23 7673   9.100   8.801   4.375
  154DPPC   C24 7674   8.959   8.816   4.317
  154DPPC   C25 7675   8.960   8.756   4.177
  154DPPC   C26 7676   8.823   8.788   4.116
  154DPPC   C27 7677   8.786   8.713   3.987
  154DPPC   C28 7678   8.875   8.760   3.872
  154DPPC   C29 7679   8.843   8.685   3.743
  154DPPC   C30 7680   8.860   8.537   3.777
  154DPPC   C31 7681   8.841   8.447   3.655
  154DPPC   C32 7682   9.114   8.167   5.221
  154DPPC   O33 7683   9.053   8.072   5.133
  154DPPC   C34 7684   9.116   7.962   5.085
  154DPPC   O35 7685   9.232   7.929   5.110
  154DPPC   C36 7686   9.035   7.877   4.986
  154DPPC   C37 7687   8.961   7.960   4.881
  154DPPC   C38 7688   8.892   7.873   4.776
  154DPPC   C39 7689   8.804   7.944   4.673
  154DPPC   C40 7690   8.733   7.844   4.582
  154DPPC   C41 7691   8.606   7.898   4.516
  154DPPC   C42 7692   8.553   7.833   4.388
  154DPPC   C43 7693   8.660   7.806   4.282
  154DPPC   C44 7694   8.616   7.733   4.155
  154DPPC   C45 7695   8.747   7.708   4.079
  154DPPC   C46 7696   8.748   7.568   4.018
  154DPPC   C47 7697   8.878   7.552   3.938
  154DPPC   C48 7698   8.881   7.645   3.816
  154DPPC   C49 7699   9.026   7.647   3.766
  154DPPC   C50 7700   9.054   7.731   3.641
  155DPPC    C1 7701   3.647   4.189   6.623
  155DPPC    C2 7702   3.607   3.950   6.616
  155DPPC    C3 7703   3.449   4.102   6.701
  155DPPC    N4 7704   3.548   4.083   6.595
  155DPPC    C5 7705   3.510   4.117   6.457
  155DPPC    C6 7706   3.397   4.041   6.389
  155DPPC    O7 7707   3.368   4.104   6.264
  155DPPC    P8 7708   3.232   4.053   6.195
  155DPPC    O9 7709   3.178   4.170   6.123
  155DPPC   O10 7710   3.163   3.966   6.294
  155DPPC   O11 7711   3.311   3.955   6.095
  155DPPC   C12 7712   3.404   4.017   6.006
  155DPPC   C13 7713   3.452   3.923   5.895
  155DPPC   O14 7714   3.537   3.998   5.807
  155DPPC   C15 7715   3.652   3.944   5.757
  155DPPC   O16 7716   3.727   3.887   5.835
  155DPPC   C17 7717   3.698   4.002   5.623
  155DPPC   C18 7718   3.611   3.969   5.502
  155DPPC   C19 7719   3.678   4.029   5.378
  155DPPC   C20 7720   3.609   3.991   5.247
  155DPPC   C21 7721   3.672   4.083   5.142
  155DPPC   C22 7722   3.566   4.092   5.032
  155DPPC   C23 7723   3.633   4.172   4.921
  155DPPC   C24 7724   3.558   4.173   4.788
  155DPPC   C25 7725   3.661   4.222   4.686
  155DPPC   C26 7726   3.628   4.209   4.537
  155DPPC   C27 7727   3.757   4.203   4.455
  155DPPC   C28 7728   3.731   4.179   4.306
  155DPPC   C29 7729   3.689   4.287   4.206
  155DPPC   C30 7730   3.677   4.225   4.066
  155DPPC   C31 7731   3.660   4.346   3.974
  155DPPC   C32 7732   3.331   3.863   5.824
  155DPPC   O33 7733   3.355   3.759   5.729
  155DPPC   C34 7734   3.246   3.705   5.667
  155DPPC   O35 7735   3.134   3.727   5.712
  155DPPC   C36 7736   3.277   3.602   5.558
  155DPPC   C37 7737   3.327   3.658   5.425
  155DPPC   C38 7738   3.334   3.543   5.324
  155DPPC   C39 7739   3.348   3.598   5.182
  155DPPC   C40 7740   3.357   3.483   5.081
  155DPPC   C41 7741   3.330   3.534   4.939
  155DPPC   C42 7742   3.352   3.408   4.854
  155DPPC   C43 7743   3.382   3.457   4.712
  155DPPC   C44 7744   3.402   3.352   4.603
  155DPPC   C45 7745   3.453   3.402   4.468
  155DPPC   C46 7746   3.478   3.286   4.372
  155DPPC   C47 7747   3.529   3.326   4.233
  155DPPC   C48 7748   3.574   3.198   4.163
  155DPPC   C49 7749   3.603   3.234   4.017
  155DPPC   C50 7750   3.486   3.264   3.924
  156DPPC    C1 7751   7.338   2.706   6.238
  156DPPC    C2 7752   7.117   2.697   6.335
  156DPPC    C3 7753   7.182   2.874   6.192
  156DPPC    N4 7754   7.195   2.730   6.215
  156DPPC    C5 7755   7.162   2.656   6.091
  156DPPC    C6 7756   7.181   2.505   6.088
  156DPPC    O7 7757   7.102   2.455   5.979
  156DPPC    P8 7758   7.155   2.307   5.946
  156DPPC    O9 7759   7.068   2.244   5.843
  156DPPC   O10 7760   7.201   2.244   6.072
  156DPPC   O11 7761   7.282   2.348   5.857
  156DPPC   C12 7762   7.241   2.443   5.758
  156DPPC   C13 7763   7.350   2.483   5.658
  156DPPC   O14 7764   7.305   2.569   5.552
  156DPPC   C15 7765   7.299   2.701   5.582
  156DPPC   O16 7766   7.317   2.725   5.702
  156DPPC   C17 7767   7.261   2.801   5.473
  156DPPC   C18 7768   7.358   2.815   5.355
  156DPPC   C19 7769   7.274   2.898   5.256
  156DPPC   C20 7770   7.148   2.821   5.216
  156DPPC   C21 7771   7.044   2.897   5.134
  156DPPC   C22 7772   6.949   2.793   5.074
  156DPPC   C23 7773   6.847   2.865   4.986
  156DPPC   C24 7774   6.931   2.940   4.883
  156DPPC   C25 7775   6.863   3.020   4.772
  156DPPC   C26 7776   6.766   3.125   4.825
  156DPPC   C27 7777   6.779   3.267   4.769
  156DPPC   C28 7778   6.666   3.291   4.668
  156DPPC   C29 7779   6.696   3.416   4.585
  156DPPC   C30 7780   6.585   3.438   4.482
  156DPPC   C31 7781   6.608   3.563   4.395
  156DPPC   C32 7782   7.440   2.362   5.631
  156DPPC   O33 7783   7.379   2.241   5.587
  156DPPC   C34 7784   7.465   2.138   5.567
  156DPPC   O35 7785   7.577   2.138   5.619
  156DPPC   C36 7786   7.419   2.018   5.484
  156DPPC   C37 7787   7.538   1.965   5.404
  156DPPC   C38 7788   7.500   1.843   5.319
  156DPPC   C39 7789   7.411   1.883   5.201
  156DPPC   C40 7790   7.360   1.765   5.118
  156DPPC   C41 7791   7.265   1.810   5.008
  156DPPC   C42 7792   7.130   1.854   5.066
  156DPPC   C43 7793   7.039   1.923   4.965
  156DPPC   C44 7794   6.889   1.938   4.993
  156DPPC   C45 7795   6.834   2.024   4.879
  156DPPC   C46 7796   6.682   2.009   4.881
  156DPPC   C47 7797   6.620   2.056   4.749
  156DPPC   C48 7798   6.645   1.944   4.648
  156DPPC   C49 7799   6.598   1.983   4.507
  156DPPC   C50 7800   6.635   2.124   4.462
  157DPPC    C1 7801   0.231   1.034   5.489
  157DPPC    C2 7802   0.146   1.208   5.605
  157DPPC    C3 7803   0.386   1.177   5.599
  157DPPC    N4 7804   0.261   1.174   5.521
  157DPPC    C5 7805   0.278   1.245   5.393
  157DPPC    C6 7806   0.314   1.393   5.400
  157DPPC    O7 7807   0.223   1.486   5.460
  157DPPC    P8 7808   0.310   1.596   5.539
  157DPPC    O9 7809   0.389   1.513   5.632
  157DPPC   O10 7810   0.206   1.698   5.571
  157DPPC   O11 7811   0.406   1.658   5.426
  157DPPC   C12 7812   0.338   1.767   5.365
  157DPPC   C13 7813   0.414   1.825   5.246
  157DPPC   O14 7814   0.359   1.942   5.183
  157DPPC   C15 7815   0.355   2.059   5.253
  157DPPC   O16 7816   0.387   2.070   5.371
  157DPPC   C17 7817   0.307   2.179   5.171
  157DPPC   C18 7818   0.329   2.170   5.020
  157DPPC   C19 7819   0.471   2.210   4.976
  157DPPC   C20 7820   0.476   2.196   4.824
  157DPPC   C21 7821   0.483   2.048   4.786
  157DPPC   C22 7822   0.508   2.036   4.635
  157DPPC   C23 7823   0.509   1.892   4.582
  157DPPC   C24 7824   0.509   1.903   4.429
  157DPPC   C25 7825   0.403   2.002   4.379
  157DPPC   C26 7826   0.391   1.993   4.227
  157DPPC   C27 7827   0.392   1.848   4.179
  157DPPC   C28 7828   0.391   1.854   4.026
  157DPPC   C29 7829   0.373   1.709   3.979
  157DPPC   C30 7830   0.358   1.694   3.827
  157DPPC   C31 7831   0.363   1.550   3.778
  157DPPC   C32 7832   0.422   1.707   5.149
  157DPPC   O33 7833   0.290   1.662   5.116
  157DPPC   C34 7834   0.277   1.556   5.031
  157DPPC   O35 7835   0.367   1.474   5.016
  157DPPC   C36 7836   0.136   1.534   4.976
  157DPPC   C37 7837   0.054   1.660   4.949
  157DPPC   C38 7838   0.125   1.762   4.859
  157DPPC   C39 7839   0.034   1.886   4.855
  157DPPC   C40 7840   0.087   1.999   4.767
  157DPPC   C41 7841  -0.025   2.088   4.712
  157DPPC   C42 7842  -0.124   2.008   4.628
  157DPPC   C43 7843  -0.230   2.090   4.554
  157DPPC   C44 7844  -0.329   2.011   4.468
  157DPPC   C45 7845  -0.411   2.111   4.387
  157DPPC   C46 7846  -0.501   2.037   4.288
  157DPPC   C47 7847  -0.586   2.144   4.219
  157DPPC   C48 7848  -0.511   2.239   4.124
  157DPPC   C49 7849  -0.607   2.342   4.064
  157DPPC   C50 7850  -0.701   2.265   3.971
  158DPPC    C1 7851   2.830   0.855   5.608
  158DPPC    C2 7852   2.919   0.630   5.661
  158DPPC    C3 7853   2.994   0.736   5.482
  158DPPC    N4 7854   2.947   0.767   5.618
  158DPPC    C5 7855   3.043   0.825   5.714
  158DPPC    C6 7856   3.142   0.937   5.680
  158DPPC    O7 7857   3.094   1.070   5.697
  158DPPC    P8 7858   3.214   1.154   5.765
  158DPPC    O9 7859   3.276   1.065   5.866
  158DPPC   O10 7860   3.185   1.297   5.790
  158DPPC   O11 7861   3.319   1.147   5.643
  158DPPC   C12 7862   3.276   1.238   5.542
  158DPPC   C13 7863   3.387   1.275   5.443
  158DPPC   O14 7864   3.373   1.404   5.383
  158DPPC   C15 7865   3.487   1.472   5.357
  158DPPC   O16 7866   3.601   1.428   5.373
  158DPPC   C17 7867   3.473   1.557   5.231
  158DPPC   C18 7868   3.413   1.695   5.262
  158DPPC   C19 7869   3.405   1.789   5.141
  158DPPC   C20 7870   3.334   1.725   5.022
  158DPPC   C21 7871   3.340   1.814   4.898
  158DPPC   C22 7872   3.238   1.752   4.801
  158DPPC   C23 7873   3.262   1.788   4.655
  158DPPC   C24 7874   3.163   1.720   4.560
  158DPPC   C25 7875   3.191   1.759   4.415
  158DPPC   C26 7876   3.099   1.682   4.320
  158DPPC   C27 7877   3.149   1.710   4.178
  158DPPC   C28 7878   3.064   1.644   4.070
  158DPPC   C29 7879   3.108   1.678   3.927
  158DPPC   C30 7880   3.253   1.643   3.893
  158DPPC   C31 7881   3.296   1.723   3.770
  158DPPC   C32 7882   3.410   1.157   5.348
  158DPPC   O33 7883   3.294   1.104   5.282
  158DPPC   C34 7884   3.328   1.006   5.193
  158DPPC   O35 7885   3.440   0.959   5.179
  158DPPC   C36 7886   3.204   0.978   5.107
  158DPPC   C37 7887   3.144   0.842   5.142
  158DPPC   C38 7888   3.211   0.720   5.079
  158DPPC   C39 7889   3.123   0.596   5.066
  158DPPC   C40 7890   3.194   0.511   4.960
  158DPPC   C41 7891   3.217   0.590   4.831
  158DPPC   C42 7892   3.291   0.494   4.738
  158DPPC   C43 7893   3.329   0.563   4.607
  158DPPC   C44 7894   3.434   0.670   4.638
  158DPPC   C45 7895   3.518   0.713   4.518
  158DPPC   C46 7896   3.600   0.833   4.567
  158DPPC   C47 7897   3.692   0.888   4.458
  158DPPC   C48 7898   3.776   1.007   4.504
  158DPPC   C49 7899   3.876   1.052   4.397
  158DPPC   C50 7900   3.971   0.936   4.367
  159DPPC    C1 7901   3.479   8.299   5.012
  159DPPC    C2 7902   3.397   8.073   4.998
  159DPPC    C3 7903   3.558   8.128   5.157
  159DPPC    N4 7904   3.438   8.181   5.090
  159DPPC    C5 7905   3.320   8.205   5.174
  159DPPC    C6 7906   3.288   8.335   5.248
  159DPPC    O7 7907   3.225   8.436   5.168
  159DPPC    P8 7908   3.231   8.577   5.245
  159DPPC    O9 7909   3.230   8.540   5.388
  159DPPC   O10 7910   3.126   8.659   5.181
  159DPPC   O11 7911   3.377   8.615   5.187
  159DPPC   C12 7912   3.384   8.728   5.099
  159DPPC   C13 7913   3.525   8.760   5.047
  159DPPC   O14 7914   3.552   8.897   5.016
  159DPPC   C15 7915   3.565   8.998   5.107
  159DPPC   O16 7916   3.545   8.973   5.226
  159DPPC   C17 7917   3.585   9.139   5.053
  159DPPC   C18 7918   3.708   9.158   4.964
  159DPPC   C19 7919   3.729   9.302   4.919
  159DPPC   C20 7920   3.875   9.332   4.886
  159DPPC   C21 7921   3.894   9.477   4.842
  159DPPC   C22 7922   4.045   9.505   4.846
  159DPPC   C23 7923   4.124   9.488   4.715
  159DPPC   C24 7924   4.272   9.513   4.741
  159DPPC   C25 7925   4.351   9.514   4.610
  159DPPC   C26 7926   4.348   9.374   4.548
  159DPPC   C27 7927   4.398   9.381   4.404
  159DPPC   C28 7928   4.364   9.244   4.345
  159DPPC   C29 7929   4.446   9.205   4.222
  159DPPC   C30 7930   4.433   9.306   4.107
  159DPPC   C31 7931   4.299   9.320   4.035
  159DPPC   C32 7932   3.551   8.663   4.931
  159DPPC   O33 7933   3.461   8.675   4.821
  159DPPC   C34 7934   3.496   8.595   4.717
  159DPPC   O35 7935   3.592   8.518   4.718
  159DPPC   C36 7936   3.403   8.616   4.597
  159DPPC   C37 7937   3.484   8.667   4.478
  159DPPC   C38 7938   3.386   8.748   4.393
  159DPPC   C39 7939   3.459   8.803   4.270
  159DPPC   C40 7940   3.368   8.810   4.147
  159DPPC   C41 7941   3.450   8.873   4.034
  159DPPC   C42 7942   3.552   8.779   3.971
  159DPPC   C43 7943   3.612   8.859   3.855
  159DPPC   C44 7944   3.714   8.774   3.780
  159DPPC   C45 7945   3.761   8.838   3.649
  159DPPC   C46 7946   3.645   8.888   3.564
  159DPPC   C47 7947   3.710   8.999   3.481
  159DPPC   C48 7948   3.843   8.944   3.428
  159DPPC   C49 7949   3.911   9.065   3.365
  159DPPC   C50 7950   3.831   9.125   3.249
  160DPPC    C1 7951   0.974   3.532   5.891
  160DPPC    C2 7952   0.879   3.434   5.698
  160DPPC    C3 7953   0.977   3.637   5.672
  160DPPC    N4 7954   0.994   3.511   5.747
  160DPPC    C5 7955   1.118   3.436   5.720
  160DPPC    C6 7956   1.253   3.493   5.764
  160DPPC    O7 7957   1.368   3.424   5.716
  160DPPC    P8 7958   1.507   3.501   5.743
  160DPPC    O9 7959   1.610   3.401   5.782
  160DPPC   O10 7960   1.464   3.615   5.827
  160DPPC   O11 7961   1.520   3.546   5.589
  160DPPC   C12 7962   1.562   3.431   5.515
  160DPPC   C13 7963   1.583   3.447   5.364
  160DPPC   O14 7964   1.715   3.410   5.323
  160DPPC   C15 7965   1.730   3.290   5.260
  160DPPC   O16 7966   1.667   3.197   5.310
  160DPPC   C17 7967   1.860   3.278   5.180
  160DPPC   C18 7968   1.832   3.214   5.044
  160DPPC   C19 7969   1.966   3.216   4.971
  160DPPC   C20 7970   1.972   3.123   4.850
  160DPPC   C21 7971   1.981   2.975   4.887
  160DPPC   C22 7972   1.972   2.890   4.759
  160DPPC   C23 7973   1.843   2.919   4.681
  160DPPC   C24 7974   1.805   2.797   4.597
  160DPPC   C25 7975   1.674   2.817   4.522
  160DPPC   C26 7976   1.638   2.715   4.413
  160DPPC   C27 7977   1.733   2.712   4.293
  160DPPC   C28 7978   1.673   2.623   4.184
  160DPPC   C29 7979   1.774   2.637   4.070
  160DPPC   C30 7980   1.714   2.556   3.955
  160DPPC   C31 7981   1.794   2.533   3.826
  160DPPC   C32 7982   1.538   3.592   5.340
  160DPPC   O33 7983   1.518   3.634   5.205
  160DPPC   C34 7984   1.535   3.769   5.204
  160DPPC   O35 7985   1.570   3.828   5.306
  160DPPC   C36 7986   1.502   3.840   5.072
  160DPPC   C37 7987   1.491   3.733   4.964
  160DPPC   C38 7988   1.469   3.789   4.823
  160DPPC   C39 7989   1.415   3.676   4.735
  160DPPC   C40 7990   1.405   3.708   4.586
  160DPPC   C41 7991   1.320   3.603   4.514
  160DPPC   C42 7992   1.276   3.650   4.375
  160DPPC   C43 7993   1.190   3.547   4.303
  160DPPC   C44 7994   1.112   3.607   4.185
  160DPPC   C45 7995   1.162   3.562   4.047
  160DPPC   C46 7996   1.084   3.611   3.925
  160DPPC   C47 7997   1.144   3.542   3.803
  160DPPC   C48 7998   1.078   3.599   3.678
  160DPPC   C49 7999   1.128   3.541   3.545
  160DPPC   C50 8000   1.280   3.555   3.532
  161DPPC    C1 8001   4.623   5.722   5.893
  161DPPC    C2 8002   4.400   5.663   5.920
  161DPPC    C3 8003   4.494   5.858   6.042
  161DPPC    N4 8004   4.490   5.779   5.918
  161DPPC    C5 8005   4.476   5.858   5.795
  161DPPC    C6 8006   4.370   5.969   5.797
  161DPPC    O7 8007   4.377   6.038   5.672
  161DPPC    P8 8008   4.235   6.108   5.642
  161DPPC    O9 8009   4.241   6.255   5.645
  161DPPC   O10 8010   4.130   6.024   5.704
  161DPPC   O11 8011   4.252   6.080   5.485
  161DPPC   C12 8012   4.345   6.167   5.419
  161DPPC   C13 8013   4.379   6.116   5.279
  161DPPC   O14 8014   4.292   6.146   5.169
  161DPPC   C15 8015   4.261   6.274   5.137
  161DPPC   O16 8016   4.283   6.372   5.209
  161DPPC   C17 8017   4.175   6.304   5.014
  161DPPC   C18 8018   4.152   6.454   4.990
  161DPPC   C19 8019   4.080   6.471   4.856
  161DPPC   C20 8020   3.951   6.390   4.863
  161DPPC   C21 8021   3.896   6.391   4.720
  161DPPC   C22 8022   4.007   6.337   4.630
  161DPPC   C23 8023   3.960   6.273   4.500
  161DPPC   C24 8024   4.064   6.183   4.433
  161DPPC   C25 8025   4.017   6.147   4.292
  161DPPC   C26 8026   4.123   6.066   4.216
  161DPPC   C27 8027   4.054   6.011   4.091
  161DPPC   C28 8028   4.044   6.102   3.968
  161DPPC   C29 8029   4.014   6.021   3.842
  161DPPC   C30 8030   3.887   5.941   3.871
  161DPPC   C31 8031   3.763   6.027   3.844
  161DPPC   C32 8032   4.413   5.969   5.306
  161DPPC   O33 8033   4.505   5.899   5.222
  161DPPC   C34 8034   4.512   5.765   5.245
  161DPPC   O35 8035   4.447   5.713   5.336
  161DPPC   C36 8036   4.585   5.679   5.141
  161DPPC   C37 8037   4.542   5.721   5.000
  161DPPC   C38 8038   4.650   5.675   4.902
  161DPPC   C39 8039   4.621   5.744   4.769
  161DPPC   C40 8040   4.706   5.691   4.654
  161DPPC   C41 8041   4.698   5.769   4.522
  161DPPC   C42 8042   4.808   5.711   4.432
  161DPPC   C43 8043   4.806   5.772   4.292
  161DPPC   C44 8044   4.921   5.718   4.206
  161DPPC   C45 8045   5.049   5.795   4.236
  161DPPC   C46 8046   5.153   5.751   4.134
  161DPPC   C47 8047   5.288   5.822   4.152
  161DPPC   C48 8048   5.389   5.756   4.059
  161DPPC   C49 8049   5.531   5.806   4.089
  161DPPC   C50 8050   5.527   5.958   4.086
  162DPPC    C1 8051   6.154   6.167   5.316
  162DPPC    C2 8052   6.387   6.129   5.345
  162DPPC    C3 8053   6.266   6.225   5.526
  162DPPC    N4 8054   6.258   6.131   5.414
  162DPPC    C5 8055   6.247   5.997   5.474
  162DPPC    C6 8056   6.196   5.883   5.386
  162DPPC    O7 8057   6.272   5.852   5.269
  162DPPC    P8 8058   6.200   5.734   5.185
  162DPPC    O9 8059   6.086   5.822   5.150
  162DPPC   O10 8060   6.198   5.620   5.279
  162DPPC   O11 8061   6.319   5.729   5.076
  162DPPC   C12 8062   6.292   5.841   4.991
  162DPPC   C13 8063   6.404   5.885   4.897
  162DPPC   O14 8064   6.381   5.838   4.764
  162DPPC   C15 8065   6.291   5.911   4.692
  162DPPC   O16 8066   6.210   5.985   4.746
  162DPPC   C17 8067   6.304   5.913   4.540
  162DPPC   C18 8068   6.422   5.826   4.495
  162DPPC   C19 8069   6.451   5.847   4.346
  162DPPC   C20 8070   6.332   5.822   4.253
  162DPPC   C21 8071   6.371   5.832   4.106
  162DPPC   C22 8072   6.398   5.978   4.068
  162DPPC   C23 8073   6.443   5.979   3.922
  162DPPC   C24 8074   6.448   6.120   3.863
  162DPPC   C25 8075   6.531   6.130   3.735
  162DPPC   C26 8076   6.666   6.060   3.757
  162DPPC   C27 8077   6.735   6.084   3.622
  162DPPC   C28 8078   6.662   6.009   3.511
  162DPPC   C29 8079   6.634   5.859   3.528
  162DPPC   C30 8080   6.495   5.831   3.471
  162DPPC   C31 8081   6.490   5.836   3.318
  162DPPC   C32 8082   6.531   5.831   4.963
  162DPPC   O33 8083   6.651   5.885   4.907
  162DPPC   C34 8084   6.767   5.815   4.927
  162DPPC   O35 8085   6.761   5.721   5.006
  162DPPC   C36 8086   6.890   5.869   4.855
  162DPPC   C37 8087   6.930   5.785   4.733
  162DPPC   C38 8088   6.844   5.815   4.610
  162DPPC   C39 8089   6.909   5.753   4.486
  162DPPC   C40 8090   6.828   5.768   4.357
  162DPPC   C41 8091   6.908   5.717   4.237
  162DPPC   C42 8092   6.819   5.722   4.112
  162DPPC   C43 8093   6.889   5.669   3.987
  162DPPC   C44 8094   6.823   5.685   3.850
  162DPPC   C45 8095   6.912   5.638   3.734
  162DPPC   C46 8096   7.023   5.737   3.696
  162DPPC   C47 8097   7.107   5.679   3.583
  162DPPC   C48 8098   7.223   5.774   3.554
  162DPPC   C49 8099   7.175   5.865   3.440
  162DPPC   C50 8100   7.290   5.964   3.420
  163DPPC    C1 8101   6.131   5.129   1.473
  163DPPC    C2 8102   6.114   5.199   1.701
  163DPPC    C3 8103   5.960   5.041   1.600
  163DPPC    N4 8104   6.100   5.084   1.610
  163DPPC    C5 8105   6.195   4.981   1.652
  163DPPC    C6 8106   6.177   4.896   1.778
  163DPPC    O7 8107   6.291   4.816   1.811
  163DPPC    P8 8108   6.242   4.699   1.911
  163DPPC    O9 8109   6.355   4.615   1.957
  163DPPC   O10 8110   6.124   4.629   1.856
  163DPPC   O11 8111   6.178   4.789   2.028
  163DPPC   C12 8112   6.278   4.815   2.127
  163DPPC   C13 8113   6.230   4.932   2.212
  163DPPC   O14 8114   6.336   4.987   2.292
  163DPPC   C15 8115   6.435   5.058   2.232
  163DPPC   O16 8116   6.446   5.056   2.110
  163DPPC   C17 8117   6.553   5.107   2.317
  163DPPC   C18 8118   6.514   5.239   2.383
  163DPPC   C19 8119   6.633   5.288   2.466
  163DPPC   C20 8120   6.603   5.418   2.542
  163DPPC   C21 8121   6.708   5.423   2.653
  163DPPC   C22 8122   6.704   5.562   2.717
  163DPPC   C23 8123   6.567   5.612   2.762
  163DPPC   C24 8124   6.594   5.743   2.835
  163DPPC   C25 8125   6.642   5.853   2.740
  163DPPC   C26 8126   6.659   5.982   2.822
  163DPPC   C27 8127   6.750   5.953   2.941
  163DPPC   C28 8128   6.753   6.072   3.037
  163DPPC   C29 8129   6.862   6.064   3.144
  163DPPC   C30 8130   6.902   6.201   3.200
  163DPPC   C31 8131   7.007   6.201   3.311
  163DPPC   C32 8132   6.111   4.877   2.290
  163DPPC   O33 8133   6.036   4.990   2.336
  163DPPC   C34 8134   5.926   4.948   2.404
  163DPPC   O35 8135   5.904   4.827   2.403
  163DPPC   C36 8136   5.844   5.046   2.488
  163DPPC   C37 8137   5.867   5.046   2.639
  163DPPC   C38 8138   5.775   5.150   2.702
  163DPPC   C39 8139   5.801   5.159   2.853
  163DPPC   C40 8140   5.693   5.246   2.917
  163DPPC   C41 8141   5.692   5.224   3.068
  163DPPC   C42 8142   5.592   5.323   3.128
  163DPPC   C43 8143   5.590   5.330   3.280
  163DPPC   C44 8144   5.545   5.465   3.339
  163DPPC   C45 8145   5.580   5.471   3.487
  163DPPC   C46 8146   5.554   5.616   3.528
  163DPPC   C47 8147   5.579   5.644   3.676
  163DPPC   C48 8148   5.585   5.795   3.698
  163DPPC   C49 8149   5.682   5.848   3.592
  163DPPC   C50 8150   5.698   5.998   3.567
  164DPPC    C1 8151   2.542   2.248   2.459
  164DPPC    C2 8152   2.735   2.244   2.601
  164DPPC    C3 8153   2.647   2.041   2.528
  164DPPC    N4 8154   2.670   2.180   2.486
  164DPPC    C5 8155   2.754   2.174   2.366
  164DPPC    C6 8156   2.794   2.288   2.272
  164DPPC    O7 8157   2.884   2.374   2.341
  164DPPC    P8 8158   2.915   2.492   2.235
  164DPPC    O9 8159   2.779   2.526   2.188
  164DPPC   O10 8160   3.019   2.423   2.156
  164DPPC   O11 8161   2.985   2.595   2.337
  164DPPC   C12 8162   2.898   2.615   2.449
  164DPPC   C13 8163   2.981   2.682   2.559
  164DPPC   O14 8164   2.916   2.707   2.684
  164DPPC   C15 8165   2.921   2.601   2.769
  164DPPC   O16 8166   2.959   2.487   2.741
  164DPPC   C17 8167   2.847   2.608   2.903
  164DPPC   C18 8168   2.904   2.518   3.013
  164DPPC   C19 8169   2.829   2.526   3.146
  164DPPC   C20 8170   2.707   2.434   3.144
  164DPPC   C21 8171   2.609   2.472   3.255
  164DPPC   C22 8172   2.563   2.618   3.253
  164DPPC   C23 8173   2.422   2.613   3.310
  164DPPC   C24 8174   2.456   2.604   3.458
  164DPPC   C25 8175   2.330   2.617   3.545
  164DPPC   C26 8176   2.350   2.608   3.697
  164DPPC   C27 8177   2.220   2.612   3.777
  164DPPC   C28 8178   2.229   2.591   3.928
  164DPPC   C29 8179   2.319   2.695   3.994
  164DPPC   C30 8180   2.251   2.831   3.982
  164DPPC   C31 8181   2.337   2.946   4.035
  164DPPC   C32 8182   3.045   2.802   2.489
  164DPPC   O33 8183   2.953   2.907   2.457
  164DPPC   C34 8184   3.002   3.010   2.383
  164DPPC   O35 8185   3.120   3.011   2.348
  164DPPC   C36 8186   2.919   3.138   2.376
  164DPPC   C37 8187   2.922   3.202   2.515
  164DPPC   C38 8188   2.787   3.272   2.529
  164DPPC   C39 8189   2.771   3.361   2.653
  164DPPC   C40 8190   2.751   3.256   2.763
  164DPPC   C41 8191   2.726   3.330   2.894
  164DPPC   C42 8192   2.748   3.233   3.010
  164DPPC   C43 8193   2.723   3.297   3.146
  164DPPC   C44 8194   2.745   3.190   3.254
  164DPPC   C45 8195   2.741   3.250   3.395
  164DPPC   C46 8196   2.787   3.140   3.490
  164DPPC   C47 8197   2.818   3.205   3.625
  164DPPC   C48 8198   2.849   3.105   3.736
  164DPPC   C49 8199   2.741   3.014   3.794
  164DPPC   C50 8200   2.794   2.978   3.933
  165DPPC    C1 8201   0.109   3.380   1.469
  165DPPC    C2 8202   0.290   3.502   1.594
  165DPPC    C3 8203   0.076   3.589   1.571
  165DPPC    N4 8204   0.149   3.462   1.584
  165DPPC    C5 8205   0.100   3.387   1.701
  165DPPC    C6 8206   0.163   3.250   1.727
  165DPPC    O7 8207   0.084   3.140   1.680
  165DPPC    P8 8208   0.168   3.005   1.656
  165DPPC    O9 8209   0.272   3.061   1.566
  165DPPC   O10 8210   0.065   2.903   1.624
  165DPPC   O11 8211   0.220   2.990   1.807
  165DPPC   C12 8212   0.108   2.947   1.886
  165DPPC   C13 8213   0.111   2.999   2.030
  165DPPC   O14 8214   0.107   3.141   2.051
  165DPPC   C15 8215  -0.014   3.196   2.081
  165DPPC   O16 8216  -0.121   3.141   2.056
  165DPPC   C17 8217  -0.007   3.346   2.109
  165DPPC   C18 8218   0.064   3.383   2.239
  165DPPC   C19 8219  -0.018   3.352   2.365
  165DPPC   C20 8220   0.040   3.400   2.498
  165DPPC   C21 8221  -0.061   3.391   2.612
  165DPPC   C22 8222  -0.007   3.396   2.755
  165DPPC   C23 8223  -0.123   3.378   2.853
  165DPPC   C24 8224  -0.046   3.379   2.985
  165DPPC   C25 8225  -0.135   3.317   3.092
  165DPPC   C26 8226  -0.085   3.385   3.220
  165DPPC   C27 8227  -0.147   3.305   3.335
  165DPPC   C28 8228  -0.300   3.296   3.325
  165DPPC   C29 8229  -0.363   3.240   3.453
  165DPPC   C30 8230  -0.427   3.348   3.540
  165DPPC   C31 8231  -0.485   3.277   3.663
  165DPPC   C32 8232   0.240   2.940   2.089
  165DPPC   O33 8233   0.236   2.887   2.222
  165DPPC   C34 8234   0.192   2.760   2.238
  165DPPC   O35 8235   0.210   2.680   2.146
  165DPPC   C36 8236   0.201   2.715   2.384
  165DPPC   C37 8237   0.148   2.574   2.409
  165DPPC   C38 8238   0.189   2.551   2.555
  165DPPC   C39 8239   0.061   2.512   2.630
  165DPPC   C40 8240   0.079   2.525   2.781
  165DPPC   C41 8241  -0.044   2.484   2.862
  165DPPC   C42 8242  -0.027   2.515   3.011
  165DPPC   C43 8243  -0.145   2.485   3.103
  165DPPC   C44 8244  -0.133   2.579   3.223
  165DPPC   C45 8245  -0.246   2.541   3.319
  165DPPC   C46 8246  -0.237   2.630   3.443
  165DPPC   C47 8247  -0.343   2.578   3.539
  165DPPC   C48 8248  -0.321   2.436   3.592
  165DPPC   C49 8249  -0.427   2.375   3.684
  165DPPC   C50 8250  -0.372   2.247   3.747
  166DPPC    C1 8251   2.272   3.434   1.473
  166DPPC    C2 8252   2.495   3.460   1.572
  166DPPC    C3 8253   2.317   3.362   1.695
  166DPPC    N4 8254   2.374   3.376   1.560
  166DPPC    C5 8255   2.430   3.248   1.512
  166DPPC    C6 8256   2.370   3.112   1.546
  166DPPC    O7 8257   2.242   3.106   1.482
  166DPPC    P8 8258   2.162   2.972   1.520
  166DPPC    O9 8259   2.254   2.857   1.502
  166DPPC   O10 8260   2.030   2.974   1.454
  166DPPC   O11 8261   2.132   3.015   1.673
  166DPPC   C12 8262   2.038   2.918   1.720
  166DPPC   C13 8263   1.978   2.950   1.857
  166DPPC   O14 8264   1.861   2.874   1.891
  166DPPC   C15 8265   1.870   2.744   1.928
  166DPPC   O16 8266   1.976   2.682   1.940
  166DPPC   C17 8267   1.742   2.693   1.995
  166DPPC   C18 8268   1.772   2.656   2.140
  166DPPC   C19 8269   1.655   2.582   2.204
  166DPPC   C20 8270   1.669   2.601   2.355
  166DPPC   C21 8271   1.598   2.498   2.443
  166DPPC   C22 8272   1.627   2.523   2.591
  166DPPC   C23 8273   1.601   2.666   2.641
  166DPPC   C24 8274   1.599   2.667   2.794
  166DPPC   C25 8275   1.645   2.806   2.838
  166DPPC   C26 8276   1.665   2.811   2.990
  166DPPC   C27 8277   1.534   2.766   3.055
  166DPPC   C28 8278   1.556   2.758   3.206
  166DPPC   C29 8279   1.440   2.673   3.256
  166DPPC   C30 8280   1.423   2.675   3.408
  166DPPC   C31 8281   1.311   2.574   3.436
  166DPPC   C32 8282   1.966   3.103   1.853
  166DPPC   O33 8283   1.932   3.172   1.973
  166DPPC   C34 8284   1.940   3.308   1.964
  166DPPC   O35 8285   2.010   3.367   1.882
  166DPPC   C36 8286   1.863   3.392   2.066
  166DPPC   C37 8287   1.956   3.426   2.183
  166DPPC   C38 8288   1.896   3.516   2.290
  166DPPC   C39 8289   2.004   3.522   2.399
  166DPPC   C40 8290   1.943   3.620   2.500
  166DPPC   C41 8291   2.027   3.618   2.628
  166DPPC   C42 8292   1.926   3.602   2.742
  166DPPC   C43 8293   1.983   3.607   2.884
  166DPPC   C44 8294   1.875   3.560   2.982
  166DPPC   C45 8295   1.843   3.670   3.084
  166DPPC   C46 8296   1.817   3.807   3.022
  166DPPC   C47 8297   1.797   3.908   3.135
  166DPPC   C48 8298   1.918   3.930   3.227
  166DPPC   C49 8299   1.885   4.030   3.339
  166DPPC   C50 8300   2.003   4.041   3.435
  167DPPC    C1 8301   2.241   2.330   1.608
  167DPPC    C2 8302   2.417   2.188   1.686
  167DPPC    C3 8303   2.393   2.412   1.760
  167DPPC    N4 8304   2.318   2.290   1.726
  167DPPC    C5 8305   2.235   2.247   1.840
  167DPPC    C6 8306   2.133   2.134   1.827
  167DPPC    O7 8307   2.202   2.011   1.848
  167DPPC    P8 8308   2.095   1.897   1.810
  167DPPC    O9 8309   2.180   1.779   1.784
  167DPPC   O10 8310   2.015   1.963   1.704
  167DPPC   O11 8311   2.033   1.926   1.956
  167DPPC   C12 8312   2.105   1.876   2.069
  167DPPC   C13 8313   2.033   1.911   2.199
  167DPPC   O14 8314   1.918   1.831   2.228
  167DPPC   C15 8315   1.938   1.703   2.270
  167DPPC   O16 8316   2.033   1.637   2.230
  167DPPC   C17 8317   1.835   1.655   2.372
  167DPPC   C18 8318   1.889   1.672   2.514
  167DPPC   C19 8319   1.806   1.617   2.631
  167DPPC   C20 8320   1.857   1.658   2.769
  167DPPC   C21 8321   2.005   1.625   2.788
  167DPPC   C22 8322   2.062   1.711   2.901
  167DPPC   C23 8323   2.200   1.643   2.898
  167DPPC   C24 8324   2.279   1.740   2.985
  167DPPC   C25 8325   2.395   1.672   3.058
  167DPPC   C26 8326   2.336   1.588   3.171
  167DPPC   C27 8327   2.435   1.512   3.260
  167DPPC   C28 8328   2.391   1.377   3.317
  167DPPC   C29 8329   2.511   1.323   3.395
  167DPPC   C30 8330   2.471   1.202   3.479
  167DPPC   C31 8331   2.352   1.245   3.564
  167DPPC   C32 8332   2.020   2.063   2.184
  167DPPC   O33 8333   2.022   2.134   2.308
  167DPPC   C34 8334   1.955   2.253   2.310
  167DPPC   O35 8335   1.880   2.294   2.222
  167DPPC   C36 8336   1.954   2.330   2.442
  167DPPC   C37 8337   2.068   2.431   2.452
  167DPPC   C38 8338   2.034   2.531   2.562
  167DPPC   C39 8339   2.018   2.462   2.697
  167DPPC   C40 8340   2.016   2.577   2.798
  167DPPC   C41 8341   2.020   2.541   2.947
  167DPPC   C42 8342   2.016   2.668   3.033
  167DPPC   C43 8343   1.975   2.634   3.177
  167DPPC   C44 8344   1.952   2.756   3.267
  167DPPC   C45 8345   1.922   2.720   3.413
  167DPPC   C46 8346   1.921   2.851   3.491
  167DPPC   C47 8347   1.854   2.839   3.628
  167DPPC   C48 8348   1.890   2.966   3.706
  167DPPC   C49 8349   1.817   2.959   3.840
  167DPPC   C50 8350   1.876   3.053   3.944
  168DPPC    C1 8351   2.750   8.043   1.566
  168DPPC    C2 8352   2.529   8.004   1.488
  168DPPC    C3 8353   2.591   7.949   1.711
  168DPPC    N4 8354   2.608   8.048   1.604
  168DPPC    C5 8355   2.575   8.184   1.646
  168DPPC    C6 8356   2.640   8.258   1.763
  168DPPC    O7 8357   2.609   8.398   1.770
  168DPPC    P8 8358   2.697   8.467   1.885
  168DPPC    O9 8359   2.680   8.614   1.887
  168DPPC   O10 8360   2.826   8.399   1.859
  168DPPC   O11 8361   2.654   8.386   2.018
  168DPPC   C12 8362   2.532   8.439   2.072
  168DPPC   C13 8363   2.501   8.392   2.214
  168DPPC   O14 8364   2.374   8.443   2.258
  168DPPC   C15 8365   2.265   8.364   2.244
  168DPPC   O16 8366   2.251   8.303   2.138
  168DPPC   C17 8367   2.146   8.380   2.338
  168DPPC   C18 8368   2.132   8.527   2.378
  168DPPC   C19 8369   2.061   8.537   2.514
  168DPPC   C20 8370   2.038   8.686   2.539
  168DPPC   C21 8371   1.977   8.726   2.674
  168DPPC   C22 8372   1.895   8.854   2.655
  168DPPC   C23 8373   1.842   8.907   2.788
  168DPPC   C24 8374   1.725   8.827   2.846
  168DPPC   C25 8375   1.675   8.893   2.974
  168DPPC   C26 8376   1.597   8.796   3.063
  168DPPC   C27 8377   1.681   8.670   3.086
  168DPPC   C28 8378   1.631   8.556   3.176
  168DPPC   C29 8379   1.481   8.530   3.173
  168DPPC   C30 8380   1.459   8.423   3.280
  168DPPC   C31 8381   1.309   8.396   3.288
  168DPPC   C32 8382   2.622   8.440   2.293
  168DPPC   O33 8383   2.648   8.581   2.283
  168DPPC   C34 8384   2.777   8.623   2.292
  168DPPC   O35 8385   2.866   8.547   2.328
  168DPPC   C36 8386   2.789   8.774   2.274
  168DPPC   C37 8387   2.751   8.855   2.398
  168DPPC   C38 8388   2.755   8.998   2.344
  168DPPC   C39 8389   2.726   9.102   2.452
  168DPPC   C40 8390   2.810   9.079   2.577
  168DPPC   C41 8391   2.779   9.184   2.685
  168DPPC   C42 8392   2.863   9.156   2.809
  168DPPC   C43 8393   2.860   9.275   2.905
  168DPPC   C44 8394   2.946   9.254   3.030
  168DPPC   C45 8395   3.094   9.225   3.008
  168DPPC   C46 8396   3.168   9.231   3.142
  168DPPC   C47 8397   3.313   9.183   3.135
  168DPPC   C48 8398   3.379   9.283   3.040
  168DPPC   C49 8399   3.529   9.253   3.037
  168DPPC   C50 8400   3.573   9.150   2.933
  169DPPC    C1 8401   0.091   2.570   1.848
  169DPPC    C2 8402   0.309   2.512   1.832
  169DPPC    C3 8403   0.151   2.358   1.733
  169DPPC    N4 8404   0.183   2.500   1.757
  169DPPC    C5 8405   0.185   2.582   1.635
  169DPPC    C6 8406   0.279   2.557   1.517
  169DPPC    O7 8407   0.411   2.611   1.530
  169DPPC    P8 8408   0.432   2.757   1.465
  169DPPC    O9 8409   0.319   2.801   1.381
  169DPPC   O10 8410   0.566   2.736   1.405
  169DPPC   O11 8411   0.452   2.818   1.613
  169DPPC   C12 8412   0.580   2.789   1.671
  169DPPC   C13 8413   0.602   2.862   1.804
  169DPPC   O14 8414   0.550   2.801   1.922
  169DPPC   C15 8415   0.637   2.742   2.009
  169DPPC   O16 8416   0.740   2.690   1.967
  169DPPC   C17 8417   0.581   2.695   2.143
  169DPPC   C18 8418   0.648   2.567   2.193
  169DPPC   C19 8419   0.644   2.553   2.346
  169DPPC   C20 8420   0.717   2.428   2.393
  169DPPC   C21 8421   0.629   2.303   2.380
  169DPPC   C22 8422   0.514   2.322   2.479
  169DPPC   C23 8423   0.572   2.312   2.621
  169DPPC   C24 8424   0.462   2.339   2.724
  169DPPC   C25 8425   0.515   2.332   2.867
  169DPPC   C26 8426   0.408   2.347   2.975
  169DPPC   C27 8427   0.350   2.206   2.984
  169DPPC   C28 8428   0.237   2.205   3.086
  169DPPC   C29 8429   0.282   2.213   3.232
  169DPPC   C30 8430   0.161   2.213   3.325
  169DPPC   C31 8431   0.080   2.092   3.276
  169DPPC   C32 8432   0.564   3.008   1.775
  169DPPC   O33 8433   0.587   3.097   1.884
  169DPPC   C34 8434   0.544   3.226   1.873
  169DPPC   O35 8435   0.510   3.279   1.767
  169DPPC   C36 8436   0.565   3.306   2.001
  169DPPC   C37 8437   0.487   3.257   2.123
  169DPPC   C38 8438   0.488   3.376   2.219
  169DPPC   C39 8439   0.414   3.334   2.346
  169DPPC   C40 8440   0.393   3.453   2.439
  169DPPC   C41 8441   0.523   3.532   2.456
  169DPPC   C42 8442   0.604   3.481   2.575
  169DPPC   C43 8443   0.751   3.520   2.566
  169DPPC   C44 8444   0.832   3.492   2.693
  169DPPC   C45 8445   0.982   3.490   2.664
  169DPPC   C46 8446   1.031   3.628   2.620
  169DPPC   C47 8447   1.181   3.654   2.627
  169DPPC   C48 8448   1.220   3.791   2.573
  169DPPC   C49 8449   1.185   3.782   2.424
  169DPPC   C50 8450   1.165   3.911   2.344
  170DPPC    C1 8451   6.837   8.436   1.664
  170DPPC    C2 8452   7.013   8.323   1.598
  170DPPC    C3 8453   7.028   8.483   1.785
  170DPPC    N4 8454   6.954   8.371   1.724
  170DPPC    C5 8455   6.904   8.260   1.806
  170DPPC    C6 8456   7.002   8.170   1.882
  170DPPC    O7 8457   6.928   8.060   1.935
  170DPPC    P8 8458   7.015   7.925   1.924
  170DPPC    O9 8459   7.105   7.941   1.808
  170DPPC   O10 8460   6.925   7.808   1.935
  170DPPC   O11 8461   7.117   7.935   2.048
  170DPPC   C12 8462   7.030   7.904   2.157
  170DPPC   C13 8463   7.103   7.896   2.291
  170DPPC   O14 8464   7.032   7.820   2.391
  170DPPC   C15 8465   7.039   7.684   2.391
  170DPPC   O16 8466   7.075   7.622   2.291
  170DPPC   C17 8467   6.964   7.610   2.502
  170DPPC   C18 8468   6.931   7.688   2.629
  170DPPC   C19 8469   6.881   7.598   2.742
  170DPPC   C20 8470   6.822   7.681   2.857
  170DPPC   C21 8471   6.751   7.596   2.963
  170DPPC   C22 8472   6.702   7.677   3.083
  170DPPC   C23 8473   6.815   7.765   3.137
  170DPPC   C24 8474   6.758   7.858   3.244
  170DPPC   C25 8475   6.636   7.937   3.195
  170DPPC   C26 8476   6.572   8.019   3.308
  170DPPC   C27 8477   6.529   7.908   3.403
  170DPPC   C28 8478   6.453   7.965   3.523
  170DPPC   C29 8479   6.389   7.848   3.599
  170DPPC   C30 8480   6.497   7.750   3.643
  170DPPC   C31 8481   6.417   7.626   3.685
  170DPPC   C32 8482   7.142   8.036   2.338
  170DPPC   O33 8483   7.228   8.043   2.452
  170DPPC   C34 8484   7.254   8.165   2.505
  170DPPC   O35 8485   7.182   8.262   2.477
  170DPPC   C36 8486   7.374   8.179   2.598
  170DPPC   C37 8487   7.490   8.221   2.507
  170DPPC   C38 8488   7.622   8.223   2.583
  170DPPC   C39 8489   7.617   8.330   2.693
  170DPPC   C40 8490   7.751   8.351   2.764
  170DPPC   C41 8491   7.746   8.477   2.849
  170DPPC   C42 8492   7.893   8.504   2.881
  170DPPC   C43 8493   7.921   8.618   2.980
  170DPPC   C44 8494   8.066   8.605   3.026
  170DPPC   C45 8495   8.084   8.700   3.144
  170DPPC   C46 8496   8.217   8.690   3.219
  170DPPC   C47 8497   8.213   8.758   3.356
  170DPPC   C48 8498   8.336   8.705   3.430
  170DPPC   C49 8499   8.325   8.761   3.572
  170DPPC   C50 8500   8.442   8.734   3.667
  171DPPC    C1 8501   5.774   7.430   1.568
  171DPPC    C2 8502   5.710   7.225   1.497
  171DPPC    C3 8503   5.933   7.255   1.603
  171DPPC    N4 8504   5.790   7.288   1.604
  171DPPC    C5 8505   5.738   7.245   1.734
  171DPPC    C6 8506   5.618   7.322   1.789
  171DPPC    O7 8507   5.572   7.254   1.906
  171DPPC    P8 8508   5.445   7.304   1.991
  171DPPC    O9 8509   5.418   7.198   2.090
  171DPPC   O10 8510   5.343   7.323   1.885
  171DPPC   O11 8511   5.517   7.442   2.031
  171DPPC   C12 8512   5.582   7.418   2.156
  171DPPC   C13 8513   5.695   7.517   2.182
  171DPPC   O14 8514   5.789   7.477   2.283
  171DPPC   C15 8515   5.908   7.535   2.313
  171DPPC   O16 8516   5.962   7.620   2.243
  171DPPC   C17 8517   6.001   7.459   2.408
  171DPPC   C18 8518   6.129   7.539   2.431
  171DPPC   C19 8519   6.236   7.481   2.523
  171DPPC   C20 8520   6.195   7.527   2.663
  171DPPC   C21 8521   6.296   7.498   2.774
  171DPPC   C22 8522   6.252   7.576   2.898
  171DPPC   C23 8523   6.325   7.522   3.021
  171DPPC   C24 8524   6.302   7.374   3.050
  171DPPC   C25 8525   6.338   7.333   3.193
  171DPPC   C26 8526   6.228   7.359   3.296
  171DPPC   C27 8527   6.293   7.326   3.431
  171DPPC   C28 8528   6.190   7.328   3.544
  171DPPC   C29 8529   6.227   7.218   3.644
  171DPPC   C30 8530   6.101   7.166   3.712
  171DPPC   C31 8531   6.124   7.059   3.820
  171DPPC   C32 8532   5.638   7.653   2.223
  171DPPC   O33 8533   5.545   7.645   2.331
  171DPPC   C34 8534   5.492   7.763   2.373
  171DPPC   O35 8535   5.524   7.872   2.327
  171DPPC   C36 8536   5.407   7.768   2.500
  171DPPC   C37 8537   5.465   7.859   2.609
  171DPPC   C38 8538   5.374   7.861   2.732
  171DPPC   C39 8539   5.436   7.949   2.840
  171DPPC   C40 8540   5.452   8.092   2.790
  171DPPC   C41 8541   5.535   8.185   2.879
  171DPPC   C42 8542   5.520   8.327   2.826
  171DPPC   C43 8543   5.497   8.426   2.940
  171DPPC   C44 8544   5.620   8.429   3.032
  171DPPC   C45 8545   5.573   8.468   3.172
  171DPPC   C46 8546   5.457   8.376   3.213
  171DPPC   C47 8547   5.391   8.423   3.342
  171DPPC   C48 8548   5.249   8.369   3.362
  171DPPC   C49 8549   5.185   8.455   3.471
  171DPPC   C50 8550   5.035   8.437   3.450
  172DPPC    C1 8551   2.984   5.043   1.852
  172DPPC    C2 8552   2.971   5.036   2.105
  172DPPC    C3 8553   3.084   4.888   1.982
  172DPPC    N4 8554   3.052   5.031   1.982
  172DPPC    C5 8555   3.181   5.098   2.002
  172DPPC    C6 8556   3.178   5.250   1.993
  172DPPC    O7 8557   3.302   5.321   1.997
  172DPPC    P8 8558   3.273   5.469   1.940
  172DPPC    O9 8559   3.131   5.485   1.903
  172DPPC   O10 8560   3.382   5.539   1.868
  172DPPC   O11 8561   3.261   5.546   2.080
  172DPPC   C12 8562   3.395   5.519   2.123
  172DPPC   C13 8563   3.428   5.551   2.269
  172DPPC   O14 8564   3.404   5.440   2.356
  172DPPC   C15 8565   3.514   5.417   2.433
  172DPPC   O16 8566   3.623   5.411   2.376
  172DPPC   C17 8567   3.493   5.319   2.549
  172DPPC   C18 8568   3.448   5.388   2.677
  172DPPC   C19 8569   3.544   5.496   2.728
  172DPPC   C20 8570   3.503   5.547   2.866
  172DPPC   C21 8571   3.590   5.664   2.910
  172DPPC   C22 8572   3.546   5.726   3.043
  172DPPC   C23 8573   3.625   5.853   3.073
  172DPPC   C24 8574   3.547   5.936   3.175
  172DPPC   C25 8575   3.637   6.058   3.198
  172DPPC   C26 8576   3.582   6.144   3.311
  172DPPC   C27 8577   3.637   6.286   3.296
  172DPPC   C28 8578   3.590   6.368   3.417
  172DPPC   C29 8579   3.604   6.288   3.547
  172DPPC   C30 8580   3.620   6.367   3.677
  172DPPC   C31 8581   3.497   6.459   3.685
  172DPPC   C32 8582   3.352   5.681   2.299
  172DPPC   O33 8583   3.354   5.718   2.437
  172DPPC   C34 8584   3.275   5.816   2.488
  172DPPC   O35 8585   3.233   5.901   2.410
  172DPPC   C36 8586   3.273   5.848   2.638
  172DPPC   C37 8587   3.211   5.740   2.727
  172DPPC   C38 8588   3.192   5.790   2.871
  172DPPC   C39 8589   3.105   5.704   2.962
  172DPPC   C40 8590   3.107   5.757   3.105
  172DPPC   C41 8591   3.033   5.665   3.202
  172DPPC   C42 8592   3.053   5.703   3.349
  172DPPC   C43 8593   3.198   5.664   3.379
  172DPPC   C44 8594   3.246   5.731   3.508
  172DPPC   C45 8595   3.213   5.651   3.634
  172DPPC   C46 8596   3.259   5.727   3.759
  172DPPC   C47 8597   3.408   5.759   3.746
  172DPPC   C48 8598   3.463   5.836   3.866
  172DPPC   C49 8599   3.473   5.747   3.990
  172DPPC   C50 8600   3.564   5.624   3.974
  173DPPC    C1 8601   6.056   2.041   2.419
  173DPPC    C2 8602   5.923   2.056   2.228
  173DPPC    C3 8603   5.931   2.248   2.379
  173DPPC    N4 8604   6.007   2.137   2.319
  173DPPC    C5 8605   6.132   2.188   2.262
  173DPPC    C6 8606   6.135   2.294   2.151
  173DPPC    O7 8607   6.257   2.348   2.100
  173DPPC    P8 8608   6.248   2.493   2.031
  173DPPC    O9 8609   6.126   2.469   1.950
  173DPPC   O10 8610   6.374   2.549   1.978
  173DPPC   O11 8611   6.205   2.572   2.165
  173DPPC   C12 8612   6.324   2.631   2.218
  173DPPC   C13 8613   6.303   2.706   2.350
  173DPPC   O14 8614   6.424   2.752   2.412
  173DPPC   C15 8615   6.404   2.865   2.485
  173DPPC   O16 8616   6.317   2.940   2.442
  173DPPC   C17 8617   6.530   2.926   2.548
  173DPPC   C18 8618   6.501   3.012   2.671
  173DPPC   C19 8619   6.591   2.981   2.790
  173DPPC   C20 8620   6.576   2.843   2.854
  173DPPC   C21 8621   6.671   2.831   2.974
  173DPPC   C22 8622   6.642   2.700   3.047
  173DPPC   C23 8623   6.729   2.663   3.168
  173DPPC   C24 8624   6.674   2.756   3.276
  173DPPC   C25 8625   6.745   2.733   3.410
  173DPPC   C26 8626   6.654   2.810   3.506
  173DPPC   C27 8627   6.723   2.830   3.641
  173DPPC   C28 8628   6.752   2.702   3.720
  173DPPC   C29 8629   6.803   2.749   3.857
  173DPPC   C30 8630   6.693   2.833   3.921
  173DPPC   C31 8631   6.729   2.889   4.059
  173DPPC   C32 8632   6.248   2.587   2.429
  173DPPC   O33 8633   6.211   2.601   2.567
  173DPPC   C34 8634   6.189   2.490   2.642
  173DPPC   O35 8635   6.164   2.384   2.585
  173DPPC   C36 8636   6.155   2.511   2.790
  173DPPC   C37 8637   6.263   2.528   2.897
  173DPPC   C38 8638   6.207   2.602   3.019
  173DPPC   C39 8639   6.291   2.608   3.147
  173DPPC   C40 8640   6.244   2.712   3.248
  173DPPC   C41 8641   6.288   2.681   3.392
  173DPPC   C42 8642   6.223   2.782   3.486
  173DPPC   C43 8643   6.287   2.786   3.625
  173DPPC   C44 8644   6.274   2.643   3.678
  173DPPC   C45 8645   6.320   2.649   3.824
  173DPPC   C46 8646   6.242   2.754   3.903
  173DPPC   C47 8647   6.287   2.763   4.049
  173DPPC   C48 8648   6.240   2.897   4.107
  173DPPC   C49 8649   6.330   3.019   4.087
  173DPPC   C50 8650   6.259   3.153   4.101
  174DPPC    C1 8651   8.975   4.946   1.336
  174DPPC    C2 8652   9.121   4.888   1.496
  174DPPC    C3 8653   8.982   4.709   1.418
  174DPPC    N4 8654   9.055   4.831   1.378
  174DPPC    C5 8655   9.140   4.817   1.259
  174DPPC    C6 8656   9.228   4.692   1.258
  174DPPC    O7 8657   9.303   4.681   1.380
  174DPPC    P8 8658   9.373   4.537   1.360
  174DPPC    O9 8659   9.459   4.542   1.239
  174DPPC   O10 8660   9.258   4.444   1.361
  174DPPC   O11 8661   9.459   4.545   1.496
  174DPPC   C12 8662   9.375   4.508   1.606
  174DPPC   C13 8663   9.445   4.525   1.740
  174DPPC   O14 8664   9.365   4.491   1.854
  174DPPC   C15 8665   9.376   4.359   1.886
  174DPPC   O16 8666   9.425   4.276   1.809
  174DPPC   C17 8667   9.315   4.309   2.017
  174DPPC   C18 8668   9.309   4.415   2.127
  174DPPC   C19 8669   9.250   4.353   2.254
  174DPPC   C20 8670   9.242   4.449   2.373
  174DPPC   C21 8671   9.158   4.403   2.492
  174DPPC   C22 8672   9.159   4.493   2.616
  174DPPC   C23 8673   9.098   4.410   2.729
  174DPPC   C24 8674   9.099   4.475   2.868
  174DPPC   C25 8675   9.087   4.368   2.977
  174DPPC   C26 8676   9.061   4.422   3.118
  174DPPC   C27 8677   9.022   4.311   3.216
  174DPPC   C28 8678   8.893   4.242   3.171
  174DPPC   C29 8679   8.859   4.148   3.287
  174DPPC   C30 8680   8.740   4.057   3.254
  174DPPC   C31 8681   8.656   4.025   3.377
  174DPPC   C32 8682   9.514   4.662   1.741
  174DPPC   O33 8683   9.427   4.772   1.714
  174DPPC   C34 8684   9.489   4.893   1.720
  174DPPC   O35 8685   9.612   4.898   1.714
  174DPPC   C36 8686   9.393   5.012   1.715
  174DPPC   C37 8687   9.433   5.112   1.823
  174DPPC   C38 8688   9.339   5.233   1.820
  174DPPC   C39 8689   9.350   5.335   1.933
  174DPPC   C40 8690   9.341   5.273   2.073
  174DPPC   C41 8691   9.324   5.383   2.179
  174DPPC   C42 8692   9.306   5.314   2.314
  174DPPC   C43 8693   9.336   5.413   2.427
  174DPPC   C44 8694   9.300   5.350   2.562
  174DPPC   C45 8695   9.339   5.446   2.675
  174DPPC   C46 8696   9.281   5.402   2.810
  174DPPC   C47 8697   9.323   5.511   2.909
  174DPPC   C48 8698   9.251   5.478   3.040
  174DPPC   C49 8699   9.101   5.489   3.010
  174DPPC   C50 8700   9.008   5.442   3.122
  175DPPC    C1 8701   3.744   1.778   2.119
  175DPPC    C2 8702   3.934   1.894   2.196
  175DPPC    C3 8703   3.728   1.988   2.235
  175DPPC    N4 8704   3.796   1.858   2.231
  175DPPC    C5 8705   3.804   1.793   2.363
  175DPPC    C6 8706   3.673   1.724   2.405
  175DPPC    O7 8707   3.560   1.809   2.423
  175DPPC    P8 8708   3.422   1.728   2.442
  175DPPC    O9 8709   3.462   1.588   2.468
  175DPPC   O10 8710   3.322   1.780   2.345
  175DPPC   O11 8711   3.401   1.799   2.585
  175DPPC   C12 8712   3.434   1.704   2.687
  175DPPC   C13 8713   3.458   1.770   2.823
  175DPPC   O14 8714   3.541   1.702   2.918
  175DPPC   C15 8715   3.674   1.687   2.895
  175DPPC   O16 8716   3.734   1.755   2.812
  175DPPC   C17 8717   3.744   1.608   3.006
  175DPPC   C18 8718   3.728   1.692   3.133
  175DPPC   C19 8719   3.777   1.636   3.267
  175DPPC   C20 8720   3.790   1.746   3.373
  175DPPC   C21 8721   3.828   1.695   3.512
  175DPPC   C22 8722   3.960   1.620   3.530
  175DPPC   C23 8723   3.987   1.587   3.677
  175DPPC   C24 8724   3.999   1.701   3.778
  175DPPC   C25 8725   4.019   1.657   3.923
  175DPPC   C26 8726   4.047   1.783   4.006
  175DPPC   C27 8727   4.090   1.742   4.147
  175DPPC   C28 8728   4.159   1.856   4.223
  175DPPC   C29 8729   4.178   1.831   4.373
  175DPPC   C30 8730   4.270   1.709   4.376
  175DPPC   C31 8731   4.408   1.732   4.315
  175DPPC   C32 8732   3.323   1.827   2.868
  175DPPC   O33 8733   3.229   1.720   2.879
  175DPPC   C34 8734   3.113   1.739   2.948
  175DPPC   O35 8735   3.040   1.825   2.898
  175DPPC   C36 8736   3.058   1.601   2.985
  175DPPC   C37 8737   2.918   1.624   3.042
  175DPPC   C38 8738   2.853   1.489   3.075
  175DPPC   C39 8739   2.938   1.398   3.164
  175DPPC   C40 8740   2.861   1.267   3.178
  175DPPC   C41 8741   2.942   1.173   3.268
  175DPPC   C42 8742   2.967   1.238   3.404
  175DPPC   C43 8743   3.079   1.171   3.483
  175DPPC   C44 8744   3.136   1.248   3.602
  175DPPC   C45 8745   3.250   1.152   3.636
  175DPPC   C46 8746   3.338   1.208   3.747
  175DPPC   C47 8747   3.272   1.245   3.880
  175DPPC   C48 8748   3.388   1.245   3.980
  175DPPC   C49 8749   3.339   1.293   4.117
  175DPPC   C50 8750   3.433   1.265   4.234
  176DPPC    C1 8751   8.316   4.771   1.396
  176DPPC    C2 8752   8.385   4.798   1.165
  176DPPC    C3 8753   8.152   4.777   1.229
  176DPPC    N4 8754   8.284   4.832   1.266
  176DPPC    C5 8755   8.269   4.978   1.277
  176DPPC    C6 8756   8.399   5.059   1.289
  176DPPC    O7 8757   8.443   5.074   1.424
  176DPPC    P8 8758   8.599   5.113   1.433
  176DPPC    O9 8759   8.608   5.245   1.498
  176DPPC   O10 8760   8.655   5.105   1.296
  176DPPC   O11 8761   8.650   4.986   1.518
  176DPPC   C12 8762   8.579   4.964   1.641
  176DPPC   C13 8763   8.643   4.860   1.733
  176DPPC   O14 8764   8.561   4.827   1.846
  176DPPC   C15 8765   8.587   4.705   1.902
  176DPPC   O16 8766   8.646   4.620   1.837
  176DPPC   C17 8767   8.510   4.671   2.030
  176DPPC   C18 8768   8.369   4.613   2.014
  176DPPC   C19 8769   8.305   4.589   2.151
  176DPPC   C20 8770   8.160   4.540   2.161
  176DPPC   C21 8771   8.135   4.480   2.300
  176DPPC   C22 8772   7.992   4.428   2.309
  176DPPC   C23 8773   7.956   4.368   2.446
  176DPPC   C24 8774   7.923   4.480   2.545
  176DPPC   C25 8775   7.897   4.431   2.688
  176DPPC   C26 8776   7.825   4.532   2.777
  176DPPC   C27 8777   7.805   4.486   2.922
  176DPPC   C28 8778   7.726   4.591   3.000
  176DPPC   C29 8779   7.743   4.561   3.149
  176DPPC   C30 8780   7.894   4.581   3.160
  176DPPC   C31 8781   7.948   4.508   3.284
  176DPPC   C32 8782   8.786   4.905   1.761
  176DPPC   O33 8783   8.790   5.036   1.820
  176DPPC   C34 8784   8.914   5.086   1.847
  176DPPC   O35 8785   9.013   5.020   1.816
  176DPPC   C36 8786   8.904   5.209   1.937
  176DPPC   C37 8787   8.900   5.178   2.087
  176DPPC   C38 8788   8.914   5.313   2.156
  176DPPC   C39 8789   8.884   5.297   2.305
  176DPPC   C40 8790   8.918   5.420   2.390
  176DPPC   C41 8791   8.866   5.407   2.533
  176DPPC   C42 8792   8.853   5.538   2.610
  176DPPC   C43 8793   8.798   5.503   2.748
  176DPPC   C44 8794   8.762   5.640   2.806
  176DPPC   C45 8795   8.701   5.630   2.946
  176DPPC   C46 8796   8.575   5.543   2.952
  176DPPC   C47 8797   8.449   5.620   2.914
  176DPPC   C48 8798   8.326   5.529   2.904
  176DPPC   C49 8799   8.228   5.607   2.816
  176DPPC   C50 8800   8.188   5.727   2.902
  177DPPC    C1 8801   9.158   2.625   1.828
  177DPPC    C2 8802   8.969   2.630   1.675
  177DPPC    C3 8803   8.963   2.707   1.897
  177DPPC    N4 8804   9.046   2.704   1.775
  177DPPC    C5 8805   9.100   2.834   1.733
  177DPPC    C6 8806   9.038   2.906   1.614
  177DPPC    O7 8807   8.906   2.953   1.645
  177DPPC    P8 8808   8.918   3.110   1.679
  177DPPC    O9 8809   8.838   3.197   1.590
  177DPPC   O10 8810   9.055   3.139   1.727
  177DPPC   O11 8811   8.834   3.104   1.816
  177DPPC   C12 8812   8.918   3.109   1.932
  177DPPC   C13 8813   8.855   3.140   2.068
  177DPPC   O14 8814   8.800   3.024   2.131
  177DPPC   C15 8815   8.872   2.937   2.207
  177DPPC   O16 8816   8.995   2.930   2.205
  177DPPC   C17 8817   8.792   2.829   2.280
  177DPPC   C18 8818   8.772   2.864   2.428
  177DPPC   C19 8819   8.689   2.767   2.513
  177DPPC   C20 8820   8.662   2.824   2.652
  177DPPC   C21 8821   8.570   2.726   2.726
  177DPPC   C22 8822   8.583   2.731   2.878
  177DPPC   C23 8823   8.495   2.627   2.947
  177DPPC   C24 8824   8.482   2.632   3.100
  177DPPC   C25 8825   8.433   2.767   3.152
  177DPPC   C26 8826   8.398   2.758   3.301
  177DPPC   C27 8827   8.295   2.651   3.336
  177DPPC   C28 8828   8.274   2.633   3.486
  177DPPC   C29 8829   8.156   2.537   3.501
  177DPPC   C30 8830   8.141   2.511   3.651
  177DPPC   C31 8831   8.011   2.445   3.699
  177DPPC   C32 8832   8.750   3.250   2.051
  177DPPC   O33 8833   8.668   3.280   2.164
  177DPPC   C34 8834   8.565   3.204   2.208
  177DPPC   O35 8835   8.521   3.107   2.145
  177DPPC   C36 8836   8.488   3.249   2.332
  177DPPC   C37 8837   8.585   3.308   2.435
  177DPPC   C38 8838   8.507   3.362   2.556
  177DPPC   C39 8839   8.612   3.419   2.652
  177DPPC   C40 8840   8.705   3.306   2.696
  177DPPC   C41 8841   8.796   3.360   2.807
  177DPPC   C42 8842   8.905   3.253   2.816
  177DPPC   C43 8843   8.846   3.130   2.886
  177DPPC   C44 8844   8.946   3.024   2.929
  177DPPC   C45 8845   8.894   2.902   3.006
  177DPPC   C46 8846   9.002   2.830   3.086
  177DPPC   C47 8847   8.961   2.737   3.201
  177DPPC   C48 8848   8.859   2.630   3.163
  177DPPC   C49 8849   8.785   2.561   3.277
  177DPPC   C50 8850   8.870   2.457   3.350
  178DPPC    C1 8851   8.009   2.264   1.979
  178DPPC    C2 8852   8.111   2.477   2.040
  178DPPC    C3 8853   8.187   2.264   2.129
  178DPPC    N4 8854   8.133   2.334   2.012
  178DPPC    C5 8855   8.220   2.320   1.894
  178DPPC    C6 8856   8.371   2.329   1.918
  178DPPC    O7 8857   8.417   2.461   1.944
  178DPPC    P8 8858   8.566   2.463   2.005
  178DPPC    O9 8859   8.604   2.605   2.026
  178DPPC   O10 8860   8.655   2.387   1.915
  178DPPC   O11 8861   8.521   2.387   2.140
  178DPPC   C12 8862   8.484   2.473   2.248
  178DPPC   C13 8863   8.449   2.392   2.373
  178DPPC   O14 8864   8.420   2.471   2.489
  178DPPC   C15 8865   8.287   2.492   2.511
  178DPPC   O16 8866   8.210   2.492   2.415
  178DPPC   C17 8867   8.237   2.517   2.653
  178DPPC   C18 8868   8.085   2.508   2.666
  178DPPC   C19 8869   8.062   2.543   2.814
  178DPPC   C20 8870   8.103   2.688   2.843
  178DPPC   C21 8871   8.064   2.700   2.991
  178DPPC   C22 8872   8.042   2.848   3.023
  178DPPC   C23 8873   8.015   2.856   3.174
  178DPPC   C24 8874   8.003   3.005   3.208
  178DPPC   C25 8875   8.066   3.037   3.343
  178DPPC   C26 8876   8.099   3.185   3.361
  178DPPC   C27 8877   8.126   3.234   3.503
  178DPPC   C28 8878   8.259   3.171   3.546
  178DPPC   C29 8879   8.303   3.221   3.683
  178DPPC   C30 8880   8.441   3.160   3.707
  178DPPC   C31 8881   8.498   3.203   3.843
  178DPPC   C32 8882   8.572   2.304   2.394
  178DPPC   O33 8883   8.563   2.191   2.482
  178DPPC   C34 8884   8.492   2.077   2.464
  178DPPC   O35 8885   8.443   2.051   2.355
  178DPPC   C36 8886   8.486   1.987   2.588
  178DPPC   C37 8887   8.377   2.034   2.685
  178DPPC   C38 8888   8.383   1.963   2.821
  178DPPC   C39 8889   8.258   2.012   2.894
  178DPPC   C40 8890   8.239   1.941   3.028
  178DPPC   C41 8891   8.118   2.004   3.097
  178DPPC   C42 8892   8.101   1.926   3.227
  178DPPC   C43 8893   7.974   1.983   3.289
  178DPPC   C44 8894   7.944   1.929   3.429
  178DPPC   C45 8895   7.840   2.026   3.485
  178DPPC   C46 8896   7.757   1.969   3.601
  178DPPC   C47 8897   7.670   1.852   3.553
  178DPPC   C48 8898   7.588   1.792   3.667
  178DPPC   C49 8899   7.484   1.888   3.725
  178DPPC   C50 8900   7.349   1.816   3.736
  179DPPC    C1 8901   5.276   6.445   2.145
  179DPPC    C2 8902   5.393   6.345   2.327
  179DPPC    C3 8903   5.165   6.340   2.321
  179DPPC    N4 8904   5.282   6.327   2.232
  179DPPC    C5 8905   5.305   6.193   2.177
  179DPPC    C6 8906   5.185   6.136   2.100
  179DPPC    O7 8907   5.152   6.191   1.972
  179DPPC    P8 8908   4.993   6.185   1.950
  179DPPC    O9 8909   4.939   6.051   1.984
  179DPPC   O10 8910   4.950   6.266   1.834
  179DPPC   O11 8911   4.951   6.271   2.080
  179DPPC   C12 8912   4.835   6.354   2.072
  179DPPC   C13 8913   4.780   6.418   2.200
  179DPPC   O14 8914   4.870   6.516   2.254
  179DPPC   C15 8915   4.816   6.605   2.341
  179DPPC   O16 8916   4.708   6.658   2.313
  179DPPC   C17 8917   4.899   6.649   2.461
  179DPPC   C18 8918   4.867   6.568   2.586
  179DPPC   C19 8919   4.958   6.590   2.708
  179DPPC   C20 8920   5.104   6.578   2.664
  179DPPC   C21 8921   5.206   6.579   2.778
  179DPPC   C22 8922   5.187   6.440   2.840
  179DPPC   C23 8923   5.269   6.423   2.968
  179DPPC   C24 8924   5.205   6.514   3.073
  179DPPC   C25 8925   5.277   6.503   3.207
  179DPPC   C26 8926   5.269   6.360   3.263
  179DPPC   C27 8927   5.347   6.364   3.395
  179DPPC   C28 8928   5.315   6.246   3.487
  179DPPC   C29 8929   5.368   6.278   3.627
  179DPPC   C30 8930   5.367   6.156   3.720
  179DPPC   C31 8931   5.228   6.139   3.781
  179DPPC   C32 8932   4.750   6.288   2.275
  179DPPC   O33 8933   4.742   6.289   2.417
  179DPPC   C34 8934   4.712   6.176   2.487
  179DPPC   O35 8935   4.701   6.072   2.423
  179DPPC   C36 8936   4.721   6.176   2.640
  179DPPC   C37 8937   4.854   6.175   2.716
  179DPPC   C38 8938   4.830   6.167   2.867
  179DPPC   C39 8939   4.960   6.135   2.941
  179DPPC   C40 8940   4.951   6.157   3.092
  179DPPC   C41 8941   4.829   6.072   3.126
  179DPPC   C42 8942   4.809   6.044   3.275
  179DPPC   C43 8943   4.686   5.960   3.308
  179DPPC   C44 8944   4.642   5.980   3.453
  179DPPC   C45 8945   4.525   5.887   3.487
  179DPPC   C46 8946   4.472   5.902   3.630
  179DPPC   C47 8947   4.335   5.835   3.635
  179DPPC   C48 8948   4.344   5.683   3.615
  179DPPC   C49 8949   4.241   5.604   3.695
  179DPPC   C50 8950   4.094   5.645   3.686
  180DPPC    C1 8951   5.976   2.670   1.511
  180DPPC    C2 8952   6.199   2.653   1.580
  180DPPC    C3 8953   6.088   2.866   1.577
  180DPPC    N4 8954   6.073   2.723   1.608
  180DPPC    C5 8955   6.020   2.718   1.745
  180DPPC    C6 8956   6.098   2.791   1.853
  180DPPC    O7 8957   6.014   2.807   1.968
  180DPPC    P8 8958   6.087   2.902   2.076
  180DPPC    O9 8959   6.006   3.026   2.077
  180DPPC   O10 8960   6.234   2.903   2.059
  180DPPC   O11 8961   6.052   2.815   2.207
  180DPPC   C12 8962   5.948   2.884   2.277
  180DPPC   C13 8963   5.932   2.815   2.412
  180DPPC   O14 8964   5.796   2.783   2.443
  180DPPC   C15 8965   5.765   2.663   2.501
  180DPPC   O16 8966   5.788   2.562   2.434
  180DPPC   C17 8967   5.682   2.652   2.629
  180DPPC   C18 8968   5.755   2.551   2.718
  180DPPC   C19 8969   5.731   2.549   2.869
  180DPPC   C20 8970   5.796   2.424   2.928
  180DPPC   C21 8971   5.773   2.404   3.078
  180DPPC   C22 8972   5.832   2.267   3.114
  180DPPC   C23 8973   5.985   2.266   3.099
  180DPPC   C24 8974   6.031   2.122   3.121
  180DPPC   C25 8975   6.163   2.099   3.048
  180DPPC   C26 8976   6.258   2.203   3.107
  180DPPC   C27 8977   6.397   2.186   3.045
  180DPPC   C28 8978   6.503   2.279   3.107
  180DPPC   C29 8979   6.495   2.268   3.259
  180DPPC   C30 8980   6.578   2.376   3.328
  180DPPC   C31 8981   6.581   2.348   3.479
  180DPPC   C32 8982   6.025   2.893   2.505
  180DPPC   O33 8983   5.985   2.908   2.642
  180DPPC   C34 8984   6.052   2.999   2.719
  180DPPC   O35 8985   6.108   3.093   2.665
  180DPPC   C36 8986   6.013   3.007   2.867
  180DPPC   C37 8987   5.866   2.977   2.896
  180DPPC   C38 8988   5.835   3.002   3.043
  180DPPC   C39 8989   5.699   2.949   3.086
  180DPPC   C40 8990   5.675   2.963   3.236
  180DPPC   C41 8991   5.555   2.894   3.302
  180DPPC   C42 8992   5.564   2.895   3.455
  180DPPC   C43 8993   5.431   2.839   3.505
  180DPPC   C44 8994   5.411   2.845   3.657
  180DPPC   C45 8995   5.276   2.784   3.690
  180DPPC   C46 8996   5.175   2.872   3.617
  180DPPC   C47 8997   5.150   2.994   3.706
  180DPPC   C48 8998   5.032   3.076   3.654
  180DPPC   C49 8999   4.951   3.134   3.770
  180DPPC   C50 9000   5.041   3.193   3.879
  181DPPC    C1 9001   5.639   5.903   1.698
  181DPPC    C2 9002   5.799   5.867   1.883
  181DPPC    C3 9003   5.586   5.972   1.906
  181DPPC    N4 9004   5.660   5.865   1.838
  181DPPC    C5 9005   5.597   5.737   1.876
  181DPPC    C6 9006   5.618   5.604   1.805
  181DPPC    O7 9007   5.588   5.489   1.885
  181DPPC    P8 9008   5.670   5.357   1.844
  181DPPC    O9 9009   5.750   5.401   1.728
  181DPPC   O10 9010   5.570   5.250   1.822
  181DPPC   O11 9011   5.749   5.339   1.984
  181DPPC   C12 9012   5.652   5.343   2.089
  181DPPC   C13 9013   5.709   5.321   2.230
  181DPPC   O14 9014   5.619   5.372   2.330
  181DPPC   C15 9015   5.529   5.285   2.383
  181DPPC   O16 9016   5.521   5.166   2.356
  181DPPC   C17 9017   5.485   5.344   2.517
  181DPPC   C18 9018   5.350   5.412   2.497
  181DPPC   C19 9019   5.312   5.500   2.616
  181DPPC   C20 9020   5.252   5.417   2.730
  181DPPC   C21 9021   5.268   5.491   2.863
  181DPPC   C22 9022   5.200   5.424   2.982
  181DPPC   C23 9023   5.206   5.518   3.103
  181DPPC   C24 9024   5.172   5.451   3.237
  181DPPC   C25 9025   5.033   5.387   3.237
  181DPPC   C26 9026   4.922   5.491   3.250
  181DPPC   C27 9027   4.790   5.437   3.197
  181DPPC   C28 9028   4.669   5.511   3.256
  181DPPC   C29 9029   4.545   5.466   3.180
  181DPPC   C30 9030   4.424   5.554   3.214
  181DPPC   C31 9031   4.441   5.691   3.146
  181DPPC   C32 9032   5.850   5.380   2.240
  181DPPC   O33 9033   5.927   5.321   2.345
  181DPPC   C34 9034   6.061   5.342   2.347
  181DPPC   O35 9035   6.109   5.430   2.275
  181DPPC   C36 9036   6.142   5.262   2.449
  181DPPC   C37 9037   6.161   5.356   2.568
  181DPPC   C38 9038   6.215   5.296   2.698
  181DPPC   C39 9039   6.207   5.395   2.815
  181DPPC   C40 9040   6.272   5.333   2.939
  181DPPC   C41 9041   6.423   5.306   2.931
  181DPPC   C42 9042   6.470   5.244   3.063
  181DPPC   C43 9043   6.617   5.200   3.068
  181DPPC   C44 9044   6.634   5.092   3.175
  181DPPC   C45 9045   6.541   4.971   3.161
  181DPPC   C46 9046   6.597   4.845   3.227
  181DPPC   C47 9047   6.620   4.880   3.374
  181DPPC   C48 9048   6.698   4.777   3.456
  181DPPC   C49 9049   6.646   4.634   3.450
  181DPPC   C50 9050   6.732   4.527   3.516
  182DPPC    C1 9051   8.078   0.613   1.611
  182DPPC    C2 9052   8.299   0.706   1.588
  182DPPC    C3 9053   8.175   0.667   1.396
  182DPPC    N4 9054   8.162   0.708   1.536
  182DPPC    C5 9055   8.113   0.847   1.546
  182DPPC    C6 9056   7.969   0.880   1.507
  182DPPC    O7 9057   7.950   1.021   1.491
  182DPPC    P8 9058   7.809   1.033   1.414
  182DPPC    O9 9059   7.802   0.914   1.327
  182DPPC   O10 9060   7.794   1.174   1.372
  182DPPC   O11 9061   7.738   0.992   1.552
  182DPPC   C12 9062   7.725   1.111   1.630
  182DPPC   C13 9063   7.663   1.068   1.764
  182DPPC   O14 9064   7.633   1.184   1.842
  182DPPC   C15 9065   7.517   1.254   1.827
  182DPPC   O16 9066   7.429   1.225   1.747
  182DPPC   C17 9067   7.497   1.379   1.914
  182DPPC   C18 9068   7.380   1.363   2.011
  182DPPC   C19 9069   7.349   1.501   2.069
  182DPPC   C20 9070   7.244   1.492   2.179
  182DPPC   C21 9071   7.193   1.629   2.226
  182DPPC   C22 9072   7.094   1.608   2.341
  182DPPC   C23 9073   7.153   1.545   2.467
  182DPPC   C24 9074   7.045   1.521   2.572
  182DPPC   C25 9075   7.112   1.484   2.705
  182DPPC   C26 9076   7.015   1.471   2.823
  182DPPC   C27 9077   7.081   1.467   2.961
  182DPPC   C28 9078   6.996   1.408   3.073
  182DPPC   C29 9079   7.074   1.419   3.204
  182DPPC   C30 9080   6.990   1.341   3.306
  182DPPC   C31 9081   7.043   1.340   3.449
  182DPPC   C32 9082   7.762   0.964   1.818
  182DPPC   O33 9083   7.882   1.034   1.850
  182DPPC   C34 9084   7.986   0.959   1.895
  182DPPC   O35 9085   7.993   0.837   1.884
  182DPPC   C36 9086   8.083   1.045   1.976
  182DPPC   C37 9087   8.039   1.082   2.118
  182DPPC   C38 9088   8.141   1.172   2.188
  182DPPC   C39 9089   8.111   1.186   2.337
  182DPPC   C40 9090   8.222   1.270   2.400
  182DPPC   C41 9091   8.189   1.309   2.544
  182DPPC   C42 9092   8.094   1.429   2.538
  182DPPC   C43 9093   8.067   1.502   2.670
  182DPPC   C44 9094   8.002   1.635   2.631
  182DPPC   C45 9095   7.962   1.714   2.756
  182DPPC   C46 9096   7.836   1.641   2.802
  182DPPC   C47 9097   7.781   1.711   2.926
  182DPPC   C48 9098   7.648   1.649   2.972
  182DPPC   C49 9099   7.602   1.697   3.110
  182DPPC   C50 9100   7.700   1.672   3.224
  183DPPC    C1 9101   7.527   3.547   1.970
  183DPPC    C2 9102   7.560   3.738   1.847
  183DPPC    C3 9103   7.465   3.539   1.741
  183DPPC    N4 9104   7.467   3.625   1.861
  183DPPC    C5 9105   7.336   3.684   1.890
  183DPPC    C6 9106   7.207   3.602   1.894
  183DPPC    O7 9107   7.194   3.493   1.985
  183DPPC    P8 9108   7.054   3.414   1.983
  183DPPC    O9 9109   7.065   3.309   2.087
  183DPPC   O10 9110   7.020   3.389   1.842
  183DPPC   O11 9111   6.970   3.536   2.046
  183DPPC   C12 9112   6.943   3.508   2.184
  183DPPC   C13 9113   7.020   3.607   2.272
  183DPPC   O14 9114   7.036   3.552   2.403
  183DPPC   C15 9115   7.140   3.614   2.467
  183DPPC   O16 9116   7.244   3.648   2.411
  183DPPC   C17 9117   7.137   3.595   2.618
  183DPPC   C18 9118   7.248   3.504   2.672
  183DPPC   C19 9119   7.222   3.484   2.821
  183DPPC   C20 9120   7.318   3.398   2.904
  183DPPC   C21 9121   7.257   3.403   3.045
  183DPPC   C22 9122   7.354   3.327   3.136
  183DPPC   C23 9123   7.298   3.343   3.277
  183DPPC   C24 9124   7.388   3.297   3.392
  183DPPC   C25 9125   7.309   3.283   3.522
  183DPPC   C26 9126   7.380   3.233   3.648
  183DPPC   C27 9127   7.509   3.310   3.680
  183DPPC   C28 9128   7.567   3.277   3.818
  183DPPC   C29 9129   7.467   3.268   3.933
  183DPPC   C30 9130   7.539   3.214   4.057
  183DPPC   C31 9131   7.604   3.077   4.039
  183DPPC   C32 9132   6.945   3.739   2.258
  183DPPC   O33 9133   7.009   3.851   2.321
  183DPPC   C34 9134   7.117   3.906   2.260
  183DPPC   O35 9135   7.175   3.852   2.166
  183DPPC   C36 9136   7.178   4.029   2.327
  183DPPC   C37 9137   7.269   3.991   2.444
  183DPPC   C38 9138   7.181   3.978   2.568
  183DPPC   C39 9139   7.274   3.960   2.688
  183DPPC   C40 9140   7.183   3.948   2.811
  183DPPC   C41 9141   7.232   3.843   2.911
  183DPPC   C42 9142   7.366   3.899   2.961
  183DPPC   C43 9143   7.425   3.824   3.080
  183DPPC   C44 9144   7.325   3.832   3.196
  183DPPC   C45 9145   7.375   3.782   3.332
  183DPPC   C46 9146   7.274   3.818   3.441
  183DPPC   C47 9147   7.149   3.736   3.410
  183DPPC   C48 9148   7.039   3.748   3.515
  183DPPC   C49 9149   6.946   3.628   3.496
  183DPPC   C50 9150   6.865   3.643   3.367
  184DPPC    C1 9151   1.650   1.780   1.814
  184DPPC    C2 9152   1.440   1.807   1.922
  184DPPC    C3 9153   1.634   1.777   2.044
  184DPPC    N4 9154   1.582   1.847   1.925
  184DPPC    C5 9155   1.608   1.990   1.944
  184DPPC    C6 9156   1.552   2.076   1.830
  184DPPC    O7 9157   1.598   2.211   1.842
  184DPPC    P8 9158   1.525   2.276   1.715
  184DPPC    O9 9159   1.488   2.184   1.605
  184DPPC   O10 9160   1.576   2.415   1.707
  184DPPC   O11 9161   1.396   2.297   1.809
  184DPPC   C12 9162   1.419   2.397   1.909
  184DPPC   C13 9163   1.308   2.410   2.014
  184DPPC   O14 9164   1.326   2.530   2.091
  184DPPC   C15 9165   1.215   2.606   2.114
  184DPPC   O16 9166   1.121   2.584   2.038
  184DPPC   C17 9167   1.235   2.728   2.204
  184DPPC   C18 9168   1.266   2.675   2.344
  184DPPC   C19 9169   1.135   2.624   2.404
  184DPPC   C20 9170   1.152   2.603   2.555
  184DPPC   C21 9171   1.023   2.565   2.628
  184DPPC   C22 9172   1.045   2.580   2.778
  184DPPC   C23 9173   0.920   2.512   2.835
  184DPPC   C24 9174   0.900   2.560   2.979
  184DPPC   C25 9175   0.790   2.502   3.067
  184DPPC   C26 9176   0.777   2.558   3.209
  184DPPC   C27 9177   0.648   2.495   3.261
  184DPPC   C28 9178   0.616   2.521   3.409
  184DPPC   C29 9179   0.722   2.448   3.492
  184DPPC   C30 9180   0.696   2.297   3.486
  184DPPC   C31 9181   0.801   2.234   3.577
  184DPPC   C32 9182   1.297   2.274   2.083
  184DPPC   O33 9183   1.420   2.245   2.149
  184DPPC   C34 9184   1.429   2.126   2.215
  184DPPC   O35 9185   1.391   2.026   2.154
  184DPPC   C36 9186   1.554   2.114   2.303
  184DPPC   C37 9187   1.544   2.019   2.423
  184DPPC   C38 9188   1.670   2.033   2.509
  184DPPC   C39 9189   1.646   1.965   2.644
  184DPPC   C40 9190   1.776   1.994   2.719
  184DPPC   C41 9191   1.793   2.146   2.712
  184DPPC   C42 9192   1.710   2.214   2.821
  184DPPC   C43 9193   1.749   2.146   2.953
  184DPPC   C44 9194   1.711   2.226   3.078
  184DPPC   C45 9195   1.776   2.155   3.197
  184DPPC   C46 9196   1.755   2.005   3.175
  184DPPC   C47 9197   1.834   1.915   3.269
  184DPPC   C48 9198   1.808   1.766   3.249
  184DPPC   C49 9199   1.871   1.687   3.364
  184DPPC   C50 9200   1.822   1.542   3.367
  185DPPC    C1 9201   6.606   7.269   1.717
  185DPPC    C2 9202   6.556   7.356   1.952
  185DPPC    C3 9203   6.430   7.415   1.762
  185DPPC    N4 9204   6.510   7.308   1.822
  185DPPC    C5 9205   6.410   7.203   1.845
  185DPPC    C6 9206   6.443   7.057   1.875
  185DPPC    O7 9207   6.551   7.051   1.968
  185DPPC    P8 9208   6.657   6.937   1.927
  185DPPC    O9 9209   6.782   6.979   1.995
  185DPPC   O10 9210   6.653   6.923   1.780
  185DPPC   O11 9211   6.596   6.820   2.020
  185DPPC   C12 9212   6.611   6.861   2.156
  185DPPC   C13 9213   6.515   6.777   2.241
  185DPPC   O14 9214   6.506   6.802   2.382
  185DPPC   C15 9215   6.394   6.755   2.443
  185DPPC   O16 9216   6.303   6.703   2.378
  185DPPC   C17 9217   6.379   6.790   2.591
  185DPPC   C18 9218   6.244   6.856   2.618
  185DPPC   C19 9219   6.195   6.830   2.761
  185DPPC   C20 9220   6.277   6.895   2.873
  185DPPC   C21 9221   6.228   6.866   3.015
  185DPPC   C22 9222   6.323   6.937   3.111
  185DPPC   C23 9223   6.297   6.901   3.258
  185DPPC   C24 9224   6.394   6.965   3.358
  185DPPC   C25 9225   6.383   6.897   3.495
  185DPPC   C26 9226   6.466   6.985   3.589
  185DPPC   C27 9227   6.504   6.912   3.719
  185DPPC   C28 9228   6.584   6.990   3.823
  185DPPC   C29 9229   6.638   6.892   3.928
  185DPPC   C30 9230   6.533   6.863   4.035
  185DPPC   C31 9231   6.588   6.771   4.144
  185DPPC   C32 9232   6.580   6.640   2.218
  185DPPC   O33 9233   6.722   6.633   2.231
  185DPPC   C34 9234   6.774   6.522   2.172
  185DPPC   O35 9235   6.704   6.444   2.108
  185DPPC   C36 9236   6.925   6.521   2.200
  185DPPC   C37 9237   6.975   6.418   2.301
  185DPPC   C38 9238   6.978   6.470   2.444
  185DPPC   C39 9239   7.012   6.357   2.542
  185DPPC   C40 9240   7.023   6.409   2.685
  185DPPC   C41 9241   7.061   6.302   2.787
  185DPPC   C42 9242   7.191   6.222   2.770
  185DPPC   C43 9243   7.187   6.099   2.862
  185DPPC   C44 9244   7.308   6.010   2.834
  185DPPC   C45 9245   7.312   5.895   2.934
  185DPPC   C46 9246   7.438   5.808   2.937
  185DPPC   C47 9247   7.430   5.711   2.819
  185DPPC   C48 9248   7.550   5.617   2.811
  185DPPC   C49 9249   7.686   5.687   2.807
  185DPPC   C50 9250   7.795   5.585   2.775
  186DPPC    C1 9251   6.759   2.197   1.982
  186DPPC    C2 9252   6.756   2.426   1.976
  186DPPC    C3 9253   6.563   2.309   1.892
  186DPPC    N4 9254   6.667   2.311   1.996
  186DPPC    C5 9255   6.605   2.328   2.128
  186DPPC    C6 9256   6.505   2.222   2.174
  186DPPC    O7 9257   6.559   2.090   2.188
  186DPPC    P8 9258   6.450   1.973   2.200
  186DPPC    O9 9259   6.531   1.850   2.214
  186DPPC   O10 9260   6.366   1.996   2.080
  186DPPC   O11 9261   6.395   2.022   2.343
  186DPPC   C12 9262   6.480   1.947   2.430
  186DPPC   C13 9263   6.445   1.974   2.577
  186DPPC   O14 9264   6.329   1.906   2.625
  186DPPC   C15 9265   6.336   1.770   2.632
  186DPPC   O16 9266   6.426   1.715   2.570
  186DPPC   C17 9267   6.232   1.693   2.715
  186DPPC   C18 9268   6.281   1.631   2.846
  186DPPC   C19 9269   6.286   1.721   2.969
  186DPPC   C20 9270   6.302   1.635   3.095
  186DPPC   C21 9271   6.346   1.731   3.205
  186DPPC   C22 9272   6.330   1.681   3.348
  186DPPC   C23 9273   6.361   1.781   3.460
  186DPPC   C24 9274   6.257   1.893   3.470
  186DPPC   C25 9275   6.290   2.016   3.553
  186DPPC   C26 9276   6.213   2.141   3.511
  186DPPC   C27 9277   6.245   2.249   3.614
  186DPPC   C28 9278   6.169   2.218   3.743
  186DPPC   C29 9279   6.224   2.302   3.859
  186DPPC   C30 9280   6.152   2.267   3.989
  186DPPC   C31 9281   6.211   2.342   4.109
  186DPPC   C32 9282   6.447   2.125   2.599
  186DPPC   O33 9283   6.576   2.171   2.640
  186DPPC   C34 9284   6.586   2.306   2.652
  186DPPC   O35 9285   6.486   2.377   2.654
  186DPPC   C36 9286   6.719   2.364   2.701
  186DPPC   C37 9287   6.737   2.329   2.849
  186DPPC   C38 9288   6.877   2.356   2.903
  186DPPC   C39 9289   6.879   2.288   3.040
  186DPPC   C40 9290   7.027   2.280   3.079
  186DPPC   C41 9291   7.045   2.220   3.219
  186DPPC   C42 9292   7.005   2.313   3.333
  186DPPC   C43 9293   7.007   2.248   3.471
  186DPPC   C44 9294   7.008   2.352   3.583
  186DPPC   C45 9295   7.019   2.294   3.723
  186DPPC   C46 9296   6.966   2.400   3.820
  186DPPC   C47 9297   6.927   2.356   3.961
  186DPPC   C48 9298   6.817   2.249   3.963
  186DPPC   C49 9299   6.679   2.295   3.917
  186DPPC   C50 9300   6.578   2.205   3.989
  187DPPC    C1 9301   9.209   1.287   0.849
  187DPPC    C2 9302   8.986   1.258   0.869
  187DPPC    C3 9303   9.129   1.079   0.785
  187DPPC    N4 9304   9.112   1.184   0.887
  187DPPC    C5 9305   9.139   1.149   1.027
  187DPPC    C6 9306   9.060   1.031   1.083
  187DPPC    O7 9307   8.935   1.076   1.136
  187DPPC    P8 9308   8.883   0.944   1.213
  187DPPC    O9 9309   8.970   0.827   1.191
  187DPPC   O10 9310   8.737   0.920   1.206
  187DPPC   O11 9311   8.936   0.988   1.359
  187DPPC   C12 9312   8.836   1.002   1.460
  187DPPC   C13 9313   8.876   1.026   1.605
  187DPPC   O14 9314   8.784   1.005   1.714
  187DPPC   C15 9315   8.743   0.880   1.750
  187DPPC   O16 9316   8.800   0.785   1.698
  187DPPC   C17 9317   8.638   0.861   1.860
  187DPPC   C18 9318   8.655   0.740   1.951
  187DPPC   C19 9319   8.545   0.721   2.055
  187DPPC   C20 9320   8.407   0.695   1.993
  187DPPC   C21 9321   8.318   0.667   2.114
  187DPPC   C22 9322   8.311   0.801   2.187
  187DPPC   C23 9323   8.296   0.746   2.330
  187DPPC   C24 9324   8.298   0.874   2.414
  187DPPC   C25 9325   8.307   0.854   2.566
  187DPPC   C26 9326   8.323   0.992   2.628
  187DPPC   C27 9327   8.342   0.984   2.780
  187DPPC   C28 9328   8.319   1.116   2.854
  187DPPC   C29 9329   8.338   1.084   3.002
  187DPPC   C30 9330   8.489   1.074   3.027
  187DPPC   C31 9331   8.510   1.071   3.179
  187DPPC   C32 9332   8.923   1.171   1.601
  187DPPC   O33 9333   9.001   1.223   1.709
  187DPPC   C34 9334   9.126   1.169   1.716
  187DPPC   O35 9335   9.179   1.124   1.615
  187DPPC   C36 9336   9.191   1.171   1.855
  187DPPC   C37 9337   9.236   1.033   1.904
  187DPPC   C38 9338   9.124   0.959   1.975
  187DPPC   C39 9339   9.084   1.020   2.110
  187DPPC   C40 9340   8.973   0.932   2.167
  187DPPC   C41 9341   9.023   0.788   2.172
  187DPPC   C42 9342   8.913   0.690   2.213
  187DPPC   C43 9343   8.845   0.736   2.342
  187DPPC   C44 9344   8.743   0.635   2.395
  187DPPC   C45 9345   8.673   0.694   2.517
  187DPPC   C46 9346   8.618   0.592   2.617
  187DPPC   C47 9347   8.567   0.674   2.735
  187DPPC   C48 9348   8.551   0.586   2.859
  187DPPC   C49 9349   8.499   0.676   2.971
  187DPPC   C50 9350   8.427   0.604   3.085
  188DPPC    C1 9351   7.422   2.403   1.913
  188DPPC    C2 9352   7.526   2.197   1.847
  188DPPC    C3 9353   7.296   2.241   1.789
  188DPPC    N4 9354   7.429   2.301   1.807
  188DPPC    C5 9355   7.466   2.366   1.681
  188DPPC    C6 9356   7.602   2.425   1.642
  188DPPC    O7 9357   7.714   2.338   1.656
  188DPPC    P8 9358   7.843   2.434   1.645
  188DPPC    O9 9359   7.816   2.534   1.539
  188DPPC   O10 9360   7.968   2.355   1.652
  188DPPC   O11 9361   7.826   2.515   1.784
  188DPPC   C12 9362   7.845   2.653   1.751
  188DPPC   C13 9363   7.879   2.742   1.871
  188DPPC   O14 9364   8.021   2.749   1.889
  188DPPC   C15 9365   8.070   2.872   1.920
  188DPPC   O16 9366   8.041   2.969   1.851
  188DPPC   C17 9367   8.205   2.862   1.992
  188DPPC   C18 9368   8.203   2.815   2.138
  188DPPC   C19 9369   8.131   2.910   2.235
  188DPPC   C20 9370   8.181   2.890   2.379
  188DPPC   C21 9371   8.157   3.007   2.475
  188DPPC   C22 9372   8.234   2.961   2.598
  188DPPC   C23 9373   8.215   3.076   2.697
  188DPPC   C24 9374   8.301   3.039   2.818
  188DPPC   C25 9375   8.321   3.163   2.904
  188DPPC   C26 9376   8.399   3.138   3.033
  188DPPC   C27 9377   8.402   3.269   3.113
  188DPPC   C28 9378   8.472   3.237   3.245
  188DPPC   C29 9379   8.611   3.178   3.224
  188DPPC   C30 9380   8.662   3.146   3.365
  188DPPC   C31 9381   8.674   2.994   3.380
  188DPPC   C32 9382   7.792   2.684   1.983
  188DPPC   O33 9383   7.776   2.765   2.100
  188DPPC   C34 9384   7.671   2.730   2.179
  188DPPC   O35 9385   7.587   2.651   2.135
  188DPPC   C36 9386   7.641   2.814   2.303
  188DPPC   C37 9387   7.765   2.839   2.388
  188DPPC   C38 9388   7.768   2.942   2.502
  188DPPC   C39 9389   7.661   2.896   2.602
  188DPPC   C40 9390   7.667   2.997   2.716
  188DPPC   C41 9391   7.568   2.969   2.830
  188DPPC   C42 9392   7.626   3.004   2.967
  188DPPC   C43 9393   7.534   2.967   3.084
  188DPPC   C44 9394   7.623   2.990   3.206
  188DPPC   C45 9395   7.582   2.917   3.334
  188DPPC   C46 9396   7.687   2.947   3.441
  188DPPC   C47 9397   7.668   2.875   3.574
  188DPPC   C48 9398   7.799   2.884   3.651
  188DPPC   C49 9399   7.784   2.823   3.791
  188DPPC   C50 9400   7.899   2.851   3.887
  189DPPC    C1 9401   8.963   3.732   1.494
  189DPPC    C2 9402   8.842   3.542   1.584
  189DPPC    C3 9403   8.882   3.742   1.717
  189DPPC    N4 9404   8.854   3.689   1.583
  189DPPC    C5 9405   8.721   3.728   1.536
  189DPPC    C6 9406   8.673   3.872   1.556
  189DPPC    O7 9407   8.774   3.966   1.518
  189DPPC    P8 9408   8.733   4.121   1.507
  189DPPC    O9 9409   8.588   4.121   1.478
  189DPPC   O10 9410   8.830   4.189   1.418
  189DPPC   O11 9411   8.754   4.154   1.663
  189DPPC   C12 9412   8.895   4.146   1.687
  189DPPC   C13 9413   8.952   4.222   1.806
  189DPPC   O14 9414   8.925   4.171   1.937
  189DPPC   C15 9415   8.985   4.056   1.979
  189DPPC   O16 9416   9.040   3.983   1.897
  189DPPC   C17 9417   8.949   4.014   2.121
  189DPPC   C18 9418   8.990   4.120   2.224
  189DPPC   C19 9419   8.901   4.110   2.348
  189DPPC   C20 9420   8.756   4.143   2.314
  189DPPC   C21 9421   8.688   4.198   2.440
  189DPPC   C22 9422   8.539   4.222   2.417
  189DPPC   C23 9423   8.489   4.257   2.558
  189DPPC   C24 9424   8.348   4.315   2.544
  189DPPC   C25 9425   8.298   4.376   2.675
  189DPPC   C26 9426   8.296   4.290   2.802
  189DPPC   C27 9427   8.244   4.361   2.927
  189DPPC   C28 9428   8.223   4.272   3.050
  189DPPC   C29 9429   8.353   4.255   3.127
  189DPPC   C30 9430   8.351   4.289   3.276
  189DPPC   C31 9431   8.246   4.206   3.352
  189DPPC   C32 9432   8.928   4.372   1.785
  189DPPC   O33 9433   9.013   4.458   1.861
  189DPPC   C34 9434   9.030   4.586   1.820
  189DPPC   O35 9435   9.001   4.622   1.705
  189DPPC   C36 9436   9.111   4.678   1.912
  189DPPC   C37 9437   9.019   4.750   2.011
  189DPPC   C38 9438   8.975   4.669   2.134
  189DPPC   C39 9439   8.852   4.738   2.192
  189DPPC   C40 9440   8.829   4.709   2.340
  189DPPC   C41 9441   8.709   4.779   2.405
  189DPPC   C42 9442   8.738   4.772   2.554
  189DPPC   C43 9443   8.719   4.628   2.600
  189DPPC   C44 9444   8.696   4.627   2.751
  189DPPC   C45 9445   8.668   4.490   2.814
  189DPPC   C46 9446   8.621   4.524   2.956
  189DPPC   C47 9447   8.725   4.618   3.018
  189DPPC   C48 9448   8.662   4.676   3.144
  189DPPC   C49 9449   8.595   4.566   3.226
  189DPPC   C50 9450   8.533   4.636   3.347
  190DPPC    C1 9451   5.043   7.192   1.911
  190DPPC    C2 9452   4.810   7.259   1.870
  190DPPC    C3 9453   4.913   7.295   2.084
  190DPPC    N4 9454   4.936   7.288   1.939
  190DPPC    C5 9455   4.974   7.428   1.910
  190DPPC    C6 9456   5.105   7.479   1.970
  190DPPC    O7 9457   5.083   7.573   2.075
  190DPPC    P8 9458   5.229   7.627   2.114
  190DPPC    O9 9459   5.188   7.716   2.224
  190DPPC   O10 9460   5.306   7.665   1.993
  190DPPC   O11 9461   5.270   7.484   2.174
  190DPPC   C12 9462   5.209   7.472   2.302
  190DPPC   C13 9463   5.192   7.323   2.333
  190DPPC   O14 9464   5.075   7.277   2.403
  190DPPC   C15 9465   5.046   7.146   2.384
  190DPPC   O16 9466   5.096   7.068   2.303
  190DPPC   C17 9467   4.932   7.102   2.476
  190DPPC   C18 9468   4.990   7.009   2.582
  190DPPC   C19 9469   5.104   7.077   2.658
  190DPPC   C20 9470   5.189   6.961   2.708
  190DPPC   C21 9471   5.341   6.982   2.710
  190DPPC   C22 9472   5.400   6.903   2.827
  190DPPC   C23 9473   5.548   6.938   2.849
  190DPPC   C24 9474   5.583   6.894   2.991
  190DPPC   C25 9475   5.578   6.741   3.000
  190DPPC   C26 9476   5.676   6.664   2.911
  190DPPC   C27 9477   5.631   6.518   2.915
  190DPPC   C28 9478   5.662   6.456   3.051
  190DPPC   C29 9479   5.648   6.303   3.053
  190DPPC   C30 9480   5.708   6.254   3.185
  190DPPC   C31 9481   5.667   6.111   3.218
  190DPPC   C32 9482   5.329   7.287   2.390
  190DPPC   O33 9483   5.372   7.355   2.509
  190DPPC   C34 9484   5.504   7.320   2.515
  190DPPC   O35 9485   5.533   7.209   2.473
  190DPPC   C36 9486   5.600   7.431   2.559
  190DPPC   C37 9487   5.597   7.447   2.711
  190DPPC   C38 9488   5.665   7.577   2.754
  190DPPC   C39 9489   5.816   7.558   2.769
  190DPPC   C40 9490   5.880   7.675   2.844
  190DPPC   C41 9491   5.856   7.804   2.766
  190DPPC   C42 9492   5.901   7.928   2.844
  190DPPC   C43 9493   5.816   7.940   2.971
  190DPPC   C44 9494   5.867   8.046   3.069
  190DPPC   C45 9495   5.785   8.065   3.197
  190DPPC   C46 9496   5.851   8.165   3.292
  190DPPC   C47 9497   5.774   8.190   3.422
  190DPPC   C48 9498   5.853   8.280   3.517
  190DPPC   C49 9499   5.777   8.294   3.649
  190DPPC   C50 9500   5.854   8.340   3.773
  191DPPC    C1 9501   0.994   2.281   1.535
  191DPPC    C2 9502   1.179   2.161   1.429
  191DPPC    C3 9503   1.137   2.142   1.667
  191DPPC    N4 9504   1.076   2.159   1.534
  191DPPC    C5 9505   0.996   2.044   1.489
  191DPPC    C6 9506   0.903   1.974   1.588
  191DPPC    O7 9507   0.805   2.055   1.653
  191DPPC    P8 9508   0.710   1.966   1.748
  191DPPC    O9 9509   0.814   1.886   1.818
  191DPPC   O10 9510   0.630   1.916   1.635
  191DPPC   O11 9511   0.644   2.098   1.811
  191DPPC   C12 9512   0.705   2.102   1.940
  191DPPC   C13 9513   0.719   2.244   1.994
  191DPPC   O14 9514   0.800   2.270   2.110
  191DPPC   C15 9515   0.928   2.227   2.127
  191DPPC   O16 9516   0.999   2.210   2.028
  191DPPC   C17 9517   0.988   2.239   2.268
  191DPPC   C18 9518   0.998   2.101   2.332
  191DPPC   C19 9519   1.050   2.126   2.474
  191DPPC   C20 9520   1.180   2.207   2.481
  191DPPC   C21 9521   1.235   2.165   2.618
  191DPPC   C22 9522   1.294   2.282   2.695
  191DPPC   C23 9523   1.304   2.245   2.843
  191DPPC   C24 9524   1.364   2.358   2.926
  191DPPC   C25 9525   1.327   2.332   3.072
  191DPPC   C26 9526   1.176   2.317   3.095
  191DPPC   C27 9527   1.145   2.266   3.236
  191DPPC   C28 9528   1.230   2.142   3.265
  191DPPC   C29 9529   1.184   2.089   3.401
  191DPPC   C30 9530   1.248   1.957   3.447
  191DPPC   C31 9531   1.194   1.908   3.581
  191DPPC   C32 9532   0.572   2.283   2.013
  191DPPC   O33 9533   0.496   2.202   2.103
  191DPPC   C34 9534   0.360   2.205   2.096
  191DPPC   O35 9535   0.299   2.273   2.014
  191DPPC   C36 9536   0.292   2.093   2.175
  191DPPC   C37 9537   0.216   2.136   2.300
  191DPPC   C38 9538   0.178   2.008   2.375
  191DPPC   C39 9539   0.138   2.046   2.518
  191DPPC   C40 9540   0.012   2.132   2.515
  191DPPC   C41 9541  -0.035   2.129   2.660
  191DPPC   C42 9542  -0.055   1.981   2.691
  191DPPC   C43 9543  -0.076   1.957   2.841
  191DPPC   C44 9544  -0.188   2.040   2.903
  191DPPC   C45 9545  -0.222   1.949   3.021
  191DPPC   C46 9546  -0.337   2.018   3.095
  191DPPC   C47 9547  -0.307   2.138   3.185
  191DPPC   C48 9548  -0.434   2.184   3.257
  191DPPC   C49 9549  -0.486   2.059   3.328
  191DPPC   C50 9550  -0.616   2.058   3.408
  192DPPC    C1 9551   4.809   1.083   1.921
  192DPPC    C2 9552   4.799   0.844   1.928
  192DPPC    C3 9553   5.011   0.952   1.905
  192DPPC    N4 9554   4.878   0.962   1.967
  192DPPC    C5 9555   4.892   0.948   2.113
  192DPPC    C6 9556   4.945   1.052   2.211
  192DPPC    O7 9557   4.879   1.178   2.199
  192DPPC    P8 9558   4.965   1.286   2.282
  192DPPC    O9 9559   4.903   1.415   2.246
  192DPPC   O10 9560   5.105   1.253   2.248
  192DPPC   O11 9561   4.928   1.261   2.436
  192DPPC   C12 9562   4.812   1.326   2.488
  192DPPC   C13 9563   4.818   1.318   2.640
  192DPPC   O14 9564   4.697   1.363   2.702
  192DPPC   C15 9565   4.590   1.280   2.688
  192DPPC   O16 9566   4.589   1.176   2.621
  192DPPC   C17 9567   4.458   1.333   2.745
  192DPPC   C18 9568   4.474   1.457   2.833
  192DPPC   C19 9569   4.344   1.509   2.894
  192DPPC   C20 9570   4.294   1.430   3.015
  192DPPC   C21 9571   4.174   1.496   3.084
  192DPPC   C22 9572   4.120   1.399   3.189
  192DPPC   C23 9573   4.203   1.389   3.317
  192DPPC   C24 9574   4.139   1.298   3.421
  192DPPC   C25 9575   4.237   1.279   3.536
  192DPPC   C26 9576   4.372   1.251   3.468
  192DPPC   C27 9577   4.448   1.164   3.569
  192DPPC   C28 9578   4.544   1.083   3.482
  192DPPC   C29 9579   4.620   0.983   3.570
  192DPPC   C30 9580   4.710   0.900   3.477
  192DPPC   C31 9581   4.845   0.963   3.444
  192DPPC   C32 9582   4.948   1.384   2.688
  192DPPC   O33 9583   4.987   1.338   2.817
  192DPPC   C34 9584   5.115   1.365   2.855
  192DPPC   O35 9585   5.207   1.355   2.774
  192DPPC   C36 9586   5.131   1.336   3.005
  192DPPC   C37 9587   5.189   1.195   3.014
  192DPPC   C38 9588   5.204   1.185   3.166
  192DPPC   C39 9589   5.169   1.043   3.211
  192DPPC   C40 9590   5.237   1.022   3.347
  192DPPC   C41 9591   5.273   0.878   3.381
  192DPPC   C42 9592   5.330   0.871   3.523
  192DPPC   C43 9593   5.369   0.730   3.567
  192DPPC   C44 9594   5.408   0.710   3.714
  192DPPC   C45 9595   5.395   0.564   3.757
  192DPPC   C46 9596   5.473   0.482   3.653
  192DPPC   C47 9597   5.472   0.336   3.698
  192DPPC   C48 9598   5.552   0.254   3.598
  192DPPC   C49 9599   5.586   0.114   3.649
  192DPPC   C50 9600   5.465   0.038   3.703
  193DPPC    C1 9601   5.432   5.740   6.282
  193DPPC    C2 9602   5.297   5.552   6.277
  193DPPC    C3 9603   5.255   5.741   6.143
  193DPPC    N4 9604   5.361   5.651   6.190
  193DPPC    C5 9605   5.454   5.592   6.092
  193DPPC    C6 9606   5.407   5.466   6.020
  193DPPC    O7 9607   5.475   5.448   5.895
  193DPPC    P8 9608   5.444   5.292   5.866
  193DPPC    O9 9609   5.410   5.228   5.995
  193DPPC   O10 9610   5.551   5.233   5.783
  193DPPC   O11 9611   5.316   5.304   5.769
  193DPPC   C12 9612   5.340   5.267   5.633
  193DPPC   C13 9613   5.227   5.313   5.540
  193DPPC   O14 9614   5.218   5.218   5.433
  193DPPC   C15 9615   5.133   5.112   5.446
  193DPPC   O16 9616   5.044   5.119   5.530
  193DPPC   C17 9617   5.129   5.020   5.324
  193DPPC   C18 9618   5.269   5.004   5.265
  193DPPC   C19 9619   5.263   4.889   5.166
  193DPPC   C20 9620   5.363   4.910   5.052
  193DPPC   C21 9621   5.361   4.785   4.963
  193DPPC   C22 9622   5.477   4.797   4.864
  193DPPC   C23 9623   5.479   4.669   4.779
  193DPPC   C24 9624   5.564   4.714   4.660
  193DPPC   C25 9625   5.578   4.602   4.556
  193DPPC   C26 9626   5.638   4.666   4.430
  193DPPC   C27 9627   5.781   4.713   4.457
  193DPPC   C28 9628   5.834   4.796   4.339
  193DPPC   C29 9629   5.838   4.714   4.210
  193DPPC   C30 9630   5.910   4.798   4.105
  193DPPC   C31 9631   5.818   4.901   4.039
  193DPPC   C32 9632   5.248   5.459   5.500
  193DPPC   O33 9633   5.364   5.484   5.420
  193DPPC   C34 9634   5.317   5.507   5.295
  193DPPC   O35 9635   5.208   5.558   5.273
  193DPPC   C36 9636   5.429   5.499   5.190
  193DPPC   C37 9637   5.468   5.352   5.173
  193DPPC   C38 9638   5.610   5.342   5.116
  193DPPC   C39 9639   5.615   5.193   5.085
  193DPPC   C40 9640   5.753   5.145   5.038
  193DPPC   C41 9641   5.765   4.992   5.031
  193DPPC   C42 9642   5.894   4.944   4.965
  193DPPC   C43 9643   5.929   4.800   5.003
  193DPPC   C44 9644   6.047   4.765   4.912
  193DPPC   C45 9645   6.014   4.794   4.765
  193DPPC   C46 9646   6.124   4.743   4.671
  193DPPC   C47 9647   6.141   4.591   4.684
  193DPPC   C48 9648   6.256   4.542   4.597
  193DPPC   C49 9649   6.216   4.550   4.450
  193DPPC   C50 9650   6.327   4.476   4.374
  194DPPC    C1 9651   8.004   5.527   1.154
  194DPPC    C2 9652   7.841   5.701   1.193
  194DPPC    C3 9653   7.828   5.553   1.004
  194DPPC    N4 9654   7.862   5.563   1.147
  194DPPC    C5 9655   7.761   5.479   1.213
  194DPPC    C6 9656   7.770   5.326   1.215
  194DPPC    O7 9657   7.860   5.283   1.317
  194DPPC    P8 9658   7.857   5.123   1.333
  194DPPC    O9 9659   7.883   5.080   1.193
  194DPPC   O10 9660   7.724   5.095   1.392
  194DPPC   O11 9661   7.979   5.094   1.434
  194DPPC   C12 9662   7.947   5.149   1.562
  194DPPC   C13 9663   8.024   5.272   1.611
  194DPPC   O14 9664   8.115   5.241   1.717
  194DPPC   C15 9665   8.199   5.326   1.781
  194DPPC   O16 9666   8.212   5.440   1.737
  194DPPC   C17 9667   8.290   5.279   1.895
  194DPPC   C18 9668   8.235   5.172   1.989
  194DPPC   C19 9669   8.348   5.075   2.024
  194DPPC   C20 9670   8.405   5.059   2.165
  194DPPC   C21 9671   8.298   4.988   2.247
  194DPPC   C22 9672   8.339   4.971   2.393
  194DPPC   C23 9673   8.274   4.848   2.457
  194DPPC   C24 9674   8.242   4.885   2.601
  194DPPC   C25 9675   8.160   4.774   2.666
  194DPPC   C26 9676   8.163   4.802   2.817
  194DPPC   C27 9677   8.302   4.788   2.879
  194DPPC   C28 9678   8.282   4.791   3.030
  194DPPC   C29 9679   8.191   4.898   3.092
  194DPPC   C30 9680   8.208   4.909   3.244
  194DPPC   C31 9681   8.126   5.030   3.290
  194DPPC   C32 9682   7.913   5.365   1.659
  194DPPC   O33 9683   7.829   5.325   1.768
  194DPPC   C34 9684   7.716   5.398   1.785
  194DPPC   O35 9685   7.697   5.492   1.707
  194DPPC   C36 9686   7.634   5.362   1.908
  194DPPC   C37 9687   7.498   5.431   1.910
  194DPPC   C38 9688   7.424   5.410   2.042
  194DPPC   C39 9689   7.295   5.492   2.045
  194DPPC   C40 9690   7.200   5.467   2.162
  194DPPC   C41 9691   7.135   5.328   2.159
  194DPPC   C42 9692   7.057   5.310   2.289
  194DPPC   C43 9693   7.151   5.317   2.410
  194DPPC   C44 9694   7.078   5.321   2.545
  194DPPC   C45 9695   7.189   5.355   2.644
  194DPPC   C46 9696   7.142   5.329   2.787
  194DPPC   C47 9697   7.241   5.364   2.898
  194DPPC   C48 9698   7.176   5.328   3.031
  194DPPC   C49 9699   7.277   5.356   3.142
  194DPPC   C50 9700   7.402   5.271   3.120
  195DPPC    C1 9701   2.510   3.569   5.690
  195DPPC    C2 9702   2.300   3.630   5.635
  195DPPC    C3 9703   2.432   3.583   5.454
  195DPPC    N4 9704   2.406   3.537   5.591
  195DPPC    C5 9705   2.350   3.402   5.606
  195DPPC    C6 9706   2.411   3.283   5.532
  195DPPC    O7 9707   2.536   3.240   5.587
  195DPPC    P8 9708   2.580   3.094   5.535
  195DPPC    O9 9709   2.545   3.095   5.391
  195DPPC   O10 9710   2.526   2.996   5.633
  195DPPC   O11 9711   2.740   3.106   5.542
  195DPPC   C12 9712   2.771   3.213   5.453
  195DPPC   C13 9713   2.843   3.342   5.496
  195DPPC   O14 9714   2.823   3.440   5.393
  195DPPC   C15 9715   2.854   3.572   5.408
  195DPPC   O16 9716   2.836   3.617   5.521
  195DPPC   C17 9717   2.852   3.661   5.284
  195DPPC   C18 9718   2.959   3.619   5.184
  195DPPC   C19 9719   2.945   3.710   5.062
  195DPPC   C20 9720   3.009   3.648   4.938
  195DPPC   C21 9721   2.927   3.524   4.902
  195DPPC   C22 9722   2.958   3.468   4.764
  195DPPC   C23 9723   2.910   3.578   4.669
  195DPPC   C24 9724   2.940   3.558   4.520
  195DPPC   C25 9725   2.894   3.424   4.462
  195DPPC   C26 9726   2.929   3.405   4.314
  195DPPC   C27 9727   3.080   3.421   4.297
  195DPPC   C28 9728   3.102   3.429   4.146
  195DPPC   C29 9729   3.072   3.291   4.086
  195DPPC   C30 9730   3.166   3.196   4.160
  195DPPC   C31 9731   3.158   3.053   4.106
  195DPPC   C32 9732   2.989   3.304   5.520
  195DPPC   O33 9733   3.042   3.212   5.424
  195DPPC   C34 9734   3.173   3.180   5.442
  195DPPC   O35 9735   3.232   3.227   5.538
  195DPPC   C36 9736   3.240   3.082   5.346
  195DPPC   C37 9737   3.307   3.168   5.239
  195DPPC   C38 9738   3.325   3.086   5.110
  195DPPC   C39 9739   3.190   3.075   5.039
  195DPPC   C40 9740   3.224   3.019   4.900
  195DPPC   C41 9741   3.119   3.052   4.793
  195DPPC   C42 9742   3.181   3.010   4.660
  195DPPC   C43 9743   3.087   3.027   4.540
  195DPPC   C44 9744   2.945   2.973   4.553
  195DPPC   C45 9745   2.868   2.991   4.422
  195DPPC   C46 9746   2.720   2.954   4.437
  195DPPC   C47 9747   2.621   3.008   4.334
  195DPPC   C48 9748   2.621   3.160   4.316
  195DPPC   C49 9749   2.588   3.213   4.177
  195DPPC   C50 9750   2.590   3.364   4.202
  196DPPC    C1 9751   0.644   0.144   1.741
  196DPPC    C2 9752   0.505   0.298   1.642
  196DPPC    C3 9753   0.474   0.254   1.877
  196DPPC    N4 9754   0.573   0.269   1.769
  196DPPC    C5 9755   0.676   0.373   1.783
  196DPPC    C6 9756   0.637   0.521   1.789
  196DPPC    O7 9757   0.524   0.564   1.866
  196DPPC    P8 9758   0.522   0.725   1.861
  196DPPC    O9 9759   0.387   0.776   1.828
  196DPPC   O10 9760   0.637   0.772   1.779
  196DPPC   O11 9761   0.584   0.764   2.004
  196DPPC   C12 9762   0.471   0.749   2.089
  196DPPC   C13 9763   0.506   0.723   2.236
  196DPPC   O14 9764   0.394   0.679   2.314
  196DPPC   C15 9765   0.348   0.553   2.292
  196DPPC   O16 9766   0.413   0.471   2.228
  196DPPC   C17 9767   0.212   0.508   2.347
  196DPPC   C18 9768   0.222   0.489   2.499
  196DPPC   C19 9769   0.099   0.437   2.574
  196DPPC   C20 9770   0.142   0.434   2.721
  196DPPC   C21 9771   0.045   0.372   2.821
  196DPPC   C22 9772   0.146   0.305   2.915
  196DPPC   C23 9773   0.063   0.261   3.035
  196DPPC   C24 9774   0.155   0.207   3.144
  196DPPC   C25 9775   0.062   0.147   3.250
  196DPPC   C26 9776   0.131   0.049   3.345
  196DPPC   C27 9777   0.164  -0.087   3.282
  196DPPC   C28 9778   0.217  -0.185   3.387
  196DPPC   C29 9779   0.263  -0.320   3.330
  196DPPC   C30 9780   0.278  -0.450   3.409
  196DPPC   C31 9781   0.309  -0.567   3.316
  196DPPC   C32 9782   0.592   0.841   2.281
  196DPPC   O33 9783   0.528   0.965   2.248
  196DPPC   C34 9784   0.596   1.083   2.246
  196DPPC   O35 9785   0.713   1.075   2.281
  196DPPC   C36 9786   0.516   1.208   2.210
  196DPPC   C37 9787   0.445   1.286   2.321
  196DPPC   C38 9788   0.348   1.389   2.264
  196DPPC   C39 9789   0.270   1.450   2.381
  196DPPC   C40 9790   0.200   1.343   2.464
  196DPPC   C41 9791   0.123   1.410   2.578
  196DPPC   C42 9792   0.058   1.304   2.667
  196DPPC   C43 9793  -0.015   1.373   2.783
  196DPPC   C44 9794  -0.072   1.268   2.879
  196DPPC   C45 9795  -0.098   1.317   3.022
  196DPPC   C46 9796  -0.172   1.217   3.111
  196DPPC   C47 9797  -0.218   1.280   3.243
  196DPPC   C48 9798  -0.282   1.176   3.335
  196DPPC   C49 9799  -0.183   1.128   3.441
  196DPPC   C50 9800  -0.251   1.057   3.558
  197DPPC    C1 9801   8.829   2.064   5.892
  197DPPC    C2 9802   8.878   1.828   5.908
  197DPPC    C3 9803   8.718   1.914   5.758
  197DPPC    N4 9804   8.850   1.940   5.816
  197DPPC    C5 9805   8.964   1.955   5.725
  197DPPC    C6 9806   9.004   1.836   5.636
  197DPPC    O7 9807   8.904   1.781   5.550
  197DPPC    P8 9808   8.975   1.687   5.440
  197DPPC    O9 9809   8.876   1.596   5.377
  197DPPC   O10 9810   9.109   1.645   5.488
  197DPPC   O11 9811   9.004   1.807   5.338
  197DPPC   C12 9812   8.878   1.855   5.290
  197DPPC   C13 9813   8.879   2.000   5.239
  197DPPC   O14 9814   8.752   2.056   5.204
  197DPPC   C15 9815   8.734   2.189   5.227
  197DPPC   O16 9816   8.787   2.238   5.326
  197DPPC   C17 9817   8.622   2.259   5.151
  197DPPC   C18 9818   8.671   2.293   5.010
  197DPPC   C19 9819   8.546   2.309   4.923
  197DPPC   C20 9820   8.590   2.364   4.788
  197DPPC   C21 9821   8.472   2.395   4.696
  197DPPC   C22 9822   8.513   2.418   4.550
  197DPPC   C23 9823   8.388   2.458   4.472
  197DPPC   C24 9824   8.294   2.544   4.557
  197DPPC   C25 9825   8.181   2.591   4.465
  197DPPC   C26 9826   8.148   2.465   4.383
  197DPPC   C27 9827   8.030   2.509   4.296
  197DPPC   C28 9828   7.983   2.381   4.227
  197DPPC   C29 9829   7.857   2.424   4.152
  197DPPC   C30 9830   7.785   2.297   4.105
  197DPPC   C31 9831   7.866   2.199   4.020
  197DPPC   C32 9832   8.978   1.989   5.123
  197DPPC   O33 9833   9.013   2.110   5.056
  197DPPC   C34 9834   9.111   2.105   4.961
  197DPPC   O35 9835   9.194   2.014   4.957
  197DPPC   C36 9836   9.127   2.229   4.874
  197DPPC   C37 9837   9.005   2.246   4.782
  197DPPC   C38 9838   9.014   2.352   4.672
  197DPPC   C39 9839   8.899   2.360   4.572
  197DPPC   C40 9840   8.930   2.499   4.517
  197DPPC   C41 9841   8.900   2.613   4.614
  197DPPC   C42 9842   8.949   2.750   4.566
  197DPPC   C43 9843   8.913   2.860   4.665
  197DPPC   C44 9844   8.993   2.989   4.640
  197DPPC   C45 9845   8.966   3.091   4.750
  197DPPC   C46 9846   9.080   3.192   4.767
  197DPPC   C47 9847   9.015   3.291   4.863
  197DPPC   C48 9848   9.106   3.407   4.907
  197DPPC   C49 9849   9.047   3.490   5.021
  197DPPC   C50 9850   9.029   3.406   5.147
  198DPPC    C1 9851   3.957   4.857   5.478
  198DPPC    C2 9852   3.747   4.794   5.558
  198DPPC    C3 9853   3.931   4.785   5.706
  198DPPC    N4 9854   3.871   4.863   5.597
  198DPPC    C5 9855   3.841   5.000   5.642
  198DPPC    C6 9856   3.944   5.082   5.721
  198DPPC    O7 9857   4.045   5.134   5.635
  198DPPC    P8 9858   4.182   5.128   5.721
  198DPPC    O9 9859   4.207   4.983   5.700
  198DPPC   O10 9860   4.166   5.194   5.852
  198DPPC   O11 9861   4.268   5.213   5.615
  198DPPC   C12 9862   4.320   5.124   5.516
  198DPPC   C13 9863   4.395   5.185   5.397
  198DPPC   O14 9864   4.518   5.257   5.409
  198DPPC   C15 9865   4.625   5.174   5.426
  198DPPC   O16 9866   4.620   5.061   5.473
  198DPPC   C17 9867   4.766   5.227   5.400
  198DPPC   C18 9868   4.768   5.299   5.265
  198DPPC   C19 9869   4.897   5.348   5.199
  198DPPC   C20 9870   4.873   5.396   5.055
  198DPPC   C21 9871   5.008   5.425   4.990
  198DPPC   C22 9872   5.083   5.296   4.957
  198DPPC   C23 9873   5.197   5.338   4.864
  198DPPC   C24 9874   5.275   5.227   4.794
  198DPPC   C25 9875   5.419   5.267   4.761
  198DPPC   C26 9876   5.485   5.160   4.674
  198DPPC   C27 9877   5.630   5.189   4.636
  198DPPC   C28 9878   5.663   5.112   4.508
  198DPPC   C29 9879   5.805   5.149   4.467
  198DPPC   C30 9880   5.899   5.116   4.583
  198DPPC   C31 9881   6.052   5.115   4.574
  198DPPC   C32 9882   4.282   5.255   5.321
  198DPPC   O33 9883   4.178   5.170   5.274
  198DPPC   C34 9884   4.074   5.233   5.212
  198DPPC   O35 9885   4.077   5.353   5.185
  198DPPC   C36 9886   3.947   5.156   5.178
  198DPPC   C37 9887   4.005   5.023   5.129
  198DPPC   C38 9888   4.065   5.023   4.988
  198DPPC   C39 9889   4.127   4.886   4.962
  198DPPC   C40 9890   4.186   4.886   4.821
  198DPPC   C41 9891   4.243   4.749   4.786
  198DPPC   C42 9892   4.351   4.765   4.679
  198DPPC   C43 9893   4.448   4.648   4.666
  198DPPC   C44 9894   4.549   4.672   4.554
  198DPPC   C45 9895   4.667   4.575   4.543
  198DPPC   C46 9896   4.767   4.608   4.432
  198DPPC   C47 9897   4.884   4.510   4.423
  198DPPC   C48 9898   4.845   4.365   4.396
  198DPPC   C49 9899   4.966   4.279   4.359
  198DPPC   C50 9900   4.915   4.143   4.311
  199DPPC    C1 9901   6.945   6.320   5.520
  199DPPC    C2 9902   6.898   6.543   5.455
  199DPPC    C3 9903   6.811   6.369   5.332
  199DPPC    N4 9904   6.839   6.409   5.471
  199DPPC    C5 9905   6.722   6.399   5.560
  199DPPC    C6 9906   6.613   6.505   5.549
  199DPPC    O7 9907   6.529   6.480   5.436
  199DPPC    P8 9908   6.407   6.585   5.433
  199DPPC    O9 9909   6.480   6.714   5.421
  199DPPC   O10 9910   6.314   6.547   5.541
  199DPPC   O11 9911   6.340   6.530   5.298
  199DPPC   C12 9912   6.439   6.473   5.211
  199DPPC   C13 9913   6.407   6.496   5.063
  199DPPC   O14 9914   6.496   6.436   4.968
  199DPPC   C15 9915   6.480   6.305   4.936
  199DPPC   O16 9916   6.410   6.237   5.011
  199DPPC   C17 9917   6.547   6.245   4.813
  199DPPC   C18 9918   6.503   6.296   4.675
  199DPPC   C19 9919   6.590   6.221   4.574
  199DPPC   C20 9920   6.558   6.286   4.440
  199DPPC   C21 9921   6.640   6.203   4.341
  199DPPC   C22 9922   6.635   6.263   4.201
  199DPPC   C23 9923   6.734   6.379   4.192
  199DPPC   C24 9924   6.728   6.427   4.047
  199DPPC   C25 9925   6.816   6.353   3.948
  199DPPC   C26 9926   6.815   6.434   3.818
  199DPPC   C27 9927   6.870   6.575   3.842
  199DPPC   C28 9928   6.870   6.656   3.712
  199DPPC   C29 9929   6.953   6.783   3.729
  199DPPC   C30 9930   6.983   6.864   3.602
  199DPPC   C31 9931   7.057   6.992   3.639
  199DPPC   C32 9932   6.392   6.648   5.058
  199DPPC   O33 9933   6.497   6.735   5.102
  199DPPC   C34 9934   6.463   6.867   5.095
  199DPPC   O35 9935   6.349   6.900   5.066
  199DPPC   C36 9936   6.568   6.964   5.148
  199DPPC   C37 9937   6.568   7.094   5.067
  199DPPC   C38 9938   6.483   7.205   5.128
  199DPPC   C39 9939   6.455   7.324   5.035
  199DPPC   C40 9940   6.388   7.276   4.907
  199DPPC   C41 9941   6.369   7.398   4.817
  199DPPC   C42 9942   6.507   7.454   4.781
  199DPPC   C43 9943   6.583   7.368   4.680
  199DPPC   C44 9944   6.715   7.439   4.651
  199DPPC   C45 9945   6.703   7.579   4.590
  199DPPC   C46 9946   6.839   7.621   4.535
  199DPPC   C47 9947   6.897   7.522   4.433
  199DPPC   C48 9948   7.037   7.564   4.386
  199DPPC   C49 9949   7.127   7.575   4.509
  199DPPC   C50 9950   7.272   7.613   4.475
  200DPPC    C1 9951   2.643   7.581   5.245
  200DPPC    C2 9952   2.725   7.449   5.438
  200DPPC    C3 9953   2.775   7.669   5.402
  200DPPC    N4 9954   2.664   7.574   5.390
  200DPPC    C5 9955   2.560   7.637   5.474
  200DPPC    C6 9956   2.419   7.581   5.461
  200DPPC    O7 9957   2.398   7.441   5.484
  200DPPC    P8 9958   2.248   7.389   5.462
  200DPPC    O9 9959   2.152   7.496   5.496
  200DPPC   O10 9960   2.255   7.265   5.542
  200DPPC   O11 9961   2.256   7.372   5.302
  200DPPC   C12 9962   2.337   7.255   5.284
  200DPPC   C13 9963   2.318   7.196   5.144
  200DPPC   O14 9964   2.400   7.243   5.035
  200DPPC   C15 9965   2.535   7.227   5.036
  200DPPC   O16 9966   2.605   7.221   5.137
  200DPPC   C17 9967   2.586   7.252   4.894
  200DPPC   C18 9968   2.682   7.140   4.853
  200DPPC   C19 9969   2.731   7.179   4.713
  200DPPC   C20 9970   2.840   7.083   4.666
  200DPPC   C21 9971   2.891   7.104   4.524
  200DPPC   C22 9972   2.785   7.091   4.413
  200DPPC   C23 9973   2.860   7.097   4.280
  200DPPC   C24 9974   2.775   7.094   4.152
  200DPPC   C25 9975   2.851   7.107   4.021
  200DPPC   C26 9976   2.926   7.239   4.003
  200DPPC   C27 9977   3.001   7.249   3.869
  200DPPC   C28 9978   3.100   7.365   3.862
  200DPPC   C29 9979   3.167   7.366   3.725
  200DPPC   C30 9980   3.248   7.237   3.707
  200DPPC   C31 9981   3.346   7.226   3.590
  200DPPC   C32 9982   2.166   7.184   5.136
  200DPPC   O33 9983   2.118   7.103   5.029
  200DPPC   C34 9984   1.983   7.091   5.037
  200DPPC   O35 9985   1.916   7.107   5.139
  200DPPC   C36 9986   1.928   7.018   4.914
  200DPPC   C37 9987   1.888   7.103   4.794
  200DPPC   C38 9988   1.851   7.013   4.675
  200DPPC   C39 9989   1.979   6.959   4.611
  200DPPC   C40 9990   1.960   6.847   4.508
  200DPPC   C41 9991   2.088   6.797   4.441
  200DPPC   C42 9992   2.043   6.690   4.342
  200DPPC   C43 9993   1.924   6.744   4.262
  200DPPC   C44 9994   1.852   6.633   4.186
  200DPPC   C45 9995   1.704   6.668   4.165
  200DPPC   C46 9996   1.675   6.803   4.099
  200DPPC   C47 9997   1.531   6.816   4.048
  200DPPC   C48 9998   1.500   6.963   4.022
  200DPPC   C49 9999   1.358   6.999   3.977
  200DPPC   C5010000   1.339   7.150   3.959
  201DPPC    C110001   7.794   1.518   5.872
  201DPPC    C210002   7.804   1.585   6.105
  201DPPC    C310003   7.828   1.361   6.051
  201DPPC    N410004   7.859   1.496   6.002
  201DPPC    C510005   8.005   1.508   6.015
  201DPPC    C610006   8.079   1.619   5.939
  201DPPC    O710007   8.034   1.743   5.995
  201DPPC    P810008   8.087   1.866   5.906
  201DPPC    O910009   8.229   1.833   5.879
  201DPPC   O1010010   8.053   2.003   5.950
  201DPPC   O1110011   8.000   1.831   5.775
  201DPPC   C1210012   8.070   1.890   5.665
  201DPPC   C1310013   7.995   1.917   5.534
  201DPPC   O1410014   7.896   2.021   5.531
  201DPPC   C1510015   7.935   2.151   5.544
  201DPPC   O1610016   8.027   2.180   5.619
  201DPPC   C1710017   7.843   2.251   5.474
  201DPPC   C1810018   7.865   2.250   5.322
  201DPPC   C1910019   7.783   2.362   5.257
  201DPPC   C2010020   7.635   2.326   5.272
  201DPPC   C2110021   7.545   2.432   5.208
  201DPPC   C2210022   7.401   2.386   5.187
  201DPPC   C2310023   7.320   2.498   5.123
  201DPPC   C2410024   7.358   2.512   4.975
  201DPPC   C2510025   7.266   2.615   4.909
  201DPPC   C2610026   7.289   2.616   4.758
  201DPPC   C2710027   7.173   2.679   4.680
  201DPPC   C2810028   7.176   2.639   4.532
  201DPPC   C2910029   7.050   2.660   4.448
  201DPPC   C3010030   7.058   2.603   4.306
  201DPPC   C3110031   6.941   2.506   4.289
  201DPPC   C3210032   7.941   1.777   5.502
  201DPPC   O3310033   8.051   1.688   5.483
  201DPPC   C3410034   8.017   1.559   5.506
  201DPPC   O3510035   7.903   1.532   5.545
  201DPPC   C3610036   8.125   1.455   5.477
  201DPPC   C3710037   8.181   1.471   5.335
  201DPPC   C3810038   8.261   1.350   5.287
  201DPPC   C3910039   8.320   1.371   5.147
  201DPPC   C4010040   8.209   1.420   5.055
  201DPPC   C4110041   8.260   1.469   4.919
  201DPPC   C4210042   8.146   1.554   4.861
  201DPPC   C4310043   8.169   1.627   4.729
  201DPPC   C4410044   8.037   1.689   4.683
  201DPPC   C4510045   7.919   1.594   4.660
  201DPPC   C4610046   7.796   1.672   4.614
  201DPPC   C4710047   7.670   1.585   4.611
  201DPPC   C4810048   7.553   1.680   4.584
  201DPPC   C4910049   7.424   1.616   4.635
  201DPPC   C5010050   7.435   1.584   4.784
  202DPPC    C110051   0.670   2.612   5.787
  202DPPC    C210052   0.885   2.626   5.886
  202DPPC    C310053   0.683   2.697   5.989
  202DPPC    N410054   0.745   2.589   5.911
  202DPPC    C510055   0.723   2.459   5.976
  202DPPC    C610056   0.702   2.331   5.895
  202DPPC    O710057   0.574   2.324   5.832
  202DPPC    P810058   0.545   2.185   5.757
  202DPPC    O910059   0.401   2.153   5.763
  202DPPC   O1010060   0.658   2.105   5.810
  202DPPC   O1110061   0.590   2.243   5.613
  202DPPC   C1210062   0.489   2.311   5.538
  202DPPC   C1310063   0.548   2.416   5.444
  202DPPC   O1410064   0.447   2.458   5.352
  202DPPC   C1510065   0.443   2.585   5.304
  202DPPC   O1610066   0.435   2.678   5.385
  202DPPC   C1710067   0.388   2.604   5.163
  202DPPC   C1810068   0.351   2.743   5.110
  202DPPC   C1910069   0.325   2.737   4.959
  202DPPC   C2010070   0.266   2.876   4.935
  202DPPC   C2110071   0.209   2.901   4.795
  202DPPC   C2210072   0.319   2.900   4.688
  202DPPC   C2310073   0.253   2.940   4.556
  202DPPC   C2410074   0.348   2.899   4.444
  202DPPC   C2510075   0.288   2.908   4.303
  202DPPC   C2610076   0.384   2.843   4.204
  202DPPC   C2710077   0.341   2.862   4.058
  202DPPC   C2810078   0.454   2.809   3.970
  202DPPC   C2910079   0.431   2.834   3.820
  202DPPC   C3010080   0.556   2.813   3.735
  202DPPC   C3110081   0.550   2.882   3.599
  202DPPC   C3210082   0.661   2.332   5.384
  202DPPC   O3310083   0.716   2.363   5.255
  202DPPC   C3410084   0.803   2.274   5.201
  202DPPC   O3510085   0.820   2.168   5.260
  202DPPC   C3610086   0.834   2.291   5.052
  202DPPC   C3710087   0.784   2.427   5.005
  202DPPC   C3810088   0.778   2.443   4.853
  202DPPC   C3910089   0.768   2.595   4.841
  202DPPC   C4010090   0.723   2.645   4.703
  202DPPC   C4110091   0.694   2.796   4.706
  202DPPC   C4210092   0.684   2.839   4.560
  202DPPC   C4310093   0.811   2.800   4.485
  202DPPC   C4410094   0.786   2.800   4.334
  202DPPC   C4510095   0.907   2.766   4.246
  202DPPC   C4610096   0.862   2.751   4.101
  202DPPC   C4710097   0.987   2.758   4.012
  202DPPC   C4810098   0.942   2.729   3.868
  202DPPC   C4910099   1.045   2.740   3.755
  202DPPC   C5010100   0.978   2.688   3.627
  203DPPC    C110101   1.937   7.637   4.581
  203DPPC    C210102   1.726   7.582   4.476
  203DPPC    C310103   1.843   7.424   4.615
  203DPPC    N410104   1.809   7.566   4.596
  203DPPC    C510105   1.734   7.616   4.712
  203DPPC    C610106   1.758   7.578   4.858
  203DPPC    O710107   1.880   7.631   4.911
  203DPPC    P810108   1.949   7.516   5.000
  203DPPC    O910109   1.856   7.405   5.031
  203DPPC   O1010110   2.035   7.589   5.096
  203DPPC   O1110111   2.045   7.446   4.892
  203DPPC   C1210112   2.184   7.477   4.905
  203DPPC   C1310113   2.244   7.430   4.772
  203DPPC   O1410114   2.233   7.527   4.667
  203DPPC   C1510115   2.340   7.604   4.634
  203DPPC   O1610116   2.381   7.670   4.729
  203DPPC   C1710117   2.349   7.646   4.487
  203DPPC   C1810118   2.489   7.636   4.426
  203DPPC   C1910119   2.485   7.636   4.273
  203DPPC   C2010120   2.619   7.644   4.200
  203DPPC   C2110121   2.726   7.545   4.246
  203DPPC   C2210122   2.853   7.555   4.161
  203DPPC   C2310123   2.876   7.700   4.120
  203DPPC   C2410124   3.001   7.724   4.034
  203DPPC   C2510125   3.022   7.873   4.010
  203DPPC   C2610126   3.126   7.897   3.899
  203DPPC   C2710127   3.161   8.042   3.868
  203DPPC   C2810128   3.206   8.109   3.998
  203DPPC   C2910129   3.262   8.249   3.977
  203DPPC   C3010130   3.272   8.308   4.118
  203DPPC   C3110131   3.371   8.425   4.112
  203DPPC   C3210132   2.209   7.284   4.744
  203DPPC   O3310133   2.265   7.225   4.626
  203DPPC   C3410134   2.218   7.266   4.506
  203DPPC   O3510135   2.113   7.330   4.499
  203DPPC   C3610136   2.313   7.260   4.386
  203DPPC   C3710137   2.275   7.147   4.289
  203DPPC   C3810138   2.385   7.139   4.182
  203DPPC   C3910139   2.373   7.009   4.102
  203DPPC   C4010140   2.265   7.023   3.994
  203DPPC   C4110141   2.213   6.885   3.956
  203DPPC   C4210142   2.082   6.892   3.877
  203DPPC   C4310143   2.021   6.754   3.849
  203DPPC   C4410144   1.894   6.779   3.769
  203DPPC   C4510145   1.821   6.657   3.712
  203DPPC   C4610146   1.691   6.706   3.649
  203DPPC   C4710147   1.584   6.598   3.667
  203DPPC   C4810148   1.457   6.648   3.598
  203DPPC   C4910149   1.381   6.752   3.680
  203DPPC   C5010150   1.246   6.797   3.622
  204DPPC    C110151   9.424   7.704   4.827
  204DPPC    C210152   9.614   7.682   4.678
  204DPPC    C310153   9.627   7.608   4.900
  204DPPC    N410154   9.536   7.618   4.785
  204DPPC    C510155   9.499   7.485   4.735
  204DPPC    C610156   9.379   7.422   4.806
  204DPPC    O710157   9.328   7.310   4.734
  204DPPC    P810158   9.236   7.241   4.846
  204DPPC    O910159   9.197   7.337   4.951
  204DPPC   O1010160   9.302   7.111   4.875
  204DPPC   O1110161   9.112   7.224   4.744
  204DPPC   C1210162   9.129   7.096   4.681
  204DPPC   C1310163   9.007   7.051   4.601
  204DPPC   O1410164   8.994   6.914   4.559
  204DPPC   C1510165   8.966   6.818   4.651
  204DPPC   O1610166   8.947   6.848   4.769
  204DPPC   C1710167   8.952   6.676   4.595
  204DPPC   C1810168   8.814   6.634   4.546
  204DPPC   C1910169   8.815   6.496   4.480
  204DPPC   C2010170   8.907   6.495   4.358
  204DPPC   C2110171   8.869   6.374   4.271
  204DPPC   C2210172   8.930   6.408   4.135
  204DPPC   C2310173   8.834   6.371   4.021
  204DPPC   C2410174   8.902   6.424   3.894
  204DPPC   C2510175   9.036   6.352   3.879
  204DPPC   C2610176   9.103   6.398   3.750
  204DPPC   C2710177   9.002   6.412   3.635
  204DPPC   C2810178   9.062   6.475   3.509
  204DPPC   C2910179   8.944   6.540   3.436
  204DPPC   C3010180   8.880   6.444   3.335
  204DPPC   C3110181   8.770   6.516   3.257
  204DPPC   C3210182   8.982   7.160   4.498
  204DPPC   O3310183   9.087   7.194   4.407
  204DPPC   C3410184   9.050   7.286   4.315
  204DPPC   O3510185   8.939   7.338   4.309
  204DPPC   C3610186   9.165   7.325   4.221
  204DPPC   C3710187   9.120   7.369   4.081
  204DPPC   C3810188   9.236   7.386   3.983
  204DPPC   C3910189   9.289   7.246   3.950
  204DPPC   C4010190   9.177   7.173   3.876
  204DPPC   C4110191   9.236   7.044   3.820
  204DPPC   C4210192   9.134   6.969   3.733
  204DPPC   C4310193   9.212   6.855   3.667
  204DPPC   C4410194   9.330   6.903   3.583
  204DPPC   C4510195   9.416   6.786   3.535
  204DPPC   C4610196   9.459   6.693   3.648
  204DPPC   C4710197   9.538   6.580   3.584
  204DPPC   C4810198   9.456   6.534   3.463
  204DPPC   C4910199   9.529   6.433   3.375
  204DPPC   C5010200   9.602   6.323   3.453
  205DPPC    C110201   2.161   8.139   5.732
  205DPPC    C210202   2.381   8.035   5.726
  205DPPC    C310203   2.197   7.927   5.640
  205DPPC    N410204   2.257   8.061   5.652
  205DPPC    C510205   2.279   8.135   5.527
  205DPPC    C610206   2.167   8.138   5.422
  205DPPC    O710207   2.058   8.223   5.459
  205DPPC    P810208   1.920   8.168   5.396
  205DPPC    O910209   1.806   8.248   5.446
  205DPPC   O1010210   1.923   8.022   5.421
  205DPPC   O1110211   1.953   8.198   5.241
  205DPPC   C1210212   1.893   8.324   5.212
  205DPPC   C1310213   1.976   8.452   5.224
  205DPPC   O1410214   1.894   8.565   5.192
  205DPPC   C1510215   1.937   8.690   5.224
  205DPPC   O1610216   2.017   8.703   5.316
  205DPPC   C1710217   1.841   8.798   5.174
  205DPPC   C1810218   1.850   8.814   5.022
  205DPPC   C1910219   1.781   8.948   4.998
  205DPPC   C2010220   1.751   8.976   4.851
  205DPPC   C2110221   1.648   8.871   4.806
  205DPPC   C2210222   1.609   8.879   4.659
  205DPPC   C2310223   1.501   8.772   4.639
  205DPPC   C2410224   1.367   8.823   4.586
  205DPPC   C2510225   1.385   8.894   4.452
  205DPPC   C2610226   1.259   8.951   4.386
  205DPPC   C2710227   1.295   8.994   4.243
  205DPPC   C2810228   1.166   9.059   4.192
  205DPPC   C2910229   1.206   9.114   4.055
  205DPPC   C3010230   1.090   9.159   3.965
  205DPPC   C3110231   1.144   9.227   3.839
  205DPPC   C3210232   2.102   8.442   5.137
  205DPPC   O3310233   2.084   8.426   4.996
  205DPPC   C3410234   2.164   8.498   4.914
  205DPPC   O3510235   2.241   8.587   4.948
  205DPPC   C3610236   2.160   8.467   4.764
  205DPPC   C3710237   2.249   8.351   4.719
  205DPPC   C3810238   2.229   8.333   4.568
  205DPPC   C3910239   2.306   8.211   4.520
  205DPPC   C4010240   2.290   8.196   4.368
  205DPPC   C4110241   2.345   8.065   4.311
  205DPPC   C4210242   2.323   8.077   4.160
  205DPPC   C4310243   2.346   7.942   4.092
  205DPPC   C4410244   2.381   7.986   3.950
  205DPPC   C4510245   2.424   7.875   3.855
  205DPPC   C4610246   2.452   7.927   3.714
  205DPPC   C4710247   2.527   7.829   3.623
  205DPPC   C4810248   2.648   7.778   3.702
  205DPPC   C4910249   2.744   7.698   3.613
  205DPPC   C5010250   2.861   7.636   3.689
  206DPPC    C110251   2.005   5.384   5.080
  206DPPC    C210252   1.932   5.213   4.933
  206DPPC    C310253   2.045   5.147   5.138
  206DPPC    N410254   1.956   5.245   5.075
  206DPPC    C510255   1.841   5.214   5.161
  206DPPC    C610256   1.718   5.305   5.153
  206DPPC    O710257   1.650   5.314   5.028
  206DPPC    P810258   1.505   5.383   5.038
  206DPPC    O910259   1.523   5.459   5.163
  206DPPC   O1010260   1.387   5.293   5.030
  206DPPC   O1110261   1.518   5.487   4.916
  206DPPC   C1210262   1.474   5.416   4.799
  206DPPC   C1310263   1.496   5.491   4.668
  206DPPC   O1410264   1.428   5.434   4.555
  206DPPC   C1510265   1.292   5.444   4.546
  206DPPC   O1610266   1.224   5.508   4.625
  206DPPC   C1710267   1.224   5.368   4.432
  206DPPC   C1810268   1.176   5.456   4.317
  206DPPC   C1910269   1.148   5.354   4.206
  206DPPC   C2010270   1.110   5.430   4.078
  206DPPC   C2110271   1.083   5.333   3.963
  206DPPC   C2210272   1.048   5.422   3.843
  206DPPC   C2310273   1.014   5.345   3.716
  206DPPC   C2410274   0.988   5.441   3.600
  206DPPC   C2510275   1.115   5.524   3.577
  206DPPC   C2610276   1.100   5.631   3.469
  206DPPC   C2710277   1.222   5.714   3.431
  206DPPC   C2810278   1.255   5.832   3.522
  206DPPC   C2910279   1.391   5.896   3.491
  206DPPC   C3010280   1.440   5.986   3.605
  206DPPC   C3110281   1.483   5.905   3.727
  206DPPC   C3210282   1.648   5.475   4.658
  206DPPC   O3310283   1.696   5.356   4.594
  206DPPC   C3410284   1.832   5.348   4.591
  206DPPC   O3510285   1.910   5.408   4.666
  206DPPC   C3610286   1.883   5.221   4.524
  206DPPC   C3710287   1.931   5.254   4.383
  206DPPC   C3810288   1.984   5.126   4.318
  206DPPC   C3910289   2.083   5.056   4.411
  206DPPC   C4010290   2.114   4.935   4.322
  206DPPC   C4110291   2.217   4.837   4.379
  206DPPC   C4210292   2.243   4.740   4.263
  206DPPC   C4310293   2.311   4.811   4.146
  206DPPC   C4410294   2.452   4.858   4.183
  206DPPC   C4510295   2.546   4.878   4.065
  206DPPC   C4610296   2.692   4.912   4.098
  206DPPC   C4710297   2.786   4.907   3.978
  206DPPC   C4810298   2.923   4.960   4.019
  206DPPC   C4910299   3.014   4.973   3.897
  206DPPC   C5010300   3.159   4.993   3.942
  207DPPC    C110301   6.483   0.328   6.181
  207DPPC    C210302   6.690   0.350   6.072
  207DPPC    C310303   6.520   0.223   5.968
  207DPPC    N410304   6.545   0.343   6.049
  207DPPC    C510305   6.486   0.454   5.972
  207DPPC    C610306   6.532   0.599   5.995
  207DPPC    O710307   6.450   0.688   5.918
  207DPPC    P810308   6.510   0.837   5.928
  207DPPC    O910309   6.528   0.869   6.071
  207DPPC   O1010310   6.427   0.926   5.844
  207DPPC   O1110311   6.644   0.792   5.851
  207DPPC   C1210312   6.674   0.853   5.725
  207DPPC   C1310313   6.816   0.900   5.692
  207DPPC   O1410314   6.829   1.013   5.605
  207DPPC   C1510315   6.946   1.083   5.604
  207DPPC   O1610316   7.024   1.066   5.697
  207DPPC   C1710317   6.974   1.174   5.484
  207DPPC   C1810318   6.914   1.313   5.504
  207DPPC   C1910319   6.912   1.402   5.379
  207DPPC   C2010320   6.830   1.349   5.262
  207DPPC   C2110321   6.827   1.440   5.139
  207DPPC   C2210322   6.955   1.419   5.058
  207DPPC   C2310323   6.928   1.514   4.941
  207DPPC   C2410324   7.029   1.490   4.829
  207DPPC   C2510325   6.980   1.566   4.705
  207DPPC   C2610326   7.090   1.554   4.599
  207DPPC   C2710327   7.054   1.597   4.457
  207DPPC   C2810328   7.010   1.744   4.449
  207DPPC   C2910329   6.937   1.763   4.316
  207DPPC   C3010330   6.972   1.905   4.269
  207DPPC   C3110331   6.922   1.934   4.128
  207DPPC   C3210332   6.882   0.774   5.636
  207DPPC   O3310333   6.807   0.708   5.534
  207DPPC   C3410334   6.878   0.612   5.469
  207DPPC   O3510335   6.989   0.573   5.503
  207DPPC   C3610336   6.801   0.543   5.356
  207DPPC   C3710337   6.685   0.623   5.297
  207DPPC   C3810338   6.607   0.548   5.189
  207DPPC   C3910339   6.514   0.637   5.107
  207DPPC   C4010340   6.472   0.554   4.985
  207DPPC   C4110341   6.382   0.440   5.033
  207DPPC   C4210342   6.340   0.352   4.915
  207DPPC   C4310343   6.296   0.210   4.948
  207DPPC   C4410344   6.287   0.122   4.823
  207DPPC   C4510345   6.419   0.125   4.744
  207DPPC   C4610346   6.385   0.062   4.609
  207DPPC   C4710347   6.503   0.019   4.522
  207DPPC   C4810348   6.460  -0.019   4.380
  207DPPC   C4910349   6.590  -0.048   4.303
  207DPPC   C5010350   6.533  -0.115   4.178
  208DPPC    C110351   5.187   1.511   5.661
  208DPPC    C210352   5.334   1.412   5.507
  208DPPC    C310353   5.232   1.636   5.469
  208DPPC    N410354   5.292   1.541   5.563
  208DPPC    C510355   5.411   1.615   5.608
  208DPPC    C610356   5.499   1.557   5.719
  208DPPC    O710357   5.636   1.594   5.700
  208DPPC    P810358   5.744   1.555   5.812
  208DPPC    O910359   5.668   1.556   5.939
  208DPPC   O1010360   5.875   1.615   5.778
  208DPPC   O1110361   5.759   1.399   5.774
  208DPPC   C1210362   5.814   1.392   5.642
  208DPPC   C1310363   5.831   1.251   5.587
  208DPPC   O1410364   5.931   1.250   5.485
  208DPPC   C1510365   6.040   1.170   5.502
  208DPPC   O1610366   6.043   1.082   5.588
  208DPPC   C1710367   6.159   1.211   5.415
  208DPPC   C1810368   6.121   1.311   5.305
  208DPPC   C1910369   6.247   1.388   5.264
  208DPPC   C2010370   6.213   1.440   5.124
  208DPPC   C2110371   6.316   1.533   5.060
  208DPPC   C2210372   6.240   1.588   4.939
  208DPPC   C2310373   6.163   1.712   4.986
  208DPPC   C2410374   6.102   1.783   4.865
  208DPPC   C2510375   6.020   1.906   4.906
  208DPPC   C2610376   5.955   1.961   4.779
  208DPPC   C2710377   5.838   1.877   4.728
  208DPPC   C2810378   5.800   1.938   4.593
  208DPPC   C2910379   5.927   1.925   4.508
  208DPPC   C3010380   5.883   1.968   4.368
  208DPPC   C3110381   5.980   1.920   4.260
  208DPPC   C3210382   5.687   1.207   5.561
  208DPPC   O3310383   5.653   1.182   5.424
  208DPPC   C3410384   5.661   1.285   5.336
  208DPPC   O3510385   5.632   1.398   5.376
  208DPPC   C3610386   5.655   1.250   5.187
  208DPPC   C3710387   5.777   1.304   5.113
  208DPPC   C3810388   5.772   1.285   4.961
  208DPPC   C3910389   5.898   1.343   4.896
  208DPPC   C4010390   5.888   1.344   4.743
  208DPPC   C4110391   5.984   1.450   4.688
  208DPPC   C4210392   5.982   1.425   4.537
  208DPPC   C4310393   6.068   1.519   4.452
  208DPPC   C4410394   6.219   1.509   4.476
  208DPPC   C4510395   6.275   1.617   4.385
  208DPPC   C4610396   6.412   1.641   4.449
  208DPPC   C4710397   6.479   1.504   4.451
  208DPPC   C4810398   6.625   1.499   4.497
  208DPPC   C4910399   6.632   1.536   4.645
  208DPPC   C5010400   6.600   1.407   4.721
  209DPPC    C110401   4.744   3.865   6.179
  209DPPC    C210402   4.883   4.029   6.062
  209DPPC    C310403   4.877   3.791   6.006
  209DPPC    N410404   4.800   3.909   6.050
  209DPPC    C510405   4.694   3.917   5.949
  209DPPC    C610406   4.591   4.024   5.987
  209DPPC    O710407   4.472   4.033   5.908
  209DPPC    P810408   4.380   4.154   5.961
  209DPPC    O910409   4.431   4.181   6.098
  209DPPC   O1010410   4.240   4.115   5.933
  209DPPC   O1110411   4.442   4.275   5.874
  209DPPC   C1210412   4.459   4.237   5.738
  209DPPC   C1310413   4.327   4.216   5.664
  209DPPC   O1410414   4.338   4.155   5.534
  209DPPC   C1510415   4.225   4.097   5.484
  209DPPC   O1610416   4.136   4.067   5.563
  209DPPC   C1710417   4.236   4.033   5.346
  209DPPC   C1810418   4.099   4.001   5.287
  209DPPC   C1910419   4.117   4.007   5.135
  209DPPC   C2010420   4.225   3.906   5.096
  209DPPC   C2110421   4.239   3.898   4.944
  209DPPC   C2210422   4.348   3.797   4.908
  209DPPC   C2310423   4.381   3.779   4.760
  209DPPC   C2410424   4.503   3.687   4.761
  209DPPC   C2510425   4.498   3.551   4.830
  209DPPC   C2610426   4.623   3.462   4.830
  209DPPC   C2710427   4.669   3.425   4.688
  209DPPC   C2810428   4.795   3.340   4.696
  209DPPC   C2910429   4.837   3.305   4.553
  209DPPC   C3010430   4.975   3.240   4.535
  209DPPC   C3110431   5.016   3.199   4.393
  209DPPC   C3210432   4.245   4.344   5.676
  209DPPC   O3310433   4.294   4.464   5.615
  209DPPC   C3410434   4.237   4.585   5.642
  209DPPC   O3510435   4.199   4.614   5.755
  209DPPC   C3610436   4.284   4.697   5.549
  209DPPC   C3710437   4.308   4.639   5.410
  209DPPC   C3810438   4.391   4.734   5.324
  209DPPC   C3910439   4.401   4.675   5.183
  209DPPC   C4010440   4.523   4.725   5.105
  209DPPC   C4110441   4.489   4.874   5.095
  209DPPC   C4210442   4.604   4.936   5.016
  209DPPC   C4310443   4.735   4.926   5.094
  209DPPC   C4410444   4.862   4.962   5.016
  209DPPC   C4510445   4.863   4.885   4.884
  209DPPC   C4610446   4.964   4.946   4.786
  209DPPC   C4710447   4.935   4.882   4.650
  209DPPC   C4810448   5.011   4.940   4.531
  209DPPC   C4910449   5.160   4.908   4.540
  209DPPC   C5010450   5.180   4.756   4.542
  210DPPC    C110451   6.416   1.429   6.030
  210DPPC    C210452   6.375   1.472   6.267
  210DPPC    C310453   6.257   1.299   6.154
  210DPPC    N410454   6.386   1.370   6.162
  210DPPC    C510455   6.488   1.273   6.205
  210DPPC    C610456   6.563   1.204   6.091
  210DPPC    O710457   6.677   1.279   6.048
  210DPPC    P810458   6.763   1.208   5.932
  210DPPC    O910459   6.817   1.080   5.985
  210DPPC   O1010460   6.839   1.325   5.882
  210DPPC   O1110461   6.643   1.181   5.828
  210DPPC   C1210462   6.632   1.299   5.748
  210DPPC   C1310463   6.523   1.303   5.640
  210DPPC   O1410464   6.403   1.364   5.689
  210DPPC   C1510465   6.398   1.496   5.655
  210DPPC   O1610466   6.503   1.559   5.660
  210DPPC   C1710467   6.266   1.574   5.663
  210DPPC   C1810468   6.290   1.707   5.592
  210DPPC   C1910469   6.161   1.789   5.591
  210DPPC   C2010470   6.179   1.913   5.503
  210DPPC   C2110471   6.080   2.017   5.558
  210DPPC   C2210472   6.114   2.154   5.501
  210DPPC   C2310473   6.124   2.151   5.348
  210DPPC   C2410474   6.168   2.284   5.286
  210DPPC   C2510475   6.170   2.261   5.135
  210DPPC   C2610476   6.239   2.369   5.052
  210DPPC   C2710477   6.237   2.341   4.901
  210DPPC   C2810478   6.289   2.464   4.826
  210DPPC   C2910479   6.313   2.393   4.693
  210DPPC   C3010480   6.182   2.356   4.623
  210DPPC   C3110481   6.190   2.256   4.508
  210DPPC   C3210482   6.524   1.159   5.589
  210DPPC   O3310483   6.551   1.144   5.449
  210DPPC   C3410484   6.538   1.020   5.395
  210DPPC   O3510485   6.451   0.947   5.443
  210DPPC   C3610486   6.584   1.008   5.250
  210DPPC   C3710487   6.494   1.081   5.150
  210DPPC   C3810488   6.556   1.114   5.015
  210DPPC   C3910489   6.623   0.982   4.975
  210DPPC   C4010490   6.693   0.992   4.838
  210DPPC   C4110491   6.812   1.087   4.851
  210DPPC   C4210492   6.889   1.101   4.720
  210DPPC   C4310493   6.803   1.135   4.598
  210DPPC   C4410494   6.895   1.166   4.480
  210DPPC   C4510495   6.926   1.035   4.407
  210DPPC   C4610496   6.805   0.973   4.336
  210DPPC   C4710497   6.835   0.854   4.245
  210DPPC   C4810498   6.707   0.822   4.167
  210DPPC   C4910499   6.671   0.936   4.071
  210DPPC   C5010500   6.547   0.903   3.987
  211DPPC    C110501   1.366   7.987   5.439
  211DPPC    C210502   1.503   8.184   5.432
  211DPPC    C310503   1.547   7.997   5.589
  211DPPC    N410504   1.503   8.038   5.455
  211DPPC    C510505   1.596   7.996   5.349
  211DPPC    C610506   1.602   7.853   5.296
  211DPPC    O710507   1.500   7.827   5.200
  211DPPC    P810508   1.522   7.692   5.116
  211DPPC    O910509   1.384   7.641   5.131
  211DPPC   O1010510   1.641   7.629   5.178
  211DPPC   O1110511   1.560   7.790   4.994
  211DPPC   C1210512   1.440   7.844   4.938
  211DPPC   C1310513   1.467   7.947   4.828
  211DPPC   O1410514   1.485   7.894   4.696
  211DPPC   C1510515   1.373   7.862   4.627
  211DPPC   O1610516   1.266   7.855   4.688
  211DPPC   C1710517   1.398   7.789   4.495
  211DPPC   C1810518   1.382   7.898   4.389
  211DPPC   C1910519   1.234   7.935   4.376
  211DPPC   C2010520   1.199   8.008   4.246
  211DPPC   C2110521   1.059   8.067   4.262
  211DPPC   C2210522   1.021   8.164   4.149
  211DPPC   C2310523   1.062   8.096   4.018
  211DPPC   C2410524   1.039   8.198   3.907
  211DPPC   C2510525   1.053   8.141   3.766
  211DPPC   C2610526   0.932   8.061   3.717
  211DPPC   C2710527   0.840   8.150   3.632
  211DPPC   C2810528   0.919   8.220   3.521
  211DPPC   C2910529   0.815   8.280   3.427
  211DPPC   C3010530   0.865   8.376   3.319
  211DPPC   C3110531   0.962   8.313   3.219
  211DPPC   C3210532   1.578   8.037   4.882
  211DPPC   O3310533   1.599   8.152   4.801
  211DPPC   C3410534   1.667   8.241   4.878
  211DPPC   O3510535   1.715   8.206   4.986
  211DPPC   C3610536   1.681   8.384   4.824
  211DPPC   C3710537   1.800   8.393   4.728
  211DPPC   C3810538   1.784   8.522   4.647
  211DPPC   C3910539   1.883   8.525   4.530
  211DPPC   C4010540   1.843   8.656   4.463
  211DPPC   C4110541   1.808   8.630   4.316
  211DPPC   C4210542   1.760   8.757   4.247
  211DPPC   C4310543   1.725   8.732   4.101
  211DPPC   C4410544   1.707   8.854   4.010
  211DPPC   C4510545   1.567   8.913   4.030
  211DPPC   C4610546   1.546   9.044   3.954
  211DPPC   C4710547   1.588   9.021   3.809
  211DPPC   C4810548   1.569   9.156   3.740
  211DPPC   C4910549   1.666   9.268   3.781
  211DPPC   C5010550   1.601   9.388   3.711
  212DPPC    C110551   4.643   8.245   5.827
  212DPPC    C210552   4.697   8.460   5.748
  212DPPC    C310553   4.852   8.288   5.705
  212DPPC    N410554   4.709   8.317   5.717
  212DPPC    C510555   4.630   8.280   5.598
  212DPPC    C610556   4.638   8.361   5.469
  212DPPC    O710557   4.769   8.382   5.415
  212DPPC    P810558   4.755   8.528   5.347
  212DPPC    O910559   4.876   8.556   5.267
  212DPPC   O1010560   4.697   8.612   5.454
  212DPPC   O1110561   4.644   8.510   5.232
  212DPPC   C1210562   4.697   8.403   5.152
  212DPPC   C1310563   4.606   8.348   5.042
  212DPPC   O1410564   4.659   8.235   4.971
  212DPPC   C1510565   4.674   8.113   5.029
  212DPPC   O1610566   4.624   8.096   5.140
  212DPPC   C1710567   4.729   8.006   4.934
  212DPPC   C1810568   4.663   8.026   4.798
  212DPPC   C1910569   4.713   7.935   4.685
  212DPPC   C2010570   4.615   7.975   4.575
  212DPPC   C2110571   4.659   7.904   4.446
  212DPPC   C2210572   4.530   7.839   4.395
  212DPPC   C2310573   4.540   7.752   4.269
  212DPPC   C2410574   4.413   7.670   4.247
  212DPPC   C2510575   4.433   7.585   4.121
  212DPPC   C2610576   4.443   7.661   3.989
  212DPPC   C2710577   4.485   7.544   3.898
  212DPPC   C2810578   4.532   7.578   3.757
  212DPPC   C2910579   4.571   7.456   3.674
  212DPPC   C3010580   4.604   7.484   3.527
  212DPPC   C3110581   4.648   7.346   3.478
  212DPPC   C3210582   4.558   8.471   4.966
  212DPPC   O3310583   4.670   8.536   4.905
  212DPPC   C3410584   4.649   8.652   4.838
  212DPPC   O3510585   4.543   8.714   4.843
  212DPPC   C3610586   4.782   8.712   4.791
  212DPPC   C3710587   4.778   8.718   4.638
  212DPPC   C3810588   4.912   8.725   4.565
  212DPPC   C3910589   4.875   8.752   4.419
  212DPPC   C4010590   5.001   8.766   4.332
  212DPPC   C4110591   5.113   8.665   4.360
  212DPPC   C4210592   5.235   8.687   4.270
  212DPPC   C4310593   5.368   8.621   4.306
  212DPPC   C4410594   5.423   8.680   4.435
  212DPPC   C4510595   5.545   8.596   4.476
  212DPPC   C4610596   5.645   8.597   4.361
  212DPPC   C4710597   5.777   8.545   4.418
  212DPPC   C4810598   5.884   8.515   4.313
  212DPPC   C4910599   5.993   8.445   4.394
  212DPPC   C5010600   6.086   8.399   4.282
  213DPPC    C110601   7.649   1.971   6.104
  213DPPC    C210602   7.712   2.178   6.027
  213DPPC    C310603   7.734   2.009   5.872
  213DPPC    N410604   7.648   2.053   5.983
  213DPPC    C510605   7.516   2.082   5.924
  213DPPC    C610606   7.411   1.972   5.919
  213DPPC    O710607   7.459   1.852   5.857
  213DPPC    P810608   7.391   1.728   5.932
  213DPPC    O910609   7.311   1.775   6.048
  213DPPC   O1010610   7.496   1.625   5.948
  213DPPC   O1110611   7.294   1.673   5.815
  213DPPC   C1210612   7.360   1.655   5.689
  213DPPC   C1310613   7.271   1.629   5.567
  213DPPC   O1410614   7.341   1.574   5.455
  213DPPC   C1510615   7.377   1.443   5.467
  213DPPC   O1610616   7.354   1.377   5.568
  213DPPC   C1710617   7.438   1.377   5.343
  213DPPC   C1810618   7.340   1.356   5.228
  213DPPC   C1910619   7.390   1.265   5.115
  213DPPC   C2010620   7.281   1.239   5.011
  213DPPC   C2110621   7.322   1.143   4.899
  213DPPC   C2210622   7.443   1.195   4.821
  213DPPC   C2310623   7.508   1.076   4.750
  213DPPC   C2410624   7.419   1.060   4.627
  213DPPC   C2510625   7.401   1.189   4.547
  213DPPC   C2610626   7.522   1.190   4.453
  213DPPC   C2710627   7.513   1.316   4.367
  213DPPC   C2810628   7.395   1.296   4.272
  213DPPC   C2910629   7.376   1.404   4.164
  213DPPC   C3010630   7.234   1.410   4.108
  213DPPC   C3110631   7.243   1.507   3.991
  213DPPC   C3210632   7.177   1.750   5.557
  213DPPC   O3310633   7.063   1.731   5.474
  213DPPC   C3410634   6.975   1.833   5.452
  213DPPC   O3510635   6.975   1.932   5.526
  213DPPC   C3610636   6.862   1.812   5.352
  213DPPC   C3710637   6.737   1.775   5.432
  213DPPC   C3810638   6.614   1.790   5.341
  213DPPC   C3910639   6.606   1.924   5.269
  213DPPC   C4010640   6.570   2.028   5.375
  213DPPC   C4110641   6.569   2.173   5.327
  213DPPC   C4210642   6.546   2.279   5.435
  213DPPC   C4310643   6.540   2.420   5.376
  213DPPC   C4410644   6.659   2.475   5.296
  213DPPC   C4510645   6.645   2.622   5.257
  213DPPC   C4610646   6.513   2.639   5.182
  213DPPC   C4710647   6.500   2.780   5.124
  213DPPC   C4810648   6.373   2.808   5.042
  213DPPC   C4910649   6.374   2.954   4.996
  213DPPC   C5010650   6.325   3.040   5.112
  214DPPC    C110651   5.491   7.927   5.741
  214DPPC    C210652   5.507   7.749   5.893
  214DPPC    C310653   5.459   7.690   5.665
  214DPPC    N410654   5.529   7.785   5.752
  214DPPC    C510655   5.675   7.774   5.747
  214DPPC    C610656   5.755   7.816   5.623
  214DPPC    O710657   5.752   7.712   5.525
  214DPPC    P810658   5.838   7.757   5.396
  214DPPC    O910659   5.911   7.629   5.382
  214DPPC   O1010660   5.903   7.884   5.434
  214DPPC   O1110661   5.707   7.764   5.303
  214DPPC   C1210662   5.699   7.654   5.212
  214DPPC   C1310663   5.553   7.639   5.170
  214DPPC   O1410664   5.526   7.524   5.089
  214DPPC   C1510665   5.544   7.402   5.148
  214DPPC   O1610666   5.565   7.380   5.267
  214DPPC   C1710667   5.550   7.299   5.036
  214DPPC   C1810668   5.632   7.175   5.074
  214DPPC   C1910669   5.678   7.096   4.952
  214DPPC   C2010670   5.760   6.968   4.972
  214DPPC   C2110671   5.752   6.876   4.850
  214DPPC   C2210672   5.846   6.757   4.870
  214DPPC   C2310673   5.986   6.820   4.868
  214DPPC   C2410674   6.088   6.706   4.875
  214DPPC   C2510675   6.061   6.599   4.769
  214DPPC   C2610676   6.149   6.474   4.776
  214DPPC   C2710677   6.097   6.371   4.676
  214DPPC   C2810678   5.944   6.376   4.673
  214DPPC   C2910679   5.895   6.289   4.557
  214DPPC   C3010680   5.894   6.138   4.583
  214DPPC   C3110681   5.883   6.048   4.461
  214DPPC   C3210682   5.533   7.770   5.093
  214DPPC   O3310683   5.624   7.819   4.995
  214DPPC   C3410684   5.584   7.941   4.950
  214DPPC   O3510685   5.502   8.005   5.017
  214DPPC   C3610686   5.645   8.006   4.826
  214DPPC   C3710687   5.702   7.904   4.728
  214DPPC   C3810688   5.797   7.962   4.623
  214DPPC   C3910689   5.873   7.843   4.563
  214DPPC   C4010690   5.937   7.874   4.428
  214DPPC   C4110691   6.029   7.753   4.411
  214DPPC   C4210692   6.016   7.708   4.266
  214DPPC   C4310693   6.109   7.590   4.237
  214DPPC   C4410694   6.251   7.616   4.288
  214DPPC   C4510695   6.352   7.516   4.231
  214DPPC   C4610696   6.303   7.376   4.268
  214DPPC   C4710697   6.391   7.258   4.225
  214DPPC   C4810698   6.530   7.273   4.287
  214DPPC   C4910699   6.613   7.149   4.250
  214DPPC   C5010700   6.748   7.155   4.321
  215DPPC    C110701   8.056   0.314   5.380
  215DPPC    C210702   8.139   0.445   5.569
  215DPPC    C310703   7.950   0.319   5.579
  215DPPC    N410704   8.086   0.315   5.524
  215DPPC    C510705   8.148   0.194   5.581
  215DPPC    C610706   8.299   0.185   5.559
  215DPPC    O710707   8.342   0.117   5.441
  215DPPC    P810708   8.484   0.165   5.383
  215DPPC    O910709   8.583   0.078   5.450
  215DPPC   O1010710   8.475   0.307   5.424
  215DPPC   O1110711   8.451   0.134   5.228
  215DPPC   C1210712   8.391   0.249   5.170
  215DPPC   C1310713   8.372   0.224   5.020
  215DPPC   O1410714   8.341   0.342   4.944
  215DPPC   C1510715   8.235   0.423   4.969
  215DPPC   O1610716   8.182   0.427   5.079
  215DPPC   C1710717   8.208   0.526   4.859
  215DPPC   C1810718   8.169   0.441   4.738
  215DPPC   C1910719   8.147   0.514   4.605
  215DPPC   C2010720   8.109   0.409   4.501
  215DPPC   C2110721   8.069   0.467   4.365
  215DPPC   C2210722   8.188   0.547   4.314
  215DPPC   C2310723   8.143   0.614   4.183
  215DPPC   C2410724   8.079   0.747   4.222
  215DPPC   C2510725   8.027   0.821   4.098
  215DPPC   C2610726   7.962   0.952   4.143
  215DPPC   C2710727   7.901   1.003   4.012
  215DPPC   C2810728   7.823   0.891   3.942
  215DPPC   C2910729   7.740   0.927   3.819
  215DPPC   C3010730   7.613   0.995   3.868
  215DPPC   C3110731   7.546   0.926   3.987
  215DPPC   C3210732   8.259   0.121   5.013
  215DPPC   O3310733   8.214   0.102   4.879
  215DPPC   C3410734   8.290   0.063   4.772
  215DPPC   O3510735   8.388  -0.005   4.803
  215DPPC   C3610736   8.227   0.080   4.634
  215DPPC   C3710737   8.149  -0.043   4.587
  215DPPC   C3810738   8.079   0.004   4.459
  215DPPC   C3910739   7.975  -0.103   4.425
  215DPPC   C4010740   7.881  -0.067   4.310
  215DPPC   C4110741   7.803  -0.191   4.267
  215DPPC   C4210742   7.701  -0.153   4.159
  215DPPC   C4310743   7.775  -0.110   4.032
  215DPPC   C4410744   7.675  -0.103   3.916
  215DPPC   C4510745   7.568   0.006   3.922
  215DPPC   C4610746   7.470   0.000   3.804
  215DPPC   C4710747   7.397  -0.134   3.798
  215DPPC   C4810748   7.333  -0.137   3.659
  215DPPC   C4910749   7.270  -0.273   3.625
  215DPPC   C5010750   7.287  -0.305   3.476
  216DPPC    C110751   4.427   0.257   5.264
  216DPPC    C210752   4.492   0.452   5.122
  216DPPC    C310753   4.332   0.479   5.289
  216DPPC    N410754   4.452   0.401   5.254
  216DPPC    C510755   4.550   0.438   5.358
  216DPPC    C610756   4.611   0.578   5.366
  216DPPC    O710757   4.531   0.679   5.428
  216DPPC    P810758   4.615   0.815   5.411
  216DPPC    O910759   4.760   0.785   5.427
  216DPPC   O1010760   4.530   0.883   5.511
  216DPPC   O1110761   4.569   0.854   5.262
  216DPPC   C1210762   4.431   0.892   5.255
  216DPPC   C1310763   4.380   0.931   5.116
  216DPPC   O1410764   4.319   0.815   5.058
  216DPPC   C1510765   4.186   0.786   5.065
  216DPPC   O1610766   4.131   0.821   5.169
  216DPPC   C1710767   4.163   0.651   4.996
  216DPPC   C1810768   4.236   0.629   4.863
  216DPPC   C1910769   4.218   0.491   4.800
  216DPPC   C2010770   4.255   0.490   4.652
  216DPPC   C2110771   4.224   0.361   4.575
  216DPPC   C2210772   4.283   0.350   4.435
  216DPPC   C2310773   4.435   0.348   4.415
  216DPPC   C2410774   4.484   0.357   4.270
  216DPPC   C2510775   4.531   0.216   4.234
  216DPPC   C2610776   4.652   0.221   4.140
  216DPPC   C2710777   4.718   0.093   4.089
  216DPPC   C2810778   4.831   0.124   3.991
  216DPPC   C2910779   4.897  -0.003   3.935
  216DPPC   C3010780   4.810  -0.077   3.834
  216DPPC   C3110781   4.756   0.009   3.719
  216DPPC   C3210782   4.485   1.004   5.033
  216DPPC   O3310783   4.503   1.145   5.051
  216DPPC   C3410784   4.604   1.197   4.976
  216DPPC   O3510785   4.694   1.126   4.932
  216DPPC   C3610786   4.583   1.341   4.928
  216DPPC   C3710787   4.492   1.355   4.806
  216DPPC   C3810788   4.427   1.494   4.816
  216DPPC   C3910789   4.308   1.511   4.722
  216DPPC   C4010790   4.216   1.398   4.768
  216DPPC   C4110791   4.114   1.355   4.662
  216DPPC   C4210792   4.003   1.460   4.650
  216DPPC   C4310793   3.897   1.406   4.553
  216DPPC   C4410794   3.945   1.380   4.410
  216DPPC   C4510795   3.832   1.418   4.314
  216DPPC   C4610796   3.856   1.375   4.169
  216DPPC   C4710797   3.757   1.435   4.069
  216DPPC   C4810798   3.774   1.352   3.941
  216DPPC   C4910799   3.686   1.404   3.827
  216DPPC   C5010800   3.695   1.314   3.703
  217DPPC    C110801   5.499   6.888   5.647
  217DPPC    C210802   5.518   7.057   5.489
  217DPPC    C310803   5.380   6.875   5.444
  217DPPC    N410804   5.420   6.967   5.552
  217DPPC    C510805   5.298   7.020   5.616
  217DPPC    C610806   5.310   7.161   5.674
  217DPPC    O710807   5.188   7.235   5.668
  217DPPC    P810808   5.204   7.373   5.749
  217DPPC    O910809   5.326   7.387   5.831
  217DPPC   O1010810   5.083   7.443   5.798
  217DPPC   O1110811   5.254   7.451   5.617
  217DPPC   C1210812   5.149   7.469   5.522
  217DPPC   C1310813   5.189   7.527   5.386
  217DPPC   O1410814   5.096   7.622   5.331
  217DPPC   C1510815   5.124   7.707   5.229
  217DPPC   O1610816   5.238   7.747   5.207
  217DPPC   C1710817   5.004   7.766   5.153
  217DPPC   C1810818   5.037   7.787   5.005
  217DPPC   C1910819   5.084   7.930   4.976
  217DPPC   C2010820   5.070   7.967   4.829
  217DPPC   C2110821   5.139   7.874   4.729
  217DPPC   C2210822   5.121   7.920   4.584
  217DPPC   C2310823   5.198   7.821   4.496
  217DPPC   C2410824   5.176   7.871   4.353
  217DPPC   C2510825   5.026   7.856   4.326
  217DPPC   C2610826   5.010   7.880   4.175
  217DPPC   C2710827   4.866   7.904   4.131
  217DPPC   C2810828   4.861   7.990   4.005
  217DPPC   C2910829   4.916   7.909   3.888
  217DPPC   C3010830   4.941   8.008   3.774
  217DPPC   C3110831   5.014   7.934   3.661
  217DPPC   C3210832   5.232   7.409   5.298
  217DPPC   O3310833   5.122   7.317   5.298
  217DPPC   C3410834   5.163   7.197   5.247
  217DPPC   O3510835   5.278   7.168   5.216
  217DPPC   C3610836   5.049   7.096   5.237
  217DPPC   C3710837   4.948   7.134   5.129
  217DPPC   C3810838   5.010   7.106   4.991
  217DPPC   C3910839   4.902   7.046   4.901
  217DPPC   C4010840   4.892   7.097   4.757
  217DPPC   C4110841   4.769   7.043   4.683
  217DPPC   C4210842   4.788   7.066   4.533
  217DPPC   C4310843   4.917   7.014   4.469
  217DPPC   C4410844   4.897   7.063   4.325
  217DPPC   C4510845   5.020   7.029   4.240
  217DPPC   C4610846   4.989   7.051   4.092
  217DPPC   C4710847   5.114   7.027   4.007
  217DPPC   C4810848   5.195   7.140   4.073
  217DPPC   C4910849   5.316   7.173   3.985
  217DPPC   C5010850   5.421   7.269   4.040
  218DPPC    C110851   1.997   4.302   5.978
  218DPPC    C210852   2.178   4.413   5.897
  218DPPC    C310853   2.201   4.277   6.095
  218DPPC    N410854   2.142   4.285   5.960
  218DPPC    C510855   2.159   4.172   5.868
  218DPPC    C610856   2.299   4.150   5.810
  218DPPC    O710857   2.309   4.043   5.716
  218DPPC    P810858   2.458   4.033   5.657
  218DPPC    O910859   2.483   3.888   5.641
  218DPPC   O1010860   2.559   4.109   5.734
  218DPPC   O1110861   2.427   4.073   5.504
  218DPPC   C1210862   2.380   3.964   5.424
  218DPPC   C1310863   2.227   3.971   5.414
  218DPPC   O1410864   2.185   3.853   5.345
  218DPPC   C1510865   2.055   3.814   5.355
  218DPPC   O1610866   1.980   3.873   5.433
  218DPPC   C1710867   2.006   3.699   5.266
  218DPPC   C1810868   1.936   3.755   5.143
  218DPPC   C1910869   1.890   3.636   5.058
  218DPPC   C2010870   1.834   3.673   4.920
  218DPPC   C2110871   1.849   3.554   4.824
  218DPPC   C2210872   1.802   3.603   4.687
  218DPPC   C2310873   1.747   3.485   4.606
  218DPPC   C2410874   1.723   3.529   4.461
  218DPPC   C2510875   1.638   3.430   4.382
  218DPPC   C2610876   1.622   3.485   4.240
  218DPPC   C2710877   1.560   3.380   4.148
  218DPPC   C2810878   1.528   3.441   4.012
  218DPPC   C2910879   1.650   3.513   3.954
  218DPPC   C3010880   1.636   3.541   3.804
  218DPPC   C3110881   1.763   3.613   3.758
  218DPPC   C3210882   2.199   4.105   5.345
  218DPPC   O3310883   2.271   4.118   5.222
  218DPPC   C3410884   2.254   4.236   5.156
  218DPPC   O3510885   2.149   4.298   5.159
  218DPPC   C3610886   2.338   4.245   5.028
  218DPPC   C3710887   2.247   4.269   4.908
  218DPPC   C3810888   2.321   4.254   4.775
  218DPPC   C3910889   2.440   4.347   4.747
  218DPPC   C4010890   2.481   4.327   4.601
  218DPPC   C4110891   2.594   4.424   4.566
  218DPPC   C4210892   2.605   4.456   4.417
  218DPPC   C4310893   2.737   4.531   4.396
  218DPPC   C4410894   2.738   4.657   4.484
  218DPPC   C4510895   2.878   4.717   4.466
  218DPPC   C4610896   2.891   4.851   4.540
  218DPPC   C4710897   3.036   4.900   4.537
  218DPPC   C4810898   3.092   4.905   4.394
  218DPPC   C4910899   3.242   4.936   4.401
  218DPPC   C5010900   3.306   4.921   4.262
  219DPPC    C110901   8.930   6.814   5.198
  219DPPC    C210902   9.108   6.920   5.112
  219DPPC    C310903   9.140   6.809   5.317
  219DPPC    N410904   9.075   6.797   5.186
  219DPPC    C510905   9.119   6.698   5.086
  219DPPC    C610906   9.047   6.572   5.036
  219DPPC    O710907   9.134   6.494   4.953
  219DPPC    P810908   9.036   6.374   4.912
  219DPPC    O910909   8.924   6.443   4.844
  219DPPC   O1010910   9.005   6.291   5.031
  219DPPC   O1110911   9.121   6.272   4.821
  219DPPC   C1210912   9.129   6.344   4.698
  219DPPC   C1310913   9.215   6.286   4.585
  219DPPC   O1410914   9.203   6.359   4.462
  219DPPC   C1510915   9.296   6.347   4.363
  219DPPC   O1610916   9.397   6.282   4.390
  219DPPC   C1710917   9.287   6.432   4.236
  219DPPC   C1810918   9.357   6.374   4.113
  219DPPC   C1910919   9.379   6.483   4.009
  219DPPC   C2010920   9.502   6.458   3.921
  219DPPC   C2110921   9.483   6.325   3.848
  219DPPC   C2210922   9.626   6.270   3.845
  219DPPC   C2310923   9.629   6.124   3.801
  219DPPC   C2410924   9.775   6.092   3.772
  219DPPC   C2510925   9.770   5.951   3.712
  219DPPC   C2610926   9.680   5.864   3.799
  219DPPC   C2710927   9.619   5.746   3.722
  219DPPC   C2810928   9.538   5.807   3.608
  219DPPC   C2910929   9.418   5.890   3.653
  219DPPC   C3010930   9.400   5.998   3.546
  219DPPC   C3110931   9.266   6.070   3.570
  219DPPC   C3210932   9.185   6.137   4.567
  219DPPC   O3310933   9.051   6.092   4.550
  219DPPC   C3410934   9.040   5.957   4.550
  219DPPC   O3510935   9.127   5.895   4.613
  219DPPC   C3610936   8.918   5.890   4.488
  219DPPC   C3710937   8.893   5.758   4.562
  219DPPC   C3810938   8.756   5.708   4.516
  219DPPC   C3910939   8.755   5.668   4.369
  219DPPC   C4010940   8.624   5.610   4.315
  219DPPC   C4110941   8.623   5.589   4.164
  219DPPC   C4210942   8.489   5.523   4.129
  219DPPC   C4310943   8.482   5.486   3.981
  219DPPC   C4410944   8.512   5.609   3.895
  219DPPC   C4510945   8.529   5.573   3.748
  219DPPC   C4610946   8.395   5.521   3.696
  219DPPC   C4710947   8.398   5.541   3.544
  219DPPC   C4810948   8.265   5.527   3.470
  219DPPC   C4910949   8.290   5.494   3.323
  219DPPC   C5010950   8.152   5.480   3.257
  220DPPC    C110951   4.559   6.735   5.433
  220DPPC    C210952   4.400   6.572   5.444
  220DPPC    C310953   4.412   6.716   5.260
  220DPPC    N410954   4.494   6.633   5.350
  220DPPC    C510955   4.573   6.532   5.277
  220DPPC    C610956   4.684   6.465   5.358
  220DPPC    O710957   4.633   6.373   5.454
  220DPPC    P810958   4.727   6.250   5.499
  220DPPC    O910959   4.654   6.200   5.618
  220DPPC   O1010960   4.864   6.305   5.491
  220DPPC   O1110961   4.678   6.163   5.373
  220DPPC   C1210962   4.785   6.125   5.285
  220DPPC   C1310963   4.746   6.087   5.142
  220DPPC   O1410964   4.863   6.061   5.062
  220DPPC   C1510965   4.902   5.930   5.063
  220DPPC   O1610966   4.854   5.849   5.141
  220DPPC   C1710967   5.029   5.908   4.980
  220DPPC   C1810968   5.014   5.914   4.828
  220DPPC   C1910969   5.140   5.904   4.742
  220DPPC   C2010970   5.210   5.769   4.756
  220DPPC   C2110971   5.321   5.729   4.659
  220DPPC   C2210972   5.265   5.690   4.522
  220DPPC   C2310973   5.387   5.672   4.432
  220DPPC   C2410974   5.497   5.577   4.478
  220DPPC   C2510975   5.597   5.538   4.369
  220DPPC   C2610976   5.549   5.428   4.275
  220DPPC   C2710977   5.661   5.388   4.179
  220DPPC   C2810978   5.600   5.295   4.074
  220DPPC   C2910979   5.708   5.253   3.974
  220DPPC   C3010980   5.671   5.298   3.833
  220DPPC   C3110981   5.799   5.304   3.749
  220DPPC   C3210982   4.669   6.206   5.086
  220DPPC   O3310983   4.616   6.202   4.953
  220DPPC   C3410984   4.551   6.313   4.909
  220DPPC   O3510985   4.548   6.419   4.970
  220DPPC   C3610986   4.478   6.290   4.776
  220DPPC   C3710987   4.584   6.308   4.667
  220DPPC   C3810988   4.639   6.170   4.631
  220DPPC   C3910989   4.739   6.189   4.517
  220DPPC   C4010990   4.706   6.124   4.382
  220DPPC   C4110991   4.565   6.159   4.334
  220DPPC   C4210992   4.538   6.068   4.214
  220DPPC   C4310993   4.648   6.079   4.108
  220DPPC   C4410994   4.615   5.993   3.985
  220DPPC   C4510995   4.742   5.972   3.903
  220DPPC   C4610996   4.814   6.104   3.876
  220DPPC   C4710997   4.736   6.201   3.787
  220DPPC   C4810998   4.816   6.330   3.770
  220DPPC   C4910999   4.749   6.428   3.674
  220DPPC   C5011000   4.832   6.556   3.689
  221DPPC    C111001   0.382   6.243   4.705
  221DPPC    C211002   0.331   6.049   4.586
  221DPPC    C311003   0.464   6.209   4.475
  221DPPC    N411004   0.437   6.149   4.607
  221DPPC    C511005   0.558   6.086   4.661
  221DPPC    C611006   0.683   6.164   4.703
  221DPPC    O711007   0.779   6.110   4.794
  221DPPC    P811008   0.888   6.226   4.819
  221DPPC    O911009   0.973   6.184   4.932
  221DPPC   O1011010   0.815   6.355   4.818
  221DPPC   O1111011   0.960   6.211   4.676
  221DPPC   C1211012   1.080   6.136   4.687
  221DPPC   C1311013   1.150   6.103   4.555
  221DPPC   O1411014   1.246   6.188   4.491
  221DPPC   C1511015   1.371   6.207   4.542
  221DPPC   O1611016   1.412   6.129   4.627
  221DPPC   C1711017   1.454   6.295   4.449
  221DPPC   C1811018   1.399   6.438   4.439
  221DPPC   C1911019   1.295   6.463   4.330
  221DPPC   C2011020   1.349   6.427   4.191
  221DPPC   C2111021   1.243   6.426   4.081
  221DPPC   C2211022   1.314   6.373   3.957
  221DPPC   C2311023   1.222   6.376   3.835
  221DPPC   C2411024   1.297   6.310   3.718
  221DPPC   C2511025   1.210   6.323   3.592
  221DPPC   C2611026   1.079   6.245   3.606
  221DPPC   C2711027   0.989   6.248   3.483
  221DPPC   C2811028   0.925   6.385   3.456
  221DPPC   C2911029   0.887   6.416   3.311
  221DPPC   C3011030   0.988   6.514   3.252
  221DPPC   C3111031   0.991   6.630   3.352
  221DPPC   C3211032   1.034   6.070   4.461
  221DPPC   O3311033   0.996   5.934   4.488
  221DPPC   C3411034   0.877   5.914   4.426
  221DPPC   O3511035   0.800   6.007   4.401
  221DPPC   C3611036   0.826   5.772   4.446
  221DPPC   C3711037   0.799   5.705   4.311
  221DPPC   C3811038   0.726   5.571   4.326
  221DPPC   C3911039   0.730   5.462   4.220
  221DPPC   C4011040   0.658   5.507   4.092
  221DPPC   C4111041   0.709   5.407   3.988
  221DPPC   C4211042   0.651   5.448   3.853
  221DPPC   C4311043   0.498   5.436   3.846
  221DPPC   C4411044   0.438   5.434   3.705
  221DPPC   C4511045   0.290   5.394   3.703
  221DPPC   C4611046   0.226   5.437   3.570
  221DPPC   C4711047   0.093   5.366   3.546
  221DPPC   C4811048   0.035   5.397   3.407
  221DPPC   C4911049  -0.095   5.319   3.384
  221DPPC   C5011050  -0.073   5.169   3.403
  222DPPC    C111051   5.846   4.117   6.553
  222DPPC    C211052   5.664   3.986   6.562
  222DPPC    C311053   5.705   4.105   6.355
  222DPPC    N411054   5.767   4.029   6.466
  222DPPC    C511055   5.871   3.941   6.413
  222DPPC    C611056   5.852   3.793   6.378
  222DPPC    O711057   5.735   3.768   6.300
  222DPPC    P811058   5.708   3.609   6.308
  222DPPC    O911059   5.561   3.603   6.325
  222DPPC   O1011060   5.799   3.538   6.400
  222DPPC   O1111061   5.765   3.577   6.161
  222DPPC   C1211062   5.673   3.626   6.063
  222DPPC   C1311063   5.711   3.623   5.915
  222DPPC   O1411064   5.596   3.638   5.829
  222DPPC   C1511065   5.560   3.753   5.765
  222DPPC   O1611066   5.624   3.854   5.793
  222DPPC   C1711067   5.485   3.724   5.635
  222DPPC   C1811068   5.503   3.815   5.513
  222DPPC   C1911069   5.639   3.825   5.444
  222DPPC   C2011070   5.624   3.931   5.336
  222DPPC   C2111071   5.513   3.898   5.236
  222DPPC   C2211072   5.551   3.966   5.104
  222DPPC   C2311073   5.441   3.965   4.998
  222DPPC   C2411074   5.483   4.058   4.884
  222DPPC   C2511075   5.373   4.073   4.780
  222DPPC   C2611076   5.303   4.209   4.783
  222DPPC   C2711077   5.230   4.230   4.650
  222DPPC   C2811078   5.158   4.365   4.653
  222DPPC   C2911079   5.084   4.369   4.787
  222DPPC   C3011080   5.011   4.498   4.823
  222DPPC   C3111081   5.013   4.497   4.976
  222DPPC   C3211082   5.792   3.494   5.897
  222DPPC   O3311083   5.887   3.498   5.790
  222DPPC   C3411084   5.929   3.382   5.734
  222DPPC   O3511085   5.875   3.273   5.747
  222DPPC   C3611086   6.046   3.398   5.635
  222DPPC   C3711087   5.994   3.396   5.492
  222DPPC   C3811088   5.878   3.485   5.448
  222DPPC   C3911089   5.852   3.459   5.299
  222DPPC   C4011090   5.753   3.553   5.231
  222DPPC   C4111091   5.760   3.534   5.080
  222DPPC   C4211092   5.668   3.630   5.004
  222DPPC   C4311093   5.674   3.607   4.853
  222DPPC   C4411094   5.583   3.716   4.796
  222DPPC   C4511095   5.582   3.707   4.644
  222DPPC   C4611096   5.481   3.794   4.569
  222DPPC   C4711097   5.516   3.798   4.420
  222DPPC   C4811098   5.423   3.888   4.338
  222DPPC   C4911099   5.271   3.871   4.350
  222DPPC   C5011100   5.197   3.933   4.232
  223DPPC    C111101   3.440   7.435   6.038
  223DPPC    C211102   3.522   7.213   6.059
  223DPPC    C311103   3.293   7.252   6.005
  223DPPC    N411104   3.431   7.299   5.983
  223DPPC    C511105   3.492   7.293   5.849
  223DPPC    C611106   3.437   7.385   5.739
  223DPPC    O711107   3.479   7.350   5.607
  223DPPC    P811108   3.396   7.432   5.497
  223DPPC    O911109   3.474   7.554   5.469
  223DPPC   O1011110   3.260   7.430   5.554
  223DPPC   O1111111   3.421   7.312   5.392
  223DPPC   C1211112   3.541   7.338   5.319
  223DPPC   C1311113   3.605   7.219   5.246
  223DPPC   O1411114   3.713   7.271   5.168
  223DPPC   C1511115   3.828   7.198   5.167
  223DPPC   O1611116   3.835   7.095   5.233
  223DPPC   C1711117   3.947   7.248   5.085
  223DPPC   C1811118   3.902   7.308   4.952
  223DPPC   C1911119   3.844   7.201   4.859
  223DPPC   C2011120   3.819   7.253   4.717
  223DPPC   C2111121   3.780   7.156   4.606
  223DPPC   C2211122   3.909   7.107   4.540
  223DPPC   C2311123   3.894   7.020   4.415
  223DPPC   C2411124   3.862   7.115   4.299
  223DPPC   C2511125   3.877   7.048   4.163
  223DPPC   C2611126   4.022   7.031   4.115
  223DPPC   C2711127   4.022   6.974   3.973
  223DPPC   C2811128   3.974   6.828   3.973
  223DPPC   C2911129   4.016   6.757   3.844
  223DPPC   C3011130   3.943   6.623   3.835
  223DPPC   C3111131   3.991   6.553   3.707
  223DPPC   C3211132   3.490   7.149   5.173
  223DPPC   O3311133   3.416   7.215   5.070
  223DPPC   C3411134   3.314   7.146   5.011
  223DPPC   O3511135   3.281   7.040   5.064
  223DPPC   C3611136   3.250   7.201   4.883
  223DPPC   C3711137   3.348   7.206   4.766
  223DPPC   C3811138   3.284   7.237   4.630
  223DPPC   C3911139   3.387   7.267   4.522
  223DPPC   C4011140   3.339   7.296   4.379
  223DPPC   C4111141   3.461   7.327   4.292
  223DPPC   C4211142   3.416   7.391   4.160
  223DPPC   C4311143   3.544   7.409   4.078
  223DPPC   C4411144   3.505   7.446   3.935
  223DPPC   C4511145   3.622   7.472   3.840
  223DPPC   C4611146   3.573   7.489   3.696
  223DPPC   C4711147   3.691   7.530   3.608
  223DPPC   C4811148   3.646   7.544   3.463
  223DPPC   C4911149   3.769   7.517   3.375
  223DPPC   C5011150   3.735   7.542   3.228
  224DPPC    C111151   3.544   3.481   6.224
  224DPPC    C211152   3.327   3.396   6.151
  224DPPC    C311153   3.342   3.609   6.237
  224DPPC    N411154   3.417   3.512   6.156
  224DPPC    C511155   3.437   3.581   6.028
  224DPPC    C611156   3.543   3.528   5.931
  224DPPC    O711157   3.530   3.392   5.891
  224DPPC    P811158   3.671   3.330   5.843
  224DPPC    O911159   3.618   3.192   5.846
  224DPPC   O1011160   3.769   3.386   5.938
  224DPPC   O1111161   3.669   3.397   5.697
  224DPPC   C1211162   3.657   3.290   5.603
  224DPPC   C1311163   3.656   3.330   5.455
  224DPPC   O1411164   3.648   3.220   5.364
  224DPPC   C1511165   3.740   3.120   5.356
  224DPPC   O1611166   3.838   3.122   5.430
  224DPPC   C1711167   3.748   3.047   5.222
  224DPPC   C1811168   3.732   3.146   5.107
  224DPPC   C1911169   3.735   3.069   4.974
  224DPPC   C2011170   3.729   3.163   4.853
  224DPPC   C2111171   3.732   3.109   4.710
  224DPPC   C2211172   3.616   3.016   4.672
  224DPPC   C2311173   3.637   2.970   4.528
  224DPPC   C2411174   3.523   2.886   4.471
  224DPPC   C2511175   3.541   2.871   4.320
  224DPPC   C2611176   3.668   2.792   4.288
  224DPPC   C2711177   3.656   2.712   4.158
  224DPPC   C2811178   3.631   2.796   4.032
  224DPPC   C2911179   3.648   2.718   3.902
  224DPPC   C3011180   3.631   2.806   3.778
  224DPPC   C3111181   3.647   2.727   3.648
  224DPPC   C3211182   3.784   3.413   5.443
  224DPPC   O3311183   3.770   3.514   5.343
  224DPPC   C3411184   3.886   3.578   5.311
  224DPPC   O3511185   3.988   3.570   5.379
  224DPPC   C3611186   3.876   3.667   5.187
  224DPPC   C3711187   3.793   3.613   5.069
  224DPPC   C3811188   3.807   3.713   4.954
  224DPPC   C3911189   3.740   3.661   4.826
  224DPPC   C4011190   3.749   3.760   4.710
  224DPPC   C4111191   3.705   3.693   4.579
  224DPPC   C4211192   3.751   3.759   4.449
  224DPPC   C4311193   3.672   3.699   4.333
  224DPPC   C4411194   3.703   3.780   4.207
  224DPPC   C4511195   3.648   3.704   4.086
  224DPPC   C4611196   3.635   3.800   3.968
  224DPPC   C4711197   3.635   3.721   3.837
  224DPPC   C4811198   3.754   3.626   3.827
  224DPPC   C4911199   3.726   3.548   3.699
  224DPPC   C5011200   3.819   3.430   3.667
  225DPPC    C111201   8.951   3.125   5.472
  225DPPC    C211202   9.139   3.256   5.472
  225DPPC    C311203   9.037   3.189   5.680
  225DPPC    N411204   9.077   3.145   5.546
  225DPPC    C511205   9.161   3.025   5.553
  225DPPC    C611206   9.291   3.029   5.634
  225DPPC    O711207   9.385   3.133   5.605
  225DPPC    P811208   9.511   3.106   5.701
  225DPPC    O911209   9.477   3.003   5.802
  225DPPC   O1011210   9.571   3.239   5.728
  225DPPC   O1111211   9.596   3.029   5.588
  225DPPC   C1211212   9.672   3.119   5.507
  225DPPC   C1311213   9.658   3.097   5.357
  225DPPC   O1411214   9.738   3.196   5.290
  225DPPC   C1511215   9.872   3.187   5.268
  225DPPC   O1611216   9.942   3.154   5.363
  225DPPC   C1711217   9.919   3.293   5.169
  225DPPC   C1811218   9.915   3.228   5.030
  225DPPC   C1911219   9.952   3.330   4.923
  225DPPC   C2011220   9.912   3.274   4.786
  225DPPC   C2111221   9.964   3.358   4.669
  225DPPC   C2211222   9.887   3.314   4.545
  225DPPC   C2311223   9.937   3.376   4.414
  225DPPC   C2411224   9.841   3.341   4.300
  225DPPC   C2511225   9.892   3.390   4.164
  225DPPC   C2611226   9.793   3.370   4.049
  225DPPC   C2711227   9.847   3.426   3.918
  225DPPC   C2811228   9.770   3.364   3.801
  225DPPC   C2911229   9.858   3.375   3.677
  225DPPC   C3011230   9.789   3.316   3.554
  225DPPC   C3111231   9.870   3.347   3.428
  225DPPC   C3211232   9.508   3.099   5.331
  225DPPC   O3311233   9.471   3.000   5.234
  225DPPC   C3411234   9.350   3.013   5.173
  225DPPC   O3511235   9.274   3.102   5.211
  225DPPC   C3611236   9.316   2.896   5.081
  225DPPC   C3711237   9.353   2.942   4.940
  225DPPC   C3811238   9.308   2.817   4.863
  225DPPC   C3911239   9.343   2.831   4.715
  225DPPC   C4011240   9.350   2.695   4.645
  225DPPC   C4111241   9.373   2.708   4.495
  225DPPC   C4211242   9.390   2.570   4.431
  225DPPC   C4311243   9.372   2.595   4.281
  225DPPC   C4411244   9.411   2.470   4.201
  225DPPC   C4511245   9.400   2.490   4.049
  225DPPC   C4611246   9.522   2.573   4.009
  225DPPC   C4711247   9.516   2.606   3.859
  225DPPC   C4811248   9.521   2.481   3.771
  225DPPC   C4911249   9.541   2.506   3.621
  225DPPC   C5011250   9.673   2.583   3.607
  226DPPC    C111251   3.823   7.963   5.734
  226DPPC    C211252   3.794   8.193   5.711
  226DPPC    C311253   4.011   8.119   5.693
  226DPPC    N411254   3.873   8.080   5.661
  226DPPC    C511255   3.839   8.061   5.519
  226DPPC    C611256   3.922   7.966   5.431
  226DPPC    O711257   4.029   8.035   5.366
  226DPPC    P811258   4.118   7.921   5.296
  226DPPC    O911259   4.011   7.866   5.211
  226DPPC   O1011260   4.163   7.852   5.420
  226DPPC   O1111261   4.204   8.048   5.249
  226DPPC   C1211262   4.163   8.114   5.129
  226DPPC   C1311263   4.263   8.128   5.014
  226DPPC   O1411264   4.218   8.202   4.899
  226DPPC   C1511265   4.241   8.336   4.890
  226DPPC   O1611266   4.275   8.397   4.991
  226DPPC   C1711267   4.194   8.402   4.761
  226DPPC   C1811268   4.303   8.471   4.678
  226DPPC   C1911269   4.431   8.389   4.656
  226DPPC   C2011270   4.521   8.431   4.540
  226DPPC   C2111271   4.660   8.367   4.552
  226DPPC   C2211272   4.734   8.383   4.419
  226DPPC   C2311273   4.876   8.329   4.432
  226DPPC   C2411274   4.936   8.318   4.292
  226DPPC   C2511275   5.081   8.271   4.285
  226DPPC   C2611276   5.141   8.272   4.144
  226DPPC   C2711277   5.280   8.210   4.154
  226DPPC   C2811278   5.358   8.235   4.026
  226DPPC   C2911279   5.285   8.168   3.909
  226DPPC   C3011280   5.385   8.146   3.796
  226DPPC   C3111281   5.494   8.049   3.840
  226DPPC   C3211282   4.326   7.992   4.985
  226DPPC   O3311283   4.229   7.888   4.974
  226DPPC   C3411284   4.282   7.763   4.975
  226DPPC   O3511285   4.400   7.738   4.997
  226DPPC   C3611286   4.186   7.646   4.949
  226DPPC   C3711287   4.156   7.620   4.801
  226DPPC   C3811288   4.267   7.554   4.720
  226DPPC   C3911289   4.215   7.428   4.651
  226DPPC   C4011290   4.335   7.385   4.567
  226DPPC   C4111291   4.300   7.294   4.449
  226DPPC   C4211292   4.422   7.274   4.360
  226DPPC   C4311293   4.377   7.207   4.230
  226DPPC   C4411294   4.496   7.201   4.135
  226DPPC   C4511295   4.441   7.164   3.997
  226DPPC   C4611296   4.554   7.100   3.917
  226DPPC   C4711297   4.512   7.053   3.777
  226DPPC   C4811298   4.636   6.996   3.708
  226DPPC   C4911299   4.611   6.957   3.563
  226DPPC   C5011300   4.741   6.925   3.487
  227DPPC    C111301   4.694   4.141   1.693
  227DPPC    C211302   4.750   4.356   1.647
  227DPPC    C311303   4.521   4.304   1.631
  227DPPC    N411304   4.642   4.277   1.709
  227DPPC    C511305   4.624   4.320   1.849
  227DPPC    C611306   4.607   4.470   1.875
  227DPPC    O711307   4.580   4.498   2.012
  227DPPC    P811308   4.639   4.640   2.060
  227DPPC    O911309   4.567   4.682   2.182
  227DPPC   O1011310   4.654   4.725   1.939
  227DPPC   O1111311   4.791   4.602   2.098
  227DPPC   C1211312   4.796   4.592   2.240
  227DPPC   C1311313   4.932   4.535   2.279
  227DPPC   O1411314   4.941   4.460   2.400
  227DPPC   C1511315   4.874   4.342   2.414
  227DPPC   O1611316   4.815   4.298   2.316
  227DPPC   C1711317   4.866   4.278   2.553
  227DPPC   C1811318   4.982   4.184   2.587
  227DPPC   C1911319   4.982   4.161   2.739
  227DPPC   C2011320   5.086   4.065   2.796
  227DPPC   C2111321   5.059   4.039   2.944
  227DPPC   C2211322   5.167   3.960   3.018
  227DPPC   C2311323   5.139   3.912   3.160
  227DPPC   C2411324   5.276   3.919   3.227
  227DPPC   C2511325   5.227   3.866   3.362
  227DPPC   C2611326   5.336   3.846   3.468
  227DPPC   C2711327   5.268   3.825   3.603
  227DPPC   C2811328   5.366   3.814   3.721
  227DPPC   C2911329   5.304   3.766   3.852
  227DPPC   C3011330   5.254   3.623   3.833
  227DPPC   C3111331   5.204   3.583   3.972
  227DPPC   C3211332   5.035   4.646   2.256
  227DPPC   O3311333   5.025   4.741   2.363
  227DPPC   C3411334   5.135   4.820   2.376
  227DPPC   O3511335   5.208   4.838   2.279
  227DPPC   C3611336   5.151   4.914   2.496
  227DPPC   C3711337   5.275   4.873   2.575
  227DPPC   C3811338   5.310   4.961   2.696
  227DPPC   C3911339   5.230   4.932   2.823
  227DPPC   C4011340   5.271   5.024   2.938
  227DPPC   C4111341   5.212   5.001   3.077
  227DPPC   C4211342   5.308   5.062   3.179
  227DPPC   C4311343   5.232   5.059   3.312
  227DPPC   C4411344   5.300   5.122   3.434
  227DPPC   C4511345   5.236   5.064   3.561
  227DPPC   C4611346   5.334   5.097   3.674
  227DPPC   C4711347   5.298   5.009   3.794
  227DPPC   C4811348   5.404   5.036   3.902
  227DPPC   C4911349   5.357   4.942   4.012
  227DPPC   C5011350   5.440   4.953   4.140
  228DPPC    C111351   5.525   2.760   2.221
  228DPPC    C211352   5.687   2.683   2.051
  228DPPC    C311353   5.491   2.577   2.067
  228DPPC    N411354   5.547   2.712   2.084
  228DPPC    C511355   5.470   2.787   1.984
  228DPPC    C611356   5.475   2.940   1.985
  228DPPC    O711357   5.599   2.984   1.930
  228DPPC    P811358   5.587   3.140   1.894
  228DPPC    O911359   5.451   3.161   1.841
  228DPPC   O1011360   5.706   3.174   1.812
  228DPPC   O1111361   5.588   3.213   2.037
  228DPPC   C1211362   5.713   3.183   2.099
  228DPPC   C1311363   5.719   3.201   2.251
  228DPPC   O1411364   5.648   3.100   2.323
  228DPPC   C1511365   5.666   3.106   2.458
  228DPPC   O1611366   5.764   3.153   2.515
  228DPPC   C1711367   5.572   3.010   2.532
  228DPPC   C1811368   5.521   3.084   2.656
  228DPPC   C1911369   5.440   2.987   2.741
  228DPPC   C2011370   5.388   3.072   2.856
  228DPPC   C2111371   5.301   2.992   2.954
  228DPPC   C2211372   5.257   3.101   3.052
  228DPPC   C2311373   5.194   3.044   3.180
  228DPPC   C2411374   5.061   2.979   3.140
  228DPPC   C2511375   4.968   2.960   3.260
  228DPPC   C2611376   4.854   2.861   3.233
  228DPPC   C2711377   4.817   2.780   3.358
  228DPPC   C2811378   4.935   2.696   3.407
  228DPPC   C2911379   4.883   2.629   3.534
  228DPPC   C3011380   4.993   2.531   3.577
  228DPPC   C3111381   4.944   2.427   3.678
  228DPPC   C3211382   5.678   3.344   2.286
  228DPPC   O3311383   5.783   3.441   2.288
  228DPPC   C3411384   5.742   3.568   2.315
  228DPPC   O3511385   5.629   3.602   2.279
  228DPPC   C3611386   5.859   3.654   2.362
  228DPPC   C3711387   5.837   3.746   2.482
  228DPPC   C3811388   5.860   3.675   2.616
  228DPPC   C3911389   5.854   3.788   2.719
  228DPPC   C4011390   5.852   3.728   2.859
  228DPPC   C4111391   5.847   3.845   2.957
  228DPPC   C4211392   5.844   3.765   3.088
  228DPPC   C4311393   5.825   3.863   3.204
  228DPPC   C4411394   5.805   3.781   3.331
  228DPPC   C4511395   5.756   3.881   3.437
  228DPPC   C4611396   5.790   3.843   3.581
  228DPPC   C4711397   5.925   3.906   3.614
  228DPPC   C4811398   6.046   3.834   3.553
  228DPPC   C4911399   6.166   3.915   3.603
  228DPPC   C5011400   6.295   3.867   3.537
  229DPPC    C111401   3.275   3.956   2.287
  229DPPC    C211402   3.507   3.997   2.276
  229DPPC    C311403   3.414   3.872   2.465
  229DPPC    N411404   3.406   3.900   2.320
  229DPPC    C511405   3.432   3.773   2.251
  229DPPC    C611406   3.331   3.660   2.275
  229DPPC    O711407   3.388   3.533   2.240
  229DPPC    P811408   3.301   3.402   2.273
  229DPPC    O911409   3.387   3.304   2.202
  229DPPC   O1011410   3.162   3.433   2.232
  229DPPC   O1111411   3.333   3.412   2.431
  229DPPC   C1211412   3.355   3.282   2.486
  229DPPC   C1311413   3.384   3.278   2.636
  229DPPC   O1411414   3.266   3.251   2.713
  229DPPC   C1511415   3.236   3.121   2.742
  229DPPC   O1611416   3.294   3.030   2.683
  229DPPC   C1711417   3.122   3.090   2.839
  229DPPC   C1811418   3.174   2.990   2.943
  229DPPC   C1911419   3.075   2.966   3.057
  229DPPC   C2011420   3.131   2.868   3.160
  229DPPC   C2111421   3.071   2.891   3.299
  229DPPC   C2211422   3.025   2.758   3.360
  229DPPC   C2311423   2.956   2.786   3.493
  229DPPC   C2411424   2.880   2.661   3.537
  229DPPC   C2511425   2.845   2.654   3.686
  229DPPC   C2611426   2.761   2.530   3.715
  229DPPC   C2711427   2.766   2.477   3.858
  229DPPC   C2811428   2.745   2.594   3.955
  229DPPC   C2911429   2.749   2.534   4.096
  229DPPC   C3011430   2.801   2.609   4.218
  229DPPC   C3111431   2.805   2.511   4.336
  229DPPC   C3211432   3.453   3.405   2.685
  229DPPC   O3311433   3.575   3.437   2.616
  229DPPC   C3411434   3.630   3.559   2.636
  229DPPC   O3511435   3.571   3.660   2.674
  229DPPC   C3611436   3.771   3.565   2.575
  229DPPC   C3711437   3.889   3.540   2.669
  229DPPC   C3811438   3.866   3.618   2.799
  229DPPC   C3911439   3.994   3.607   2.883
  229DPPC   C4011440   3.984   3.693   3.009
  229DPPC   C4111441   4.109   3.671   3.095
  229DPPC   C4211442   4.073   3.719   3.236
  229DPPC   C4311443   4.188   3.751   3.332
  229DPPC   C4411444   4.125   3.786   3.467
  229DPPC   C4511445   4.233   3.818   3.570
  229DPPC   C4611446   4.180   3.844   3.711
  229DPPC   C4711447   4.128   3.988   3.721
  229DPPC   C4811448   4.089   4.019   3.865
  229DPPC   C4911449   4.073   4.170   3.880
  229DPPC   C5011450   4.025   4.195   4.023
  230DPPC    C111451   5.529   1.120   2.432
  230DPPC    C211452   5.368   1.108   2.617
  230DPPC    C311453   5.350   1.265   2.436
  230DPPC    N411454   5.388   1.128   2.472
  230DPPC    C511455   5.316   1.016   2.410
  230DPPC    C611456   5.339   0.966   2.267
  230DPPC    O711457   5.228   0.911   2.197
  230DPPC    P811458   5.263   0.764   2.143
  230DPPC    O911459   5.391   0.781   2.072
  230DPPC   O1011460   5.150   0.715   2.060
  230DPPC   O1111461   5.278   0.699   2.289
  230DPPC   C1211462   5.148   0.652   2.327
  230DPPC   C1311463   5.111   0.667   2.475
  230DPPC   O1411464   5.070   0.796   2.521
  230DPPC   C1511465   4.945   0.845   2.496
  230DPPC   O1611466   4.871   0.806   2.406
  230DPPC   C1711467   4.890   0.954   2.588
  230DPPC   C1811468   4.875   0.898   2.730
  230DPPC   C1911469   4.833   1.018   2.814
  230DPPC   C2011470   4.833   0.978   2.962
  230DPPC   C2111471   4.797   1.105   3.040
  230DPPC   C2211472   4.647   1.135   3.045
  230DPPC   C2311473   4.638   1.247   3.149
  230DPPC   C2411474   4.739   1.357   3.116
  230DPPC   C2511475   4.718   1.464   3.223
  230DPPC   C2611476   4.765   1.407   3.358
  230DPPC   C2711477   4.747   1.491   3.484
  230DPPC   C2811478   4.780   1.393   3.597
  230DPPC   C2911479   4.914   1.321   3.586
  230DPPC   C3011480   4.929   1.248   3.719
  230DPPC   C3111481   5.048   1.153   3.732
  230DPPC   C3211482   5.232   0.609   2.549
  230DPPC   O3311483   5.237   0.592   2.690
  230DPPC   C3411484   5.283   0.705   2.749
  230DPPC   O3511485   5.334   0.799   2.688
  230DPPC   C3611486   5.270   0.714   2.901
  230DPPC   C3711487   5.278   0.575   2.964
  230DPPC   C3811488   5.301   0.586   3.115
  230DPPC   C3911489   5.274   0.451   3.180
  230DPPC   C4011490   5.294   0.450   3.332
  230DPPC   C4111491   5.258   0.307   3.375
  230DPPC   C4211492   5.111   0.270   3.361
  230DPPC   C4311493   5.040   0.339   3.478
  230DPPC   C4411494   4.889   0.317   3.477
  230DPPC   C4511495   4.811   0.388   3.589
  230DPPC   C4611496   4.659   0.375   3.582
  230DPPC   C4711497   4.592   0.457   3.693
  230DPPC   C4811498   4.600   0.605   3.658
  230DPPC   C4911499   4.461   0.658   3.621
  230DPPC   C5011500   4.354   0.627   3.726
  231DPPC    C111501   1.072   0.230   1.919
  231DPPC    C211502   1.153   0.410   1.821
  231DPPC    C311503   1.322   0.282   1.934
  231DPPC    N411504   1.197   0.274   1.856
  231DPPC    C511505   1.224   0.199   1.733
  231DPPC    C611506   1.306   0.070   1.730
  231DPPC    O711507   1.240  -0.037   1.799
  231DPPC    P811508   1.346  -0.154   1.832
  231DPPC    O911509   1.441  -0.111   1.937
  231DPPC   O1011510   1.368  -0.235   1.710
  231DPPC   O1111511   1.230  -0.234   1.909
  231DPPC   C1211512   1.219  -0.179   2.041
  231DPPC   C1311513   1.083  -0.201   2.107
  231DPPC   O1411514   1.063  -0.131   2.231
  231DPPC   C1511515   0.962  -0.040   2.235
  231DPPC   O1611516   0.887  -0.027   2.138
  231DPPC   C1711517   0.952   0.054   2.356
  231DPPC   C1811518   0.988   0.198   2.320
  231DPPC   C1911519   0.939   0.301   2.423
  231DPPC   C2011520   0.787   0.318   2.421
  231DPPC   C2111521   0.750   0.435   2.512
  231DPPC   C2211522   0.803   0.418   2.654
  231DPPC   C2311523   0.770   0.537   2.743
  231DPPC   C2411524   0.803   0.498   2.887
  231DPPC   C2511525   0.762   0.621   2.968
  231DPPC   C2611526   0.798   0.607   3.116
  231DPPC   C2711527   0.758   0.729   3.200
  231DPPC   C2811528   0.764   0.691   3.348
  231DPPC   C2911529   0.767   0.819   3.433
  231DPPC   C3011530   0.783   0.789   3.582
  231DPPC   C3111531   0.665   0.710   3.638
  231DPPC   C3211532   1.064  -0.353   2.102
  231DPPC   O3311533   1.185  -0.421   2.136
  231DPPC   C3411534   1.169  -0.554   2.161
  231DPPC   O3511535   1.103  -0.621   2.082
  231DPPC   C3611536   1.274  -0.612   2.256
  231DPPC   C3711537   1.203  -0.649   2.386
  231DPPC   C3811538   1.318  -0.718   2.458
  231DPPC   C3911539   1.290  -0.793   2.589
  231DPPC   C4011540   1.423  -0.850   2.639
  231DPPC   C4111541   1.407  -0.931   2.768
  231DPPC   C4211542   1.548  -0.971   2.811
  231DPPC   C4311543   1.618  -0.839   2.845
  231DPPC   C4411544   1.740  -0.849   2.936
  231DPPC   C4511545   1.804  -0.710   2.939
  231DPPC   C4611546   1.946  -0.723   2.883
  231DPPC   C4711547   2.029  -0.595   2.898
  231DPPC   C4811548   2.163  -0.632   2.962
  231DPPC   C4911549   2.283  -0.571   2.890
  231DPPC   C5011550   2.407  -0.647   2.939
  232DPPC    C111551   7.702   6.907   1.400
  232DPPC    C211552   7.806   7.034   1.581
  232DPPC    C311553   7.583   7.068   1.525
  232DPPC    N411554   7.686   6.963   1.535
  232DPPC    C511555   7.654   6.852   1.626
  232DPPC    C611556   7.765   6.751   1.658
  232DPPC    O711557   7.715   6.632   1.720
  232DPPC    P811558   7.787   6.496   1.672
  232DPPC    O911559   7.833   6.510   1.532
  232DPPC   O1011560   7.698   6.386   1.715
  232DPPC   O1111561   7.910   6.498   1.776
  232DPPC   C1211562   7.869   6.458   1.907
  232DPPC   C1311563   7.950   6.524   2.019
  232DPPC   O1411564   7.953   6.447   2.140
  232DPPC   C1511565   8.061   6.366   2.157
  232DPPC   O1611566   8.152   6.370   2.075
  232DPPC   C1711567   8.066   6.285   2.287
  232DPPC   C1811568   8.194   6.309   2.367
  232DPPC   C1911569   8.184   6.220   2.491
  232DPPC   C2011570   8.291   6.245   2.599
  232DPPC   C2111571   8.258   6.156   2.719
  232DPPC   C2211572   8.358   6.160   2.835
  232DPPC   C2311573   8.308   6.080   2.955
  232DPPC   C2411574   8.395   6.115   3.076
  232DPPC   C2511575   8.546   6.112   3.055
  232DPPC   C2611576   8.615   6.143   3.188
  232DPPC   C2711577   8.614   6.018   3.276
  232DPPC   C2811578   8.677   6.045   3.414
  232DPPC   C2911579   8.605   6.159   3.486
  232DPPC   C3011580   8.654   6.179   3.630
  232DPPC   C3111581   8.574   6.290   3.699
  232DPPC   C3211582   7.900   6.669   2.023
  232DPPC   O3311583   7.760   6.686   2.047
  232DPPC   C3411584   7.719   6.815   2.036
  232DPPC   O3511585   7.783   6.895   1.967
  232DPPC   C3611586   7.581   6.843   2.095
  232DPPC   C3711587   7.589   6.938   2.215
  232DPPC   C3811588   7.621   6.853   2.338
  232DPPC   C3911589   7.630   6.956   2.451
  232DPPC   C4011590   7.495   7.026   2.469
  232DPPC   C4111591   7.500   7.122   2.588
  232DPPC   C4211592   7.550   7.041   2.707
  232DPPC   C4311593   7.556   7.122   2.837
  232DPPC   C4411594   7.602   7.041   2.958
  232DPPC   C4511595   7.729   6.960   2.932
  232DPPC   C4611596   7.731   6.840   3.027
  232DPPC   C4711597   7.875   6.789   3.032
  232DPPC   C4811598   7.893   6.664   3.119
  232DPPC   C4911599   7.786   6.565   3.072
  232DPPC   C5011600   7.781   6.448   3.171
  233DPPC    C111601   0.413   5.384   1.366
  233DPPC    C211602   0.585   5.220   1.369
  233DPPC    C311603   0.621   5.437   1.308
  233DPPC    N411604   0.551   5.357   1.410
  233DPPC    C511605   0.586   5.380   1.551
  233DPPC    C611606   0.572   5.524   1.599
  233DPPC    O711607   0.694   5.579   1.650
  233DPPC    P811608   0.667   5.732   1.691
  233DPPC    O911609   0.578   5.777   1.581
  233DPPC   O1011610   0.792   5.805   1.721
  233DPPC   O1111611   0.577   5.709   1.823
  233DPPC   C1211612   0.532   5.826   1.892
  233DPPC   C1311613   0.412   5.909   1.845
  233DPPC   O1411614   0.394   6.029   1.922
  233DPPC   C1511615   0.458   6.143   1.885
  233DPPC   O1611616   0.538   6.135   1.792
  233DPPC   C1711617   0.452   6.261   1.982
  233DPPC   C1811618   0.587   6.301   2.041
  233DPPC   C1911619   0.555   6.406   2.147
  233DPPC   C2011620   0.686   6.458   2.208
  233DPPC   C2111621   0.763   6.349   2.282
  233DPPC   C2211622   0.890   6.400   2.351
  233DPPC   C2311623   0.956   6.279   2.417
  233DPPC   C2411624   1.102   6.309   2.449
  233DPPC   C2511625   1.162   6.199   2.537
  233DPPC   C2611626   1.160   6.066   2.461
  233DPPC   C2711627   1.257   5.965   2.523
  233DPPC   C2811628   1.249   5.978   2.675
  233DPPC   C2911629   1.353   5.885   2.739
  233DPPC   C3011630   1.331   5.879   2.891
  233DPPC   C3111631   1.407   5.763   2.956
  233DPPC   C3211632   0.293   5.815   1.868
  233DPPC   O3311633   0.307   5.737   1.987
  233DPPC   C3411634   0.198   5.660   2.013
  233DPPC   O3511635   0.107   5.658   1.930
  233DPPC   C3611636   0.193   5.584   2.146
  233DPPC   C3711637   0.125   5.665   2.257
  233DPPC   C3811638   0.194   5.798   2.287
  233DPPC   C3911639   0.120   5.886   2.387
  233DPPC   C4011640   0.205   6.008   2.425
  233DPPC   C4111641   0.340   5.962   2.480
  233DPPC   C4211642   0.431   6.080   2.516
  233DPPC   C4311643   0.563   6.023   2.566
  233DPPC   C4411644   0.661   6.117   2.637
  233DPPC   C4511645   0.759   6.040   2.726
  233DPPC   C4611646   0.810   6.129   2.839
  233DPPC   C4711647   0.934   6.067   2.904
  233DPPC   C4811648   0.990   6.156   3.016
  233DPPC   C4911649   1.081   6.073   3.107
  233DPPC   C5011650   0.986   5.963   3.156
  234DPPC    C111651   8.535   1.903   1.238
  234DPPC    C211652   8.464   1.682   1.287
  234DPPC    C311653   8.674   1.709   1.217
  234DPPC    N411654   8.575   1.777   1.302
  234DPPC    C511655   8.624   1.789   1.440
  234DPPC    C611656   8.733   1.882   1.494
  234DPPC    O711657   8.862   1.866   1.434
  234DPPC    P811658   8.958   1.991   1.465
  234DPPC    O911659   8.861   2.099   1.436
  234DPPC   O1011660   9.076   1.961   1.380
  234DPPC   O1111661   8.979   1.942   1.617
  234DPPC   C1211662   8.933   2.040   1.711
  234DPPC   C1311663   8.904   1.966   1.842
  234DPPC   O1411664   8.880   2.058   1.949
  234DPPC   C1511665   8.780   2.020   2.034
  234DPPC   O1611666   8.671   1.983   1.991
  234DPPC   C1711667   8.791   2.078   2.175
  234DPPC   C1811668   8.938   2.095   2.213
  234DPPC   C1911669   8.966   2.107   2.363
  234DPPC   C2011670   8.922   1.984   2.444
  234DPPC   C2111671   8.952   1.998   2.593
  234DPPC   C2211672   8.894   1.873   2.660
  234DPPC   C2311673   8.886   1.906   2.810
  234DPPC   C2411674   8.774   1.828   2.878
  234DPPC   C2511675   8.771   1.862   3.028
  234DPPC   C2611676   8.648   1.808   3.100
  234DPPC   C2711677   8.643   1.833   3.251
  234DPPC   C2811678   8.516   1.776   3.315
  234DPPC   C2911679   8.521   1.773   3.468
  234DPPC   C3011680   8.385   1.723   3.516
  234DPPC   C3111681   8.382   1.724   3.669
  234DPPC   C3211682   9.035   1.894   1.873
  234DPPC   O3311683   9.040   1.790   1.971
  234DPPC   C3411684   8.982   1.667   1.963
  234DPPC   O3511685   8.961   1.625   1.850
  234DPPC   C3611686   8.988   1.575   2.085
  234DPPC   C3711687   8.877   1.635   2.173
  234DPPC   C3811688   8.877   1.555   2.304
  234DPPC   C3911689   8.753   1.594   2.384
  234DPPC   C4011690   8.735   1.531   2.522
  234DPPC   C4111691   8.589   1.563   2.554
  234DPPC   C4211692   8.545   1.503   2.687
  234DPPC   C4311693   8.412   1.560   2.736
  234DPPC   C4411694   8.383   1.488   2.868
  234DPPC   C4511695   8.279   1.576   2.938
  234DPPC   C4611696   8.253   1.508   3.073
  234DPPC   C4711697   8.375   1.472   3.158
  234DPPC   C4811698   8.342   1.408   3.292
  234DPPC   C4911699   8.465   1.368   3.374
  234DPPC   C5011700   8.425   1.271   3.486
  235DPPC    C111701   2.596   4.070   2.125
  235DPPC    C211702   2.410   4.218   2.103
  235DPPC    C311703   2.500   4.168   2.316
  235DPPC    N411704   2.535   4.194   2.176
  235DPPC    C511705   2.629   4.307   2.181
  235DPPC    C611706   2.677   4.357   2.045
  235DPPC    O711707   2.754   4.476   2.058
  235DPPC    P811708   2.796   4.522   1.909
  235DPPC    O911709   2.772   4.411   1.814
  235DPPC   O1011710   2.929   4.585   1.896
  235DPPC   O1111711   2.677   4.628   1.884
  235DPPC   C1211712   2.700   4.729   1.982
  235DPPC   C1311713   2.583   4.821   2.019
  235DPPC   O1411714   2.628   4.935   2.094
  235DPPC   C1511715   2.541   5.038   2.100
  235DPPC   O1611716   2.448   5.046   2.019
  235DPPC   C1711717   2.557   5.136   2.217
  235DPPC   C1811718   2.589   5.051   2.340
  235DPPC   C1911719   2.475   4.968   2.398
  235DPPC   C2011720   2.539   4.910   2.525
  235DPPC   C2111721   2.448   4.818   2.607
  235DPPC   C2211722   2.508   4.816   2.748
  235DPPC   C2311723   2.471   4.941   2.827
  235DPPC   C2411724   2.545   4.933   2.960
  235DPPC   C2511725   2.530   5.072   3.021
  235DPPC   C2611726   2.382   5.112   3.031
  235DPPC   C2711727   2.355   5.251   3.088
  235DPPC   C2811728   2.384   5.237   3.238
  235DPPC   C2911729   2.357   5.359   3.325
  235DPPC   C3011730   2.369   5.316   3.472
  235DPPC   C3111731   2.309   5.413   3.573
  235DPPC   C3211732   2.470   4.730   2.068
  235DPPC   O3311733   2.473   4.652   2.187
  235DPPC   C3411734   2.359   4.588   2.224
  235DPPC   O3511735   2.282   4.563   2.132
  235DPPC   C3611736   2.365   4.522   2.362
  235DPPC   C3711737   2.233   4.452   2.395
  235DPPC   C3811738   2.241   4.370   2.524
  235DPPC   C3911739   2.289   4.441   2.650
  235DPPC   C4011740   2.275   4.356   2.777
  235DPPC   C4111741   2.322   4.420   2.908
  235DPPC   C4211742   2.228   4.526   2.965
  235DPPC   C4311743   2.308   4.588   3.080
  235DPPC   C4411744   2.202   4.674   3.148
  235DPPC   C4511745   2.252   4.730   3.282
  235DPPC   C4611746   2.186   4.861   3.327
  235DPPC   C4711747   2.248   4.915   3.456
  235DPPC   C4811748   2.233   4.811   3.568
  235DPPC   C4911749   2.295   4.872   3.694
  235DPPC   C5011750   2.441   4.911   3.669
  236DPPC    C111751   0.274   1.152   1.345
  236DPPC    C211752   0.141   1.278   1.187
  236DPPC    C311753   0.039   1.112   1.326
  236DPPC    N411754   0.144   1.216   1.321
  236DPPC    C511755   0.118   1.308   1.432
  236DPPC    C611756   0.184   1.446   1.439
  236DPPC    O711757   0.327   1.440   1.450
  236DPPC    P811758   0.393   1.587   1.447
  236DPPC    O911759   0.315   1.662   1.346
  236DPPC   O1011760   0.539   1.563   1.442
  236DPPC   O1111761   0.332   1.636   1.588
  236DPPC   C1211762   0.401   1.577   1.698
  236DPPC   C1311763   0.378   1.662   1.823
  236DPPC   O1411764   0.475   1.645   1.928
  236DPPC   C1511765   0.509   1.746   2.013
  236DPPC   O1611766   0.484   1.861   1.979
  236DPPC   C1711767   0.622   1.726   2.114
  236DPPC   C1811768   0.592   1.820   2.231
  236DPPC   C1911769   0.700   1.800   2.337
  236DPPC   C2011770   0.678   1.897   2.453
  236DPPC   C2111771   0.568   1.842   2.544
  236DPPC   C2211772   0.578   1.896   2.686
  236DPPC   C2311773   0.481   1.816   2.774
  236DPPC   C2411774   0.339   1.815   2.718
  236DPPC   C2511775   0.244   1.788   2.835
  236DPPC   C2611776   0.292   1.653   2.889
  236DPPC   C2711777   0.207   1.608   3.008
  236DPPC   C2811778   0.194   1.706   3.126
  236DPPC   C2911779   0.087   1.650   3.219
  236DPPC   C3011780   0.086   1.726   3.352
  236DPPC   C3111781  -0.036   1.700   3.441
  236DPPC   C3211782   0.233   1.627   1.856
  236DPPC   O3311783   0.220   1.486   1.874
  236DPPC   C3411784   0.093   1.437   1.867
  236DPPC   O3511785   0.002   1.505   1.818
  236DPPC   C3611786   0.064   1.297   1.920
  236DPPC   C3711787   0.055   1.294   2.073
  236DPPC   C3811788  -0.092   1.317   2.111
  236DPPC   C3911789  -0.128   1.267   2.251
  236DPPC   C4011790  -0.271   1.290   2.300
  236DPPC   C4111791  -0.279   1.247   2.446
  236DPPC   C4211792  -0.259   1.096   2.461
  236DPPC   C4311793  -0.264   1.053   2.608
  236DPPC   C4411794  -0.254   0.902   2.626
  236DPPC   C4511795  -0.253   0.886   2.779
  236DPPC   C4611796  -0.220   0.745   2.827
  236DPPC   C4711797  -0.228   0.734   2.980
  236DPPC   C4811798  -0.101   0.795   3.041
  236DPPC   C4911799  -0.112   0.807   3.193
  236DPPC   C5011800   0.012   0.877   3.249
  237DPPC    C111801   7.367   7.752   1.863
  237DPPC    C211802   7.579   7.640   1.888
  237DPPC    C311803   7.424   7.569   1.741
  237DPPC    N411804   7.482   7.694   1.791
  237DPPC    C511805   7.552   7.764   1.682
  237DPPC    C611806   7.594   7.910   1.702
  237DPPC    O711807   7.485   8.003   1.705
  237DPPC    P811808   7.541   8.152   1.732
  237DPPC    O911809   7.444   8.253   1.686
  237DPPC   O1011810   7.684   8.151   1.696
  237DPPC   O1111811   7.521   8.136   1.891
  237DPPC   C1211812   7.386   8.140   1.938
  237DPPC   C1311813   7.381   8.156   2.091
  237DPPC   O1411814   7.381   8.290   2.141
  237DPPC   C1511815   7.270   8.368   2.126
  237DPPC   O1611816   7.170   8.316   2.076
  237DPPC   C1711817   7.281   8.514   2.170
  237DPPC   C1811818   7.373   8.515   2.292
  237DPPC   C1911819   7.382   8.654   2.356
  237DPPC   C2011820   7.446   8.643   2.494
  237DPPC   C2111821   7.339   8.613   2.599
  237DPPC   C2211822   7.405   8.629   2.736
  237DPPC   C2311823   7.309   8.614   2.854
  237DPPC   C2411824   7.371   8.673   2.980
  237DPPC   C2511825   7.387   8.824   2.961
  237DPPC   C2611826   7.483   8.872   3.070
  237DPPC   C2711827   7.474   8.811   3.211
  237DPPC   C2811828   7.580   8.863   3.308
  237DPPC   C2911829   7.725   8.847   3.261
  237DPPC   C3011830   7.813   8.912   3.368
  237DPPC   C3111831   7.783   9.061   3.380
  237DPPC   C3211832   7.476   8.049   2.145
  237DPPC   O3311833   7.402   7.930   2.169
  237DPPC   C3411834   7.481   7.834   2.224
  237DPPC   O3511835   7.599   7.817   2.192
  237DPPC   C3611836   7.420   7.722   2.308
  237DPPC   C3711837   7.417   7.758   2.457
  237DPPC   C3811838   7.385   7.641   2.551
  237DPPC   C3911839   7.366   7.684   2.696
  237DPPC   C4011840   7.317   7.568   2.784
  237DPPC   C4111841   7.255   7.632   2.908
  237DPPC   C4211842   7.196   7.521   2.995
  237DPPC   C4311843   7.296   7.412   3.035
  237DPPC   C4411844   7.406   7.480   3.117
  237DPPC   C4511845   7.506   7.376   3.169
  237DPPC   C4611846   7.599   7.445   3.269
  237DPPC   C4711847   7.718   7.351   3.292
  237DPPC   C4811848   7.678   7.211   3.339
  237DPPC   C4911849   7.806   7.137   3.301
  237DPPC   C5011850   7.918   7.183   3.395
  238DPPC    C111851   3.267   2.093   2.575
  238DPPC    C211852   3.344   2.151   2.359
  238DPPC    C311853   3.112   2.104   2.386
  238DPPC    N411854   3.230   2.163   2.451
  238DPPC    C511855   3.175   2.297   2.473
  238DPPC    C611856   3.251   2.391   2.566
  238DPPC    O711857   3.351   2.467   2.496
  238DPPC    P811858   3.424   2.573   2.593
  238DPPC    O911859   3.349   2.594   2.719
  238DPPC   O1011860   3.490   2.684   2.521
  238DPPC   O1111861   3.540   2.464   2.620
  238DPPC   C1211862   3.535   2.443   2.762
  238DPPC   C1311863   3.585   2.313   2.824
  238DPPC   O1411864   3.536   2.299   2.958
  238DPPC   C1511865   3.524   2.175   3.013
  238DPPC   O1611866   3.521   2.074   2.942
  238DPPC   C1711867   3.489   2.163   3.161
  238DPPC   C1811868   3.609   2.139   3.253
  238DPPC   C1911869   3.586   2.143   3.404
  238DPPC   C2011870   3.529   2.273   3.460
  238DPPC   C2111871   3.507   2.252   3.610
  238DPPC   C2211872   3.449   2.382   3.667
  238DPPC   C2311873   3.456   2.375   3.820
  238DPPC   C2411874   3.596   2.347   3.877
  238DPPC   C2511875   3.580   2.331   4.028
  238DPPC   C2611876   3.526   2.205   4.096
  238DPPC   C2711877   3.556   2.207   4.246
  238DPPC   C2811878   3.461   2.298   4.324
  238DPPC   C2911879   3.485   2.279   4.473
  238DPPC   C3011880   3.444   2.138   4.514
  238DPPC   C3111881   3.450   2.098   4.662
  238DPPC   C3211882   3.737   2.318   2.809
  238DPPC   O3311883   3.803   2.444   2.824
  238DPPC   C3411884   3.937   2.450   2.806
  238DPPC   O3511885   4.000   2.347   2.782
  238DPPC   C3611886   4.004   2.588   2.808
  238DPPC   C3711887   4.077   2.622   2.938
  238DPPC   C3811888   4.164   2.748   2.928
  238DPPC   C3911889   4.249   2.763   3.054
  238DPPC   C4011890   4.156   2.756   3.175
  238DPPC   C4111891   4.223   2.761   3.313
  238DPPC   C4211892   4.119   2.731   3.421
  238DPPC   C4311893   4.163   2.727   3.567
  238DPPC   C4411894   4.060   2.718   3.681
  238DPPC   C4511895   3.982   2.587   3.676
  238DPPC   C4611896   4.045   2.469   3.751
  238DPPC   C4711897   3.956   2.345   3.738
  238DPPC   C4811898   3.985   2.226   3.829
  238DPPC   C4911899   4.093   2.138   3.766
  238DPPC   C5011900   4.038   2.104   3.627
  239DPPC    C111901   3.297   2.653   2.238
  239DPPC    C211902   3.477   2.750   2.106
  239DPPC    C311903   3.311   2.606   2.011
  239DPPC    N411904   3.334   2.713   2.109
  239DPPC    C511905   3.266   2.838   2.073
  239DPPC    C611906   3.114   2.822   2.058
  239DPPC    O711907   3.046   2.916   1.975
  239DPPC    P811908   2.897   2.862   1.947
  239DPPC    O911909   2.928   2.723   1.909
  239DPPC   O1011910   2.846   2.960   1.848
  239DPPC   O1111911   2.848   2.885   2.099
  239DPPC   C1211912   2.726   2.960   2.102
  239DPPC   C1311913   2.613   2.858   2.114
  239DPPC   O1411914   2.478   2.898   2.086
  239DPPC   C1511915   2.374   2.811   2.086
  239DPPC   O1611916   2.379   2.689   2.073
  239DPPC   C1711917   2.236   2.875   2.106
  239DPPC   C1811918   2.182   2.844   2.246
  239DPPC   C1911919   2.058   2.930   2.270
  239DPPC   C2011920   1.991   2.916   2.406
  239DPPC   C2111921   2.083   2.976   2.513
  239DPPC   C2211922   1.998   2.970   2.640
  239DPPC   C2311923   2.060   3.064   2.744
  239DPPC   C2411924   1.987   3.063   2.878
  239DPPC   C2511925   1.860   3.148   2.876
  239DPPC   C2611926   1.795   3.172   3.013
  239DPPC   C2711927   1.892   3.232   3.115
  239DPPC   C2811928   1.809   3.243   3.243
  239DPPC   C2911929   1.886   3.343   3.330
  239DPPC   C3011930   1.795   3.381   3.446
  239DPPC   C3111931   1.693   3.484   3.395
  239DPPC   C3211932   2.642   2.824   2.260
  239DPPC   O3311933   2.611   2.922   2.359
  239DPPC   C3411934   2.605   2.875   2.487
  239DPPC   O3511935   2.621   2.757   2.516
  239DPPC   C3611936   2.564   2.980   2.591
  239DPPC   C3711937   2.551   2.910   2.727
  239DPPC   C3811938   2.453   2.988   2.814
  239DPPC   C3911939   2.452   2.928   2.955
  239DPPC   C4011940   2.376   3.017   3.054
  239DPPC   C4111941   2.432   2.986   3.193
  239DPPC   C4211942   2.350   3.060   3.298
  239DPPC   C4311943   2.389   3.039   3.444
  239DPPC   C4411944   2.296   3.095   3.553
  239DPPC   C4511945   2.327   3.238   3.597
  239DPPC   C4611946   2.208   3.310   3.660
  239DPPC   C4711947   2.221   3.352   3.807
  239DPPC   C4811948   2.087   3.389   3.870
  239DPPC   C4911949   2.114   3.444   4.010
  239DPPC   C5011950   2.159   3.330   4.101
  240DPPC    C111951   1.260   4.726   1.447
  240DPPC    C211952   1.462   4.740   1.333
  240DPPC    C311953   1.244   4.779   1.225
  240DPPC    N411954   1.330   4.802   1.343
  240DPPC    C511955   1.341   4.947   1.365
  240DPPC    C611956   1.401   4.983   1.501
  240DPPC    O711957   1.306   5.023   1.600
  240DPPC    P811958   1.396   5.050   1.731
  240DPPC    O911959   1.305   5.127   1.819
  240DPPC   O1011960   1.517   5.115   1.675
  240DPPC   O1111961   1.410   4.893   1.762
  240DPPC   C1211962   1.301   4.850   1.844
  240DPPC   C1311963   1.261   4.703   1.856
  240DPPC   O1411964   1.140   4.679   1.929
  240DPPC   C1511965   1.027   4.647   1.861
  240DPPC   O1611966   1.041   4.635   1.739
  240DPPC   C1711967   0.893   4.623   1.931
  240DPPC   C1811968   0.836   4.742   2.008
  240DPPC   C1911969   0.691   4.708   2.043
  240DPPC   C2011970   0.652   4.828   2.129
  240DPPC   C2111971   0.580   4.770   2.251
  240DPPC   C2211972   0.540   4.886   2.342
  240DPPC   C2311973   0.678   4.941   2.380
  240DPPC   C2411974   0.657   5.046   2.490
  240DPPC   C2511975   0.801   5.081   2.531
  240DPPC   C2611976   0.885   5.162   2.432
  240DPPC   C2711977   1.020   5.170   2.504
  240DPPC   C2811978   0.986   5.221   2.644
  240DPPC   C2911979   1.110   5.273   2.718
  240DPPC   C3011980   1.078   5.309   2.863
  240DPPC   C3111981   1.166   5.421   2.919
  240DPPC   C3211982   1.389   4.638   1.908
  240DPPC   O3311983   1.431   4.679   2.039
  240DPPC   C3411984   1.512   4.589   2.099
  240DPPC   O3511985   1.562   4.497   2.034
  240DPPC   C3611986   1.541   4.606   2.249
  240DPPC   C3711987   1.441   4.703   2.313
  240DPPC   C3811988   1.469   4.684   2.462
  240DPPC   C3911989   1.499   4.539   2.500
  240DPPC   C4011990   1.507   4.509   2.650
  240DPPC   C4111991   1.377   4.524   2.730
  240DPPC   C4211992   1.411   4.513   2.879
  240DPPC   C4311993   1.291   4.566   2.957
  240DPPC   C4411994   1.307   4.575   3.109
  240DPPC   C4511995   1.201   4.667   3.170
  240DPPC   C4611996   1.233   4.672   3.319
  240DPPC   C4711997   1.361   4.749   3.354
  240DPPC   C4811998   1.376   4.757   3.506
  240DPPC   C4911999   1.486   4.856   3.540
  240DPPC   C5012000   1.483   4.906   3.685
  241DPPC    C112001   3.034   3.248   1.975
  241DPPC    C212002   3.238   3.288   1.881
  241DPPC    C312003   3.041   3.307   1.749
  241DPPC    N412004   3.100   3.339   1.880
  241DPPC    C512005   3.098   3.484   1.900
  241DPPC    C612006   2.957   3.534   1.931
  241DPPC    O712007   2.960   3.677   1.934
  241DPPC    P812008   2.808   3.714   1.973
  241DPPC    O912009   2.723   3.613   1.908
  241DPPC   O1012010   2.774   3.857   1.954
  241DPPC   O1112011   2.812   3.679   2.130
  241DPPC   C1212012   2.893   3.787   2.177
  241DPPC   C1312013   2.891   3.795   2.330
  241DPPC   O1412014   2.972   3.905   2.373
  241DPPC   C1512015   2.912   4.024   2.401
  241DPPC   O1612016   2.837   4.071   2.316
  241DPPC   C1712017   2.984   4.109   2.505
  241DPPC   C1812018   3.073   4.044   2.612
  241DPPC   C1912019   3.130   4.158   2.696
  241DPPC   C2012020   3.248   4.116   2.783
  241DPPC   C2112021   3.210   4.021   2.897
  241DPPC   C2212022   3.331   4.012   2.991
  241DPPC   C2312023   3.357   3.866   3.028
  241DPPC   C2412024   3.476   3.872   3.124
  241DPPC   C2512025   3.521   3.738   3.183
  241DPPC   C2612026   3.641   3.758   3.275
  241DPPC   C2712027   3.688   3.620   3.322
  241DPPC   C2812028   3.700   3.519   3.208
  241DPPC   C2912029   3.757   3.391   3.270
  241DPPC   C3012030   3.781   3.288   3.159
  241DPPC   C3112031   3.654   3.281   3.074
  241DPPC   C3212032   2.953   3.662   2.374
  241DPPC   O3312033   2.950   3.629   2.513
  241DPPC   C3412034   3.053   3.670   2.591
  241DPPC   O3512035   3.165   3.708   2.556
  241DPPC   C3612036   3.021   3.633   2.736
  241DPPC   C3712037   3.131   3.551   2.803
  241DPPC   C3812038   3.093   3.513   2.946
  241DPPC   C3912039   3.195   3.423   3.016
  241DPPC   C4012040   3.140   3.397   3.156
  241DPPC   C4112041   3.231   3.317   3.250
  241DPPC   C4212042   3.157   3.289   3.380
  241DPPC   C4312043   3.247   3.207   3.473
  241DPPC   C4412044   3.202   3.247   3.613
  241DPPC   C4512045   3.188   3.399   3.623
  241DPPC   C4612046   3.091   3.420   3.739
  241DPPC   C4712047   3.051   3.560   3.787
  241DPPC   C4812048   2.926   3.555   3.875
  241DPPC   C4912049   2.889   3.696   3.922
  241DPPC   C5012050   2.761   3.697   4.005
  242DPPC    C112051   5.222   5.196   2.069
  242DPPC    C212052   5.217   5.179   1.839
  242DPPC    C312053   5.043   5.298   1.945
  242DPPC    N412054   5.187   5.273   1.948
  242DPPC    C512055   5.269   5.394   1.943
  242DPPC    C612056   5.241   5.501   2.049
  242DPPC    O712057   5.336   5.608   2.058
  242DPPC    P812058   5.264   5.752   2.058
  242DPPC    O912059   5.132   5.715   2.113
  242DPPC   O1012060   5.276   5.822   1.929
  242DPPC   O1112061   5.368   5.827   2.156
  242DPPC   C1212062   5.433   5.740   2.249
  242DPPC   C1312063   5.528   5.825   2.334
  242DPPC   O1412064   5.618   5.764   2.428
  242DPPC   C1512065   5.725   5.694   2.381
  242DPPC   O1612066   5.760   5.699   2.264
  242DPPC   C1712067   5.799   5.607   2.483
  242DPPC   C1812068   5.730   5.597   2.619
  242DPPC   C1912069   5.813   5.662   2.731
  242DPPC   C2012070   5.753   5.641   2.870
  242DPPC   C2112071   5.864   5.665   2.972
  242DPPC   C2212072   5.809   5.694   3.112
  242DPPC   C2312073   5.905   5.715   3.230
  242DPPC   C2412074   5.991   5.589   3.246
  242DPPC   C2512075   6.051   5.588   3.387
  242DPPC   C2612076   6.144   5.469   3.407
  242DPPC   C2712077   6.067   5.337   3.407
  242DPPC   C2812078   6.161   5.222   3.446
  242DPPC   C2912079   6.085   5.089   3.451
  242DPPC   C3012080   6.182   4.976   3.488
  242DPPC   C3112081   6.102   4.845   3.495
  242DPPC   C3212082   5.426   5.927   2.385
  242DPPC   O3312083   5.320   5.872   2.464
  242DPPC   C3412084   5.227   5.964   2.502
  242DPPC   O3512085   5.254   6.079   2.466
  242DPPC   C3612086   5.123   5.930   2.609
  242DPPC   C3712087   4.992   5.880   2.548
  242DPPC   C3812088   4.893   5.811   2.642
  242DPPC   C3912089   4.950   5.684   2.706
  242DPPC   C4012090   4.831   5.610   2.767
  242DPPC   C4112091   4.888   5.477   2.818
  242DPPC   C4212092   4.771   5.379   2.823
  242DPPC   C4312093   4.825   5.245   2.873
  242DPPC   C4412094   4.722   5.133   2.884
  242DPPC   C4512095   4.599   5.181   2.962
  242DPPC   C4612096   4.528   5.058   3.017
  242DPPC   C4712097   4.467   4.979   2.900
  242DPPC   C4812098   4.411   4.840   2.932
  242DPPC   C4912099   4.320   4.803   2.814
  242DPPC   C5012100   4.209   4.907   2.798
  243DPPC    C112101   8.242   6.219   1.755
  243DPPC    C212102   8.397   6.140   1.927
  243DPPC    C312103   8.172   6.045   1.883
  243DPPC    N412104   8.295   6.103   1.827
  243DPPC    C512105   8.344   5.991   1.745
  243DPPC    C612106   8.457   6.022   1.646
  243DPPC    O712107   8.513   5.907   1.582
  243DPPC    P812108   8.651   5.953   1.514
  243DPPC    O912109   8.658   6.089   1.456
  243DPPC   O1012110   8.700   5.833   1.442
  243DPPC   O1112111   8.735   5.979   1.649
  243DPPC   C1212112   8.795   5.856   1.691
  243DPPC   C1312113   8.800   5.825   1.841
  243DPPC   O1412114   8.701   5.732   1.885
  243DPPC   C1512115   8.711   5.597   1.866
  243DPPC   O1612116   8.779   5.554   1.773
  243DPPC   C1712117   8.599   5.525   1.941
  243DPPC   C1812118   8.648   5.508   2.084
  243DPPC   C1912119   8.545   5.457   2.185
  243DPPC   C2012120   8.426   5.553   2.200
  243DPPC   C2112121   8.357   5.484   2.318
  243DPPC   C2212122   8.451   5.463   2.437
  243DPPC   C2312123   8.432   5.328   2.505
  243DPPC   C2412124   8.505   5.304   2.638
  243DPPC   C2512125   8.498   5.152   2.648
  243DPPC   C2612126   8.576   5.105   2.771
  243DPPC   C2712127   8.510   5.168   2.894
  243DPPC   C2812128   8.577   5.133   3.028
  243DPPC   C2912129   8.521   5.198   3.154
  243DPPC   C3012130   8.607   5.150   3.271
  243DPPC   C3112131   8.562   5.216   3.402
  243DPPC   C3212132   8.795   5.963   1.908
  243DPPC   O3312133   8.787   5.965   2.050
  243DPPC   C3412134   8.749   6.086   2.102
  243DPPC   O3512135   8.721   6.180   2.029
  243DPPC   C3612136   8.718   6.078   2.252
  243DPPC   C3712137   8.804   5.974   2.324
  243DPPC   C3812138   8.762   5.955   2.470
  243DPPC   C3912139   8.789   6.085   2.545
  243DPPC   C4012140   8.769   6.055   2.694
  243DPPC   C4112141   8.804   6.176   2.780
  243DPPC   C4212142   8.723   6.296   2.729
  243DPPC   C4312143   8.746   6.401   2.838
  243DPPC   C4412144   8.894   6.439   2.826
  243DPPC   C4512145   8.929   6.551   2.925
  243DPPC   C4612146   9.078   6.571   2.952
  243DPPC   C4712147   9.117   6.426   2.984
  243DPPC   C4812148   9.242   6.418   3.073
  243DPPC   C4912149   9.311   6.283   3.094
  243DPPC   C5012150   9.245   6.197   3.202
  244DPPC    C112151   6.684   3.066   1.783
  244DPPC    C212152   6.808   2.882   1.699
  244DPPC    C312153   6.861   3.101   1.620
  244DPPC    N412154   6.817   3.023   1.737
  244DPPC    C512155   6.912   3.053   1.845
  244DPPC    C612156   7.051   2.990   1.855
  244DPPC    O712157   7.048   2.867   1.928
  244DPPC    P812158   7.186   2.787   1.911
  244DPPC    O912159   7.290   2.871   1.847
  244DPPC   O1012160   7.134   2.669   1.838
  244DPPC   O1112161   7.209   2.749   2.066
  244DPPC   C1212162   7.111   2.654   2.108
  244DPPC   C1312163   7.122   2.624   2.257
  244DPPC   O1412164   7.064   2.732   2.331
  244DPPC   C1512165   6.945   2.703   2.390
  244DPPC   O1612166   6.873   2.616   2.342
  244DPPC   C1712167   6.886   2.808   2.485
  244DPPC   C1812168   6.860   2.763   2.628
  244DPPC   C1912169   6.994   2.743   2.698
  244DPPC   C2012170   6.979   2.702   2.844
  244DPPC   C2112171   7.112   2.694   2.920
  244DPPC   C2212172   7.084   2.655   3.065
  244DPPC   C2312173   7.216   2.623   3.136
  244DPPC   C2412174   7.203   2.636   3.287
  244DPPC   C2512175   7.130   2.766   3.322
  244DPPC   C2612176   7.109   2.787   3.473
  244DPPC   C2712177   7.239   2.789   3.554
  244DPPC   C2812178   7.215   2.798   3.705
  244DPPC   C2912179   7.344   2.790   3.787
  244DPPC   C3012180   7.316   2.779   3.937
  244DPPC   C3112181   7.240   2.899   3.994
  244DPPC   C3212182   7.269   2.598   2.290
  244DPPC   O3312183   7.305   2.546   2.418
  244DPPC   C3412184   7.354   2.642   2.500
  244DPPC   O3512185   7.363   2.761   2.467
  244DPPC   C3612186   7.397   2.588   2.637
  244DPPC   C3712187   7.542   2.542   2.621
  244DPPC   C3812188   7.596   2.459   2.738
  244DPPC   C3912189   7.607   2.523   2.877
  244DPPC   C4012190   7.714   2.450   2.958
  244DPPC   C4112191   7.760   2.529   3.080
  244DPPC   C4212192   7.710   2.469   3.211
  244DPPC   C4312193   7.774   2.548   3.326
  244DPPC   C4412194   7.712   2.501   3.458
  244DPPC   C4512195   7.560   2.521   3.454
  244DPPC   C4612196   7.479   2.475   3.576
  244DPPC   C4712197   7.509   2.334   3.626
  244DPPC   C4812198   7.443   2.305   3.761
  244DPPC   C4912199   7.509   2.395   3.866
  244DPPC   C5012200   7.419   2.369   3.988
  245DPPC    C112201   5.390   3.608   1.747
  245DPPC    C212202   5.455   3.500   1.947
  245DPPC    C312203   5.594   3.669   1.866
  245DPPC    N412204   5.452   3.630   1.879
  245DPPC    C512205   5.389   3.734   1.962
  245DPPC    C612206   5.341   3.863   1.896
  245DPPC    O712207   5.439   3.966   1.887
  245DPPC    P812208   5.351   4.097   1.850
  245DPPC    O912209   5.269   4.058   1.733
  245DPPC   O1012210   5.431   4.220   1.835
  245DPPC   O1112211   5.258   4.105   1.982
  245DPPC   C1212212   5.330   4.151   2.097
  245DPPC   C1312213   5.239   4.191   2.213
  245DPPC   O1412214   5.302   4.260   2.322
  245DPPC   C1512215   5.312   4.396   2.323
  245DPPC   O1612216   5.301   4.461   2.219
  245DPPC   C1712217   5.387   4.441   2.448
  245DPPC   C1812218   5.296   4.429   2.571
  245DPPC   C1912219   5.360   4.507   2.685
  245DPPC   C2012220   5.282   4.503   2.817
  245DPPC   C2112221   5.346   4.588   2.927
  245DPPC   C2212222   5.242   4.587   3.038
  245DPPC   C2312223   5.314   4.648   3.159
  245DPPC   C2412224   5.212   4.639   3.273
  245DPPC   C2512225   5.275   4.684   3.405
  245DPPC   C2612226   5.193   4.628   3.521
  245DPPC   C2712227   5.278   4.617   3.648
  245DPPC   C2812228   5.198   4.579   3.773
  245DPPC   C2912229   5.279   4.580   3.903
  245DPPC   C3012230   5.203   4.527   4.025
  245DPPC   C3112231   5.301   4.522   4.143
  245DPPC   C3212232   5.158   4.066   2.244
  245DPPC   O3312233   5.244   3.965   2.298
  245DPPC   C3412234   5.181   3.844   2.301
  245DPPC   O3512235   5.068   3.837   2.255
  245DPPC   C3612236   5.270   3.726   2.341
  245DPPC   C3712237   5.264   3.676   2.485
  245DPPC   C3812238   5.384   3.587   2.518
  245DPPC   C3912239   5.392   3.551   2.666
  245DPPC   C4012240   5.513   3.464   2.703
  245DPPC   C4112241   5.501   3.406   2.844
  245DPPC   C4212242   5.638   3.365   2.898
  245DPPC   C4312243   5.618   3.352   3.049
  245DPPC   C4412244   5.573   3.491   3.096
  245DPPC   C4512245   5.581   3.494   3.249
  245DPPC   C4612246   5.505   3.381   3.318
  245DPPC   C4712247   5.513   3.390   3.471
  245DPPC   C4812248   5.428   3.287   3.545
  245DPPC   C4912249   5.447   3.312   3.695
  245DPPC   C5012250   5.594   3.316   3.736
  246DPPC    C112251   9.244   7.972   1.592
  246DPPC    C212252   9.414   8.099   1.679
  246DPPC    C312253   9.245   8.011   1.824
  246DPPC    N412254   9.332   7.981   1.709
  246DPPC    C512255   9.422   7.865   1.706
  246DPPC    C612256   9.495   7.810   1.828
  246DPPC    O712257   9.593   7.909   1.861
  246DPPC    P812258   9.686   7.845   1.975
  246DPPC    O912259   9.803   7.935   1.990
  246DPPC   O1012260   9.695   7.698   1.969
  246DPPC   O1112261   9.573   7.883   2.083
  246DPPC   C1212262   9.583   8.020   2.122
  246DPPC   C1312263   9.452   8.098   2.133
  246DPPC   O1412264   9.482   8.235   2.165
  246DPPC   C1512265   9.526   8.327   2.076
  246DPPC   O1612266   9.513   8.294   1.958
  246DPPC   C1712267   9.602   8.451   2.125
  246DPPC   C1812268   9.550   8.528   2.246
  246DPPC   C1912269   9.636   8.650   2.282
  246DPPC   C2012270   9.785   8.623   2.301
  246DPPC   C2112271   9.840   8.581   2.438
  246DPPC   C2212272   9.993   8.578   2.439
  246DPPC   C2312273  10.054   8.567   2.579
  246DPPC   C2412274   9.985   8.448   2.646
  246DPPC   C2512275   9.994   8.451   2.799
  246DPPC   C2612276   9.908   8.342   2.863
  246DPPC   C2712277   9.927   8.337   3.015
  246DPPC   C2812278  10.062   8.285   3.063
  246DPPC   C2912279  10.069   8.146   2.999
  246DPPC   C3012280  10.191   8.075   3.058
  246DPPC   C3112281  10.191   7.940   2.986
  246DPPC   C3212282   9.342   8.049   2.227
  246DPPC   O3312283   9.264   7.943   2.172
  246DPPC   C3412284   9.180   7.891   2.266
  246DPPC   O3512285   9.196   7.918   2.385
  246DPPC   C3612286   9.097   7.778   2.205
  246DPPC   C3712287   8.949   7.778   2.245
  246DPPC   C3812288   8.928   7.705   2.378
  246DPPC   C3912289   8.783   7.707   2.428
  246DPPC   C4012290   8.772   7.642   2.566
  246DPPC   C4112291   8.822   7.743   2.670
  246DPPC   C4212292   8.790   7.694   2.812
  246DPPC   C4312293   8.874   7.769   2.915
  246DPPC   C4412294   8.832   7.726   3.056
  246DPPC   C4512295   8.953   7.698   3.145
  246DPPC   C4612296   9.027   7.829   3.172
  246DPPC   C4712297   9.145   7.821   3.270
  246DPPC   C4812298   9.225   7.950   3.282
  246DPPC   C4912299   9.275   8.001   3.147
  246DPPC   C5012300   9.369   8.122   3.147
  247DPPC    C112301   7.027   1.286   1.212
  247DPPC    C212302   7.269   1.304   1.229
  247DPPC    C312303   7.154   1.168   1.385
  247DPPC    N412304   7.153   1.216   1.246
  247DPPC    C512305   7.142   1.101   1.155
  247DPPC    C612306   7.258   1.002   1.146
  247DPPC    O712307   7.291   0.937   1.269
  247DPPC    P812308   7.451   0.948   1.279
  247DPPC    O912309   7.469   1.053   1.382
  247DPPC   O1012310   7.518   0.959   1.148
  247DPPC   O1112311   7.477   0.804   1.346
  247DPPC   C1212312   7.466   0.828   1.487
  247DPPC   C1312313   7.474   0.705   1.577
  247DPPC   O1412314   7.437   0.736   1.713
  247DPPC   C1512315   7.306   0.727   1.747
  247DPPC   O1612316   7.209   0.721   1.672
  247DPPC   C1712317   7.284   0.757   1.896
  247DPPC   C1812318   7.366   0.880   1.933
  247DPPC   C1912319   7.351   0.908   2.083
  247DPPC   C2012320   7.436   1.020   2.144
  247DPPC   C2112321   7.389   1.064   2.283
  247DPPC   C2212322   7.384   0.946   2.380
  247DPPC   C2312323   7.304   0.978   2.507
  247DPPC   C2412324   7.362   1.108   2.563
  247DPPC   C2512325   7.362   1.105   2.716
  247DPPC   C2612326   7.429   1.216   2.797
  247DPPC   C2712327   7.422   1.185   2.947
  247DPPC   C2812328   7.503   1.286   3.029
  247DPPC   C2912329   7.468   1.287   3.178
  247DPPC   C3012330   7.537   1.179   3.261
  247DPPC   C3112331   7.512   1.194   3.411
  247DPPC   C3212332   7.621   0.674   1.549
  247DPPC   O3312333   7.711   0.636   1.653
  247DPPC   C3412334   7.684   0.513   1.704
  247DPPC   O3512335   7.626   0.427   1.638
  247DPPC   C3612336   7.746   0.482   1.840
  247DPPC   C3712337   7.706   0.593   1.938
  247DPPC   C3812338   7.805   0.617   2.052
  247DPPC   C3912339   7.748   0.727   2.142
  247DPPC   C4012340   7.824   0.743   2.274
  247DPPC   C4112341   7.778   0.848   2.375
  247DPPC   C4212342   7.859   0.863   2.504
  247DPPC   C4312343   7.823   0.997   2.568
  247DPPC   C4412344   7.885   1.011   2.707
  247DPPC   C4512345   7.869   1.155   2.756
  247DPPC   C4612346   7.923   1.157   2.899
  247DPPC   C4712347   7.903   1.286   2.978
  247DPPC   C4812348   7.935   1.267   3.127
  247DPPC   C4912349   7.889   1.380   3.219
  247DPPC   C5012350   7.929   1.354   3.364
  248DPPC    C112351   6.300   1.288   1.907
  248DPPC    C212352   6.438   1.459   2.018
  248DPPC    C312353   6.211   1.470   2.023
  248DPPC    N412354   6.320   1.371   2.027
  248DPPC    C512355   6.328   1.299   2.155
  248DPPC    C612356   6.222   1.192   2.179
  248DPPC    O712357   6.090   1.236   2.209
  248DPPC    P812358   5.978   1.127   2.169
  248DPPC    O912359   5.998   1.085   2.029
  248DPPC   O1012360   5.851   1.192   2.207
  248DPPC   O1112361   6.012   1.009   2.274
  248DPPC   C1212362   5.988   1.056   2.407
  248DPPC   C1312363   6.039   0.957   2.511
  248DPPC   O1412364   5.961   0.951   2.631
  248DPPC   C1512365   5.836   0.898   2.630
  248DPPC   O1612366   5.782   0.859   2.527
  248DPPC   C1712367   5.767   0.882   2.766
  248DPPC   C1812368   5.688   1.012   2.789
  248DPPC   C1912369   5.606   1.008   2.918
  248DPPC   C2012370   5.689   0.985   3.043
  248DPPC   C2112371   5.616   0.998   3.177
  248DPPC   C2212372   5.705   1.043   3.293
  248DPPC   C2312373   5.649   0.989   3.424
  248DPPC   C2412374   5.732   1.013   3.550
  248DPPC   C2512375   5.654   0.957   3.669
  248DPPC   C2612376   5.740   0.982   3.793
  248DPPC   C2712377   5.655   0.967   3.920
  248DPPC   C2812378   5.540   1.067   3.906
  248DPPC   C2912379   5.451   1.082   4.029
  248DPPC   C3012380   5.393   1.220   4.064
  248DPPC   C3112381   5.304   1.277   3.954
  248DPPC   C3212382   6.190   0.961   2.536
  248DPPC   O3312383   6.230   1.097   2.557
  248DPPC   C3412384   6.357   1.129   2.595
  248DPPC   O3512385   6.460   1.065   2.578
  248DPPC   C3612386   6.354   1.277   2.634
  248DPPC   C3712387   6.475   1.315   2.720
  248DPPC   C3812388   6.487   1.238   2.852
  248DPPC   C3912389   6.524   1.331   2.967
  248DPPC   C4012390   6.523   1.229   3.080
  248DPPC   C4112391   6.586   1.305   3.198
  248DPPC   C4212392   6.553   1.223   3.322
  248DPPC   C4312393   6.613   1.275   3.453
  248DPPC   C4412394   6.656   1.167   3.552
  248DPPC   C4512395   6.759   1.224   3.650
  248DPPC   C4612396   6.801   1.142   3.772
  248DPPC   C4712397   6.922   1.208   3.838
  248DPPC   C4812398   7.005   1.129   3.940
  248DPPC   C4912399   7.083   1.007   3.890
  248DPPC   C5012400   7.146   0.921   4.000
  249DPPC    C112401   1.825   5.613   1.803
  249DPPC    C212402   1.997   5.728   1.680
  249DPPC    C312403   1.987   5.493   1.681
  249DPPC    N412404   1.904   5.614   1.679
  249DPPC    C512405   1.828   5.626   1.553
  249DPPC    C612406   1.769   5.760   1.512
  249DPPC    O712407   1.656   5.807   1.587
  249DPPC    P812408   1.641   5.965   1.558
  249DPPC    O912409   1.500   6.003   1.582
  249DPPC   O1012410   1.738   6.012   1.457
  249DPPC   O1112411   1.713   5.988   1.700
  249DPPC   C1212412   1.630   5.945   1.808
  249DPPC   C1312413   1.705   5.924   1.940
  249DPPC   O1412414   1.616   5.915   2.053
  249DPPC   C1512415   1.551   5.797   2.069
  249DPPC   O1612416   1.572   5.706   1.989
  249DPPC   C1712417   1.463   5.771   2.192
  249DPPC   C1812418   1.542   5.766   2.323
  249DPPC   C1912419   1.614   5.631   2.335
  249DPPC   C2012420   1.696   5.642   2.463
  249DPPC   C2112421   1.599   5.667   2.580
  249DPPC   C2212422   1.663   5.675   2.719
  249DPPC   C2312423   1.725   5.544   2.769
  249DPPC   C2412424   1.796   5.579   2.900
  249DPPC   C2512425   1.891   5.469   2.947
  249DPPC   C2612426   1.933   5.503   3.090
  249DPPC   C2712427   1.959   5.379   3.176
  249DPPC   C2812428   1.966   5.424   3.323
  249DPPC   C2912429   1.954   5.297   3.407
  249DPPC   C3012430   1.817   5.230   3.417
  249DPPC   C3112431   1.820   5.084   3.464
  249DPPC   C3212432   1.800   6.044   1.948
  249DPPC   O3312433   1.901   6.051   2.049
  249DPPC   C3412434   1.993   5.951   2.054
  249DPPC   O3512435   2.004   5.863   1.968
  249DPPC   C3612436   2.096   5.960   2.167
  249DPPC   C3712437   2.057   5.860   2.276
  249DPPC   C3812438   2.162   5.825   2.380
  249DPPC   C3912439   2.106   5.752   2.503
  249DPPC   C4012440   2.211   5.763   2.614
  249DPPC   C4112441   2.149   5.691   2.734
  249DPPC   C4212442   2.256   5.677   2.843
  249DPPC   C4312443   2.308   5.814   2.885
  249DPPC   C4412444   2.213   5.887   2.981
  249DPPC   C4512445   2.250   5.851   3.125
  249DPPC   C4612446   2.393   5.867   3.178
  249DPPC   C4712447   2.396   5.884   3.330
  249DPPC   C4812448   2.542   5.893   3.373
  249DPPC   C4912449   2.569   5.925   3.520
  249DPPC   C5012450   2.470   5.840   3.599
  250DPPC    C112451   8.687   8.137   1.299
  250DPPC    C212452   8.875   8.191   1.430
  250DPPC    C312453   8.917   8.162   1.202
  250DPPC    N412454   8.815   8.210   1.297
  250DPPC    C512455   8.806   8.351   1.257
  250DPPC    C612456   8.791   8.467   1.355
  250DPPC    O712457   8.910   8.488   1.432
  250DPPC    P812458   8.879   8.579   1.561
  250DPPC    O912459   8.815   8.700   1.505
  250DPPC   O1012460   9.016   8.585   1.618
  250DPPC   O1112461   8.777   8.463   1.606
  250DPPC   C1212462   8.713   8.497   1.729
  250DPPC   C1312463   8.654   8.383   1.812
  250DPPC   O1412464   8.568   8.426   1.918
  250DPPC   C1512465   8.438   8.385   1.917
  250DPPC   O1612466   8.392   8.315   1.827
  250DPPC   C1712467   8.346   8.439   2.026
  250DPPC   C1812468   8.342   8.351   2.151
  250DPPC   C1912469   8.291   8.440   2.265
  250DPPC   C2012470   8.281   8.360   2.395
  250DPPC   C2112471   8.169   8.258   2.383
  250DPPC   C2212472   8.142   8.210   2.526
  250DPPC   C2312473   8.035   8.102   2.510
  250DPPC   C2412474   8.011   8.019   2.635
  250DPPC   C2512475   7.884   7.933   2.628
  250DPPC   C2612476   7.849   7.872   2.763
  250DPPC   C2712477   7.714   7.799   2.758
  250DPPC   C2812478   7.711   7.728   2.894
  250DPPC   C2912479   7.749   7.820   3.010
  250DPPC   C3012480   7.762   7.728   3.132
  250DPPC   C3112481   7.803   7.826   3.242
  250DPPC   C3212482   8.771   8.288   1.842
  250DPPC   O3312483   8.873   8.360   1.911
  250DPPC   C3412484   8.978   8.282   1.950
  250DPPC   O3512485   8.983   8.163   1.919
  250DPPC   C3612486   9.087   8.339   2.041
  250DPPC   C3712487   9.029   8.357   2.182
  250DPPC   C3812488   9.121   8.446   2.265
  250DPPC   C3912489   9.061   8.463   2.405
  250DPPC   C4012490   9.164   8.531   2.494
  250DPPC   C4112491   9.120   8.533   2.641
  250DPPC   C4212492   9.223   8.601   2.731
  250DPPC   C4312493   9.353   8.521   2.733
  250DPPC   C4412494   9.351   8.380   2.794
  250DPPC   C4512495   9.494   8.325   2.793
  250DPPC   C4612496   9.517   8.259   2.658
  250DPPC   C4712497   9.656   8.196   2.656
  250DPPC   C4812498   9.687   8.134   2.519
  250DPPC   C4912499   9.833   8.088   2.510
  250DPPC   C5012500   9.870   7.991   2.622
  251DPPC    C112501   6.512   5.708   1.674
  251DPPC    C212502   6.731   5.695   1.587
  251DPPC    C312503   6.578   5.850   1.496
  251DPPC    N412504   6.623   5.789   1.621
  251DPPC    C512505   6.666   5.890   1.719
  251DPPC    C612506   6.582   6.013   1.754
  251DPPC    O712507   6.466   5.986   1.834
  251DPPC    P812508   6.387   6.103   1.912
  251DPPC    O912509   6.282   6.021   1.976
  251DPPC   O1012510   6.351   6.212   1.819
  251DPPC   O1112511   6.491   6.162   2.020
  251DPPC   C1212512   6.538   6.043   2.083
  251DPPC   C1312513   6.630   6.073   2.202
  251DPPC   O1412514   6.690   5.952   2.249
  251DPPC   C1512515   6.825   5.941   2.244
  251DPPC   O1612516   6.894   5.990   2.154
  251DPPC   C1712517   6.880   5.837   2.342
  251DPPC   C1812518   6.926   5.908   2.469
  251DPPC   C1912519   6.981   5.808   2.571
  251DPPC   C2012520   7.103   5.734   2.515
  251DPPC   C2112521   7.216   5.832   2.487
  251DPPC   C2212522   7.336   5.756   2.429
  251DPPC   C2312523   7.467   5.830   2.402
  251DPPC   C2412524   7.568   5.730   2.345
  251DPPC   C2512525   7.705   5.798   2.346
  251DPPC   C2612526   7.784   5.729   2.457
  251DPPC   C2712527   7.910   5.816   2.467
  251DPPC   C2812528   8.000   5.822   2.344
  251DPPC   C2912529   8.130   5.893   2.381
  251DPPC   C3012530   8.230   5.902   2.266
  251DPPC   C3112531   8.367   5.939   2.323
  251DPPC   C3212532   6.552   6.164   2.297
  251DPPC   O3312533   6.638   6.254   2.367
  251DPPC   C3412534   6.564   6.339   2.444
  251DPPC   O3512535   6.442   6.342   2.431
  251DPPC   C3612536   6.629   6.435   2.543
  251DPPC   C3712537   6.533   6.442   2.662
  251DPPC   C3812538   6.607   6.516   2.775
  251DPPC   C3912539   6.553   6.481   2.914
  251DPPC   C4012540   6.594   6.577   3.026
  251DPPC   C4112541   6.555   6.510   3.158
  251DPPC   C4212542   6.597   6.603   3.273
  251DPPC   C4312543   6.583   6.544   3.413
  251DPPC   C4412544   6.444   6.485   3.436
  251DPPC   C4512545   6.423   6.435   3.580
  251DPPC   C4612546   6.440   6.565   3.659
  251DPPC   C4712547   6.442   6.538   3.810
  251DPPC   C4812548   6.303   6.524   3.871
  251DPPC   C4912549   6.230   6.659   3.868
  251DPPC   C5012550   6.086   6.655   3.919
  252DPPC    C112551   4.421   2.611   1.914
  252DPPC    C212552   4.618   2.636   2.061
  252DPPC    C312553   4.426   2.750   2.098
  252DPPC    N412554   4.472   2.619   2.051
  252DPPC    C512555   4.422   2.495   2.113
  252DPPC    C612556   4.276   2.456   2.137
  252DPPC    O712557   4.204   2.557   2.207
  252DPPC    P812558   4.070   2.490   2.267
  252DPPC    O912559   4.112   2.374   2.349
  252DPPC   O1012560   3.980   2.472   2.151
  252DPPC   O1112561   4.032   2.616   2.358
  252DPPC   C1212562   4.132   2.634   2.459
  252DPPC   C1312563   4.193   2.774   2.461
  252DPPC   O1412564   4.303   2.793   2.552
  252DPPC   C1512565   4.414   2.868   2.531
  252DPPC   O1612566   4.432   2.936   2.430
  252DPPC   C1712567   4.505   2.872   2.654
  252DPPC   C1812568   4.594   2.748   2.661
  252DPPC   C1912569   4.649   2.737   2.803
  252DPPC   C2012570   4.755   2.628   2.823
  252DPPC   C2112571   4.778   2.591   2.970
  252DPPC   C2212572   4.820   2.446   2.993
  252DPPC   C2312573   4.820   2.418   3.144
  252DPPC   C2412574   4.865   2.274   3.165
  252DPPC   C2512575   4.912   2.237   3.306
  252DPPC   C2612576   4.966   2.095   3.319
  252DPPC   C2712577   4.851   2.003   3.280
  252DPPC   C2812578   4.896   1.865   3.230
  252DPPC   C2912579   5.011   1.876   3.130
  252DPPC   C3012580   5.099   1.751   3.116
  252DPPC   C3112581   5.229   1.783   3.042
  252DPPC   C3212582   4.079   2.874   2.484
  252DPPC   O3312583   3.997   2.854   2.599
  252DPPC   C3412584   3.889   2.936   2.595
  252DPPC   O3512585   3.866   2.999   2.492
  252DPPC   C3612586   3.805   2.946   2.723
  252DPPC   C3712587   3.692   2.844   2.706
  252DPPC   C3812588   3.591   2.839   2.821
  252DPPC   C3912589   3.670   2.797   2.945
  252DPPC   C4012590   3.585   2.791   3.072
  252DPPC   C4112591   3.662   2.725   3.186
  252DPPC   C4212592   3.709   2.581   3.162
  252DPPC   C4312593   3.793   2.530   3.280
  252DPPC   C4412594   3.843   2.390   3.243
  252DPPC   C4512595   3.988   2.377   3.290
  252DPPC   C4612596   4.053   2.240   3.272
  252DPPC   C4712597   4.058   2.205   3.123
  252DPPC   C4812598   4.140   2.076   3.120
  252DPPC   C4912599   4.064   1.979   3.212
  252DPPC   C5012600   4.116   1.835   3.206
  253DPPC    C112601   3.768   7.549   1.960
  253DPPC    C212602   3.739   7.781   1.908
  253DPPC    C312603   3.561   7.619   1.861
  253DPPC    N412604   3.670   7.658   1.951
  253DPPC    C512605   3.611   7.672   2.085
  253DPPC    C612606   3.691   7.687   2.215
  253DPPC    O712607   3.748   7.813   2.253
  253DPPC    P812608   3.905   7.801   2.286
  253DPPC    O912609   3.976   7.930   2.276
  253DPPC   O1012610   3.957   7.697   2.194
  253DPPC   O1112611   3.898   7.754   2.440
  253DPPC   C1212612   3.824   7.849   2.517
  253DPPC   C1312613   3.747   7.780   2.630
  253DPPC   O1412614   3.651   7.857   2.704
  253DPPC   C1512615   3.520   7.858   2.665
  253DPPC   O1612616   3.484   7.798   2.564
  253DPPC   C1712617   3.422   7.933   2.755
  253DPPC   C1812618   3.278   7.893   2.724
  253DPPC   C1912619   3.191   7.977   2.819
  253DPPC   C2012620   3.047   7.929   2.837
  253DPPC   C2112621   3.004   7.991   2.969
  253DPPC   C2212622   2.865   7.936   3.004
  253DPPC   C2312623   2.816   8.018   3.123
  253DPPC   C2412624   2.665   8.020   3.146
  253DPPC   C2512625   2.622   8.075   3.282
  253DPPC   C2612626   2.477   8.040   3.319
  253DPPC   C2712627   2.380   8.110   3.223
  253DPPC   C2812628   2.327   8.249   3.259
  253DPPC   C2912629   2.256   8.311   3.138
  253DPPC   C3012630   2.211   8.447   3.192
  253DPPC   C3112631   2.130   8.541   3.104
  253DPPC   C3212632   3.854   7.718   2.719
  253DPPC   O3312633   3.957   7.793   2.784
  253DPPC   C3412634   4.056   7.727   2.849
  253DPPC   O3512635   4.052   7.604   2.858
  253DPPC   C3612636   4.176   7.807   2.901
  253DPPC   C3712637   4.165   7.869   3.041
  253DPPC   C3812638   4.294   7.947   3.061
  253DPPC   C3912639   4.306   8.084   2.993
  253DPPC   C4012640   4.434   8.156   3.038
  253DPPC   C4112641   4.560   8.070   3.026
  253DPPC   C4212642   4.667   8.126   3.120
  253DPPC   C4312643   4.770   8.014   3.131
  253DPPC   C4412644   4.883   8.065   3.222
  253DPPC   C4512645   5.010   7.985   3.193
  253DPPC   C4612646   5.124   8.031   3.283
  253DPPC   C4712647   5.243   7.940   3.252
  253DPPC   C4812648   5.352   7.968   3.355
  253DPPC   C4912649   5.469   7.870   3.375
  253DPPC   C5012650   5.558   7.897   3.496
  254DPPC    C112651   3.071   1.469   2.605
  254DPPC    C212652   2.978   1.689   2.586
  254DPPC    C312653   3.093   1.586   2.409
  254DPPC    N412654   2.996   1.561   2.516
  254DPPC    C512655   2.873   1.499   2.464
  254DPPC    C612656   2.796   1.555   2.344
  254DPPC    O712657   2.661   1.589   2.375
  254DPPC    P812658   2.611   1.659   2.239
  254DPPC    O912659   2.668   1.580   2.128
  254DPPC   O1012660   2.637   1.802   2.269
  254DPPC   O1112661   2.463   1.625   2.291
  254DPPC   C1212662   2.418   1.719   2.390
  254DPPC   C1312663   2.272   1.717   2.435
  254DPPC   O1412664   2.228   1.801   2.542
  254DPPC   C1512665   2.248   1.935   2.533
  254DPPC   O1612666   2.297   2.000   2.441
  254DPPC   C1712667   2.188   2.012   2.651
  254DPPC   C1812668   2.294   2.076   2.741
  254DPPC   C1912669   2.230   2.119   2.873
  254DPPC   C2012670   2.345   2.152   2.967
  254DPPC   C2112671   2.290   2.232   3.085
  254DPPC   C2212672   2.369   2.198   3.211
  254DPPC   C2312673   2.378   2.054   3.261
  254DPPC   C2412674   2.268   2.014   3.360
  254DPPC   C2512675   2.293   1.872   3.412
  254DPPC   C2612676   2.185   1.844   3.516
  254DPPC   C2712677   2.192   1.713   3.594
  254DPPC   C2812678   2.329   1.723   3.663
  254DPPC   C2912679   2.362   1.599   3.747
  254DPPC   C3012680   2.248   1.562   3.843
  254DPPC   C3112681   2.304   1.453   3.934
  254DPPC   C3212682   2.256   1.566   2.459
  254DPPC   O3312683   2.326   1.515   2.573
  254DPPC   C3412684   2.352   1.382   2.565
  254DPPC   O3512685   2.314   1.315   2.469
  254DPPC   C3612686   2.437   1.327   2.680
  254DPPC   C3712687   2.356   1.230   2.766
  254DPPC   C3812688   2.450   1.171   2.871
  254DPPC   C3912689   2.383   1.069   2.962
  254DPPC   C4012690   2.486   1.018   3.063
  254DPPC   C4112691   2.433   0.904   3.150
  254DPPC   C4212692   2.558   0.834   3.202
  254DPPC   C4312693   2.642   0.900   3.311
  254DPPC   C4412694   2.745   0.796   3.355
  254DPPC   C4512695   2.819   0.829   3.485
  254DPPC   C4612696   2.732   0.838   3.611
  254DPPC   C4712697   2.825   0.828   3.733
  254DPPC   C4812698   2.754   0.815   3.868
  254DPPC   C4912699   2.856   0.804   3.981
  254DPPC   C5012700   2.808   0.865   4.113
  255DPPC    C112701   1.499   7.703   1.924
  255DPPC    C212702   1.507   7.474   1.849
  255DPPC    C312703   1.343   7.611   1.768
  255DPPC    N412704   1.484   7.613   1.809
  255DPPC    C512705   1.566   7.663   1.698
  255DPPC    C612706   1.718   7.677   1.701
  255DPPC    O712707   1.808   7.566   1.698
  255DPPC    P812708   1.963   7.604   1.678
  255DPPC    O912709   1.967   7.725   1.594
  255DPPC   O1012710   2.032   7.477   1.645
  255DPPC   O1112711   1.972   7.631   1.837
  255DPPC   C1212712   1.956   7.504   1.902
  255DPPC   C1312713   1.975   7.506   2.053
  255DPPC   O1412714   1.983   7.376   2.112
  255DPPC   C1512715   2.108   7.323   2.126
  255DPPC   O1612716   2.208   7.367   2.071
  255DPPC   C1712717   2.117   7.190   2.202
  255DPPC   C1812718   2.002   7.149   2.293
  255DPPC   C1912719   2.042   7.035   2.387
  255DPPC   C2012720   1.919   6.971   2.452
  255DPPC   C2112721   1.848   6.877   2.354
  255DPPC   C2212722   1.719   6.820   2.412
  255DPPC   C2312723   1.740   6.718   2.525
  255DPPC   C2412724   1.610   6.694   2.603
  255DPPC   C2512725   1.641   6.570   2.687
  255DPPC   C2612726   1.532   6.542   2.790
  255DPPC   C2712727   1.541   6.394   2.829
  255DPPC   C2812728   1.423   6.354   2.918
  255DPPC   C2912729   1.429   6.437   3.046
  255DPPC   C3012730   1.354   6.345   3.142
  255DPPC   C3112731   1.419   6.211   3.176
  255DPPC   C3212732   1.869   7.606   2.101
  255DPPC   O3312733   1.877   7.672   2.228
  255DPPC   C3412734   1.755   7.721   2.263
  255DPPC   O3512735   1.660   7.704   2.187
  255DPPC   C3612736   1.722   7.772   2.403
  255DPPC   C3712737   1.794   7.904   2.428
  255DPPC   C3812738   1.750   7.962   2.562
  255DPPC   C3912739   1.820   8.095   2.591
  255DPPC   C4012740   1.784   8.129   2.736
  255DPPC   C4112741   1.841   8.269   2.759
  255DPPC   C4212742   1.818   8.321   2.901
  255DPPC   C4312743   1.909   8.239   2.993
  255DPPC   C4412744   1.834   8.173   3.109
  255DPPC   C4512745   1.943   8.092   3.180
  255DPPC   C4612746   1.893   8.030   3.310
  255DPPC   C4712747   1.994   7.937   3.377
  255DPPC   C4812748   1.960   7.790   3.352
  255DPPC   C4912749   2.069   7.705   3.417
  255DPPC   C5012750   2.064   7.734   3.567
  256DPPC    C112751   2.695   6.745   1.956
  256DPPC    C212752   2.657   6.519   2.006
  256DPPC    C312753   2.546   6.633   1.818
  256DPPC    N412754   2.670   6.614   1.895
  256DPPC    C512755   2.781   6.587   1.803
  256DPPC    C612756   2.822   6.440   1.793
  256DPPC    O712757   2.722   6.368   1.720
  256DPPC    P812758   2.768   6.215   1.705
  256DPPC    O912759   2.915   6.222   1.690
  256DPPC   O1012760   2.670   6.172   1.603
  256DPPC   O1112761   2.715   6.179   1.853
  256DPPC   C1212762   2.575   6.172   1.827
  256DPPC   C1312763   2.497   6.119   1.948
  256DPPC   O1412764   2.451   6.222   2.037
  256DPPC   C1512765   2.326   6.273   2.025
  256DPPC   O1612766   2.259   6.266   1.922
  256DPPC   C1712767   2.293   6.377   2.132
  256DPPC   C1812768   2.218   6.304   2.244
  256DPPC   C1912769   2.172   6.419   2.334
  256DPPC   C2012770   2.088   6.353   2.444
  256DPPC   C2112771   2.065   6.458   2.552
  256DPPC   C2212772   2.183   6.518   2.629
  256DPPC   C2312773   2.132   6.602   2.746
  256DPPC   C2412774   2.093   6.739   2.689
  256DPPC   C2512775   2.047   6.817   2.813
  256DPPC   C2612776   1.939   6.749   2.897
  256DPPC   C2712777   1.909   6.807   3.035
  256DPPC   C2812778   1.781   6.749   3.094
  256DPPC   C2912779   1.808   6.604   3.136
  256DPPC   C3012780   1.709   6.563   3.245
  256DPPC   C3112781   1.764   6.434   3.307
  256DPPC   C3212782   2.581   6.003   2.001
  256DPPC   O3312783   2.524   5.919   2.101
  256DPPC   C3412784   2.598   5.814   2.147
  256DPPC   O3512785   2.717   5.802   2.120
  256DPPC   C3612786   2.509   5.710   2.216
  256DPPC   C3712787   2.580   5.647   2.337
  256DPPC   C3812788   2.486   5.584   2.439
  256DPPC   C3912789   2.439   5.448   2.386
  256DPPC   C4012790   2.332   5.394   2.481
  256DPPC   C4112791   2.400   5.376   2.617
  256DPPC   C4212792   2.286   5.345   2.715
  256DPPC   C4312793   2.217   5.216   2.671
  256DPPC   C4412794   2.113   5.161   2.768
  256DPPC   C4512795   2.063   5.023   2.722
  256DPPC   C4612796   1.949   4.983   2.815
  256DPPC   C4712797   1.997   4.973   2.960
  256DPPC   C4812798   1.875   4.969   3.053
  256DPPC   C4912799   1.864   4.823   3.098
  256DPPC   C5012800   1.740   4.815   3.187
  257SOL     OW12801   0.230   0.628   0.113
  257SOL    HW112802   0.137   0.626   0.150
  257SOL    HW212803   0.231   0.589   0.021
  258SOL     OW12804   0.225   0.275   0.996
  258SOL    HW112805   0.260   0.258   1.088
  258SOL    HW212806   0.137   0.230   0.984
  259SOL     OW12807   0.019   0.368   0.647
  259SOL    HW112808  -0.063   0.411   0.686
  259SOL    HW212809  -0.009   0.295   0.584
  260SOL     OW12810   0.569   1.275   1.165
  260SOL    HW112811   0.476   1.268   1.128
  260SOL    HW212812   0.580   1.364   1.209
  261SOL     OW12813   1.555   1.511   0.703
  261SOL    HW112814   1.498   1.495   0.784
  261SOL    HW212815   1.496   1.521   0.623
  262SOL     OW12816   1.135   0.703   0.717
  262SOL    HW112817   1.192   0.781   0.692
  262SOL    HW212818   1.075   0.729   0.793
  263SOL     OW12819   1.755   0.607   0.231
  263SOL    HW112820   1.743   0.594   0.132
  263SOL    HW212821   1.725   0.526   0.280
  264SOL     OW12822   0.768   1.144   1.023
  264SOL    HW112823   0.690   1.161   1.083
  264SOL    HW212824   0.802   1.231   0.987
  265SOL     OW12825   0.850   0.798   1.823
  265SOL    HW112826   0.846   0.874   1.888
  265SOL    HW212827   0.872   0.834   1.732
  266SOL     OW12828   0.685   1.012   0.665
  266SOL    HW112829   0.754   0.996   0.735
  266SOL    HW212830   0.612   1.069   0.703
  267SOL     OW12831   0.686   1.161   1.803
  267SOL    HW112832   0.746   1.240   1.817
  267SOL    HW212833   0.600   1.192   1.762
  268SOL     OW12834   0.335   1.435   1.061
  268SOL    HW112835   0.257   1.404   1.008
  268SOL    HW212836   0.393   1.493   1.004
  269SOL     OW12837   1.460   1.505   1.339
  269SOL    HW112838   1.484   1.599   1.365
  269SOL    HW212839   1.444   1.451   1.421
  270SOL     OW12840   1.603   0.447   0.737
  270SOL    HW112841   1.529   0.493   0.687
  270SOL    HW212842   1.654   0.515   0.790
  271SOL     OW12843   0.231   1.713   0.483
  271SOL    HW112844   0.265   1.790   0.537
  271SOL    HW212845   0.275   1.713   0.393
  272SOL     OW12846   0.230   1.434   0.538
  272SOL    HW112847   0.204   1.530   0.538
  272SOL    HW212848   0.159   1.380   0.583
  273SOL     OW12849   0.240   1.091   0.886
  273SOL    HW112850   0.254   1.007   0.938
  273SOL    HW212851   0.185   1.155   0.941
  274SOL     OW12852   0.620   1.786   1.439
  274SOL    HW112853   0.528   1.769   1.474
  274SOL    HW212854   0.648   1.878   1.465
  275SOL     OW12855   0.606   0.964   0.123
  275SOL    HW112856   0.613   1.048   0.069
  275SOL    HW212857   0.652   0.977   0.211
  276SOL     OW12858   1.594   0.114   1.480
  276SOL    HW112859   1.576   0.181   1.408
  276SOL    HW212860   1.591   0.160   1.569
  277SOL     OW12861   0.122   0.643   0.563
  277SOL    HW112862   0.077   0.555   0.580
  277SOL    HW212863   0.121   0.697   0.647
  278SOL     OW12864   1.842   1.767   0.359
  278SOL    HW112865   1.896   1.738   0.439
  278SOL    HW212866   1.872   1.857   0.330
  279SOL     OW12867   0.027   1.596   0.117
  279SOL    HW112868   0.008   1.500   0.138
  279SOL    HW212869  -0.006   1.654   0.192
  280SOL     OW12870   1.689   0.922   0.612
  280SOL    HW112871   1.784   0.893   0.620
  280SOL    HW212872   1.681   0.987   0.537
  281SOL     OW12873   1.641   1.108   0.432
  281SOL    HW112874   1.727   1.110   0.380
  281SOL    HW212875   1.655   1.155   0.520
  282SOL     OW12876   0.613   1.365   0.726
  282SOL    HW112877   0.564   1.278   0.735
  282SOL    HW212878   0.590   1.408   0.639
  283SOL     OW12879   0.809   0.004   0.502
  283SOL    HW112880   0.849   0.095   0.493
  283SOL    HW212881   0.709   0.012   0.508
  284SOL     OW12882   0.197   0.976   1.264
  284SOL    HW112883   0.286   0.931   1.250
  284SOL    HW212884   0.124   0.911   1.245
  285SOL     OW12885   1.525   0.999   0.190
  285SOL    HW112886   1.462   0.923   0.203
  285SOL    HW212887   1.573   1.017   0.276
  286SOL     OW12888   1.187   1.792   1.616
  286SOL    HW112889   1.211   1.852   1.540
  286SOL    HW212890   1.194   1.697   1.586
  287SOL     OW12891   1.466   1.417   0.953
  287SOL    HW112892   1.407   1.423   1.033
  287SOL    HW212893   1.451   1.329   0.907
  288SOL     OW12894   1.667   1.714   0.572
  288SOL    HW112895   1.626   1.691   0.484
  288SOL    HW212896   1.649   1.640   0.637
  289SOL     OW12897   0.598   0.729   0.270
  289SOL    HW112898   0.622   0.798   0.202
  289SOL    HW212899   0.520   0.762   0.324
  290SOL     OW12900   1.281   0.345   0.944
  290SOL    HW112901   1.195   0.295   0.931
  290SOL    HW212902   1.343   0.291   1.000
  291SOL     OW12903   1.576   1.662   0.307
  291SOL    HW112904   1.665   1.708   0.310
  291SOL    HW212905   1.555   1.638   0.212
  292SOL     OW12906   0.807   0.605   1.465
  292SOL    HW112907   0.760   0.602   1.554
  292SOL    HW212908   0.756   0.550   1.399
  293SOL     OW12909   1.394   0.469   1.674
  293SOL    HW112910   1.374   0.512   1.762
  293SOL    HW212911   1.472   0.407   1.683
  294SOL     OW12912   0.973   0.890   1.572
  294SOL    HW112913   1.019   0.806   1.543
  294SOL    HW212914   0.917   0.924   1.497
  295SOL     OW12915   0.991   0.410   1.242
  295SOL    HW112916   0.914   0.444   1.296
  295SOL    HW212917   0.957   0.359   1.163
  296SOL     OW12918   1.041   0.701   0.429
  296SOL    HW112919   1.067   0.697   0.525
  296SOL    HW212920   0.956   0.650   0.415
  297SOL     OW12921   0.076   0.811   0.789
  297SOL    HW112922   0.175   0.799   0.798
  297SOL    HW212923   0.052   0.906   0.810
  298SOL     OW12924   0.865   0.348   0.195
  298SOL    HW112925   0.924   0.411   0.146
  298SOL    HW212926   0.884   0.254   0.166
  299SOL     OW12927   1.719   0.585   1.831
  299SOL    HW112928   1.693   0.674   1.795
  299SOL    HW212929   1.717   0.517   1.758
  300SOL     OW12930   1.362   1.144   0.545
  300SOL    HW112931   1.445   1.115   0.497
  300SOL    HW212932   1.313   1.211   0.489
  301SOL     OW12933   0.550   0.196   0.885
  301SOL    HW112934   0.545   0.191   0.985
  301SOL    HW212935   0.552   0.292   0.856
  302SOL     OW12936   1.008   1.456   0.477
  302SOL    HW112937   0.962   1.528   0.425
  302SOL    HW212938   1.004   1.476   0.575
  303SOL     OW12939   0.351   1.801   0.853
  303SOL    HW112940   0.401   1.715   0.859
  303SOL    HW212941   0.416   1.878   0.850
  304SOL     OW12942   1.795   1.066   0.873
  304SOL    HW112943   1.733   1.051   0.797
  304SOL    HW212944   1.743   1.077   0.958
  305SOL     OW12945   1.227   1.550   1.506
  305SOL    HW112946   1.233   1.473   1.570
  305SOL    HW212947   1.175   1.524   1.426
  306SOL     OW12948   0.321   0.943   0.242
  306SOL    HW112949   0.403   0.982   0.200
  306SOL    HW212950   0.294   0.861   0.193
  307SOL     OW12951   1.458   0.735   0.728
  307SOL    HW112952   1.453   0.670   0.803
  307SOL    HW212953   1.538   0.794   0.741
  308SOL     OW12954   0.461   1.266   1.727
  308SOL    HW112955   0.411   1.267   1.641
  308SOL    HW212956   0.398   1.248   1.803
  309SOL     OW12957   1.111   1.776   0.237
  309SOL    HW112958   1.051   1.714   0.287
  309SOL    HW212959   1.142   1.732   0.152
  310SOL     OW12960   0.202   0.285   1.498
  310SOL    HW112961   0.122   0.345   1.485
  310SOL    HW212962   0.192   0.236   1.584
  311SOL     OW12963   1.632   1.377   0.081
  311SOL    HW112964   1.600   1.471   0.071
  311SOL    HW212965   1.556   1.314   0.069
  312SOL     OW12966   0.464   1.743   0.323
  312SOL    HW112967   0.497   1.782   0.409
  312SOL    HW212968   0.540   1.736   0.258
  313SOL     OW12969   1.400   0.107   0.426
  313SOL    HW112970   1.376   0.070   0.336
  313SOL    HW212971   1.499   0.123   0.430
  314SOL     OW12972   0.940   1.698   0.904
  314SOL    HW112973   1.020   1.641   0.925
  314SOL    HW212974   0.891   1.658   0.827
  315SOL     OW12975   0.382   0.700   0.480
  315SOL    HW112976   0.427   0.610   0.477
  315SOL    HW212977   0.288   0.689   0.513
  316SOL     OW12978   1.547   0.222   1.729
  316SOL    HW112979   1.542   0.259   1.821
  316SOL    HW212980   1.475   0.153   1.717
  317SOL     OW12981   0.614   0.122   0.117
  317SOL    HW112982   0.712   0.100   0.124
  317SOL    HW212983   0.583   0.105   0.024
  318SOL     OW12984   0.888   1.514   1.195
  318SOL    HW112985   0.865   1.489   1.101
  318SOL    HW212986   0.949   1.445   1.234
  319SOL     OW12987   1.351   0.590   1.433
  319SOL    HW112988   1.379   0.547   1.518
  319SOL    HW212989   1.376   0.686   1.434
  320SOL     OW12990   0.803   1.402   0.924
  320SOL    HW112991   0.893   1.416   0.882
  320SOL    HW212992   0.732   1.404   0.853
  321SOL     OW12993   0.922   0.503   0.899
  321SOL    HW112994   0.897   0.494   0.803
  321SOL    HW212995   0.970   0.421   0.930
  322SOL     OW12996   0.539   0.064   0.512
  322SOL    HW112997   0.458   0.065   0.570
  322SOL    HW212998   0.542   0.147   0.457
  323SOL     OW12999   1.434   1.188   0.041
  323SOL    HW113000   1.466   1.112   0.098
  323SOL    HW213001   1.342   1.215   0.071
  324SOL     OW13002   0.297   0.035   0.171
  324SOL    HW113003   0.346   0.119   0.150
  324SOL    HW213004   0.359  -0.030   0.216
  325SOL     OW13005   0.935   0.236   0.480
  325SOL    HW113006   0.887   0.277   0.402
  325SOL    HW213007   1.034   0.234   0.461
  326SOL     OW13008   1.076   0.683   1.464
  326SOL    HW113009   0.996   0.622   1.467
  326SOL    HW213010   1.157   0.630   1.440
  327SOL     OW13011   1.227   1.570   0.793
  327SOL    HW113012   1.248   1.644   0.728
  327SOL    HW213013   1.295   1.570   0.866
  328SOL     OW13014   0.459   1.152   0.741
  328SOL    HW113015   0.388   1.125   0.806
  328SOL    HW213016   0.433   1.124   0.648
  329SOL     OW13017   1.271   1.797   0.591
  329SOL    HW113018   1.315   1.861   0.527
  329SOL    HW213019   1.221   1.849   0.661
  330SOL     OW13020   1.032   0.549   0.016
  330SOL    HW113021   0.991   0.631  -0.023
  330SOL    HW213022   1.096   0.575   0.089
  331SOL     OW13023   0.561   0.222   1.147
  331SOL    HW113024   0.599   0.138   1.184
  331SOL    HW213025   0.473   0.241   1.191
  332SOL     OW13026   0.866   0.454   0.642
  332SOL    HW113027   0.834   0.526   0.580
  332SOL    HW213028   0.890   0.373   0.589
  333SOL     OW13029   1.017   0.039   0.753
  333SOL    HW113030   0.945   0.044   0.684
  333SOL    HW213031   0.993  -0.030   0.822
  334SOL     OW13032   1.429   1.173   0.867
  334SOL    HW113033   1.374   1.089   0.860
  334SOL    HW213034   1.455   1.202   0.775
  335SOL     OW13035   1.466   0.590   0.992
  335SOL    HW113036   1.436   0.495   0.999
  335SOL    HW213037   1.539   0.606   1.058
  336SOL     OW13038   1.857   0.833   0.377
  336SOL    HW113039   1.899   0.769   0.441
  336SOL    HW213040   1.819   0.782   0.299
  337SOL     OW13041   0.488   1.385   0.174
  337SOL    HW113042   0.401   1.370   0.221
  337SOL    HW213043   0.471   1.411   0.079
  338SOL     OW13044   1.664   1.280   0.657
  338SOL    HW113045   1.763   1.288   0.671
  338SOL    HW213046   1.619   1.364   0.688
  339SOL     OW13047   1.390   0.575   0.078
  339SOL    HW113048   1.336   0.554   0.159
  339SOL    HW213049   1.481   0.534   0.087
  340SOL     OW13050   0.527   0.256   0.328
  340SOL    HW113051   0.554   0.197   0.253
  340SOL    HW213052   0.527   0.351   0.297
  341SOL     OW13053   1.064   1.347   1.340
  341SOL    HW113054   0.984   1.324   1.395
  341SOL    HW213055   1.147   1.321   1.389
  342SOL     OW13056   1.592   1.629   1.625
  342SOL    HW113057   1.619   1.663   1.535
  342SOL    HW213058   1.671   1.591   1.671
  343SOL     OW13059   1.111   1.195   1.100
  343SOL    HW113060   1.071   1.239   1.181
  343SOL    HW213061   1.070   1.232   1.017
  344SOL     OW13062   1.638   1.099   1.079
  344SOL    HW113063   1.643   1.180   1.138
  344SOL    HW213064   1.552   1.101   1.028
  345SOL     OW13065   0.915   0.089   1.402
  345SOL    HW113066   0.940   0.069   1.307
  345SOL    HW213067   0.987   0.145   1.444
  346SOL     OW13068   0.980   1.116   1.719
  346SOL    HW113069   0.881   1.122   1.729
  346SOL    HW213070   1.003   1.036   1.663
  347SOL     OW13071   0.705   1.050   0.368
  347SOL    HW113072   0.691   1.057   0.467
  347SOL    HW213073   0.789   0.999   0.350
  348SOL     OW13074   0.410   0.813   1.251
  348SOL    HW113075   0.496   0.825   1.301
  348SOL    HW213076   0.368   0.726   1.278
  349SOL     OW13077   1.274   0.386   1.262
  349SOL    HW113078   1.295   0.460   1.326
  349SOL    HW213079   1.185   0.403   1.219
  350SOL     OW13080   0.064   1.564   1.331
  350SOL    HW113081   0.018   1.646   1.297
  350SOL    HW213082   0.162   1.583   1.340
  351SOL     OW13083   0.367   1.100   0.501
  351SOL    HW113084   0.360   1.183   0.445
  351SOL    HW213085   0.371   1.020   0.441
  352SOL     OW13086   0.566   0.537   0.865
  352SOL    HW113087   0.578   0.603   0.791
  352SOL    HW213088   0.612   0.571   0.948
  353SOL     OW13089   1.252   1.348   0.388
  353SOL    HW113090   1.302   1.425   0.428
  353SOL    HW213091   1.157   1.350   0.420
  354SOL     OW13092   1.272   1.445   1.142
  354SOL    HW113093   1.319   1.458   1.229
  354SOL    HW213094   1.206   1.371   1.151
  355SOL     OW13095   1.582   0.639   0.472
  355SOL    HW113096   1.551   0.700   0.545
  355SOL    HW213097   1.632   0.691   0.403
  356SOL     OW13098   0.402   0.751   1.598
  356SOL    HW113099   0.470   0.806   1.551
  356SOL    HW213100   0.442   0.663   1.625
  357SOL     OW13101   1.013   0.105   1.770
  357SOL    HW113102   1.019   0.190   1.718
  357SOL    HW213103   1.045   0.029   1.713
  358SOL     OW13104   0.573   0.870   1.029
  358SOL    HW113105   0.617   0.959   1.020
  358SOL    HW213106   0.510   0.870   1.106
  359SOL     OW13107   1.360   0.862   1.045
  359SOL    HW113108   1.285   0.862   0.979
  359SOL    HW213109   1.397   0.770   1.054
  360SOL     OW13110   1.209   0.525   0.275
  360SOL    HW113111   1.222   0.441   0.329
  360SOL    HW213112   1.180   0.599   0.335
  361SOL     OW13113   0.307   0.213   1.231
  361SOL    HW113114   0.284   0.250   1.321
  361SOL    HW213115   0.277   0.118   1.225
  362SOL     OW13116   0.732   0.634   1.064
  362SOL    HW113117   0.791   0.608   0.988
  362SOL    HW213118   0.704   0.730   1.053
  363SOL     OW13119   0.307   0.063   0.618
  363SOL    HW113120   0.296   0.157   0.651
  363SOL    HW213121   0.302   0.000   0.695
  364SOL     OW13122   1.622   0.367   0.374
  364SOL    HW113123   1.624   0.291   0.438
  364SOL    HW213124   1.574   0.444   0.414
  365SOL     OW13125   1.023   0.766   0.966
  365SOL    HW113126   1.038   0.787   1.062
  365SOL    HW213127   0.993   0.671   0.957
  366SOL     OW13128   1.859   1.518   1.605
  366SOL    HW113129   1.873   1.545   1.510
  366SOL    HW213130   1.942   1.540   1.658
  367SOL     OW13131   1.540   0.274   0.125
  367SOL    HW113132   1.479   0.199   0.148
  367SOL    HW213133   1.562   0.326   0.208
  368SOL     OW13134   1.303   0.838   0.042
  368SOL    HW113135   1.337   0.745   0.057
  368SOL    HW213136   1.321   0.865  -0.053
  369SOL     OW13137   1.068   1.333   0.849
  369SOL    HW113138   1.075   1.249   0.794
  369SOL    HW213139   1.130   1.402   0.813
  370SOL     OW13140   0.319   0.810   0.949
  370SOL    HW113141   0.412   0.846   0.954
  370SOL    HW213142   0.313   0.725   1.001
  371SOL     OW13143   0.339   0.509   1.006
  371SOL    HW113144   0.287   0.426   0.989
  371SOL    HW213145   0.416   0.514   0.942
  372SOL     OW13146   1.160   0.207   1.477
  372SOL    HW113147   1.160   0.271   1.554
  372SOL    HW213148   1.188   0.255   1.394
  373SOL     OW13149   0.008   1.326   0.200
  373SOL    HW113150  -0.085   1.347   0.169
  373SOL    HW213151   0.018   1.227   0.213
  374SOL     OW13152   0.088   1.801   0.927
  374SOL    HW113153   0.046   1.715   0.900
  374SOL    HW213154   0.182   1.804   0.893
  375SOL     OW13155   0.504   1.568   0.910
  375SOL    HW113156   0.570   1.642   0.919
  375SOL    HW213157   0.548   1.489   0.868
  376SOL     OW13158   1.002   0.796   1.238
  376SOL    HW113159   1.043   0.764   1.324
  376SOL    HW213160   0.906   0.769   1.235
  377SOL     OW13161   0.040   0.544   1.114
  377SOL    HW113162   0.125   0.511   1.073
  377SOL    HW213163   0.053   0.559   1.212
  378SOL     OW13164   0.815   0.572   0.325
  378SOL    HW113165   0.822   0.483   0.279
  378SOL    HW213166   0.721   0.606   0.317
  379SOL     OW13167   1.657   0.604   1.206
  379SOL    HW113168   1.619   0.535   1.268
  379SOL    HW213169   1.739   0.568   1.162
  380SOL     OW13170   0.671   0.464   1.269
  380SOL    HW113171   0.637   0.375   1.239
  380SOL    HW213172   0.697   0.518   1.189
  381SOL     OW13173   0.930   1.678   1.465
  381SOL    HW113174   0.906   1.660   1.370
  381SOL    HW213175   0.960   1.772   1.475
  382SOL     OW13176   0.473   0.500   0.191
  382SOL    HW113177   0.534   0.580   0.195
  382SOL    HW213178   0.378   0.531   0.198
  383SOL     OW13179   1.347   1.059   1.234
  383SOL    HW113180   1.371   0.996   1.160
  383SOL    HW213181   1.257   1.099   1.216
  384SOL     OW13182   1.302   0.855   0.309
  384SOL    HW113183   1.216   0.824   0.351
  384SOL    HW213184   1.298   0.841   0.210
  385SOL     OW13185   1.759   1.747   1.154
  385SOL    HW113186   1.820   1.777   1.081
  385SOL    HW213187   1.721   1.658   1.132
  386SOL     OW13188   1.252   1.731   1.128
  386SOL    HW113189   1.336   1.736   1.074
  386SOL    HW213190   1.229   1.635   1.146
  387SOL     OW13191   0.688   1.662   1.716
  387SOL    HW113192   0.632   1.743   1.725
  387SOL    HW213193   0.740   1.666   1.630
  388SOL     OW13194   0.903   0.086   0.133
  388SOL    HW113195   0.954   0.087   0.047
  388SOL    HW213196   0.959   0.044   0.204
  389SOL     OW13197   1.726   0.135   0.523
  389SOL    HW113198   1.799   0.118   0.456
  389SOL    HW213199   1.695   0.048   0.561
  390SOL     OW13200   1.388   1.573   0.477
  390SOL    HW113201   1.455   1.585   0.403
  390SOL    HW213202   1.348   1.662   0.500
  391SOL     OW13203   0.130   1.794   1.851
  391SOL    HW113204   0.089   1.720   1.904
  391SOL    HW213205   0.194   1.845   1.909
  392SOL     OW13206   1.280   0.927   0.672
  392SOL    HW113207   1.340   0.846   0.674
  392SOL    HW213208   1.320   0.996   0.612
  393SOL     OW13209   0.830   1.273   1.422
  393SOL    HW113210   0.825   1.306   1.517
  393SOL    HW213211   0.744   1.292   1.376
  394SOL     OW13212   0.672   1.616   0.154
  394SOL    HW113213   0.681   1.626   0.055
  394SOL    HW213214   0.632   1.527   0.175
  395SOL     OW13215   1.650   1.720   1.394
  395SOL    HW113216   1.703   1.730   1.310
  395SOL    HW213217   1.623   1.810   1.428
  396SOL     OW13218   1.841   0.175   0.963
  396SOL    HW113219   1.880   0.090   0.927
  396SOL    HW213220   1.743   0.177   0.944
  397SOL     OW13221   0.263   0.326   0.720
  397SOL    HW113222   0.184   0.377   0.686
  397SOL    HW213223   0.254   0.311   0.818
  398SOL     OW13224   1.194   1.612   0.031
  398SOL    HW113225   1.200   1.519   0.068
  398SOL    HW213226   1.135   1.612  -0.049
  399SOL     OW13227   0.822   1.002   1.372
  399SOL    HW113228   0.862   1.001   1.280
  399SOL    HW213229   0.832   1.094   1.412
  400SOL     OW13230   0.916   0.910   0.291
  400SOL    HW113231   0.979   0.948   0.223
  400SOL    HW213232   0.956   0.827   0.330
  401SOL     OW13233   1.504   1.607   0.044
  401SOL    HW113234   1.412   1.644   0.051
  401SOL    HW213235   1.542   1.627  -0.046
  402SOL     OW13236   1.614   1.292   1.289
  402SOL    HW113237   1.674   1.295   1.369
  402SOL    HW213238   1.539   1.356   1.302
  403SOL     OW13239   1.039   1.098   0.696
  403SOL    HW113240   0.969   1.051   0.750
  403SOL    HW213241   1.098   1.030   0.653
  404SOL     OW13242   1.014   0.236   0.971
  404SOL    HW113243   1.006   0.200   0.878
  404SOL    HW213244   1.012   0.160   1.036
  405SOL     OW13245   0.590   1.487   0.491
  405SOL    HW113246   0.632   1.429   0.421
  405SOL    HW213247   0.546   1.566   0.447
  406SOL     OW13248   1.709   0.385   1.381
  406SOL    HW113249   1.782   0.454   1.385
  406SOL    HW213250   1.737   0.310   1.322
  407SOL     OW13251   0.255   1.348   0.290
  407SOL    HW113252   0.159   1.349   0.263
  407SOL    HW213253   0.267   1.401   0.374
  408SOL     OW13254   0.105   1.013   1.726
  408SOL    HW113255   0.028   0.980   1.780
  408SOL    HW213256   0.190   0.983   1.768
  409SOL     OW13257   0.672   0.203   1.489
  409SOL    HW113258   0.762   0.187   1.449
  409SOL    HW213259   0.680   0.208   1.588
  410SOL     OW13260   0.075   0.345   0.033
  410SOL    HW113261  -0.017   0.317   0.004
  410SOL    HW213262   0.106   0.422  -0.023
  411SOL     OW13263   1.440   0.856   1.398
  411SOL    HW113264   1.383   0.908   1.335
  411SOL    HW213265   1.536   0.868   1.374
  412SOL     OW13266   0.072   0.166   0.318
  412SOL    HW113267   0.055   0.249   0.264
  412SOL    HW213268   0.162   0.129   0.296
  413SOL     OW13269   1.183   1.335   0.119
  413SOL    HW113270   1.084   1.324   0.121
  413SOL    HW213271   1.217   1.350   0.212
  414SOL     OW13272   0.613   0.842   1.431
  414SOL    HW113273   0.669   0.923   1.414
  414SOL    HW213274   0.672   0.762   1.434
  415SOL     OW13275   1.493   1.767   0.959
  415SOL    HW113276   1.526   1.831   0.890
  415SOL    HW213277   1.559   1.761   1.034
  416SOL     OW13278   1.674   0.883   1.254
  416SOL    HW113279   1.647   0.794   1.217
  416SOL    HW213280   1.675   0.951   1.181
  417SOL     OW13281   1.225   0.325   0.449
  417SOL    HW113282   1.290   0.251   0.438
  417SOL    HW213283   1.245   0.375   0.533
  418SOL     OW13284   0.594   0.745   0.652
  418SOL    HW113285   0.644   0.830   0.633
  418SOL    HW213286   0.506   0.747   0.604
  419SOL     OW13287   1.777   0.342   1.642
  419SOL    HW113288   1.760   0.373   1.548
  419SOL    HW213289   1.693   0.305   1.680
  420SOL     OW13290   0.859   1.374   0.016
  420SOL    HW113291   0.813   1.389   0.104
  420SOL    HW213292   0.903   1.459  -0.014
  421SOL     OW13293   0.661   1.790   0.953
  421SOL    HW113294   0.615   1.878   0.940
  421SOL    HW213295   0.760   1.802   0.946
  422SOL     OW13296   0.859   0.956   0.861
  422SOL    HW113297   0.913   0.887   0.909
  422SOL    HW213298   0.827   1.025   0.927
  423SOL     OW13299   1.083   0.984   0.087
  423SOL    HW113300   1.060   1.037   0.005
  423SOL    HW213301   1.164   0.928   0.068
  424SOL     OW13302   1.861   1.569   0.851
  424SOL    HW113303   1.790   1.557   0.781
  424SOL    HW213304   1.862   1.490   0.911
  425SOL     OW13305   0.079   1.240   0.653
  425SOL    HW113306   0.078   1.193   0.741
  425SOL    HW213307   0.161   1.212   0.602
  426SOL     OW13308   0.672   1.391   1.624
  426SOL    HW113309   0.594   1.341   1.662
  426SOL    HW213310   0.669   1.486   1.655
  427SOL     OW13311   1.824   0.192   1.227
  427SOL    HW113312   1.820   0.102   1.271
  427SOL    HW213313   1.827   0.181   1.128
  428SOL     OW13314   0.428   0.424   0.520
  428SOL    HW113315   0.458   0.352   0.458
  428SOL    HW213316   0.389   0.384   0.603
  429SOL     OW13317   1.705   1.487   1.104
  429SOL    HW113318   1.612   1.462   1.077
  429SOL    HW213319   1.731   1.437   1.186
  430SOL     OW13320   0.317   0.547   1.280
  430SOL    HW113321   0.355   0.488   1.352
  430SOL    HW213322   0.357   0.521   1.192
  431SOL     OW13323   0.812   1.586   0.687
  431SOL    HW113324   0.844   1.596   0.593
  431SOL    HW213325   0.733   1.524   0.689
  432SOL     OW13326   1.424   0.214   1.112
  432SOL    HW113327   1.476   0.149   1.167
  432SOL    HW213328   1.375   0.277   1.173
  433SOL     OW13329   1.001   0.034   1.154
  433SOL    HW113330   0.938  -0.038   1.123
  433SOL    HW213331   1.094  -0.002   1.154
  434SOL     OW13332   0.770   1.330   0.301
  434SOL    HW113333   0.724   1.243   0.318
  434SOL    HW213334   0.861   1.327   0.342
  435SOL     OW13335   1.352   0.052   0.168
  435SOL    HW113336   1.387   0.011   0.084
  435SOL    HW213337   1.262   0.014   0.188
  436SOL     OW13338   1.300   0.453   0.691
  436SOL    HW113339   1.241   0.533   0.695
  436SOL    HW213340   1.315   0.418   0.784
  437SOL     OW13341   1.593   0.221   0.882
  437SOL    HW113342   1.509   0.220   0.936
  437SOL    HW213343   1.595   0.304   0.826
  438SOL     OW13344   0.039   1.077   0.300
  438SOL    HW113345   0.138   1.066   0.291
  438SOL    HW213346  -0.001   0.991   0.332
  439SOL     OW13347   0.875   1.646   0.337
  439SOL    HW113348   0.798   1.611   0.283
  439SOL    HW213349   0.843   1.717   0.399
  440SOL     OW13350   1.135   0.703   2.579
  440SOL    HW113351   1.192   0.781   2.554
  440SOL    HW213352   1.075   0.729   2.655
  441SOL     OW13353   0.768   1.144   2.885
  441SOL    HW113354   0.690   1.161   2.945
  441SOL    HW213355   0.802   1.231   2.849
  442SOL     OW13356   0.335   1.435   2.923
  442SOL    HW113357   0.257   1.404   2.870
  442SOL    HW213358   0.393   1.493   2.866
  443SOL     OW13359   0.438   0.392   3.361
  443SOL    HW113360   0.520   0.336   3.370
  443SOL    HW213361   0.357   0.334   3.365
  444SOL     OW13362   1.603   0.447   2.599
  444SOL    HW113363   1.529   0.493   2.549
  444SOL    HW213364   1.654   0.515   2.652
  445SOL     OW13365   0.231   1.713   2.345
  445SOL    HW113366   0.265   1.790   2.399
  445SOL    HW213367   0.275   1.713   2.255
  446SOL     OW13368   0.240   1.091   2.748
  446SOL    HW113369   0.254   1.007   2.800
  446SOL    HW213370   0.185   1.155   2.803
  447SOL     OW13371   0.606   0.964   1.985
  447SOL    HW113372   0.613   1.048   1.931
  447SOL    HW213373   0.652   0.977   2.073
  448SOL     OW13374   0.027   1.596   1.979
  448SOL    HW113375   0.008   1.500   2.000
  448SOL    HW213376  -0.006   1.654   2.054
  449SOL     OW13377   0.113   0.737   3.459
  449SOL    HW113378   0.201   0.724   3.504
  449SOL    HW213379   0.100   0.834   3.437
  450SOL     OW13380   1.293   1.228   3.285
  450SOL    HW113381   1.330   1.155   3.227
  450SOL    HW213382   1.345   1.233   3.370
  451SOL     OW13383   1.667   1.714   2.434
  451SOL    HW113384   1.626   1.691   2.346
  451SOL    HW213385   1.649   1.640   2.499
  452SOL     OW13386   0.973   0.890   3.434
  452SOL    HW113387   1.019   0.806   3.405
  452SOL    HW213388   0.917   0.924   3.359
  453SOL     OW13389   0.991   0.410   3.104
  453SOL    HW113390   0.914   0.444   3.158
  453SOL    HW213391   0.957   0.359   3.025
  454SOL     OW13392   0.865   0.348   2.057
  454SOL    HW113393   0.924   0.411   2.008
  454SOL    HW213394   0.884   0.254   2.028
  455SOL     OW13395   0.550   0.196   2.747
  455SOL    HW113396   0.545   0.191   2.847
  455SOL    HW213397   0.552   0.292   2.718
  456SOL     OW13398   1.795   1.066   2.735
  456SOL    HW113399   1.733   1.051   2.659
  456SOL    HW213400   1.743   1.077   2.820
  457SOL     OW13401   1.227   1.550   3.368
  457SOL    HW113402   1.233   1.473   3.432
  457SOL    HW213403   1.175   1.524   3.288
  458SOL     OW13404   0.461   1.266   3.589
  458SOL    HW113405   0.411   1.267   3.503
  458SOL    HW213406   0.398   1.248   3.665
  459SOL     OW13407   1.111   1.776   2.099
  459SOL    HW113408   1.051   1.714   2.149
  459SOL    HW213409   1.142   1.732   2.014
  460SOL     OW13410   0.202   0.285   3.360
  460SOL    HW113411   0.122   0.345   3.347
  460SOL    HW213412   0.192   0.236   3.446
  461SOL     OW13413   1.400   0.107   2.288
  461SOL    HW113414   1.376   0.070   2.198
  461SOL    HW213415   1.499   0.123   2.292
  462SOL     OW13416   1.547   0.222   3.591
  462SOL    HW113417   1.542   0.259   3.683
  462SOL    HW213418   1.475   0.153   3.579
  463SOL     OW13419   0.888   1.514   3.057
  463SOL    HW113420   0.865   1.489   2.963
  463SOL    HW213421   0.949   1.445   3.096
  464SOL     OW13422   0.297   0.035   2.033
  464SOL    HW113423   0.346   0.119   2.012
  464SOL    HW213424   0.359  -0.030   2.078
  465SOL     OW13425   0.459   1.152   2.603
  465SOL    HW113426   0.388   1.125   2.668
  465SOL    HW213427   0.433   1.124   2.510
  466SOL     OW13428   1.032   0.549   1.878
  466SOL    HW113429   0.991   0.631   1.839
  466SOL    HW213430   1.096   0.575   1.951
  467SOL     OW13431   1.017   0.039   2.615
  467SOL    HW113432   0.945   0.044   2.546
  467SOL    HW213433   0.993  -0.030   2.684
  468SOL     OW13434   1.466   0.590   2.854
  468SOL    HW113435   1.436   0.495   2.861
  468SOL    HW213436   1.539   0.606   2.920
  469SOL     OW13437   0.488   1.385   2.036
  469SOL    HW113438   0.401   1.370   2.083
  469SOL    HW213439   0.471   1.411   1.941
  470SOL     OW13440   0.527   0.256   2.190
  470SOL    HW113441   0.554   0.197   2.115
  470SOL    HW213442   0.527   0.351   2.159
  471SOL     OW13443   1.064   1.347   3.202
  471SOL    HW113444   0.984   1.324   3.257
  471SOL    HW213445   1.147   1.321   3.251
  472SOL     OW13446   1.592   1.629   3.487
  472SOL    HW113447   1.619   1.663   3.397
  472SOL    HW213448   1.671   1.591   3.533
  473SOL     OW13449   0.980   1.116   3.581
  473SOL    HW113450   0.881   1.122   3.591
  473SOL    HW213451   1.003   1.036   3.525
  474SOL     OW13452   1.274   0.386   3.124
  474SOL    HW113453   1.295   0.460   3.188
  474SOL    HW213454   1.185   0.403   3.081
  475SOL     OW13455   0.566   0.537   2.727
  475SOL    HW113456   0.578   0.603   2.653
  475SOL    HW213457   0.612   0.571   2.810
  476SOL     OW13458   1.272   1.445   3.004
  476SOL    HW113459   1.319   1.458   3.091
  476SOL    HW213460   1.206   1.371   3.013
  477SOL     OW13461   0.354   1.510   3.191
  477SOL    HW113462   0.333   1.466   3.104
  477SOL    HW213463   0.451   1.536   3.194
  478SOL     OW13464   0.402   0.751   3.460
  478SOL    HW113465   0.470   0.806   3.413
  478SOL    HW213466   0.442   0.663   3.487
  479SOL     OW13467   1.013   0.105   3.632
  479SOL    HW113468   1.019   0.190   3.580
  479SOL    HW213469   1.045   0.029   3.575
  480SOL     OW13470   1.360   0.862   2.907
  480SOL    HW113471   1.285   0.862   2.841
  480SOL    HW213472   1.397   0.770   2.916
  481SOL     OW13473   1.622   0.367   2.236
  481SOL    HW113474   1.624   0.291   2.300
  481SOL    HW213475   1.574   0.444   2.276
  482SOL     OW13476   1.023   0.766   2.828
  482SOL    HW113477   1.038   0.787   2.924
  482SOL    HW213478   0.993   0.671   2.819
  483SOL     OW13479   0.980   1.573   3.562
  483SOL    HW113480   0.960   1.617   3.474
  483SOL    HW213481   1.019   1.482   3.546
  484SOL     OW13482   0.350   0.898   3.666
  484SOL    HW113483   0.426   0.942   3.714
  484SOL    HW213484   0.385   0.851   3.584
  485SOL     OW13485   1.540   0.274   1.987
  485SOL    HW113486   1.479   0.199   2.010
  485SOL    HW213487   1.562   0.326   2.070
  486SOL     OW13488   1.068   1.333   2.711
  486SOL    HW113489   1.075   1.249   2.656
  486SOL    HW213490   1.130   1.402   2.675
  487SOL     OW13491   0.339   0.509   2.868
  487SOL    HW113492   0.287   0.426   2.851
  487SOL    HW213493   0.416   0.514   2.804
  488SOL     OW13494   0.040   0.544   2.976
  488SOL    HW113495   0.125   0.511   2.935
  488SOL    HW213496   0.053   0.559   3.074
  489SOL     OW13497   0.815   0.572   2.187
  489SOL    HW113498   0.822   0.483   2.141
  489SOL    HW213499   0.721   0.606   2.179
  490SOL     OW13500   1.657   0.604   3.068
  490SOL    HW113501   1.619   0.535   3.130
  490SOL    HW213502   1.739   0.568   3.024
  491SOL     OW13503   0.252   1.564   3.606
  491SOL    HW113504   0.222   1.621   3.682
  491SOL    HW213505   0.245   1.467   3.632
  492SOL     OW13506   0.930   1.678   3.327
  492SOL    HW113507   0.906   1.660   3.232
  492SOL    HW213508   0.960   1.772   3.337
  493SOL     OW13509   0.473   0.500   2.053
  493SOL    HW113510   0.534   0.580   2.057
  493SOL    HW213511   0.378   0.531   2.060
  494SOL     OW13512   0.159   1.137   3.328
  494SOL    HW113513   0.181   1.076   3.404
  494SOL    HW213514   0.169   1.088   3.242
  495SOL     OW13515   1.759   1.747   3.016
  495SOL    HW113516   1.820   1.777   2.943
  495SOL    HW213517   1.721   1.658   2.994
  496SOL     OW13518   1.252   1.731   2.990
  496SOL    HW113519   1.336   1.736   2.936
  496SOL    HW213520   1.229   1.635   3.008
  497SOL     OW13521   0.688   1.662   3.578
  497SOL    HW113522   0.632   1.743   3.587
  497SOL    HW213523   0.740   1.666   3.492
  498SOL     OW13524   1.388   1.573   2.339
  498SOL    HW113525   1.455   1.585   2.265
  498SOL    HW213526   1.348   1.662   2.362
  499SOL     OW13527   0.130   1.794   3.713
  499SOL    HW113528   0.089   1.720   3.766
  499SOL    HW213529   0.194   1.845   3.771
  500SOL     OW13530   0.830   1.273   3.284
  500SOL    HW113531   0.825   1.306   3.379
  500SOL    HW213532   0.744   1.292   3.238
  501SOL     OW13533   0.822   1.002   3.234
  501SOL    HW113534   0.862   1.001   3.142
  501SOL    HW213535   0.832   1.094   3.274
  502SOL     OW13536   0.916   0.910   2.153
  502SOL    HW113537   0.979   0.948   2.085
  502SOL    HW213538   0.956   0.827   2.192
  503SOL     OW13539   1.504   1.607   1.906
  503SOL    HW113540   1.412   1.644   1.913
  503SOL    HW213541   1.542   1.627   1.816
  504SOL     OW13542   0.372   1.288   3.352
  504SOL    HW113543   0.359   1.381   3.318
  504SOL    HW213544   0.288   1.236   3.339
  505SOL     OW13545   0.590   1.487   2.353
  505SOL    HW113546   0.632   1.429   2.283
  505SOL    HW213547   0.546   1.566   2.309
  506SOL     OW13548   1.709   0.385   3.243
  506SOL    HW113549   1.782   0.454   3.247
  506SOL    HW213550   1.737   0.310   3.184
  507SOL     OW13551   0.075   0.345   1.895
  507SOL    HW113552  -0.017   0.317   1.866
  507SOL    HW213553   0.106   0.422   1.839
  508SOL     OW13554   1.440   0.856   3.260
  508SOL    HW113555   1.383   0.908   3.197
  508SOL    HW213556   1.536   0.868   3.236
  509SOL     OW13557   1.493   1.767   2.821
  509SOL    HW113558   1.526   1.831   2.752
  509SOL    HW213559   1.559   1.761   2.896
  510SOL     OW13560   1.450   1.220   3.495
  510SOL    HW113561   1.441   1.210   3.594
  510SOL    HW213562   1.546   1.213   3.469
  511SOL     OW13563   0.390   1.741   3.422
  511SOL    HW113564   0.299   1.782   3.420
  511SOL    HW213565   0.383   1.647   3.454
  512SOL     OW13566   0.594   0.745   2.514
  512SOL    HW113567   0.644   0.830   2.495
  512SOL    HW213568   0.506   0.747   2.466
  513SOL     OW13569   0.672   1.391   3.486
  513SOL    HW113570   0.594   1.341   3.524
  513SOL    HW213571   0.669   1.486   3.517
  514SOL     OW13572   1.424   0.214   2.974
  514SOL    HW113573   1.476   0.149   3.029
  514SOL    HW213574   1.375   0.277   3.035
  515SOL     OW13575   0.618   1.567   3.146
  515SOL    HW113576   0.613   1.649   3.203
  515SOL    HW213577   0.707   1.564   3.101
  516SOL     OW13578   1.593   0.221   2.744
  516SOL    HW113579   1.509   0.220   2.798
  516SOL    HW213580   1.595   0.304   2.688
  517SOL     OW13581   0.875   1.646   2.199
  517SOL    HW113582   0.798   1.611   2.145
  517SOL    HW213583   0.843   1.717   2.261
  518SOL     OW13584   0.225   0.275   4.720
  518SOL    HW113585   0.260   0.258   4.812
  518SOL    HW213586   0.137   0.230   4.708
  519SOL     OW13587   0.569   1.275   4.889
  519SOL    HW113588   0.476   1.268   4.852
  519SOL    HW213589   0.580   1.364   4.933
  520SOL     OW13590   1.135   0.703   4.441
  520SOL    HW113591   1.192   0.781   4.416
  520SOL    HW213592   1.075   0.729   4.517
  521SOL     OW13593   1.755   0.607   3.955
  521SOL    HW113594   1.743   0.594   3.856
  521SOL    HW213595   1.725   0.526   4.004
  522SOL     OW13596   0.768   1.144   4.747
  522SOL    HW113597   0.690   1.161   4.807
  522SOL    HW213598   0.802   1.231   4.711
  523SOL     OW13599   0.686   1.161   5.527
  523SOL    HW113600   0.746   1.240   5.541
  523SOL    HW213601   0.600   1.192   5.486
  524SOL     OW13602   1.460   1.505   5.063
  524SOL    HW113603   1.484   1.599   5.089
  524SOL    HW213604   1.444   1.451   5.145
  525SOL     OW13605   1.603   0.447   4.461
  525SOL    HW113606   1.529   0.493   4.411
  525SOL    HW213607   1.654   0.515   4.514
  526SOL     OW13608   1.594   0.114   5.204
  526SOL    HW113609   1.576   0.181   5.132
  526SOL    HW213610   1.591   0.160   5.293
  527SOL     OW13611   1.842   1.767   4.083
  527SOL    HW113612   1.896   1.738   4.163
  527SOL    HW213613   1.872   1.857   4.054
  528SOL     OW13614   1.641   1.108   4.156
  528SOL    HW113615   1.727   1.110   4.104
  528SOL    HW213616   1.655   1.155   4.244
  529SOL     OW13617   1.525   0.999   3.914
  529SOL    HW113618   1.462   0.923   3.927
  529SOL    HW213619   1.573   1.017   4.000
  530SOL     OW13620   1.576   1.662   4.031
  530SOL    HW113621   1.665   1.708   4.034
  530SOL    HW213622   1.555   1.638   3.936
  531SOL     OW13623   1.041   0.701   4.153
  531SOL    HW113624   1.067   0.697   4.249
  531SOL    HW213625   0.956   0.650   4.139
  532SOL     OW13626   0.076   0.811   4.513
  532SOL    HW113627   0.175   0.799   4.522
  532SOL    HW213628   0.052   0.906   4.534
  533SOL     OW13629   0.865   0.348   3.919
  533SOL    HW113630   0.924   0.411   3.870
  533SOL    HW213631   0.884   0.254   3.890
  534SOL     OW13632   1.795   1.066   4.597
  534SOL    HW113633   1.733   1.051   4.521
  534SOL    HW213634   1.743   1.077   4.682
  535SOL     OW13635   1.547   0.222   5.453
  535SOL    HW113636   1.542   0.259   5.545
  535SOL    HW213637   1.475   0.153   5.441
  536SOL     OW13638   0.781   0.264   5.473
  536SOL    HW113639   0.848   0.203   5.516
  536SOL    HW213640   0.708   0.283   5.538
  537SOL     OW13641   0.888   1.514   4.919
  537SOL    HW113642   0.865   1.489   4.825
  537SOL    HW213643   0.949   1.445   4.958
  538SOL     OW13644   1.351   0.590   5.157
  538SOL    HW113645   1.379   0.547   5.242
  538SOL    HW213646   1.376   0.686   5.158
  539SOL     OW13647   0.922   0.503   4.623
  539SOL    HW113648   0.897   0.494   4.527
  539SOL    HW213649   0.970   0.421   4.654
  540SOL     OW13650   0.297   0.035   3.895
  540SOL    HW113651   0.346   0.119   3.874
  540SOL    HW213652   0.359  -0.030   3.940
  541SOL     OW13653   1.271   1.797   4.315
  541SOL    HW113654   1.315   1.861   4.251
  541SOL    HW213655   1.221   1.849   4.385
  542SOL     OW13656   0.561   0.222   4.871
  542SOL    HW113657   0.599   0.138   4.908
  542SOL    HW213658   0.473   0.241   4.915
  543SOL     OW13659   0.866   0.454   4.366
  543SOL    HW113660   0.834   0.526   4.304
  543SOL    HW213661   0.890   0.373   4.313
  544SOL     OW13662   1.466   0.590   4.716
  544SOL    HW113663   1.436   0.495   4.723
  544SOL    HW213664   1.539   0.606   4.782
  545SOL     OW13665   1.857   0.833   4.101
  545SOL    HW113666   1.899   0.769   4.165
  545SOL    HW213667   1.819   0.782   4.023
  546SOL     OW13668   0.488   1.385   3.898
  546SOL    HW113669   0.401   1.370   3.945
  546SOL    HW213670   0.471   1.411   3.803
  547SOL     OW13671   1.664   1.280   4.381
  547SOL    HW113672   1.763   1.288   4.395
  547SOL    HW213673   1.619   1.364   4.412
  548SOL     OW13674   0.527   0.256   4.052
  548SOL    HW113675   0.554   0.197   3.977
  548SOL    HW213676   0.527   0.351   4.021
  549SOL     OW13677   1.754   1.223   5.312
  549SOL    HW113678   1.845   1.184   5.299
  549SOL    HW213679   1.762   1.319   5.336
  550SOL     OW13680   1.274   0.386   4.986
  550SOL    HW113681   1.295   0.460   5.050
  550SOL    HW213682   1.185   0.403   4.943
  551SOL     OW13683   0.367   1.100   4.225
  551SOL    HW113684   0.360   1.183   4.169
  551SOL    HW213685   0.371   1.020   4.165
  552SOL     OW13686   1.013   0.105   5.494
  552SOL    HW113687   1.019   0.190   5.442
  552SOL    HW213688   1.045   0.029   5.437
  553SOL     OW13689   0.504   0.050   5.464
  553SOL    HW113690   0.462  -0.007   5.394
  553SOL    HW213691   0.438   0.119   5.496
  554SOL     OW13692   1.360   0.862   4.769
  554SOL    HW113693   1.285   0.862   4.703
  554SOL    HW213694   1.397   0.770   4.778
  555SOL     OW13695   0.307   0.213   4.955
  555SOL    HW113696   0.284   0.250   5.045
  555SOL    HW213697   0.277   0.118   4.949
  556SOL     OW13698   1.728   0.935   5.578
  556SOL    HW113699   1.682   0.928   5.489
  556SOL    HW213700   1.666   0.979   5.644
  557SOL     OW13701   1.303   0.838   3.766
  557SOL    HW113702   1.337   0.745   3.781
  557SOL    HW213703   1.321   0.865   3.671
  558SOL     OW13704   1.138   0.380   5.402
  558SOL    HW113705   1.093   0.443   5.466
  558SOL    HW213706   1.231   0.411   5.385
  559SOL     OW13707   1.160   0.207   5.201
  559SOL    HW113708   1.160   0.271   5.278
  559SOL    HW213709   1.188   0.255   5.118
  560SOL     OW13710   0.088   1.801   4.651
  560SOL    HW113711   0.046   1.715   4.624
  560SOL    HW213712   0.182   1.804   4.617
  561SOL     OW13713   0.815   0.572   4.049
  561SOL    HW113714   0.822   0.483   4.003
  561SOL    HW213715   0.721   0.606   4.041
  562SOL     OW13716   1.302   0.855   4.033
  562SOL    HW113717   1.216   0.824   4.075
  562SOL    HW213718   1.298   0.841   3.934
  563SOL     OW13719   0.688   1.662   5.440
  563SOL    HW113720   0.632   1.743   5.449
  563SOL    HW213721   0.740   1.666   5.354
  564SOL     OW13722   0.830   1.273   5.146
  564SOL    HW113723   0.825   1.306   5.241
  564SOL    HW213724   0.744   1.292   5.100
  565SOL     OW13725   0.672   1.616   3.878
  565SOL    HW113726   0.681   1.626   3.779
  565SOL    HW213727   0.632   1.527   3.899
  566SOL     OW13728   1.650   1.720   5.118
  566SOL    HW113729   1.703   1.730   5.034
  566SOL    HW213730   1.623   1.810   5.152
  567SOL     OW13731   0.263   0.326   4.444
  567SOL    HW113732   0.184   0.377   4.410
  567SOL    HW213733   0.254   0.311   4.542
  568SOL     OW13734   1.194   1.612   3.755
  568SOL    HW113735   1.200   1.519   3.792
  568SOL    HW213736   1.135   1.612   3.675
  569SOL     OW13737   0.822   1.002   5.096
  569SOL    HW113738   0.862   1.001   5.004
  569SOL    HW213739   0.832   1.094   5.136
  570SOL     OW13740   0.916   0.910   4.015
  570SOL    HW113741   0.979   0.948   3.947
  570SOL    HW213742   0.956   0.827   4.054
  571SOL     OW13743   1.504   1.607   3.768
  571SOL    HW113744   1.412   1.644   3.775
  571SOL    HW213745   1.542   1.627   3.678
  572SOL     OW13746   0.372   1.288   5.214
  572SOL    HW113747   0.359   1.381   5.180
  572SOL    HW213748   0.288   1.236   5.201
  573SOL     OW13749   0.590   1.487   4.215
  573SOL    HW113750   0.632   1.429   4.145
  573SOL    HW213751   0.546   1.566   4.171
  574SOL     OW13752   1.440   0.856   5.122
  574SOL    HW113753   1.383   0.908   5.059
  574SOL    HW213754   1.536   0.868   5.098
  575SOL     OW13755   1.493   1.767   4.683
  575SOL    HW113756   1.526   1.831   4.614
  575SOL    HW213757   1.559   1.761   4.758
  576SOL     OW13758   0.716   0.565   5.432
  576SOL    HW113759   0.735   0.630   5.506
  576SOL    HW213760   0.776   0.485   5.441
  577SOL     OW13761   1.674   0.883   4.978
  577SOL    HW113762   1.647   0.794   4.941
  577SOL    HW213763   1.675   0.951   4.905
  578SOL     OW13764   1.730   0.934   5.241
  578SOL    HW113765   1.768   1.025   5.256
  578SOL    HW213766   1.722   0.917   5.142
  579SOL     OW13767   0.859   0.956   4.585
  579SOL    HW113768   0.913   0.887   4.633
  579SOL    HW213769   0.827   1.025   4.651
  580SOL     OW13770   1.083   0.984   3.811
  580SOL    HW113771   1.060   1.037   3.729
  580SOL    HW213772   1.164   0.928   3.792
  581SOL     OW13773   0.672   1.391   5.348
  581SOL    HW113774   0.594   1.341   5.386
  581SOL    HW213775   0.669   1.486   5.379
  582SOL     OW13776   1.424   0.214   4.836
  582SOL    HW113777   1.476   0.149   4.891
  582SOL    HW213778   1.375   0.277   4.897
  583SOL     OW13779   0.770   1.330   4.025
  583SOL    HW113780   0.724   1.243   4.042
  583SOL    HW213781   0.861   1.327   4.066
  584SOL     OW13782   0.039   1.077   4.024
  584SOL    HW113783   0.138   1.066   4.015
  584SOL    HW213784  -0.001   0.991   4.056
  585SOL     OW13785   0.230   0.628   5.699
  585SOL    HW113786   0.137   0.626   5.736
  585SOL    HW213787   0.231   0.589   5.607
  586SOL     OW13788   0.225   0.275   6.582
  586SOL    HW113789   0.260   0.258   6.674
  586SOL    HW213790   0.137   0.230   6.570
  587SOL     OW13791   0.019   0.368   6.233
  587SOL    HW113792  -0.063   0.411   6.272
  587SOL    HW213793  -0.009   0.295   6.170
  588SOL     OW13794   0.569   1.275   6.751
  588SOL    HW113795   0.476   1.268   6.714
  588SOL    HW213796   0.580   1.364   6.795
  589SOL     OW13797   1.555   1.511   6.289
  589SOL    HW113798   1.498   1.495   6.370
  589SOL    HW213799   1.496   1.521   6.209
  590SOL     OW13800   1.135   0.703   6.303
  590SOL    HW113801   1.192   0.781   6.278
  590SOL    HW213802   1.075   0.729   6.379
  591SOL     OW13803   1.755   0.607   5.817
  591SOL    HW113804   1.743   0.594   5.718
  591SOL    HW213805   1.725   0.526   5.866
  592SOL     OW13806   0.768   1.144   6.609
  592SOL    HW113807   0.690   1.161   6.669
  592SOL    HW213808   0.802   1.231   6.573
  593SOL     OW13809   0.850   0.798   7.409
  593SOL    HW113810   0.846   0.874   7.474
  593SOL    HW213811   0.872   0.834   7.318
  594SOL     OW13812   0.685   1.012   6.251
  594SOL    HW113813   0.754   0.996   6.321
  594SOL    HW213814   0.612   1.069   6.289
  595SOL     OW13815   0.686   1.161   7.389
  595SOL    HW113816   0.746   1.240   7.403
  595SOL    HW213817   0.600   1.192   7.348
  596SOL     OW13818   0.335   1.435   6.647
  596SOL    HW113819   0.257   1.404   6.594
  596SOL    HW213820   0.393   1.493   6.590
  597SOL     OW13821   1.460   1.505   6.925
  597SOL    HW113822   1.484   1.599   6.951
  597SOL    HW213823   1.444   1.451   7.007
  598SOL     OW13824   0.438   0.392   7.085
  598SOL    HW113825   0.520   0.336   7.094
  598SOL    HW213826   0.357   0.334   7.089
  599SOL     OW13827   1.603   0.447   6.323
  599SOL    HW113828   1.529   0.493   6.273
  599SOL    HW213829   1.654   0.515   6.376
  600SOL     OW13830   0.231   1.713   6.069
  600SOL    HW113831   0.265   1.790   6.123
  600SOL    HW213832   0.275   1.713   5.979
  601SOL     OW13833   1.127   1.341   7.276
  601SOL    HW113834   1.174   1.341   7.364
  601SOL    HW213835   1.079   1.254   7.265
  602SOL     OW13836   0.230   1.434   6.124
  602SOL    HW113837   0.204   1.530   6.124
  602SOL    HW213838   0.159   1.380   6.169
  603SOL     OW13839   0.240   1.091   6.472
  603SOL    HW113840   0.254   1.007   6.524
  603SOL    HW213841   0.185   1.155   6.527
  604SOL     OW13842   0.620   1.786   7.025
  604SOL    HW113843   0.528   1.769   7.060
  604SOL    HW213844   0.648   1.878   7.051
  605SOL     OW13845   0.606   0.964   5.709
  605SOL    HW113846   0.613   1.048   5.655
  605SOL    HW213847   0.652   0.977   5.797
  606SOL     OW13848   1.594   0.114   7.066
  606SOL    HW113849   1.576   0.181   6.994
  606SOL    HW213850   1.591   0.160   7.155
  607SOL     OW13851   0.122   0.643   6.149
  607SOL    HW113852   0.077   0.555   6.166
  607SOL    HW213853   0.121   0.697   6.233
  608SOL     OW13854   1.842   1.767   5.945
  608SOL    HW113855   1.896   1.738   6.025
  608SOL    HW213856   1.872   1.857   5.916
  609SOL     OW13857   0.027   1.596   5.703
  609SOL    HW113858   0.008   1.500   5.724
  609SOL    HW213859  -0.006   1.654   5.778
  610SOL     OW13860   1.689   0.922   6.198
  610SOL    HW113861   1.784   0.893   6.206
  610SOL    HW213862   1.681   0.987   6.123
  611SOL     OW13863   1.641   1.108   6.018
  611SOL    HW113864   1.727   1.110   5.966
  611SOL    HW213865   1.655   1.155   6.106
  612SOL     OW13866   0.113   0.737   7.183
  612SOL    HW113867   0.201   0.724   7.228
  612SOL    HW213868   0.100   0.834   7.161
  613SOL     OW13869   0.613   1.365   6.312
  613SOL    HW113870   0.564   1.278   6.321
  613SOL    HW213871   0.590   1.408   6.225
  614SOL     OW13872   1.293   1.228   7.009
  614SOL    HW113873   1.330   1.155   6.951
  614SOL    HW213874   1.345   1.233   7.094
  615SOL     OW13875   0.809   0.004   6.088
  615SOL    HW113876   0.849   0.095   6.079
  615SOL    HW213877   0.709   0.012   6.094
  616SOL     OW13878   0.197   0.976   6.850
  616SOL    HW113879   0.286   0.931   6.836
  616SOL    HW213880   0.124   0.911   6.831
  617SOL     OW13881   1.525   0.999   5.776
  617SOL    HW113882   1.462   0.923   5.789
  617SOL    HW213883   1.573   1.017   5.862
  618SOL     OW13884   1.187   1.792   7.202
  618SOL    HW113885   1.211   1.852   7.126
  618SOL    HW213886   1.194   1.697   7.172
  619SOL     OW13887   0.317   0.251   7.387
  619SOL    HW113888   0.388   0.322   7.393
  619SOL    HW213889   0.229   0.290   7.415
  620SOL     OW13890   1.466   1.417   6.539
  620SOL    HW113891   1.407   1.423   6.619
  620SOL    HW213892   1.451   1.329   6.493
  621SOL     OW13893   1.667   1.714   6.158
  621SOL    HW113894   1.626   1.691   6.070
  621SOL    HW213895   1.649   1.640   6.223
  622SOL     OW13896   0.598   0.729   5.856
  622SOL    HW113897   0.622   0.798   5.788
  622SOL    HW213898   0.520   0.762   5.910
  623SOL     OW13899   1.281   0.345   6.530
  623SOL    HW113900   1.195   0.295   6.517
  623SOL    HW213901   1.343   0.291   6.586
  624SOL     OW13902   1.576   1.662   5.893
  624SOL    HW113903   1.665   1.708   5.896
  624SOL    HW213904   1.555   1.638   5.798
  625SOL     OW13905   0.807   0.605   7.051
  625SOL    HW113906   0.760   0.602   7.140
  625SOL    HW213907   0.756   0.550   6.985
  626SOL     OW13908   0.973   0.890   7.158
  626SOL    HW113909   1.019   0.806   7.129
  626SOL    HW213910   0.917   0.924   7.083
  627SOL     OW13911   0.991   0.410   6.828
  627SOL    HW113912   0.914   0.444   6.882
  627SOL    HW213913   0.957   0.359   6.749
  628SOL     OW13914   1.041   0.701   6.015
  628SOL    HW113915   1.067   0.697   6.111
  628SOL    HW213916   0.956   0.650   6.001
  629SOL     OW13917   0.076   0.811   6.375
  629SOL    HW113918   0.175   0.799   6.384
  629SOL    HW213919   0.052   0.906   6.396
  630SOL     OW13920   0.130   1.821   7.157
  630SOL    HW113921   0.120   1.806   7.256
  630SOL    HW213922   0.044   1.857   7.121
  631SOL     OW13923   0.865   0.348   5.781
  631SOL    HW113924   0.924   0.411   5.732
  631SOL    HW213925   0.884   0.254   5.752
  632SOL     OW13926   1.362   1.144   6.131
  632SOL    HW113927   1.445   1.115   6.083
  632SOL    HW213928   1.313   1.211   6.075
  633SOL     OW13929   0.550   0.196   6.471
  633SOL    HW113930   0.545   0.191   6.571
  633SOL    HW213931   0.552   0.292   6.442
  634SOL     OW13932   1.008   1.456   6.063
  634SOL    HW113933   0.962   1.528   6.011
  634SOL    HW213934   1.004   1.476   6.161
  635SOL     OW13935   0.351   1.801   6.439
  635SOL    HW113936   0.401   1.715   6.445
  635SOL    HW213937   0.416   1.878   6.436
  636SOL     OW13938   1.795   1.066   6.459
  636SOL    HW113939   1.733   1.051   6.383
  636SOL    HW213940   1.743   1.077   6.544
  637SOL     OW13941   1.227   1.550   7.092
  637SOL    HW113942   1.233   1.473   7.156
  637SOL    HW213943   1.175   1.524   7.012
  638SOL     OW13944   0.321   0.943   5.828
  638SOL    HW113945   0.403   0.982   5.786
  638SOL    HW213946   0.294   0.861   5.779
  639SOL     OW13947   1.458   0.735   6.314
  639SOL    HW113948   1.453   0.670   6.389
  639SOL    HW213949   1.538   0.794   6.327
  640SOL     OW13950   0.461   1.266   7.313
  640SOL    HW113951   0.411   1.267   7.227
  640SOL    HW213952   0.398   1.248   7.389
  641SOL     OW13953   0.202   0.285   7.084
  641SOL    HW113954   0.122   0.345   7.071
  641SOL    HW213955   0.192   0.236   7.170
  642SOL     OW13956   1.632   1.377   5.667
  642SOL    HW113957   1.600   1.471   5.657
  642SOL    HW213958   1.556   1.314   5.655
  643SOL     OW13959   0.464   1.743   5.909
  643SOL    HW113960   0.497   1.782   5.995
  643SOL    HW213961   0.540   1.736   5.844
  644SOL     OW13962   1.400   0.107   6.012
  644SOL    HW113963   1.376   0.070   5.922
  644SOL    HW213964   1.499   0.123   6.016
  645SOL     OW13965   0.249   1.785   6.827
  645SOL    HW113966   0.306   1.720   6.877
  645SOL    HW213967   0.233   1.752   6.734
  646SOL     OW13968   0.940   1.698   6.490
  646SOL    HW113969   1.020   1.641   6.511
  646SOL    HW213970   0.891   1.658   6.413
  647SOL     OW13971   0.382   0.700   6.066
  647SOL    HW113972   0.427   0.610   6.063
  647SOL    HW213973   0.288   0.689   6.099
  648SOL     OW13974   0.614   0.122   5.703
  648SOL    HW113975   0.712   0.100   5.710
  648SOL    HW213976   0.583   0.105   5.610
  649SOL     OW13977   0.781   0.264   7.335
  649SOL    HW113978   0.848   0.203   7.378
  649SOL    HW213979   0.708   0.283   7.400
  650SOL     OW13980   0.888   1.514   6.781
  650SOL    HW113981   0.865   1.489   6.687
  650SOL    HW213982   0.949   1.445   6.820
  651SOL     OW13983   1.351   0.590   7.019
  651SOL    HW113984   1.379   0.547   7.104
  651SOL    HW213985   1.376   0.686   7.020
  652SOL     OW13986   0.803   1.402   6.510
  652SOL    HW113987   0.893   1.416   6.468
  652SOL    HW213988   0.732   1.404   6.439
  653SOL     OW13989   0.922   0.503   6.485
  653SOL    HW113990   0.897   0.494   6.389
  653SOL    HW213991   0.970   0.421   6.516
  654SOL     OW13992   0.539   0.064   6.098
  654SOL    HW113993   0.458   0.065   6.156
  654SOL    HW213994   0.542   0.147   6.043
  655SOL     OW13995   1.434   1.188   5.627
  655SOL    HW113996   1.466   1.112   5.684
  655SOL    HW213997   1.342   1.215   5.657
  656SOL     OW13998   0.297   0.035   5.757
  656SOL    HW113999   0.346   0.119   5.736
  656SOL    HW214000   0.359  -0.030   5.802
  657SOL     OW14001   0.935   0.236   6.066
  657SOL    HW114002   0.887   0.277   5.988
  657SOL    HW214003   1.034   0.234   6.047
  658SOL     OW14004   1.076   0.683   7.050
  658SOL    HW114005   0.996   0.622   7.053
  658SOL    HW214006   1.157   0.630   7.026
  659SOL     OW14007   1.227   1.570   6.379
  659SOL    HW114008   1.248   1.644   6.314
  659SOL    HW214009   1.295   1.570   6.452
  660SOL     OW14010   0.459   1.152   6.327
  660SOL    HW114011   0.388   1.125   6.392
  660SOL    HW214012   0.433   1.124   6.234
  661SOL     OW14013   1.271   1.797   6.177
  661SOL    HW114014   1.315   1.861   6.113
  661SOL    HW214015   1.221   1.849   6.247
  662SOL     OW14016   1.032   0.549   5.602
  662SOL    HW114017   0.991   0.631   5.563
  662SOL    HW214018   1.096   0.575   5.675
  663SOL     OW14019   0.078   0.556   6.972
  663SOL    HW114020   0.170   0.555   6.931
  663SOL    HW214021   0.072   0.630   7.039
  664SOL     OW14022   0.561   0.222   6.733
  664SOL    HW114023   0.599   0.138   6.770
  664SOL    HW214024   0.473   0.241   6.777
  665SOL     OW14025   0.866   0.454   6.228
  665SOL    HW114026   0.834   0.526   6.166
  665SOL    HW214027   0.890   0.373   6.175
  666SOL     OW14028   1.017   0.039   6.339
  666SOL    HW114029   0.945   0.044   6.270
  666SOL    HW214030   0.993  -0.030   6.408
  667SOL     OW14031   1.429   1.173   6.453
  667SOL    HW114032   1.374   1.089   6.446
  667SOL    HW214033   1.455   1.202   6.361
  668SOL     OW14034   1.466   0.590   6.578
  668SOL    HW114035   1.436   0.495   6.585
  668SOL    HW214036   1.539   0.606   6.644
  669SOL     OW14037   1.857   0.833   5.963
  669SOL    HW114038   1.899   0.769   6.027
  669SOL    HW214039   1.819   0.782   5.885
  670SOL     OW14040   1.664   1.280   6.243
  670SOL    HW114041   1.763   1.288   6.257
  670SOL    HW214042   1.619   1.364   6.274
  671SOL     OW14043   0.527   0.256   5.914
  671SOL    HW114044   0.554   0.197   5.839
  671SOL    HW214045   0.527   0.351   5.883
  672SOL     OW14046   1.754   1.223   7.174
  672SOL    HW114047   1.845   1.184   7.161
  672SOL    HW214048   1.762   1.319   7.198
  673SOL     OW14049   1.064   1.347   6.926
  673SOL    HW114050   0.984   1.324   6.981
  673SOL    HW214051   1.147   1.321   6.975
  674SOL     OW14052   1.592   1.629   7.211
  674SOL    HW114053   1.619   1.663   7.121
  674SOL    HW214054   1.671   1.591   7.257
  675SOL     OW14055   1.111   1.195   6.686
  675SOL    HW114056   1.071   1.239   6.767
  675SOL    HW214057   1.070   1.232   6.603
  676SOL     OW14058   1.638   1.099   6.665
  676SOL    HW114059   1.643   1.180   6.724
  676SOL    HW214060   1.552   1.101   6.614
  677SOL     OW14061   0.915   0.089   6.988
  677SOL    HW114062   0.940   0.069   6.893
  677SOL    HW214063   0.987   0.145   7.030
  678SOL     OW14064   0.980   1.116   7.305
  678SOL    HW114065   0.881   1.122   7.315
  678SOL    HW214066   1.003   1.036   7.249
  679SOL     OW14067   0.705   1.050   5.954
  679SOL    HW114068   0.691   1.057   6.053
  679SOL    HW214069   0.789   0.999   5.936
  680SOL     OW14070   0.410   0.813   6.837
  680SOL    HW114071   0.496   0.825   6.887
  680SOL    HW214072   0.368   0.726   6.864
  681SOL     OW14073   1.274   0.386   6.848
  681SOL    HW114074   1.295   0.460   6.912
  681SOL    HW214075   1.185   0.403   6.805
  682SOL     OW14076   0.064   1.564   6.917
  682SOL    HW114077   0.018   1.646   6.883
  682SOL    HW214078   0.162   1.583   6.926
  683SOL     OW14079   0.367   1.100   6.087
  683SOL    HW114080   0.360   1.183   6.031
  683SOL    HW214081   0.371   1.020   6.027
  684SOL     OW14082   0.566   0.537   6.451
  684SOL    HW114083   0.578   0.603   6.377
  684SOL    HW214084   0.612   0.571   6.534
  685SOL     OW14085   1.252   1.348   5.974
  685SOL    HW114086   1.302   1.425   6.014
  685SOL    HW214087   1.157   1.350   6.006
  686SOL     OW14088   1.272   1.445   6.728
  686SOL    HW114089   1.319   1.458   6.815
  686SOL    HW214090   1.206   1.371   6.737
  687SOL     OW14091   1.582   0.639   6.058
  687SOL    HW114092   1.551   0.700   6.131
  687SOL    HW214093   1.632   0.691   5.989
  688SOL     OW14094   0.354   1.510   6.915
  688SOL    HW114095   0.333   1.466   6.828
  688SOL    HW214096   0.451   1.536   6.918
  689SOL     OW14097   0.402   0.751   7.184
  689SOL    HW114098   0.470   0.806   7.137
  689SOL    HW214099   0.442   0.663   7.211
  690SOL     OW14100   1.587   0.779   7.256
  690SOL    HW114101   1.495   0.817   7.251
  690SOL    HW214102   1.647   0.826   7.191
  691SOL     OW14103   0.573   0.870   6.615
  691SOL    HW114104   0.617   0.959   6.606
  691SOL    HW214105   0.510   0.870   6.692
  692SOL     OW14106   1.360   0.862   6.631
  692SOL    HW114107   1.285   0.862   6.565
  692SOL    HW214108   1.397   0.770   6.640
  693SOL     OW14109   1.209   0.525   5.861
  693SOL    HW114110   1.222   0.441   5.915
  693SOL    HW214111   1.180   0.599   5.921
  694SOL     OW14112   0.307   0.213   6.817
  694SOL    HW114113   0.284   0.250   6.907
  694SOL    HW214114   0.277   0.118   6.811
  695SOL     OW14115   0.037   1.310   6.868
  695SOL    HW114116   0.090   1.261   6.936
  695SOL    HW214117   0.059   1.408   6.873
  696SOL     OW14118   0.732   0.634   6.650
  696SOL    HW114119   0.791   0.608   6.574
  696SOL    HW214120   0.704   0.730   6.639
  697SOL     OW14121   1.728   0.935   7.440
  697SOL    HW114122   1.682   0.928   7.351
  697SOL    HW214123   1.666   0.979   7.506
  698SOL     OW14124   0.307   0.063   6.204
  698SOL    HW114125   0.296   0.157   6.237
  698SOL    HW214126   0.302   0.000   6.281
  699SOL     OW14127   1.622   0.367   5.960
  699SOL    HW114128   1.624   0.291   6.024
  699SOL    HW214129   1.574   0.444   6.000
  700SOL     OW14130   1.023   0.766   6.552
  700SOL    HW114131   1.038   0.787   6.648
  700SOL    HW214132   0.993   0.671   6.543
  701SOL     OW14133   0.980   1.573   7.286
  701SOL    HW114134   0.960   1.617   7.198
  701SOL    HW214135   1.019   1.482   7.270
  702SOL     OW14136   1.859   1.518   7.191
  702SOL    HW114137   1.873   1.545   7.096
  702SOL    HW214138   1.942   1.540   7.244
  703SOL     OW14139   0.350   0.898   7.390
  703SOL    HW114140   0.426   0.942   7.438
  703SOL    HW214141   0.385   0.851   7.308
  704SOL     OW14142   1.540   0.274   5.711
  704SOL    HW114143   1.479   0.199   5.734
  704SOL    HW214144   1.562   0.326   5.794
  705SOL     OW14145   1.068   1.333   6.435
  705SOL    HW114146   1.075   1.249   6.380
  705SOL    HW214147   1.130   1.402   6.399
  706SOL     OW14148   0.319   0.810   6.535
  706SOL    HW114149   0.412   0.846   6.540
  706SOL    HW214150   0.313   0.725   6.587
  707SOL     OW14151   0.339   0.509   6.592
  707SOL    HW114152   0.287   0.426   6.575
  707SOL    HW214153   0.416   0.514   6.528
  708SOL     OW14154   1.138   0.380   7.264
  708SOL    HW114155   1.093   0.443   7.328
  708SOL    HW214156   1.231   0.411   7.247
  709SOL     OW14157   1.160   0.207   7.063
  709SOL    HW114158   1.160   0.271   7.140
  709SOL    HW214159   1.188   0.255   6.980
  710SOL     OW14160   0.008   1.326   5.786
  710SOL    HW114161  -0.085   1.347   5.755
  710SOL    HW214162   0.018   1.227   5.799
  711SOL     OW14163   0.088   1.801   6.513
  711SOL    HW114164   0.046   1.715   6.486
  711SOL    HW214165   0.182   1.804   6.479
  712SOL     OW14166   0.504   1.568   6.496
  712SOL    HW114167   0.570   1.642   6.505
  712SOL    HW214168   0.548   1.489   6.454
  713SOL     OW14169   1.002   0.796   6.824
  713SOL    HW114170   1.043   0.764   6.910
  713SOL    HW214171   0.906   0.769   6.821
  714SOL     OW14172   0.040   0.544   6.700
  714SOL    HW114173   0.125   0.511   6.659
  714SOL    HW214174   0.053   0.559   6.798
  715SOL     OW14175   0.815   0.572   5.911
  715SOL    HW114176   0.822   0.483   5.865
  715SOL    HW214177   0.721   0.606   5.903
  716SOL     OW14178   1.657   0.604   6.792
  716SOL    HW114179   1.619   0.535   6.854
  716SOL    HW214180   1.739   0.568   6.748
  717SOL     OW14181   0.252   1.564   7.330
  717SOL    HW114182   0.222   1.621   7.406
  717SOL    HW214183   0.245   1.467   7.356
  718SOL     OW14184   0.671   0.464   6.855
  718SOL    HW114185   0.637   0.375   6.825
  718SOL    HW214186   0.697   0.518   6.775
  719SOL     OW14187   0.930   1.678   7.051
  719SOL    HW114188   0.906   1.660   6.956
  719SOL    HW214189   0.960   1.772   7.061
  720SOL     OW14190   0.473   0.500   5.777
  720SOL    HW114191   0.534   0.580   5.781
  720SOL    HW214192   0.378   0.531   5.784
  721SOL     OW14193   0.159   1.137   7.052
  721SOL    HW114194   0.181   1.076   7.128
  721SOL    HW214195   0.169   1.088   6.966
  722SOL     OW14196   1.347   1.059   6.820
  722SOL    HW114197   1.371   0.996   6.746
  722SOL    HW214198   1.257   1.099   6.802
  723SOL     OW14199   1.302   0.855   5.895
  723SOL    HW114200   1.216   0.824   5.937
  723SOL    HW214201   1.298   0.841   5.796
  724SOL     OW14202   1.759   1.747   6.740
  724SOL    HW114203   1.820   1.777   6.667
  724SOL    HW214204   1.721   1.658   6.718
  725SOL     OW14205   1.252   1.731   6.714
  725SOL    HW114206   1.336   1.736   6.660
  725SOL    HW214207   1.229   1.635   6.732
  726SOL     OW14208   0.083   1.258   6.608
  726SOL    HW114209   0.078   1.257   6.708
  726SOL    HW214210   0.000   1.217   6.570
  727SOL     OW14211   0.688   1.662   7.302
  727SOL    HW114212   0.632   1.743   7.311
  727SOL    HW214213   0.740   1.666   7.216
  728SOL     OW14214   1.726   0.135   6.109
  728SOL    HW114215   1.799   0.118   6.042
  728SOL    HW214216   1.695   0.048   6.147
  729SOL     OW14217   1.388   1.573   6.063
  729SOL    HW114218   1.455   1.585   5.989
  729SOL    HW214219   1.348   1.662   6.086
  730SOL     OW14220   1.280   0.927   6.258
  730SOL    HW114221   1.340   0.846   6.260
  730SOL    HW214222   1.320   0.996   6.198
  731SOL     OW14223   0.830   1.273   7.008
  731SOL    HW114224   0.825   1.306   7.103
  731SOL    HW214225   0.744   1.292   6.962
  732SOL     OW14226   0.672   1.616   5.740
  732SOL    HW114227   0.681   1.626   5.641
  732SOL    HW214228   0.632   1.527   5.761
  733SOL     OW14229   1.650   1.720   6.980
  733SOL    HW114230   1.703   1.730   6.896
  733SOL    HW214231   1.623   1.810   7.014
  734SOL     OW14232   1.841   0.175   6.549
  734SOL    HW114233   1.880   0.090   6.513
  734SOL    HW214234   1.743   0.177   6.530
  735SOL     OW14235   0.263   0.326   6.306
  735SOL    HW114236   0.184   0.377   6.272
  735SOL    HW214237   0.254   0.311   6.404
  736SOL     OW14238   1.194   1.612   5.617
  736SOL    HW114239   1.200   1.519   5.654
  736SOL    HW214240   1.135   1.612   5.537
  737SOL     OW14241   0.822   1.002   6.958
  737SOL    HW114242   0.862   1.001   6.866
  737SOL    HW214243   0.832   1.094   6.998
  738SOL     OW14244   0.916   0.910   5.877
  738SOL    HW114245   0.979   0.948   5.809
  738SOL    HW214246   0.956   0.827   5.916
  739SOL     OW14247   0.372   1.288   7.076
  739SOL    HW114248   0.359   1.381   7.042
  739SOL    HW214249   0.288   1.236   7.063
  740SOL     OW14250   1.614   1.292   6.875
  740SOL    HW114251   1.674   1.295   6.955
  740SOL    HW214252   1.539   1.356   6.888
  741SOL     OW14253   1.039   1.098   6.282
  741SOL    HW114254   0.969   1.051   6.336
  741SOL    HW214255   1.098   1.030   6.239
  742SOL     OW14256   1.014   0.236   6.557
  742SOL    HW114257   1.006   0.200   6.464
  742SOL    HW214258   1.012   0.160   6.622
  743SOL     OW14259   0.590   1.487   6.077
  743SOL    HW114260   0.632   1.429   6.007
  743SOL    HW214261   0.546   1.566   6.033
  744SOL     OW14262   1.709   0.385   6.967
  744SOL    HW114263   1.782   0.454   6.971
  744SOL    HW214264   1.737   0.310   6.908
  745SOL     OW14265   0.255   1.348   5.876
  745SOL    HW114266   0.159   1.349   5.849
  745SOL    HW214267   0.267   1.401   5.960
  746SOL     OW14268   0.105   1.013   7.312
  746SOL    HW114269   0.028   0.980   7.366
  746SOL    HW214270   0.190   0.983   7.354
  747SOL     OW14271   0.672   0.203   7.075
  747SOL    HW114272   0.762   0.187   7.035
  747SOL    HW214273   0.680   0.208   7.174
  748SOL     OW14274   0.075   0.345   5.619
  748SOL    HW114275  -0.017   0.317   5.590
  748SOL    HW214276   0.106   0.422   5.563
  749SOL     OW14277   1.440   0.856   6.984
  749SOL    HW114278   1.383   0.908   6.921
  749SOL    HW214279   1.536   0.868   6.960
  750SOL     OW14280   0.072   0.166   5.904
  750SOL    HW114281   0.055   0.249   5.850
  750SOL    HW214282   0.162   0.129   5.882
  751SOL     OW14283   1.183   1.335   5.705
  751SOL    HW114284   1.084   1.324   5.707
  751SOL    HW214285   1.217   1.350   5.798
  752SOL     OW14286   0.613   0.842   7.017
  752SOL    HW114287   0.669   0.923   7.000
  752SOL    HW214288   0.672   0.762   7.020
  753SOL     OW14289   1.493   1.767   6.545
  753SOL    HW114290   1.526   1.831   6.476
  753SOL    HW214291   1.559   1.761   6.620
  754SOL     OW14292   0.716   0.565   7.294
  754SOL    HW114293   0.735   0.630   7.368
  754SOL    HW214294   0.776   0.485   7.303
  755SOL     OW14295   0.390   1.741   7.146
  755SOL    HW114296   0.299   1.782   7.144
  755SOL    HW214297   0.383   1.647   7.178
  756SOL     OW14298   1.674   0.883   6.840
  756SOL    HW114299   1.647   0.794   6.803
  756SOL    HW214300   1.675   0.951   6.767
  757SOL     OW14301   1.225   0.325   6.035
  757SOL    HW114302   1.290   0.251   6.024
  757SOL    HW214303   1.245   0.375   6.119
  758SOL     OW14304   0.594   0.745   6.238
  758SOL    HW114305   0.644   0.830   6.219
  758SOL    HW214306   0.506   0.747   6.190
  759SOL     OW14307   1.777   0.342   7.228
  759SOL    HW114308   1.760   0.373   7.134
  759SOL    HW214309   1.693   0.305   7.266
  760SOL     OW14310   1.730   0.934   7.103
  760SOL    HW114311   1.768   1.025   7.118
  760SOL    HW214312   1.722   0.917   7.004
  761SOL     OW14313   0.859   1.374   5.602
  761SOL    HW114314   0.813   1.389   5.690
  761SOL    HW214315   0.903   1.459   5.572
  762SOL     OW14316   0.661   1.790   6.539
  762SOL    HW114317   0.615   1.878   6.526
  762SOL    HW214318   0.760   1.802   6.532
  763SOL     OW14319   0.859   0.956   6.447
  763SOL    HW114320   0.913   0.887   6.495
  763SOL    HW214321   0.827   1.025   6.513
  764SOL     OW14322   1.083   0.984   5.673
  764SOL    HW114323   1.060   1.037   5.591
  764SOL    HW214324   1.164   0.928   5.654
  765SOL     OW14325   1.861   1.569   6.437
  765SOL    HW114326   1.790   1.557   6.367
  765SOL    HW214327   1.862   1.490   6.497
  766SOL     OW14328   0.221   1.314   7.430
  766SOL    HW114329   0.156   1.241   7.409
  766SOL    HW214330   0.225   1.328   7.528
  767SOL     OW14331   0.079   1.240   6.239
  767SOL    HW114332   0.078   1.193   6.327
  767SOL    HW214333   0.161   1.212   6.188
  768SOL     OW14334   0.672   1.391   7.210
  768SOL    HW114335   0.594   1.341   7.248
  768SOL    HW214336   0.669   1.486   7.241
  769SOL     OW14337   1.824   0.192   6.813
  769SOL    HW114338   1.820   0.102   6.857
  769SOL    HW214339   1.827   0.181   6.714
  770SOL     OW14340   0.428   0.424   6.106
  770SOL    HW114341   0.458   0.352   6.044
  770SOL    HW214342   0.389   0.384   6.189
  771SOL     OW14343   1.705   1.487   6.690
  771SOL    HW114344   1.612   1.462   6.663
  771SOL    HW214345   1.731   1.437   6.772
  772SOL     OW14346   0.317   0.547   6.866
  772SOL    HW114347   0.355   0.488   6.938
  772SOL    HW214348   0.357   0.521   6.778
  773SOL     OW14349   0.812   1.586   6.273
  773SOL    HW114350   0.844   1.596   6.179
  773SOL    HW214351   0.733   1.524   6.275
  774SOL     OW14352   1.424   0.214   6.698
  774SOL    HW114353   1.476   0.149   6.753
  774SOL    HW214354   1.375   0.277   6.759
  775SOL     OW14355   1.001   0.034   6.740
  775SOL    HW114356   0.938  -0.038   6.709
  775SOL    HW214357   1.094  -0.002   6.740
  776SOL     OW14358   0.770   1.330   5.887
  776SOL    HW114359   0.724   1.243   5.904
  776SOL    HW214360   0.861   1.327   5.928
  777SOL     OW14361   0.618   1.567   6.870
  777SOL    HW114362   0.613   1.649   6.927
  777SOL    HW214363   0.707   1.564   6.825
  778SOL     OW14364   1.352   0.052   5.754
  778SOL    HW114365   1.387   0.011   5.670
  778SOL    HW214366   1.262   0.014   5.774
  779SOL     OW14367   1.300   0.453   6.277
  779SOL    HW114368   1.241   0.533   6.281
  779SOL    HW214369   1.315   0.418   6.370
  780SOL     OW14370   1.593   0.221   6.468
  780SOL    HW114371   1.509   0.220   6.522
  780SOL    HW214372   1.595   0.304   6.412
  781SOL     OW14373   0.039   1.077   5.886
  781SOL    HW114374   0.138   1.066   5.877
  781SOL    HW214375  -0.001   0.991   5.918
  782SOL     OW14376   0.875   1.646   5.923
  782SOL    HW114377   0.798   1.611   5.869
  782SOL    HW214378   0.843   1.717   5.985
  783SOL     OW14379   0.230   2.490   0.113
  783SOL    HW114380   0.137   2.488   0.150
  783SOL    HW214381   0.231   2.451   0.021
  784SOL     OW14382   0.225   2.137   0.996
  784SOL    HW114383   0.260   2.120   1.088
  784SOL    HW214384   0.137   2.092   0.984
  785SOL     OW14385   0.019   2.230   0.647
  785SOL    HW114386  -0.063   2.273   0.686
  785SOL    HW214387  -0.009   2.157   0.584
  786SOL     OW14388   0.569   3.137   1.165
  786SOL    HW114389   0.476   3.130   1.128
  786SOL    HW214390   0.580   3.226   1.209
  787SOL     OW14391   1.555   3.373   0.703
  787SOL    HW114392   1.498   3.357   0.784
  787SOL    HW214393   1.496   3.383   0.623
  788SOL     OW14394   1.135   2.565   0.717
  788SOL    HW114395   1.192   2.643   0.692
  788SOL    HW214396   1.075   2.591   0.793
  789SOL     OW14397   1.755   2.469   0.231
  789SOL    HW114398   1.743   2.456   0.132
  789SOL    HW214399   1.725   2.388   0.280
  790SOL     OW14400   0.768   3.006   1.023
  790SOL    HW114401   0.690   3.023   1.083
  790SOL    HW214402   0.802   3.093   0.987
  791SOL     OW14403   0.685   2.874   0.665
  791SOL    HW114404   0.754   2.858   0.735
  791SOL    HW214405   0.612   2.931   0.703
  792SOL     OW14406   0.335   3.297   1.061
  792SOL    HW114407   0.257   3.266   1.008
  792SOL    HW214408   0.393   3.355   1.004
  793SOL     OW14409   0.438   2.254   1.499
  793SOL    HW114410   0.520   2.198   1.508
  793SOL    HW214411   0.357   2.196   1.503
  794SOL     OW14412   1.603   2.309   0.737
  794SOL    HW114413   1.529   2.355   0.687
  794SOL    HW214414   1.654   2.377   0.790
  795SOL     OW14415   0.231   3.575   0.483
  795SOL    HW114416   0.265   3.652   0.537
  795SOL    HW214417   0.275   3.575   0.393
  796SOL     OW14418   0.230   3.296   0.538
  796SOL    HW114419   0.204   3.392   0.538
  796SOL    HW214420   0.159   3.242   0.583
  797SOL     OW14421   0.240   2.953   0.886
  797SOL    HW114422   0.254   2.869   0.938
  797SOL    HW214423   0.185   3.017   0.941
  798SOL     OW14424   0.606   2.826   0.123
  798SOL    HW114425   0.613   2.910   0.069
  798SOL    HW214426   0.652   2.839   0.211
  799SOL     OW14427   1.594   1.976   1.480
  799SOL    HW114428   1.576   2.043   1.408
  799SOL    HW214429   1.591   2.022   1.569
  800SOL     OW14430   0.122   2.505   0.563
  800SOL    HW114431   0.077   2.417   0.580
  800SOL    HW214432   0.121   2.559   0.647
  801SOL     OW14433   1.842   3.629   0.359
  801SOL    HW114434   1.896   3.600   0.439
  801SOL    HW214435   1.872   3.719   0.330
  802SOL     OW14436   0.027   3.458   0.117
  802SOL    HW114437   0.008   3.362   0.138
  802SOL    HW214438  -0.006   3.516   0.192
  803SOL     OW14439   1.689   2.784   0.612
  803SOL    HW114440   1.784   2.755   0.620
  803SOL    HW214441   1.681   2.849   0.537
  804SOL     OW14442   1.641   2.970   0.432
  804SOL    HW114443   1.727   2.972   0.380
  804SOL    HW214444   1.655   3.017   0.520
  805SOL     OW14445   0.613   3.227   0.726
  805SOL    HW114446   0.564   3.140   0.735
  805SOL    HW214447   0.590   3.270   0.639
  806SOL     OW14448   1.293   3.090   1.423
  806SOL    HW114449   1.330   3.017   1.365
  806SOL    HW214450   1.345   3.095   1.508
  807SOL     OW14451   0.809   1.866   0.502
  807SOL    HW114452   0.849   1.957   0.493
  807SOL    HW214453   0.709   1.874   0.508
  808SOL     OW14454   1.525   2.861   0.190
  808SOL    HW114455   1.462   2.785   0.203
  808SOL    HW214456   1.573   2.879   0.276
  809SOL     OW14457   0.317   2.113   1.801
  809SOL    HW114458   0.388   2.184   1.807
  809SOL    HW214459   0.229   2.152   1.829
  810SOL     OW14460   1.466   3.279   0.953
  810SOL    HW114461   1.407   3.285   1.033
  810SOL    HW214462   1.451   3.191   0.907
  811SOL     OW14463   1.667   3.576   0.572
  811SOL    HW114464   1.626   3.553   0.484
  811SOL    HW214465   1.649   3.502   0.637
  812SOL     OW14466   0.598   2.591   0.270
  812SOL    HW114467   0.622   2.660   0.202
  812SOL    HW214468   0.520   2.624   0.324
  813SOL     OW14469   1.281   2.207   0.944
  813SOL    HW114470   1.195   2.157   0.931
  813SOL    HW214471   1.343   2.153   1.000
  814SOL     OW14472   1.576   3.524   0.307
  814SOL    HW114473   1.665   3.570   0.310
  814SOL    HW214474   1.555   3.500   0.212
  815SOL     OW14475   0.807   2.467   1.465
  815SOL    HW114476   0.760   2.464   1.554
  815SOL    HW214477   0.756   2.412   1.399
  816SOL     OW14478   0.973   2.752   1.572
  816SOL    HW114479   1.019   2.668   1.543
  816SOL    HW214480   0.917   2.786   1.497
  817SOL     OW14481   0.991   2.272   1.242
  817SOL    HW114482   0.914   2.306   1.296
  817SOL    HW214483   0.957   2.221   1.163
  818SOL     OW14484   1.041   2.563   0.429
  818SOL    HW114485   1.067   2.559   0.525
  818SOL    HW214486   0.956   2.512   0.415
  819SOL     OW14487   0.076   2.673   0.789
  819SOL    HW114488   0.175   2.661   0.798
  819SOL    HW214489   0.052   2.768   0.810
  820SOL     OW14490   0.865   2.210   0.195
  820SOL    HW114491   0.924   2.273   0.146
  820SOL    HW214492   0.884   2.116   0.166
  821SOL     OW14493   1.362   3.006   0.545
  821SOL    HW114494   1.445   2.977   0.497
  821SOL    HW214495   1.313   3.073   0.489
  822SOL     OW14496   0.550   2.058   0.885
  822SOL    HW114497   0.545   2.053   0.985
  822SOL    HW214498   0.552   2.154   0.856
  823SOL     OW14499   1.008   3.318   0.477
  823SOL    HW114500   0.962   3.390   0.425
  823SOL    HW214501   1.004   3.338   0.575
  824SOL     OW14502   0.351   3.663   0.853
  824SOL    HW114503   0.401   3.577   0.859
  824SOL    HW214504   0.416   3.740   0.850
  825SOL     OW14505   1.795   2.928   0.873
  825SOL    HW114506   1.733   2.913   0.797
  825SOL    HW214507   1.743   2.939   0.958
  826SOL     OW14508   0.321   2.805   0.242
  826SOL    HW114509   0.403   2.844   0.200
  826SOL    HW214510   0.294   2.723   0.193
  827SOL     OW14511   1.458   2.597   0.728
  827SOL    HW114512   1.453   2.532   0.803
  827SOL    HW214513   1.538   2.656   0.741
  828SOL     OW14514   1.111   3.638   0.237
  828SOL    HW114515   1.051   3.576   0.287
  828SOL    HW214516   1.142   3.594   0.152
  829SOL     OW14517   0.202   2.147   1.498
  829SOL    HW114518   0.122   2.207   1.485
  829SOL    HW214519   0.192   2.098   1.584
  830SOL     OW14520   1.632   3.239   0.081
  830SOL    HW114521   1.600   3.333   0.071
  830SOL    HW214522   1.556   3.176   0.069
  831SOL     OW14523   0.464   3.605   0.323
  831SOL    HW114524   0.497   3.644   0.409
  831SOL    HW214525   0.540   3.598   0.258
  832SOL     OW14526   1.400   1.969   0.426
  832SOL    HW114527   1.376   1.932   0.336
  832SOL    HW214528   1.499   1.985   0.430
  833SOL     OW14529   0.249   3.647   1.241
  833SOL    HW114530   0.306   3.582   1.291
  833SOL    HW214531   0.233   3.614   1.148
  834SOL     OW14532   0.940   3.560   0.904
  834SOL    HW114533   1.020   3.503   0.925
  834SOL    HW214534   0.891   3.520   0.827
  835SOL     OW14535   0.382   2.562   0.480
  835SOL    HW114536   0.427   2.472   0.477
  835SOL    HW214537   0.288   2.551   0.513
  836SOL     OW14538   0.614   1.984   0.117
  836SOL    HW114539   0.712   1.962   0.124
  836SOL    HW214540   0.583   1.967   0.024
  837SOL     OW14541   0.888   3.376   1.195
  837SOL    HW114542   0.865   3.351   1.101
  837SOL    HW214543   0.949   3.307   1.234
  838SOL     OW14544   1.351   2.452   1.433
  838SOL    HW114545   1.379   2.409   1.518
  838SOL    HW214546   1.376   2.548   1.434
  839SOL     OW14547   0.803   3.264   0.924
  839SOL    HW114548   0.893   3.278   0.882
  839SOL    HW214549   0.732   3.266   0.853
  840SOL     OW14550   0.922   2.365   0.899
  840SOL    HW114551   0.897   2.356   0.803
  840SOL    HW214552   0.970   2.283   0.930
  841SOL     OW14553   0.539   1.926   0.512
  841SOL    HW114554   0.458   1.927   0.570
  841SOL    HW214555   0.542   2.009   0.457
  842SOL     OW14556   1.434   3.050   0.041
  842SOL    HW114557   1.466   2.974   0.098
  842SOL    HW214558   1.342   3.077   0.071
  843SOL     OW14559   0.297   1.897   0.171
  843SOL    HW114560   0.346   1.981   0.150
  843SOL    HW214561   0.359   1.832   0.216
  844SOL     OW14562   0.935   2.098   0.480
  844SOL    HW114563   0.887   2.139   0.402
  844SOL    HW214564   1.034   2.096   0.461
  845SOL     OW14565   1.076   2.545   1.464
  845SOL    HW114566   0.996   2.484   1.467
  845SOL    HW214567   1.157   2.492   1.440
  846SOL     OW14568   1.227   3.432   0.793
  846SOL    HW114569   1.248   3.506   0.728
  846SOL    HW214570   1.295   3.432   0.866
  847SOL     OW14571   0.459   3.014   0.741
  847SOL    HW114572   0.388   2.987   0.806
  847SOL    HW214573   0.433   2.986   0.648
  848SOL     OW14574   1.271   3.659   0.591
  848SOL    HW114575   1.315   3.723   0.527
  848SOL    HW214576   1.221   3.711   0.661
  849SOL     OW14577   1.032   2.411   0.016
  849SOL    HW114578   0.991   2.493  -0.023
  849SOL    HW214579   1.096   2.437   0.089
  850SOL     OW14580   0.078   2.418   1.386
  850SOL    HW114581   0.170   2.417   1.345
  850SOL    HW214582   0.072   2.492   1.453
  851SOL     OW14583   0.561   2.084   1.147
  851SOL    HW114584   0.599   2.000   1.184
  851SOL    HW214585   0.473   2.103   1.191
  852SOL     OW14586   0.866   2.316   0.642
  852SOL    HW114587   0.834   2.388   0.580
  852SOL    HW214588   0.890   2.235   0.589
  853SOL     OW14589   1.017   1.901   0.753
  853SOL    HW114590   0.945   1.906   0.684
  853SOL    HW214591   0.993   1.832   0.822
  854SOL     OW14592   1.429   3.035   0.867
  854SOL    HW114593   1.374   2.951   0.860
  854SOL    HW214594   1.455   3.064   0.775
  855SOL     OW14595   1.466   2.452   0.992
  855SOL    HW114596   1.436   2.357   0.999
  855SOL    HW214597   1.539   2.468   1.058
  856SOL     OW14598   1.857   2.695   0.377
  856SOL    HW114599   1.899   2.631   0.441
  856SOL    HW214600   1.819   2.644   0.299
  857SOL     OW14601   0.488   3.247   0.174
  857SOL    HW114602   0.401   3.232   0.221
  857SOL    HW214603   0.471   3.273   0.079
  858SOL     OW14604   1.664   3.142   0.657
  858SOL    HW114605   1.763   3.150   0.671
  858SOL    HW214606   1.619   3.226   0.688
  859SOL     OW14607   1.390   2.437   0.078
  859SOL    HW114608   1.336   2.416   0.159
  859SOL    HW214609   1.481   2.396   0.087
  860SOL     OW14610   0.527   2.118   0.328
  860SOL    HW114611   0.554   2.059   0.253
  860SOL    HW214612   0.527   2.213   0.297
  861SOL     OW14613   1.064   3.209   1.340
  861SOL    HW114614   0.984   3.186   1.395
  861SOL    HW214615   1.147   3.183   1.389
  862SOL     OW14616   1.111   3.057   1.100
  862SOL    HW114617   1.071   3.101   1.181
  862SOL    HW214618   1.070   3.094   1.017
  863SOL     OW14619   1.638   2.961   1.079
  863SOL    HW114620   1.643   3.042   1.138
  863SOL    HW214621   1.552   2.963   1.028
  864SOL     OW14622   0.980   2.978   1.719
  864SOL    HW114623   0.881   2.984   1.729
  864SOL    HW214624   1.003   2.898   1.663
  865SOL     OW14625   0.705   2.912   0.368
  865SOL    HW114626   0.691   2.919   0.467
  865SOL    HW214627   0.789   2.861   0.350
  866SOL     OW14628   1.274   2.248   1.262
  866SOL    HW114629   1.295   2.322   1.326
  866SOL    HW214630   1.185   2.265   1.219
  867SOL     OW14631   0.367   2.962   0.501
  867SOL    HW114632   0.360   3.045   0.445
  867SOL    HW214633   0.371   2.882   0.441
  868SOL     OW14634   0.566   2.399   0.865
  868SOL    HW114635   0.578   2.465   0.791
  868SOL    HW214636   0.612   2.433   0.948
  869SOL     OW14637   1.252   3.210   0.388
  869SOL    HW114638   1.302   3.287   0.428
  869SOL    HW214639   1.157   3.212   0.420
  870SOL     OW14640   1.582   2.501   0.472
  870SOL    HW114641   1.551   2.562   0.545
  870SOL    HW214642   1.632   2.553   0.403
  871SOL     OW14643   0.354   3.372   1.329
  871SOL    HW114644   0.333   3.328   1.242
  871SOL    HW214645   0.451   3.398   1.332
  872SOL     OW14646   0.573   2.732   1.029
  872SOL    HW114647   0.617   2.821   1.020
  872SOL    HW214648   0.510   2.732   1.106
  873SOL     OW14649   1.360   2.724   1.045
  873SOL    HW114650   1.285   2.724   0.979
  873SOL    HW214651   1.397   2.632   1.054
  874SOL     OW14652   1.209   2.387   0.275
  874SOL    HW114653   1.222   2.303   0.329
  874SOL    HW214654   1.180   2.461   0.335
  875SOL     OW14655   0.307   2.075   1.231
  875SOL    HW114656   0.284   2.112   1.321
  875SOL    HW214657   0.277   1.980   1.225
  876SOL     OW14658   0.037   3.172   1.282
  876SOL    HW114659   0.090   3.123   1.350
  876SOL    HW214660   0.059   3.270   1.287
  877SOL     OW14661   0.732   2.496   1.064
  877SOL    HW114662   0.791   2.470   0.988
  877SOL    HW214663   0.704   2.592   1.053
  878SOL     OW14664   0.307   1.925   0.618
  878SOL    HW114665   0.296   2.019   0.651
  878SOL    HW214666   0.302   1.862   0.695
  879SOL     OW14667   1.622   2.229   0.374
  879SOL    HW114668   1.624   2.153   0.438
  879SOL    HW214669   1.574   2.306   0.414
  880SOL     OW14670   1.023   2.628   0.966
  880SOL    HW114671   1.038   2.649   1.062
  880SOL    HW214672   0.993   2.533   0.957
  881SOL     OW14673   1.540   2.136   0.125
  881SOL    HW114674   1.479   2.061   0.148
  881SOL    HW214675   1.562   2.188   0.208
  882SOL     OW14676   1.303   2.700   0.042
  882SOL    HW114677   1.337   2.607   0.057
  882SOL    HW214678   1.321   2.727  -0.053
  883SOL     OW14679   1.068   3.195   0.849
  883SOL    HW114680   1.075   3.111   0.794
  883SOL    HW214681   1.130   3.264   0.813
  884SOL     OW14682   0.319   2.672   0.949
  884SOL    HW114683   0.412   2.708   0.954
  884SOL    HW214684   0.313   2.587   1.001
  885SOL     OW14685   0.339   2.371   1.006
  885SOL    HW114686   0.287   2.288   0.989
  885SOL    HW214687   0.416   2.376   0.942
  886SOL     OW14688   0.008   3.188   0.200
  886SOL    HW114689  -0.085   3.209   0.169
  886SOL    HW214690   0.018   3.089   0.213
  887SOL     OW14691   0.088   3.663   0.927
  887SOL    HW114692   0.046   3.577   0.900
  887SOL    HW214693   0.182   3.666   0.893
  888SOL     OW14694   0.504   3.430   0.910
  888SOL    HW114695   0.570   3.504   0.919
  888SOL    HW214696   0.548   3.351   0.868
  889SOL     OW14697   1.002   2.658   1.238
  889SOL    HW114698   1.043   2.626   1.324
  889SOL    HW214699   0.906   2.631   1.235
  890SOL     OW14700   0.040   2.406   1.114
  890SOL    HW114701   0.125   2.373   1.073
  890SOL    HW214702   0.053   2.421   1.212
  891SOL     OW14703   0.815   2.434   0.325
  891SOL    HW114704   0.822   2.345   0.279
  891SOL    HW214705   0.721   2.468   0.317
  892SOL     OW14706   1.657   2.466   1.206
  892SOL    HW114707   1.619   2.397   1.268
  892SOL    HW214708   1.739   2.430   1.162
  893SOL     OW14709   0.671   2.326   1.269
  893SOL    HW114710   0.637   2.237   1.239
  893SOL    HW214711   0.697   2.380   1.189
  894SOL     OW14712   0.473   2.362   0.191
  894SOL    HW114713   0.534   2.442   0.195
  894SOL    HW214714   0.378   2.393   0.198
  895SOL     OW14715   1.347   2.921   1.234
  895SOL    HW114716   1.371   2.858   1.160
  895SOL    HW214717   1.257   2.961   1.216
  896SOL     OW14718   1.302   2.717   0.309
  896SOL    HW114719   1.216   2.686   0.351
  896SOL    HW214720   1.298   2.703   0.210
  897SOL     OW14721   1.759   3.609   1.154
  897SOL    HW114722   1.820   3.639   1.081
  897SOL    HW214723   1.721   3.520   1.132
  898SOL     OW14724   0.083   3.120   1.022
  898SOL    HW114725   0.078   3.119   1.122
  898SOL    HW214726   0.000   3.079   0.984
  899SOL     OW14727   0.903   1.948   0.133
  899SOL    HW114728   0.954   1.949   0.047
  899SOL    HW214729   0.959   1.906   0.204
  900SOL     OW14730   1.726   1.997   0.523
  900SOL    HW114731   1.799   1.980   0.456
  900SOL    HW214732   1.695   1.910   0.561
  901SOL     OW14733   1.388   3.435   0.477
  901SOL    HW114734   1.455   3.447   0.403
  901SOL    HW214735   1.348   3.524   0.500
  902SOL     OW14736   1.280   2.789   0.672
  902SOL    HW114737   1.340   2.708   0.674
  902SOL    HW214738   1.320   2.858   0.612
  903SOL     OW14739   0.830   3.135   1.422
  903SOL    HW114740   0.825   3.168   1.517
  903SOL    HW214741   0.744   3.154   1.376
  904SOL     OW14742   0.672   3.478   0.154
  904SOL    HW114743   0.681   3.488   0.055
  904SOL    HW214744   0.632   3.389   0.175
  905SOL     OW14745   1.650   3.582   1.394
  905SOL    HW114746   1.703   3.592   1.310
  905SOL    HW214747   1.623   3.672   1.428
  906SOL     OW14748   1.841   2.037   0.963
  906SOL    HW114749   1.880   1.952   0.927
  906SOL    HW214750   1.743   2.039   0.944
  907SOL     OW14751   0.263   2.188   0.720
  907SOL    HW114752   0.184   2.239   0.686
  907SOL    HW214753   0.254   2.173   0.818
  908SOL     OW14754   1.194   3.474   0.031
  908SOL    HW114755   1.200   3.381   0.068
  908SOL    HW214756   1.135   3.474  -0.049
  909SOL     OW14757   0.822   2.864   1.372
  909SOL    HW114758   0.862   2.863   1.280
  909SOL    HW214759   0.832   2.956   1.412
  910SOL     OW14760   0.916   2.772   0.291
  910SOL    HW114761   0.979   2.810   0.223
  910SOL    HW214762   0.956   2.689   0.330
  911SOL     OW14763   1.504   3.469   0.044
  911SOL    HW114764   1.412   3.506   0.051
  911SOL    HW214765   1.542   3.489  -0.046
  912SOL     OW14766   1.039   2.960   0.696
  912SOL    HW114767   0.969   2.913   0.750
  912SOL    HW214768   1.098   2.892   0.653
  913SOL     OW14769   1.014   2.098   0.971
  913SOL    HW114770   1.006   2.062   0.878
  913SOL    HW214771   1.012   2.022   1.036
  914SOL     OW14772   0.590   3.349   0.491
  914SOL    HW114773   0.632   3.291   0.421
  914SOL    HW214774   0.546   3.428   0.447
  915SOL     OW14775   1.709   2.247   1.381
  915SOL    HW114776   1.782   2.316   1.385
  915SOL    HW214777   1.737   2.172   1.322
  916SOL     OW14778   0.255   3.210   0.290
  916SOL    HW114779   0.159   3.211   0.263
  916SOL    HW214780   0.267   3.263   0.374
  917SOL     OW14781   0.075   2.207   0.033
  917SOL    HW114782  -0.017   2.179   0.004
  917SOL    HW214783   0.106   2.284  -0.023
  918SOL     OW14784   1.440   2.718   1.398
  918SOL    HW114785   1.383   2.770   1.335
  918SOL    HW214786   1.536   2.730   1.374
  919SOL     OW14787   0.072   2.028   0.318
  919SOL    HW114788   0.055   2.111   0.264
  919SOL    HW214789   0.162   1.991   0.296
  920SOL     OW14790   1.183   3.197   0.119
  920SOL    HW114791   1.084   3.186   0.121
  920SOL    HW214792   1.217   3.212   0.212
  921SOL     OW14793   0.716   2.427   1.708
  921SOL    HW114794   0.735   2.492   1.782
  921SOL    HW214795   0.776   2.347   1.717
  922SOL     OW14796   1.674   2.745   1.254
  922SOL    HW114797   1.647   2.656   1.217
  922SOL    HW214798   1.675   2.813   1.181
  923SOL     OW14799   1.225   2.187   0.449
  923SOL    HW114800   1.290   2.113   0.438
  923SOL    HW214801   1.245   2.237   0.533
  924SOL     OW14802   0.594   2.607   0.652
  924SOL    HW114803   0.644   2.692   0.633
  924SOL    HW214804   0.506   2.609   0.604
  925SOL     OW14805   1.777   2.204   1.642
  925SOL    HW114806   1.760   2.235   1.548
  925SOL    HW214807   1.693   2.167   1.680
  926SOL     OW14808   0.859   3.236   0.016
  926SOL    HW114809   0.813   3.251   0.104
  926SOL    HW214810   0.903   3.321  -0.014
  927SOL     OW14811   0.661   3.652   0.953
  927SOL    HW114812   0.615   3.740   0.940
  927SOL    HW214813   0.760   3.664   0.946
  928SOL     OW14814   0.859   2.818   0.861
  928SOL    HW114815   0.913   2.749   0.909
  928SOL    HW214816   0.827   2.887   0.927
  929SOL     OW14817   1.083   2.846   0.087
  929SOL    HW114818   1.060   2.899   0.005
  929SOL    HW214819   1.164   2.790   0.068
  930SOL     OW14820   1.861   3.431   0.851
  930SOL    HW114821   1.790   3.419   0.781
  930SOL    HW214822   1.862   3.352   0.911
  931SOL     OW14823   0.079   3.102   0.653
  931SOL    HW114824   0.078   3.055   0.741
  931SOL    HW214825   0.161   3.074   0.602
  932SOL     OW14826   1.824   2.054   1.227
  932SOL    HW114827   1.820   1.964   1.271
  932SOL    HW214828   1.827   2.043   1.128
  933SOL     OW14829   0.428   2.286   0.520
  933SOL    HW114830   0.458   2.214   0.458
  933SOL    HW214831   0.389   2.246   0.603
  934SOL     OW14832   1.705   3.349   1.104
  934SOL    HW114833   1.612   3.324   1.077
  934SOL    HW214834   1.731   3.299   1.186
  935SOL     OW14835   0.317   2.409   1.280
  935SOL    HW114836   0.355   2.350   1.352
  935SOL    HW214837   0.357   2.383   1.192
  936SOL     OW14838   0.812   3.448   0.687
  936SOL    HW114839   0.844   3.458   0.593
  936SOL    HW214840   0.733   3.386   0.689
  937SOL     OW14841   1.424   2.076   1.112
  937SOL    HW114842   1.476   2.011   1.167
  937SOL    HW214843   1.375   2.139   1.173
  938SOL     OW14844   1.001   1.896   1.154
  938SOL    HW114845   0.938   1.824   1.123
  938SOL    HW214846   1.094   1.860   1.154
  939SOL     OW14847   0.770   3.192   0.301
  939SOL    HW114848   0.724   3.105   0.318
  939SOL    HW214849   0.861   3.189   0.342
  940SOL     OW14850   1.352   1.914   0.168
  940SOL    HW114851   1.387   1.873   0.084
  940SOL    HW214852   1.262   1.876   0.188
  941SOL     OW14853   1.300   2.315   0.691
  941SOL    HW114854   1.241   2.395   0.695
  941SOL    HW214855   1.315   2.280   0.784
  942SOL     OW14856   1.593   2.083   0.882
  942SOL    HW114857   1.509   2.082   0.936
  942SOL    HW214858   1.595   2.166   0.826
  943SOL     OW14859   0.039   2.939   0.300
  943SOL    HW114860   0.138   2.928   0.291
  943SOL    HW214861  -0.001   2.853   0.332
  944SOL     OW14862   0.875   3.508   0.337
  944SOL    HW114863   0.798   3.473   0.283
  944SOL    HW214864   0.843   3.579   0.399
  945SOL     OW14865   1.755   2.469   2.093
  945SOL    HW114866   1.743   2.456   1.994
  945SOL    HW214867   1.725   2.388   2.142
  946SOL     OW14868   0.686   3.023   3.665
  946SOL    HW114869   0.746   3.102   3.679
  946SOL    HW214870   0.600   3.054   3.624
  947SOL     OW14871   0.335   3.297   2.923
  947SOL    HW114872   0.257   3.266   2.870
  947SOL    HW214873   0.393   3.355   2.866
  948SOL     OW14874   0.231   3.575   2.345
  948SOL    HW114875   0.265   3.652   2.399
  948SOL    HW214876   0.275   3.575   2.255
  949SOL     OW14877   0.230   3.296   2.400
  949SOL    HW114878   0.204   3.392   2.400
  949SOL    HW214879   0.159   3.242   2.445
  950SOL     OW14880   1.594   1.976   3.342
  950SOL    HW114881   1.576   2.043   3.270
  950SOL    HW214882   1.591   2.022   3.431
  951SOL     OW14883   1.689   2.784   2.474
  951SOL    HW114884   1.784   2.755   2.482
  951SOL    HW214885   1.681   2.849   2.399
  952SOL     OW14886   1.466   3.279   2.815
  952SOL    HW114887   1.407   3.285   2.895
  952SOL    HW214888   1.451   3.191   2.769
  953SOL     OW14889   1.667   3.576   2.434
  953SOL    HW114890   1.626   3.553   2.346
  953SOL    HW214891   1.649   3.502   2.499
  954SOL     OW14892   1.576   3.524   2.169
  954SOL    HW114893   1.665   3.570   2.172
  954SOL    HW214894   1.555   3.500   2.074
  955SOL     OW14895   1.394   2.331   3.536
  955SOL    HW114896   1.374   2.374   3.624
  955SOL    HW214897   1.472   2.269   3.545
  956SOL     OW14898   0.973   2.752   3.434
  956SOL    HW114899   1.019   2.668   3.405
  956SOL    HW214900   0.917   2.786   3.359
  957SOL     OW14901   0.991   2.272   3.104
  957SOL    HW114902   0.914   2.306   3.158
  957SOL    HW214903   0.957   2.221   3.025
  958SOL     OW14904   0.130   3.683   3.433
  958SOL    HW114905   0.120   3.668   3.532
  958SOL    HW214906   0.044   3.719   3.397
  959SOL     OW14907   1.362   3.006   2.407
  959SOL    HW114908   1.445   2.977   2.359
  959SOL    HW214909   1.313   3.073   2.351
  960SOL     OW14910   1.008   3.318   2.339
  960SOL    HW114911   0.962   3.390   2.287
  960SOL    HW214912   1.004   3.338   2.437
  961SOL     OW14913   0.351   3.663   2.715
  961SOL    HW114914   0.401   3.577   2.721
  961SOL    HW214915   0.416   3.740   2.712
  962SOL     OW14916   1.795   2.928   2.735
  962SOL    HW114917   1.733   2.913   2.659
  962SOL    HW214918   1.743   2.939   2.820
  963SOL     OW14919   1.227   3.412   3.368
  963SOL    HW114920   1.233   3.335   3.432
  963SOL    HW214921   1.175   3.386   3.288
  964SOL     OW14922   0.461   3.128   3.589
  964SOL    HW114923   0.411   3.129   3.503
  964SOL    HW214924   0.398   3.110   3.665
  965SOL     OW14925   0.464   3.605   2.185
  965SOL    HW114926   0.497   3.644   2.271
  965SOL    HW214927   0.540   3.598   2.120
  966SOL     OW14928   0.249   3.647   3.103
  966SOL    HW114929   0.306   3.582   3.153
  966SOL    HW214930   0.233   3.614   3.010
  967SOL     OW14931   0.888   3.376   3.057
  967SOL    HW114932   0.865   3.351   2.963
  967SOL    HW214933   0.949   3.307   3.096
  968SOL     OW14934   0.803   3.264   2.786
  968SOL    HW114935   0.893   3.278   2.744
  968SOL    HW214936   0.732   3.266   2.715
  969SOL     OW14937   0.297   1.897   2.033
  969SOL    HW114938   0.346   1.981   2.012
  969SOL    HW214939   0.359   1.832   2.078
  970SOL     OW14940   1.076   2.545   3.326
  970SOL    HW114941   0.996   2.484   3.329
  970SOL    HW214942   1.157   2.492   3.302
  971SOL     OW14943   1.227   3.432   2.655
  971SOL    HW114944   1.248   3.506   2.590
  971SOL    HW214945   1.295   3.432   2.728
  972SOL     OW14946   1.032   2.411   1.878
  972SOL    HW114947   0.991   2.493   1.839
  972SOL    HW214948   1.096   2.437   1.951
  973SOL     OW14949   0.078   2.418   3.248
  973SOL    HW114950   0.170   2.417   3.207
  973SOL    HW214951   0.072   2.492   3.315
  974SOL     OW14952   0.561   2.084   3.009
  974SOL    HW114953   0.599   2.000   3.046
  974SOL    HW214954   0.473   2.103   3.053
  975SOL     OW14955   1.429   3.035   2.729
  975SOL    HW114956   1.374   2.951   2.722
  975SOL    HW214957   1.455   3.064   2.637
  976SOL     OW14958   1.754   3.085   3.450
  976SOL    HW114959   1.845   3.046   3.437
  976SOL    HW214960   1.762   3.181   3.474
  977SOL     OW14961   0.915   1.951   3.264
  977SOL    HW114962   0.940   1.931   3.169
  977SOL    HW214963   0.987   2.007   3.306
  978SOL     OW14964   0.980   2.978   3.581
  978SOL    HW114965   0.881   2.984   3.591
  978SOL    HW214966   1.003   2.898   3.525
  979SOL     OW14967   0.410   2.675   3.113
  979SOL    HW114968   0.496   2.687   3.163
  979SOL    HW214969   0.368   2.588   3.140
  980SOL     OW14970   0.367   2.962   2.363
  980SOL    HW114971   0.360   3.045   2.307
  980SOL    HW214972   0.371   2.882   2.303
  981SOL     OW14973   1.272   3.307   3.004
  981SOL    HW114974   1.319   3.320   3.091
  981SOL    HW214975   1.206   3.233   3.013
  982SOL     OW14976   0.354   3.372   3.191
  982SOL    HW114977   0.333   3.328   3.104
  982SOL    HW214978   0.451   3.398   3.194
  983SOL     OW14979   0.402   2.613   3.460
  983SOL    HW114980   0.470   2.668   3.413
  983SOL    HW214981   0.442   2.525   3.487
  984SOL     OW14982   0.504   1.912   3.602
  984SOL    HW114983   0.462   1.855   3.532
  984SOL    HW214984   0.438   1.981   3.634
  985SOL     OW14985   0.573   2.732   2.891
  985SOL    HW114986   0.617   2.821   2.882
  985SOL    HW214987   0.510   2.732   2.968
  986SOL     OW14988   1.360   2.724   2.907
  986SOL    HW114989   1.285   2.724   2.841
  986SOL    HW214990   1.397   2.632   2.916
  987SOL     OW14991   0.037   3.172   3.144
  987SOL    HW114992   0.090   3.123   3.212
  987SOL    HW214993   0.059   3.270   3.149
  988SOL     OW14994   0.319   2.672   2.811
  988SOL    HW114995   0.412   2.708   2.816
  988SOL    HW214996   0.313   2.587   2.863
  989SOL     OW14997   1.138   2.242   3.540
  989SOL    HW114998   1.093   2.305   3.604
  989SOL    HW214999   1.231   2.273   3.523
  990SOL     OW15000   0.088   3.663   2.789
  990SOL    HW115001   0.046   3.577   2.762
  990SOL    HW215002   0.182   3.666   2.755
  991SOL     OW15003   0.504   3.430   2.772
  991SOL    HW115004   0.570   3.504   2.781
  991SOL    HW215005   0.548   3.351   2.730
  992SOL     OW15006   1.657   2.466   3.068
  992SOL    HW115007   1.619   2.397   3.130
  992SOL    HW215008   1.739   2.430   3.024
  993SOL     OW15009   1.280   2.789   2.534
  993SOL    HW115010   1.340   2.708   2.536
  993SOL    HW215011   1.320   2.858   2.474
  994SOL     OW15012   0.263   2.188   2.582
  994SOL    HW115013   0.184   2.239   2.548
  994SOL    HW215014   0.254   2.173   2.680
  995SOL     OW15015   0.916   2.772   2.153
  995SOL    HW115016   0.979   2.810   2.085
  995SOL    HW215017   0.956   2.689   2.192
  996SOL     OW15018   1.039   2.960   2.558
  996SOL    HW115019   0.969   2.913   2.612
  996SOL    HW215020   1.098   2.892   2.515
  997SOL     OW15021   0.105   2.875   3.588
  997SOL    HW115022   0.028   2.842   3.642
  997SOL    HW215023   0.190   2.845   3.630
  998SOL     OW15024   0.672   2.065   3.351
  998SOL    HW115025   0.762   2.049   3.311
  998SOL    HW215026   0.680   2.070   3.450
  999SOL     OW15027   0.072   2.028   2.180
  999SOL    HW115028   0.055   2.111   2.126
  999SOL    HW215029   0.162   1.991   2.158
 1000SOL     OW15030   1.730   2.796   3.379
 1000SOL    HW115031   1.768   2.887   3.394
 1000SOL    HW215032   1.722   2.779   3.280
 1001SOL     OW15033   0.859   3.236   1.878
 1001SOL    HW115034   0.813   3.251   1.966
 1001SOL    HW215035   0.903   3.321   1.848
 1002SOL     OW15036   0.661   3.652   2.815
 1002SOL    HW115037   0.615   3.740   2.802
 1002SOL    HW215038   0.760   3.664   2.808
 1003SOL     OW15039   0.859   2.818   2.723
 1003SOL    HW115040   0.913   2.749   2.771
 1003SOL    HW215041   0.827   2.887   2.789
 1004SOL     OW15042   1.083   2.846   1.949
 1004SOL    HW115043   1.060   2.899   1.867
 1004SOL    HW215044   1.164   2.790   1.930
 1005SOL     OW15045   0.221   3.176   3.706
 1005SOL    HW115046   0.156   3.103   3.685
 1005SOL    HW215047   0.225   3.190   3.804
 1006SOL     OW15048   1.424   2.076   2.974
 1006SOL    HW115049   1.476   2.011   3.029
 1006SOL    HW215050   1.375   2.139   3.035
 1007SOL     OW15051   0.618   3.429   3.146
 1007SOL    HW115052   0.613   3.511   3.203
 1007SOL    HW215053   0.707   3.426   3.101
 1008SOL     OW15054   0.019   2.230   4.371
 1008SOL    HW115055  -0.063   2.273   4.410
 1008SOL    HW215056  -0.009   2.157   4.308
 1009SOL     OW15057   0.686   3.023   5.527
 1009SOL    HW115058   0.746   3.102   5.541
 1009SOL    HW215059   0.600   3.054   5.486
 1010SOL     OW15060   1.603   2.309   4.461
 1010SOL    HW115061   1.529   2.355   4.411
 1010SOL    HW215062   1.654   2.377   4.514
 1011SOL     OW15063   0.231   3.575   4.207
 1011SOL    HW115064   0.265   3.652   4.261
 1011SOL    HW215065   0.275   3.575   4.117
 1012SOL     OW15066   0.122   2.505   4.287
 1012SOL    HW115067   0.077   2.417   4.304
 1012SOL    HW215068   0.121   2.559   4.371
 1013SOL     OW15069   1.842   3.629   4.083
 1013SOL    HW115070   1.896   3.600   4.163
 1013SOL    HW215071   1.872   3.719   4.054
 1014SOL     OW15072   0.027   3.458   3.841
 1014SOL    HW115073   0.008   3.362   3.862
 1014SOL    HW215074  -0.006   3.516   3.916
 1015SOL     OW15075   1.641   2.970   4.156
 1015SOL    HW115076   1.727   2.972   4.104
 1015SOL    HW215077   1.655   3.017   4.244
 1016SOL     OW15078   1.187   3.654   5.340
 1016SOL    HW115079   1.211   3.714   5.264
 1016SOL    HW215080   1.194   3.559   5.310
 1017SOL     OW15081   0.598   2.591   3.994
 1017SOL    HW115082   0.622   2.660   3.926
 1017SOL    HW215083   0.520   2.624   4.048
 1018SOL     OW15084   1.281   2.207   4.668
 1018SOL    HW115085   1.195   2.157   4.655
 1018SOL    HW215086   1.343   2.153   4.724
 1019SOL     OW15087   1.394   2.331   5.398
 1019SOL    HW115088   1.374   2.374   5.486
 1019SOL    HW215089   1.472   2.269   5.407
 1020SOL     OW15090   0.076   2.673   4.513
 1020SOL    HW115091   0.175   2.661   4.522
 1020SOL    HW215092   0.052   2.768   4.534
 1021SOL     OW15093   1.632   3.239   3.805
 1021SOL    HW115094   1.600   3.333   3.795
 1021SOL    HW215095   1.556   3.176   3.793
 1022SOL     OW15096   1.547   2.084   5.453
 1022SOL    HW115097   1.542   2.121   5.545
 1022SOL    HW215098   1.475   2.015   5.441
 1023SOL     OW15099   0.922   2.365   4.623
 1023SOL    HW115100   0.897   2.356   4.527
 1023SOL    HW215101   0.970   2.283   4.654
 1024SOL     OW15102   0.866   2.316   4.366
 1024SOL    HW115103   0.834   2.388   4.304
 1024SOL    HW215104   0.890   2.235   4.313
 1025SOL     OW15105   0.488   3.247   3.898
 1025SOL    HW115106   0.401   3.232   3.945
 1025SOL    HW215107   0.471   3.273   3.803
 1026SOL     OW15108   1.664   3.142   4.381
 1026SOL    HW115109   1.763   3.150   4.395
 1026SOL    HW215110   1.619   3.226   4.412
 1027SOL     OW15111   0.527   2.118   4.052
 1027SOL    HW115112   0.554   2.059   3.977
 1027SOL    HW215113   0.527   2.213   4.021
 1028SOL     OW15114   1.111   3.057   4.824
 1028SOL    HW115115   1.071   3.101   4.905
 1028SOL    HW215116   1.070   3.094   4.741
 1029SOL     OW15117   1.638   2.961   4.803
 1029SOL    HW115118   1.643   3.042   4.862
 1029SOL    HW215119   1.552   2.963   4.752
 1030SOL     OW15120   0.915   1.951   5.126
 1030SOL    HW115121   0.940   1.931   5.031
 1030SOL    HW215122   0.987   2.007   5.168
 1031SOL     OW15123   0.980   2.978   5.443
 1031SOL    HW115124   0.881   2.984   5.453
 1031SOL    HW215125   1.003   2.898   5.387
 1032SOL     OW15126   1.252   3.210   4.112
 1032SOL    HW115127   1.302   3.287   4.152
 1032SOL    HW215128   1.157   3.212   4.144
 1033SOL     OW15129   1.587   2.641   5.394
 1033SOL    HW115130   1.495   2.679   5.389
 1033SOL    HW215131   1.647   2.688   5.329
 1034SOL     OW15132   1.360   2.724   4.769
 1034SOL    HW115133   1.285   2.724   4.703
 1034SOL    HW215134   1.397   2.632   4.778
 1035SOL     OW15135   1.728   2.797   5.578
 1035SOL    HW115136   1.682   2.790   5.489
 1035SOL    HW215137   1.666   2.841   5.644
 1036SOL     OW15138   1.023   2.628   4.690
 1036SOL    HW115139   1.038   2.649   4.786
 1036SOL    HW215140   0.993   2.533   4.681
 1037SOL     OW15141   1.303   2.700   3.766
 1037SOL    HW115142   1.337   2.607   3.781
 1037SOL    HW215143   1.321   2.727   3.671
 1038SOL     OW15144   1.068   3.195   4.573
 1038SOL    HW115145   1.075   3.111   4.518
 1038SOL    HW215146   1.130   3.264   4.537
 1039SOL     OW15147   0.088   3.663   4.651
 1039SOL    HW115148   0.046   3.577   4.624
 1039SOL    HW215149   0.182   3.666   4.617
 1040SOL     OW15150   0.815   2.434   4.049
 1040SOL    HW115151   0.822   2.345   4.003
 1040SOL    HW215152   0.721   2.468   4.041
 1041SOL     OW15153   0.252   3.426   5.468
 1041SOL    HW115154   0.222   3.483   5.544
 1041SOL    HW215155   0.245   3.329   5.494
 1042SOL     OW15156   0.159   2.999   5.190
 1042SOL    HW115157   0.181   2.938   5.266
 1042SOL    HW215158   0.169   2.950   5.104
 1043SOL     OW15159   1.302   2.717   4.033
 1043SOL    HW115160   1.216   2.686   4.075
 1043SOL    HW215161   1.298   2.703   3.934
 1044SOL     OW15162   0.083   3.120   4.746
 1044SOL    HW115163   0.078   3.119   4.846
 1044SOL    HW215164   0.000   3.079   4.708
 1045SOL     OW15165   0.688   3.524   5.440
 1045SOL    HW115166   0.632   3.605   5.449
 1045SOL    HW215167   0.740   3.528   5.354
 1046SOL     OW15168   1.726   1.997   4.247
 1046SOL    HW115169   1.799   1.980   4.180
 1046SOL    HW215170   1.695   1.910   4.285
 1047SOL     OW15171   0.672   3.478   3.878
 1047SOL    HW115172   0.681   3.488   3.779
 1047SOL    HW215173   0.632   3.389   3.899
 1048SOL     OW15174   1.841   2.037   4.687
 1048SOL    HW115175   1.880   1.952   4.651
 1048SOL    HW215176   1.743   2.039   4.668
 1049SOL     OW15177   0.263   2.188   4.444
 1049SOL    HW115178   0.184   2.239   4.410
 1049SOL    HW215179   0.254   2.173   4.542
 1050SOL     OW15180   1.614   3.154   5.013
 1050SOL    HW115181   1.674   3.157   5.093
 1050SOL    HW215182   1.539   3.218   5.026
 1051SOL     OW15183   1.039   2.960   4.420
 1051SOL    HW115184   0.969   2.913   4.474
 1051SOL    HW215185   1.098   2.892   4.377
 1052SOL     OW15186   0.672   2.065   5.213
 1052SOL    HW115187   0.762   2.049   5.173
 1052SOL    HW215188   0.680   2.070   5.312
 1053SOL     OW15189   0.075   2.207   3.757
 1053SOL    HW115190  -0.017   2.179   3.728
 1053SOL    HW215191   0.106   2.284   3.701
 1054SOL     OW15192   0.072   2.028   4.042
 1054SOL    HW115193   0.055   2.111   3.988
 1054SOL    HW215194   0.162   1.991   4.020
 1055SOL     OW15195   1.183   3.197   3.843
 1055SOL    HW115196   1.084   3.186   3.845
 1055SOL    HW215197   1.217   3.212   3.936
 1056SOL     OW15198   1.450   3.082   5.357
 1056SOL    HW115199   1.441   3.072   5.456
 1056SOL    HW215200   1.546   3.075   5.331
 1057SOL     OW15201   1.674   2.745   4.978
 1057SOL    HW115202   1.647   2.656   4.941
 1057SOL    HW215203   1.675   2.813   4.905
 1058SOL     OW15204   0.594   2.607   4.376
 1058SOL    HW115205   0.644   2.692   4.357
 1058SOL    HW215206   0.506   2.609   4.328
 1059SOL     OW15207   0.859   3.236   3.740
 1059SOL    HW115208   0.813   3.251   3.828
 1059SOL    HW215209   0.903   3.321   3.710
 1060SOL     OW15210   0.079   3.102   4.377
 1060SOL    HW115211   0.078   3.055   4.465
 1060SOL    HW215212   0.161   3.074   4.326
 1061SOL     OW15213   0.317   2.409   5.004
 1061SOL    HW115214   0.355   2.350   5.076
 1061SOL    HW215215   0.357   2.383   4.916
 1062SOL     OW15216   1.424   2.076   4.836
 1062SOL    HW115217   1.476   2.011   4.891
 1062SOL    HW215218   1.375   2.139   4.897
 1063SOL     OW15219   0.618   3.429   5.008
 1063SOL    HW115220   0.613   3.511   5.065
 1063SOL    HW215221   0.707   3.426   4.963
 1064SOL     OW15222   1.352   1.914   3.892
 1064SOL    HW115223   1.387   1.873   3.808
 1064SOL    HW215224   1.262   1.876   3.912
 1065SOL     OW15225   1.593   2.083   4.606
 1065SOL    HW115226   1.509   2.082   4.660
 1065SOL    HW215227   1.595   2.166   4.550
 1066SOL     OW15228   0.039   2.939   4.024
 1066SOL    HW115229   0.138   2.928   4.015
 1066SOL    HW215230  -0.001   2.853   4.056
 1067SOL     OW15231   0.225   2.137   6.582
 1067SOL    HW115232   0.260   2.120   6.674
 1067SOL    HW215233   0.137   2.092   6.570
 1068SOL     OW15234   0.019   2.230   6.233
 1068SOL    HW115235  -0.063   2.273   6.272
 1068SOL    HW215236  -0.009   2.157   6.170
 1069SOL     OW15237   0.569   3.137   6.751
 1069SOL    HW115238   0.476   3.130   6.714
 1069SOL    HW215239   0.580   3.226   6.795
 1070SOL     OW15240   1.555   3.373   6.289
 1070SOL    HW115241   1.498   3.357   6.370
 1070SOL    HW215242   1.496   3.383   6.209
 1071SOL     OW15243   1.135   2.565   6.303
 1071SOL    HW115244   1.192   2.643   6.278
 1071SOL    HW215245   1.075   2.591   6.379
 1072SOL     OW15246   1.755   2.469   5.817
 1072SOL    HW115247   1.743   2.456   5.718
 1072SOL    HW215248   1.725   2.388   5.866
 1073SOL     OW15249   0.768   3.006   6.609
 1073SOL    HW115250   0.690   3.023   6.669
 1073SOL    HW215251   0.802   3.093   6.573
 1074SOL     OW15252   0.850   2.660   7.409
 1074SOL    HW115253   0.846   2.736   7.474
 1074SOL    HW215254   0.872   2.696   7.318
 1075SOL     OW15255   0.685   2.874   6.251
 1075SOL    HW115256   0.754   2.858   6.321
 1075SOL    HW215257   0.612   2.931   6.289
 1076SOL     OW15258   0.686   3.023   7.389
 1076SOL    HW115259   0.746   3.102   7.403
 1076SOL    HW215260   0.600   3.054   7.348
 1077SOL     OW15261   0.335   3.297   6.647
 1077SOL    HW115262   0.257   3.266   6.594
 1077SOL    HW215263   0.393   3.355   6.590
 1078SOL     OW15264   1.460   3.367   6.925
 1078SOL    HW115265   1.484   3.461   6.951
 1078SOL    HW215266   1.444   3.313   7.007
 1079SOL     OW15267   0.438   2.254   7.085
 1079SOL    HW115268   0.520   2.198   7.094
 1079SOL    HW215269   0.357   2.196   7.089
 1080SOL     OW15270   1.603   2.309   6.323
 1080SOL    HW115271   1.529   2.355   6.273
 1080SOL    HW215272   1.654   2.377   6.376
 1081SOL     OW15273   1.127   3.203   7.276
 1081SOL    HW115274   1.174   3.203   7.364
 1081SOL    HW215275   1.079   3.116   7.265
 1082SOL     OW15276   0.230   3.296   6.124
 1082SOL    HW115277   0.204   3.392   6.124
 1082SOL    HW215278   0.159   3.242   6.169
 1083SOL     OW15279   0.240   2.953   6.472
 1083SOL    HW115280   0.254   2.869   6.524
 1083SOL    HW215281   0.185   3.017   6.527
 1084SOL     OW15282   0.620   3.648   7.025
 1084SOL    HW115283   0.528   3.631   7.060
 1084SOL    HW215284   0.648   3.740   7.051
 1085SOL     OW15285   0.606   2.826   5.709
 1085SOL    HW115286   0.613   2.910   5.655
 1085SOL    HW215287   0.652   2.839   5.797
 1086SOL     OW15288   1.594   1.976   7.066
 1086SOL    HW115289   1.576   2.043   6.994
 1086SOL    HW215290   1.591   2.022   7.155
 1087SOL     OW15291   0.122   2.505   6.149
 1087SOL    HW115292   0.077   2.417   6.166
 1087SOL    HW215293   0.121   2.559   6.233
 1088SOL     OW15294   1.842   3.629   5.945
 1088SOL    HW115295   1.896   3.600   6.025
 1088SOL    HW215296   1.872   3.719   5.916
 1089SOL     OW15297   1.689   2.784   6.198
 1089SOL    HW115298   1.784   2.755   6.206
 1089SOL    HW215299   1.681   2.849   6.123
 1090SOL     OW15300   1.641   2.970   6.018
 1090SOL    HW115301   1.727   2.972   5.966
 1090SOL    HW215302   1.655   3.017   6.106
 1091SOL     OW15303   0.113   2.599   7.183
 1091SOL    HW115304   0.201   2.586   7.228
 1091SOL    HW215305   0.100   2.696   7.161
 1092SOL     OW15306   0.613   3.227   6.312
 1092SOL    HW115307   0.564   3.140   6.321
 1092SOL    HW215308   0.590   3.270   6.225
 1093SOL     OW15309   1.293   3.090   7.009
 1093SOL    HW115310   1.330   3.017   6.951
 1093SOL    HW215311   1.345   3.095   7.094
 1094SOL     OW15312   0.809   1.866   6.088
 1094SOL    HW115313   0.849   1.957   6.079
 1094SOL    HW215314   0.709   1.874   6.094
 1095SOL     OW15315   0.197   2.838   6.850
 1095SOL    HW115316   0.286   2.793   6.836
 1095SOL    HW215317   0.124   2.773   6.831
 1096SOL     OW15318   1.525   2.861   5.776
 1096SOL    HW115319   1.462   2.785   5.789
 1096SOL    HW215320   1.573   2.879   5.862
 1097SOL     OW15321   1.187   3.654   7.202
 1097SOL    HW115322   1.211   3.714   7.126
 1097SOL    HW215323   1.194   3.559   7.172
 1098SOL     OW15324   0.317   2.113   7.387
 1098SOL    HW115325   0.388   2.184   7.393
 1098SOL    HW215326   0.229   2.152   7.415
 1099SOL     OW15327   1.466   3.279   6.539
 1099SOL    HW115328   1.407   3.285   6.619
 1099SOL    HW215329   1.451   3.191   6.493
 1100SOL     OW15330   1.667   3.576   6.158
 1100SOL    HW115331   1.626   3.553   6.070
 1100SOL    HW215332   1.649   3.502   6.223
 1101SOL     OW15333   1.281   2.207   6.530
 1101SOL    HW115334   1.195   2.157   6.517
 1101SOL    HW215335   1.343   2.153   6.586
 1102SOL     OW15336   0.807   2.467   7.051
 1102SOL    HW115337   0.760   2.464   7.140
 1102SOL    HW215338   0.756   2.412   6.985
 1103SOL     OW15339   0.973   2.752   7.158
 1103SOL    HW115340   1.019   2.668   7.129
 1103SOL    HW215341   0.917   2.786   7.083
 1104SOL     OW15342   0.991   2.272   6.828
 1104SOL    HW115343   0.914   2.306   6.882
 1104SOL    HW215344   0.957   2.221   6.749
 1105SOL     OW15345   1.041   2.563   6.015
 1105SOL    HW115346   1.067   2.559   6.111
 1105SOL    HW215347   0.956   2.512   6.001
 1106SOL     OW15348   0.076   2.673   6.375
 1106SOL    HW115349   0.175   2.661   6.384
 1106SOL    HW215350   0.052   2.768   6.396
 1107SOL     OW15351   0.130   3.683   7.157
 1107SOL    HW115352   0.120   3.668   7.256
 1107SOL    HW215353   0.044   3.719   7.121
 1108SOL     OW15354   1.362   3.006   6.131
 1108SOL    HW115355   1.445   2.977   6.083
 1108SOL    HW215356   1.313   3.073   6.075
 1109SOL     OW15357   0.550   2.058   6.471
 1109SOL    HW115358   0.545   2.053   6.571
 1109SOL    HW215359   0.552   2.154   6.442
 1110SOL     OW15360   1.008   3.318   6.063
 1110SOL    HW115361   0.962   3.390   6.011
 1110SOL    HW215362   1.004   3.338   6.161
 1111SOL     OW15363   0.351   3.663   6.439
 1111SOL    HW115364   0.401   3.577   6.445
 1111SOL    HW215365   0.416   3.740   6.436
 1112SOL     OW15366   1.795   2.928   6.459
 1112SOL    HW115367   1.733   2.913   6.383
 1112SOL    HW215368   1.743   2.939   6.544
 1113SOL     OW15369   1.227   3.412   7.092
 1113SOL    HW115370   1.233   3.335   7.156
 1113SOL    HW215371   1.175   3.386   7.012
 1114SOL     OW15372   1.458   2.597   6.314
 1114SOL    HW115373   1.453   2.532   6.389
 1114SOL    HW215374   1.538   2.656   6.327
 1115SOL     OW15375   0.461   3.128   7.313
 1115SOL    HW115376   0.411   3.129   7.227
 1115SOL    HW215377   0.398   3.110   7.389
 1116SOL     OW15378   0.202   2.147   7.084
 1116SOL    HW115379   0.122   2.207   7.071
 1116SOL    HW215380   0.192   2.098   7.170
 1117SOL     OW15381   0.464   3.605   5.909
 1117SOL    HW115382   0.497   3.644   5.995
 1117SOL    HW215383   0.540   3.598   5.844
 1118SOL     OW15384   1.400   1.969   6.012
 1118SOL    HW115385   1.376   1.932   5.922
 1118SOL    HW215386   1.499   1.985   6.016
 1119SOL     OW15387   0.249   3.647   6.827
 1119SOL    HW115388   0.306   3.582   6.877
 1119SOL    HW215389   0.233   3.614   6.734
 1120SOL     OW15390   0.940   3.560   6.490
 1120SOL    HW115391   1.020   3.503   6.511
 1120SOL    HW215392   0.891   3.520   6.413
 1121SOL     OW15393   0.382   2.562   6.066
 1121SOL    HW115394   0.427   2.472   6.063
 1121SOL    HW215395   0.288   2.551   6.099
 1122SOL     OW15396   0.781   2.126   7.335
 1122SOL    HW115397   0.848   2.065   7.378
 1122SOL    HW215398   0.708   2.145   7.400
 1123SOL     OW15399   0.888   3.376   6.781
 1123SOL    HW115400   0.865   3.351   6.687
 1123SOL    HW215401   0.949   3.307   6.820
 1124SOL     OW15402   1.351   2.452   7.019
 1124SOL    HW115403   1.379   2.409   7.104
 1124SOL    HW215404   1.376   2.548   7.020
 1125SOL     OW15405   0.803   3.264   6.510
 1125SOL    HW115406   0.893   3.278   6.468
 1125SOL    HW215407   0.732   3.266   6.439
 1126SOL     OW15408   0.922   2.365   6.485
 1126SOL    HW115409   0.897   2.356   6.389
 1126SOL    HW215410   0.970   2.283   6.516
 1127SOL     OW15411   0.539   1.926   6.098
 1127SOL    HW115412   0.458   1.927   6.156
 1127SOL    HW215413   0.542   2.009   6.043
 1128SOL     OW15414   1.434   3.050   5.627
 1128SOL    HW115415   1.466   2.974   5.684
 1128SOL    HW215416   1.342   3.077   5.657
 1129SOL     OW15417   0.297   1.897   5.757
 1129SOL    HW115418   0.346   1.981   5.736
 1129SOL    HW215419   0.359   1.832   5.802
 1130SOL     OW15420   0.935   2.098   6.066
 1130SOL    HW115421   0.887   2.139   5.988
 1130SOL    HW215422   1.034   2.096   6.047
 1131SOL     OW15423   1.076   2.545   7.050
 1131SOL    HW115424   0.996   2.484   7.053
 1131SOL    HW215425   1.157   2.492   7.026
 1132SOL     OW15426   1.227   3.432   6.379
 1132SOL    HW115427   1.248   3.506   6.314
 1132SOL    HW215428   1.295   3.432   6.452
 1133SOL     OW15429   0.459   3.014   6.327
 1133SOL    HW115430   0.388   2.987   6.392
 1133SOL    HW215431   0.433   2.986   6.234
 1134SOL     OW15432   1.271   3.659   6.177
 1134SOL    HW115433   1.315   3.723   6.113
 1134SOL    HW215434   1.221   3.711   6.247
 1135SOL     OW15435   0.078   2.418   6.972
 1135SOL    HW115436   0.170   2.417   6.931
 1135SOL    HW215437   0.072   2.492   7.039
 1136SOL     OW15438   0.561   2.084   6.733
 1136SOL    HW115439   0.599   2.000   6.770
 1136SOL    HW215440   0.473   2.103   6.777
 1137SOL     OW15441   0.866   2.316   6.228
 1137SOL    HW115442   0.834   2.388   6.166
 1137SOL    HW215443   0.890   2.235   6.175
 1138SOL     OW15444   1.017   1.901   6.339
 1138SOL    HW115445   0.945   1.906   6.270
 1138SOL    HW215446   0.993   1.832   6.408
 1139SOL     OW15447   1.429   3.035   6.453
 1139SOL    HW115448   1.374   2.951   6.446
 1139SOL    HW215449   1.455   3.064   6.361
 1140SOL     OW15450   1.466   2.452   6.578
 1140SOL    HW115451   1.436   2.357   6.585
 1140SOL    HW215452   1.539   2.468   6.644
 1141SOL     OW15453   1.857   2.695   5.963
 1141SOL    HW115454   1.899   2.631   6.027
 1141SOL    HW215455   1.819   2.644   5.885
 1142SOL     OW15456   0.488   3.247   5.760
 1142SOL    HW115457   0.401   3.232   5.807
 1142SOL    HW215458   0.471   3.273   5.665
 1143SOL     OW15459   1.664   3.142   6.243
 1143SOL    HW115460   1.763   3.150   6.257
 1143SOL    HW215461   1.619   3.226   6.274
 1144SOL     OW15462   1.754   3.085   7.174
 1144SOL    HW115463   1.845   3.046   7.161
 1144SOL    HW215464   1.762   3.181   7.198
 1145SOL     OW15465   1.064   3.209   6.926
 1145SOL    HW115466   0.984   3.186   6.981
 1145SOL    HW215467   1.147   3.183   6.975
 1146SOL     OW15468   1.592   3.491   7.211
 1146SOL    HW115469   1.619   3.525   7.121
 1146SOL    HW215470   1.671   3.453   7.257
 1147SOL     OW15471   1.111   3.057   6.686
 1147SOL    HW115472   1.071   3.101   6.767
 1147SOL    HW215473   1.070   3.094   6.603
 1148SOL     OW15474   1.638   2.961   6.665
 1148SOL    HW115475   1.643   3.042   6.724
 1148SOL    HW215476   1.552   2.963   6.614
 1149SOL     OW15477   0.915   1.951   6.988
 1149SOL    HW115478   0.940   1.931   6.893
 1149SOL    HW215479   0.987   2.007   7.030
 1150SOL     OW15480   0.980   2.978   7.305
 1150SOL    HW115481   0.881   2.984   7.315
 1150SOL    HW215482   1.003   2.898   7.249
 1151SOL     OW15483   0.705   2.912   5.954
 1151SOL    HW115484   0.691   2.919   6.053
 1151SOL    HW215485   0.789   2.861   5.936
 1152SOL     OW15486   0.410   2.675   6.837
 1152SOL    HW115487   0.496   2.687   6.887
 1152SOL    HW215488   0.368   2.588   6.864
 1153SOL     OW15489   1.274   2.248   6.848
 1153SOL    HW115490   1.295   2.322   6.912
 1153SOL    HW215491   1.185   2.265   6.805
 1154SOL     OW15492   0.064   3.426   6.917
 1154SOL    HW115493   0.018   3.508   6.883
 1154SOL    HW215494   0.162   3.445   6.926
 1155SOL     OW15495   0.367   2.962   6.087
 1155SOL    HW115496   0.360   3.045   6.031
 1155SOL    HW215497   0.371   2.882   6.027
 1156SOL     OW15498   0.566   2.399   6.451
 1156SOL    HW115499   0.578   2.465   6.377
 1156SOL    HW215500   0.612   2.433   6.534
 1157SOL     OW15501   1.252   3.210   5.974
 1157SOL    HW115502   1.302   3.287   6.014
 1157SOL    HW215503   1.157   3.212   6.006
 1158SOL     OW15504   1.272   3.307   6.728
 1158SOL    HW115505   1.319   3.320   6.815
 1158SOL    HW215506   1.206   3.233   6.737
 1159SOL     OW15507   1.582   2.501   6.058
 1159SOL    HW115508   1.551   2.562   6.131
 1159SOL    HW215509   1.632   2.553   5.989
 1160SOL     OW15510   0.354   3.372   6.915
 1160SOL    HW115511   0.333   3.328   6.828
 1160SOL    HW215512   0.451   3.398   6.918
 1161SOL     OW15513   0.402   2.613   7.184
 1161SOL    HW115514   0.470   2.668   7.137
 1161SOL    HW215515   0.442   2.525   7.211
 1162SOL     OW15516   1.587   2.641   7.256
 1162SOL    HW115517   1.495   2.679   7.251
 1162SOL    HW215518   1.647   2.688   7.191
 1163SOL     OW15519   0.573   2.732   6.615
 1163SOL    HW115520   0.617   2.821   6.606
 1163SOL    HW215521   0.510   2.732   6.692
 1164SOL     OW15522   1.360   2.724   6.631
 1164SOL    HW115523   1.285   2.724   6.565
 1164SOL    HW215524   1.397   2.632   6.640
 1165SOL     OW15525   0.307   2.075   6.817
 1165SOL    HW115526   0.284   2.112   6.907
 1165SOL    HW215527   0.277   1.980   6.811
 1166SOL     OW15528   0.037   3.172   6.868
 1166SOL    HW115529   0.090   3.123   6.936
 1166SOL    HW215530   0.059   3.270   6.873
 1167SOL     OW15531   0.732   2.496   6.650
 1167SOL    HW115532   0.791   2.470   6.574
 1167SOL    HW215533   0.704   2.592   6.639
 1168SOL     OW15534   1.728   2.797   7.440
 1168SOL    HW115535   1.682   2.790   7.351
 1168SOL    HW215536   1.666   2.841   7.506
 1169SOL     OW15537   0.307   1.925   6.204
 1169SOL    HW115538   0.296   2.019   6.237
 1169SOL    HW215539   0.302   1.862   6.281
 1170SOL     OW15540   1.622   2.229   5.960
 1170SOL    HW115541   1.624   2.153   6.024
 1170SOL    HW215542   1.574   2.306   6.000
 1171SOL     OW15543   1.023   2.628   6.552
 1171SOL    HW115544   1.038   2.649   6.648
 1171SOL    HW215545   0.993   2.533   6.543
 1172SOL     OW15546   0.980   3.435   7.286
 1172SOL    HW115547   0.960   3.479   7.198
 1172SOL    HW215548   1.019   3.344   7.270
 1173SOL     OW15549   1.859   3.380   7.191
 1173SOL    HW115550   1.873   3.407   7.096
 1173SOL    HW215551   1.942   3.402   7.244
 1174SOL     OW15552   0.350   2.760   7.390
 1174SOL    HW115553   0.426   2.804   7.438
 1174SOL    HW215554   0.385   2.713   7.308
 1175SOL     OW15555   1.303   2.700   5.628
 1175SOL    HW115556   1.337   2.607   5.643
 1175SOL    HW215557   1.321   2.727   5.533
 1176SOL     OW15558   1.068   3.195   6.435
 1176SOL    HW115559   1.075   3.111   6.380
 1176SOL    HW215560   1.130   3.264   6.399
 1177SOL     OW15561   0.319   2.672   6.535
 1177SOL    HW115562   0.412   2.708   6.540
 1177SOL    HW215563   0.313   2.587   6.587
 1178SOL     OW15564   0.339   2.371   6.592
 1178SOL    HW115565   0.287   2.288   6.575
 1178SOL    HW215566   0.416   2.376   6.528
 1179SOL     OW15567   1.138   2.242   7.264
 1179SOL    HW115568   1.093   2.305   7.328
 1179SOL    HW215569   1.231   2.273   7.247
 1180SOL     OW15570   1.160   2.069   7.063
 1180SOL    HW115571   1.160   2.133   7.140
 1180SOL    HW215572   1.188   2.117   6.980
 1181SOL     OW15573   0.088   3.663   6.513
 1181SOL    HW115574   0.046   3.577   6.486
 1181SOL    HW215575   0.182   3.666   6.479
 1182SOL     OW15576   0.504   3.430   6.496
 1182SOL    HW115577   0.570   3.504   6.505
 1182SOL    HW215578   0.548   3.351   6.454
 1183SOL     OW15579   1.002   2.658   6.824
 1183SOL    HW115580   1.043   2.626   6.910
 1183SOL    HW215581   0.906   2.631   6.821
 1184SOL     OW15582   0.040   2.406   6.700
 1184SOL    HW115583   0.125   2.373   6.659
 1184SOL    HW215584   0.053   2.421   6.798
 1185SOL     OW15585   1.657   2.466   6.792
 1185SOL    HW115586   1.619   2.397   6.854
 1185SOL    HW215587   1.739   2.430   6.748
 1186SOL     OW15588   0.252   3.426   7.330
 1186SOL    HW115589   0.222   3.483   7.406
 1186SOL    HW215590   0.245   3.329   7.356
 1187SOL     OW15591   0.671   2.326   6.855
 1187SOL    HW115592   0.637   2.237   6.825
 1187SOL    HW215593   0.697   2.380   6.775
 1188SOL     OW15594   0.930   3.540   7.051
 1188SOL    HW115595   0.906   3.522   6.956
 1188SOL    HW215596   0.960   3.634   7.061
 1189SOL     OW15597   0.159   2.999   7.052
 1189SOL    HW115598   0.181   2.938   7.128
 1189SOL    HW215599   0.169   2.950   6.966
 1190SOL     OW15600   1.347   2.921   6.820
 1190SOL    HW115601   1.371   2.858   6.746
 1190SOL    HW215602   1.257   2.961   6.802
 1191SOL     OW15603   1.302   2.717   5.895
 1191SOL    HW115604   1.216   2.686   5.937
 1191SOL    HW215605   1.298   2.703   5.796
 1192SOL     OW15606   1.759   3.609   6.740
 1192SOL    HW115607   1.820   3.639   6.667
 1192SOL    HW215608   1.721   3.520   6.718
 1193SOL     OW15609   1.252   3.593   6.714
 1193SOL    HW115610   1.336   3.598   6.660
 1193SOL    HW215611   1.229   3.497   6.732
 1194SOL     OW15612   0.083   3.120   6.608
 1194SOL    HW115613   0.078   3.119   6.708
 1194SOL    HW215614   0.000   3.079   6.570
 1195SOL     OW15615   0.688   3.524   7.302
 1195SOL    HW115616   0.632   3.605   7.311
 1195SOL    HW215617   0.740   3.528   7.216
 1196SOL     OW15618   1.726   1.997   6.109
 1196SOL    HW115619   1.799   1.980   6.042
 1196SOL    HW215620   1.695   1.910   6.147
 1197SOL     OW15621   1.388   3.435   6.063
 1197SOL    HW115622   1.455   3.447   5.989
 1197SOL    HW215623   1.348   3.524   6.086
 1198SOL     OW15624   1.280   2.789   6.258
 1198SOL    HW115625   1.340   2.708   6.260
 1198SOL    HW215626   1.320   2.858   6.198
 1199SOL     OW15627   0.830   3.135   7.008
 1199SOL    HW115628   0.825   3.168   7.103
 1199SOL    HW215629   0.744   3.154   6.962
 1200SOL     OW15630   0.672   3.478   5.740
 1200SOL    HW115631   0.681   3.488   5.641
 1200SOL    HW215632   0.632   3.389   5.761
 1201SOL     OW15633   1.650   3.582   6.980
 1201SOL    HW115634   1.703   3.592   6.896
 1201SOL    HW215635   1.623   3.672   7.014
 1202SOL     OW15636   1.841   2.037   6.549
 1202SOL    HW115637   1.880   1.952   6.513
 1202SOL    HW215638   1.743   2.039   6.530
 1203SOL     OW15639   0.263   2.188   6.306
 1203SOL    HW115640   0.184   2.239   6.272
 1203SOL    HW215641   0.254   2.173   6.404
 1204SOL     OW15642   0.822   2.864   6.958
 1204SOL    HW115643   0.862   2.863   6.866
 1204SOL    HW215644   0.832   2.956   6.998
 1205SOL     OW15645   0.372   3.150   7.076
 1205SOL    HW115646   0.359   3.243   7.042
 1205SOL    HW215647   0.288   3.098   7.063
 1206SOL     OW15648   1.614   3.154   6.875
 1206SOL    HW115649   1.674   3.157   6.955
 1206SOL    HW215650   1.539   3.218   6.888
 1207SOL     OW15651   1.039   2.960   6.282
 1207SOL    HW115652   0.969   2.913   6.336
 1207SOL    HW215653   1.098   2.892   6.239
 1208SOL     OW15654   1.014   2.098   6.557
 1208SOL    HW115655   1.006   2.062   6.464
 1208SOL    HW215656   1.012   2.022   6.622
 1209SOL     OW15657   0.590   3.349   6.077
 1209SOL    HW115658   0.632   3.291   6.007
 1209SOL    HW215659   0.546   3.428   6.033
 1210SOL     OW15660   1.709   2.247   6.967
 1210SOL    HW115661   1.782   2.316   6.971
 1210SOL    HW215662   1.737   2.172   6.908
 1211SOL     OW15663   0.105   2.875   7.312
 1211SOL    HW115664   0.028   2.842   7.366
 1211SOL    HW215665   0.190   2.845   7.354
 1212SOL     OW15666   0.672   2.065   7.075
 1212SOL    HW115667   0.762   2.049   7.035
 1212SOL    HW215668   0.680   2.070   7.174
 1213SOL     OW15669   0.075   2.207   5.619
 1213SOL    HW115670  -0.017   2.179   5.590
 1213SOL    HW215671   0.106   2.284   5.563
 1214SOL     OW15672   1.440   2.718   6.984
 1214SOL    HW115673   1.383   2.770   6.921
 1214SOL    HW215674   1.536   2.730   6.960
 1215SOL     OW15675   0.072   2.028   5.904
 1215SOL    HW115676   0.055   2.111   5.850
 1215SOL    HW215677   0.162   1.991   5.882
 1216SOL     OW15678   1.183   3.197   5.705
 1216SOL    HW115679   1.084   3.186   5.707
 1216SOL    HW215680   1.217   3.212   5.798
 1217SOL     OW15681   0.613   2.704   7.017
 1217SOL    HW115682   0.669   2.785   7.000
 1217SOL    HW215683   0.672   2.624   7.020
 1218SOL     OW15684   1.493   3.629   6.545
 1218SOL    HW115685   1.526   3.693   6.476
 1218SOL    HW215686   1.559   3.623   6.620
 1219SOL     OW15687   0.716   2.427   7.294
 1219SOL    HW115688   0.735   2.492   7.368
 1219SOL    HW215689   0.776   2.347   7.303
 1220SOL     OW15690   0.390   3.603   7.146
 1220SOL    HW115691   0.299   3.644   7.144
 1220SOL    HW215692   0.383   3.509   7.178
 1221SOL     OW15693   1.674   2.745   6.840
 1221SOL    HW115694   1.647   2.656   6.803
 1221SOL    HW215695   1.675   2.813   6.767
 1222SOL     OW15696   1.225   2.187   6.035
 1222SOL    HW115697   1.290   2.113   6.024
 1222SOL    HW215698   1.245   2.237   6.119
 1223SOL     OW15699   0.594   2.607   6.238
 1223SOL    HW115700   0.644   2.692   6.219
 1223SOL    HW215701   0.506   2.609   6.190
 1224SOL     OW15702   1.777   2.204   7.228
 1224SOL    HW115703   1.760   2.235   7.134
 1224SOL    HW215704   1.693   2.167   7.266
 1225SOL     OW15705   1.730   2.796   7.103
 1225SOL    HW115706   1.768   2.887   7.118
 1225SOL    HW215707   1.722   2.779   7.004
 1226SOL     OW15708   0.859   3.236   5.602
 1226SOL    HW115709   0.813   3.251   5.690
 1226SOL    HW215710   0.903   3.321   5.572
 1227SOL     OW15711   0.661   3.652   6.539
 1227SOL    HW115712   0.615   3.740   6.526
 1227SOL    HW215713   0.760   3.664   6.532
 1228SOL     OW15714   0.859   2.818   6.447
 1228SOL    HW115715   0.913   2.749   6.495
 1228SOL    HW215716   0.827   2.887   6.513
 1229SOL     OW15717   1.083   2.846   5.673
 1229SOL    HW115718   1.060   2.899   5.591
 1229SOL    HW215719   1.164   2.790   5.654
 1230SOL     OW15720   1.861   3.431   6.437
 1230SOL    HW115721   1.790   3.419   6.367
 1230SOL    HW215722   1.862   3.352   6.497
 1231SOL     OW15723   0.221   3.176   7.430
 1231SOL    HW115724   0.156   3.103   7.409
 1231SOL    HW215725   0.225   3.190   7.528
 1232SOL     OW15726   0.079   3.102   6.239
 1232SOL    HW115727   0.078   3.055   6.327
 1232SOL    HW215728   0.161   3.074   6.188
 1233SOL     OW15729   0.672   3.253   7.210
 1233SOL    HW115730   0.594   3.203   7.248
 1233SOL    HW215731   0.669   3.348   7.241
 1234SOL     OW15732   1.824   2.054   6.813
 1234SOL    HW115733   1.820   1.964   6.857
 1234SOL    HW215734   1.827   2.043   6.714
 1235SOL     OW15735   0.428   2.286   6.106
 1235SOL    HW115736   0.458   2.214   6.044
 1235SOL    HW215737   0.389   2.246   6.189
 1236SOL     OW15738   1.705   3.349   6.690
 1236SOL    HW115739   1.612   3.324   6.663
 1236SOL    HW215740   1.731   3.299   6.772
 1237SOL     OW15741   0.317   2.409   6.866
 1237SOL    HW115742   0.355   2.350   6.938
 1237SOL    HW215743   0.357   2.383   6.778
 1238SOL     OW15744   0.812   3.448   6.273
 1238SOL    HW115745   0.844   3.458   6.179
 1238SOL    HW215746   0.733   3.386   6.275
 1239SOL     OW15747   1.424   2.076   6.698
 1239SOL    HW115748   1.476   2.011   6.753
 1239SOL    HW215749   1.375   2.139   6.759
 1240SOL     OW15750   1.001   1.896   6.740
 1240SOL    HW115751   0.938   1.824   6.709
 1240SOL    HW215752   1.094   1.860   6.740
 1241SOL     OW15753   0.770   3.192   5.887
 1241SOL    HW115754   0.724   3.105   5.904
 1241SOL    HW215755   0.861   3.189   5.928
 1242SOL     OW15756   0.618   3.429   6.870
 1242SOL    HW115757   0.613   3.511   6.927
 1242SOL    HW215758   0.707   3.426   6.825
 1243SOL     OW15759   1.300   2.315   6.277
 1243SOL    HW115760   1.241   2.395   6.281
 1243SOL    HW215761   1.315   2.280   6.370
 1244SOL     OW15762   1.593   2.083   6.468
 1244SOL    HW115763   1.509   2.082   6.522
 1244SOL    HW215764   1.595   2.166   6.412
 1245SOL     OW15765   0.230   4.352   0.113
 1245SOL    HW115766   0.137   4.350   0.150
 1245SOL    HW215767   0.231   4.313   0.021
 1246SOL     OW15768   0.225   3.999   0.996
 1246SOL    HW115769   0.260   3.982   1.088
 1246SOL    HW215770   0.137   3.954   0.984
 1247SOL     OW15771   0.019   4.092   0.647
 1247SOL    HW115772  -0.063   4.135   0.686
 1247SOL    HW215773  -0.009   4.019   0.584
 1248SOL     OW15774   0.569   4.999   1.165
 1248SOL    HW115775   0.476   4.992   1.128
 1248SOL    HW215776   0.580   5.088   1.209
 1249SOL     OW15777   1.555   5.235   0.703
 1249SOL    HW115778   1.498   5.219   0.784
 1249SOL    HW215779   1.496   5.245   0.623
 1250SOL     OW15780   1.135   4.427   0.717
 1250SOL    HW115781   1.192   4.505   0.692
 1250SOL    HW215782   1.075   4.453   0.793
 1251SOL     OW15783   1.755   4.331   0.231
 1251SOL    HW115784   1.743   4.318   0.132
 1251SOL    HW215785   1.725   4.250   0.280
 1252SOL     OW15786   0.768   4.868   1.023
 1252SOL    HW115787   0.690   4.885   1.083
 1252SOL    HW215788   0.802   4.955   0.987
 1253SOL     OW15789   0.685   4.736   0.665
 1253SOL    HW115790   0.754   4.720   0.735
 1253SOL    HW215791   0.612   4.793   0.703
 1254SOL     OW15792   0.335   5.159   1.061
 1254SOL    HW115793   0.257   5.128   1.008
 1254SOL    HW215794   0.393   5.217   1.004
 1255SOL     OW15795   1.460   5.229   1.339
 1255SOL    HW115796   1.484   5.323   1.365
 1255SOL    HW215797   1.444   5.175   1.421
 1256SOL     OW15798   1.603   4.171   0.737
 1256SOL    HW115799   1.529   4.217   0.687
 1256SOL    HW215800   1.654   4.239   0.790
 1257SOL     OW15801   0.231   5.437   0.483
 1257SOL    HW115802   0.265   5.514   0.537
 1257SOL    HW215803   0.275   5.437   0.393
 1258SOL     OW15804   0.230   5.158   0.538
 1258SOL    HW115805   0.204   5.254   0.538
 1258SOL    HW215806   0.159   5.104   0.583
 1259SOL     OW15807   0.240   4.815   0.886
 1259SOL    HW115808   0.254   4.731   0.938
 1259SOL    HW215809   0.185   4.879   0.941
 1260SOL     OW15810   0.606   4.688   0.123
 1260SOL    HW115811   0.613   4.772   0.069
 1260SOL    HW215812   0.652   4.701   0.211
 1261SOL     OW15813   1.594   3.838   1.480
 1261SOL    HW115814   1.576   3.905   1.408
 1261SOL    HW215815   1.591   3.884   1.569
 1262SOL     OW15816   0.122   4.367   0.563
 1262SOL    HW115817   0.077   4.279   0.580
 1262SOL    HW215818   0.121   4.421   0.647
 1263SOL     OW15819   1.842   5.491   0.359
 1263SOL    HW115820   1.896   5.462   0.439
 1263SOL    HW215821   1.872   5.581   0.330
 1264SOL     OW15822   0.027   5.320   0.117
 1264SOL    HW115823   0.008   5.224   0.138
 1264SOL    HW215824  -0.006   5.378   0.192
 1265SOL     OW15825   1.689   4.646   0.612
 1265SOL    HW115826   1.784   4.617   0.620
 1265SOL    HW215827   1.681   4.711   0.537
 1266SOL     OW15828   1.641   4.832   0.432
 1266SOL    HW115829   1.727   4.834   0.380
 1266SOL    HW215830   1.655   4.879   0.520
 1267SOL     OW15831   0.613   5.089   0.726
 1267SOL    HW115832   0.564   5.002   0.735
 1267SOL    HW215833   0.590   5.132   0.639
 1268SOL     OW15834   0.809   3.728   0.502
 1268SOL    HW115835   0.849   3.819   0.493
 1268SOL    HW215836   0.709   3.736   0.508
 1269SOL     OW15837   0.197   4.700   1.264
 1269SOL    HW115838   0.286   4.655   1.250
 1269SOL    HW215839   0.124   4.635   1.245
 1270SOL     OW15840   1.525   4.723   0.190
 1270SOL    HW115841   1.462   4.647   0.203
 1270SOL    HW215842   1.573   4.741   0.276
 1271SOL     OW15843   1.187   5.516   1.616
 1271SOL    HW115844   1.211   5.576   1.540
 1271SOL    HW215845   1.194   5.421   1.586
 1272SOL     OW15846   1.466   5.141   0.953
 1272SOL    HW115847   1.407   5.147   1.033
 1272SOL    HW215848   1.451   5.053   0.907
 1273SOL     OW15849   1.667   5.438   0.572
 1273SOL    HW115850   1.626   5.415   0.484
 1273SOL    HW215851   1.649   5.364   0.637
 1274SOL     OW15852   0.598   4.453   0.270
 1274SOL    HW115853   0.622   4.522   0.202
 1274SOL    HW215854   0.520   4.486   0.324
 1275SOL     OW15855   1.281   4.069   0.944
 1275SOL    HW115856   1.195   4.019   0.931
 1275SOL    HW215857   1.343   4.015   1.000
 1276SOL     OW15858   1.576   5.386   0.307
 1276SOL    HW115859   1.665   5.432   0.310
 1276SOL    HW215860   1.555   5.362   0.212
 1277SOL     OW15861   0.807   4.329   1.465
 1277SOL    HW115862   0.760   4.326   1.554
 1277SOL    HW215863   0.756   4.274   1.399
 1278SOL     OW15864   1.394   4.193   1.674
 1278SOL    HW115865   1.374   4.236   1.762
 1278SOL    HW215866   1.472   4.131   1.683
 1279SOL     OW15867   0.973   4.614   1.572
 1279SOL    HW115868   1.019   4.530   1.543
 1279SOL    HW215869   0.917   4.648   1.497
 1280SOL     OW15870   1.041   4.425   0.429
 1280SOL    HW115871   1.067   4.421   0.525
 1280SOL    HW215872   0.956   4.374   0.415
 1281SOL     OW15873   0.076   4.535   0.789
 1281SOL    HW115874   0.175   4.523   0.798
 1281SOL    HW215875   0.052   4.630   0.810
 1282SOL     OW15876   0.130   5.545   1.571
 1282SOL    HW115877   0.120   5.530   1.670
 1282SOL    HW215878   0.044   5.581   1.535
 1283SOL     OW15879   0.865   4.072   0.195
 1283SOL    HW115880   0.924   4.135   0.146
 1283SOL    HW215881   0.884   3.978   0.166
 1284SOL     OW15882   1.362   4.868   0.545
 1284SOL    HW115883   1.445   4.839   0.497
 1284SOL    HW215884   1.313   4.935   0.489
 1285SOL     OW15885   0.550   3.920   0.885
 1285SOL    HW115886   0.545   3.915   0.985
 1285SOL    HW215887   0.552   4.016   0.856
 1286SOL     OW15888   1.008   5.180   0.477
 1286SOL    HW115889   0.962   5.252   0.425
 1286SOL    HW215890   1.004   5.200   0.575
 1287SOL     OW15891   0.351   5.525   0.853
 1287SOL    HW115892   0.401   5.439   0.859
 1287SOL    HW215893   0.416   5.602   0.850
 1288SOL     OW15894   1.795   4.790   0.873
 1288SOL    HW115895   1.733   4.775   0.797
 1288SOL    HW215896   1.743   4.801   0.958
 1289SOL     OW15897   1.227   5.274   1.506
 1289SOL    HW115898   1.233   5.197   1.570
 1289SOL    HW215899   1.175   5.248   1.426
 1290SOL     OW15900   0.321   4.667   0.242
 1290SOL    HW115901   0.403   4.706   0.200
 1290SOL    HW215902   0.294   4.585   0.193
 1291SOL     OW15903   1.458   4.459   0.728
 1291SOL    HW115904   1.453   4.394   0.803
 1291SOL    HW215905   1.538   4.518   0.741
 1292SOL     OW15906   1.111   5.500   0.237
 1292SOL    HW115907   1.051   5.438   0.287
 1292SOL    HW215908   1.142   5.456   0.152
 1293SOL     OW15909   1.632   5.101   0.081
 1293SOL    HW115910   1.600   5.195   0.071
 1293SOL    HW215911   1.556   5.038   0.069
 1294SOL     OW15912   0.464   5.467   0.323
 1294SOL    HW115913   0.497   5.506   0.409
 1294SOL    HW215914   0.540   5.460   0.258
 1295SOL     OW15915   1.400   3.831   0.426
 1295SOL    HW115916   1.376   3.794   0.336
 1295SOL    HW215917   1.499   3.847   0.430
 1296SOL     OW15918   0.940   5.422   0.904
 1296SOL    HW115919   1.020   5.365   0.925
 1296SOL    HW215920   0.891   5.382   0.827
 1297SOL     OW15921   0.382   4.424   0.480
 1297SOL    HW115922   0.427   4.334   0.477
 1297SOL    HW215923   0.288   4.413   0.513
 1298SOL     OW15924   0.614   3.846   0.117
 1298SOL    HW115925   0.712   3.824   0.124
 1298SOL    HW215926   0.583   3.829   0.024
 1299SOL     OW15927   0.781   3.988   1.749
 1299SOL    HW115928   0.848   3.927   1.792
 1299SOL    HW215929   0.708   4.007   1.814
 1300SOL     OW15930   0.888   5.238   1.195
 1300SOL    HW115931   0.865   5.213   1.101
 1300SOL    HW215932   0.949   5.169   1.234
 1301SOL     OW15933   1.351   4.314   1.433
 1301SOL    HW115934   1.379   4.271   1.518
 1301SOL    HW215935   1.376   4.410   1.434
 1302SOL     OW15936   0.803   5.126   0.924
 1302SOL    HW115937   0.893   5.140   0.882
 1302SOL    HW215938   0.732   5.128   0.853
 1303SOL     OW15939   0.922   4.227   0.899
 1303SOL    HW115940   0.897   4.218   0.803
 1303SOL    HW215941   0.970   4.145   0.930
 1304SOL     OW15942   0.539   3.788   0.512
 1304SOL    HW115943   0.458   3.789   0.570
 1304SOL    HW215944   0.542   3.871   0.457
 1305SOL     OW15945   1.434   4.912   0.041
 1305SOL    HW115946   1.466   4.836   0.098
 1305SOL    HW215947   1.342   4.939   0.071
 1306SOL     OW15948   0.297   3.759   0.171
 1306SOL    HW115949   0.346   3.843   0.150
 1306SOL    HW215950   0.359   3.694   0.216
 1307SOL     OW15951   0.935   3.960   0.480
 1307SOL    HW115952   0.887   4.001   0.402
 1307SOL    HW215953   1.034   3.958   0.461
 1308SOL     OW15954   1.076   4.407   1.464
 1308SOL    HW115955   0.996   4.346   1.467
 1308SOL    HW215956   1.157   4.354   1.440
 1309SOL     OW15957   1.227   5.294   0.793
 1309SOL    HW115958   1.248   5.368   0.728
 1309SOL    HW215959   1.295   5.294   0.866
 1310SOL     OW15960   0.459   4.876   0.741
 1310SOL    HW115961   0.388   4.849   0.806
 1310SOL    HW215962   0.433   4.848   0.648
 1311SOL     OW15963   1.271   5.521   0.591
 1311SOL    HW115964   1.315   5.585   0.527
 1311SOL    HW215965   1.221   5.573   0.661
 1312SOL     OW15966   1.032   4.273   0.016
 1312SOL    HW115967   0.991   4.355  -0.023
 1312SOL    HW215968   1.096   4.299   0.089
 1313SOL     OW15969   0.561   3.946   1.147
 1313SOL    HW115970   0.599   3.862   1.184
 1313SOL    HW215971   0.473   3.965   1.191
 1314SOL     OW15972   0.866   4.178   0.642
 1314SOL    HW115973   0.834   4.250   0.580
 1314SOL    HW215974   0.890   4.097   0.589
 1315SOL     OW15975   1.017   3.763   0.753
 1315SOL    HW115976   0.945   3.768   0.684
 1315SOL    HW215977   0.993   3.694   0.822
 1316SOL     OW15978   1.429   4.897   0.867
 1316SOL    HW115979   1.374   4.813   0.860
 1316SOL    HW215980   1.455   4.926   0.775
 1317SOL     OW15981   1.466   4.314   0.992
 1317SOL    HW115982   1.436   4.219   0.999
 1317SOL    HW215983   1.539   4.330   1.058
 1318SOL     OW15984   1.857   4.557   0.377
 1318SOL    HW115985   1.899   4.493   0.441
 1318SOL    HW215986   1.819   4.506   0.299
 1319SOL     OW15987   0.488   5.109   0.174
 1319SOL    HW115988   0.401   5.094   0.221
 1319SOL    HW215989   0.471   5.135   0.079
 1320SOL     OW15990   1.664   5.004   0.657
 1320SOL    HW115991   1.763   5.012   0.671
 1320SOL    HW215992   1.619   5.088   0.688
 1321SOL     OW15993   1.390   4.299   0.078
 1321SOL    HW115994   1.336   4.278   0.159
 1321SOL    HW215995   1.481   4.258   0.087
 1322SOL     OW15996   0.527   3.980   0.328
 1322SOL    HW115997   0.554   3.921   0.253
 1322SOL    HW215998   0.527   4.075   0.297
 1323SOL     OW15999   1.064   5.071   1.340
 1323SOL    HW116000   0.984   5.048   1.395
 1323SOL    HW216001   1.147   5.045   1.389
 1324SOL     OW16002   1.592   5.353   1.625
 1324SOL    HW116003   1.619   5.387   1.535
 1324SOL    HW216004   1.671   5.315   1.671
 1325SOL     OW16005   1.111   4.919   1.100
 1325SOL    HW116006   1.071   4.963   1.181
 1325SOL    HW216007   1.070   4.956   1.017
 1326SOL     OW16008   1.638   4.823   1.079
 1326SOL    HW116009   1.643   4.904   1.138
 1326SOL    HW216010   1.552   4.825   1.028
 1327SOL     OW16011   0.705   4.774   0.368
 1327SOL    HW116012   0.691   4.781   0.467
 1327SOL    HW216013   0.789   4.723   0.350
 1328SOL     OW16014   1.274   4.110   1.262
 1328SOL    HW116015   1.295   4.184   1.326
 1328SOL    HW216016   1.185   4.127   1.219
 1329SOL     OW16017   0.064   5.288   1.331
 1329SOL    HW116018   0.018   5.370   1.297
 1329SOL    HW216019   0.162   5.307   1.340
 1330SOL     OW16020   0.367   4.824   0.501
 1330SOL    HW116021   0.360   4.907   0.445
 1330SOL    HW216022   0.371   4.744   0.441
 1331SOL     OW16023   0.566   4.261   0.865
 1331SOL    HW116024   0.578   4.327   0.791
 1331SOL    HW216025   0.612   4.295   0.948
 1332SOL     OW16026   1.252   5.072   0.388
 1332SOL    HW116027   1.302   5.149   0.428
 1332SOL    HW216028   1.157   5.074   0.420
 1333SOL     OW16029   1.272   5.169   1.142
 1333SOL    HW116030   1.319   5.182   1.229
 1333SOL    HW216031   1.206   5.095   1.151
 1334SOL     OW16032   1.582   4.363   0.472
 1334SOL    HW116033   1.551   4.424   0.545
 1334SOL    HW216034   1.632   4.415   0.403
 1335SOL     OW16035   1.013   3.829   1.770
 1335SOL    HW116036   1.019   3.914   1.718
 1335SOL    HW216037   1.045   3.753   1.713
 1336SOL     OW16038   0.504   3.774   1.740
 1336SOL    HW116039   0.462   3.717   1.670
 1336SOL    HW216040   0.438   3.843   1.772
 1337SOL     OW16041   0.573   4.594   1.029
 1337SOL    HW116042   0.617   4.683   1.020
 1337SOL    HW216043   0.510   4.594   1.106
 1338SOL     OW16044   1.360   4.586   1.045
 1338SOL    HW116045   1.285   4.586   0.979
 1338SOL    HW216046   1.397   4.494   1.054
 1339SOL     OW16047   1.209   4.249   0.275
 1339SOL    HW116048   1.222   4.165   0.329
 1339SOL    HW216049   1.180   4.323   0.335
 1340SOL     OW16050   0.307   3.937   1.231
 1340SOL    HW116051   0.284   3.974   1.321
 1340SOL    HW216052   0.277   3.842   1.225
 1341SOL     OW16053   0.037   5.034   1.282
 1341SOL    HW116054   0.090   4.985   1.350
 1341SOL    HW216055   0.059   5.132   1.287
 1342SOL     OW16056   0.732   4.358   1.064
 1342SOL    HW116057   0.791   4.332   0.988
 1342SOL    HW216058   0.704   4.454   1.053
 1343SOL     OW16059   0.307   3.787   0.618
 1343SOL    HW116060   0.296   3.881   0.651
 1343SOL    HW216061   0.302   3.724   0.695
 1344SOL     OW16062   1.622   4.091   0.374
 1344SOL    HW116063   1.624   4.015   0.438
 1344SOL    HW216064   1.574   4.168   0.414
 1345SOL     OW16065   1.023   4.490   0.966
 1345SOL    HW116066   1.038   4.511   1.062
 1345SOL    HW216067   0.993   4.395   0.957
 1346SOL     OW16068   0.980   5.297   1.700
 1346SOL    HW116069   0.960   5.341   1.612
 1346SOL    HW216070   1.019   5.206   1.684
 1347SOL     OW16071   1.859   5.242   1.605
 1347SOL    HW116072   1.873   5.269   1.510
 1347SOL    HW216073   1.942   5.264   1.658
 1348SOL     OW16074   0.350   4.622   1.804
 1348SOL    HW116075   0.426   4.666   1.852
 1348SOL    HW216076   0.385   4.575   1.722
 1349SOL     OW16077   1.540   3.998   0.125
 1349SOL    HW116078   1.479   3.923   0.148
 1349SOL    HW216079   1.562   4.050   0.208
 1350SOL     OW16080   1.303   4.562   0.042
 1350SOL    HW116081   1.337   4.469   0.057
 1350SOL    HW216082   1.321   4.589  -0.053
 1351SOL     OW16083   1.068   5.057   0.849
 1351SOL    HW116084   1.075   4.973   0.794
 1351SOL    HW216085   1.130   5.126   0.813
 1352SOL     OW16086   0.319   4.534   0.949
 1352SOL    HW116087   0.412   4.570   0.954
 1352SOL    HW216088   0.313   4.449   1.001
 1353SOL     OW16089   0.339   4.233   1.006
 1353SOL    HW116090   0.287   4.150   0.989
 1353SOL    HW216091   0.416   4.238   0.942
 1354SOL     OW16092   0.008   5.050   0.200
 1354SOL    HW116093  -0.085   5.071   0.169
 1354SOL    HW216094   0.018   4.951   0.213
 1355SOL     OW16095   0.088   5.525   0.927
 1355SOL    HW116096   0.046   5.439   0.900
 1355SOL    HW216097   0.182   5.528   0.893
 1356SOL     OW16098   0.504   5.292   0.910
 1356SOL    HW116099   0.570   5.366   0.919
 1356SOL    HW216100   0.548   5.213   0.868
 1357SOL     OW16101   1.002   4.520   1.238
 1357SOL    HW116102   1.043   4.488   1.324
 1357SOL    HW216103   0.906   4.493   1.235
 1358SOL     OW16104   0.040   4.268   1.114
 1358SOL    HW116105   0.125   4.235   1.073
 1358SOL    HW216106   0.053   4.283   1.212
 1359SOL     OW16107   0.189   4.244   1.722
 1359SOL    HW116108   0.248   4.204   1.652
 1359SOL    HW216109   0.131   4.315   1.681
 1360SOL     OW16110   0.815   4.296   0.325
 1360SOL    HW116111   0.822   4.207   0.279
 1360SOL    HW216112   0.721   4.330   0.317
 1361SOL     OW16113   1.657   4.328   1.206
 1361SOL    HW116114   1.619   4.259   1.268
 1361SOL    HW216115   1.739   4.292   1.162
 1362SOL     OW16116   0.252   5.288   1.744
 1362SOL    HW116117   0.222   5.345   1.820
 1362SOL    HW216118   0.245   5.191   1.770
 1363SOL     OW16119   0.930   5.402   1.465
 1363SOL    HW116120   0.906   5.384   1.370
 1363SOL    HW216121   0.960   5.496   1.475
 1364SOL     OW16122   0.473   4.224   0.191
 1364SOL    HW116123   0.534   4.304   0.195
 1364SOL    HW216124   0.378   4.255   0.198
 1365SOL     OW16125   0.159   4.861   1.466
 1365SOL    HW116126   0.181   4.800   1.542
 1365SOL    HW216127   0.169   4.812   1.380
 1366SOL     OW16128   1.302   4.579   0.309
 1366SOL    HW116129   1.216   4.548   0.351
 1366SOL    HW216130   1.298   4.565   0.210
 1367SOL     OW16131   1.759   5.471   1.154
 1367SOL    HW116132   1.820   5.501   1.081
 1367SOL    HW216133   1.721   5.382   1.132
 1368SOL     OW16134   1.252   5.455   1.128
 1368SOL    HW116135   1.336   5.460   1.074
 1368SOL    HW216136   1.229   5.359   1.146
 1369SOL     OW16137   0.083   4.982   1.022
 1369SOL    HW116138   0.078   4.981   1.122
 1369SOL    HW216139   0.000   4.941   0.984
 1370SOL     OW16140   0.903   3.810   0.133
 1370SOL    HW116141   0.954   3.811   0.047
 1370SOL    HW216142   0.959   3.768   0.204
 1371SOL     OW16143   1.726   3.859   0.523
 1371SOL    HW116144   1.799   3.842   0.456
 1371SOL    HW216145   1.695   3.772   0.561
 1372SOL     OW16146   1.388   5.297   0.477
 1372SOL    HW116147   1.455   5.309   0.403
 1372SOL    HW216148   1.348   5.386   0.500
 1373SOL     OW16149   1.280   4.651   0.672
 1373SOL    HW116150   1.340   4.570   0.674
 1373SOL    HW216151   1.320   4.720   0.612
 1374SOL     OW16152   0.830   4.997   1.422
 1374SOL    HW116153   0.825   5.030   1.517
 1374SOL    HW216154   0.744   5.016   1.376
 1375SOL     OW16155   0.672   5.340   0.154
 1375SOL    HW116156   0.681   5.350   0.055
 1375SOL    HW216157   0.632   5.251   0.175
 1376SOL     OW16158   1.650   5.444   1.394
 1376SOL    HW116159   1.703   5.454   1.310
 1376SOL    HW216160   1.623   5.534   1.428
 1377SOL     OW16161   1.841   3.899   0.963
 1377SOL    HW116162   1.880   3.814   0.927
 1377SOL    HW216163   1.743   3.901   0.944
 1378SOL     OW16164   0.263   4.050   0.720
 1378SOL    HW116165   0.184   4.101   0.686
 1378SOL    HW216166   0.254   4.035   0.818
 1379SOL     OW16167   1.194   5.336   0.031
 1379SOL    HW116168   1.200   5.243   0.068
 1379SOL    HW216169   1.135   5.336  -0.049
 1380SOL     OW16170   0.822   4.726   1.372
 1380SOL    HW116171   0.862   4.725   1.280
 1380SOL    HW216172   0.832   4.818   1.412
 1381SOL     OW16173   0.916   4.634   0.291
 1381SOL    HW116174   0.979   4.672   0.223
 1381SOL    HW216175   0.956   4.551   0.330
 1382SOL     OW16176   1.504   5.331   0.044
 1382SOL    HW116177   1.412   5.368   0.051
 1382SOL    HW216178   1.542   5.351  -0.046
 1383SOL     OW16179   1.614   5.016   1.289
 1383SOL    HW116180   1.674   5.019   1.369
 1383SOL    HW216181   1.539   5.080   1.302
 1384SOL     OW16182   1.039   4.822   0.696
 1384SOL    HW116183   0.969   4.775   0.750
 1384SOL    HW216184   1.098   4.754   0.653
 1385SOL     OW16185   1.014   3.960   0.971
 1385SOL    HW116186   1.006   3.924   0.878
 1385SOL    HW216187   1.012   3.884   1.036
 1386SOL     OW16188   0.590   5.211   0.491
 1386SOL    HW116189   0.632   5.153   0.421
 1386SOL    HW216190   0.546   5.290   0.447
 1387SOL     OW16191   1.709   4.109   1.381
 1387SOL    HW116192   1.782   4.178   1.385
 1387SOL    HW216193   1.737   4.034   1.322
 1388SOL     OW16194   0.255   5.072   0.290
 1388SOL    HW116195   0.159   5.073   0.263
 1388SOL    HW216196   0.267   5.125   0.374
 1389SOL     OW16197   0.075   4.069   0.033
 1389SOL    HW116198  -0.017   4.041   0.004
 1389SOL    HW216199   0.106   4.146  -0.023
 1390SOL     OW16200   0.072   3.890   0.318
 1390SOL    HW116201   0.055   3.973   0.264
 1390SOL    HW216202   0.162   3.853   0.296
 1391SOL     OW16203   1.183   5.059   0.119
 1391SOL    HW116204   1.084   5.048   0.121
 1391SOL    HW216205   1.217   5.074   0.212
 1392SOL     OW16206   0.613   4.566   1.431
 1392SOL    HW116207   0.669   4.647   1.414
 1392SOL    HW216208   0.672   4.486   1.434
 1393SOL     OW16209   1.493   5.491   0.959
 1393SOL    HW116210   1.526   5.555   0.890
 1393SOL    HW216211   1.559   5.485   1.034
 1394SOL     OW16212   0.716   4.289   1.708
 1394SOL    HW116213   0.735   4.354   1.782
 1394SOL    HW216214   0.776   4.209   1.717
 1395SOL     OW16215   0.390   5.465   1.560
 1395SOL    HW116216   0.299   5.506   1.558
 1395SOL    HW216217   0.383   5.371   1.592
 1396SOL     OW16218   1.674   4.607   1.254
 1396SOL    HW116219   1.647   4.518   1.217
 1396SOL    HW216220   1.675   4.675   1.181
 1397SOL     OW16221   1.225   4.049   0.449
 1397SOL    HW116222   1.290   3.975   0.438
 1397SOL    HW216223   1.245   4.099   0.533
 1398SOL     OW16224   0.594   4.469   0.652
 1398SOL    HW116225   0.644   4.554   0.633
 1398SOL    HW216226   0.506   4.471   0.604
 1399SOL     OW16227   0.859   5.098   0.016
 1399SOL    HW116228   0.813   5.113   0.104
 1399SOL    HW216229   0.903   5.183  -0.014
 1400SOL     OW16230   0.661   5.514   0.953
 1400SOL    HW116231   0.615   5.602   0.940
 1400SOL    HW216232   0.760   5.526   0.946
 1401SOL     OW16233   0.859   4.680   0.861
 1401SOL    HW116234   0.913   4.611   0.909
 1401SOL    HW216235   0.827   4.749   0.927
 1402SOL     OW16236   1.083   4.708   0.087
 1402SOL    HW116237   1.060   4.761   0.005
 1402SOL    HW216238   1.164   4.652   0.068
 1403SOL     OW16239   1.861   5.293   0.851
 1403SOL    HW116240   1.790   5.281   0.781
 1403SOL    HW216241   1.862   5.214   0.911
 1404SOL     OW16242   0.079   4.964   0.653
 1404SOL    HW116243   0.078   4.917   0.741
 1404SOL    HW216244   0.161   4.936   0.602
 1405SOL     OW16245   1.824   3.916   1.227
 1405SOL    HW116246   1.820   3.826   1.271
 1405SOL    HW216247   1.827   3.905   1.128
 1406SOL     OW16248   0.428   4.148   0.520
 1406SOL    HW116249   0.458   4.076   0.458
 1406SOL    HW216250   0.389   4.108   0.603
 1407SOL     OW16251   1.705   5.211   1.104
 1407SOL    HW116252   1.612   5.186   1.077
 1407SOL    HW216253   1.731   5.161   1.186
 1408SOL     OW16254   0.812   5.310   0.687
 1408SOL    HW116255   0.844   5.320   0.593
 1408SOL    HW216256   0.733   5.248   0.689
 1409SOL     OW16257   1.424   3.938   1.112
 1409SOL    HW116258   1.476   3.873   1.167
 1409SOL    HW216259   1.375   4.001   1.173
 1410SOL     OW16260   1.001   3.758   1.154
 1410SOL    HW116261   0.938   3.686   1.123
 1410SOL    HW216262   1.094   3.722   1.154
 1411SOL     OW16263   0.770   5.054   0.301
 1411SOL    HW116264   0.724   4.967   0.318
 1411SOL    HW216265   0.861   5.051   0.342
 1412SOL     OW16266   1.352   3.776   0.168
 1412SOL    HW116267   1.387   3.735   0.084
 1412SOL    HW216268   1.262   3.738   0.188
 1413SOL     OW16269   1.300   4.177   0.691
 1413SOL    HW116270   1.241   4.257   0.695
 1413SOL    HW216271   1.315   4.142   0.784
 1414SOL     OW16272   1.593   3.945   0.882
 1414SOL    HW116273   1.509   3.944   0.936
 1414SOL    HW216274   1.595   4.028   0.826
 1415SOL     OW16275   0.039   4.801   0.300
 1415SOL    HW116276   0.138   4.790   0.291
 1415SOL    HW216277  -0.001   4.715   0.332
 1416SOL     OW16278   0.875   5.370   0.337
 1416SOL    HW116279   0.798   5.335   0.283
 1416SOL    HW216280   0.843   5.441   0.399
 1417SOL     OW16281   0.230   4.352   1.975
 1417SOL    HW116282   0.137   4.350   2.012
 1417SOL    HW216283   0.231   4.313   1.883
 1418SOL     OW16284   0.225   3.999   2.858
 1418SOL    HW116285   0.260   3.982   2.950
 1418SOL    HW216286   0.137   3.954   2.846
 1419SOL     OW16287   0.850   4.522   3.685
 1419SOL    HW116288   0.846   4.598   3.750
 1419SOL    HW216289   0.872   4.558   3.594
 1420SOL     OW16290   1.603   4.171   2.599
 1420SOL    HW116291   1.529   4.217   2.549
 1420SOL    HW216292   1.654   4.239   2.652
 1421SOL     OW16293   1.842   5.491   2.221
 1421SOL    HW116294   1.896   5.462   2.301
 1421SOL    HW216295   1.872   5.581   2.192
 1422SOL     OW16296   1.641   4.832   2.294
 1422SOL    HW116297   1.727   4.834   2.242
 1422SOL    HW216298   1.655   4.879   2.382
 1423SOL     OW16299   0.113   4.461   3.459
 1423SOL    HW116300   0.201   4.448   3.504
 1423SOL    HW216301   0.100   4.558   3.437
 1424SOL     OW16302   1.293   4.952   3.285
 1424SOL    HW116303   1.330   4.879   3.227
 1424SOL    HW216304   1.345   4.957   3.370
 1425SOL     OW16305   0.317   3.975   3.663
 1425SOL    HW116306   0.388   4.046   3.669
 1425SOL    HW216307   0.229   4.014   3.691
 1426SOL     OW16308   1.667   5.438   2.434
 1426SOL    HW116309   1.626   5.415   2.346
 1426SOL    HW216310   1.649   5.364   2.499
 1427SOL     OW16311   0.598   4.453   2.132
 1427SOL    HW116312   0.622   4.522   2.064
 1427SOL    HW216313   0.520   4.486   2.186
 1428SOL     OW16314   1.576   5.386   2.169
 1428SOL    HW116315   1.665   5.432   2.172
 1428SOL    HW216316   1.555   5.362   2.074
 1429SOL     OW16317   1.394   4.193   3.536
 1429SOL    HW116318   1.374   4.236   3.624
 1429SOL    HW216319   1.472   4.131   3.545
 1430SOL     OW16320   0.973   4.614   3.434
 1430SOL    HW116321   1.019   4.530   3.405
 1430SOL    HW216322   0.917   4.648   3.359
 1431SOL     OW16323   1.041   4.425   2.291
 1431SOL    HW116324   1.067   4.421   2.387
 1431SOL    HW216325   0.956   4.374   2.277
 1432SOL     OW16326   0.865   4.072   2.057
 1432SOL    HW116327   0.924   4.135   2.008
 1432SOL    HW216328   0.884   3.978   2.028
 1433SOL     OW16329   1.795   4.790   2.735
 1433SOL    HW116330   1.733   4.775   2.659
 1433SOL    HW216331   1.743   4.801   2.820
 1434SOL     OW16332   1.227   5.274   3.368
 1434SOL    HW116333   1.233   5.197   3.432
 1434SOL    HW216334   1.175   5.248   3.288
 1435SOL     OW16335   1.111   5.500   2.099
 1435SOL    HW116336   1.051   5.438   2.149
 1435SOL    HW216337   1.142   5.456   2.014
 1436SOL     OW16338   0.464   5.467   2.185
 1436SOL    HW116339   0.497   5.506   2.271
 1436SOL    HW216340   0.540   5.460   2.120
 1437SOL     OW16341   0.614   3.846   1.979
 1437SOL    HW116342   0.712   3.824   1.986
 1437SOL    HW216343   0.583   3.829   1.886
 1438SOL     OW16344   0.459   4.876   2.603
 1438SOL    HW116345   0.388   4.849   2.668
 1438SOL    HW216346   0.433   4.848   2.510
 1439SOL     OW16347   0.078   4.280   3.248
 1439SOL    HW116348   0.170   4.279   3.207
 1439SOL    HW216349   0.072   4.354   3.315
 1440SOL     OW16350   0.561   3.946   3.009
 1440SOL    HW116351   0.599   3.862   3.046
 1440SOL    HW216352   0.473   3.965   3.053
 1441SOL     OW16353   0.866   4.178   2.504
 1441SOL    HW116354   0.834   4.250   2.442
 1441SOL    HW216355   0.890   4.097   2.451
 1442SOL     OW16356   1.857   4.557   2.239
 1442SOL    HW116357   1.899   4.493   2.303
 1442SOL    HW216358   1.819   4.506   2.161
 1443SOL     OW16359   1.592   5.353   3.487
 1443SOL    HW116360   1.619   5.387   3.397
 1443SOL    HW216361   1.671   5.315   3.533
 1444SOL     OW16362   1.111   4.919   2.962
 1444SOL    HW116363   1.071   4.963   3.043
 1444SOL    HW216364   1.070   4.956   2.879
 1445SOL     OW16365   1.638   4.823   2.941
 1445SOL    HW116366   1.643   4.904   3.000
 1445SOL    HW216367   1.552   4.825   2.890
 1446SOL     OW16368   0.915   3.813   3.264
 1446SOL    HW116369   0.940   3.793   3.169
 1446SOL    HW216370   0.987   3.869   3.306
 1447SOL     OW16371   0.064   5.288   3.193
 1447SOL    HW116372   0.018   5.370   3.159
 1447SOL    HW216373   0.162   5.307   3.202
 1448SOL     OW16374   0.367   4.824   2.363
 1448SOL    HW116375   0.360   4.907   2.307
 1448SOL    HW216376   0.371   4.744   2.303
 1449SOL     OW16377   0.354   5.234   3.191
 1449SOL    HW116378   0.333   5.190   3.104
 1449SOL    HW216379   0.451   5.260   3.194
 1450SOL     OW16380   0.402   4.475   3.460
 1450SOL    HW116381   0.470   4.530   3.413
 1450SOL    HW216382   0.442   4.387   3.487
 1451SOL     OW16383   1.587   4.503   3.532
 1451SOL    HW116384   1.495   4.541   3.527
 1451SOL    HW216385   1.647   4.550   3.467
 1452SOL     OW16386   0.037   5.034   3.144
 1452SOL    HW116387   0.090   4.985   3.212
 1452SOL    HW216388   0.059   5.132   3.149
 1453SOL     OW16389   0.732   4.358   2.926
 1453SOL    HW116390   0.791   4.332   2.850
 1453SOL    HW216391   0.704   4.454   2.915
 1454SOL     OW16392   1.728   4.659   3.716
 1454SOL    HW116393   1.682   4.652   3.627
 1454SOL    HW216394   1.666   4.703   3.782
 1455SOL     OW16395   0.307   3.787   2.480
 1455SOL    HW116396   0.296   3.881   2.513
 1455SOL    HW216397   0.302   3.724   2.557
 1456SOL     OW16398   1.023   4.490   2.828
 1456SOL    HW116399   1.038   4.511   2.924
 1456SOL    HW216400   0.993   4.395   2.819
 1457SOL     OW16401   0.319   4.534   2.811
 1457SOL    HW116402   0.412   4.570   2.816
 1457SOL    HW216403   0.313   4.449   2.863
 1458SOL     OW16404   0.008   5.050   2.062
 1458SOL    HW116405  -0.085   5.071   2.031
 1458SOL    HW216406   0.018   4.951   2.075
 1459SOL     OW16407   0.088   5.525   2.789
 1459SOL    HW116408   0.046   5.439   2.762
 1459SOL    HW216409   0.182   5.528   2.755
 1460SOL     OW16410   0.189   4.244   3.584
 1460SOL    HW116411   0.248   4.204   3.514
 1460SOL    HW216412   0.131   4.315   3.543
 1461SOL     OW16413   0.671   4.188   3.131
 1461SOL    HW116414   0.637   4.099   3.101
 1461SOL    HW216415   0.697   4.242   3.051
 1462SOL     OW16416   0.930   5.402   3.327
 1462SOL    HW116417   0.906   5.384   3.232
 1462SOL    HW216418   0.960   5.496   3.337
 1463SOL     OW16419   1.347   4.783   3.096
 1463SOL    HW116420   1.371   4.720   3.022
 1463SOL    HW216421   1.257   4.823   3.078
 1464SOL     OW16422   1.302   4.579   2.171
 1464SOL    HW116423   1.216   4.548   2.213
 1464SOL    HW216424   1.298   4.565   2.072
 1465SOL     OW16425   0.083   4.982   2.884
 1465SOL    HW116426   0.078   4.981   2.984
 1465SOL    HW216427   0.000   4.941   2.846
 1466SOL     OW16428   0.688   5.386   3.578
 1466SOL    HW116429   0.632   5.467   3.587
 1466SOL    HW216430   0.740   5.390   3.492
 1467SOL     OW16431   0.130   5.518   3.713
 1467SOL    HW116432   0.089   5.444   3.766
 1467SOL    HW216433   0.194   5.569   3.771
 1468SOL     OW16434   1.650   5.444   3.256
 1468SOL    HW116435   1.703   5.454   3.172
 1468SOL    HW216436   1.623   5.534   3.290
 1469SOL     OW16437   1.841   3.899   2.825
 1469SOL    HW116438   1.880   3.814   2.789
 1469SOL    HW216439   1.743   3.901   2.806
 1470SOL     OW16440   0.263   4.050   2.582
 1470SOL    HW116441   0.184   4.101   2.548
 1470SOL    HW216442   0.254   4.035   2.680
 1471SOL     OW16443   1.194   5.336   1.893
 1471SOL    HW116444   1.200   5.243   1.930
 1471SOL    HW216445   1.135   5.336   1.813
 1472SOL     OW16446   0.916   4.634   2.153
 1472SOL    HW116447   0.979   4.672   2.085
 1472SOL    HW216448   0.956   4.551   2.192
 1473SOL     OW16449   1.504   5.331   1.906
 1473SOL    HW116450   1.412   5.368   1.913
 1473SOL    HW216451   1.542   5.351   1.816
 1474SOL     OW16452   0.590   5.211   2.353
 1474SOL    HW116453   0.632   5.153   2.283
 1474SOL    HW216454   0.546   5.290   2.309
 1475SOL     OW16455   0.672   3.927   3.351
 1475SOL    HW116456   0.762   3.911   3.311
 1475SOL    HW216457   0.680   3.932   3.450
 1476SOL     OW16458   0.075   4.069   1.895
 1476SOL    HW116459  -0.017   4.041   1.866
 1476SOL    HW216460   0.106   4.146   1.839
 1477SOL     OW16461   1.183   5.059   1.981
 1477SOL    HW116462   1.084   5.048   1.983
 1477SOL    HW216463   1.217   5.074   2.074
 1478SOL     OW16464   1.493   5.491   2.821
 1478SOL    HW116465   1.526   5.555   2.752
 1478SOL    HW216466   1.559   5.485   2.896
 1479SOL     OW16467   0.716   4.289   3.570
 1479SOL    HW116468   0.735   4.354   3.644
 1479SOL    HW216469   0.776   4.209   3.579
 1480SOL     OW16470   0.390   5.465   3.422
 1480SOL    HW116471   0.299   5.506   3.420
 1480SOL    HW216472   0.383   5.371   3.454
 1481SOL     OW16473   1.674   4.607   3.116
 1481SOL    HW116474   1.647   4.518   3.079
 1481SOL    HW216475   1.675   4.675   3.043
 1482SOL     OW16476   1.861   5.293   2.713
 1482SOL    HW116477   1.790   5.281   2.643
 1482SOL    HW216478   1.862   5.214   2.773
 1483SOL     OW16479   0.221   5.038   3.706
 1483SOL    HW116480   0.156   4.965   3.685
 1483SOL    HW216481   0.225   5.052   3.804
 1484SOL     OW16482   0.428   4.148   2.382
 1484SOL    HW116483   0.458   4.076   2.320
 1484SOL    HW216484   0.389   4.108   2.465
 1485SOL     OW16485   0.230   4.352   3.837
 1485SOL    HW116486   0.137   4.350   3.874
 1485SOL    HW216487   0.231   4.313   3.745
 1486SOL     OW16488   0.225   3.999   4.720
 1486SOL    HW116489   0.260   3.982   4.812
 1486SOL    HW216490   0.137   3.954   4.708
 1487SOL     OW16491   0.569   4.999   4.889
 1487SOL    HW116492   0.476   4.992   4.852
 1487SOL    HW216493   0.580   5.088   4.933
 1488SOL     OW16494   1.555   5.235   4.427
 1488SOL    HW116495   1.498   5.219   4.508
 1488SOL    HW216496   1.496   5.245   4.347
 1489SOL     OW16497   0.230   5.158   4.262
 1489SOL    HW116498   0.204   5.254   4.262
 1489SOL    HW216499   0.159   5.104   4.307
 1490SOL     OW16500   1.842   5.491   4.083
 1490SOL    HW116501   1.896   5.462   4.163
 1490SOL    HW216502   1.872   5.581   4.054
 1491SOL     OW16503   0.613   5.089   4.450
 1491SOL    HW116504   0.564   5.002   4.459
 1491SOL    HW216505   0.590   5.132   4.363
 1492SOL     OW16506   0.973   4.614   5.296
 1492SOL    HW116507   1.019   4.530   5.267
 1492SOL    HW216508   0.917   4.648   5.221
 1493SOL     OW16509   0.991   4.134   4.966
 1493SOL    HW116510   0.914   4.168   5.020
 1493SOL    HW216511   0.957   4.083   4.887
 1494SOL     OW16512   0.130   5.545   5.295
 1494SOL    HW116513   0.120   5.530   5.394
 1494SOL    HW216514   0.044   5.581   5.259
 1495SOL     OW16515   1.719   4.309   5.555
 1495SOL    HW116516   1.693   4.398   5.519
 1495SOL    HW216517   1.717   4.241   5.482
 1496SOL     OW16518   0.550   3.920   4.609
 1496SOL    HW116519   0.545   3.915   4.709
 1496SOL    HW216520   0.552   4.016   4.580
 1497SOL     OW16521   1.008   5.180   4.201
 1497SOL    HW116522   0.962   5.252   4.149
 1497SOL    HW216523   1.004   5.200   4.299
 1498SOL     OW16524   0.351   5.525   4.577
 1498SOL    HW116525   0.401   5.439   4.583
 1498SOL    HW216526   0.416   5.602   4.574
 1499SOL     OW16527   1.795   4.790   4.597
 1499SOL    HW116528   1.733   4.775   4.521
 1499SOL    HW216529   1.743   4.801   4.682
 1500SOL     OW16530   0.940   5.422   4.628
 1500SOL    HW116531   1.020   5.365   4.649
 1500SOL    HW216532   0.891   5.382   4.551
 1501SOL     OW16533   0.459   4.876   4.465
 1501SOL    HW116534   0.388   4.849   4.530
 1501SOL    HW216535   0.433   4.848   4.372
 1502SOL     OW16536   0.561   3.946   4.871
 1502SOL    HW116537   0.599   3.862   4.908
 1502SOL    HW216538   0.473   3.965   4.915
 1503SOL     OW16539   1.017   3.763   4.477
 1503SOL    HW116540   0.945   3.768   4.408
 1503SOL    HW216541   0.993   3.694   4.546
 1504SOL     OW16542   1.466   4.314   4.716
 1504SOL    HW116543   1.436   4.219   4.723
 1504SOL    HW216544   1.539   4.330   4.782
 1505SOL     OW16545   1.754   4.947   5.312
 1505SOL    HW116546   1.845   4.908   5.299
 1505SOL    HW216547   1.762   5.043   5.336
 1506SOL     OW16548   1.064   5.071   5.064
 1506SOL    HW116549   0.984   5.048   5.119
 1506SOL    HW216550   1.147   5.045   5.113
 1507SOL     OW16551   0.915   3.813   5.126
 1507SOL    HW116552   0.940   3.793   5.031
 1507SOL    HW216553   0.987   3.869   5.168
 1508SOL     OW16554   0.980   4.840   5.443
 1508SOL    HW116555   0.881   4.846   5.453
 1508SOL    HW216556   1.003   4.760   5.387
 1509SOL     OW16557   1.252   5.072   4.112
 1509SOL    HW116558   1.302   5.149   4.152
 1509SOL    HW216559   1.157   5.074   4.144
 1510SOL     OW16560   0.402   4.475   5.322
 1510SOL    HW116561   0.470   4.530   5.275
 1510SOL    HW216562   0.442   4.387   5.349
 1511SOL     OW16563   1.013   3.829   5.494
 1511SOL    HW116564   1.019   3.914   5.442
 1511SOL    HW216565   1.045   3.753   5.437
 1512SOL     OW16566   1.209   4.249   3.999
 1512SOL    HW116567   1.222   4.165   4.053
 1512SOL    HW216568   1.180   4.323   4.059
 1513SOL     OW16569   1.728   4.659   5.578
 1513SOL    HW116570   1.682   4.652   5.489
 1513SOL    HW216571   1.666   4.703   5.644
 1514SOL     OW16572   1.622   4.091   4.098
 1514SOL    HW116573   1.624   4.015   4.162
 1514SOL    HW216574   1.574   4.168   4.138
 1515SOL     OW16575   0.350   4.622   5.528
 1515SOL    HW116576   0.426   4.666   5.576
 1515SOL    HW216577   0.385   4.575   5.446
 1516SOL     OW16578   0.504   5.292   4.634
 1516SOL    HW116579   0.570   5.366   4.643
 1516SOL    HW216580   0.548   5.213   4.592
 1517SOL     OW16581   0.252   5.288   5.468
 1517SOL    HW116582   0.222   5.345   5.544
 1517SOL    HW216583   0.245   5.191   5.494
 1518SOL     OW16584   0.930   5.402   5.189
 1518SOL    HW116585   0.906   5.384   5.094
 1518SOL    HW216586   0.960   5.496   5.199
 1519SOL     OW16587   1.759   5.471   4.878
 1519SOL    HW116588   1.820   5.501   4.805
 1519SOL    HW216589   1.721   5.382   4.856
 1520SOL     OW16590   1.726   3.859   4.247
 1520SOL    HW116591   1.799   3.842   4.180
 1520SOL    HW216592   1.695   3.772   4.285
 1521SOL     OW16593   0.130   5.518   5.575
 1521SOL    HW116594   0.089   5.444   5.628
 1521SOL    HW216595   0.194   5.569   5.633
 1522SOL     OW16596   0.830   4.997   5.146
 1522SOL    HW116597   0.825   5.030   5.241
 1522SOL    HW216598   0.744   5.016   5.100
 1523SOL     OW16599   1.841   3.899   4.687
 1523SOL    HW116600   1.880   3.814   4.651
 1523SOL    HW216601   1.743   3.901   4.668
 1524SOL     OW16602   0.263   4.050   4.444
 1524SOL    HW116603   0.184   4.101   4.410
 1524SOL    HW216604   0.254   4.035   4.542
 1525SOL     OW16605   0.822   4.726   5.096
 1525SOL    HW116606   0.862   4.725   5.004
 1525SOL    HW216607   0.832   4.818   5.136
 1526SOL     OW16608   0.916   4.634   4.015
 1526SOL    HW116609   0.979   4.672   3.947
 1526SOL    HW216610   0.956   4.551   4.054
 1527SOL     OW16611   0.590   5.211   4.215
 1527SOL    HW116612   0.632   5.153   4.145
 1527SOL    HW216613   0.546   5.290   4.171
 1528SOL     OW16614   0.105   4.737   5.450
 1528SOL    HW116615   0.028   4.704   5.504
 1528SOL    HW216616   0.190   4.707   5.492
 1529SOL     OW16617   0.075   4.069   3.757
 1529SOL    HW116618  -0.017   4.041   3.728
 1529SOL    HW216619   0.106   4.146   3.701
 1530SOL     OW16620   0.716   4.289   5.432
 1530SOL    HW116621   0.735   4.354   5.506
 1530SOL    HW216622   0.776   4.209   5.441
 1531SOL     OW16623   1.730   4.658   5.241
 1531SOL    HW116624   1.768   4.749   5.256
 1531SOL    HW216625   1.722   4.641   5.142
 1532SOL     OW16626   0.661   5.514   4.677
 1532SOL    HW116627   0.615   5.602   4.664
 1532SOL    HW216628   0.760   5.526   4.670
 1533SOL     OW16629   1.083   4.708   3.811
 1533SOL    HW116630   1.060   4.761   3.729
 1533SOL    HW216631   1.164   4.652   3.792
 1534SOL     OW16632   0.221   5.038   5.568
 1534SOL    HW116633   0.156   4.965   5.547
 1534SOL    HW216634   0.225   5.052   5.666
 1535SOL     OW16635   0.079   4.964   4.377
 1535SOL    HW116636   0.078   4.917   4.465
 1535SOL    HW216637   0.161   4.936   4.326
 1536SOL     OW16638   0.672   5.115   5.348
 1536SOL    HW116639   0.594   5.065   5.386
 1536SOL    HW216640   0.669   5.210   5.379
 1537SOL     OW16641   1.824   3.916   4.951
 1537SOL    HW116642   1.820   3.826   4.995
 1537SOL    HW216643   1.827   3.905   4.852
 1538SOL     OW16644   1.705   5.211   4.828
 1538SOL    HW116645   1.612   5.186   4.801
 1538SOL    HW216646   1.731   5.161   4.910
 1539SOL     OW16647   0.812   5.310   4.411
 1539SOL    HW116648   0.844   5.320   4.317
 1539SOL    HW216649   0.733   5.248   4.413
 1540SOL     OW16650   0.770   5.054   4.025
 1540SOL    HW116651   0.724   4.967   4.042
 1540SOL    HW216652   0.861   5.051   4.066
 1541SOL     OW16653   0.618   5.291   5.008
 1541SOL    HW116654   0.613   5.373   5.065
 1541SOL    HW216655   0.707   5.288   4.963
 1542SOL     OW16656   1.352   3.776   3.892
 1542SOL    HW116657   1.387   3.735   3.808
 1542SOL    HW216658   1.262   3.738   3.912
 1543SOL     OW16659   1.300   4.177   4.415
 1543SOL    HW116660   1.241   4.257   4.419
 1543SOL    HW216661   1.315   4.142   4.508
 1544SOL     OW16662   0.039   4.801   4.024
 1544SOL    HW116663   0.138   4.790   4.015
 1544SOL    HW216664  -0.001   4.715   4.056
 1545SOL     OW16665   0.225   3.999   6.582
 1545SOL    HW116666   0.260   3.982   6.674
 1545SOL    HW216667   0.137   3.954   6.570
 1546SOL     OW16668   0.019   4.092   6.233
 1546SOL    HW116669  -0.063   4.135   6.272
 1546SOL    HW216670  -0.009   4.019   6.170
 1547SOL     OW16671   0.569   4.999   6.751
 1547SOL    HW116672   0.476   4.992   6.714
 1547SOL    HW216673   0.580   5.088   6.795
 1548SOL     OW16674   1.555   5.235   6.289
 1548SOL    HW116675   1.498   5.219   6.370
 1548SOL    HW216676   1.496   5.245   6.209
 1549SOL     OW16677   1.135   4.427   6.303
 1549SOL    HW116678   1.192   4.505   6.278
 1549SOL    HW216679   1.075   4.453   6.379
 1550SOL     OW16680   1.755   4.331   5.817
 1550SOL    HW116681   1.743   4.318   5.718
 1550SOL    HW216682   1.725   4.250   5.866
 1551SOL     OW16683   0.768   4.868   6.609
 1551SOL    HW116684   0.690   4.885   6.669
 1551SOL    HW216685   0.802   4.955   6.573
 1552SOL     OW16686   0.850   4.522   7.409
 1552SOL    HW116687   0.846   4.598   7.474
 1552SOL    HW216688   0.872   4.558   7.318
 1553SOL     OW16689   0.685   4.736   6.251
 1553SOL    HW116690   0.754   4.720   6.321
 1553SOL    HW216691   0.612   4.793   6.289
 1554SOL     OW16692   0.686   4.885   7.389
 1554SOL    HW116693   0.746   4.964   7.403
 1554SOL    HW216694   0.600   4.916   7.348
 1555SOL     OW16695   0.335   5.159   6.647
 1555SOL    HW116696   0.257   5.128   6.594
 1555SOL    HW216697   0.393   5.217   6.590
 1556SOL     OW16698   1.460   5.229   6.925
 1556SOL    HW116699   1.484   5.323   6.951
 1556SOL    HW216700   1.444   5.175   7.007
 1557SOL     OW16701   0.438   4.116   7.085
 1557SOL    HW116702   0.520   4.060   7.094
 1557SOL    HW216703   0.357   4.058   7.089
 1558SOL     OW16704   1.603   4.171   6.323
 1558SOL    HW116705   1.529   4.217   6.273
 1558SOL    HW216706   1.654   4.239   6.376
 1559SOL     OW16707   0.231   5.437   6.069
 1559SOL    HW116708   0.265   5.514   6.123
 1559SOL    HW216709   0.275   5.437   5.979
 1560SOL     OW16710   1.127   5.065   7.276
 1560SOL    HW116711   1.174   5.065   7.364
 1560SOL    HW216712   1.079   4.978   7.265
 1561SOL     OW16713   0.230   5.158   6.124
 1561SOL    HW116714   0.204   5.254   6.124
 1561SOL    HW216715   0.159   5.104   6.169
 1562SOL     OW16716   0.240   4.815   6.472
 1562SOL    HW116717   0.254   4.731   6.524
 1562SOL    HW216718   0.185   4.879   6.527
 1563SOL     OW16719   0.620   5.510   7.025
 1563SOL    HW116720   0.528   5.493   7.060
 1563SOL    HW216721   0.648   5.602   7.051
 1564SOL     OW16722   0.606   4.688   5.709
 1564SOL    HW116723   0.613   4.772   5.655
 1564SOL    HW216724   0.652   4.701   5.797
 1565SOL     OW16725   1.594   3.838   7.066
 1565SOL    HW116726   1.576   3.905   6.994
 1565SOL    HW216727   1.591   3.884   7.155
 1566SOL     OW16728   0.122   4.367   6.149
 1566SOL    HW116729   0.077   4.279   6.166
 1566SOL    HW216730   0.121   4.421   6.233
 1567SOL     OW16731   1.842   5.491   5.945
 1567SOL    HW116732   1.896   5.462   6.025
 1567SOL    HW216733   1.872   5.581   5.916
 1568SOL     OW16734   0.027   5.320   5.703
 1568SOL    HW116735   0.008   5.224   5.724
 1568SOL    HW216736  -0.006   5.378   5.778
 1569SOL     OW16737   1.689   4.646   6.198
 1569SOL    HW116738   1.784   4.617   6.206
 1569SOL    HW216739   1.681   4.711   6.123
 1570SOL     OW16740   1.641   4.832   6.018
 1570SOL    HW116741   1.727   4.834   5.966
 1570SOL    HW216742   1.655   4.879   6.106
 1571SOL     OW16743   0.113   4.461   7.183
 1571SOL    HW116744   0.201   4.448   7.228
 1571SOL    HW216745   0.100   4.558   7.161
 1572SOL     OW16746   0.613   5.089   6.312
 1572SOL    HW116747   0.564   5.002   6.321
 1572SOL    HW216748   0.590   5.132   6.225
 1573SOL     OW16749   1.293   4.952   7.009
 1573SOL    HW116750   1.330   4.879   6.951
 1573SOL    HW216751   1.345   4.957   7.094
 1574SOL     OW16752   0.809   3.728   6.088
 1574SOL    HW116753   0.849   3.819   6.079
 1574SOL    HW216754   0.709   3.736   6.094
 1575SOL     OW16755   0.197   4.700   6.850
 1575SOL    HW116756   0.286   4.655   6.836
 1575SOL    HW216757   0.124   4.635   6.831
 1576SOL     OW16758   1.525   4.723   5.776
 1576SOL    HW116759   1.462   4.647   5.789
 1576SOL    HW216760   1.573   4.741   5.862
 1577SOL     OW16761   1.187   5.516   7.202
 1577SOL    HW116762   1.211   5.576   7.126
 1577SOL    HW216763   1.194   5.421   7.172
 1578SOL     OW16764   0.317   3.975   7.387
 1578SOL    HW116765   0.388   4.046   7.393
 1578SOL    HW216766   0.229   4.014   7.415
 1579SOL     OW16767   1.466   5.141   6.539
 1579SOL    HW116768   1.407   5.147   6.619
 1579SOL    HW216769   1.451   5.053   6.493
 1580SOL     OW16770   1.667   5.438   6.158
 1580SOL    HW116771   1.626   5.415   6.070
 1580SOL    HW216772   1.649   5.364   6.223
 1581SOL     OW16773   1.281   4.069   6.530
 1581SOL    HW116774   1.195   4.019   6.517
 1581SOL    HW216775   1.343   4.015   6.586
 1582SOL     OW16776   1.576   5.386   5.893
 1582SOL    HW116777   1.665   5.432   5.896
 1582SOL    HW216778   1.555   5.362   5.798
 1583SOL     OW16779   0.807   4.329   7.051
 1583SOL    HW116780   0.760   4.326   7.140
 1583SOL    HW216781   0.756   4.274   6.985
 1584SOL     OW16782   0.973   4.614   7.158
 1584SOL    HW116783   1.019   4.530   7.129
 1584SOL    HW216784   0.917   4.648   7.083
 1585SOL     OW16785   0.991   4.134   6.828
 1585SOL    HW116786   0.914   4.168   6.882
 1585SOL    HW216787   0.957   4.083   6.749
 1586SOL     OW16788   1.041   4.425   6.015
 1586SOL    HW116789   1.067   4.421   6.111
 1586SOL    HW216790   0.956   4.374   6.001
 1587SOL     OW16791   0.076   4.535   6.375
 1587SOL    HW116792   0.175   4.523   6.384
 1587SOL    HW216793   0.052   4.630   6.396
 1588SOL     OW16794   0.130   5.545   7.157
 1588SOL    HW116795   0.120   5.530   7.256
 1588SOL    HW216796   0.044   5.581   7.121
 1589SOL     OW16797   1.362   4.868   6.131
 1589SOL    HW116798   1.445   4.839   6.083
 1589SOL    HW216799   1.313   4.935   6.075
 1590SOL     OW16800   0.550   3.920   6.471
 1590SOL    HW116801   0.545   3.915   6.571
 1590SOL    HW216802   0.552   4.016   6.442
 1591SOL     OW16803   1.008   5.180   6.063
 1591SOL    HW116804   0.962   5.252   6.011
 1591SOL    HW216805   1.004   5.200   6.161
 1592SOL     OW16806   0.351   5.525   6.439
 1592SOL    HW116807   0.401   5.439   6.445
 1592SOL    HW216808   0.416   5.602   6.436
 1593SOL     OW16809   1.795   4.790   6.459
 1593SOL    HW116810   1.733   4.775   6.383
 1593SOL    HW216811   1.743   4.801   6.544
 1594SOL     OW16812   1.227   5.274   7.092
 1594SOL    HW116813   1.233   5.197   7.156
 1594SOL    HW216814   1.175   5.248   7.012
 1595SOL     OW16815   0.321   4.667   5.828
 1595SOL    HW116816   0.403   4.706   5.786
 1595SOL    HW216817   0.294   4.585   5.779
 1596SOL     OW16818   1.458   4.459   6.314
 1596SOL    HW116819   1.453   4.394   6.389
 1596SOL    HW216820   1.538   4.518   6.327
 1597SOL     OW16821   0.461   4.990   7.313
 1597SOL    HW116822   0.411   4.991   7.227
 1597SOL    HW216823   0.398   4.972   7.389
 1598SOL     OW16824   1.111   5.500   5.823
 1598SOL    HW116825   1.051   5.438   5.873
 1598SOL    HW216826   1.142   5.456   5.738
 1599SOL     OW16827   0.202   4.009   7.084
 1599SOL    HW116828   0.122   4.069   7.071
 1599SOL    HW216829   0.192   3.960   7.170
 1600SOL     OW16830   1.632   5.101   5.667
 1600SOL    HW116831   1.600   5.195   5.657
 1600SOL    HW216832   1.556   5.038   5.655
 1601SOL     OW16833   0.464   5.467   5.909
 1601SOL    HW116834   0.497   5.506   5.995
 1601SOL    HW216835   0.540   5.460   5.844
 1602SOL     OW16836   1.400   3.831   6.012
 1602SOL    HW116837   1.376   3.794   5.922
 1602SOL    HW216838   1.499   3.847   6.016
 1603SOL     OW16839   0.249   5.509   6.827
 1603SOL    HW116840   0.306   5.444   6.877
 1603SOL    HW216841   0.233   5.476   6.734
 1604SOL     OW16842   0.940   5.422   6.490
 1604SOL    HW116843   1.020   5.365   6.511
 1604SOL    HW216844   0.891   5.382   6.413
 1605SOL     OW16845   0.382   4.424   6.066
 1605SOL    HW116846   0.427   4.334   6.063
 1605SOL    HW216847   0.288   4.413   6.099
 1606SOL     OW16848   0.781   3.988   7.335
 1606SOL    HW116849   0.848   3.927   7.378
 1606SOL    HW216850   0.708   4.007   7.400
 1607SOL     OW16851   0.888   5.238   6.781
 1607SOL    HW116852   0.865   5.213   6.687
 1607SOL    HW216853   0.949   5.169   6.820
 1608SOL     OW16854   1.351   4.314   7.019
 1608SOL    HW116855   1.379   4.271   7.104
 1608SOL    HW216856   1.376   4.410   7.020
 1609SOL     OW16857   0.803   5.126   6.510
 1609SOL    HW116858   0.893   5.140   6.468
 1609SOL    HW216859   0.732   5.128   6.439
 1610SOL     OW16860   0.922   4.227   6.485
 1610SOL    HW116861   0.897   4.218   6.389
 1610SOL    HW216862   0.970   4.145   6.516
 1611SOL     OW16863   1.434   4.912   5.627
 1611SOL    HW116864   1.466   4.836   5.684
 1611SOL    HW216865   1.342   4.939   5.657
 1612SOL     OW16866   0.935   3.960   6.066
 1612SOL    HW116867   0.887   4.001   5.988
 1612SOL    HW216868   1.034   3.958   6.047
 1613SOL     OW16869   1.076   4.407   7.050
 1613SOL    HW116870   0.996   4.346   7.053
 1613SOL    HW216871   1.157   4.354   7.026
 1614SOL     OW16872   1.227   5.294   6.379
 1614SOL    HW116873   1.248   5.368   6.314
 1614SOL    HW216874   1.295   5.294   6.452
 1615SOL     OW16875   0.459   4.876   6.327
 1615SOL    HW116876   0.388   4.849   6.392
 1615SOL    HW216877   0.433   4.848   6.234
 1616SOL     OW16878   1.271   5.521   6.177
 1616SOL    HW116879   1.315   5.585   6.113
 1616SOL    HW216880   1.221   5.573   6.247
 1617SOL     OW16881   0.078   4.280   6.972
 1617SOL    HW116882   0.170   4.279   6.931
 1617SOL    HW216883   0.072   4.354   7.039
 1618SOL     OW16884   0.561   3.946   6.733
 1618SOL    HW116885   0.599   3.862   6.770
 1618SOL    HW216886   0.473   3.965   6.777
 1619SOL     OW16887   0.866   4.178   6.228
 1619SOL    HW116888   0.834   4.250   6.166
 1619SOL    HW216889   0.890   4.097   6.175
 1620SOL     OW16890   1.017   3.763   6.339
 1620SOL    HW116891   0.945   3.768   6.270
 1620SOL    HW216892   0.993   3.694   6.408
 1621SOL     OW16893   1.429   4.897   6.453
 1621SOL    HW116894   1.374   4.813   6.446
 1621SOL    HW216895   1.455   4.926   6.361
 1622SOL     OW16896   1.466   4.314   6.578
 1622SOL    HW116897   1.436   4.219   6.585
 1622SOL    HW216898   1.539   4.330   6.644
 1623SOL     OW16899   1.857   4.557   5.963
 1623SOL    HW116900   1.899   4.493   6.027
 1623SOL    HW216901   1.819   4.506   5.885
 1624SOL     OW16902   0.488   5.109   5.760
 1624SOL    HW116903   0.401   5.094   5.807
 1624SOL    HW216904   0.471   5.135   5.665
 1625SOL     OW16905   1.664   5.004   6.243
 1625SOL    HW116906   1.763   5.012   6.257
 1625SOL    HW216907   1.619   5.088   6.274
 1626SOL     OW16908   1.754   4.947   7.174
 1626SOL    HW116909   1.845   4.908   7.161
 1626SOL    HW216910   1.762   5.043   7.198
 1627SOL     OW16911   1.064   5.071   6.926
 1627SOL    HW116912   0.984   5.048   6.981
 1627SOL    HW216913   1.147   5.045   6.975
 1628SOL     OW16914   1.592   5.353   7.211
 1628SOL    HW116915   1.619   5.387   7.121
 1628SOL    HW216916   1.671   5.315   7.257
 1629SOL     OW16917   1.111   4.919   6.686
 1629SOL    HW116918   1.071   4.963   6.767
 1629SOL    HW216919   1.070   4.956   6.603
 1630SOL     OW16920   1.638   4.823   6.665
 1630SOL    HW116921   1.643   4.904   6.724
 1630SOL    HW216922   1.552   4.825   6.614
 1631SOL     OW16923   0.915   3.813   6.988
 1631SOL    HW116924   0.940   3.793   6.893
 1631SOL    HW216925   0.987   3.869   7.030
 1632SOL     OW16926   0.980   4.840   7.305
 1632SOL    HW116927   0.881   4.846   7.315
 1632SOL    HW216928   1.003   4.760   7.249
 1633SOL     OW16929   0.705   4.774   5.954
 1633SOL    HW116930   0.691   4.781   6.053
 1633SOL    HW216931   0.789   4.723   5.936
 1634SOL     OW16932   0.410   4.537   6.837
 1634SOL    HW116933   0.496   4.549   6.887
 1634SOL    HW216934   0.368   4.450   6.864
 1635SOL     OW16935   1.274   4.110   6.848
 1635SOL    HW116936   1.295   4.184   6.912
 1635SOL    HW216937   1.185   4.127   6.805
 1636SOL     OW16938   0.064   5.288   6.917
 1636SOL    HW116939   0.018   5.370   6.883
 1636SOL    HW216940   0.162   5.307   6.926
 1637SOL     OW16941   0.367   4.824   6.087
 1637SOL    HW116942   0.360   4.907   6.031
 1637SOL    HW216943   0.371   4.744   6.027
 1638SOL     OW16944   0.566   4.261   6.451
 1638SOL    HW116945   0.578   4.327   6.377
 1638SOL    HW216946   0.612   4.295   6.534
 1639SOL     OW16947   1.252   5.072   5.974
 1639SOL    HW116948   1.302   5.149   6.014
 1639SOL    HW216949   1.157   5.074   6.006
 1640SOL     OW16950   1.272   5.169   6.728
 1640SOL    HW116951   1.319   5.182   6.815
 1640SOL    HW216952   1.206   5.095   6.737
 1641SOL     OW16953   1.582   4.363   6.058
 1641SOL    HW116954   1.551   4.424   6.131
 1641SOL    HW216955   1.632   4.415   5.989
 1642SOL     OW16956   0.354   5.234   6.915
 1642SOL    HW116957   0.333   5.190   6.828
 1642SOL    HW216958   0.451   5.260   6.918
 1643SOL     OW16959   0.402   4.475   7.184
 1643SOL    HW116960   0.470   4.530   7.137
 1643SOL    HW216961   0.442   4.387   7.211
 1644SOL     OW16962   1.587   4.503   7.256
 1644SOL    HW116963   1.495   4.541   7.251
 1644SOL    HW216964   1.647   4.550   7.191
 1645SOL     OW16965   0.573   4.594   6.615
 1645SOL    HW116966   0.617   4.683   6.606
 1645SOL    HW216967   0.510   4.594   6.692
 1646SOL     OW16968   1.360   4.586   6.631
 1646SOL    HW116969   1.285   4.586   6.565
 1646SOL    HW216970   1.397   4.494   6.640
 1647SOL     OW16971   0.307   3.937   6.817
 1647SOL    HW116972   0.284   3.974   6.907
 1647SOL    HW216973   0.277   3.842   6.811
 1648SOL     OW16974   0.037   5.034   6.868
 1648SOL    HW116975   0.090   4.985   6.936
 1648SOL    HW216976   0.059   5.132   6.873
 1649SOL     OW16977   0.732   4.358   6.650
 1649SOL    HW116978   0.791   4.332   6.574
 1649SOL    HW216979   0.704   4.454   6.639
 1650SOL     OW16980   1.728   4.659   7.440
 1650SOL    HW116981   1.682   4.652   7.351
 1650SOL    HW216982   1.666   4.703   7.506
 1651SOL     OW16983   0.307   3.787   6.204
 1651SOL    HW116984   0.296   3.881   6.237
 1651SOL    HW216985   0.302   3.724   6.281
 1652SOL     OW16986   1.622   4.091   5.960
 1652SOL    HW116987   1.624   4.015   6.024
 1652SOL    HW216988   1.574   4.168   6.000
 1653SOL     OW16989   1.023   4.490   6.552
 1653SOL    HW116990   1.038   4.511   6.648
 1653SOL    HW216991   0.993   4.395   6.543
 1654SOL     OW16992   0.980   5.297   7.286
 1654SOL    HW116993   0.960   5.341   7.198
 1654SOL    HW216994   1.019   5.206   7.270
 1655SOL     OW16995   1.859   5.242   7.191
 1655SOL    HW116996   1.873   5.269   7.096
 1655SOL    HW216997   1.942   5.264   7.244
 1656SOL     OW16998   0.350   4.622   7.390
 1656SOL    HW116999   0.426   4.666   7.438
 1656SOL    HW217000   0.385   4.575   7.308
 1657SOL     OW17001   1.068   5.057   6.435
 1657SOL    HW117002   1.075   4.973   6.380
 1657SOL    HW217003   1.130   5.126   6.399
 1658SOL     OW17004   0.319   4.534   6.535
 1658SOL    HW117005   0.412   4.570   6.540
 1658SOL    HW217006   0.313   4.449   6.587
 1659SOL     OW17007   0.339   4.233   6.592
 1659SOL    HW117008   0.287   4.150   6.575
 1659SOL    HW217009   0.416   4.238   6.528
 1660SOL     OW17010   1.138   4.104   7.264
 1660SOL    HW117011   1.093   4.167   7.328
 1660SOL    HW217012   1.231   4.135   7.247
 1661SOL     OW17013   1.160   3.931   7.063
 1661SOL    HW117014   1.160   3.995   7.140
 1661SOL    HW217015   1.188   3.979   6.980
 1662SOL     OW17016   0.008   5.050   5.786
 1662SOL    HW117017  -0.085   5.071   5.755
 1662SOL    HW217018   0.018   4.951   5.799
 1663SOL     OW17019   0.088   5.525   6.513
 1663SOL    HW117020   0.046   5.439   6.486
 1663SOL    HW217021   0.182   5.528   6.479
 1664SOL     OW17022   0.504   5.292   6.496
 1664SOL    HW117023   0.570   5.366   6.505
 1664SOL    HW217024   0.548   5.213   6.454
 1665SOL     OW17025   1.002   4.520   6.824
 1665SOL    HW117026   1.043   4.488   6.910
 1665SOL    HW217027   0.906   4.493   6.821
 1666SOL     OW17028   0.040   4.268   6.700
 1666SOL    HW117029   0.125   4.235   6.659
 1666SOL    HW217030   0.053   4.283   6.798
 1667SOL     OW17031   1.657   4.328   6.792
 1667SOL    HW117032   1.619   4.259   6.854
 1667SOL    HW217033   1.739   4.292   6.748
 1668SOL     OW17034   0.252   5.288   7.330
 1668SOL    HW117035   0.222   5.345   7.406
 1668SOL    HW217036   0.245   5.191   7.356
 1669SOL     OW17037   0.671   4.188   6.855
 1669SOL    HW117038   0.637   4.099   6.825
 1669SOL    HW217039   0.697   4.242   6.775
 1670SOL     OW17040   0.930   5.402   7.051
 1670SOL    HW117041   0.906   5.384   6.956
 1670SOL    HW217042   0.960   5.496   7.061
 1671SOL     OW17043   0.159   4.861   7.052
 1671SOL    HW117044   0.181   4.800   7.128
 1671SOL    HW217045   0.169   4.812   6.966
 1672SOL     OW17046   1.347   4.783   6.820
 1672SOL    HW117047   1.371   4.720   6.746
 1672SOL    HW217048   1.257   4.823   6.802
 1673SOL     OW17049   1.302   4.579   5.895
 1673SOL    HW117050   1.216   4.548   5.937
 1673SOL    HW217051   1.298   4.565   5.796
 1674SOL     OW17052   1.759   5.471   6.740
 1674SOL    HW117053   1.820   5.501   6.667
 1674SOL    HW217054   1.721   5.382   6.718
 1675SOL     OW17055   1.252   5.455   6.714
 1675SOL    HW117056   1.336   5.460   6.660
 1675SOL    HW217057   1.229   5.359   6.732
 1676SOL     OW17058   0.083   4.982   6.608
 1676SOL    HW117059   0.078   4.981   6.708
 1676SOL    HW217060   0.000   4.941   6.570
 1677SOL     OW17061   0.688   5.386   7.302
 1677SOL    HW117062   0.632   5.467   7.311
 1677SOL    HW217063   0.740   5.390   7.216
 1678SOL     OW17064   1.726   3.859   6.109
 1678SOL    HW117065   1.799   3.842   6.042
 1678SOL    HW217066   1.695   3.772   6.147
 1679SOL     OW17067   1.388   5.297   6.063
 1679SOL    HW117068   1.455   5.309   5.989
 1679SOL    HW217069   1.348   5.386   6.086
 1680SOL     OW17070   1.280   4.651   6.258
 1680SOL    HW117071   1.340   4.570   6.260
 1680SOL    HW217072   1.320   4.720   6.198
 1681SOL     OW17073   0.830   4.997   7.008
 1681SOL    HW117074   0.825   5.030   7.103
 1681SOL    HW217075   0.744   5.016   6.962
 1682SOL     OW17076   0.672   5.340   5.740
 1682SOL    HW117077   0.681   5.350   5.641
 1682SOL    HW217078   0.632   5.251   5.761
 1683SOL     OW17079   1.650   5.444   6.980
 1683SOL    HW117080   1.703   5.454   6.896
 1683SOL    HW217081   1.623   5.534   7.014
 1684SOL     OW17082   1.841   3.899   6.549
 1684SOL    HW117083   1.880   3.814   6.513
 1684SOL    HW217084   1.743   3.901   6.530
 1685SOL     OW17085   0.263   4.050   6.306
 1685SOL    HW117086   0.184   4.101   6.272
 1685SOL    HW217087   0.254   4.035   6.404
 1686SOL     OW17088   0.822   4.726   6.958
 1686SOL    HW117089   0.862   4.725   6.866
 1686SOL    HW217090   0.832   4.818   6.998
 1687SOL     OW17091   0.916   4.634   5.877
 1687SOL    HW117092   0.979   4.672   5.809
 1687SOL    HW217093   0.956   4.551   5.916
 1688SOL     OW17094   1.504   5.331   5.630
 1688SOL    HW117095   1.412   5.368   5.637
 1688SOL    HW217096   1.542   5.351   5.540
 1689SOL     OW17097   0.372   5.012   7.076
 1689SOL    HW117098   0.359   5.105   7.042
 1689SOL    HW217099   0.288   4.960   7.063
 1690SOL     OW17100   1.614   5.016   6.875
 1690SOL    HW117101   1.674   5.019   6.955
 1690SOL    HW217102   1.539   5.080   6.888
 1691SOL     OW17103   1.039   4.822   6.282
 1691SOL    HW117104   0.969   4.775   6.336
 1691SOL    HW217105   1.098   4.754   6.239
 1692SOL     OW17106   1.014   3.960   6.557
 1692SOL    HW117107   1.006   3.924   6.464
 1692SOL    HW217108   1.012   3.884   6.622
 1693SOL     OW17109   0.590   5.211   6.077
 1693SOL    HW117110   0.632   5.153   6.007
 1693SOL    HW217111   0.546   5.290   6.033
 1694SOL     OW17112   1.709   4.109   6.967
 1694SOL    HW117113   1.782   4.178   6.971
 1694SOL    HW217114   1.737   4.034   6.908
 1695SOL     OW17115   0.255   5.072   5.876
 1695SOL    HW117116   0.159   5.073   5.849
 1695SOL    HW217117   0.267   5.125   5.960
 1696SOL     OW17118   0.105   4.737   7.312
 1696SOL    HW117119   0.028   4.704   7.366
 1696SOL    HW217120   0.190   4.707   7.354
 1697SOL     OW17121   0.672   3.927   7.075
 1697SOL    HW117122   0.762   3.911   7.035
 1697SOL    HW217123   0.680   3.932   7.174
 1698SOL     OW17124   0.075   4.069   5.619
 1698SOL    HW117125  -0.017   4.041   5.590
 1698SOL    HW217126   0.106   4.146   5.563
 1699SOL     OW17127   1.440   4.580   6.984
 1699SOL    HW117128   1.383   4.632   6.921
 1699SOL    HW217129   1.536   4.592   6.960
 1700SOL     OW17130   1.183   5.059   5.705
 1700SOL    HW117131   1.084   5.048   5.707
 1700SOL    HW217132   1.217   5.074   5.798
 1701SOL     OW17133   0.613   4.566   7.017
 1701SOL    HW117134   0.669   4.647   7.000
 1701SOL    HW217135   0.672   4.486   7.020
 1702SOL     OW17136   1.493   5.491   6.545
 1702SOL    HW117137   1.526   5.555   6.476
 1702SOL    HW217138   1.559   5.485   6.620
 1703SOL     OW17139   0.716   4.289   7.294
 1703SOL    HW117140   0.735   4.354   7.368
 1703SOL    HW217141   0.776   4.209   7.303
 1704SOL     OW17142   0.390   5.465   7.146
 1704SOL    HW117143   0.299   5.506   7.144
 1704SOL    HW217144   0.383   5.371   7.178
 1705SOL     OW17145   1.674   4.607   6.840
 1705SOL    HW117146   1.647   4.518   6.803
 1705SOL    HW217147   1.675   4.675   6.767
 1706SOL     OW17148   1.225   4.049   6.035
 1706SOL    HW117149   1.290   3.975   6.024
 1706SOL    HW217150   1.245   4.099   6.119
 1707SOL     OW17151   0.594   4.469   6.238
 1707SOL    HW117152   0.644   4.554   6.219
 1707SOL    HW217153   0.506   4.471   6.190
 1708SOL     OW17154   1.777   4.066   7.228
 1708SOL    HW117155   1.760   4.097   7.134
 1708SOL    HW217156   1.693   4.029   7.266
 1709SOL     OW17157   1.730   4.658   7.103
 1709SOL    HW117158   1.768   4.749   7.118
 1709SOL    HW217159   1.722   4.641   7.004
 1710SOL     OW17160   0.859   5.098   5.602
 1710SOL    HW117161   0.813   5.113   5.690
 1710SOL    HW217162   0.903   5.183   5.572
 1711SOL     OW17163   0.661   5.514   6.539
 1711SOL    HW117164   0.615   5.602   6.526
 1711SOL    HW217165   0.760   5.526   6.532
 1712SOL     OW17166   0.859   4.680   6.447
 1712SOL    HW117167   0.913   4.611   6.495
 1712SOL    HW217168   0.827   4.749   6.513
 1713SOL     OW17169   1.083   4.708   5.673
 1713SOL    HW117170   1.060   4.761   5.591
 1713SOL    HW217171   1.164   4.652   5.654
 1714SOL     OW17172   1.861   5.293   6.437
 1714SOL    HW117173   1.790   5.281   6.367
 1714SOL    HW217174   1.862   5.214   6.497
 1715SOL     OW17175   0.221   5.038   7.430
 1715SOL    HW117176   0.156   4.965   7.409
 1715SOL    HW217177   0.225   5.052   7.528
 1716SOL     OW17178   0.079   4.964   6.239
 1716SOL    HW117179   0.078   4.917   6.327
 1716SOL    HW217180   0.161   4.936   6.188
 1717SOL     OW17181   0.672   5.115   7.210
 1717SOL    HW117182   0.594   5.065   7.248
 1717SOL    HW217183   0.669   5.210   7.241
 1718SOL     OW17184   1.824   3.916   6.813
 1718SOL    HW117185   1.820   3.826   6.857
 1718SOL    HW217186   1.827   3.905   6.714
 1719SOL     OW17187   1.705   5.211   6.690
 1719SOL    HW117188   1.612   5.186   6.663
 1719SOL    HW217189   1.731   5.161   6.772
 1720SOL     OW17190   0.317   4.271   6.866
 1720SOL    HW117191   0.355   4.212   6.938
 1720SOL    HW217192   0.357   4.245   6.778
 1721SOL     OW17193   0.812   5.310   6.273
 1721SOL    HW117194   0.844   5.320   6.179
 1721SOL    HW217195   0.733   5.248   6.275
 1722SOL     OW17196   1.424   3.938   6.698
 1722SOL    HW117197   1.476   3.873   6.753
 1722SOL    HW217198   1.375   4.001   6.759
 1723SOL     OW17199   1.001   3.758   6.740
 1723SOL    HW117200   0.938   3.686   6.709
 1723SOL    HW217201   1.094   3.722   6.740
 1724SOL     OW17202   0.770   5.054   5.887
 1724SOL    HW117203   0.724   4.967   5.904
 1724SOL    HW217204   0.861   5.051   5.928
 1725SOL     OW17205   0.618   5.291   6.870
 1725SOL    HW117206   0.613   5.373   6.927
 1725SOL    HW217207   0.707   5.288   6.825
 1726SOL     OW17208   1.352   3.776   5.754
 1726SOL    HW117209   1.387   3.735   5.670
 1726SOL    HW217210   1.262   3.738   5.774
 1727SOL     OW17211   1.300   4.177   6.277
 1727SOL    HW117212   1.241   4.257   6.281
 1727SOL    HW217213   1.315   4.142   6.370
 1728SOL     OW17214   1.593   3.945   6.468
 1728SOL    HW117215   1.509   3.944   6.522
 1728SOL    HW217216   1.595   4.028   6.412
 1729SOL     OW17217   0.039   4.801   5.886
 1729SOL    HW117218   0.138   4.790   5.877
 1729SOL    HW217219  -0.001   4.715   5.918
 1730SOL     OW17220   0.875   5.370   5.923
 1730SOL    HW117221   0.798   5.335   5.869
 1730SOL    HW217222   0.843   5.441   5.985
 1731SOL     OW17223   0.230   6.214   0.113
 1731SOL    HW117224   0.137   6.212   0.150
 1731SOL    HW217225   0.231   6.175   0.021
 1732SOL     OW17226   0.225   5.861   0.996
 1732SOL    HW117227   0.260   5.844   1.088
 1732SOL    HW217228   0.137   5.816   0.984
 1733SOL     OW17229   0.569   6.861   1.165
 1733SOL    HW117230   0.476   6.854   1.128
 1733SOL    HW217231   0.580   6.950   1.209
 1734SOL     OW17232   1.555   7.097   0.703
 1734SOL    HW117233   1.498   7.081   0.784
 1734SOL    HW217234   1.496   7.107   0.623
 1735SOL     OW17235   1.135   6.289   0.717
 1735SOL    HW117236   1.192   6.367   0.692
 1735SOL    HW217237   1.075   6.315   0.793
 1736SOL     OW17238   1.755   6.193   0.231
 1736SOL    HW117239   1.743   6.180   0.132
 1736SOL    HW217240   1.725   6.112   0.280
 1737SOL     OW17241   0.768   6.730   1.023
 1737SOL    HW117242   0.690   6.747   1.083
 1737SOL    HW217243   0.802   6.817   0.987
 1738SOL     OW17244   0.685   6.598   0.665
 1738SOL    HW117245   0.754   6.582   0.735
 1738SOL    HW217246   0.612   6.655   0.703
 1739SOL     OW17247   0.686   6.747   1.803
 1739SOL    HW117248   0.746   6.826   1.817
 1739SOL    HW217249   0.600   6.778   1.762
 1740SOL     OW17250   0.335   7.021   1.061
 1740SOL    HW117251   0.257   6.990   1.008
 1740SOL    HW217252   0.393   7.079   1.004
 1741SOL     OW17253   1.460   7.091   1.339
 1741SOL    HW117254   1.484   7.185   1.365
 1741SOL    HW217255   1.444   7.037   1.421
 1742SOL     OW17256   0.438   5.978   1.499
 1742SOL    HW117257   0.520   5.922   1.508
 1742SOL    HW217258   0.357   5.920   1.503
 1743SOL     OW17259   1.603   6.033   0.737
 1743SOL    HW117260   1.529   6.079   0.687
 1743SOL    HW217261   1.654   6.101   0.790
 1744SOL     OW17262   0.231   7.299   0.483
 1744SOL    HW117263   0.265   7.376   0.537
 1744SOL    HW217264   0.275   7.299   0.393
 1745SOL     OW17265   0.230   7.020   0.538
 1745SOL    HW117266   0.204   7.116   0.538
 1745SOL    HW217267   0.159   6.966   0.583
 1746SOL     OW17268   0.240   6.677   0.886
 1746SOL    HW117269   0.254   6.593   0.938
 1746SOL    HW217270   0.185   6.741   0.941
 1747SOL     OW17271   0.620   7.372   1.439
 1747SOL    HW117272   0.528   7.355   1.474
 1747SOL    HW217273   0.648   7.464   1.465
 1748SOL     OW17274   0.606   6.550   0.123
 1748SOL    HW117275   0.613   6.634   0.069
 1748SOL    HW217276   0.652   6.563   0.211
 1749SOL     OW17277   0.122   6.229   0.563
 1749SOL    HW117278   0.077   6.141   0.580
 1749SOL    HW217279   0.121   6.283   0.647
 1750SOL     OW17280   1.842   7.353   0.359
 1750SOL    HW117281   1.896   7.324   0.439
 1750SOL    HW217282   1.872   7.443   0.330
 1751SOL     OW17283   0.027   7.182   0.117
 1751SOL    HW117284   0.008   7.086   0.138
 1751SOL    HW217285  -0.006   7.240   0.192
 1752SOL     OW17286   1.689   6.508   0.612
 1752SOL    HW117287   1.784   6.479   0.620
 1752SOL    HW217288   1.681   6.573   0.537
 1753SOL     OW17289   1.641   6.694   0.432
 1753SOL    HW117290   1.727   6.696   0.380
 1753SOL    HW217291   1.655   6.741   0.520
 1754SOL     OW17292   0.613   6.951   0.726
 1754SOL    HW117293   0.564   6.864   0.735
 1754SOL    HW217294   0.590   6.994   0.639
 1755SOL     OW17295   0.809   5.590   0.502
 1755SOL    HW117296   0.849   5.681   0.493
 1755SOL    HW217297   0.709   5.598   0.508
 1756SOL     OW17298   0.197   6.562   1.264
 1756SOL    HW117299   0.286   6.517   1.250
 1756SOL    HW217300   0.124   6.497   1.245
 1757SOL     OW17301   1.525   6.585   0.190
 1757SOL    HW117302   1.462   6.509   0.203
 1757SOL    HW217303   1.573   6.603   0.276
 1758SOL     OW17304   1.187   7.378   1.616
 1758SOL    HW117305   1.211   7.438   1.540
 1758SOL    HW217306   1.194   7.283   1.586
 1759SOL     OW17307   1.466   7.003   0.953
 1759SOL    HW117308   1.407   7.009   1.033
 1759SOL    HW217309   1.451   6.915   0.907
 1760SOL     OW17310   1.667   7.300   0.572
 1760SOL    HW117311   1.626   7.277   0.484
 1760SOL    HW217312   1.649   7.226   0.637
 1761SOL     OW17313   0.598   6.315   0.270
 1761SOL    HW117314   0.622   6.384   0.202
 1761SOL    HW217315   0.520   6.348   0.324
 1762SOL     OW17316   1.281   5.931   0.944
 1762SOL    HW117317   1.195   5.881   0.931
 1762SOL    HW217318   1.343   5.877   1.000
 1763SOL     OW17319   1.576   7.248   0.307
 1763SOL    HW117320   1.665   7.294   0.310
 1763SOL    HW217321   1.555   7.224   0.212
 1764SOL     OW17322   0.991   5.996   1.242
 1764SOL    HW117323   0.914   6.030   1.296
 1764SOL    HW217324   0.957   5.945   1.163
 1765SOL     OW17325   1.041   6.287   0.429
 1765SOL    HW117326   1.067   6.283   0.525
 1765SOL    HW217327   0.956   6.236   0.415
 1766SOL     OW17328   0.076   6.397   0.789
 1766SOL    HW117329   0.175   6.385   0.798
 1766SOL    HW217330   0.052   6.492   0.810
 1767SOL     OW17331   0.865   5.934   0.195
 1767SOL    HW117332   0.924   5.997   0.146
 1767SOL    HW217333   0.884   5.840   0.166
 1768SOL     OW17334   1.362   6.730   0.545
 1768SOL    HW117335   1.445   6.701   0.497
 1768SOL    HW217336   1.313   6.797   0.489
 1769SOL     OW17337   0.550   5.782   0.885
 1769SOL    HW117338   0.545   5.777   0.985
 1769SOL    HW217339   0.552   5.878   0.856
 1770SOL     OW17340   1.008   7.042   0.477
 1770SOL    HW117341   0.962   7.114   0.425
 1770SOL    HW217342   1.004   7.062   0.575
 1771SOL     OW17343   0.351   7.387   0.853
 1771SOL    HW117344   0.401   7.301   0.859
 1771SOL    HW217345   0.416   7.464   0.850
 1772SOL     OW17346   1.795   6.652   0.873
 1772SOL    HW117347   1.733   6.637   0.797
 1772SOL    HW217348   1.743   6.663   0.958
 1773SOL     OW17349   1.227   7.136   1.506
 1773SOL    HW117350   1.233   7.059   1.570
 1773SOL    HW217351   1.175   7.110   1.426
 1774SOL     OW17352   0.321   6.529   0.242
 1774SOL    HW117353   0.403   6.568   0.200
 1774SOL    HW217354   0.294   6.447   0.193
 1775SOL     OW17355   1.458   6.321   0.728
 1775SOL    HW117356   1.453   6.256   0.803
 1775SOL    HW217357   1.538   6.380   0.741
 1776SOL     OW17358   0.461   6.852   1.727
 1776SOL    HW117359   0.411   6.853   1.641
 1776SOL    HW217360   0.398   6.834   1.803
 1777SOL     OW17361   1.111   7.362   0.237
 1777SOL    HW117362   1.051   7.300   0.287
 1777SOL    HW217363   1.142   7.318   0.152
 1778SOL     OW17364   0.202   5.871   1.498
 1778SOL    HW117365   0.122   5.931   1.485
 1778SOL    HW217366   0.192   5.822   1.584
 1779SOL     OW17367   1.632   6.963   0.081
 1779SOL    HW117368   1.600   7.057   0.071
 1779SOL    HW217369   1.556   6.900   0.069
 1780SOL     OW17370   0.464   7.329   0.323
 1780SOL    HW117371   0.497   7.368   0.409
 1780SOL    HW217372   0.540   7.322   0.258
 1781SOL     OW17373   1.400   5.693   0.426
 1781SOL    HW117374   1.376   5.656   0.336
 1781SOL    HW217375   1.499   5.709   0.430
 1782SOL     OW17376   0.249   7.371   1.241
 1782SOL    HW117377   0.306   7.306   1.291
 1782SOL    HW217378   0.233   7.338   1.148
 1783SOL     OW17379   0.940   7.284   0.904
 1783SOL    HW117380   1.020   7.227   0.925
 1783SOL    HW217381   0.891   7.244   0.827
 1784SOL     OW17382   0.382   6.286   0.480
 1784SOL    HW117383   0.427   6.196   0.477
 1784SOL    HW217384   0.288   6.275   0.513
 1785SOL     OW17385   0.614   5.708   0.117
 1785SOL    HW117386   0.712   5.686   0.124
 1785SOL    HW217387   0.583   5.691   0.024
 1786SOL     OW17388   0.888   7.100   1.195
 1786SOL    HW117389   0.865   7.075   1.101
 1786SOL    HW217390   0.949   7.031   1.234
 1787SOL     OW17391   1.351   6.176   1.433
 1787SOL    HW117392   1.379   6.133   1.518
 1787SOL    HW217393   1.376   6.272   1.434
 1788SOL     OW17394   0.803   6.988   0.924
 1788SOL    HW117395   0.893   7.002   0.882
 1788SOL    HW217396   0.732   6.990   0.853
 1789SOL     OW17397   0.922   6.089   0.899
 1789SOL    HW117398   0.897   6.080   0.803
 1789SOL    HW217399   0.970   6.007   0.930
 1790SOL     OW17400   0.539   5.650   0.512
 1790SOL    HW117401   0.458   5.651   0.570
 1790SOL    HW217402   0.542   5.733   0.457
 1791SOL     OW17403   1.434   6.774   0.041
 1791SOL    HW117404   1.466   6.698   0.098
 1791SOL    HW217405   1.342   6.801   0.071
 1792SOL     OW17406   0.297   5.621   0.171
 1792SOL    HW117407   0.346   5.705   0.150
 1792SOL    HW217408   0.359   5.556   0.216
 1793SOL     OW17409   0.935   5.822   0.480
 1793SOL    HW117410   0.887   5.863   0.402
 1793SOL    HW217411   1.034   5.820   0.461
 1794SOL     OW17412   1.076   6.269   1.464
 1794SOL    HW117413   0.996   6.208   1.467
 1794SOL    HW217414   1.157   6.216   1.440
 1795SOL     OW17415   1.227   7.156   0.793
 1795SOL    HW117416   1.248   7.230   0.728
 1795SOL    HW217417   1.295   7.156   0.866
 1796SOL     OW17418   0.459   6.738   0.741
 1796SOL    HW117419   0.388   6.711   0.806
 1796SOL    HW217420   0.433   6.710   0.648
 1797SOL     OW17421   1.271   7.383   0.591
 1797SOL    HW117422   1.315   7.447   0.527
 1797SOL    HW217423   1.221   7.435   0.661
 1798SOL     OW17424   1.032   6.135   0.016
 1798SOL    HW117425   0.991   6.217  -0.023
 1798SOL    HW217426   1.096   6.161   0.089
 1799SOL     OW17427   0.561   5.808   1.147
 1799SOL    HW117428   0.599   5.724   1.184
 1799SOL    HW217429   0.473   5.827   1.191
 1800SOL     OW17430   0.866   6.040   0.642
 1800SOL    HW117431   0.834   6.112   0.580
 1800SOL    HW217432   0.890   5.959   0.589
 1801SOL     OW17433   1.017   5.625   0.753
 1801SOL    HW117434   0.945   5.630   0.684
 1801SOL    HW217435   0.993   5.556   0.822
 1802SOL     OW17436   1.429   6.759   0.867
 1802SOL    HW117437   1.374   6.675   0.860
 1802SOL    HW217438   1.455   6.788   0.775
 1803SOL     OW17439   1.466   6.176   0.992
 1803SOL    HW117440   1.436   6.081   0.999
 1803SOL    HW217441   1.539   6.192   1.058
 1804SOL     OW17442   1.857   6.419   0.377
 1804SOL    HW117443   1.899   6.355   0.441
 1804SOL    HW217444   1.819   6.368   0.299
 1805SOL     OW17445   0.488   6.971   0.174
 1805SOL    HW117446   0.401   6.956   0.221
 1805SOL    HW217447   0.471   6.997   0.079
 1806SOL     OW17448   1.664   6.866   0.657
 1806SOL    HW117449   1.763   6.874   0.671
 1806SOL    HW217450   1.619   6.950   0.688
 1807SOL     OW17451   1.390   6.161   0.078
 1807SOL    HW117452   1.336   6.140   0.159
 1807SOL    HW217453   1.481   6.120   0.087
 1808SOL     OW17454   0.527   5.842   0.328
 1808SOL    HW117455   0.554   5.783   0.253
 1808SOL    HW217456   0.527   5.937   0.297
 1809SOL     OW17457   1.064   6.933   1.340
 1809SOL    HW117458   0.984   6.910   1.395
 1809SOL    HW217459   1.147   6.907   1.389
 1810SOL     OW17460   1.592   7.215   1.625
 1810SOL    HW117461   1.619   7.249   1.535
 1810SOL    HW217462   1.671   7.177   1.671
 1811SOL     OW17463   1.111   6.781   1.100
 1811SOL    HW117464   1.071   6.825   1.181
 1811SOL    HW217465   1.070   6.818   1.017
 1812SOL     OW17466   1.638   6.685   1.079
 1812SOL    HW117467   1.643   6.766   1.138
 1812SOL    HW217468   1.552   6.687   1.028
 1813SOL     OW17469   0.915   5.675   1.402
 1813SOL    HW117470   0.940   5.655   1.307
 1813SOL    HW217471   0.987   5.731   1.444
 1814SOL     OW17472   0.705   6.636   0.368
 1814SOL    HW117473   0.691   6.643   0.467
 1814SOL    HW217474   0.789   6.585   0.350
 1815SOL     OW17475   0.410   6.399   1.251
 1815SOL    HW117476   0.496   6.411   1.301
 1815SOL    HW217477   0.368   6.312   1.278
 1816SOL     OW17478   1.274   5.972   1.262
 1816SOL    HW117479   1.295   6.046   1.326
 1816SOL    HW217480   1.185   5.989   1.219
 1817SOL     OW17481   0.064   7.150   1.331
 1817SOL    HW117482   0.018   7.232   1.297
 1817SOL    HW217483   0.162   7.169   1.340
 1818SOL     OW17484   0.367   6.686   0.501
 1818SOL    HW117485   0.360   6.769   0.445
 1818SOL    HW217486   0.371   6.606   0.441
 1819SOL     OW17487   1.252   6.934   0.388
 1819SOL    HW117488   1.302   7.011   0.428
 1819SOL    HW217489   1.157   6.936   0.420
 1820SOL     OW17490   1.272   7.031   1.142
 1820SOL    HW117491   1.319   7.044   1.229
 1820SOL    HW217492   1.206   6.957   1.151
 1821SOL     OW17493   1.582   6.225   0.472
 1821SOL    HW117494   1.551   6.286   0.545
 1821SOL    HW217495   1.632   6.277   0.403
 1822SOL     OW17496   0.354   7.096   1.329
 1822SOL    HW117497   0.333   7.052   1.242
 1822SOL    HW217498   0.451   7.122   1.332
 1823SOL     OW17499   0.402   6.337   1.598
 1823SOL    HW117500   0.470   6.392   1.551
 1823SOL    HW217501   0.442   6.249   1.625
 1824SOL     OW17502   1.587   6.365   1.670
 1824SOL    HW117503   1.495   6.403   1.665
 1824SOL    HW217504   1.647   6.412   1.605
 1825SOL     OW17505   1.013   5.691   1.770
 1825SOL    HW117506   1.019   5.776   1.718
 1825SOL    HW217507   1.045   5.615   1.713
 1826SOL     OW17508   1.360   6.448   1.045
 1826SOL    HW117509   1.285   6.448   0.979
 1826SOL    HW217510   1.397   6.356   1.054
 1827SOL     OW17511   1.209   6.111   0.275
 1827SOL    HW117512   1.222   6.027   0.329
 1827SOL    HW217513   1.180   6.185   0.335
 1828SOL     OW17514   0.307   5.799   1.231
 1828SOL    HW117515   0.284   5.836   1.321
 1828SOL    HW217516   0.277   5.704   1.225
 1829SOL     OW17517   0.037   6.896   1.282
 1829SOL    HW117518   0.090   6.847   1.350
 1829SOL    HW217519   0.059   6.994   1.287
 1830SOL     OW17520   0.732   6.220   1.064
 1830SOL    HW117521   0.791   6.194   0.988
 1830SOL    HW217522   0.704   6.316   1.053
 1831SOL     OW17523   0.307   5.649   0.618
 1831SOL    HW117524   0.296   5.743   0.651
 1831SOL    HW217525   0.302   5.586   0.695
 1832SOL     OW17526   1.622   5.953   0.374
 1832SOL    HW117527   1.624   5.877   0.438
 1832SOL    HW217528   1.574   6.030   0.414
 1833SOL     OW17529   1.023   6.352   0.966
 1833SOL    HW117530   1.038   6.373   1.062
 1833SOL    HW217531   0.993   6.257   0.957
 1834SOL     OW17532   0.980   7.159   1.700
 1834SOL    HW117533   0.960   7.203   1.612
 1834SOL    HW217534   1.019   7.068   1.684
 1835SOL     OW17535   1.540   5.860   0.125
 1835SOL    HW117536   1.479   5.785   0.148
 1835SOL    HW217537   1.562   5.912   0.208
 1836SOL     OW17538   1.303   6.424   0.042
 1836SOL    HW117539   1.337   6.331   0.057
 1836SOL    HW217540   1.321   6.451  -0.053
 1837SOL     OW17541   1.068   6.919   0.849
 1837SOL    HW117542   1.075   6.835   0.794
 1837SOL    HW217543   1.130   6.988   0.813
 1838SOL     OW17544   1.160   5.793   1.477
 1838SOL    HW117545   1.160   5.857   1.554
 1838SOL    HW217546   1.188   5.841   1.394
 1839SOL     OW17547   0.008   6.912   0.200
 1839SOL    HW117548  -0.085   6.933   0.169
 1839SOL    HW217549   0.018   6.813   0.213
 1840SOL     OW17550   0.088   7.387   0.927
 1840SOL    HW117551   0.046   7.301   0.900
 1840SOL    HW217552   0.182   7.390   0.893
 1841SOL     OW17553   0.504   7.154   0.910
 1841SOL    HW117554   0.570   7.228   0.919
 1841SOL    HW217555   0.548   7.075   0.868
 1842SOL     OW17556   1.002   6.382   1.238
 1842SOL    HW117557   1.043   6.350   1.324
 1842SOL    HW217558   0.906   6.355   1.235
 1843SOL     OW17559   0.815   6.158   0.325
 1843SOL    HW117560   0.822   6.069   0.279
 1843SOL    HW217561   0.721   6.192   0.317
 1844SOL     OW17562   1.657   6.190   1.206
 1844SOL    HW117563   1.619   6.121   1.268
 1844SOL    HW217564   1.739   6.154   1.162
 1845SOL     OW17565   0.671   6.050   1.269
 1845SOL    HW117566   0.637   5.961   1.239
 1845SOL    HW217567   0.697   6.104   1.189
 1846SOL     OW17568   0.930   7.264   1.465
 1846SOL    HW117569   0.906   7.246   1.370
 1846SOL    HW217570   0.960   7.358   1.475
 1847SOL     OW17571   0.473   6.086   0.191
 1847SOL    HW117572   0.534   6.166   0.195
 1847SOL    HW217573   0.378   6.117   0.198
 1848SOL     OW17574   1.347   6.645   1.234
 1848SOL    HW117575   1.371   6.582   1.160
 1848SOL    HW217576   1.257   6.685   1.216
 1849SOL     OW17577   1.302   6.441   0.309
 1849SOL    HW117578   1.216   6.410   0.351
 1849SOL    HW217579   1.298   6.427   0.210
 1850SOL     OW17580   1.759   7.333   1.154
 1850SOL    HW117581   1.820   7.363   1.081
 1850SOL    HW217582   1.721   7.244   1.132
 1851SOL     OW17583   1.252   7.317   1.128
 1851SOL    HW117584   1.336   7.322   1.074
 1851SOL    HW217585   1.229   7.221   1.146
 1852SOL     OW17586   0.083   6.844   1.022
 1852SOL    HW117587   0.078   6.843   1.122
 1852SOL    HW217588   0.000   6.803   0.984
 1853SOL     OW17589   0.688   7.248   1.716
 1853SOL    HW117590   0.632   7.329   1.725
 1853SOL    HW217591   0.740   7.252   1.630
 1854SOL     OW17592   0.903   5.672   0.133
 1854SOL    HW117593   0.954   5.673   0.047
 1854SOL    HW217594   0.959   5.630   0.204
 1855SOL     OW17595   1.726   5.721   0.523
 1855SOL    HW117596   1.799   5.704   0.456
 1855SOL    HW217597   1.695   5.634   0.561
 1856SOL     OW17598   1.388   7.159   0.477
 1856SOL    HW117599   1.455   7.171   0.403
 1856SOL    HW217600   1.348   7.248   0.500
 1857SOL     OW17601   1.280   6.513   0.672
 1857SOL    HW117602   1.340   6.432   0.674
 1857SOL    HW217603   1.320   6.582   0.612
 1858SOL     OW17604   0.830   6.859   1.422
 1858SOL    HW117605   0.825   6.892   1.517
 1858SOL    HW217606   0.744   6.878   1.376
 1859SOL     OW17607   0.672   7.202   0.154
 1859SOL    HW117608   0.681   7.212   0.055
 1859SOL    HW217609   0.632   7.113   0.175
 1860SOL     OW17610   1.650   7.306   1.394
 1860SOL    HW117611   1.703   7.316   1.310
 1860SOL    HW217612   1.623   7.396   1.428
 1861SOL     OW17613   1.841   5.761   0.963
 1861SOL    HW117614   1.880   5.676   0.927
 1861SOL    HW217615   1.743   5.763   0.944
 1862SOL     OW17616   0.263   5.912   0.720
 1862SOL    HW117617   0.184   5.963   0.686
 1862SOL    HW217618   0.254   5.897   0.818
 1863SOL     OW17619   1.194   7.198   0.031
 1863SOL    HW117620   1.200   7.105   0.068
 1863SOL    HW217621   1.135   7.198  -0.049
 1864SOL     OW17622   0.822   6.588   1.372
 1864SOL    HW117623   0.862   6.587   1.280
 1864SOL    HW217624   0.832   6.680   1.412
 1865SOL     OW17625   0.916   6.496   0.291
 1865SOL    HW117626   0.979   6.534   0.223
 1865SOL    HW217627   0.956   6.413   0.330
 1866SOL     OW17628   1.504   7.193   0.044
 1866SOL    HW117629   1.412   7.230   0.051
 1866SOL    HW217630   1.542   7.213  -0.046
 1867SOL     OW17631   0.372   6.874   1.490
 1867SOL    HW117632   0.359   6.967   1.456
 1867SOL    HW217633   0.288   6.822   1.477
 1868SOL     OW17634   1.614   6.878   1.289
 1868SOL    HW117635   1.674   6.881   1.369
 1868SOL    HW217636   1.539   6.942   1.302
 1869SOL     OW17637   1.039   6.684   0.696
 1869SOL    HW117638   0.969   6.637   0.750
 1869SOL    HW217639   1.098   6.616   0.653
 1870SOL     OW17640   1.014   5.822   0.971
 1870SOL    HW117641   1.006   5.786   0.878
 1870SOL    HW217642   1.012   5.746   1.036
 1871SOL     OW17643   0.590   7.073   0.491
 1871SOL    HW117644   0.632   7.015   0.421
 1871SOL    HW217645   0.546   7.152   0.447
 1872SOL     OW17646   0.255   6.934   0.290
 1872SOL    HW117647   0.159   6.935   0.263
 1872SOL    HW217648   0.267   6.987   0.374
 1873SOL     OW17649   0.075   5.931   0.033
 1873SOL    HW117650  -0.017   5.903   0.004
 1873SOL    HW217651   0.106   6.008  -0.023
 1874SOL     OW17652   1.440   6.442   1.398
 1874SOL    HW117653   1.383   6.494   1.335
 1874SOL    HW217654   1.536   6.454   1.374
 1875SOL     OW17655   0.072   5.752   0.318
 1875SOL    HW117656   0.055   5.835   0.264
 1875SOL    HW217657   0.162   5.715   0.296
 1876SOL     OW17658   1.183   6.921   0.119
 1876SOL    HW117659   1.084   6.910   0.121
 1876SOL    HW217660   1.217   6.936   0.212
 1877SOL     OW17661   0.613   6.428   1.431
 1877SOL    HW117662   0.669   6.509   1.414
 1877SOL    HW217663   0.672   6.348   1.434
 1878SOL     OW17664   1.493   7.353   0.959
 1878SOL    HW117665   1.526   7.417   0.890
 1878SOL    HW217666   1.559   7.347   1.034
 1879SOL     OW17667   0.390   7.327   1.560
 1879SOL    HW117668   0.299   7.368   1.558
 1879SOL    HW217669   0.383   7.233   1.592
 1880SOL     OW17670   1.674   6.469   1.254
 1880SOL    HW117671   1.647   6.380   1.217
 1880SOL    HW217672   1.675   6.537   1.181
 1881SOL     OW17673   1.225   5.911   0.449
 1881SOL    HW117674   1.290   5.837   0.438
 1881SOL    HW217675   1.245   5.961   0.533
 1882SOL     OW17676   0.594   6.331   0.652
 1882SOL    HW117677   0.644   6.416   0.633
 1882SOL    HW217678   0.506   6.333   0.604
 1883SOL     OW17679   1.730   6.520   1.517
 1883SOL    HW117680   1.768   6.611   1.532
 1883SOL    HW217681   1.722   6.503   1.418
 1884SOL     OW17682   0.859   6.960   0.016
 1884SOL    HW117683   0.813   6.975   0.104
 1884SOL    HW217684   0.903   7.045  -0.014
 1885SOL     OW17685   0.661   7.376   0.953
 1885SOL    HW117686   0.615   7.464   0.940
 1885SOL    HW217687   0.760   7.388   0.946
 1886SOL     OW17688   0.859   6.542   0.861
 1886SOL    HW117689   0.913   6.473   0.909
 1886SOL    HW217690   0.827   6.611   0.927
 1887SOL     OW17691   1.083   6.570   0.087
 1887SOL    HW117692   1.060   6.623   0.005
 1887SOL    HW217693   1.164   6.514   0.068
 1888SOL     OW17694   1.861   7.155   0.851
 1888SOL    HW117695   1.790   7.143   0.781
 1888SOL    HW217696   1.862   7.076   0.911
 1889SOL     OW17697   0.079   6.826   0.653
 1889SOL    HW117698   0.078   6.779   0.741
 1889SOL    HW217699   0.161   6.798   0.602
 1890SOL     OW17700   0.672   6.977   1.624
 1890SOL    HW117701   0.594   6.927   1.662
 1890SOL    HW217702   0.669   7.072   1.655
 1891SOL     OW17703   1.824   5.778   1.227
 1891SOL    HW117704   1.820   5.688   1.271
 1891SOL    HW217705   1.827   5.767   1.128
 1892SOL     OW17706   0.428   6.010   0.520
 1892SOL    HW117707   0.458   5.938   0.458
 1892SOL    HW217708   0.389   5.970   0.603
 1893SOL     OW17709   1.705   7.073   1.104
 1893SOL    HW117710   1.612   7.048   1.077
 1893SOL    HW217711   1.731   7.023   1.186
 1894SOL     OW17712   0.317   6.133   1.280
 1894SOL    HW117713   0.355   6.074   1.352
 1894SOL    HW217714   0.357   6.107   1.192
 1895SOL     OW17715   0.812   7.172   0.687
 1895SOL    HW117716   0.844   7.182   0.593
 1895SOL    HW217717   0.733   7.110   0.689
 1896SOL     OW17718   1.424   5.800   1.112
 1896SOL    HW117719   1.476   5.735   1.167
 1896SOL    HW217720   1.375   5.863   1.173
 1897SOL     OW17721   1.001   5.620   1.154
 1897SOL    HW117722   0.938   5.548   1.123
 1897SOL    HW217723   1.094   5.584   1.154
 1898SOL     OW17724   0.770   6.916   0.301
 1898SOL    HW117725   0.724   6.829   0.318
 1898SOL    HW217726   0.861   6.913   0.342
 1899SOL     OW17727   0.618   7.153   1.284
 1899SOL    HW117728   0.613   7.235   1.341
 1899SOL    HW217729   0.707   7.150   1.239
 1900SOL     OW17730   1.352   5.638   0.168
 1900SOL    HW117731   1.387   5.597   0.084
 1900SOL    HW217732   1.262   5.600   0.188
 1901SOL     OW17733   1.300   6.039   0.691
 1901SOL    HW117734   1.241   6.119   0.695
 1901SOL    HW217735   1.315   6.004   0.784
 1902SOL     OW17736   1.593   5.807   0.882
 1902SOL    HW117737   1.509   5.806   0.936
 1902SOL    HW217738   1.595   5.890   0.826
 1903SOL     OW17739   0.039   6.663   0.300
 1903SOL    HW117740   0.138   6.652   0.291
 1903SOL    HW217741  -0.001   6.577   0.332
 1904SOL     OW17742   0.875   7.232   0.337
 1904SOL    HW117743   0.798   7.197   0.283
 1904SOL    HW217744   0.843   7.303   0.399
 1905SOL     OW17745   0.225   5.861   2.858
 1905SOL    HW117746   0.260   5.844   2.950
 1905SOL    HW217747   0.137   5.816   2.846
 1906SOL     OW17748   0.569   6.861   3.027
 1906SOL    HW117749   0.476   6.854   2.990
 1906SOL    HW217750   0.580   6.950   3.071
 1907SOL     OW17751   0.335   7.021   2.923
 1907SOL    HW117752   0.257   6.990   2.870
 1907SOL    HW217753   0.393   7.079   2.866
 1908SOL     OW17754   0.438   5.978   3.361
 1908SOL    HW117755   0.520   5.922   3.370
 1908SOL    HW217756   0.357   5.920   3.365
 1909SOL     OW17757   0.231   7.299   2.345
 1909SOL    HW117758   0.265   7.376   2.399
 1909SOL    HW217759   0.275   7.299   2.255
 1910SOL     OW17760   0.606   6.550   1.985
 1910SOL    HW117761   0.613   6.634   1.931
 1910SOL    HW217762   0.652   6.563   2.073
 1911SOL     OW17763   1.594   5.700   3.342
 1911SOL    HW117764   1.576   5.767   3.270
 1911SOL    HW217765   1.591   5.746   3.431
 1912SOL     OW17766   1.689   6.508   2.474
 1912SOL    HW117767   1.784   6.479   2.482
 1912SOL    HW217768   1.681   6.573   2.399
 1913SOL     OW17769   0.613   6.951   2.588
 1913SOL    HW117770   0.564   6.864   2.597
 1913SOL    HW217771   0.590   6.994   2.501
 1914SOL     OW17772   1.293   6.814   3.285
 1914SOL    HW117773   1.330   6.741   3.227
 1914SOL    HW217774   1.345   6.819   3.370
 1915SOL     OW17775   0.197   6.562   3.126
 1915SOL    HW117776   0.286   6.517   3.112
 1915SOL    HW217777   0.124   6.497   3.107
 1916SOL     OW17778   1.525   6.585   2.052
 1916SOL    HW117779   1.462   6.509   2.065
 1916SOL    HW217780   1.573   6.603   2.138
 1917SOL     OW17781   0.807   6.191   3.327
 1917SOL    HW117782   0.760   6.188   3.416
 1917SOL    HW217783   0.756   6.136   3.261
 1918SOL     OW17784   1.719   6.171   3.693
 1918SOL    HW117785   1.693   6.260   3.657
 1918SOL    HW217786   1.717   6.103   3.620
 1919SOL     OW17787   0.550   5.782   2.747
 1919SOL    HW117788   0.545   5.777   2.847
 1919SOL    HW217789   0.552   5.878   2.718
 1920SOL     OW17790   1.227   7.136   3.368
 1920SOL    HW117791   1.233   7.059   3.432
 1920SOL    HW217792   1.175   7.110   3.288
 1921SOL     OW17793   0.321   6.529   2.104
 1921SOL    HW117794   0.403   6.568   2.062
 1921SOL    HW217795   0.294   6.447   2.055
 1922SOL     OW17796   1.458   6.321   2.590
 1922SOL    HW117797   1.453   6.256   2.665
 1922SOL    HW217798   1.538   6.380   2.603
 1923SOL     OW17799   0.461   6.852   3.589
 1923SOL    HW117800   0.411   6.853   3.503
 1923SOL    HW217801   0.398   6.834   3.665
 1924SOL     OW17802   0.202   5.871   3.360
 1924SOL    HW117803   0.122   5.931   3.347
 1924SOL    HW217804   0.192   5.822   3.446
 1925SOL     OW17805   0.464   7.329   2.185
 1925SOL    HW117806   0.497   7.368   2.271
 1925SOL    HW217807   0.540   7.322   2.120
 1926SOL     OW17808   0.940   7.284   2.766
 1926SOL    HW117809   1.020   7.227   2.787
 1926SOL    HW217810   0.891   7.244   2.689
 1927SOL     OW17811   0.382   6.286   2.342
 1927SOL    HW117812   0.427   6.196   2.339
 1927SOL    HW217813   0.288   6.275   2.375
 1928SOL     OW17814   0.781   5.850   3.611
 1928SOL    HW117815   0.848   5.789   3.654
 1928SOL    HW217816   0.708   5.869   3.676
 1929SOL     OW17817   0.459   6.738   2.603
 1929SOL    HW117818   0.388   6.711   2.668
 1929SOL    HW217819   0.433   6.710   2.510
 1930SOL     OW17820   1.271   7.383   2.453
 1930SOL    HW117821   1.315   7.447   2.389
 1930SOL    HW217822   1.221   7.435   2.523
 1931SOL     OW17823   0.078   6.142   3.248
 1931SOL    HW117824   0.170   6.141   3.207
 1931SOL    HW217825   0.072   6.216   3.315
 1932SOL     OW17826   0.561   5.808   3.009
 1932SOL    HW117827   0.599   5.724   3.046
 1932SOL    HW217828   0.473   5.827   3.053
 1933SOL     OW17829   0.866   6.040   2.504
 1933SOL    HW117830   0.834   6.112   2.442
 1933SOL    HW217831   0.890   5.959   2.451
 1934SOL     OW17832   1.429   6.759   2.729
 1934SOL    HW117833   1.374   6.675   2.722
 1934SOL    HW217834   1.455   6.788   2.637
 1935SOL     OW17835   1.466   6.176   2.854
 1935SOL    HW117836   1.436   6.081   2.861
 1935SOL    HW217837   1.539   6.192   2.920
 1936SOL     OW17838   1.857   6.419   2.239
 1936SOL    HW117839   1.899   6.355   2.303
 1936SOL    HW217840   1.819   6.368   2.161
 1937SOL     OW17841   1.754   6.809   3.450
 1937SOL    HW117842   1.845   6.770   3.437
 1937SOL    HW217843   1.762   6.905   3.474
 1938SOL     OW17844   1.111   6.781   2.962
 1938SOL    HW117845   1.071   6.825   3.043
 1938SOL    HW217846   1.070   6.818   2.879
 1939SOL     OW17847   1.638   6.685   2.941
 1939SOL    HW117848   1.643   6.766   3.000
 1939SOL    HW217849   1.552   6.687   2.890
 1940SOL     OW17850   0.915   5.675   3.264
 1940SOL    HW117851   0.940   5.655   3.169
 1940SOL    HW217852   0.987   5.731   3.306
 1941SOL     OW17853   0.980   6.702   3.581
 1941SOL    HW117854   0.881   6.708   3.591
 1941SOL    HW217855   1.003   6.622   3.525
 1942SOL     OW17856   0.410   6.399   3.113
 1942SOL    HW117857   0.496   6.411   3.163
 1942SOL    HW217858   0.368   6.312   3.140
 1943SOL     OW17859   0.064   7.150   3.193
 1943SOL    HW117860   0.018   7.232   3.159
 1943SOL    HW217861   0.162   7.169   3.202
 1944SOL     OW17862   1.252   6.934   2.250
 1944SOL    HW117863   1.302   7.011   2.290
 1944SOL    HW217864   1.157   6.936   2.282
 1945SOL     OW17865   0.354   7.096   3.191
 1945SOL    HW117866   0.333   7.052   3.104
 1945SOL    HW217867   0.451   7.122   3.194
 1946SOL     OW17868   1.587   6.365   3.532
 1946SOL    HW117869   1.495   6.403   3.527
 1946SOL    HW217870   1.647   6.412   3.467
 1947SOL     OW17871   0.504   5.636   3.602
 1947SOL    HW117872   0.462   5.579   3.532
 1947SOL    HW217873   0.438   5.705   3.634
 1948SOL     OW17874   0.037   6.896   3.144
 1948SOL    HW117875   0.090   6.847   3.212
 1948SOL    HW217876   0.059   6.994   3.149
 1949SOL     OW17877   0.307   5.649   2.480
 1949SOL    HW117878   0.296   5.743   2.513
 1949SOL    HW217879   0.302   5.586   2.557
 1950SOL     OW17880   1.023   6.352   2.828
 1950SOL    HW117881   1.038   6.373   2.924
 1950SOL    HW217882   0.993   6.257   2.819
 1951SOL     OW17883   1.859   7.104   3.467
 1951SOL    HW117884   1.873   7.131   3.372
 1951SOL    HW217885   1.942   7.126   3.520
 1952SOL     OW17886   0.350   6.484   3.666
 1952SOL    HW117887   0.426   6.528   3.714
 1952SOL    HW217888   0.385   6.437   3.584
 1953SOL     OW17889   0.008   6.912   2.062
 1953SOL    HW117890  -0.085   6.933   2.031
 1953SOL    HW217891   0.018   6.813   2.075
 1954SOL     OW17892   0.504   7.154   2.772
 1954SOL    HW117893   0.570   7.228   2.781
 1954SOL    HW217894   0.548   7.075   2.730
 1955SOL     OW17895   1.002   6.382   3.100
 1955SOL    HW117896   1.043   6.350   3.186
 1955SOL    HW217897   0.906   6.355   3.097
 1956SOL     OW17898   0.189   6.106   3.584
 1956SOL    HW117899   0.248   6.066   3.514
 1956SOL    HW217900   0.131   6.177   3.543
 1957SOL     OW17901   0.815   6.158   2.187
 1957SOL    HW117902   0.822   6.069   2.141
 1957SOL    HW217903   0.721   6.192   2.179
 1958SOL     OW17904   0.671   6.050   3.131
 1958SOL    HW117905   0.637   5.961   3.101
 1958SOL    HW217906   0.697   6.104   3.051
 1959SOL     OW17907   0.159   6.723   3.328
 1959SOL    HW117908   0.181   6.662   3.404
 1959SOL    HW217909   0.169   6.674   3.242
 1960SOL     OW17910   1.252   7.317   2.990
 1960SOL    HW117911   1.336   7.322   2.936
 1960SOL    HW217912   1.229   7.221   3.008
 1961SOL     OW17913   0.688   7.248   3.578
 1961SOL    HW117914   0.632   7.329   3.587
 1961SOL    HW217915   0.740   7.252   3.492
 1962SOL     OW17916   0.830   6.859   3.284
 1962SOL    HW117917   0.825   6.892   3.379
 1962SOL    HW217918   0.744   6.878   3.238
 1963SOL     OW17919   0.672   7.202   2.016
 1963SOL    HW117920   0.681   7.212   1.917
 1963SOL    HW217921   0.632   7.113   2.037
 1964SOL     OW17922   1.504   7.193   1.906
 1964SOL    HW117923   1.412   7.230   1.913
 1964SOL    HW217924   1.542   7.213   1.816
 1965SOL     OW17925   0.372   6.874   3.352
 1965SOL    HW117926   0.359   6.967   3.318
 1965SOL    HW217927   0.288   6.822   3.339
 1966SOL     OW17928   1.614   6.878   3.151
 1966SOL    HW117929   1.674   6.881   3.231
 1966SOL    HW217930   1.539   6.942   3.164
 1967SOL     OW17931   0.590   7.073   2.353
 1967SOL    HW117932   0.632   7.015   2.283
 1967SOL    HW217933   0.546   7.152   2.309
 1968SOL     OW17934   0.716   6.151   3.570
 1968SOL    HW117935   0.735   6.216   3.644
 1968SOL    HW217936   0.776   6.071   3.579
 1969SOL     OW17937   0.594   6.331   2.514
 1969SOL    HW117938   0.644   6.416   2.495
 1969SOL    HW217939   0.506   6.333   2.466
 1970SOL     OW17940   1.861   7.155   2.713
 1970SOL    HW117941   1.790   7.143   2.643
 1970SOL    HW217942   1.862   7.076   2.773
 1971SOL     OW17943   0.812   7.172   2.549
 1971SOL    HW117944   0.844   7.182   2.455
 1971SOL    HW217945   0.733   7.110   2.551
 1972SOL     OW17946   0.770   6.916   2.163
 1972SOL    HW117947   0.724   6.829   2.180
 1972SOL    HW217948   0.861   6.913   2.204
 1973SOL     OW17949   1.352   5.638   2.030
 1973SOL    HW117950   1.387   5.597   1.946
 1973SOL    HW217951   1.262   5.600   2.050
 1974SOL     OW17952   0.039   6.663   2.162
 1974SOL    HW117953   0.138   6.652   2.153
 1974SOL    HW217954  -0.001   6.577   2.194
 1975SOL     OW17955   0.225   5.861   4.720
 1975SOL    HW117956   0.260   5.844   4.812
 1975SOL    HW217957   0.137   5.816   4.708
 1976SOL     OW17958   0.569   6.861   4.889
 1976SOL    HW117959   0.476   6.854   4.852
 1976SOL    HW217960   0.580   6.950   4.933
 1977SOL     OW17961   0.768   6.730   4.747
 1977SOL    HW117962   0.690   6.747   4.807
 1977SOL    HW217963   0.802   6.817   4.711
 1978SOL     OW17964   0.850   6.384   5.547
 1978SOL    HW117965   0.846   6.460   5.612
 1978SOL    HW217966   0.872   6.420   5.456
 1979SOL     OW17967   0.686   6.747   5.527
 1979SOL    HW117968   0.746   6.826   5.541
 1979SOL    HW217969   0.600   6.778   5.486
 1980SOL     OW17970   0.438   5.978   5.223
 1980SOL    HW117971   0.520   5.922   5.232
 1980SOL    HW217972   0.357   5.920   5.227
 1981SOL     OW17973   1.603   6.033   4.461
 1981SOL    HW117974   1.529   6.079   4.411
 1981SOL    HW217975   1.654   6.101   4.514
 1982SOL     OW17976   1.127   6.927   5.414
 1982SOL    HW117977   1.174   6.927   5.502
 1982SOL    HW217978   1.079   6.840   5.403
 1983SOL     OW17979   0.230   7.020   4.262
 1983SOL    HW117980   0.204   7.116   4.262
 1983SOL    HW217981   0.159   6.966   4.307
 1984SOL     OW17982   0.240   6.677   4.610
 1984SOL    HW117983   0.254   6.593   4.662
 1984SOL    HW217984   0.185   6.741   4.665
 1985SOL     OW17985   0.620   7.372   5.163
 1985SOL    HW117986   0.528   7.355   5.198
 1985SOL    HW217987   0.648   7.464   5.189
 1986SOL     OW17988   0.606   6.550   3.847
 1986SOL    HW117989   0.613   6.634   3.793
 1986SOL    HW217990   0.652   6.563   3.935
 1987SOL     OW17991   1.594   5.700   5.204
 1987SOL    HW117992   1.576   5.767   5.132
 1987SOL    HW217993   1.591   5.746   5.293
 1988SOL     OW17994   0.122   6.229   4.287
 1988SOL    HW117995   0.077   6.141   4.304
 1988SOL    HW217996   0.121   6.283   4.371
 1989SOL     OW17997   0.027   7.182   3.841
 1989SOL    HW117998   0.008   7.086   3.862
 1989SOL    HW217999  -0.006   7.240   3.916
 1990SOL     OW18000   0.113   6.323   5.321
 1990SOL    HW118001   0.201   6.310   5.366
 1990SOL    HW218002   0.100   6.420   5.299
 1991SOL     OW18003   0.613   6.951   4.450
 1991SOL    HW118004   0.564   6.864   4.459
 1991SOL    HW218005   0.590   6.994   4.363
 1992SOL     OW18006   1.293   6.814   5.147
 1992SOL    HW118007   1.330   6.741   5.089
 1992SOL    HW218008   1.345   6.819   5.232
 1993SOL     OW18009   0.197   6.562   4.988
 1993SOL    HW118010   0.286   6.517   4.974
 1993SOL    HW218011   0.124   6.497   4.969
 1994SOL     OW18012   1.525   6.585   3.914
 1994SOL    HW118013   1.462   6.509   3.927
 1994SOL    HW218014   1.573   6.603   4.000
 1995SOL     OW18015   1.187   7.378   5.340
 1995SOL    HW118016   1.211   7.438   5.264
 1995SOL    HW218017   1.194   7.283   5.310
 1996SOL     OW18018   0.317   5.837   5.525
 1996SOL    HW118019   0.388   5.908   5.531
 1996SOL    HW218020   0.229   5.876   5.553
 1997SOL     OW18021   1.466   7.003   4.677
 1997SOL    HW118022   1.407   7.009   4.757
 1997SOL    HW218023   1.451   6.915   4.631
 1998SOL     OW18024   1.281   5.931   4.668
 1998SOL    HW118025   1.195   5.881   4.655
 1998SOL    HW218026   1.343   5.877   4.724
 1999SOL     OW18027   1.576   7.248   4.031
 1999SOL    HW118028   1.665   7.294   4.034
 1999SOL    HW218029   1.555   7.224   3.936
 2000SOL     OW18030   0.807   6.191   5.189
 2000SOL    HW118031   0.760   6.188   5.278
 2000SOL    HW218032   0.756   6.136   5.123
 2001SOL     OW18033   1.394   6.055   5.398
 2001SOL    HW118034   1.374   6.098   5.486
 2001SOL    HW218035   1.472   5.993   5.407
 2002SOL     OW18036   0.973   6.476   5.296
 2002SOL    HW118037   1.019   6.392   5.267
 2002SOL    HW218038   0.917   6.510   5.221
 2003SOL     OW18039   0.991   5.996   4.966
 2003SOL    HW118040   0.914   6.030   5.020
 2003SOL    HW218041   0.957   5.945   4.887
 2004SOL     OW18042   1.041   6.287   4.153
 2004SOL    HW118043   1.067   6.283   4.249
 2004SOL    HW218044   0.956   6.236   4.139
 2005SOL     OW18045   0.076   6.397   4.513
 2005SOL    HW118046   0.175   6.385   4.522
 2005SOL    HW218047   0.052   6.492   4.534
 2006SOL     OW18048   0.130   7.407   5.295
 2006SOL    HW118049   0.120   7.392   5.394
 2006SOL    HW218050   0.044   7.443   5.259
 2007SOL     OW18051   1.362   6.730   4.269
 2007SOL    HW118052   1.445   6.701   4.221
 2007SOL    HW218053   1.313   6.797   4.213
 2008SOL     OW18054   0.550   5.782   4.609
 2008SOL    HW118055   0.545   5.777   4.709
 2008SOL    HW218056   0.552   5.878   4.580
 2009SOL     OW18057   0.351   7.387   4.577
 2009SOL    HW118058   0.401   7.301   4.583
 2009SOL    HW218059   0.416   7.464   4.574
 2010SOL     OW18060   1.795   6.652   4.597
 2010SOL    HW118061   1.733   6.637   4.521
 2010SOL    HW218062   1.743   6.663   4.682
 2011SOL     OW18063   0.461   6.852   5.451
 2011SOL    HW118064   0.411   6.853   5.365
 2011SOL    HW218065   0.398   6.834   5.527
 2012SOL     OW18066   0.202   5.871   5.222
 2012SOL    HW118067   0.122   5.931   5.209
 2012SOL    HW218068   0.192   5.822   5.308
 2013SOL     OW18069   1.632   6.963   3.805
 2013SOL    HW118070   1.600   7.057   3.795
 2013SOL    HW218071   1.556   6.900   3.793
 2014SOL     OW18072   1.400   5.693   4.150
 2014SOL    HW118073   1.376   5.656   4.060
 2014SOL    HW218074   1.499   5.709   4.154
 2015SOL     OW18075   0.249   7.371   4.965
 2015SOL    HW118076   0.306   7.306   5.015
 2015SOL    HW218077   0.233   7.338   4.872
 2016SOL     OW18078   0.940   7.284   4.628
 2016SOL    HW118079   1.020   7.227   4.649
 2016SOL    HW218080   0.891   7.244   4.551
 2017SOL     OW18081   0.382   6.286   4.204
 2017SOL    HW118082   0.427   6.196   4.201
 2017SOL    HW218083   0.288   6.275   4.237
 2018SOL     OW18084   1.547   5.808   5.453
 2018SOL    HW118085   1.542   5.845   5.545
 2018SOL    HW218086   1.475   5.739   5.441
 2019SOL     OW18087   0.614   5.708   3.841
 2019SOL    HW118088   0.712   5.686   3.848
 2019SOL    HW218089   0.583   5.691   3.748
 2020SOL     OW18090   0.781   5.850   5.473
 2020SOL    HW118091   0.848   5.789   5.516
 2020SOL    HW218092   0.708   5.869   5.538
 2021SOL     OW18093   0.539   5.650   4.236
 2021SOL    HW118094   0.458   5.651   4.294
 2021SOL    HW218095   0.542   5.733   4.181
 2022SOL     OW18096   0.297   5.621   3.895
 2022SOL    HW118097   0.346   5.705   3.874
 2022SOL    HW218098   0.359   5.556   3.940
 2023SOL     OW18099   0.935   5.822   4.204
 2023SOL    HW118100   0.887   5.863   4.126
 2023SOL    HW218101   1.034   5.820   4.185
 2024SOL     OW18102   1.076   6.269   5.188
 2024SOL    HW118103   0.996   6.208   5.191
 2024SOL    HW218104   1.157   6.216   5.164
 2025SOL     OW18105   1.227   7.156   4.517
 2025SOL    HW118106   1.248   7.230   4.452
 2025SOL    HW218107   1.295   7.156   4.590
 2026SOL     OW18108   0.459   6.738   4.465
 2026SOL    HW118109   0.388   6.711   4.530
 2026SOL    HW218110   0.433   6.710   4.372
 2027SOL     OW18111   0.078   6.142   5.110
 2027SOL    HW118112   0.170   6.141   5.069
 2027SOL    HW218113   0.072   6.216   5.177
 2028SOL     OW18114   0.561   5.808   4.871
 2028SOL    HW118115   0.599   5.724   4.908
 2028SOL    HW218116   0.473   5.827   4.915
 2029SOL     OW18117   1.017   5.625   4.477
 2029SOL    HW118118   0.945   5.630   4.408
 2029SOL    HW218119   0.993   5.556   4.546
 2030SOL     OW18120   1.429   6.759   4.591
 2030SOL    HW118121   1.374   6.675   4.584
 2030SOL    HW218122   1.455   6.788   4.499
 2031SOL     OW18123   1.857   6.419   4.101
 2031SOL    HW118124   1.899   6.355   4.165
 2031SOL    HW218125   1.819   6.368   4.023
 2032SOL     OW18126   1.390   6.161   3.802
 2032SOL    HW118127   1.336   6.140   3.883
 2032SOL    HW218128   1.481   6.120   3.811
 2033SOL     OW18129   1.064   6.933   5.064
 2033SOL    HW118130   0.984   6.910   5.119
 2033SOL    HW218131   1.147   6.907   5.113
 2034SOL     OW18132   1.111   6.781   4.824
 2034SOL    HW118133   1.071   6.825   4.905
 2034SOL    HW218134   1.070   6.818   4.741
 2035SOL     OW18135   1.638   6.685   4.803
 2035SOL    HW118136   1.643   6.766   4.862
 2035SOL    HW218137   1.552   6.687   4.752
 2036SOL     OW18138   0.915   5.675   5.126
 2036SOL    HW118139   0.940   5.655   5.031
 2036SOL    HW218140   0.987   5.731   5.168
 2037SOL     OW18141   0.980   6.702   5.443
 2037SOL    HW118142   0.881   6.708   5.453
 2037SOL    HW218143   1.003   6.622   5.387
 2038SOL     OW18144   0.410   6.399   4.975
 2038SOL    HW118145   0.496   6.411   5.025
 2038SOL    HW218146   0.368   6.312   5.002
 2039SOL     OW18147   1.274   5.972   4.986
 2039SOL    HW118148   1.295   6.046   5.050
 2039SOL    HW218149   1.185   5.989   4.943
 2040SOL     OW18150   0.064   7.150   5.055
 2040SOL    HW118151   0.018   7.232   5.021
 2040SOL    HW218152   0.162   7.169   5.064
 2041SOL     OW18153   0.367   6.686   4.225
 2041SOL    HW118154   0.360   6.769   4.169
 2041SOL    HW218155   0.371   6.606   4.165
 2042SOL     OW18156   1.272   7.031   4.866
 2042SOL    HW118157   1.319   7.044   4.953
 2042SOL    HW218158   1.206   6.957   4.875
 2043SOL     OW18159   0.402   6.337   5.322
 2043SOL    HW118160   0.470   6.392   5.275
 2043SOL    HW218161   0.442   6.249   5.349
 2044SOL     OW18162   1.587   6.365   5.394
 2044SOL    HW118163   1.495   6.403   5.389
 2044SOL    HW218164   1.647   6.412   5.329
 2045SOL     OW18165   1.013   5.691   5.494
 2045SOL    HW118166   1.019   5.776   5.442
 2045SOL    HW218167   1.045   5.615   5.437
 2046SOL     OW18168   0.504   5.636   5.464
 2046SOL    HW118169   0.462   5.579   5.394
 2046SOL    HW218170   0.438   5.705   5.496
 2047SOL     OW18171   0.573   6.456   4.753
 2047SOL    HW118172   0.617   6.545   4.744
 2047SOL    HW218173   0.510   6.456   4.830
 2048SOL     OW18174   0.307   5.799   4.955
 2048SOL    HW118175   0.284   5.836   5.045
 2048SOL    HW218176   0.277   5.704   4.949
 2049SOL     OW18177   0.037   6.896   5.006
 2049SOL    HW118178   0.090   6.847   5.074
 2049SOL    HW218179   0.059   6.994   5.011
 2050SOL     OW18180   1.728   6.521   5.578
 2050SOL    HW118181   1.682   6.514   5.489
 2050SOL    HW218182   1.666   6.565   5.644
 2051SOL     OW18183   0.980   7.159   5.424
 2051SOL    HW118184   0.960   7.203   5.336
 2051SOL    HW218185   1.019   7.068   5.408
 2052SOL     OW18186   0.350   6.484   5.528
 2052SOL    HW118187   0.426   6.528   5.576
 2052SOL    HW218188   0.385   6.437   5.446
 2053SOL     OW18189   1.138   5.966   5.402
 2053SOL    HW118190   1.093   6.029   5.466
 2053SOL    HW218191   1.231   5.997   5.385
 2054SOL     OW18192   1.160   5.793   5.201
 2054SOL    HW118193   1.160   5.857   5.278
 2054SOL    HW218194   1.188   5.841   5.118
 2055SOL     OW18195   1.002   6.382   4.962
 2055SOL    HW118196   1.043   6.350   5.048
 2055SOL    HW218197   0.906   6.355   4.959
 2056SOL     OW18198   0.040   6.130   4.838
 2056SOL    HW118199   0.125   6.097   4.797
 2056SOL    HW218200   0.053   6.145   4.936
 2057SOL     OW18201   0.189   6.106   5.446
 2057SOL    HW118202   0.248   6.066   5.376
 2057SOL    HW218203   0.131   6.177   5.405
 2058SOL     OW18204   1.369   6.536   5.384
 2058SOL    HW118205   1.408   6.625   5.404
 2058SOL    HW218206   1.379   6.516   5.287
 2059SOL     OW18207   0.252   7.150   5.468
 2059SOL    HW118208   0.222   7.207   5.544
 2059SOL    HW218209   0.245   7.053   5.494
 2060SOL     OW18210   0.930   7.264   5.189
 2060SOL    HW118211   0.906   7.246   5.094
 2060SOL    HW218212   0.960   7.358   5.199
 2061SOL     OW18213   0.159   6.723   5.190
 2061SOL    HW118214   0.181   6.662   5.266
 2061SOL    HW218215   0.169   6.674   5.104
 2062SOL     OW18216   1.759   7.333   4.878
 2062SOL    HW118217   1.820   7.363   4.805
 2062SOL    HW218218   1.721   7.244   4.856
 2063SOL     OW18219   0.083   6.844   4.746
 2063SOL    HW118220   0.078   6.843   4.846
 2063SOL    HW218221   0.000   6.803   4.708
 2064SOL     OW18222   0.688   7.248   5.440
 2064SOL    HW118223   0.632   7.329   5.449
 2064SOL    HW218224   0.740   7.252   5.354
 2065SOL     OW18225   1.388   7.159   4.201
 2065SOL    HW118226   1.455   7.171   4.127
 2065SOL    HW218227   1.348   7.248   4.224
 2066SOL     OW18228   0.130   7.380   5.575
 2066SOL    HW118229   0.089   7.306   5.628
 2066SOL    HW218230   0.194   7.431   5.633
 2067SOL     OW18231   0.830   6.859   5.146
 2067SOL    HW118232   0.825   6.892   5.241
 2067SOL    HW218233   0.744   6.878   5.100
 2068SOL     OW18234   0.263   5.912   4.444
 2068SOL    HW118235   0.184   5.963   4.410
 2068SOL    HW218236   0.254   5.897   4.542
 2069SOL     OW18237   0.822   6.588   5.096
 2069SOL    HW118238   0.862   6.587   5.004
 2069SOL    HW218239   0.832   6.680   5.136
 2070SOL     OW18240   0.916   6.496   4.015
 2070SOL    HW118241   0.979   6.534   3.947
 2070SOL    HW218242   0.956   6.413   4.054
 2071SOL     OW18243   0.372   6.874   5.214
 2071SOL    HW118244   0.359   6.967   5.180
 2071SOL    HW218245   0.288   6.822   5.201
 2072SOL     OW18246   1.614   6.878   5.013
 2072SOL    HW118247   1.674   6.881   5.093
 2072SOL    HW218248   1.539   6.942   5.026
 2073SOL     OW18249   1.014   5.822   4.695
 2073SOL    HW118250   1.006   5.786   4.602
 2073SOL    HW218251   1.012   5.746   4.760
 2074SOL     OW18252   0.590   7.073   4.215
 2074SOL    HW118253   0.632   7.015   4.145
 2074SOL    HW218254   0.546   7.152   4.171
 2075SOL     OW18255   0.105   6.599   5.450
 2075SOL    HW118256   0.028   6.566   5.504
 2075SOL    HW218257   0.190   6.569   5.492
 2076SOL     OW18258   0.672   5.789   5.213
 2076SOL    HW118259   0.762   5.773   5.173
 2076SOL    HW218260   0.680   5.794   5.312
 2077SOL     OW18261   0.072   5.752   4.042
 2077SOL    HW118262   0.055   5.835   3.988
 2077SOL    HW218263   0.162   5.715   4.020
 2078SOL     OW18264   0.613   6.428   5.155
 2078SOL    HW118265   0.669   6.509   5.138
 2078SOL    HW218266   0.672   6.348   5.158
 2079SOL     OW18267   0.716   6.151   5.432
 2079SOL    HW118268   0.735   6.216   5.506
 2079SOL    HW218269   0.776   6.071   5.441
 2080SOL     OW18270   1.450   6.806   5.357
 2080SOL    HW118271   1.441   6.796   5.456
 2080SOL    HW218272   1.546   6.799   5.331
 2081SOL     OW18273   0.390   7.327   5.284
 2081SOL    HW118274   0.299   7.368   5.282
 2081SOL    HW218275   0.383   7.233   5.316
 2082SOL     OW18276   1.674   6.469   4.978
 2082SOL    HW118277   1.647   6.380   4.941
 2082SOL    HW218278   1.675   6.537   4.905
 2083SOL     OW18279   1.777   5.928   5.366
 2083SOL    HW118280   1.760   5.959   5.272
 2083SOL    HW218281   1.693   5.891   5.404
 2084SOL     OW18282   1.730   6.520   5.241
 2084SOL    HW118283   1.768   6.611   5.256
 2084SOL    HW218284   1.722   6.503   5.142
 2085SOL     OW18285   0.221   6.900   5.568
 2085SOL    HW118286   0.156   6.827   5.547
 2085SOL    HW218287   0.225   6.914   5.666
 2086SOL     OW18288   0.079   6.826   4.377
 2086SOL    HW118289   0.078   6.779   4.465
 2086SOL    HW218290   0.161   6.798   4.326
 2087SOL     OW18291   0.672   6.977   5.348
 2087SOL    HW118292   0.594   6.927   5.386
 2087SOL    HW218293   0.669   7.072   5.379
 2088SOL     OW18294   1.705   7.073   4.828
 2088SOL    HW118295   1.612   7.048   4.801
 2088SOL    HW218296   1.731   7.023   4.910
 2089SOL     OW18297   0.317   6.133   5.004
 2089SOL    HW118298   0.355   6.074   5.076
 2089SOL    HW218299   0.357   6.107   4.916
 2090SOL     OW18300   0.812   7.172   4.411
 2090SOL    HW118301   0.844   7.182   4.317
 2090SOL    HW218302   0.733   7.110   4.413
 2091SOL     OW18303   1.424   5.800   4.836
 2091SOL    HW118304   1.476   5.735   4.891
 2091SOL    HW218305   1.375   5.863   4.897
 2092SOL     OW18306   1.001   5.620   4.878
 2092SOL    HW118307   0.938   5.548   4.847
 2092SOL    HW218308   1.094   5.584   4.878
 2093SOL     OW18309   1.352   5.638   3.892
 2093SOL    HW118310   1.387   5.597   3.808
 2093SOL    HW218311   1.262   5.600   3.912
 2094SOL     OW18312   1.593   5.807   4.606
 2094SOL    HW118313   1.509   5.806   4.660
 2094SOL    HW218314   1.595   5.890   4.550
 2095SOL     OW18315   0.230   6.214   5.699
 2095SOL    HW118316   0.137   6.212   5.736
 2095SOL    HW218317   0.231   6.175   5.607
 2096SOL     OW18318   0.225   5.861   6.582
 2096SOL    HW118319   0.260   5.844   6.674
 2096SOL    HW218320   0.137   5.816   6.570
 2097SOL     OW18321   0.019   5.954   6.233
 2097SOL    HW118322  -0.063   5.997   6.272
 2097SOL    HW218323  -0.009   5.881   6.170
 2098SOL     OW18324   0.569   6.861   6.751
 2098SOL    HW118325   0.476   6.854   6.714
 2098SOL    HW218326   0.580   6.950   6.795
 2099SOL     OW18327   1.555   7.097   6.289
 2099SOL    HW118328   1.498   7.081   6.370
 2099SOL    HW218329   1.496   7.107   6.209
 2100SOL     OW18330   1.135   6.289   6.303
 2100SOL    HW118331   1.192   6.367   6.278
 2100SOL    HW218332   1.075   6.315   6.379
 2101SOL     OW18333   0.768   6.730   6.609
 2101SOL    HW118334   0.690   6.747   6.669
 2101SOL    HW218335   0.802   6.817   6.573
 2102SOL     OW18336   0.850   6.384   7.409
 2102SOL    HW118337   0.846   6.460   7.474
 2102SOL    HW218338   0.872   6.420   7.318
 2103SOL     OW18339   0.685   6.598   6.251
 2103SOL    HW118340   0.754   6.582   6.321
 2103SOL    HW218341   0.612   6.655   6.289
 2104SOL     OW18342   0.686   6.747   7.389
 2104SOL    HW118343   0.746   6.826   7.403
 2104SOL    HW218344   0.600   6.778   7.348
 2105SOL     OW18345   0.335   7.021   6.647
 2105SOL    HW118346   0.257   6.990   6.594
 2105SOL    HW218347   0.393   7.079   6.590
 2106SOL     OW18348   1.460   7.091   6.925
 2106SOL    HW118349   1.484   7.185   6.951
 2106SOL    HW218350   1.444   7.037   7.007
 2107SOL     OW18351   0.438   5.978   7.085
 2107SOL    HW118352   0.520   5.922   7.094
 2107SOL    HW218353   0.357   5.920   7.089
 2108SOL     OW18354   1.603   6.033   6.323
 2108SOL    HW118355   1.529   6.079   6.273
 2108SOL    HW218356   1.654   6.101   6.376
 2109SOL     OW18357   0.231   7.299   6.069
 2109SOL    HW118358   0.265   7.376   6.123
 2109SOL    HW218359   0.275   7.299   5.979
 2110SOL     OW18360   1.127   6.927   7.276
 2110SOL    HW118361   1.174   6.927   7.364
 2110SOL    HW218362   1.079   6.840   7.265
 2111SOL     OW18363   0.230   7.020   6.124
 2111SOL    HW118364   0.204   7.116   6.124
 2111SOL    HW218365   0.159   6.966   6.169
 2112SOL     OW18366   0.240   6.677   6.472
 2112SOL    HW118367   0.254   6.593   6.524
 2112SOL    HW218368   0.185   6.741   6.527
 2113SOL     OW18369   0.620   7.372   7.025
 2113SOL    HW118370   0.528   7.355   7.060
 2113SOL    HW218371   0.648   7.464   7.051
 2114SOL     OW18372   0.606   6.550   5.709
 2114SOL    HW118373   0.613   6.634   5.655
 2114SOL    HW218374   0.652   6.563   5.797
 2115SOL     OW18375   1.594   5.700   7.066
 2115SOL    HW118376   1.576   5.767   6.994
 2115SOL    HW218377   1.591   5.746   7.155
 2116SOL     OW18378   0.122   6.229   6.149
 2116SOL    HW118379   0.077   6.141   6.166
 2116SOL    HW218380   0.121   6.283   6.233
 2117SOL     OW18381   1.842   7.353   5.945
 2117SOL    HW118382   1.896   7.324   6.025
 2117SOL    HW218383   1.872   7.443   5.916
 2118SOL     OW18384   0.027   7.182   5.703
 2118SOL    HW118385   0.008   7.086   5.724
 2118SOL    HW218386  -0.006   7.240   5.778
 2119SOL     OW18387   1.689   6.508   6.198
 2119SOL    HW118388   1.784   6.479   6.206
 2119SOL    HW218389   1.681   6.573   6.123
 2120SOL     OW18390   1.641   6.694   6.018
 2120SOL    HW118391   1.727   6.696   5.966
 2120SOL    HW218392   1.655   6.741   6.106
 2121SOL     OW18393   0.113   6.323   7.183
 2121SOL    HW118394   0.201   6.310   7.228
 2121SOL    HW218395   0.100   6.420   7.161
 2122SOL     OW18396   0.613   6.951   6.312
 2122SOL    HW118397   0.564   6.864   6.321
 2122SOL    HW218398   0.590   6.994   6.225
 2123SOL     OW18399   1.293   6.814   7.009
 2123SOL    HW118400   1.330   6.741   6.951
 2123SOL    HW218401   1.345   6.819   7.094
 2124SOL     OW18402   0.809   5.590   6.088
 2124SOL    HW118403   0.849   5.681   6.079
 2124SOL    HW218404   0.709   5.598   6.094
 2125SOL     OW18405   0.197   6.562   6.850
 2125SOL    HW118406   0.286   6.517   6.836
 2125SOL    HW218407   0.124   6.497   6.831
 2126SOL     OW18408   1.525   6.585   5.776
 2126SOL    HW118409   1.462   6.509   5.789
 2126SOL    HW218410   1.573   6.603   5.862
 2127SOL     OW18411   1.187   7.378   7.202
 2127SOL    HW118412   1.211   7.438   7.126
 2127SOL    HW218413   1.194   7.283   7.172
 2128SOL     OW18414   0.317   5.837   7.387
 2128SOL    HW118415   0.388   5.908   7.393
 2128SOL    HW218416   0.229   5.876   7.415
 2129SOL     OW18417   1.466   7.003   6.539
 2129SOL    HW118418   1.407   7.009   6.619
 2129SOL    HW218419   1.451   6.915   6.493
 2130SOL     OW18420   1.667   7.300   6.158
 2130SOL    HW118421   1.626   7.277   6.070
 2130SOL    HW218422   1.649   7.226   6.223
 2131SOL     OW18423   0.598   6.315   5.856
 2131SOL    HW118424   0.622   6.384   5.788
 2131SOL    HW218425   0.520   6.348   5.910
 2132SOL     OW18426   1.281   5.931   6.530
 2132SOL    HW118427   1.195   5.881   6.517
 2132SOL    HW218428   1.343   5.877   6.586
 2133SOL     OW18429   1.576   7.248   5.893
 2133SOL    HW118430   1.665   7.294   5.896
 2133SOL    HW218431   1.555   7.224   5.798
 2134SOL     OW18432   0.807   6.191   7.051
 2134SOL    HW118433   0.760   6.188   7.140
 2134SOL    HW218434   0.756   6.136   6.985
 2135SOL     OW18435   0.973   6.476   7.158
 2135SOL    HW118436   1.019   6.392   7.129
 2135SOL    HW218437   0.917   6.510   7.083
 2136SOL     OW18438   0.991   5.996   6.828
 2136SOL    HW118439   0.914   6.030   6.882
 2136SOL    HW218440   0.957   5.945   6.749
 2137SOL     OW18441   1.041   6.287   6.015
 2137SOL    HW118442   1.067   6.283   6.111
 2137SOL    HW218443   0.956   6.236   6.001
 2138SOL     OW18444   0.076   6.397   6.375
 2138SOL    HW118445   0.175   6.385   6.384
 2138SOL    HW218446   0.052   6.492   6.396
 2139SOL     OW18447   0.130   7.407   7.157
 2139SOL    HW118448   0.120   7.392   7.256
 2139SOL    HW218449   0.044   7.443   7.121
 2140SOL     OW18450   0.865   5.934   5.781
 2140SOL    HW118451   0.924   5.997   5.732
 2140SOL    HW218452   0.884   5.840   5.752
 2141SOL     OW18453   1.362   6.730   6.131
 2141SOL    HW118454   1.445   6.701   6.083
 2141SOL    HW218455   1.313   6.797   6.075
 2142SOL     OW18456   0.550   5.782   6.471
 2142SOL    HW118457   0.545   5.777   6.571
 2142SOL    HW218458   0.552   5.878   6.442
 2143SOL     OW18459   1.008   7.042   6.063
 2143SOL    HW118460   0.962   7.114   6.011
 2143SOL    HW218461   1.004   7.062   6.161
 2144SOL     OW18462   0.351   7.387   6.439
 2144SOL    HW118463   0.401   7.301   6.445
 2144SOL    HW218464   0.416   7.464   6.436
 2145SOL     OW18465   1.795   6.652   6.459
 2145SOL    HW118466   1.733   6.637   6.383
 2145SOL    HW218467   1.743   6.663   6.544
 2146SOL     OW18468   1.227   7.136   7.092
 2146SOL    HW118469   1.233   7.059   7.156
 2146SOL    HW218470   1.175   7.110   7.012
 2147SOL     OW18471   0.321   6.529   5.828
 2147SOL    HW118472   0.403   6.568   5.786
 2147SOL    HW218473   0.294   6.447   5.779
 2148SOL     OW18474   1.458   6.321   6.314
 2148SOL    HW118475   1.453   6.256   6.389
 2148SOL    HW218476   1.538   6.380   6.327
 2149SOL     OW18477   0.461   6.852   7.313
 2149SOL    HW118478   0.411   6.853   7.227
 2149SOL    HW218479   0.398   6.834   7.389
 2150SOL     OW18480   1.111   7.362   5.823
 2150SOL    HW118481   1.051   7.300   5.873
 2150SOL    HW218482   1.142   7.318   5.738
 2151SOL     OW18483   0.202   5.871   7.084
 2151SOL    HW118484   0.122   5.931   7.071
 2151SOL    HW218485   0.192   5.822   7.170
 2152SOL     OW18486   0.464   7.329   5.909
 2152SOL    HW118487   0.497   7.368   5.995
 2152SOL    HW218488   0.540   7.322   5.844
 2153SOL     OW18489   1.400   5.693   6.012
 2153SOL    HW118490   1.376   5.656   5.922
 2153SOL    HW218491   1.499   5.709   6.016
 2154SOL     OW18492   0.249   7.371   6.827
 2154SOL    HW118493   0.306   7.306   6.877
 2154SOL    HW218494   0.233   7.338   6.734
 2155SOL     OW18495   0.940   7.284   6.490
 2155SOL    HW118496   1.020   7.227   6.511
 2155SOL    HW218497   0.891   7.244   6.413
 2156SOL     OW18498   0.382   6.286   6.066
 2156SOL    HW118499   0.427   6.196   6.063
 2156SOL    HW218500   0.288   6.275   6.099
 2157SOL     OW18501   0.614   5.708   5.703
 2157SOL    HW118502   0.712   5.686   5.710
 2157SOL    HW218503   0.583   5.691   5.610
 2158SOL     OW18504   0.781   5.850   7.335
 2158SOL    HW118505   0.848   5.789   7.378
 2158SOL    HW218506   0.708   5.869   7.400
 2159SOL     OW18507   0.888   7.100   6.781
 2159SOL    HW118508   0.865   7.075   6.687
 2159SOL    HW218509   0.949   7.031   6.820
 2160SOL     OW18510   1.351   6.176   7.019
 2160SOL    HW118511   1.379   6.133   7.104
 2160SOL    HW218512   1.376   6.272   7.020
 2161SOL     OW18513   0.803   6.988   6.510
 2161SOL    HW118514   0.893   7.002   6.468
 2161SOL    HW218515   0.732   6.990   6.439
 2162SOL     OW18516   0.922   6.089   6.485
 2162SOL    HW118517   0.897   6.080   6.389
 2162SOL    HW218518   0.970   6.007   6.516
 2163SOL     OW18519   0.539   5.650   6.098
 2163SOL    HW118520   0.458   5.651   6.156
 2163SOL    HW218521   0.542   5.733   6.043
 2164SOL     OW18522   1.434   6.774   5.627
 2164SOL    HW118523   1.466   6.698   5.684
 2164SOL    HW218524   1.342   6.801   5.657
 2165SOL     OW18525   0.297   5.621   5.757
 2165SOL    HW118526   0.346   5.705   5.736
 2165SOL    HW218527   0.359   5.556   5.802
 2166SOL     OW18528   0.935   5.822   6.066
 2166SOL    HW118529   0.887   5.863   5.988
 2166SOL    HW218530   1.034   5.820   6.047
 2167SOL     OW18531   1.076   6.269   7.050
 2167SOL    HW118532   0.996   6.208   7.053
 2167SOL    HW218533   1.157   6.216   7.026
 2168SOL     OW18534   1.227   7.156   6.379
 2168SOL    HW118535   1.248   7.230   6.314
 2168SOL    HW218536   1.295   7.156   6.452
 2169SOL     OW18537   0.459   6.738   6.327
 2169SOL    HW118538   0.388   6.711   6.392
 2169SOL    HW218539   0.433   6.710   6.234
 2170SOL     OW18540   1.271   7.383   6.177
 2170SOL    HW118541   1.315   7.447   6.113
 2170SOL    HW218542   1.221   7.435   6.247
 2171SOL     OW18543   1.032   6.135   5.602
 2171SOL    HW118544   0.991   6.217   5.563
 2171SOL    HW218545   1.096   6.161   5.675
 2172SOL     OW18546   0.078   6.142   6.972
 2172SOL    HW118547   0.170   6.141   6.931
 2172SOL    HW218548   0.072   6.216   7.039
 2173SOL     OW18549   0.561   5.808   6.733
 2173SOL    HW118550   0.599   5.724   6.770
 2173SOL    HW218551   0.473   5.827   6.777
 2174SOL     OW18552   0.866   6.040   6.228
 2174SOL    HW118553   0.834   6.112   6.166
 2174SOL    HW218554   0.890   5.959   6.175
 2175SOL     OW18555   1.017   5.625   6.339
 2175SOL    HW118556   0.945   5.630   6.270
 2175SOL    HW218557   0.993   5.556   6.408
 2176SOL     OW18558   1.429   6.759   6.453
 2176SOL    HW118559   1.374   6.675   6.446
 2176SOL    HW218560   1.455   6.788   6.361
 2177SOL     OW18561   1.466   6.176   6.578
 2177SOL    HW118562   1.436   6.081   6.585
 2177SOL    HW218563   1.539   6.192   6.644
 2178SOL     OW18564   1.857   6.419   5.963
 2178SOL    HW118565   1.899   6.355   6.027
 2178SOL    HW218566   1.819   6.368   5.885
 2179SOL     OW18567   0.488   6.971   5.760
 2179SOL    HW118568   0.401   6.956   5.807
 2179SOL    HW218569   0.471   6.997   5.665
 2180SOL     OW18570   1.664   6.866   6.243
 2180SOL    HW118571   1.763   6.874   6.257
 2180SOL    HW218572   1.619   6.950   6.274
 2181SOL     OW18573   1.390   6.161   5.664
 2181SOL    HW118574   1.336   6.140   5.745
 2181SOL    HW218575   1.481   6.120   5.673
 2182SOL     OW18576   0.527   5.842   5.914
 2182SOL    HW118577   0.554   5.783   5.839
 2182SOL    HW218578   0.527   5.937   5.883
 2183SOL     OW18579   1.754   6.809   7.174
 2183SOL    HW118580   1.845   6.770   7.161
 2183SOL    HW218581   1.762   6.905   7.198
 2184SOL     OW18582   1.064   6.933   6.926
 2184SOL    HW118583   0.984   6.910   6.981
 2184SOL    HW218584   1.147   6.907   6.975
 2185SOL     OW18585   1.592   7.215   7.211
 2185SOL    HW118586   1.619   7.249   7.121
 2185SOL    HW218587   1.671   7.177   7.257
 2186SOL     OW18588   1.111   6.781   6.686
 2186SOL    HW118589   1.071   6.825   6.767
 2186SOL    HW218590   1.070   6.818   6.603
 2187SOL     OW18591   1.638   6.685   6.665
 2187SOL    HW118592   1.643   6.766   6.724
 2187SOL    HW218593   1.552   6.687   6.614
 2188SOL     OW18594   0.915   5.675   6.988
 2188SOL    HW118595   0.940   5.655   6.893
 2188SOL    HW218596   0.987   5.731   7.030
 2189SOL     OW18597   0.980   6.702   7.305
 2189SOL    HW118598   0.881   6.708   7.315
 2189SOL    HW218599   1.003   6.622   7.249
 2190SOL     OW18600   0.705   6.636   5.954
 2190SOL    HW118601   0.691   6.643   6.053
 2190SOL    HW218602   0.789   6.585   5.936
 2191SOL     OW18603   0.410   6.399   6.837
 2191SOL    HW118604   0.496   6.411   6.887
 2191SOL    HW218605   0.368   6.312   6.864
 2192SOL     OW18606   1.274   5.972   6.848
 2192SOL    HW118607   1.295   6.046   6.912
 2192SOL    HW218608   1.185   5.989   6.805
 2193SOL     OW18609   0.064   7.150   6.917
 2193SOL    HW118610   0.018   7.232   6.883
 2193SOL    HW218611   0.162   7.169   6.926
 2194SOL     OW18612   0.367   6.686   6.087
 2194SOL    HW118613   0.360   6.769   6.031
 2194SOL    HW218614   0.371   6.606   6.027
 2195SOL     OW18615   0.566   6.123   6.451
 2195SOL    HW118616   0.578   6.189   6.377
 2195SOL    HW218617   0.612   6.157   6.534
 2196SOL     OW18618   1.252   6.934   5.974
 2196SOL    HW118619   1.302   7.011   6.014
 2196SOL    HW218620   1.157   6.936   6.006
 2197SOL     OW18621   1.272   7.031   6.728
 2197SOL    HW118622   1.319   7.044   6.815
 2197SOL    HW218623   1.206   6.957   6.737
 2198SOL     OW18624   1.582   6.225   6.058
 2198SOL    HW118625   1.551   6.286   6.131
 2198SOL    HW218626   1.632   6.277   5.989
 2199SOL     OW18627   0.354   7.096   6.915
 2199SOL    HW118628   0.333   7.052   6.828
 2199SOL    HW218629   0.451   7.122   6.918
 2200SOL     OW18630   0.402   6.337   7.184
 2200SOL    HW118631   0.470   6.392   7.137
 2200SOL    HW218632   0.442   6.249   7.211
 2201SOL     OW18633   1.587   6.365   7.256
 2201SOL    HW118634   1.495   6.403   7.251
 2201SOL    HW218635   1.647   6.412   7.191
 2202SOL     OW18636   0.573   6.456   6.615
 2202SOL    HW118637   0.617   6.545   6.606
 2202SOL    HW218638   0.510   6.456   6.692
 2203SOL     OW18639   1.360   6.448   6.631
 2203SOL    HW118640   1.285   6.448   6.565
 2203SOL    HW218641   1.397   6.356   6.640
 2204SOL     OW18642   1.209   6.111   5.861
 2204SOL    HW118643   1.222   6.027   5.915
 2204SOL    HW218644   1.180   6.185   5.921
 2205SOL     OW18645   0.307   5.799   6.817
 2205SOL    HW118646   0.284   5.836   6.907
 2205SOL    HW218647   0.277   5.704   6.811
 2206SOL     OW18648   0.037   6.896   6.868
 2206SOL    HW118649   0.090   6.847   6.936
 2206SOL    HW218650   0.059   6.994   6.873
 2207SOL     OW18651   0.732   6.220   6.650
 2207SOL    HW118652   0.791   6.194   6.574
 2207SOL    HW218653   0.704   6.316   6.639
 2208SOL     OW18654   1.728   6.521   7.440
 2208SOL    HW118655   1.682   6.514   7.351
 2208SOL    HW218656   1.666   6.565   7.506
 2209SOL     OW18657   0.307   5.649   6.204
 2209SOL    HW118658   0.296   5.743   6.237
 2209SOL    HW218659   0.302   5.586   6.281
 2210SOL     OW18660   1.622   5.953   5.960
 2210SOL    HW118661   1.624   5.877   6.024
 2210SOL    HW218662   1.574   6.030   6.000
 2211SOL     OW18663   1.023   6.352   6.552
 2211SOL    HW118664   1.038   6.373   6.648
 2211SOL    HW218665   0.993   6.257   6.543
 2212SOL     OW18666   0.980   7.159   7.286
 2212SOL    HW118667   0.960   7.203   7.198
 2212SOL    HW218668   1.019   7.068   7.270
 2213SOL     OW18669   1.859   7.104   7.191
 2213SOL    HW118670   1.873   7.131   7.096
 2213SOL    HW218671   1.942   7.126   7.244
 2214SOL     OW18672   0.350   6.484   7.390
 2214SOL    HW118673   0.426   6.528   7.438
 2214SOL    HW218674   0.385   6.437   7.308
 2215SOL     OW18675   1.540   5.860   5.711
 2215SOL    HW118676   1.479   5.785   5.734
 2215SOL    HW218677   1.562   5.912   5.794
 2216SOL     OW18678   1.303   6.424   5.628
 2216SOL    HW118679   1.337   6.331   5.643
 2216SOL    HW218680   1.321   6.451   5.533
 2217SOL     OW18681   1.068   6.919   6.435
 2217SOL    HW118682   1.075   6.835   6.380
 2217SOL    HW218683   1.130   6.988   6.399
 2218SOL     OW18684   0.319   6.396   6.535
 2218SOL    HW118685   0.412   6.432   6.540
 2218SOL    HW218686   0.313   6.311   6.587
 2219SOL     OW18687   0.339   6.095   6.592
 2219SOL    HW118688   0.287   6.012   6.575
 2219SOL    HW218689   0.416   6.100   6.528
 2220SOL     OW18690   1.138   5.966   7.264
 2220SOL    HW118691   1.093   6.029   7.328
 2220SOL    HW218692   1.231   5.997   7.247
 2221SOL     OW18693   1.160   5.793   7.063
 2221SOL    HW118694   1.160   5.857   7.140
 2221SOL    HW218695   1.188   5.841   6.980
 2222SOL     OW18696   0.008   6.912   5.786
 2222SOL    HW118697  -0.085   6.933   5.755
 2222SOL    HW218698   0.018   6.813   5.799
 2223SOL     OW18699   0.088   7.387   6.513
 2223SOL    HW118700   0.046   7.301   6.486
 2223SOL    HW218701   0.182   7.390   6.479
 2224SOL     OW18702   0.504   7.154   6.496
 2224SOL    HW118703   0.570   7.228   6.505
 2224SOL    HW218704   0.548   7.075   6.454
 2225SOL     OW18705   1.002   6.382   6.824
 2225SOL    HW118706   1.043   6.350   6.910
 2225SOL    HW218707   0.906   6.355   6.821
 2226SOL     OW18708   0.040   6.130   6.700
 2226SOL    HW118709   0.125   6.097   6.659
 2226SOL    HW218710   0.053   6.145   6.798
 2227SOL     OW18711   0.815   6.158   5.911
 2227SOL    HW118712   0.822   6.069   5.865
 2227SOL    HW218713   0.721   6.192   5.903
 2228SOL     OW18714   1.657   6.190   6.792
 2228SOL    HW118715   1.619   6.121   6.854
 2228SOL    HW218716   1.739   6.154   6.748
 2229SOL     OW18717   0.252   7.150   7.330
 2229SOL    HW118718   0.222   7.207   7.406
 2229SOL    HW218719   0.245   7.053   7.356
 2230SOL     OW18720   0.671   6.050   6.855
 2230SOL    HW118721   0.637   5.961   6.825
 2230SOL    HW218722   0.697   6.104   6.775
 2231SOL     OW18723   0.930   7.264   7.051
 2231SOL    HW118724   0.906   7.246   6.956
 2231SOL    HW218725   0.960   7.358   7.061
 2232SOL     OW18726   0.473   6.086   5.777
 2232SOL    HW118727   0.534   6.166   5.781
 2232SOL    HW218728   0.378   6.117   5.784
 2233SOL     OW18729   0.159   6.723   7.052
 2233SOL    HW118730   0.181   6.662   7.128
 2233SOL    HW218731   0.169   6.674   6.966
 2234SOL     OW18732   1.347   6.645   6.820
 2234SOL    HW118733   1.371   6.582   6.746
 2234SOL    HW218734   1.257   6.685   6.802
 2235SOL     OW18735   1.302   6.441   5.895
 2235SOL    HW118736   1.216   6.410   5.937
 2235SOL    HW218737   1.298   6.427   5.796
 2236SOL     OW18738   1.759   7.333   6.740
 2236SOL    HW118739   1.820   7.363   6.667
 2236SOL    HW218740   1.721   7.244   6.718
 2237SOL     OW18741   1.252   7.317   6.714
 2237SOL    HW118742   1.336   7.322   6.660
 2237SOL    HW218743   1.229   7.221   6.732
 2238SOL     OW18744   0.083   6.844   6.608
 2238SOL    HW118745   0.078   6.843   6.708
 2238SOL    HW218746   0.000   6.803   6.570
 2239SOL     OW18747   0.688   7.248   7.302
 2239SOL    HW118748   0.632   7.329   7.311
 2239SOL    HW218749   0.740   7.252   7.216
 2240SOL     OW18750   1.726   5.721   6.109
 2240SOL    HW118751   1.799   5.704   6.042
 2240SOL    HW218752   1.695   5.634   6.147
 2241SOL     OW18753   1.388   7.159   6.063
 2241SOL    HW118754   1.455   7.171   5.989
 2241SOL    HW218755   1.348   7.248   6.086
 2242SOL     OW18756   1.280   6.513   6.258
 2242SOL    HW118757   1.340   6.432   6.260
 2242SOL    HW218758   1.320   6.582   6.198
 2243SOL     OW18759   0.830   6.859   7.008
 2243SOL    HW118760   0.825   6.892   7.103
 2243SOL    HW218761   0.744   6.878   6.962
 2244SOL     OW18762   0.672   7.202   5.740
 2244SOL    HW118763   0.681   7.212   5.641
 2244SOL    HW218764   0.632   7.113   5.761
 2245SOL     OW18765   1.650   7.306   6.980
 2245SOL    HW118766   1.703   7.316   6.896
 2245SOL    HW218767   1.623   7.396   7.014
 2246SOL     OW18768   1.841   5.761   6.549
 2246SOL    HW118769   1.880   5.676   6.513
 2246SOL    HW218770   1.743   5.763   6.530
 2247SOL     OW18771   0.263   5.912   6.306
 2247SOL    HW118772   0.184   5.963   6.272
 2247SOL    HW218773   0.254   5.897   6.404
 2248SOL     OW18774   1.194   7.198   5.617
 2248SOL    HW118775   1.200   7.105   5.654
 2248SOL    HW218776   1.135   7.198   5.537
 2249SOL     OW18777   0.822   6.588   6.958
 2249SOL    HW118778   0.862   6.587   6.866
 2249SOL    HW218779   0.832   6.680   6.998
 2250SOL     OW18780   0.916   6.496   5.877
 2250SOL    HW118781   0.979   6.534   5.809
 2250SOL    HW218782   0.956   6.413   5.916
 2251SOL     OW18783   1.504   7.193   5.630
 2251SOL    HW118784   1.412   7.230   5.637
 2251SOL    HW218785   1.542   7.213   5.540
 2252SOL     OW18786   0.372   6.874   7.076
 2252SOL    HW118787   0.359   6.967   7.042
 2252SOL    HW218788   0.288   6.822   7.063
 2253SOL     OW18789   1.614   6.878   6.875
 2253SOL    HW118790   1.674   6.881   6.955
 2253SOL    HW218791   1.539   6.942   6.888
 2254SOL     OW18792   1.039   6.684   6.282
 2254SOL    HW118793   0.969   6.637   6.336
 2254SOL    HW218794   1.098   6.616   6.239
 2255SOL     OW18795   1.014   5.822   6.557
 2255SOL    HW118796   1.006   5.786   6.464
 2255SOL    HW218797   1.012   5.746   6.622
 2256SOL     OW18798   0.590   7.073   6.077
 2256SOL    HW118799   0.632   7.015   6.007
 2256SOL    HW218800   0.546   7.152   6.033
 2257SOL     OW18801   1.709   5.971   6.967
 2257SOL    HW118802   1.782   6.040   6.971
 2257SOL    HW218803   1.737   5.896   6.908
 2258SOL     OW18804   0.255   6.934   5.876
 2258SOL    HW118805   0.159   6.935   5.849
 2258SOL    HW218806   0.267   6.987   5.960
 2259SOL     OW18807   0.105   6.599   7.312
 2259SOL    HW118808   0.028   6.566   7.366
 2259SOL    HW218809   0.190   6.569   7.354
 2260SOL     OW18810   0.672   5.789   7.075
 2260SOL    HW118811   0.762   5.773   7.035
 2260SOL    HW218812   0.680   5.794   7.174
 2261SOL     OW18813   0.075   5.931   5.619
 2261SOL    HW118814  -0.017   5.903   5.590
 2261SOL    HW218815   0.106   6.008   5.563
 2262SOL     OW18816   1.440   6.442   6.984
 2262SOL    HW118817   1.383   6.494   6.921
 2262SOL    HW218818   1.536   6.454   6.960
 2263SOL     OW18819   0.072   5.752   5.904
 2263SOL    HW118820   0.055   5.835   5.850
 2263SOL    HW218821   0.162   5.715   5.882
 2264SOL     OW18822   1.183   6.921   5.705
 2264SOL    HW118823   1.084   6.910   5.707
 2264SOL    HW218824   1.217   6.936   5.798
 2265SOL     OW18825   0.613   6.428   7.017
 2265SOL    HW118826   0.669   6.509   7.000
 2265SOL    HW218827   0.672   6.348   7.020
 2266SOL     OW18828   1.493   7.353   6.545
 2266SOL    HW118829   1.526   7.417   6.476
 2266SOL    HW218830   1.559   7.347   6.620
 2267SOL     OW18831   0.716   6.151   7.294
 2267SOL    HW118832   0.735   6.216   7.368
 2267SOL    HW218833   0.776   6.071   7.303
 2268SOL     OW18834   0.390   7.327   7.146
 2268SOL    HW118835   0.299   7.368   7.144
 2268SOL    HW218836   0.383   7.233   7.178
 2269SOL     OW18837   1.674   6.469   6.840
 2269SOL    HW118838   1.647   6.380   6.803
 2269SOL    HW218839   1.675   6.537   6.767
 2270SOL     OW18840   1.225   5.911   6.035
 2270SOL    HW118841   1.290   5.837   6.024
 2270SOL    HW218842   1.245   5.961   6.119
 2271SOL     OW18843   0.594   6.331   6.238
 2271SOL    HW118844   0.644   6.416   6.219
 2271SOL    HW218845   0.506   6.333   6.190
 2272SOL     OW18846   1.777   5.928   7.228
 2272SOL    HW118847   1.760   5.959   7.134
 2272SOL    HW218848   1.693   5.891   7.266
 2273SOL     OW18849   1.730   6.520   7.103
 2273SOL    HW118850   1.768   6.611   7.118
 2273SOL    HW218851   1.722   6.503   7.004
 2274SOL     OW18852   0.859   6.960   5.602
 2274SOL    HW118853   0.813   6.975   5.690
 2274SOL    HW218854   0.903   7.045   5.572
 2275SOL     OW18855   0.661   7.376   6.539
 2275SOL    HW118856   0.615   7.464   6.526
 2275SOL    HW218857   0.760   7.388   6.532
 2276SOL     OW18858   0.859   6.542   6.447
 2276SOL    HW118859   0.913   6.473   6.495
 2276SOL    HW218860   0.827   6.611   6.513
 2277SOL     OW18861   1.083   6.570   5.673
 2277SOL    HW118862   1.060   6.623   5.591
 2277SOL    HW218863   1.164   6.514   5.654
 2278SOL     OW18864   1.861   7.155   6.437
 2278SOL    HW118865   1.790   7.143   6.367
 2278SOL    HW218866   1.862   7.076   6.497
 2279SOL     OW18867   0.221   6.900   7.430
 2279SOL    HW118868   0.156   6.827   7.409
 2279SOL    HW218869   0.225   6.914   7.528
 2280SOL     OW18870   0.079   6.826   6.239
 2280SOL    HW118871   0.078   6.779   6.327
 2280SOL    HW218872   0.161   6.798   6.188
 2281SOL     OW18873   0.672   6.977   7.210
 2281SOL    HW118874   0.594   6.927   7.248
 2281SOL    HW218875   0.669   7.072   7.241
 2282SOL     OW18876   1.824   5.778   6.813
 2282SOL    HW118877   1.820   5.688   6.857
 2282SOL    HW218878   1.827   5.767   6.714
 2283SOL     OW18879   0.428   6.010   6.106
 2283SOL    HW118880   0.458   5.938   6.044
 2283SOL    HW218881   0.389   5.970   6.189
 2284SOL     OW18882   1.705   7.073   6.690
 2284SOL    HW118883   1.612   7.048   6.663
 2284SOL    HW218884   1.731   7.023   6.772
 2285SOL     OW18885   0.317   6.133   6.866
 2285SOL    HW118886   0.355   6.074   6.938
 2285SOL    HW218887   0.357   6.107   6.778
 2286SOL     OW18888   0.812   7.172   6.273
 2286SOL    HW118889   0.844   7.182   6.179
 2286SOL    HW218890   0.733   7.110   6.275
 2287SOL     OW18891   1.424   5.800   6.698
 2287SOL    HW118892   1.476   5.735   6.753
 2287SOL    HW218893   1.375   5.863   6.759
 2288SOL     OW18894   1.001   5.620   6.740
 2288SOL    HW118895   0.938   5.548   6.709
 2288SOL    HW218896   1.094   5.584   6.740
 2289SOL     OW18897   0.770   6.916   5.887
 2289SOL    HW118898   0.724   6.829   5.904
 2289SOL    HW218899   0.861   6.913   5.928
 2290SOL     OW18900   0.618   7.153   6.870
 2290SOL    HW118901   0.613   7.235   6.927
 2290SOL    HW218902   0.707   7.150   6.825
 2291SOL     OW18903   1.352   5.638   5.754
 2291SOL    HW118904   1.387   5.597   5.670
 2291SOL    HW218905   1.262   5.600   5.774
 2292SOL     OW18906   1.300   6.039   6.277
 2292SOL    HW118907   1.241   6.119   6.281
 2292SOL    HW218908   1.315   6.004   6.370
 2293SOL     OW18909   1.593   5.807   6.468
 2293SOL    HW118910   1.509   5.806   6.522
 2293SOL    HW218911   1.595   5.890   6.412
 2294SOL     OW18912   0.039   6.663   5.886
 2294SOL    HW118913   0.138   6.652   5.877
 2294SOL    HW218914  -0.001   6.577   5.918
 2295SOL     OW18915   0.875   7.232   5.923
 2295SOL    HW118916   0.798   7.197   5.869
 2295SOL    HW218917   0.843   7.303   5.985
 2296SOL     OW18918   0.230   8.076   0.113
 2296SOL    HW118919   0.137   8.074   0.150
 2296SOL    HW218920   0.231   8.037   0.021
 2297SOL     OW18921   0.225   7.723   0.996
 2297SOL    HW118922   0.260   7.706   1.088
 2297SOL    HW218923   0.137   7.678   0.984
 2298SOL     OW18924   0.019   7.816   0.647
 2298SOL    HW118925  -0.063   7.859   0.686
 2298SOL    HW218926  -0.009   7.743   0.584
 2299SOL     OW18927   1.135   8.151   0.717
 2299SOL    HW118928   1.192   8.229   0.692
 2299SOL    HW218929   1.075   8.177   0.793
 2300SOL     OW18930   1.755   8.055   0.231
 2300SOL    HW118931   1.743   8.042   0.132
 2300SOL    HW218932   1.725   7.974   0.280
 2301SOL     OW18933   0.768   8.592   1.023
 2301SOL    HW118934   0.690   8.609   1.083
 2301SOL    HW218935   0.802   8.679   0.987
 2302SOL     OW18936   0.850   8.246   1.823
 2302SOL    HW118937   0.846   8.322   1.888
 2302SOL    HW218938   0.872   8.282   1.732
 2303SOL     OW18939   0.685   8.460   0.665
 2303SOL    HW118940   0.754   8.444   0.735
 2303SOL    HW218941   0.612   8.517   0.703
 2304SOL     OW18942   1.603   7.895   0.737
 2304SOL    HW118943   1.529   7.941   0.687
 2304SOL    HW218944   1.654   7.963   0.790
 2305SOL     OW18945   0.240   8.539   0.886
 2305SOL    HW118946   0.254   8.455   0.938
 2305SOL    HW218947   0.185   8.603   0.941
 2306SOL     OW18948   0.122   8.091   0.563
 2306SOL    HW118949   0.077   8.003   0.580
 2306SOL    HW218950   0.121   8.145   0.647
 2307SOL     OW18951   0.113   8.185   1.597
 2307SOL    HW118952   0.201   8.172   1.642
 2307SOL    HW218953   0.100   8.282   1.575
 2308SOL     OW18954   0.809   7.452   0.502
 2308SOL    HW118955   0.849   7.543   0.493
 2308SOL    HW218956   0.709   7.460   0.508
 2309SOL     OW18957   0.197   8.424   1.264
 2309SOL    HW118958   0.286   8.379   1.250
 2309SOL    HW218959   0.124   8.359   1.245
 2310SOL     OW18960   1.525   8.447   0.190
 2310SOL    HW118961   1.462   8.371   0.203
 2310SOL    HW218962   1.573   8.465   0.276
 2311SOL     OW18963   0.598   8.177   0.270
 2311SOL    HW118964   0.622   8.246   0.202
 2311SOL    HW218965   0.520   8.210   0.324
 2312SOL     OW18966   1.281   7.793   0.944
 2312SOL    HW118967   1.195   7.743   0.931
 2312SOL    HW218968   1.343   7.739   1.000
 2313SOL     OW18969   1.394   7.917   1.674
 2313SOL    HW118970   1.374   7.960   1.762
 2313SOL    HW218971   1.472   7.855   1.683
 2314SOL     OW18972   0.973   8.338   1.572
 2314SOL    HW118973   1.019   8.254   1.543
 2314SOL    HW218974   0.917   8.372   1.497
 2315SOL     OW18975   1.041   8.149   0.429
 2315SOL    HW118976   1.067   8.145   0.525
 2315SOL    HW218977   0.956   8.098   0.415
 2316SOL     OW18978   0.076   8.259   0.789
 2316SOL    HW118979   0.175   8.247   0.798
 2316SOL    HW218980   0.052   8.354   0.810
 2317SOL     OW18981   0.865   7.796   0.195
 2317SOL    HW118982   0.924   7.859   0.146
 2317SOL    HW218983   0.884   7.702   0.166
 2318SOL     OW18984   0.550   7.644   0.885
 2318SOL    HW118985   0.545   7.639   0.985
 2318SOL    HW218986   0.552   7.740   0.856
 2319SOL     OW18987   1.458   8.183   0.728
 2319SOL    HW118988   1.453   8.118   0.803
 2319SOL    HW218989   1.538   8.242   0.741
 2320SOL     OW18990   0.202   7.733   1.498
 2320SOL    HW118991   0.122   7.793   1.485
 2320SOL    HW218992   0.192   7.684   1.584
 2321SOL     OW18993   1.400   7.555   0.426
 2321SOL    HW118994   1.376   7.518   0.336
 2321SOL    HW218995   1.499   7.571   0.430
 2322SOL     OW18996   0.382   8.148   0.480
 2322SOL    HW118997   0.427   8.058   0.477
 2322SOL    HW218998   0.288   8.137   0.513
 2323SOL     OW18999   0.614   7.570   0.117
 2323SOL    HW119000   0.712   7.548   0.124
 2323SOL    HW219001   0.583   7.553   0.024
 2324SOL     OW19002   1.351   8.038   1.433
 2324SOL    HW119003   1.379   7.995   1.518
 2324SOL    HW219004   1.376   8.134   1.434
 2325SOL     OW19005   0.922   7.951   0.899
 2325SOL    HW119006   0.897   7.942   0.803
 2325SOL    HW219007   0.970   7.869   0.930
 2326SOL     OW19008   0.539   7.512   0.512
 2326SOL    HW119009   0.458   7.513   0.570
 2326SOL    HW219010   0.542   7.595   0.457
 2327SOL     OW19011   0.297   7.483   0.171
 2327SOL    HW119012   0.346   7.567   0.150
 2327SOL    HW219013   0.359   7.418   0.216
 2328SOL     OW19014   0.935   7.684   0.480
 2328SOL    HW119015   0.887   7.725   0.402
 2328SOL    HW219016   1.034   7.682   0.461
 2329SOL     OW19017   1.076   8.131   1.464
 2329SOL    HW119018   0.996   8.070   1.467
 2329SOL    HW219019   1.157   8.078   1.440
 2330SOL     OW19020   1.032   7.997   0.016
 2330SOL    HW119021   0.991   8.079  -0.023
 2330SOL    HW219022   1.096   8.023   0.089
 2331SOL     OW19023   0.078   8.004   1.386
 2331SOL    HW119024   0.170   8.003   1.345
 2331SOL    HW219025   0.072   8.078   1.453
 2332SOL     OW19026   0.561   7.670   1.147
 2332SOL    HW119027   0.599   7.586   1.184
 2332SOL    HW219028   0.473   7.689   1.191
 2333SOL     OW19029   0.866   7.902   0.642
 2333SOL    HW119030   0.834   7.974   0.580
 2333SOL    HW219031   0.890   7.821   0.589
 2334SOL     OW19032   1.017   7.487   0.753
 2334SOL    HW119033   0.945   7.492   0.684
 2334SOL    HW219034   0.993   7.418   0.822
 2335SOL     OW19035   1.466   8.038   0.992
 2335SOL    HW119036   1.436   7.943   0.999
 2335SOL    HW219037   1.539   8.054   1.058
 2336SOL     OW19038   1.857   8.281   0.377
 2336SOL    HW119039   1.899   8.217   0.441
 2336SOL    HW219040   1.819   8.230   0.299
 2337SOL     OW19041   1.390   8.023   0.078
 2337SOL    HW119042   1.336   8.002   0.159
 2337SOL    HW219043   1.481   7.982   0.087
 2338SOL     OW19044   0.527   7.704   0.328
 2338SOL    HW119045   0.554   7.645   0.253
 2338SOL    HW219046   0.527   7.799   0.297
 2339SOL     OW19047   1.638   8.547   1.079
 2339SOL    HW119048   1.643   8.628   1.138
 2339SOL    HW219049   1.552   8.549   1.028
 2340SOL     OW19050   0.915   7.537   1.402
 2340SOL    HW119051   0.940   7.517   1.307
 2340SOL    HW219052   0.987   7.593   1.444
 2341SOL     OW19053   0.410   8.261   1.251
 2341SOL    HW119054   0.496   8.273   1.301
 2341SOL    HW219055   0.368   8.174   1.278
 2342SOL     OW19056   1.274   7.834   1.262
 2342SOL    HW119057   1.295   7.908   1.326
 2342SOL    HW219058   1.185   7.851   1.219
 2343SOL     OW19059   0.566   7.985   0.865
 2343SOL    HW119060   0.578   8.051   0.791
 2343SOL    HW219061   0.612   8.019   0.948
 2344SOL     OW19062   1.582   8.087   0.472
 2344SOL    HW119063   1.551   8.148   0.545
 2344SOL    HW219064   1.632   8.139   0.403
 2345SOL     OW19065   0.402   8.199   1.598
 2345SOL    HW119066   0.470   8.254   1.551
 2345SOL    HW219067   0.442   8.111   1.625
 2346SOL     OW19068   1.013   7.553   1.770
 2346SOL    HW119069   1.019   7.638   1.718
 2346SOL    HW219070   1.045   7.477   1.713
 2347SOL     OW19071   0.504   7.498   1.740
 2347SOL    HW119072   0.462   7.441   1.670
 2347SOL    HW219073   0.438   7.567   1.772
 2348SOL     OW19074   0.573   8.318   1.029
 2348SOL    HW119075   0.617   8.407   1.020
 2348SOL    HW219076   0.510   8.318   1.106
 2349SOL     OW19077   1.360   8.310   1.045
 2349SOL    HW119078   1.285   8.310   0.979
 2349SOL    HW219079   1.397   8.218   1.054
 2350SOL     OW19080   1.209   7.973   0.275
 2350SOL    HW119081   1.222   7.889   0.329
 2350SOL    HW219082   1.180   8.047   0.335
 2351SOL     OW19083   0.307   7.661   1.231
 2351SOL    HW119084   0.284   7.698   1.321
 2351SOL    HW219085   0.277   7.566   1.225
 2352SOL     OW19086   0.037   8.758   1.282
 2352SOL    HW119087   0.090   8.709   1.350
 2352SOL    HW219088   0.059   8.856   1.287
 2353SOL     OW19089   0.732   8.082   1.064
 2353SOL    HW119090   0.791   8.056   0.988
 2353SOL    HW219091   0.704   8.178   1.053
 2354SOL     OW19092   1.728   8.383   1.854
 2354SOL    HW119093   1.682   8.376   1.765
 2354SOL    HW219094   1.666   8.427   1.920
 2355SOL     OW19095   0.307   7.511   0.618
 2355SOL    HW119096   0.296   7.605   0.651
 2355SOL    HW219097   0.302   7.448   0.695
 2356SOL     OW19098   1.622   7.815   0.374
 2356SOL    HW119099   1.624   7.739   0.438
 2356SOL    HW219100   1.574   7.892   0.414
 2357SOL     OW19101   1.023   8.214   0.966
 2357SOL    HW119102   1.038   8.235   1.062
 2357SOL    HW219103   0.993   8.119   0.957
 2358SOL     OW19104   0.350   8.346   1.804
 2358SOL    HW119105   0.426   8.390   1.852
 2358SOL    HW219106   0.385   8.299   1.722
 2359SOL     OW19107   1.540   7.722   0.125
 2359SOL    HW119108   1.479   7.647   0.148
 2359SOL    HW219109   1.562   7.774   0.208
 2360SOL     OW19110   1.303   8.286   0.042
 2360SOL    HW119111   1.337   8.193   0.057
 2360SOL    HW219112   1.321   8.313  -0.053
 2361SOL     OW19113   0.319   8.258   0.949
 2361SOL    HW119114   0.412   8.294   0.954
 2361SOL    HW219115   0.313   8.173   1.001
 2362SOL     OW19116   0.339   7.957   1.006
 2362SOL    HW119117   0.287   7.874   0.989
 2362SOL    HW219118   0.416   7.962   0.942
 2363SOL     OW19119   1.138   7.828   1.678
 2363SOL    HW119120   1.093   7.891   1.742
 2363SOL    HW219121   1.231   7.859   1.661
 2364SOL     OW19122   1.160   7.655   1.477
 2364SOL    HW119123   1.160   7.719   1.554
 2364SOL    HW219124   1.188   7.703   1.394
 2365SOL     OW19125   1.002   8.244   1.238
 2365SOL    HW119126   1.043   8.212   1.324
 2365SOL    HW219127   0.906   8.217   1.235
 2366SOL     OW19128   0.040   7.992   1.114
 2366SOL    HW119129   0.125   7.959   1.073
 2366SOL    HW219130   0.053   8.007   1.212
 2367SOL     OW19131   0.815   8.020   0.325
 2367SOL    HW119132   0.822   7.931   0.279
 2367SOL    HW219133   0.721   8.054   0.317
 2368SOL     OW19134   1.657   8.052   1.206
 2368SOL    HW119135   1.619   7.983   1.268
 2368SOL    HW219136   1.739   8.016   1.162
 2369SOL     OW19137   0.671   7.912   1.269
 2369SOL    HW119138   0.637   7.823   1.239
 2369SOL    HW219139   0.697   7.966   1.189
 2370SOL     OW19140   0.473   7.948   0.191
 2370SOL    HW119141   0.534   8.028   0.195
 2370SOL    HW219142   0.378   7.979   0.198
 2371SOL     OW19143   0.159   8.585   1.466
 2371SOL    HW119144   0.181   8.524   1.542
 2371SOL    HW219145   0.169   8.536   1.380
 2372SOL     OW19146   1.347   8.507   1.234
 2372SOL    HW119147   1.371   8.444   1.160
 2372SOL    HW219148   1.257   8.547   1.216
 2373SOL     OW19149   1.302   8.303   0.309
 2373SOL    HW119150   1.216   8.272   0.351
 2373SOL    HW219151   1.298   8.289   0.210
 2374SOL     OW19152   0.903   7.534   0.133
 2374SOL    HW119153   0.954   7.535   0.047
 2374SOL    HW219154   0.959   7.492   0.204
 2375SOL     OW19155   1.726   7.583   0.523
 2375SOL    HW119156   1.799   7.566   0.456
 2375SOL    HW219157   1.695   7.496   0.561
 2376SOL     OW19158   1.280   8.375   0.672
 2376SOL    HW119159   1.340   8.294   0.674
 2376SOL    HW219160   1.320   8.444   0.612
 2377SOL     OW19161   1.841   7.623   0.963
 2377SOL    HW119162   1.880   7.538   0.927
 2377SOL    HW219163   1.743   7.625   0.944
 2378SOL     OW19164   0.263   7.774   0.720
 2378SOL    HW119165   0.184   7.825   0.686
 2378SOL    HW219166   0.254   7.759   0.818
 2379SOL     OW19167   0.916   8.358   0.291
 2379SOL    HW119168   0.979   8.396   0.223
 2379SOL    HW219169   0.956   8.275   0.330
 2380SOL     OW19170   1.014   7.684   0.971
 2380SOL    HW119171   1.006   7.648   0.878
 2380SOL    HW219172   1.012   7.608   1.036
 2381SOL     OW19173   1.709   7.833   1.381
 2381SOL    HW119174   1.782   7.902   1.385
 2381SOL    HW219175   1.737   7.758   1.322
 2382SOL     OW19176   0.105   8.461   1.726
 2382SOL    HW119177   0.028   8.428   1.780
 2382SOL    HW219178   0.190   8.431   1.768
 2383SOL     OW19179   0.075   7.793   0.033
 2383SOL    HW119180  -0.017   7.765   0.004
 2383SOL    HW219181   0.106   7.870  -0.023
 2384SOL     OW19182   1.440   8.304   1.398
 2384SOL    HW119183   1.383   8.356   1.335
 2384SOL    HW219184   1.536   8.316   1.374
 2385SOL     OW19185   0.072   7.614   0.318
 2385SOL    HW119186   0.055   7.697   0.264
 2385SOL    HW219187   0.162   7.577   0.296
 2386SOL     OW19188   0.613   8.290   1.431
 2386SOL    HW119189   0.669   8.371   1.414
 2386SOL    HW219190   0.672   8.210   1.434
 2387SOL     OW19191   0.716   8.013   1.708
 2387SOL    HW119192   0.735   8.078   1.782
 2387SOL    HW219193   0.776   7.933   1.717
 2388SOL     OW19194   1.674   8.331   1.254
 2388SOL    HW119195   1.647   8.242   1.217
 2388SOL    HW219196   1.675   8.399   1.181
 2389SOL     OW19197   1.225   7.773   0.449
 2389SOL    HW119198   1.290   7.699   0.438
 2389SOL    HW219199   1.245   7.823   0.533
 2390SOL     OW19200   0.594   8.193   0.652
 2390SOL    HW119201   0.644   8.278   0.633
 2390SOL    HW219202   0.506   8.195   0.604
 2391SOL     OW19203   1.730   8.382   1.517
 2391SOL    HW119204   1.768   8.473   1.532
 2391SOL    HW219205   1.722   8.365   1.418
 2392SOL     OW19206   1.083   8.432   0.087
 2392SOL    HW119207   1.060   8.485   0.005
 2392SOL    HW219208   1.164   8.376   0.068
 2393SOL     OW19209   1.824   7.640   1.227
 2393SOL    HW119210   1.820   7.550   1.271
 2393SOL    HW219211   1.827   7.629   1.128
 2394SOL     OW19212   0.428   7.872   0.520
 2394SOL    HW119213   0.458   7.800   0.458
 2394SOL    HW219214   0.389   7.832   0.603
 2395SOL     OW19215   0.317   7.995   1.280
 2395SOL    HW119216   0.355   7.936   1.352
 2395SOL    HW219217   0.357   7.969   1.192
 2396SOL     OW19218   1.424   7.662   1.112
 2396SOL    HW119219   1.476   7.597   1.167
 2396SOL    HW219220   1.375   7.725   1.173
 2397SOL     OW19221   1.001   7.482   1.154
 2397SOL    HW119222   0.938   7.410   1.123
 2397SOL    HW219223   1.094   7.446   1.154
 2398SOL     OW19224   1.352   7.500   0.168
 2398SOL    HW119225   1.387   7.459   0.084
 2398SOL    HW219226   1.262   7.462   0.188
 2399SOL     OW19227   1.300   7.901   0.691
 2399SOL    HW119228   1.241   7.981   0.695
 2399SOL    HW219229   1.315   7.866   0.784
 2400SOL     OW19230   1.593   7.669   0.882
 2400SOL    HW119231   1.509   7.668   0.936
 2400SOL    HW219232   1.595   7.752   0.826
 2401SOL     OW19233   0.225   7.723   2.858
 2401SOL    HW119234   0.260   7.706   2.950
 2401SOL    HW219235   0.137   7.678   2.846
 2402SOL     OW19236   0.240   8.539   2.748
 2402SOL    HW119237   0.254   8.455   2.800
 2402SOL    HW219238   0.185   8.603   2.803
 2403SOL     OW19239   0.598   8.177   2.132
 2403SOL    HW119240   0.622   8.246   2.064
 2403SOL    HW219241   0.520   8.210   2.186
 2404SOL     OW19242   1.281   7.793   2.806
 2404SOL    HW119243   1.195   7.743   2.793
 2404SOL    HW219244   1.343   7.739   2.862
 2405SOL     OW19245   0.807   8.053   3.327
 2405SOL    HW119246   0.760   8.050   3.416
 2405SOL    HW219247   0.756   7.998   3.261
 2406SOL     OW19248   0.991   7.858   3.104
 2406SOL    HW119249   0.914   7.892   3.158
 2406SOL    HW219250   0.957   7.807   3.025
 2407SOL     OW19251   1.041   8.149   2.291
 2407SOL    HW119252   1.067   8.145   2.387
 2407SOL    HW219253   0.956   8.098   2.277
 2408SOL     OW19254   1.719   8.033   3.693
 2408SOL    HW119255   1.693   8.122   3.657
 2408SOL    HW219256   1.717   7.965   3.620
 2409SOL     OW19257   0.550   7.644   2.747
 2409SOL    HW119258   0.545   7.639   2.847
 2409SOL    HW219259   0.552   7.740   2.718
 2410SOL     OW19260   1.458   8.183   2.590
 2410SOL    HW119261   1.453   8.118   2.665
 2410SOL    HW219262   1.538   8.242   2.603
 2411SOL     OW19263   1.400   7.555   2.288
 2411SOL    HW119264   1.376   7.518   2.198
 2411SOL    HW219265   1.499   7.571   2.292
 2412SOL     OW19266   1.547   7.670   3.591
 2412SOL    HW119267   1.542   7.707   3.683
 2412SOL    HW219268   1.475   7.601   3.579
 2413SOL     OW19269   0.539   7.512   2.374
 2413SOL    HW119270   0.458   7.513   2.432
 2413SOL    HW219271   0.542   7.595   2.319
 2414SOL     OW19272   1.076   8.131   3.326
 2414SOL    HW119273   0.996   8.070   3.329
 2414SOL    HW219274   1.157   8.078   3.302
 2415SOL     OW19275   1.032   7.997   1.878
 2415SOL    HW119276   0.991   8.079   1.839
 2415SOL    HW219277   1.096   8.023   1.951
 2416SOL     OW19278   0.078   8.004   3.248
 2416SOL    HW119279   0.170   8.003   3.207
 2416SOL    HW219280   0.072   8.078   3.315
 2417SOL     OW19281   1.857   8.281   2.239
 2417SOL    HW119282   1.899   8.217   2.303
 2417SOL    HW219283   1.819   8.230   2.161
 2418SOL     OW19284   1.390   8.023   1.940
 2418SOL    HW119285   1.336   8.002   2.021
 2418SOL    HW219286   1.481   7.982   1.949
 2419SOL     OW19287   0.915   7.537   3.264
 2419SOL    HW119288   0.940   7.517   3.169
 2419SOL    HW219289   0.987   7.593   3.306
 2420SOL     OW19290   0.566   7.985   2.727
 2420SOL    HW119291   0.578   8.051   2.653
 2420SOL    HW219292   0.612   8.019   2.810
 2421SOL     OW19293   0.402   8.199   3.460
 2421SOL    HW119294   0.470   8.254   3.413
 2421SOL    HW219295   0.442   8.111   3.487
 2422SOL     OW19296   1.587   8.227   3.532
 2422SOL    HW119297   1.495   8.265   3.527
 2422SOL    HW219298   1.647   8.274   3.467
 2423SOL     OW19299   1.360   8.310   2.907
 2423SOL    HW119300   1.285   8.310   2.841
 2423SOL    HW219301   1.397   8.218   2.916
 2424SOL     OW19302   0.307   7.661   3.093
 2424SOL    HW119303   0.284   7.698   3.183
 2424SOL    HW219304   0.277   7.566   3.087
 2425SOL     OW19305   1.728   8.383   3.716
 2425SOL    HW119306   1.682   8.376   3.627
 2425SOL    HW219307   1.666   8.427   3.782
 2426SOL     OW19308   0.307   7.511   2.480
 2426SOL    HW119309   0.296   7.605   2.513
 2426SOL    HW219310   0.302   7.448   2.557
 2427SOL     OW19311   0.350   8.346   3.666
 2427SOL    HW119312   0.426   8.390   3.714
 2427SOL    HW219313   0.385   8.299   3.584
 2428SOL     OW19314   0.339   7.957   2.868
 2428SOL    HW119315   0.287   7.874   2.851
 2428SOL    HW219316   0.416   7.962   2.804
 2429SOL     OW19317   1.138   7.828   3.540
 2429SOL    HW119318   1.093   7.891   3.604
 2429SOL    HW219319   1.231   7.859   3.523
 2430SOL     OW19320   1.160   7.655   3.339
 2430SOL    HW119321   1.160   7.719   3.416
 2430SOL    HW219322   1.188   7.703   3.256
 2431SOL     OW19323   0.040   7.992   2.976
 2431SOL    HW119324   0.125   7.959   2.935
 2431SOL    HW219325   0.053   8.007   3.074
 2432SOL     OW19326   1.657   8.052   3.068
 2432SOL    HW119327   1.619   7.983   3.130
 2432SOL    HW219328   1.739   8.016   3.024
 2433SOL     OW19329   0.263   7.774   2.582
 2433SOL    HW119330   0.184   7.825   2.548
 2433SOL    HW219331   0.254   7.759   2.680
 2434SOL     OW19332   1.709   7.833   3.243
 2434SOL    HW119333   1.782   7.902   3.247
 2434SOL    HW219334   1.737   7.758   3.184
 2435SOL     OW19335   0.105   8.461   3.588
 2435SOL    HW119336   0.028   8.428   3.642
 2435SOL    HW219337   0.190   8.431   3.630
 2436SOL     OW19338   0.072   7.614   2.180
 2436SOL    HW119339   0.055   7.697   2.126
 2436SOL    HW219340   0.162   7.577   2.158
 2437SOL     OW19341   0.613   8.290   3.293
 2437SOL    HW119342   0.669   8.371   3.276
 2437SOL    HW219343   0.672   8.210   3.296
 2438SOL     OW19344   1.674   8.331   3.116
 2438SOL    HW119345   1.647   8.242   3.079
 2438SOL    HW219346   1.675   8.399   3.043
 2439SOL     OW19347   0.594   8.193   2.514
 2439SOL    HW119348   0.644   8.278   2.495
 2439SOL    HW219349   0.506   8.195   2.466
 2440SOL     OW19350   1.777   7.790   3.504
 2440SOL    HW119351   1.760   7.821   3.410
 2440SOL    HW219352   1.693   7.753   3.542
 2441SOL     OW19353   1.730   8.382   3.379
 2441SOL    HW119354   1.768   8.473   3.394
 2441SOL    HW219355   1.722   8.365   3.280
 2442SOL     OW19356   1.424   7.662   2.974
 2442SOL    HW119357   1.476   7.597   3.029
 2442SOL    HW219358   1.375   7.725   3.035
 2443SOL     OW19359   0.019   7.816   4.371
 2443SOL    HW119360  -0.063   7.859   4.410
 2443SOL    HW219361  -0.009   7.743   4.308
 2444SOL     OW19362   1.135   8.151   4.441
 2444SOL    HW119363   1.192   8.229   4.416
 2444SOL    HW219364   1.075   8.177   4.517
 2445SOL     OW19365   0.850   8.246   5.547
 2445SOL    HW119366   0.846   8.322   5.612
 2445SOL    HW219367   0.872   8.282   5.456
 2446SOL     OW19368   0.685   8.460   4.389
 2446SOL    HW119369   0.754   8.444   4.459
 2446SOL    HW219370   0.612   8.517   4.427
 2447SOL     OW19371   0.438   7.840   5.223
 2447SOL    HW119372   0.520   7.784   5.232
 2447SOL    HW219373   0.357   7.782   5.227
 2448SOL     OW19374   0.113   8.185   5.321
 2448SOL    HW119375   0.201   8.172   5.366
 2448SOL    HW219376   0.100   8.282   5.299
 2449SOL     OW19377   0.807   8.053   5.189
 2449SOL    HW119378   0.760   8.050   5.278
 2449SOL    HW219379   0.756   7.998   5.123
 2450SOL     OW19380   0.202   7.733   5.222
 2450SOL    HW119381   0.122   7.793   5.209
 2450SOL    HW219382   0.192   7.684   5.308
 2451SOL     OW19383   1.547   7.670   5.453
 2451SOL    HW119384   1.542   7.707   5.545
 2451SOL    HW219385   1.475   7.601   5.441
 2452SOL     OW19386   0.781   7.712   5.473
 2452SOL    HW119387   0.848   7.651   5.516
 2452SOL    HW219388   0.708   7.731   5.538
 2453SOL     OW19389   0.078   8.004   5.110
 2453SOL    HW119390   0.170   8.003   5.069
 2453SOL    HW219391   0.072   8.078   5.177
 2454SOL     OW19392   0.866   7.902   4.366
 2454SOL    HW119393   0.834   7.974   4.304
 2454SOL    HW219394   0.890   7.821   4.313
 2455SOL     OW19395   1.017   7.487   4.477
 2455SOL    HW119396   0.945   7.492   4.408
 2455SOL    HW219397   0.993   7.418   4.546
 2456SOL     OW19398   1.390   8.023   3.802
 2456SOL    HW119399   1.336   8.002   3.883
 2456SOL    HW219400   1.481   7.982   3.811
 2457SOL     OW19401   0.527   7.704   4.052
 2457SOL    HW119402   0.554   7.645   3.977
 2457SOL    HW219403   0.527   7.799   4.021
 2458SOL     OW19404   1.582   8.087   4.196
 2458SOL    HW119405   1.551   8.148   4.269
 2458SOL    HW219406   1.632   8.139   4.127
 2459SOL     OW19407   1.013   7.553   5.494
 2459SOL    HW119408   1.019   7.638   5.442
 2459SOL    HW219409   1.045   7.477   5.437
 2460SOL     OW19410   0.504   7.498   5.464
 2460SOL    HW119411   0.462   7.441   5.394
 2460SOL    HW219412   0.438   7.567   5.496
 2461SOL     OW19413   0.037   8.758   5.006
 2461SOL    HW119414   0.090   8.709   5.074
 2461SOL    HW219415   0.059   8.856   5.011
 2462SOL     OW19416   1.728   8.383   5.578
 2462SOL    HW119417   1.682   8.376   5.489
 2462SOL    HW219418   1.666   8.427   5.644
 2463SOL     OW19419   0.307   7.511   4.342
 2463SOL    HW119420   0.296   7.605   4.375
 2463SOL    HW219421   0.302   7.448   4.419
 2464SOL     OW19422   1.622   7.815   4.098
 2464SOL    HW119423   1.624   7.739   4.162
 2464SOL    HW219424   1.574   7.892   4.138
 2465SOL     OW19425   0.350   8.346   5.528
 2465SOL    HW119426   0.426   8.390   5.576
 2465SOL    HW219427   0.385   8.299   5.446
 2466SOL     OW19428   0.339   7.957   4.730
 2466SOL    HW119429   0.287   7.874   4.713
 2466SOL    HW219430   0.416   7.962   4.666
 2467SOL     OW19431   1.138   7.828   5.402
 2467SOL    HW119432   1.093   7.891   5.466
 2467SOL    HW219433   1.231   7.859   5.385
 2468SOL     OW19434   1.160   7.655   5.201
 2468SOL    HW119435   1.160   7.719   5.278
 2468SOL    HW219436   1.188   7.703   5.118
 2469SOL     OW19437   1.369   8.398   5.384
 2469SOL    HW119438   1.408   8.487   5.404
 2469SOL    HW219439   1.379   8.378   5.287
 2470SOL     OW19440   1.347   8.507   4.958
 2470SOL    HW119441   1.371   8.444   4.884
 2470SOL    HW219442   1.257   8.547   4.940
 2471SOL     OW19443   1.302   8.303   4.033
 2471SOL    HW119444   1.216   8.272   4.075
 2471SOL    HW219445   1.298   8.289   3.934
 2472SOL     OW19446   1.726   7.583   4.247
 2472SOL    HW119447   1.799   7.566   4.180
 2472SOL    HW219448   1.695   7.496   4.285
 2473SOL     OW19449   1.709   7.833   5.105
 2473SOL    HW119450   1.782   7.902   5.109
 2473SOL    HW219451   1.737   7.758   5.046
 2474SOL     OW19452   0.105   8.461   5.450
 2474SOL    HW119453   0.028   8.428   5.504
 2474SOL    HW219454   0.190   8.431   5.492
 2475SOL     OW19455   0.672   7.651   5.213
 2475SOL    HW119456   0.762   7.635   5.173
 2475SOL    HW219457   0.680   7.656   5.312
 2476SOL     OW19458   0.613   8.290   5.155
 2476SOL    HW119459   0.669   8.371   5.138
 2476SOL    HW219460   0.672   8.210   5.158
 2477SOL     OW19461   0.716   8.013   5.432
 2477SOL    HW119462   0.735   8.078   5.506
 2477SOL    HW219463   0.776   7.933   5.441
 2478SOL     OW19464   1.083   8.432   3.811
 2478SOL    HW119465   1.060   8.485   3.729
 2478SOL    HW219466   1.164   8.376   3.792
 2479SOL     OW19467   1.001   7.482   4.878
 2479SOL    HW119468   0.938   7.410   4.847
 2479SOL    HW219469   1.094   7.446   4.878
 2480SOL     OW19470   1.593   7.669   4.606
 2480SOL    HW119471   1.509   7.668   4.660
 2480SOL    HW219472   1.595   7.752   4.550
 2481SOL     OW19473   0.225   7.723   6.582
 2481SOL    HW119474   0.260   7.706   6.674
 2481SOL    HW219475   0.137   7.678   6.570
 2482SOL     OW19476   0.019   7.816   6.233
 2482SOL    HW119477  -0.063   7.859   6.272
 2482SOL    HW219478  -0.009   7.743   6.170
 2483SOL     OW19479   1.135   8.151   6.303
 2483SOL    HW119480   1.192   8.229   6.278
 2483SOL    HW219481   1.075   8.177   6.379
 2484SOL     OW19482   1.755   8.055   5.817
 2484SOL    HW119483   1.743   8.042   5.718
 2484SOL    HW219484   1.725   7.974   5.866
 2485SOL     OW19485   0.768   8.592   6.609
 2485SOL    HW119486   0.690   8.609   6.669
 2485SOL    HW219487   0.802   8.679   6.573
 2486SOL     OW19488   0.850   8.246   7.409
 2486SOL    HW119489   0.846   8.322   7.474
 2486SOL    HW219490   0.872   8.282   7.318
 2487SOL     OW19491   0.685   8.460   6.251
 2487SOL    HW119492   0.754   8.444   6.321
 2487SOL    HW219493   0.612   8.517   6.289
 2488SOL     OW19494   0.438   7.840   7.085
 2488SOL    HW119495   0.520   7.784   7.094
 2488SOL    HW219496   0.357   7.782   7.089
 2489SOL     OW19497   1.603   7.895   6.323
 2489SOL    HW119498   1.529   7.941   6.273
 2489SOL    HW219499   1.654   7.963   6.376
 2490SOL     OW19500   0.240   8.539   6.472
 2490SOL    HW119501   0.254   8.455   6.524
 2490SOL    HW219502   0.185   8.603   6.527
 2491SOL     OW19503   1.594   7.562   7.066
 2491SOL    HW119504   1.576   7.629   6.994
 2491SOL    HW219505   1.591   7.608   7.155
 2492SOL     OW19506   0.122   8.091   6.149
 2492SOL    HW119507   0.077   8.003   6.166
 2492SOL    HW219508   0.121   8.145   6.233
 2493SOL     OW19509   0.113   8.185   7.183
 2493SOL    HW119510   0.201   8.172   7.228
 2493SOL    HW219511   0.100   8.282   7.161
 2494SOL     OW19512   0.809   7.452   6.088
 2494SOL    HW119513   0.849   7.543   6.079
 2494SOL    HW219514   0.709   7.460   6.094
 2495SOL     OW19515   0.197   8.424   6.850
 2495SOL    HW119516   0.286   8.379   6.836
 2495SOL    HW219517   0.124   8.359   6.831
 2496SOL     OW19518   1.525   8.447   5.776
 2496SOL    HW119519   1.462   8.371   5.789
 2496SOL    HW219520   1.573   8.465   5.862
 2497SOL     OW19521   0.317   7.699   7.387
 2497SOL    HW119522   0.388   7.770   7.393
 2497SOL    HW219523   0.229   7.738   7.415
 2498SOL     OW19524   0.598   8.177   5.856
 2498SOL    HW119525   0.622   8.246   5.788
 2498SOL    HW219526   0.520   8.210   5.910
 2499SOL     OW19527   1.281   7.793   6.530
 2499SOL    HW119528   1.195   7.743   6.517
 2499SOL    HW219529   1.343   7.739   6.586
 2500SOL     OW19530   0.807   8.053   7.051
 2500SOL    HW119531   0.760   8.050   7.140
 2500SOL    HW219532   0.756   7.998   6.985
 2501SOL     OW19533   0.973   8.338   7.158
 2501SOL    HW119534   1.019   8.254   7.129
 2501SOL    HW219535   0.917   8.372   7.083
 2502SOL     OW19536   0.991   7.858   6.828
 2502SOL    HW119537   0.914   7.892   6.882
 2502SOL    HW219538   0.957   7.807   6.749
 2503SOL     OW19539   1.041   8.149   6.015
 2503SOL    HW119540   1.067   8.145   6.111
 2503SOL    HW219541   0.956   8.098   6.001
 2504SOL     OW19542   0.076   8.259   6.375
 2504SOL    HW119543   0.175   8.247   6.384
 2504SOL    HW219544   0.052   8.354   6.396
 2505SOL     OW19545   0.865   7.796   5.781
 2505SOL    HW119546   0.924   7.859   5.732
 2505SOL    HW219547   0.884   7.702   5.752
 2506SOL     OW19548   0.550   7.644   6.471
 2506SOL    HW119549   0.545   7.639   6.571
 2506SOL    HW219550   0.552   7.740   6.442
 2507SOL     OW19551   1.458   8.183   6.314
 2507SOL    HW119552   1.453   8.118   6.389
 2507SOL    HW219553   1.538   8.242   6.327
 2508SOL     OW19554   0.202   7.733   7.084
 2508SOL    HW119555   0.122   7.793   7.071
 2508SOL    HW219556   0.192   7.684   7.170
 2509SOL     OW19557   1.400   7.555   6.012
 2509SOL    HW119558   1.376   7.518   5.922
 2509SOL    HW219559   1.499   7.571   6.016
 2510SOL     OW19560   0.382   8.148   6.066
 2510SOL    HW119561   0.427   8.058   6.063
 2510SOL    HW219562   0.288   8.137   6.099
 2511SOL     OW19563   0.614   7.570   5.703
 2511SOL    HW119564   0.712   7.548   5.710
 2511SOL    HW219565   0.583   7.553   5.610
 2512SOL     OW19566   0.781   7.712   7.335
 2512SOL    HW119567   0.848   7.651   7.378
 2512SOL    HW219568   0.708   7.731   7.400
 2513SOL     OW19569   1.351   8.038   7.019
 2513SOL    HW119570   1.379   7.995   7.104
 2513SOL    HW219571   1.376   8.134   7.020
 2514SOL     OW19572   0.922   7.951   6.485
 2514SOL    HW119573   0.897   7.942   6.389
 2514SOL    HW219574   0.970   7.869   6.516
 2515SOL     OW19575   0.539   7.512   6.098
 2515SOL    HW119576   0.458   7.513   6.156
 2515SOL    HW219577   0.542   7.595   6.043
 2516SOL     OW19578   0.297   7.483   5.757
 2516SOL    HW119579   0.346   7.567   5.736
 2516SOL    HW219580   0.359   7.418   5.802
 2517SOL     OW19581   0.935   7.684   6.066
 2517SOL    HW119582   0.887   7.725   5.988
 2517SOL    HW219583   1.034   7.682   6.047
 2518SOL     OW19584   1.076   8.131   7.050
 2518SOL    HW119585   0.996   8.070   7.053
 2518SOL    HW219586   1.157   8.078   7.026
 2519SOL     OW19587   1.032   7.997   5.602
 2519SOL    HW119588   0.991   8.079   5.563
 2519SOL    HW219589   1.096   8.023   5.675
 2520SOL     OW19590   0.078   8.004   6.972
 2520SOL    HW119591   0.170   8.003   6.931
 2520SOL    HW219592   0.072   8.078   7.039
 2521SOL     OW19593   0.561   7.670   6.733
 2521SOL    HW119594   0.599   7.586   6.770
 2521SOL    HW219595   0.473   7.689   6.777
 2522SOL     OW19596   0.866   7.902   6.228
 2522SOL    HW119597   0.834   7.974   6.166
 2522SOL    HW219598   0.890   7.821   6.175
 2523SOL     OW19599   1.017   7.487   6.339
 2523SOL    HW119600   0.945   7.492   6.270
 2523SOL    HW219601   0.993   7.418   6.408
 2524SOL     OW19602   1.466   8.038   6.578
 2524SOL    HW119603   1.436   7.943   6.585
 2524SOL    HW219604   1.539   8.054   6.644
 2525SOL     OW19605   1.857   8.281   5.963
 2525SOL    HW119606   1.899   8.217   6.027
 2525SOL    HW219607   1.819   8.230   5.885
 2526SOL     OW19608   0.527   7.704   5.914
 2526SOL    HW119609   0.554   7.645   5.839
 2526SOL    HW219610   0.527   7.799   5.883
 2527SOL     OW19611   1.638   8.547   6.665
 2527SOL    HW119612   1.643   8.628   6.724
 2527SOL    HW219613   1.552   8.549   6.614
 2528SOL     OW19614   0.915   7.537   6.988
 2528SOL    HW119615   0.940   7.517   6.893
 2528SOL    HW219616   0.987   7.593   7.030
 2529SOL     OW19617   0.410   8.261   6.837
 2529SOL    HW119618   0.496   8.273   6.887
 2529SOL    HW219619   0.368   8.174   6.864
 2530SOL     OW19620   1.274   7.834   6.848
 2530SOL    HW119621   1.295   7.908   6.912
 2530SOL    HW219622   1.185   7.851   6.805
 2531SOL     OW19623   0.566   7.985   6.451
 2531SOL    HW119624   0.578   8.051   6.377
 2531SOL    HW219625   0.612   8.019   6.534
 2532SOL     OW19626   1.582   8.087   6.058
 2532SOL    HW119627   1.551   8.148   6.131
 2532SOL    HW219628   1.632   8.139   5.989
 2533SOL     OW19629   0.402   8.199   7.184
 2533SOL    HW119630   0.470   8.254   7.137
 2533SOL    HW219631   0.442   8.111   7.211
 2534SOL     OW19632   1.587   8.227   7.256
 2534SOL    HW119633   1.495   8.265   7.251
 2534SOL    HW219634   1.647   8.274   7.191
 2535SOL     OW19635   0.573   8.318   6.615
 2535SOL    HW119636   0.617   8.407   6.606
 2535SOL    HW219637   0.510   8.318   6.692
 2536SOL     OW19638   1.360   8.310   6.631
 2536SOL    HW119639   1.285   8.310   6.565
 2536SOL    HW219640   1.397   8.218   6.640
 2537SOL     OW19641   1.209   7.973   5.861
 2537SOL    HW119642   1.222   7.889   5.915
 2537SOL    HW219643   1.180   8.047   5.921
 2538SOL     OW19644   0.307   7.661   6.817
 2538SOL    HW119645   0.284   7.698   6.907
 2538SOL    HW219646   0.277   7.566   6.811
 2539SOL     OW19647   0.037   8.758   6.868
 2539SOL    HW119648   0.090   8.709   6.936
 2539SOL    HW219649   0.059   8.856   6.873
 2540SOL     OW19650   0.732   8.082   6.650
 2540SOL    HW119651   0.791   8.056   6.574
 2540SOL    HW219652   0.704   8.178   6.639
 2541SOL     OW19653   1.728   8.383   7.440
 2541SOL    HW119654   1.682   8.376   7.351
 2541SOL    HW219655   1.666   8.427   7.506
 2542SOL     OW19656   0.307   7.511   6.204
 2542SOL    HW119657   0.296   7.605   6.237
 2542SOL    HW219658   0.302   7.448   6.281
 2543SOL     OW19659   1.622   7.815   5.960
 2543SOL    HW119660   1.624   7.739   6.024
 2543SOL    HW219661   1.574   7.892   6.000
 2544SOL     OW19662   1.023   8.214   6.552
 2544SOL    HW119663   1.038   8.235   6.648
 2544SOL    HW219664   0.993   8.119   6.543
 2545SOL     OW19665   0.350   8.346   7.390
 2545SOL    HW119666   0.426   8.390   7.438
 2545SOL    HW219667   0.385   8.299   7.308
 2546SOL     OW19668   1.540   7.722   5.711
 2546SOL    HW119669   1.479   7.647   5.734
 2546SOL    HW219670   1.562   7.774   5.794
 2547SOL     OW19671   1.303   8.286   5.628
 2547SOL    HW119672   1.337   8.193   5.643
 2547SOL    HW219673   1.321   8.313   5.533
 2548SOL     OW19674   0.319   8.258   6.535
 2548SOL    HW119675   0.412   8.294   6.540
 2548SOL    HW219676   0.313   8.173   6.587
 2549SOL     OW19677   0.339   7.957   6.592
 2549SOL    HW119678   0.287   7.874   6.575
 2549SOL    HW219679   0.416   7.962   6.528
 2550SOL     OW19680   1.138   7.828   7.264
 2550SOL    HW119681   1.093   7.891   7.328
 2550SOL    HW219682   1.231   7.859   7.247
 2551SOL     OW19683   1.160   7.655   7.063
 2551SOL    HW119684   1.160   7.719   7.140
 2551SOL    HW219685   1.188   7.703   6.980
 2552SOL     OW19686   1.002   8.244   6.824
 2552SOL    HW119687   1.043   8.212   6.910
 2552SOL    HW219688   0.906   8.217   6.821
 2553SOL     OW19689   0.040   7.992   6.700
 2553SOL    HW119690   0.125   7.959   6.659
 2553SOL    HW219691   0.053   8.007   6.798
 2554SOL     OW19692   0.815   8.020   5.911
 2554SOL    HW119693   0.822   7.931   5.865
 2554SOL    HW219694   0.721   8.054   5.903
 2555SOL     OW19695   1.657   8.052   6.792
 2555SOL    HW119696   1.619   7.983   6.854
 2555SOL    HW219697   1.739   8.016   6.748
 2556SOL     OW19698   0.671   7.912   6.855
 2556SOL    HW119699   0.637   7.823   6.825
 2556SOL    HW219700   0.697   7.966   6.775
 2557SOL     OW19701   0.473   7.948   5.777
 2557SOL    HW119702   0.534   8.028   5.781
 2557SOL    HW219703   0.378   7.979   5.784
 2558SOL     OW19704   0.159   8.585   7.052
 2558SOL    HW119705   0.181   8.524   7.128
 2558SOL    HW219706   0.169   8.536   6.966
 2559SOL     OW19707   1.347   8.507   6.820
 2559SOL    HW119708   1.371   8.444   6.746
 2559SOL    HW219709   1.257   8.547   6.802
 2560SOL     OW19710   1.302   8.303   5.895
 2560SOL    HW119711   1.216   8.272   5.937
 2560SOL    HW219712   1.298   8.289   5.796
 2561SOL     OW19713   1.726   7.583   6.109
 2561SOL    HW119714   1.799   7.566   6.042
 2561SOL    HW219715   1.695   7.496   6.147
 2562SOL     OW19716   1.280   8.375   6.258
 2562SOL    HW119717   1.340   8.294   6.260
 2562SOL    HW219718   1.320   8.444   6.198
 2563SOL     OW19719   1.841   7.623   6.549
 2563SOL    HW119720   1.880   7.538   6.513
 2563SOL    HW219721   1.743   7.625   6.530
 2564SOL     OW19722   0.263   7.774   6.306
 2564SOL    HW119723   0.184   7.825   6.272
 2564SOL    HW219724   0.254   7.759   6.404
 2565SOL     OW19725   0.916   8.358   5.877
 2565SOL    HW119726   0.979   8.396   5.809
 2565SOL    HW219727   0.956   8.275   5.916
 2566SOL     OW19728   1.014   7.684   6.557
 2566SOL    HW119729   1.006   7.648   6.464
 2566SOL    HW219730   1.012   7.608   6.622
 2567SOL     OW19731   1.709   7.833   6.967
 2567SOL    HW119732   1.782   7.902   6.971
 2567SOL    HW219733   1.737   7.758   6.908
 2568SOL     OW19734   0.105   8.461   7.312
 2568SOL    HW119735   0.028   8.428   7.366
 2568SOL    HW219736   0.190   8.431   7.354
 2569SOL     OW19737   0.672   7.651   7.075
 2569SOL    HW119738   0.762   7.635   7.035
 2569SOL    HW219739   0.680   7.656   7.174
 2570SOL     OW19740   1.440   8.304   6.984
 2570SOL    HW119741   1.383   8.356   6.921
 2570SOL    HW219742   1.536   8.316   6.960
 2571SOL     OW19743   0.072   7.614   5.904
 2571SOL    HW119744   0.055   7.697   5.850
 2571SOL    HW219745   0.162   7.577   5.882
 2572SOL     OW19746   0.613   8.290   7.017
 2572SOL    HW119747   0.669   8.371   7.000
 2572SOL    HW219748   0.672   8.210   7.020
 2573SOL     OW19749   0.716   8.013   7.294
 2573SOL    HW119750   0.735   8.078   7.368
 2573SOL    HW219751   0.776   7.933   7.303
 2574SOL     OW19752   1.674   8.331   6.840
 2574SOL    HW119753   1.647   8.242   6.803
 2574SOL    HW219754   1.675   8.399   6.767
 2575SOL     OW19755   1.225   7.773   6.035
 2575SOL    HW119756   1.290   7.699   6.024
 2575SOL    HW219757   1.245   7.823   6.119
 2576SOL     OW19758   0.594   8.193   6.238
 2576SOL    HW119759   0.644   8.278   6.219
 2576SOL    HW219760   0.506   8.195   6.190
 2577SOL     OW19761   1.777   7.790   7.228
 2577SOL    HW119762   1.760   7.821   7.134
 2577SOL    HW219763   1.693   7.753   7.266
 2578SOL     OW19764   1.730   8.382   7.103
 2578SOL    HW119765   1.768   8.473   7.118
 2578SOL    HW219766   1.722   8.365   7.004
 2579SOL     OW19767   1.083   8.432   5.673
 2579SOL    HW119768   1.060   8.485   5.591
 2579SOL    HW219769   1.164   8.376   5.654
 2580SOL     OW19770   1.824   7.640   6.813
 2580SOL    HW119771   1.820   7.550   6.857
 2580SOL    HW219772   1.827   7.629   6.714
 2581SOL     OW19773   0.428   7.872   6.106
 2581SOL    HW119774   0.458   7.800   6.044
 2581SOL    HW219775   0.389   7.832   6.189
 2582SOL     OW19776   0.317   7.995   6.866
 2582SOL    HW119777   0.355   7.936   6.938
 2582SOL    HW219778   0.357   7.969   6.778
 2583SOL     OW19779   1.424   7.662   6.698
 2583SOL    HW119780   1.476   7.597   6.753
 2583SOL    HW219781   1.375   7.725   6.759
 2584SOL     OW19782   1.001   7.482   6.740
 2584SOL    HW119783   0.938   7.410   6.709
 2584SOL    HW219784   1.094   7.446   6.740
 2585SOL     OW19785   1.352   7.500   5.754
 2585SOL    HW119786   1.387   7.459   5.670
 2585SOL    HW219787   1.262   7.462   5.774
 2586SOL     OW19788   1.300   7.901   6.277
 2586SOL    HW119789   1.241   7.981   6.281
 2586SOL    HW219790   1.315   7.866   6.370
 2587SOL     OW19791   1.593   7.669   6.468
 2587SOL    HW119792   1.509   7.668   6.522
 2587SOL    HW219793   1.595   7.752   6.412
 2588SOL     OW19794   2.092   0.628   0.113
 2588SOL    HW119795   1.999   0.626   0.150
 2588SOL    HW219796   2.093   0.589   0.021
 2589SOL     OW19797   2.087   0.275   0.996
 2589SOL    HW119798   2.122   0.258   1.088
 2589SOL    HW219799   1.999   0.230   0.984
 2590SOL     OW19800   1.881   0.368   0.647
 2590SOL    HW119801   1.799   0.411   0.686
 2590SOL    HW219802   1.853   0.295   0.584
 2591SOL     OW19803   2.431   1.275   1.165
 2591SOL    HW119804   2.338   1.268   1.128
 2591SOL    HW219805   2.442   1.364   1.209
 2592SOL     OW19806   3.417   1.511   0.703
 2592SOL    HW119807   3.360   1.495   0.784
 2592SOL    HW219808   3.358   1.521   0.623
 2593SOL     OW19809   2.997   0.703   0.717
 2593SOL    HW119810   3.054   0.781   0.692
 2593SOL    HW219811   2.937   0.729   0.793
 2594SOL     OW19812   3.617   0.607   0.231
 2594SOL    HW119813   3.605   0.594   0.132
 2594SOL    HW219814   3.587   0.526   0.280
 2595SOL     OW19815   2.630   1.144   1.023
 2595SOL    HW119816   2.552   1.161   1.083
 2595SOL    HW219817   2.664   1.231   0.987
 2596SOL     OW19818   2.712   0.798   1.823
 2596SOL    HW119819   2.708   0.874   1.888
 2596SOL    HW219820   2.734   0.834   1.732
 2597SOL     OW19821   2.547   1.012   0.665
 2597SOL    HW119822   2.616   0.996   0.735
 2597SOL    HW219823   2.474   1.069   0.703
 2598SOL     OW19824   2.548   1.161   1.803
 2598SOL    HW119825   2.608   1.240   1.817
 2598SOL    HW219826   2.462   1.192   1.762
 2599SOL     OW19827   2.197   1.435   1.061
 2599SOL    HW119828   2.119   1.404   1.008
 2599SOL    HW219829   2.255   1.493   1.004
 2600SOL     OW19830   3.322   1.505   1.339
 2600SOL    HW119831   3.346   1.599   1.365
 2600SOL    HW219832   3.306   1.451   1.421
 2601SOL     OW19833   2.300   0.392   1.499
 2601SOL    HW119834   2.382   0.336   1.508
 2601SOL    HW219835   2.219   0.334   1.503
 2602SOL     OW19836   3.465   0.447   0.737
 2602SOL    HW119837   3.391   0.493   0.687
 2602SOL    HW219838   3.516   0.515   0.790
 2603SOL     OW19839   2.093   1.713   0.483
 2603SOL    HW119840   2.127   1.790   0.537
 2603SOL    HW219841   2.137   1.713   0.393
 2604SOL     OW19842   2.989   1.341   1.690
 2604SOL    HW119843   3.036   1.341   1.778
 2604SOL    HW219844   2.941   1.254   1.679
 2605SOL     OW19845   2.092   1.434   0.538
 2605SOL    HW119846   2.066   1.530   0.538
 2605SOL    HW219847   2.021   1.380   0.583
 2606SOL     OW19848   2.102   1.091   0.886
 2606SOL    HW119849   2.116   1.007   0.938
 2606SOL    HW219850   2.047   1.155   0.941
 2607SOL     OW19851   2.482   1.786   1.439
 2607SOL    HW119852   2.390   1.769   1.474
 2607SOL    HW219853   2.510   1.878   1.465
 2608SOL     OW19854   2.468   0.964   0.123
 2608SOL    HW119855   2.475   1.048   0.069
 2608SOL    HW219856   2.514   0.977   0.211
 2609SOL     OW19857   3.456   0.114   1.480
 2609SOL    HW119858   3.438   0.181   1.408
 2609SOL    HW219859   3.453   0.160   1.569
 2610SOL     OW19860   1.984   0.643   0.563
 2610SOL    HW119861   1.939   0.555   0.580
 2610SOL    HW219862   1.983   0.697   0.647
 2611SOL     OW19863   3.704   1.767   0.359
 2611SOL    HW119864   3.758   1.738   0.439
 2611SOL    HW219865   3.734   1.857   0.330
 2612SOL     OW19866   1.889   1.596   0.117
 2612SOL    HW119867   1.870   1.500   0.138
 2612SOL    HW219868   1.856   1.654   0.192
 2613SOL     OW19869   3.551   0.922   0.612
 2613SOL    HW119870   3.646   0.893   0.620
 2613SOL    HW219871   3.543   0.987   0.537
 2614SOL     OW19872   3.503   1.108   0.432
 2614SOL    HW119873   3.589   1.110   0.380
 2614SOL    HW219874   3.517   1.155   0.520
 2615SOL     OW19875   1.975   0.737   1.597
 2615SOL    HW119876   2.063   0.724   1.642
 2615SOL    HW219877   1.962   0.834   1.575
 2616SOL     OW19878   2.475   1.365   0.726
 2616SOL    HW119879   2.426   1.278   0.735
 2616SOL    HW219880   2.452   1.408   0.639
 2617SOL     OW19881   3.155   1.228   1.423
 2617SOL    HW119882   3.192   1.155   1.365
 2617SOL    HW219883   3.207   1.233   1.508
 2618SOL     OW19884   2.671   0.004   0.502
 2618SOL    HW119885   2.711   0.095   0.493
 2618SOL    HW219886   2.571   0.012   0.508
 2619SOL     OW19887   2.059   0.976   1.264
 2619SOL    HW119888   2.148   0.931   1.250
 2619SOL    HW219889   1.986   0.911   1.245
 2620SOL     OW19890   3.387   0.999   0.190
 2620SOL    HW119891   3.324   0.923   0.203
 2620SOL    HW219892   3.435   1.017   0.276
 2621SOL     OW19893   3.049   1.792   1.616
 2621SOL    HW119894   3.073   1.852   1.540
 2621SOL    HW219895   3.056   1.697   1.586
 2622SOL     OW19896   3.328   1.417   0.953
 2622SOL    HW119897   3.269   1.423   1.033
 2622SOL    HW219898   3.313   1.329   0.907
 2623SOL     OW19899   3.529   1.714   0.572
 2623SOL    HW119900   3.488   1.691   0.484
 2623SOL    HW219901   3.511   1.640   0.637
 2624SOL     OW19902   2.460   0.729   0.270
 2624SOL    HW119903   2.484   0.798   0.202
 2624SOL    HW219904   2.382   0.762   0.324
 2625SOL     OW19905   3.143   0.345   0.944
 2625SOL    HW119906   3.057   0.295   0.931
 2625SOL    HW219907   3.205   0.291   1.000
 2626SOL     OW19908   3.438   1.662   0.307
 2626SOL    HW119909   3.527   1.708   0.310
 2626SOL    HW219910   3.417   1.638   0.212
 2627SOL     OW19911   2.669   0.605   1.465
 2627SOL    HW119912   2.622   0.602   1.554
 2627SOL    HW219913   2.618   0.550   1.399
 2628SOL     OW19914   3.256   0.469   1.674
 2628SOL    HW119915   3.236   0.512   1.762
 2628SOL    HW219916   3.334   0.407   1.683
 2629SOL     OW19917   2.835   0.890   1.572
 2629SOL    HW119918   2.881   0.806   1.543
 2629SOL    HW219919   2.779   0.924   1.497
 2630SOL     OW19920   2.853   0.410   1.242
 2630SOL    HW119921   2.776   0.444   1.296
 2630SOL    HW219922   2.819   0.359   1.163
 2631SOL     OW19923   2.903   0.701   0.429
 2631SOL    HW119924   2.929   0.697   0.525
 2631SOL    HW219925   2.818   0.650   0.415
 2632SOL     OW19926   1.938   0.811   0.789
 2632SOL    HW119927   2.037   0.799   0.798
 2632SOL    HW219928   1.914   0.906   0.810
 2633SOL     OW19929   1.992   1.821   1.571
 2633SOL    HW119930   1.982   1.806   1.670
 2633SOL    HW219931   1.906   1.857   1.535
 2634SOL     OW19932   2.727   0.348   0.195
 2634SOL    HW119933   2.786   0.411   0.146
 2634SOL    HW219934   2.746   0.254   0.166
 2635SOL     OW19935   3.581   0.585   1.831
 2635SOL    HW119936   3.555   0.674   1.795
 2635SOL    HW219937   3.579   0.517   1.758
 2636SOL     OW19938   3.224   1.144   0.545
 2636SOL    HW119939   3.307   1.115   0.497
 2636SOL    HW219940   3.175   1.211   0.489
 2637SOL     OW19941   2.412   0.196   0.885
 2637SOL    HW119942   2.407   0.191   0.985
 2637SOL    HW219943   2.414   0.292   0.856
 2638SOL     OW19944   2.870   1.456   0.477
 2638SOL    HW119945   2.824   1.528   0.425
 2638SOL    HW219946   2.866   1.476   0.575
 2639SOL     OW19947   2.213   1.801   0.853
 2639SOL    HW119948   2.263   1.715   0.859
 2639SOL    HW219949   2.278   1.878   0.850
 2640SOL     OW19950   3.657   1.066   0.873
 2640SOL    HW119951   3.595   1.051   0.797
 2640SOL    HW219952   3.605   1.077   0.958
 2641SOL     OW19953   3.089   1.550   1.506
 2641SOL    HW119954   3.095   1.473   1.570
 2641SOL    HW219955   3.037   1.524   1.426
 2642SOL     OW19956   2.183   0.943   0.242
 2642SOL    HW119957   2.265   0.982   0.200
 2642SOL    HW219958   2.156   0.861   0.193
 2643SOL     OW19959   3.320   0.735   0.728
 2643SOL    HW119960   3.315   0.670   0.803
 2643SOL    HW219961   3.400   0.794   0.741
 2644SOL     OW19962   2.323   1.266   1.727
 2644SOL    HW119963   2.273   1.267   1.641
 2644SOL    HW219964   2.260   1.248   1.803
 2645SOL     OW19965   2.973   1.776   0.237
 2645SOL    HW119966   2.913   1.714   0.287
 2645SOL    HW219967   3.004   1.732   0.152
 2646SOL     OW19968   3.494   1.377   0.081
 2646SOL    HW119969   3.462   1.471   0.071
 2646SOL    HW219970   3.418   1.314   0.069
 2647SOL     OW19971   2.326   1.743   0.323
 2647SOL    HW119972   2.359   1.782   0.409
 2647SOL    HW219973   2.402   1.736   0.258
 2648SOL     OW19974   3.262   0.107   0.426
 2648SOL    HW119975   3.238   0.070   0.336
 2648SOL    HW219976   3.361   0.123   0.430
 2649SOL     OW19977   2.111   1.785   1.241
 2649SOL    HW119978   2.168   1.720   1.291
 2649SOL    HW219979   2.095   1.752   1.148
 2650SOL     OW19980   2.802   1.698   0.904
 2650SOL    HW119981   2.882   1.641   0.925
 2650SOL    HW219982   2.753   1.658   0.827
 2651SOL     OW19983   2.244   0.700   0.480
 2651SOL    HW119984   2.289   0.610   0.477
 2651SOL    HW219985   2.150   0.689   0.513
 2652SOL     OW19986   2.476   0.122   0.117
 2652SOL    HW119987   2.574   0.100   0.124
 2652SOL    HW219988   2.445   0.105   0.024
 2653SOL     OW19989   2.750   1.514   1.195
 2653SOL    HW119990   2.727   1.489   1.101
 2653SOL    HW219991   2.811   1.445   1.234
 2654SOL     OW19992   3.213   0.590   1.433
 2654SOL    HW119993   3.241   0.547   1.518
 2654SOL    HW219994   3.238   0.686   1.434
 2655SOL     OW19995   2.665   1.402   0.924
 2655SOL    HW119996   2.755   1.416   0.882
 2655SOL    HW219997   2.594   1.404   0.853
 2656SOL     OW19998   2.784   0.503   0.899
 2656SOL    HW119999   2.759   0.494   0.803
 2656SOL    HW220000   2.832   0.421   0.930
 2657SOL     OW20001   2.401   0.064   0.512
 2657SOL    HW120002   2.320   0.065   0.570
 2657SOL    HW220003   2.404   0.147   0.457
 2658SOL     OW20004   3.296   1.188   0.041
 2658SOL    HW120005   3.328   1.112   0.098
 2658SOL    HW220006   3.204   1.215   0.071
 2659SOL     OW20007   2.159   0.035   0.171
 2659SOL    HW120008   2.208   0.119   0.150
 2659SOL    HW220009   2.221  -0.030   0.216
 2660SOL     OW20010   2.797   0.236   0.480
 2660SOL    HW120011   2.749   0.277   0.402
 2660SOL    HW220012   2.896   0.234   0.461
 2661SOL     OW20013   2.938   0.683   1.464
 2661SOL    HW120014   2.858   0.622   1.467
 2661SOL    HW220015   3.019   0.630   1.440
 2662SOL     OW20016   3.089   1.570   0.793
 2662SOL    HW120017   3.110   1.644   0.728
 2662SOL    HW220018   3.157   1.570   0.866
 2663SOL     OW20019   2.321   1.152   0.741
 2663SOL    HW120020   2.250   1.125   0.806
 2663SOL    HW220021   2.295   1.124   0.648
 2664SOL     OW20022   3.133   1.797   0.591
 2664SOL    HW120023   3.177   1.861   0.527
 2664SOL    HW220024   3.083   1.849   0.661
 2665SOL     OW20025   2.894   0.549   0.016
 2665SOL    HW120026   2.853   0.631  -0.023
 2665SOL    HW220027   2.958   0.575   0.089
 2666SOL     OW20028   1.940   0.556   1.386
 2666SOL    HW120029   2.032   0.555   1.345
 2666SOL    HW220030   1.934   0.630   1.453
 2667SOL     OW20031   2.423   0.222   1.147
 2667SOL    HW120032   2.461   0.138   1.184
 2667SOL    HW220033   2.335   0.241   1.191
 2668SOL     OW20034   2.728   0.454   0.642
 2668SOL    HW120035   2.696   0.526   0.580
 2668SOL    HW220036   2.752   0.373   0.589
 2669SOL     OW20037   2.879   0.039   0.753
 2669SOL    HW120038   2.807   0.044   0.684
 2669SOL    HW220039   2.855  -0.030   0.822
 2670SOL     OW20040   3.291   1.173   0.867
 2670SOL    HW120041   3.236   1.089   0.860
 2670SOL    HW220042   3.317   1.202   0.775
 2671SOL     OW20043   3.328   0.590   0.992
 2671SOL    HW120044   3.298   0.495   0.999
 2671SOL    HW220045   3.401   0.606   1.058
 2672SOL     OW20046   3.719   0.833   0.377
 2672SOL    HW120047   3.761   0.769   0.441
 2672SOL    HW220048   3.681   0.782   0.299
 2673SOL     OW20049   2.350   1.385   0.174
 2673SOL    HW120050   2.263   1.370   0.221
 2673SOL    HW220051   2.333   1.411   0.079
 2674SOL     OW20052   3.526   1.280   0.657
 2674SOL    HW120053   3.625   1.288   0.671
 2674SOL    HW220054   3.481   1.364   0.688
 2675SOL     OW20055   3.252   0.575   0.078
 2675SOL    HW120056   3.198   0.554   0.159
 2675SOL    HW220057   3.343   0.534   0.087
 2676SOL     OW20058   2.389   0.256   0.328
 2676SOL    HW120059   2.416   0.197   0.253
 2676SOL    HW220060   2.389   0.351   0.297
 2677SOL     OW20061   3.616   1.223   1.588
 2677SOL    HW120062   3.707   1.184   1.575
 2677SOL    HW220063   3.624   1.319   1.612
 2678SOL     OW20064   2.926   1.347   1.340
 2678SOL    HW120065   2.846   1.324   1.395
 2678SOL    HW220066   3.009   1.321   1.389
 2679SOL     OW20067   3.454   1.629   1.625
 2679SOL    HW120068   3.481   1.663   1.535
 2679SOL    HW220069   3.533   1.591   1.671
 2680SOL     OW20070   2.973   1.195   1.100
 2680SOL    HW120071   2.933   1.239   1.181
 2680SOL    HW220072   2.932   1.232   1.017
 2681SOL     OW20073   3.500   1.099   1.079
 2681SOL    HW120074   3.505   1.180   1.138
 2681SOL    HW220075   3.414   1.101   1.028
 2682SOL     OW20076   2.777   0.089   1.402
 2682SOL    HW120077   2.802   0.069   1.307
 2682SOL    HW220078   2.849   0.145   1.444
 2683SOL     OW20079   2.842   1.116   1.719
 2683SOL    HW120080   2.743   1.122   1.729
 2683SOL    HW220081   2.865   1.036   1.663
 2684SOL     OW20082   2.567   1.050   0.368
 2684SOL    HW120083   2.553   1.057   0.467
 2684SOL    HW220084   2.651   0.999   0.350
 2685SOL     OW20085   2.272   0.813   1.251
 2685SOL    HW120086   2.358   0.825   1.301
 2685SOL    HW220087   2.230   0.726   1.278
 2686SOL     OW20088   3.136   0.386   1.262
 2686SOL    HW120089   3.157   0.460   1.326
 2686SOL    HW220090   3.047   0.403   1.219
 2687SOL     OW20091   1.926   1.564   1.331
 2687SOL    HW120092   1.880   1.646   1.297
 2687SOL    HW220093   2.024   1.583   1.340
 2688SOL     OW20094   2.229   1.100   0.501
 2688SOL    HW120095   2.222   1.183   0.445
 2688SOL    HW220096   2.233   1.020   0.441
 2689SOL     OW20097   2.428   0.537   0.865
 2689SOL    HW120098   2.440   0.603   0.791
 2689SOL    HW220099   2.474   0.571   0.948
 2690SOL     OW20100   3.114   1.348   0.388
 2690SOL    HW120101   3.164   1.425   0.428
 2690SOL    HW220102   3.019   1.350   0.420
 2691SOL     OW20103   3.134   1.445   1.142
 2691SOL    HW120104   3.181   1.458   1.229
 2691SOL    HW220105   3.068   1.371   1.151
 2692SOL     OW20106   3.444   0.639   0.472
 2692SOL    HW120107   3.413   0.700   0.545
 2692SOL    HW220108   3.494   0.691   0.403
 2693SOL     OW20109   2.216   1.510   1.329
 2693SOL    HW120110   2.195   1.466   1.242
 2693SOL    HW220111   2.313   1.536   1.332
 2694SOL     OW20112   2.264   0.751   1.598
 2694SOL    HW120113   2.332   0.806   1.551
 2694SOL    HW220114   2.304   0.663   1.625
 2695SOL     OW20115   3.449   0.779   1.670
 2695SOL    HW120116   3.357   0.817   1.665
 2695SOL    HW220117   3.509   0.826   1.605
 2696SOL     OW20118   2.875   0.105   1.770
 2696SOL    HW120119   2.881   0.190   1.718
 2696SOL    HW220120   2.907   0.029   1.713
 2697SOL     OW20121   2.435   0.870   1.029
 2697SOL    HW120122   2.479   0.959   1.020
 2697SOL    HW220123   2.372   0.870   1.106
 2698SOL     OW20124   3.222   0.862   1.045
 2698SOL    HW120125   3.147   0.862   0.979
 2698SOL    HW220126   3.259   0.770   1.054
 2699SOL     OW20127   3.071   0.525   0.275
 2699SOL    HW120128   3.084   0.441   0.329
 2699SOL    HW220129   3.042   0.599   0.335
 2700SOL     OW20130   2.169   0.213   1.231
 2700SOL    HW120131   2.146   0.250   1.321
 2700SOL    HW220132   2.139   0.118   1.225
 2701SOL     OW20133   1.899   1.310   1.282
 2701SOL    HW120134   1.952   1.261   1.350
 2701SOL    HW220135   1.921   1.408   1.287
 2702SOL     OW20136   2.594   0.634   1.064
 2702SOL    HW120137   2.653   0.608   0.988
 2702SOL    HW220138   2.566   0.730   1.053
 2703SOL     OW20139   2.169   0.063   0.618
 2703SOL    HW120140   2.158   0.157   0.651
 2703SOL    HW220141   2.164   0.000   0.695
 2704SOL     OW20142   3.484   0.367   0.374
 2704SOL    HW120143   3.486   0.291   0.438
 2704SOL    HW220144   3.436   0.444   0.414
 2705SOL     OW20145   2.885   0.766   0.966
 2705SOL    HW120146   2.900   0.787   1.062
 2705SOL    HW220147   2.855   0.671   0.957
 2706SOL     OW20148   2.842   1.573   1.700
 2706SOL    HW120149   2.822   1.617   1.612
 2706SOL    HW220150   2.881   1.482   1.684
 2707SOL     OW20151   3.721   1.518   1.605
 2707SOL    HW120152   3.735   1.545   1.510
 2707SOL    HW220153   3.804   1.540   1.658
 2708SOL     OW20154   3.402   0.274   0.125
 2708SOL    HW120155   3.341   0.199   0.148
 2708SOL    HW220156   3.424   0.326   0.208
 2709SOL     OW20157   3.165   0.838   0.042
 2709SOL    HW120158   3.199   0.745   0.057
 2709SOL    HW220159   3.183   0.865  -0.053
 2710SOL     OW20160   2.930   1.333   0.849
 2710SOL    HW120161   2.937   1.249   0.794
 2710SOL    HW220162   2.992   1.402   0.813
 2711SOL     OW20163   2.181   0.810   0.949
 2711SOL    HW120164   2.274   0.846   0.954
 2711SOL    HW220165   2.175   0.725   1.001
 2712SOL     OW20166   2.201   0.509   1.006
 2712SOL    HW120167   2.149   0.426   0.989
 2712SOL    HW220168   2.278   0.514   0.942
 2713SOL     OW20169   3.000   0.380   1.678
 2713SOL    HW120170   2.955   0.443   1.742
 2713SOL    HW220171   3.093   0.411   1.661
 2714SOL     OW20172   3.022   0.207   1.477
 2714SOL    HW120173   3.022   0.271   1.554
 2714SOL    HW220174   3.050   0.255   1.394
 2715SOL     OW20175   1.870   1.326   0.200
 2715SOL    HW120176   1.777   1.347   0.169
 2715SOL    HW220177   1.880   1.227   0.213
 2716SOL     OW20178   1.950   1.801   0.927
 2716SOL    HW120179   1.908   1.715   0.900
 2716SOL    HW220180   2.044   1.804   0.893
 2717SOL     OW20181   2.366   1.568   0.910
 2717SOL    HW120182   2.432   1.642   0.919
 2717SOL    HW220183   2.410   1.489   0.868
 2718SOL     OW20184   2.864   0.796   1.238
 2718SOL    HW120185   2.905   0.764   1.324
 2718SOL    HW220186   2.768   0.769   1.235
 2719SOL     OW20187   1.902   0.544   1.114
 2719SOL    HW120188   1.987   0.511   1.073
 2719SOL    HW220189   1.915   0.559   1.212
 2720SOL     OW20190   2.051   0.520   1.722
 2720SOL    HW120191   2.110   0.480   1.652
 2720SOL    HW220192   1.993   0.591   1.681
 2721SOL     OW20193   3.231   0.950   1.660
 2721SOL    HW120194   3.270   1.039   1.680
 2721SOL    HW220195   3.241   0.930   1.563
 2722SOL     OW20196   2.677   0.572   0.325
 2722SOL    HW120197   2.684   0.483   0.279
 2722SOL    HW220198   2.583   0.606   0.317
 2723SOL     OW20199   3.519   0.604   1.206
 2723SOL    HW120200   3.481   0.535   1.268
 2723SOL    HW220201   3.601   0.568   1.162
 2724SOL     OW20202   2.114   1.564   1.744
 2724SOL    HW120203   2.084   1.621   1.820
 2724SOL    HW220204   2.107   1.467   1.770
 2725SOL     OW20205   2.533   0.464   1.269
 2725SOL    HW120206   2.499   0.375   1.239
 2725SOL    HW220207   2.559   0.518   1.189
 2726SOL     OW20208   2.792   1.678   1.465
 2726SOL    HW120209   2.768   1.660   1.370
 2726SOL    HW220210   2.822   1.772   1.475
 2727SOL     OW20211   2.335   0.500   0.191
 2727SOL    HW120212   2.396   0.580   0.195
 2727SOL    HW220213   2.240   0.531   0.198
 2728SOL     OW20214   2.021   1.137   1.466
 2728SOL    HW120215   2.043   1.076   1.542
 2728SOL    HW220216   2.031   1.088   1.380
 2729SOL     OW20217   3.209   1.059   1.234
 2729SOL    HW120218   3.233   0.996   1.160
 2729SOL    HW220219   3.119   1.099   1.216
 2730SOL     OW20220   3.164   0.855   0.309
 2730SOL    HW120221   3.078   0.824   0.351
 2730SOL    HW220222   3.160   0.841   0.210
 2731SOL     OW20223   3.621   1.747   1.154
 2731SOL    HW120224   3.682   1.777   1.081
 2731SOL    HW220225   3.583   1.658   1.132
 2732SOL     OW20226   3.114   1.731   1.128
 2732SOL    HW120227   3.198   1.736   1.074
 2732SOL    HW220228   3.091   1.635   1.146
 2733SOL     OW20229   1.945   1.258   1.022
 2733SOL    HW120230   1.940   1.257   1.122
 2733SOL    HW220231   1.862   1.217   0.984
 2734SOL     OW20232   2.550   1.662   1.716
 2734SOL    HW120233   2.494   1.743   1.725
 2734SOL    HW220234   2.602   1.666   1.630
 2735SOL     OW20235   2.765   0.086   0.133
 2735SOL    HW120236   2.816   0.087   0.047
 2735SOL    HW220237   2.821   0.044   0.204
 2736SOL     OW20238   3.588   0.135   0.523
 2736SOL    HW120239   3.661   0.118   0.456
 2736SOL    HW220240   3.557   0.048   0.561
 2737SOL     OW20241   3.250   1.573   0.477
 2737SOL    HW120242   3.317   1.585   0.403
 2737SOL    HW220243   3.210   1.662   0.500
 2738SOL     OW20244   3.142   0.927   0.672
 2738SOL    HW120245   3.202   0.846   0.674
 2738SOL    HW220246   3.182   0.996   0.612
 2739SOL     OW20247   2.692   1.273   1.422
 2739SOL    HW120248   2.687   1.306   1.517
 2739SOL    HW220249   2.606   1.292   1.376
 2740SOL     OW20250   2.534   1.616   0.154
 2740SOL    HW120251   2.543   1.626   0.055
 2740SOL    HW220252   2.494   1.527   0.175
 2741SOL     OW20253   3.512   1.720   1.394
 2741SOL    HW120254   3.565   1.730   1.310
 2741SOL    HW220255   3.485   1.810   1.428
 2742SOL     OW20256   3.703   0.175   0.963
 2742SOL    HW120257   3.742   0.090   0.927
 2742SOL    HW220258   3.605   0.177   0.944
 2743SOL     OW20259   2.125   0.326   0.720
 2743SOL    HW120260   2.046   0.377   0.686
 2743SOL    HW220261   2.116   0.311   0.818
 2744SOL     OW20262   3.056   1.612   0.031
 2744SOL    HW120263   3.062   1.519   0.068
 2744SOL    HW220264   2.997   1.612  -0.049
 2745SOL     OW20265   2.684   1.002   1.372
 2745SOL    HW120266   2.724   1.001   1.280
 2745SOL    HW220267   2.694   1.094   1.412
 2746SOL     OW20268   2.778   0.910   0.291
 2746SOL    HW120269   2.841   0.948   0.223
 2746SOL    HW220270   2.818   0.827   0.330
 2747SOL     OW20271   3.366   1.607   0.044
 2747SOL    HW120272   3.274   1.644   0.051
 2747SOL    HW220273   3.404   1.627  -0.046
 2748SOL     OW20274   2.234   1.288   1.490
 2748SOL    HW120275   2.221   1.381   1.456
 2748SOL    HW220276   2.150   1.236   1.477
 2749SOL     OW20277   3.476   1.292   1.289
 2749SOL    HW120278   3.536   1.295   1.369
 2749SOL    HW220279   3.401   1.356   1.302
 2750SOL     OW20280   2.901   1.098   0.696
 2750SOL    HW120281   2.831   1.051   0.750
 2750SOL    HW220282   2.960   1.030   0.653
 2751SOL     OW20283   2.876   0.236   0.971
 2751SOL    HW120284   2.868   0.200   0.878
 2751SOL    HW220285   2.874   0.160   1.036
 2752SOL     OW20286   2.452   1.487   0.491
 2752SOL    HW120287   2.494   1.429   0.421
 2752SOL    HW220288   2.408   1.566   0.447
 2753SOL     OW20289   3.571   0.385   1.381
 2753SOL    HW120290   3.644   0.454   1.385
 2753SOL    HW220291   3.599   0.310   1.322
 2754SOL     OW20292   2.117   1.348   0.290
 2754SOL    HW120293   2.021   1.349   0.263
 2754SOL    HW220294   2.129   1.401   0.374
 2755SOL     OW20295   2.534   0.203   1.489
 2755SOL    HW120296   2.624   0.187   1.449
 2755SOL    HW220297   2.542   0.208   1.588
 2756SOL     OW20298   1.937   0.345   0.033
 2756SOL    HW120299   1.845   0.317   0.004
 2756SOL    HW220300   1.968   0.422  -0.023
 2757SOL     OW20301   3.302   0.856   1.398
 2757SOL    HW120302   3.245   0.908   1.335
 2757SOL    HW220303   3.398   0.868   1.374
 2758SOL     OW20304   1.934   0.166   0.318
 2758SOL    HW120305   1.917   0.249   0.264
 2758SOL    HW220306   2.024   0.129   0.296
 2759SOL     OW20307   3.045   1.335   0.119
 2759SOL    HW120308   2.946   1.324   0.121
 2759SOL    HW220309   3.079   1.350   0.212
 2760SOL     OW20310   2.475   0.842   1.431
 2760SOL    HW120311   2.531   0.923   1.414
 2760SOL    HW220312   2.534   0.762   1.434
 2761SOL     OW20313   3.355   1.767   0.959
 2761SOL    HW120314   3.388   1.831   0.890
 2761SOL    HW220315   3.421   1.761   1.034
 2762SOL     OW20316   2.578   0.565   1.708
 2762SOL    HW120317   2.597   0.630   1.782
 2762SOL    HW220318   2.638   0.485   1.717
 2763SOL     OW20319   3.312   1.220   1.633
 2763SOL    HW120320   3.303   1.210   1.732
 2763SOL    HW220321   3.408   1.213   1.607
 2764SOL     OW20322   2.252   1.741   1.560
 2764SOL    HW120323   2.161   1.782   1.558
 2764SOL    HW220324   2.245   1.647   1.592
 2765SOL     OW20325   3.536   0.883   1.254
 2765SOL    HW120326   3.509   0.794   1.217
 2765SOL    HW220327   3.537   0.951   1.181
 2766SOL     OW20328   3.087   0.325   0.449
 2766SOL    HW120329   3.152   0.251   0.438
 2766SOL    HW220330   3.107   0.375   0.533
 2767SOL     OW20331   2.456   0.745   0.652
 2767SOL    HW120332   2.506   0.830   0.633
 2767SOL    HW220333   2.368   0.747   0.604
 2768SOL     OW20334   3.639   0.342   1.642
 2768SOL    HW120335   3.622   0.373   1.548
 2768SOL    HW220336   3.555   0.305   1.680
 2769SOL     OW20337   3.592   0.934   1.517
 2769SOL    HW120338   3.630   1.025   1.532
 2769SOL    HW220339   3.584   0.917   1.418
 2770SOL     OW20340   2.721   1.374   0.016
 2770SOL    HW120341   2.675   1.389   0.104
 2770SOL    HW220342   2.765   1.459  -0.014
 2771SOL     OW20343   2.523   1.790   0.953
 2771SOL    HW120344   2.477   1.878   0.940
 2771SOL    HW220345   2.622   1.802   0.946
 2772SOL     OW20346   2.721   0.956   0.861
 2772SOL    HW120347   2.775   0.887   0.909
 2772SOL    HW220348   2.689   1.025   0.927
 2773SOL     OW20349   2.945   0.984   0.087
 2773SOL    HW120350   2.922   1.037   0.005
 2773SOL    HW220351   3.026   0.928   0.068
 2774SOL     OW20352   3.723   1.569   0.851
 2774SOL    HW120353   3.652   1.557   0.781
 2774SOL    HW220354   3.724   1.490   0.911
 2775SOL     OW20355   2.083   1.314   1.844
 2775SOL    HW120356   2.018   1.241   1.823
 2775SOL    HW220357   2.087   1.328   1.942
 2776SOL     OW20358   1.941   1.240   0.653
 2776SOL    HW120359   1.940   1.193   0.741
 2776SOL    HW220360   2.023   1.212   0.602
 2777SOL     OW20361   2.534   1.391   1.624
 2777SOL    HW120362   2.456   1.341   1.662
 2777SOL    HW220363   2.531   1.486   1.655
 2778SOL     OW20364   3.686   0.192   1.227
 2778SOL    HW120365   3.682   0.102   1.271
 2778SOL    HW220366   3.689   0.181   1.128
 2779SOL     OW20367   2.290   0.424   0.520
 2779SOL    HW120368   2.320   0.352   0.458
 2779SOL    HW220369   2.251   0.384   0.603
 2780SOL     OW20370   3.567   1.487   1.104
 2780SOL    HW120371   3.474   1.462   1.077
 2780SOL    HW220372   3.593   1.437   1.186
 2781SOL     OW20373   2.179   0.547   1.280
 2781SOL    HW120374   2.217   0.488   1.352
 2781SOL    HW220375   2.219   0.521   1.192
 2782SOL     OW20376   2.674   1.586   0.687
 2782SOL    HW120377   2.706   1.596   0.593
 2782SOL    HW220378   2.595   1.524   0.689
 2783SOL     OW20379   3.286   0.214   1.112
 2783SOL    HW120380   3.338   0.149   1.167
 2783SOL    HW220381   3.237   0.277   1.173
 2784SOL     OW20382   2.863   0.034   1.154
 2784SOL    HW120383   2.800  -0.038   1.123
 2784SOL    HW220384   2.956  -0.002   1.154
 2785SOL     OW20385   2.632   1.330   0.301
 2785SOL    HW120386   2.586   1.243   0.318
 2785SOL    HW220387   2.723   1.327   0.342
 2786SOL     OW20388   2.480   1.567   1.284
 2786SOL    HW120389   2.475   1.649   1.341
 2786SOL    HW220390   2.569   1.564   1.239
 2787SOL     OW20391   3.214   0.052   0.168
 2787SOL    HW120392   3.249   0.011   0.084
 2787SOL    HW220393   3.124   0.014   0.188
 2788SOL     OW20394   3.162   0.453   0.691
 2788SOL    HW120395   3.103   0.533   0.695
 2788SOL    HW220396   3.177   0.418   0.784
 2789SOL     OW20397   3.455   0.221   0.882
 2789SOL    HW120398   3.371   0.220   0.936
 2789SOL    HW220399   3.457   0.304   0.826
 2790SOL     OW20400   1.901   1.077   0.300
 2790SOL    HW120401   2.000   1.066   0.291
 2790SOL    HW220402   1.861   0.991   0.332
 2791SOL     OW20403   2.737   1.646   0.337
 2791SOL    HW120404   2.660   1.611   0.283
 2791SOL    HW220405   2.705   1.717   0.399
 2792SOL     OW20406   2.087   0.275   2.858
 2792SOL    HW120407   2.122   0.258   2.950
 2792SOL    HW220408   1.999   0.230   2.846
 2793SOL     OW20409   2.431   1.275   3.027
 2793SOL    HW120410   2.338   1.268   2.990
 2793SOL    HW220411   2.442   1.364   3.071
 2794SOL     OW20412   2.997   0.703   2.579
 2794SOL    HW120413   3.054   0.781   2.554
 2794SOL    HW220414   2.937   0.729   2.655
 2795SOL     OW20415   2.547   1.012   2.527
 2795SOL    HW120416   2.616   0.996   2.597
 2795SOL    HW220417   2.474   1.069   2.565
 2796SOL     OW20418   2.300   0.392   3.361
 2796SOL    HW120419   2.382   0.336   3.370
 2796SOL    HW220420   2.219   0.334   3.365
 2797SOL     OW20421   2.092   1.434   2.400
 2797SOL    HW120422   2.066   1.530   2.400
 2797SOL    HW220423   2.021   1.380   2.445
 2798SOL     OW20424   1.984   0.643   2.425
 2798SOL    HW120425   1.939   0.555   2.442
 2798SOL    HW220426   1.983   0.697   2.509
 2799SOL     OW20427   1.889   1.596   1.979
 2799SOL    HW120428   1.870   1.500   2.000
 2799SOL    HW220429   1.856   1.654   2.054
 2800SOL     OW20430   3.551   0.922   2.474
 2800SOL    HW120431   3.646   0.893   2.482
 2800SOL    HW220432   3.543   0.987   2.399
 2801SOL     OW20433   3.155   1.228   3.285
 2801SOL    HW120434   3.192   1.155   3.227
 2801SOL    HW220435   3.207   1.233   3.370
 2802SOL     OW20436   2.059   0.976   3.126
 2802SOL    HW120437   2.148   0.931   3.112
 2802SOL    HW220438   1.986   0.911   3.107
 2803SOL     OW20439   3.387   0.999   2.052
 2803SOL    HW120440   3.324   0.923   2.065
 2803SOL    HW220441   3.435   1.017   2.138
 2804SOL     OW20442   2.179   0.251   3.663
 2804SOL    HW120443   2.250   0.322   3.669
 2804SOL    HW220444   2.091   0.290   3.691
 2805SOL     OW20445   2.460   0.729   2.132
 2805SOL    HW120446   2.484   0.798   2.064
 2805SOL    HW220447   2.382   0.762   2.186
 2806SOL     OW20448   3.438   1.662   2.169
 2806SOL    HW120449   3.527   1.708   2.172
 2806SOL    HW220450   3.417   1.638   2.074
 2807SOL     OW20451   2.669   0.605   3.327
 2807SOL    HW120452   2.622   0.602   3.416
 2807SOL    HW220453   2.618   0.550   3.261
 2808SOL     OW20454   2.853   0.410   3.104
 2808SOL    HW120455   2.776   0.444   3.158
 2808SOL    HW220456   2.819   0.359   3.025
 2809SOL     OW20457   2.903   0.701   2.291
 2809SOL    HW120458   2.929   0.697   2.387
 2809SOL    HW220459   2.818   0.650   2.277
 2810SOL     OW20460   2.727   0.348   2.057
 2810SOL    HW120461   2.786   0.411   2.008
 2810SOL    HW220462   2.746   0.254   2.028
 2811SOL     OW20463   3.224   1.144   2.407
 2811SOL    HW120464   3.307   1.115   2.359
 2811SOL    HW220465   3.175   1.211   2.351
 2812SOL     OW20466   2.213   1.801   2.715
 2812SOL    HW120467   2.263   1.715   2.721
 2812SOL    HW220468   2.278   1.878   2.712
 2813SOL     OW20469   3.089   1.550   3.368
 2813SOL    HW120470   3.095   1.473   3.432
 2813SOL    HW220471   3.037   1.524   3.288
 2814SOL     OW20472   3.320   0.735   2.590
 2814SOL    HW120473   3.315   0.670   2.665
 2814SOL    HW220474   3.400   0.794   2.603
 2815SOL     OW20475   2.973   1.776   2.099
 2815SOL    HW120476   2.913   1.714   2.149
 2815SOL    HW220477   3.004   1.732   2.014
 2816SOL     OW20478   3.494   1.377   1.943
 2816SOL    HW120479   3.462   1.471   1.933
 2816SOL    HW220480   3.418   1.314   1.931
 2817SOL     OW20481   2.802   1.698   2.766
 2817SOL    HW120482   2.882   1.641   2.787
 2817SOL    HW220483   2.753   1.658   2.689
 2818SOL     OW20484   3.213   0.590   3.295
 2818SOL    HW120485   3.241   0.547   3.380
 2818SOL    HW220486   3.238   0.686   3.296
 2819SOL     OW20487   2.665   1.402   2.786
 2819SOL    HW120488   2.755   1.416   2.744
 2819SOL    HW220489   2.594   1.404   2.715
 2820SOL     OW20490   2.159   0.035   2.033
 2820SOL    HW120491   2.208   0.119   2.012
 2820SOL    HW220492   2.221  -0.030   2.078
 2821SOL     OW20493   2.938   0.683   3.326
 2821SOL    HW120494   2.858   0.622   3.329
 2821SOL    HW220495   3.019   0.630   3.302
 2822SOL     OW20496   2.321   1.152   2.603
 2822SOL    HW120497   2.250   1.125   2.668
 2822SOL    HW220498   2.295   1.124   2.510
 2823SOL     OW20499   3.133   1.797   2.453
 2823SOL    HW120500   3.177   1.861   2.389
 2823SOL    HW220501   3.083   1.849   2.523
 2824SOL     OW20502   2.894   0.549   1.878
 2824SOL    HW120503   2.853   0.631   1.839
 2824SOL    HW220504   2.958   0.575   1.951
 2825SOL     OW20505   2.423   0.222   3.009
 2825SOL    HW120506   2.461   0.138   3.046
 2825SOL    HW220507   2.335   0.241   3.053
 2826SOL     OW20508   2.879   0.039   2.615
 2826SOL    HW120509   2.807   0.044   2.546
 2826SOL    HW220510   2.855  -0.030   2.684
 2827SOL     OW20511   3.328   0.590   2.854
 2827SOL    HW120512   3.298   0.495   2.861
 2827SOL    HW220513   3.401   0.606   2.920
 2828SOL     OW20514   3.252   0.575   1.940
 2828SOL    HW120515   3.198   0.554   2.021
 2828SOL    HW220516   3.343   0.534   1.949
 2829SOL     OW20517   2.389   0.256   2.190
 2829SOL    HW120518   2.416   0.197   2.115
 2829SOL    HW220519   2.389   0.351   2.159
 2830SOL     OW20520   3.500   1.099   2.941
 2830SOL    HW120521   3.505   1.180   3.000
 2830SOL    HW220522   3.414   1.101   2.890
 2831SOL     OW20523   2.842   1.116   3.581
 2831SOL    HW120524   2.743   1.122   3.591
 2831SOL    HW220525   2.865   1.036   3.525
 2832SOL     OW20526   1.926   1.564   3.193
 2832SOL    HW120527   1.880   1.646   3.159
 2832SOL    HW220528   2.024   1.583   3.202
 2833SOL     OW20529   3.114   1.348   2.250
 2833SOL    HW120530   3.164   1.425   2.290
 2833SOL    HW220531   3.019   1.350   2.282
 2834SOL     OW20532   3.444   0.639   2.334
 2834SOL    HW120533   3.413   0.700   2.407
 2834SOL    HW220534   3.494   0.691   2.265
 2835SOL     OW20535   2.366   0.050   3.602
 2835SOL    HW120536   2.324  -0.007   3.532
 2835SOL    HW220537   2.300   0.119   3.634
 2836SOL     OW20538   2.435   0.870   2.891
 2836SOL    HW120539   2.479   0.959   2.882
 2836SOL    HW220540   2.372   0.870   2.968
 2837SOL     OW20541   3.222   0.862   2.907
 2837SOL    HW120542   3.147   0.862   2.841
 2837SOL    HW220543   3.259   0.770   2.916
 2838SOL     OW20544   3.071   0.525   2.137
 2838SOL    HW120545   3.084   0.441   2.191
 2838SOL    HW220546   3.042   0.599   2.197
 2839SOL     OW20547   2.594   0.634   2.926
 2839SOL    HW120548   2.653   0.608   2.850
 2839SOL    HW220549   2.566   0.730   2.915
 2840SOL     OW20550   2.212   0.898   3.666
 2840SOL    HW120551   2.288   0.942   3.714
 2840SOL    HW220552   2.247   0.851   3.584
 2841SOL     OW20553   3.165   0.838   1.904
 2841SOL    HW120554   3.199   0.745   1.919
 2841SOL    HW220555   3.183   0.865   1.809
 2842SOL     OW20556   1.870   1.326   2.062
 2842SOL    HW120557   1.777   1.347   2.031
 2842SOL    HW220558   1.880   1.227   2.075
 2843SOL     OW20559   2.366   1.568   2.772
 2843SOL    HW120560   2.432   1.642   2.781
 2843SOL    HW220561   2.410   1.489   2.730
 2844SOL     OW20562   2.677   0.572   2.187
 2844SOL    HW120563   2.684   0.483   2.141
 2844SOL    HW220564   2.583   0.606   2.179
 2845SOL     OW20565   2.335   0.500   2.053
 2845SOL    HW120566   2.396   0.580   2.057
 2845SOL    HW220567   2.240   0.531   2.060
 2846SOL     OW20568   3.209   1.059   3.096
 2846SOL    HW120569   3.233   0.996   3.022
 2846SOL    HW220570   3.119   1.099   3.078
 2847SOL     OW20571   3.164   0.855   2.171
 2847SOL    HW120572   3.078   0.824   2.213
 2847SOL    HW220573   3.160   0.841   2.072
 2848SOL     OW20574   2.550   1.662   3.578
 2848SOL    HW120575   2.494   1.743   3.587
 2848SOL    HW220576   2.602   1.666   3.492
 2849SOL     OW20577   3.588   0.135   2.385
 2849SOL    HW120578   3.661   0.118   2.318
 2849SOL    HW220579   3.557   0.048   2.423
 2850SOL     OW20580   3.142   0.927   2.534
 2850SOL    HW120581   3.202   0.846   2.536
 2850SOL    HW220582   3.182   0.996   2.474
 2851SOL     OW20583   2.692   1.273   3.284
 2851SOL    HW120584   2.687   1.306   3.379
 2851SOL    HW220585   2.606   1.292   3.238
 2852SOL     OW20586   2.534   1.616   2.016
 2852SOL    HW120587   2.543   1.626   1.917
 2852SOL    HW220588   2.494   1.527   2.037
 2853SOL     OW20589   3.056   1.612   1.893
 2853SOL    HW120590   3.062   1.519   1.930
 2853SOL    HW220591   2.997   1.612   1.813
 2854SOL     OW20592   2.778   0.910   2.153
 2854SOL    HW120593   2.841   0.948   2.085
 2854SOL    HW220594   2.818   0.827   2.192
 2855SOL     OW20595   3.366   1.607   1.906
 2855SOL    HW120596   3.274   1.644   1.913
 2855SOL    HW220597   3.404   1.627   1.816
 2856SOL     OW20598   2.901   1.098   2.558
 2856SOL    HW120599   2.831   1.051   2.612
 2856SOL    HW220600   2.960   1.030   2.515
 2857SOL     OW20601   2.876   0.236   2.833
 2857SOL    HW120602   2.868   0.200   2.740
 2857SOL    HW220603   2.874   0.160   2.898
 2858SOL     OW20604   3.571   0.385   3.243
 2858SOL    HW120605   3.644   0.454   3.247
 2858SOL    HW220606   3.599   0.310   3.184
 2859SOL     OW20607   2.117   1.348   2.152
 2859SOL    HW120608   2.021   1.349   2.125
 2859SOL    HW220609   2.129   1.401   2.236
 2860SOL     OW20610   1.967   1.013   3.588
 2860SOL    HW120611   1.890   0.980   3.642
 2860SOL    HW220612   2.052   0.983   3.630
 2861SOL     OW20613   1.937   0.345   1.895
 2861SOL    HW120614   1.845   0.317   1.866
 2861SOL    HW220615   1.968   0.422   1.839
 2862SOL     OW20616   3.302   0.856   3.260
 2862SOL    HW120617   3.245   0.908   3.197
 2862SOL    HW220618   3.398   0.868   3.236
 2863SOL     OW20619   1.934   0.166   2.180
 2863SOL    HW120620   1.917   0.249   2.126
 2863SOL    HW220621   2.024   0.129   2.158
 2864SOL     OW20622   3.045   1.335   1.981
 2864SOL    HW120623   2.946   1.324   1.983
 2864SOL    HW220624   3.079   1.350   2.074
 2865SOL     OW20625   2.578   0.565   3.570
 2865SOL    HW120626   2.597   0.630   3.644
 2865SOL    HW220627   2.638   0.485   3.579
 2866SOL     OW20628   3.087   0.325   2.311
 2866SOL    HW120629   3.152   0.251   2.300
 2866SOL    HW220630   3.107   0.375   2.395
 2867SOL     OW20631   2.721   1.374   1.878
 2867SOL    HW120632   2.675   1.389   1.966
 2867SOL    HW220633   2.765   1.459   1.848
 2868SOL     OW20634   2.523   1.790   2.815
 2868SOL    HW120635   2.477   1.878   2.802
 2868SOL    HW220636   2.622   1.802   2.808
 2869SOL     OW20637   2.721   0.956   2.723
 2869SOL    HW120638   2.775   0.887   2.771
 2869SOL    HW220639   2.689   1.025   2.789
 2870SOL     OW20640   2.945   0.984   1.949
 2870SOL    HW120641   2.922   1.037   1.867
 2870SOL    HW220642   3.026   0.928   1.930
 2871SOL     OW20643   3.723   1.569   2.713
 2871SOL    HW120644   3.652   1.557   2.643
 2871SOL    HW220645   3.724   1.490   2.773
 2872SOL     OW20646   2.290   0.424   2.382
 2872SOL    HW120647   2.320   0.352   2.320
 2872SOL    HW220648   2.251   0.384   2.465
 2873SOL     OW20649   3.417   1.511   4.427
 2873SOL    HW120650   3.360   1.495   4.508
 2873SOL    HW220651   3.358   1.521   4.347
 2874SOL     OW20652   3.617   0.607   3.955
 2874SOL    HW120653   3.605   0.594   3.856
 2874SOL    HW220654   3.587   0.526   4.004
 2875SOL     OW20655   2.547   1.012   4.389
 2875SOL    HW120656   2.616   0.996   4.459
 2875SOL    HW220657   2.474   1.069   4.427
 2876SOL     OW20658   3.465   0.447   4.461
 2876SOL    HW120659   3.391   0.493   4.411
 2876SOL    HW220660   3.516   0.515   4.514
 2877SOL     OW20661   1.975   0.737   5.321
 2877SOL    HW120662   2.063   0.724   5.366
 2877SOL    HW220663   1.962   0.834   5.299
 2878SOL     OW20664   3.155   1.228   5.147
 2878SOL    HW120665   3.192   1.155   5.089
 2878SOL    HW220666   3.207   1.233   5.232
 2879SOL     OW20667   3.387   0.999   3.914
 2879SOL    HW120668   3.324   0.923   3.927
 2879SOL    HW220669   3.435   1.017   4.000
 2880SOL     OW20670   2.179   0.251   5.525
 2880SOL    HW120671   2.250   0.322   5.531
 2880SOL    HW220672   2.091   0.290   5.553
 2881SOL     OW20673   2.460   0.729   3.994
 2881SOL    HW120674   2.484   0.798   3.926
 2881SOL    HW220675   2.382   0.762   4.048
 2882SOL     OW20676   3.256   0.469   5.398
 2882SOL    HW120677   3.236   0.512   5.486
 2882SOL    HW220678   3.334   0.407   5.407
 2883SOL     OW20679   2.853   0.410   4.966
 2883SOL    HW120680   2.776   0.444   5.020
 2883SOL    HW220681   2.819   0.359   4.887
 2884SOL     OW20682   2.903   0.701   4.153
 2884SOL    HW120683   2.929   0.697   4.249
 2884SOL    HW220684   2.818   0.650   4.139
 2885SOL     OW20685   2.727   0.348   3.919
 2885SOL    HW120686   2.786   0.411   3.870
 2885SOL    HW220687   2.746   0.254   3.890
 2886SOL     OW20688   3.224   1.144   4.269
 2886SOL    HW120689   3.307   1.115   4.221
 2886SOL    HW220690   3.175   1.211   4.213
 2887SOL     OW20691   2.213   1.801   4.577
 2887SOL    HW120692   2.263   1.715   4.583
 2887SOL    HW220693   2.278   1.878   4.574
 2888SOL     OW20694   2.326   1.743   4.047
 2888SOL    HW120695   2.359   1.782   4.133
 2888SOL    HW220696   2.402   1.736   3.982
 2889SOL     OW20697   3.262   0.107   4.150
 2889SOL    HW120698   3.238   0.070   4.060
 2889SOL    HW220699   3.361   0.123   4.154
 2890SOL     OW20700   2.111   1.785   4.965
 2890SOL    HW120701   2.168   1.720   5.015
 2890SOL    HW220702   2.095   1.752   4.872
 2891SOL     OW20703   2.244   0.700   4.204
 2891SOL    HW120704   2.289   0.610   4.201
 2891SOL    HW220705   2.150   0.689   4.237
 2892SOL     OW20706   2.321   1.152   4.465
 2892SOL    HW120707   2.250   1.125   4.530
 2892SOL    HW220708   2.295   1.124   4.372
 2893SOL     OW20709   1.940   0.556   5.110
 2893SOL    HW120710   2.032   0.555   5.069
 2893SOL    HW220711   1.934   0.630   5.177
 2894SOL     OW20712   2.423   0.222   4.871
 2894SOL    HW120713   2.461   0.138   4.908
 2894SOL    HW220714   2.335   0.241   4.915
 2895SOL     OW20715   2.728   0.454   4.366
 2895SOL    HW120716   2.696   0.526   4.304
 2895SOL    HW220717   2.752   0.373   4.313
 2896SOL     OW20718   2.389   0.256   4.052
 2896SOL    HW120719   2.416   0.197   3.977
 2896SOL    HW220720   2.389   0.351   4.021
 2897SOL     OW20721   2.973   1.195   4.824
 2897SOL    HW120722   2.933   1.239   4.905
 2897SOL    HW220723   2.932   1.232   4.741
 2898SOL     OW20724   1.926   1.564   5.055
 2898SOL    HW120725   1.880   1.646   5.021
 2898SOL    HW220726   2.024   1.583   5.064
 2899SOL     OW20727   2.229   1.100   4.225
 2899SOL    HW120728   2.222   1.183   4.169
 2899SOL    HW220729   2.233   1.020   4.165
 2900SOL     OW20730   2.428   0.537   4.589
 2900SOL    HW120731   2.440   0.603   4.515
 2900SOL    HW220732   2.474   0.571   4.672
 2901SOL     OW20733   3.114   1.348   4.112
 2901SOL    HW120734   3.164   1.425   4.152
 2901SOL    HW220735   3.019   1.350   4.144
 2902SOL     OW20736   3.134   1.445   4.866
 2902SOL    HW120737   3.181   1.458   4.953
 2902SOL    HW220738   3.068   1.371   4.875
 2903SOL     OW20739   3.444   0.639   4.196
 2903SOL    HW120740   3.413   0.700   4.269
 2903SOL    HW220741   3.494   0.691   4.127
 2904SOL     OW20742   3.449   0.779   5.394
 2904SOL    HW120743   3.357   0.817   5.389
 2904SOL    HW220744   3.509   0.826   5.329
 2905SOL     OW20745   2.366   0.050   5.464
 2905SOL    HW120746   2.324  -0.007   5.394
 2905SOL    HW220747   2.300   0.119   5.496
 2906SOL     OW20748   3.222   0.862   4.769
 2906SOL    HW120749   3.147   0.862   4.703
 2906SOL    HW220750   3.259   0.770   4.778
 2907SOL     OW20751   1.899   1.310   5.006
 2907SOL    HW120752   1.952   1.261   5.074
 2907SOL    HW220753   1.921   1.408   5.011
 2908SOL     OW20754   3.590   0.935   5.578
 2908SOL    HW120755   3.544   0.928   5.489
 2908SOL    HW220756   3.528   0.979   5.644
 2909SOL     OW20757   2.842   1.573   5.424
 2909SOL    HW120758   2.822   1.617   5.336
 2909SOL    HW220759   2.881   1.482   5.408
 2910SOL     OW20760   2.181   0.810   4.673
 2910SOL    HW120761   2.274   0.846   4.678
 2910SOL    HW220762   2.175   0.725   4.725
 2911SOL     OW20763   3.000   0.380   5.402
 2911SOL    HW120764   2.955   0.443   5.466
 2911SOL    HW220765   3.093   0.411   5.385
 2912SOL     OW20766   2.051   0.520   5.446
 2912SOL    HW120767   2.110   0.480   5.376
 2912SOL    HW220768   1.993   0.591   5.405
 2913SOL     OW20769   2.533   0.464   4.993
 2913SOL    HW120770   2.499   0.375   4.963
 2913SOL    HW220771   2.559   0.518   4.913
 2914SOL     OW20772   3.621   1.747   4.878
 2914SOL    HW120773   3.682   1.777   4.805
 2914SOL    HW220774   3.583   1.658   4.856
 2915SOL     OW20775   3.588   0.135   4.247
 2915SOL    HW120776   3.661   0.118   4.180
 2915SOL    HW220777   3.557   0.048   4.285
 2916SOL     OW20778   2.534   1.616   3.878
 2916SOL    HW120779   2.543   1.626   3.779
 2916SOL    HW220780   2.494   1.527   3.899
 2917SOL     OW20781   3.056   1.612   3.755
 2917SOL    HW120782   3.062   1.519   3.792
 2917SOL    HW220783   2.997   1.612   3.675
 2918SOL     OW20784   2.684   1.002   5.096
 2918SOL    HW120785   2.724   1.001   5.004
 2918SOL    HW220786   2.694   1.094   5.136
 2919SOL     OW20787   2.901   1.098   4.420
 2919SOL    HW120788   2.831   1.051   4.474
 2919SOL    HW220789   2.960   1.030   4.377
 2920SOL     OW20790   2.452   1.487   4.215
 2920SOL    HW120791   2.494   1.429   4.145
 2920SOL    HW220792   2.408   1.566   4.171
 2921SOL     OW20793   2.534   0.203   5.213
 2921SOL    HW120794   2.624   0.187   5.173
 2921SOL    HW220795   2.542   0.208   5.312
 2922SOL     OW20796   1.937   0.345   3.757
 2922SOL    HW120797   1.845   0.317   3.728
 2922SOL    HW220798   1.968   0.422   3.701
 2923SOL     OW20799   1.934   0.166   4.042
 2923SOL    HW120800   1.917   0.249   3.988
 2923SOL    HW220801   2.024   0.129   4.020
 2924SOL     OW20802   3.045   1.335   3.843
 2924SOL    HW120803   2.946   1.324   3.845
 2924SOL    HW220804   3.079   1.350   3.936
 2925SOL     OW20805   2.475   0.842   5.155
 2925SOL    HW120806   2.531   0.923   5.138
 2925SOL    HW220807   2.534   0.762   5.158
 2926SOL     OW20808   3.536   0.883   4.978
 2926SOL    HW120809   3.509   0.794   4.941
 2926SOL    HW220810   3.537   0.951   4.905
 2927SOL     OW20811   3.087   0.325   4.173
 2927SOL    HW120812   3.152   0.251   4.162
 2927SOL    HW220813   3.107   0.375   4.257
 2928SOL     OW20814   2.721   1.374   3.740
 2928SOL    HW120815   2.675   1.389   3.828
 2928SOL    HW220816   2.765   1.459   3.710
 2929SOL     OW20817   2.721   0.956   4.585
 2929SOL    HW120818   2.775   0.887   4.633
 2929SOL    HW220819   2.689   1.025   4.651
 2930SOL     OW20820   2.945   0.984   3.811
 2930SOL    HW120821   2.922   1.037   3.729
 2930SOL    HW220822   3.026   0.928   3.792
 2931SOL     OW20823   3.723   1.569   4.575
 2931SOL    HW120824   3.652   1.557   4.505
 2931SOL    HW220825   3.724   1.490   4.635
 2932SOL     OW20826   2.674   1.586   4.411
 2932SOL    HW120827   2.706   1.596   4.317
 2932SOL    HW220828   2.595   1.524   4.413
 2933SOL     OW20829   3.214   0.052   3.892
 2933SOL    HW120830   3.249   0.011   3.808
 2933SOL    HW220831   3.124   0.014   3.912
 2934SOL     OW20832   3.162   0.453   4.415
 2934SOL    HW120833   3.103   0.533   4.419
 2934SOL    HW220834   3.177   0.418   4.508
 2935SOL     OW20835   2.092   0.628   5.699
 2935SOL    HW120836   1.999   0.626   5.736
 2935SOL    HW220837   2.093   0.589   5.607
 2936SOL     OW20838   2.087   0.275   6.582
 2936SOL    HW120839   2.122   0.258   6.674
 2936SOL    HW220840   1.999   0.230   6.570
 2937SOL     OW20841   1.881   0.368   6.233
 2937SOL    HW120842   1.799   0.411   6.272
 2937SOL    HW220843   1.853   0.295   6.170
 2938SOL     OW20844   2.431   1.275   6.751
 2938SOL    HW120845   2.338   1.268   6.714
 2938SOL    HW220846   2.442   1.364   6.795
 2939SOL     OW20847   3.417   1.511   6.289
 2939SOL    HW120848   3.360   1.495   6.370
 2939SOL    HW220849   3.358   1.521   6.209
 2940SOL     OW20850   2.997   0.703   6.303
 2940SOL    HW120851   3.054   0.781   6.278
 2940SOL    HW220852   2.937   0.729   6.379
 2941SOL     OW20853   3.617   0.607   5.817
 2941SOL    HW120854   3.605   0.594   5.718
 2941SOL    HW220855   3.587   0.526   5.866
 2942SOL     OW20856   2.630   1.144   6.609
 2942SOL    HW120857   2.552   1.161   6.669
 2942SOL    HW220858   2.664   1.231   6.573
 2943SOL     OW20859   2.712   0.798   7.409
 2943SOL    HW120860   2.708   0.874   7.474
 2943SOL    HW220861   2.734   0.834   7.318
 2944SOL     OW20862   2.547   1.012   6.251
 2944SOL    HW120863   2.616   0.996   6.321
 2944SOL    HW220864   2.474   1.069   6.289
 2945SOL     OW20865   2.548   1.161   7.389
 2945SOL    HW120866   2.608   1.240   7.403
 2945SOL    HW220867   2.462   1.192   7.348
 2946SOL     OW20868   2.197   1.435   6.647
 2946SOL    HW120869   2.119   1.404   6.594
 2946SOL    HW220870   2.255   1.493   6.590
 2947SOL     OW20871   3.322   1.505   6.925
 2947SOL    HW120872   3.346   1.599   6.951
 2947SOL    HW220873   3.306   1.451   7.007
 2948SOL     OW20874   2.300   0.392   7.085
 2948SOL    HW120875   2.382   0.336   7.094
 2948SOL    HW220876   2.219   0.334   7.089
 2949SOL     OW20877   3.465   0.447   6.323
 2949SOL    HW120878   3.391   0.493   6.273
 2949SOL    HW220879   3.516   0.515   6.376
 2950SOL     OW20880   2.093   1.713   6.069
 2950SOL    HW120881   2.127   1.790   6.123
 2950SOL    HW220882   2.137   1.713   5.979
 2951SOL     OW20883   2.989   1.341   7.276
 2951SOL    HW120884   3.036   1.341   7.364
 2951SOL    HW220885   2.941   1.254   7.265
 2952SOL     OW20886   2.092   1.434   6.124
 2952SOL    HW120887   2.066   1.530   6.124
 2952SOL    HW220888   2.021   1.380   6.169
 2953SOL     OW20889   2.102   1.091   6.472
 2953SOL    HW120890   2.116   1.007   6.524
 2953SOL    HW220891   2.047   1.155   6.527
 2954SOL     OW20892   2.482   1.786   7.025
 2954SOL    HW120893   2.390   1.769   7.060
 2954SOL    HW220894   2.510   1.878   7.051
 2955SOL     OW20895   3.456   0.114   7.066
 2955SOL    HW120896   3.438   0.181   6.994
 2955SOL    HW220897   3.453   0.160   7.155
 2956SOL     OW20898   1.984   0.643   6.149
 2956SOL    HW120899   1.939   0.555   6.166
 2956SOL    HW220900   1.983   0.697   6.233
 2957SOL     OW20901   3.704   1.767   5.945
 2957SOL    HW120902   3.758   1.738   6.025
 2957SOL    HW220903   3.734   1.857   5.916
 2958SOL     OW20904   1.889   1.596   5.703
 2958SOL    HW120905   1.870   1.500   5.724
 2958SOL    HW220906   1.856   1.654   5.778
 2959SOL     OW20907   3.551   0.922   6.198
 2959SOL    HW120908   3.646   0.893   6.206
 2959SOL    HW220909   3.543   0.987   6.123
 2960SOL     OW20910   3.503   1.108   6.018
 2960SOL    HW120911   3.589   1.110   5.966
 2960SOL    HW220912   3.517   1.155   6.106
 2961SOL     OW20913   1.975   0.737   7.183
 2961SOL    HW120914   2.063   0.724   7.228
 2961SOL    HW220915   1.962   0.834   7.161
 2962SOL     OW20916   2.475   1.365   6.312
 2962SOL    HW120917   2.426   1.278   6.321
 2962SOL    HW220918   2.452   1.408   6.225
 2963SOL     OW20919   3.155   1.228   7.009
 2963SOL    HW120920   3.192   1.155   6.951
 2963SOL    HW220921   3.207   1.233   7.094
 2964SOL     OW20922   2.671   0.004   6.088
 2964SOL    HW120923   2.711   0.095   6.079
 2964SOL    HW220924   2.571   0.012   6.094
 2965SOL     OW20925   2.059   0.976   6.850
 2965SOL    HW120926   2.148   0.931   6.836
 2965SOL    HW220927   1.986   0.911   6.831
 2966SOL     OW20928   3.049   1.792   7.202
 2966SOL    HW120929   3.073   1.852   7.126
 2966SOL    HW220930   3.056   1.697   7.172
 2967SOL     OW20931   2.179   0.251   7.387
 2967SOL    HW120932   2.250   0.322   7.393
 2967SOL    HW220933   2.091   0.290   7.415
 2968SOL     OW20934   3.328   1.417   6.539
 2968SOL    HW120935   3.269   1.423   6.619
 2968SOL    HW220936   3.313   1.329   6.493
 2969SOL     OW20937   3.529   1.714   6.158
 2969SOL    HW120938   3.488   1.691   6.070
 2969SOL    HW220939   3.511   1.640   6.223
 2970SOL     OW20940   3.143   0.345   6.530
 2970SOL    HW120941   3.057   0.295   6.517
 2970SOL    HW220942   3.205   0.291   6.586
 2971SOL     OW20943   2.669   0.605   7.051
 2971SOL    HW120944   2.622   0.602   7.140
 2971SOL    HW220945   2.618   0.550   6.985
 2972SOL     OW20946   2.835   0.890   7.158
 2972SOL    HW120947   2.881   0.806   7.129
 2972SOL    HW220948   2.779   0.924   7.083
 2973SOL     OW20949   2.853   0.410   6.828
 2973SOL    HW120950   2.776   0.444   6.882
 2973SOL    HW220951   2.819   0.359   6.749
 2974SOL     OW20952   2.903   0.701   6.015
 2974SOL    HW120953   2.929   0.697   6.111
 2974SOL    HW220954   2.818   0.650   6.001
 2975SOL     OW20955   1.938   0.811   6.375
 2975SOL    HW120956   2.037   0.799   6.384
 2975SOL    HW220957   1.914   0.906   6.396
 2976SOL     OW20958   1.992   1.821   7.157
 2976SOL    HW120959   1.982   1.806   7.256
 2976SOL    HW220960   1.906   1.857   7.121
 2977SOL     OW20961   2.727   0.348   5.781
 2977SOL    HW120962   2.786   0.411   5.732
 2977SOL    HW220963   2.746   0.254   5.752
 2978SOL     OW20964   3.224   1.144   6.131
 2978SOL    HW120965   3.307   1.115   6.083
 2978SOL    HW220966   3.175   1.211   6.075
 2979SOL     OW20967   2.412   0.196   6.471
 2979SOL    HW120968   2.407   0.191   6.571
 2979SOL    HW220969   2.414   0.292   6.442
 2980SOL     OW20970   2.870   1.456   6.063
 2980SOL    HW120971   2.824   1.528   6.011
 2980SOL    HW220972   2.866   1.476   6.161
 2981SOL     OW20973   2.213   1.801   6.439
 2981SOL    HW120974   2.263   1.715   6.445
 2981SOL    HW220975   2.278   1.878   6.436
 2982SOL     OW20976   3.657   1.066   6.459
 2982SOL    HW120977   3.595   1.051   6.383
 2982SOL    HW220978   3.605   1.077   6.544
 2983SOL     OW20979   3.089   1.550   7.092
 2983SOL    HW120980   3.095   1.473   7.156
 2983SOL    HW220981   3.037   1.524   7.012
 2984SOL     OW20982   3.320   0.735   6.314
 2984SOL    HW120983   3.315   0.670   6.389
 2984SOL    HW220984   3.400   0.794   6.327
 2985SOL     OW20985   2.323   1.266   7.313
 2985SOL    HW120986   2.273   1.267   7.227
 2985SOL    HW220987   2.260   1.248   7.389
 2986SOL     OW20988   2.973   1.776   5.823
 2986SOL    HW120989   2.913   1.714   5.873
 2986SOL    HW220990   3.004   1.732   5.738
 2987SOL     OW20991   2.064   0.285   7.084
 2987SOL    HW120992   1.984   0.345   7.071
 2987SOL    HW220993   2.054   0.236   7.170
 2988SOL     OW20994   2.326   1.743   5.909
 2988SOL    HW120995   2.359   1.782   5.995
 2988SOL    HW220996   2.402   1.736   5.844
 2989SOL     OW20997   3.262   0.107   6.012
 2989SOL    HW120998   3.238   0.070   5.922
 2989SOL    HW220999   3.361   0.123   6.016
 2990SOL     OW21000   2.111   1.785   6.827
 2990SOL    HW121001   2.168   1.720   6.877
 2990SOL    HW221002   2.095   1.752   6.734
 2991SOL     OW21003   2.802   1.698   6.490
 2991SOL    HW121004   2.882   1.641   6.511
 2991SOL    HW221005   2.753   1.658   6.413
 2992SOL     OW21006   2.244   0.700   6.066
 2992SOL    HW121007   2.289   0.610   6.063
 2992SOL    HW221008   2.150   0.689   6.099
 2993SOL     OW21009   2.476   0.122   5.703
 2993SOL    HW121010   2.574   0.100   5.710
 2993SOL    HW221011   2.445   0.105   5.610
 2994SOL     OW21012   2.643   0.264   7.335
 2994SOL    HW121013   2.710   0.203   7.378
 2994SOL    HW221014   2.570   0.283   7.400
 2995SOL     OW21015   2.750   1.514   6.781
 2995SOL    HW121016   2.727   1.489   6.687
 2995SOL    HW221017   2.811   1.445   6.820
 2996SOL     OW21018   3.213   0.590   7.019
 2996SOL    HW121019   3.241   0.547   7.104
 2996SOL    HW221020   3.238   0.686   7.020
 2997SOL     OW21021   2.665   1.402   6.510
 2997SOL    HW121022   2.755   1.416   6.468
 2997SOL    HW221023   2.594   1.404   6.439
 2998SOL     OW21024   2.784   0.503   6.485
 2998SOL    HW121025   2.759   0.494   6.389
 2998SOL    HW221026   2.832   0.421   6.516
 2999SOL     OW21027   2.401   0.064   6.098
 2999SOL    HW121028   2.320   0.065   6.156
 2999SOL    HW221029   2.404   0.147   6.043
 3000SOL     OW21030   2.159   0.035   5.757
 3000SOL    HW121031   2.208   0.119   5.736
 3000SOL    HW221032   2.221  -0.030   5.802
 3001SOL     OW21033   2.797   0.236   6.066
 3001SOL    HW121034   2.749   0.277   5.988
 3001SOL    HW221035   2.896   0.234   6.047
 3002SOL     OW21036   2.938   0.683   7.050
 3002SOL    HW121037   2.858   0.622   7.053
 3002SOL    HW221038   3.019   0.630   7.026
 3003SOL     OW21039   3.089   1.570   6.379
 3003SOL    HW121040   3.110   1.644   6.314
 3003SOL    HW221041   3.157   1.570   6.452
 3004SOL     OW21042   2.321   1.152   6.327
 3004SOL    HW121043   2.250   1.125   6.392
 3004SOL    HW221044   2.295   1.124   6.234
 3005SOL     OW21045   1.940   0.556   6.972
 3005SOL    HW121046   2.032   0.555   6.931
 3005SOL    HW221047   1.934   0.630   7.039
 3006SOL     OW21048   2.423   0.222   6.733
 3006SOL    HW121049   2.461   0.138   6.770
 3006SOL    HW221050   2.335   0.241   6.777
 3007SOL     OW21051   2.728   0.454   6.228
 3007SOL    HW121052   2.696   0.526   6.166
 3007SOL    HW221053   2.752   0.373   6.175
 3008SOL     OW21054   2.879   0.039   6.339
 3008SOL    HW121055   2.807   0.044   6.270
 3008SOL    HW221056   2.855  -0.030   6.408
 3009SOL     OW21057   3.291   1.173   6.453
 3009SOL    HW121058   3.236   1.089   6.446
 3009SOL    HW221059   3.317   1.202   6.361
 3010SOL     OW21060   3.328   0.590   6.578
 3010SOL    HW121061   3.298   0.495   6.585
 3010SOL    HW221062   3.401   0.606   6.644
 3011SOL     OW21063   3.719   0.833   5.963
 3011SOL    HW121064   3.761   0.769   6.027
 3011SOL    HW221065   3.681   0.782   5.885
 3012SOL     OW21066   2.350   1.385   5.760
 3012SOL    HW121067   2.263   1.370   5.807
 3012SOL    HW221068   2.333   1.411   5.665
 3013SOL     OW21069   3.526   1.280   6.243
 3013SOL    HW121070   3.625   1.288   6.257
 3013SOL    HW221071   3.481   1.364   6.274
 3014SOL     OW21072   3.252   0.575   5.664
 3014SOL    HW121073   3.198   0.554   5.745
 3014SOL    HW221074   3.343   0.534   5.673
 3015SOL     OW21075   2.389   0.256   5.914
 3015SOL    HW121076   2.416   0.197   5.839
 3015SOL    HW221077   2.389   0.351   5.883
 3016SOL     OW21078   3.616   1.223   7.174
 3016SOL    HW121079   3.707   1.184   7.161
 3016SOL    HW221080   3.624   1.319   7.198
 3017SOL     OW21081   2.926   1.347   6.926
 3017SOL    HW121082   2.846   1.324   6.981
 3017SOL    HW221083   3.009   1.321   6.975
 3018SOL     OW21084   3.454   1.629   7.211
 3018SOL    HW121085   3.481   1.663   7.121
 3018SOL    HW221086   3.533   1.591   7.257
 3019SOL     OW21087   2.973   1.195   6.686
 3019SOL    HW121088   2.933   1.239   6.767
 3019SOL    HW221089   2.932   1.232   6.603
 3020SOL     OW21090   3.500   1.099   6.665
 3020SOL    HW121091   3.505   1.180   6.724
 3020SOL    HW221092   3.414   1.101   6.614
 3021SOL     OW21093   2.777   0.089   6.988
 3021SOL    HW121094   2.802   0.069   6.893
 3021SOL    HW221095   2.849   0.145   7.030
 3022SOL     OW21096   2.842   1.116   7.305
 3022SOL    HW121097   2.743   1.122   7.315
 3022SOL    HW221098   2.865   1.036   7.249
 3023SOL     OW21099   2.272   0.813   6.837
 3023SOL    HW121100   2.358   0.825   6.887
 3023SOL    HW221101   2.230   0.726   6.864
 3024SOL     OW21102   3.136   0.386   6.848
 3024SOL    HW121103   3.157   0.460   6.912
 3024SOL    HW221104   3.047   0.403   6.805
 3025SOL     OW21105   1.926   1.564   6.917
 3025SOL    HW121106   1.880   1.646   6.883
 3025SOL    HW221107   2.024   1.583   6.926
 3026SOL     OW21108   2.229   1.100   6.087
 3026SOL    HW121109   2.222   1.183   6.031
 3026SOL    HW221110   2.233   1.020   6.027
 3027SOL     OW21111   2.428   0.537   6.451
 3027SOL    HW121112   2.440   0.603   6.377
 3027SOL    HW221113   2.474   0.571   6.534
 3028SOL     OW21114   3.114   1.348   5.974
 3028SOL    HW121115   3.164   1.425   6.014
 3028SOL    HW221116   3.019   1.350   6.006
 3029SOL     OW21117   3.134   1.445   6.728
 3029SOL    HW121118   3.181   1.458   6.815
 3029SOL    HW221119   3.068   1.371   6.737
 3030SOL     OW21120   3.444   0.639   6.058
 3030SOL    HW121121   3.413   0.700   6.131
 3030SOL    HW221122   3.494   0.691   5.989
 3031SOL     OW21123   2.216   1.510   6.915
 3031SOL    HW121124   2.195   1.466   6.828
 3031SOL    HW221125   2.313   1.536   6.918
 3032SOL     OW21126   2.264   0.751   7.184
 3032SOL    HW121127   2.332   0.806   7.137
 3032SOL    HW221128   2.304   0.663   7.211
 3033SOL     OW21129   3.449   0.779   7.256
 3033SOL    HW121130   3.357   0.817   7.251
 3033SOL    HW221131   3.509   0.826   7.191
 3034SOL     OW21132   2.435   0.870   6.615
 3034SOL    HW121133   2.479   0.959   6.606
 3034SOL    HW221134   2.372   0.870   6.692
 3035SOL     OW21135   3.222   0.862   6.631
 3035SOL    HW121136   3.147   0.862   6.565
 3035SOL    HW221137   3.259   0.770   6.640
 3036SOL     OW21138   3.071   0.525   5.861
 3036SOL    HW121139   3.084   0.441   5.915
 3036SOL    HW221140   3.042   0.599   5.921
 3037SOL     OW21141   2.169   0.213   6.817
 3037SOL    HW121142   2.146   0.250   6.907
 3037SOL    HW221143   2.139   0.118   6.811
 3038SOL     OW21144   1.899   1.310   6.868
 3038SOL    HW121145   1.952   1.261   6.936
 3038SOL    HW221146   1.921   1.408   6.873
 3039SOL     OW21147   2.594   0.634   6.650
 3039SOL    HW121148   2.653   0.608   6.574
 3039SOL    HW221149   2.566   0.730   6.639
 3040SOL     OW21150   3.590   0.935   7.440
 3040SOL    HW121151   3.544   0.928   7.351
 3040SOL    HW221152   3.528   0.979   7.506
 3041SOL     OW21153   2.169   0.063   6.204
 3041SOL    HW121154   2.158   0.157   6.237
 3041SOL    HW221155   2.164   0.000   6.281
 3042SOL     OW21156   3.484   0.367   5.960
 3042SOL    HW121157   3.486   0.291   6.024
 3042SOL    HW221158   3.436   0.444   6.000
 3043SOL     OW21159   2.885   0.766   6.552
 3043SOL    HW121160   2.900   0.787   6.648
 3043SOL    HW221161   2.855   0.671   6.543
 3044SOL     OW21162   2.842   1.573   7.286
 3044SOL    HW121163   2.822   1.617   7.198
 3044SOL    HW221164   2.881   1.482   7.270
 3045SOL     OW21165   3.721   1.518   7.191
 3045SOL    HW121166   3.735   1.545   7.096
 3045SOL    HW221167   3.804   1.540   7.244
 3046SOL     OW21168   2.212   0.898   7.390
 3046SOL    HW121169   2.288   0.942   7.438
 3046SOL    HW221170   2.247   0.851   7.308
 3047SOL     OW21171   3.402   0.274   5.711
 3047SOL    HW121172   3.341   0.199   5.734
 3047SOL    HW221173   3.424   0.326   5.794
 3048SOL     OW21174   2.930   1.333   6.435
 3048SOL    HW121175   2.937   1.249   6.380
 3048SOL    HW221176   2.992   1.402   6.399
 3049SOL     OW21177   2.181   0.810   6.535
 3049SOL    HW121178   2.274   0.846   6.540
 3049SOL    HW221179   2.175   0.725   6.587
 3050SOL     OW21180   2.201   0.509   6.592
 3050SOL    HW121181   2.149   0.426   6.575
 3050SOL    HW221182   2.278   0.514   6.528
 3051SOL     OW21183   3.000   0.380   7.264
 3051SOL    HW121184   2.955   0.443   7.328
 3051SOL    HW221185   3.093   0.411   7.247
 3052SOL     OW21186   3.022   0.207   7.063
 3052SOL    HW121187   3.022   0.271   7.140
 3052SOL    HW221188   3.050   0.255   6.980
 3053SOL     OW21189   1.950   1.801   6.513
 3053SOL    HW121190   1.908   1.715   6.486
 3053SOL    HW221191   2.044   1.804   6.479
 3054SOL     OW21192   2.366   1.568   6.496
 3054SOL    HW121193   2.432   1.642   6.505
 3054SOL    HW221194   2.410   1.489   6.454
 3055SOL     OW21195   2.864   0.796   6.824
 3055SOL    HW121196   2.905   0.764   6.910
 3055SOL    HW221197   2.768   0.769   6.821
 3056SOL     OW21198   1.902   0.544   6.700
 3056SOL    HW121199   1.987   0.511   6.659
 3056SOL    HW221200   1.915   0.559   6.798
 3057SOL     OW21201   2.677   0.572   5.911
 3057SOL    HW121202   2.684   0.483   5.865
 3057SOL    HW221203   2.583   0.606   5.903
 3058SOL     OW21204   3.519   0.604   6.792
 3058SOL    HW121205   3.481   0.535   6.854
 3058SOL    HW221206   3.601   0.568   6.748
 3059SOL     OW21207   2.114   1.564   7.330
 3059SOL    HW121208   2.084   1.621   7.406
 3059SOL    HW221209   2.107   1.467   7.356
 3060SOL     OW21210   2.533   0.464   6.855
 3060SOL    HW121211   2.499   0.375   6.825
 3060SOL    HW221212   2.559   0.518   6.775
 3061SOL     OW21213   2.792   1.678   7.051
 3061SOL    HW121214   2.768   1.660   6.956
 3061SOL    HW221215   2.822   1.772   7.061
 3062SOL     OW21216   2.335   0.500   5.777
 3062SOL    HW121217   2.396   0.580   5.781
 3062SOL    HW221218   2.240   0.531   5.784
 3063SOL     OW21219   2.021   1.137   7.052
 3063SOL    HW121220   2.043   1.076   7.128
 3063SOL    HW221221   2.031   1.088   6.966
 3064SOL     OW21222   3.209   1.059   6.820
 3064SOL    HW121223   3.233   0.996   6.746
 3064SOL    HW221224   3.119   1.099   6.802
 3065SOL     OW21225   3.621   1.747   6.740
 3065SOL    HW121226   3.682   1.777   6.667
 3065SOL    HW221227   3.583   1.658   6.718
 3066SOL     OW21228   3.114   1.731   6.714
 3066SOL    HW121229   3.198   1.736   6.660
 3066SOL    HW221230   3.091   1.635   6.732
 3067SOL     OW21231   1.945   1.258   6.608
 3067SOL    HW121232   1.940   1.257   6.708
 3067SOL    HW221233   1.862   1.217   6.570
 3068SOL     OW21234   2.550   1.662   7.302
 3068SOL    HW121235   2.494   1.743   7.311
 3068SOL    HW221236   2.602   1.666   7.216
 3069SOL     OW21237   3.588   0.135   6.109
 3069SOL    HW121238   3.661   0.118   6.042
 3069SOL    HW221239   3.557   0.048   6.147
 3070SOL     OW21240   3.250   1.573   6.063
 3070SOL    HW121241   3.317   1.585   5.989
 3070SOL    HW221242   3.210   1.662   6.086
 3071SOL     OW21243   3.142   0.927   6.258
 3071SOL    HW121244   3.202   0.846   6.260
 3071SOL    HW221245   3.182   0.996   6.198
 3072SOL     OW21246   2.692   1.273   7.008
 3072SOL    HW121247   2.687   1.306   7.103
 3072SOL    HW221248   2.606   1.292   6.962
 3073SOL     OW21249   2.534   1.616   5.740
 3073SOL    HW121250   2.543   1.626   5.641
 3073SOL    HW221251   2.494   1.527   5.761
 3074SOL     OW21252   3.512   1.720   6.980
 3074SOL    HW121253   3.565   1.730   6.896
 3074SOL    HW221254   3.485   1.810   7.014
 3075SOL     OW21255   3.703   0.175   6.549
 3075SOL    HW121256   3.742   0.090   6.513
 3075SOL    HW221257   3.605   0.177   6.530
 3076SOL     OW21258   2.125   0.326   6.306
 3076SOL    HW121259   2.046   0.377   6.272
 3076SOL    HW221260   2.116   0.311   6.404
 3077SOL     OW21261   2.684   1.002   6.958
 3077SOL    HW121262   2.724   1.001   6.866
 3077SOL    HW221263   2.694   1.094   6.998
 3078SOL     OW21264   2.778   0.910   5.877
 3078SOL    HW121265   2.841   0.948   5.809
 3078SOL    HW221266   2.818   0.827   5.916
 3079SOL     OW21267   2.234   1.288   7.076
 3079SOL    HW121268   2.221   1.381   7.042
 3079SOL    HW221269   2.150   1.236   7.063
 3080SOL     OW21270   3.476   1.292   6.875
 3080SOL    HW121271   3.536   1.295   6.955
 3080SOL    HW221272   3.401   1.356   6.888
 3081SOL     OW21273   2.901   1.098   6.282
 3081SOL    HW121274   2.831   1.051   6.336
 3081SOL    HW221275   2.960   1.030   6.239
 3082SOL     OW21276   2.876   0.236   6.557
 3082SOL    HW121277   2.868   0.200   6.464
 3082SOL    HW221278   2.874   0.160   6.622
 3083SOL     OW21279   2.452   1.487   6.077
 3083SOL    HW121280   2.494   1.429   6.007
 3083SOL    HW221281   2.408   1.566   6.033
 3084SOL     OW21282   3.571   0.385   6.967
 3084SOL    HW121283   3.644   0.454   6.971
 3084SOL    HW221284   3.599   0.310   6.908
 3085SOL     OW21285   1.967   1.013   7.312
 3085SOL    HW121286   1.890   0.980   7.366
 3085SOL    HW221287   2.052   0.983   7.354
 3086SOL     OW21288   2.534   0.203   7.075
 3086SOL    HW121289   2.624   0.187   7.035
 3086SOL    HW221290   2.542   0.208   7.174
 3087SOL     OW21291   1.937   0.345   5.619
 3087SOL    HW121292   1.845   0.317   5.590
 3087SOL    HW221293   1.968   0.422   5.563
 3088SOL     OW21294   3.302   0.856   6.984
 3088SOL    HW121295   3.245   0.908   6.921
 3088SOL    HW221296   3.398   0.868   6.960
 3089SOL     OW21297   1.934   0.166   5.904
 3089SOL    HW121298   1.917   0.249   5.850
 3089SOL    HW221299   2.024   0.129   5.882
 3090SOL     OW21300   2.475   0.842   7.017
 3090SOL    HW121301   2.531   0.923   7.000
 3090SOL    HW221302   2.534   0.762   7.020
 3091SOL     OW21303   3.355   1.767   6.545
 3091SOL    HW121304   3.388   1.831   6.476
 3091SOL    HW221305   3.421   1.761   6.620
 3092SOL     OW21306   2.578   0.565   7.294
 3092SOL    HW121307   2.597   0.630   7.368
 3092SOL    HW221308   2.638   0.485   7.303
 3093SOL     OW21309   2.252   1.741   7.146
 3093SOL    HW121310   2.161   1.782   7.144
 3093SOL    HW221311   2.245   1.647   7.178
 3094SOL     OW21312   3.536   0.883   6.840
 3094SOL    HW121313   3.509   0.794   6.803
 3094SOL    HW221314   3.537   0.951   6.767
 3095SOL     OW21315   3.087   0.325   6.035
 3095SOL    HW121316   3.152   0.251   6.024
 3095SOL    HW221317   3.107   0.375   6.119
 3096SOL     OW21318   2.456   0.745   6.238
 3096SOL    HW121319   2.506   0.830   6.219
 3096SOL    HW221320   2.368   0.747   6.190
 3097SOL     OW21321   3.639   0.342   7.228
 3097SOL    HW121322   3.622   0.373   7.134
 3097SOL    HW221323   3.555   0.305   7.266
 3098SOL     OW21324   3.592   0.934   7.103
 3098SOL    HW121325   3.630   1.025   7.118
 3098SOL    HW221326   3.584   0.917   7.004
 3099SOL     OW21327   2.523   1.790   6.539
 3099SOL    HW121328   2.477   1.878   6.526
 3099SOL    HW221329   2.622   1.802   6.532
 3100SOL     OW21330   2.721   0.956   6.447
 3100SOL    HW121331   2.775   0.887   6.495
 3100SOL    HW221332   2.689   1.025   6.513
 3101SOL     OW21333   3.723   1.569   6.437
 3101SOL    HW121334   3.652   1.557   6.367
 3101SOL    HW221335   3.724   1.490   6.497
 3102SOL     OW21336   2.083   1.314   7.430
 3102SOL    HW121337   2.018   1.241   7.409
 3102SOL    HW221338   2.087   1.328   7.528
 3103SOL     OW21339   1.941   1.240   6.239
 3103SOL    HW121340   1.940   1.193   6.327
 3103SOL    HW221341   2.023   1.212   6.188
 3104SOL     OW21342   2.534   1.391   7.210
 3104SOL    HW121343   2.456   1.341   7.248
 3104SOL    HW221344   2.531   1.486   7.241
 3105SOL     OW21345   3.686   0.192   6.813
 3105SOL    HW121346   3.682   0.102   6.857
 3105SOL    HW221347   3.689   0.181   6.714
 3106SOL     OW21348   2.290   0.424   6.106
 3106SOL    HW121349   2.320   0.352   6.044
 3106SOL    HW221350   2.251   0.384   6.189
 3107SOL     OW21351   3.567   1.487   6.690
 3107SOL    HW121352   3.474   1.462   6.663
 3107SOL    HW221353   3.593   1.437   6.772
 3108SOL     OW21354   2.179   0.547   6.866
 3108SOL    HW121355   2.217   0.488   6.938
 3108SOL    HW221356   2.219   0.521   6.778
 3109SOL     OW21357   2.674   1.586   6.273
 3109SOL    HW121358   2.706   1.596   6.179
 3109SOL    HW221359   2.595   1.524   6.275
 3110SOL     OW21360   3.286   0.214   6.698
 3110SOL    HW121361   3.338   0.149   6.753
 3110SOL    HW221362   3.237   0.277   6.759
 3111SOL     OW21363   2.863   0.034   6.740
 3111SOL    HW121364   2.800  -0.038   6.709
 3111SOL    HW221365   2.956  -0.002   6.740
 3112SOL     OW21366   2.480   1.567   6.870
 3112SOL    HW121367   2.475   1.649   6.927
 3112SOL    HW221368   2.569   1.564   6.825
 3113SOL     OW21369   3.214   0.052   5.754
 3113SOL    HW121370   3.249   0.011   5.670
 3113SOL    HW221371   3.124   0.014   5.774
 3114SOL     OW21372   3.162   0.453   6.277
 3114SOL    HW121373   3.103   0.533   6.281
 3114SOL    HW221374   3.177   0.418   6.370
 3115SOL     OW21375   3.455   0.221   6.468
 3115SOL    HW121376   3.371   0.220   6.522
 3115SOL    HW221377   3.457   0.304   6.412
 3116SOL     OW21378   2.092   2.490   0.113
 3116SOL    HW121379   1.999   2.488   0.150
 3116SOL    HW221380   2.093   2.451   0.021
 3117SOL     OW21381   2.087   2.137   0.996
 3117SOL    HW121382   2.122   2.120   1.088
 3117SOL    HW221383   1.999   2.092   0.984
 3118SOL     OW21384   1.881   2.230   0.647
 3118SOL    HW121385   1.799   2.273   0.686
 3118SOL    HW221386   1.853   2.157   0.584
 3119SOL     OW21387   2.431   3.137   1.165
 3119SOL    HW121388   2.338   3.130   1.128
 3119SOL    HW221389   2.442   3.226   1.209
 3120SOL     OW21390   3.417   3.373   0.703
 3120SOL    HW121391   3.360   3.357   0.784
 3120SOL    HW221392   3.358   3.383   0.623
 3121SOL     OW21393   2.997   2.565   0.717
 3121SOL    HW121394   3.054   2.643   0.692
 3121SOL    HW221395   2.937   2.591   0.793
 3122SOL     OW21396   3.617   2.469   0.231
 3122SOL    HW121397   3.605   2.456   0.132
 3122SOL    HW221398   3.587   2.388   0.280
 3123SOL     OW21399   2.630   3.006   1.023
 3123SOL    HW121400   2.552   3.023   1.083
 3123SOL    HW221401   2.664   3.093   0.987
 3124SOL     OW21402   2.712   2.660   1.823
 3124SOL    HW121403   2.708   2.736   1.888
 3124SOL    HW221404   2.734   2.696   1.732
 3125SOL     OW21405   2.547   2.874   0.665
 3125SOL    HW121406   2.616   2.858   0.735
 3125SOL    HW221407   2.474   2.931   0.703
 3126SOL     OW21408   2.548   3.023   1.803
 3126SOL    HW121409   2.608   3.102   1.817
 3126SOL    HW221410   2.462   3.054   1.762
 3127SOL     OW21411   2.197   3.297   1.061
 3127SOL    HW121412   2.119   3.266   1.008
 3127SOL    HW221413   2.255   3.355   1.004
 3128SOL     OW21414   3.322   3.367   1.339
 3128SOL    HW121415   3.346   3.461   1.365
 3128SOL    HW221416   3.306   3.313   1.421
 3129SOL     OW21417   3.465   2.309   0.737
 3129SOL    HW121418   3.391   2.355   0.687
 3129SOL    HW221419   3.516   2.377   0.790
 3130SOL     OW21420   2.093   3.575   0.483
 3130SOL    HW121421   2.127   3.652   0.537
 3130SOL    HW221422   2.137   3.575   0.393
 3131SOL     OW21423   2.092   3.296   0.538
 3131SOL    HW121424   2.066   3.392   0.538
 3131SOL    HW221425   2.021   3.242   0.583
 3132SOL     OW21426   2.102   2.953   0.886
 3132SOL    HW121427   2.116   2.869   0.938
 3132SOL    HW221428   2.047   3.017   0.941
 3133SOL     OW21429   2.482   3.648   1.439
 3133SOL    HW121430   2.390   3.631   1.474
 3133SOL    HW221431   2.510   3.740   1.465
 3134SOL     OW21432   2.468   2.826   0.123
 3134SOL    HW121433   2.475   2.910   0.069
 3134SOL    HW221434   2.514   2.839   0.211
 3135SOL     OW21435   3.456   1.976   1.480
 3135SOL    HW121436   3.438   2.043   1.408
 3135SOL    HW221437   3.453   2.022   1.569
 3136SOL     OW21438   1.984   2.505   0.563
 3136SOL    HW121439   1.939   2.417   0.580
 3136SOL    HW221440   1.983   2.559   0.647
 3137SOL     OW21441   3.704   3.629   0.359
 3137SOL    HW121442   3.758   3.600   0.439
 3137SOL    HW221443   3.734   3.719   0.330
 3138SOL     OW21444   1.889   3.458   0.117
 3138SOL    HW121445   1.870   3.362   0.138
 3138SOL    HW221446   1.856   3.516   0.192
 3139SOL     OW21447   3.551   2.784   0.612
 3139SOL    HW121448   3.646   2.755   0.620
 3139SOL    HW221449   3.543   2.849   0.537
 3140SOL     OW21450   3.503   2.970   0.432
 3140SOL    HW121451   3.589   2.972   0.380
 3140SOL    HW221452   3.517   3.017   0.520
 3141SOL     OW21453   1.975   2.599   1.597
 3141SOL    HW121454   2.063   2.586   1.642
 3141SOL    HW221455   1.962   2.696   1.575
 3142SOL     OW21456   2.475   3.227   0.726
 3142SOL    HW121457   2.426   3.140   0.735
 3142SOL    HW221458   2.452   3.270   0.639
 3143SOL     OW21459   3.155   3.090   1.423
 3143SOL    HW121460   3.192   3.017   1.365
 3143SOL    HW221461   3.207   3.095   1.508
 3144SOL     OW21462   2.671   1.866   0.502
 3144SOL    HW121463   2.711   1.957   0.493
 3144SOL    HW221464   2.571   1.874   0.508
 3145SOL     OW21465   2.059   2.838   1.264
 3145SOL    HW121466   2.148   2.793   1.250
 3145SOL    HW221467   1.986   2.773   1.245
 3146SOL     OW21468   3.387   2.861   0.190
 3146SOL    HW121469   3.324   2.785   0.203
 3146SOL    HW221470   3.435   2.879   0.276
 3147SOL     OW21471   3.049   3.654   1.616
 3147SOL    HW121472   3.073   3.714   1.540
 3147SOL    HW221473   3.056   3.559   1.586
 3148SOL     OW21474   3.328   3.279   0.953
 3148SOL    HW121475   3.269   3.285   1.033
 3148SOL    HW221476   3.313   3.191   0.907
 3149SOL     OW21477   3.529   3.576   0.572
 3149SOL    HW121478   3.488   3.553   0.484
 3149SOL    HW221479   3.511   3.502   0.637
 3150SOL     OW21480   2.460   2.591   0.270
 3150SOL    HW121481   2.484   2.660   0.202
 3150SOL    HW221482   2.382   2.624   0.324
 3151SOL     OW21483   3.143   2.207   0.944
 3151SOL    HW121484   3.057   2.157   0.931
 3151SOL    HW221485   3.205   2.153   1.000
 3152SOL     OW21486   3.438   3.524   0.307
 3152SOL    HW121487   3.527   3.570   0.310
 3152SOL    HW221488   3.417   3.500   0.212
 3153SOL     OW21489   2.669   2.467   1.465
 3153SOL    HW121490   2.622   2.464   1.554
 3153SOL    HW221491   2.618   2.412   1.399
 3154SOL     OW21492   3.256   2.331   1.674
 3154SOL    HW121493   3.236   2.374   1.762
 3154SOL    HW221494   3.334   2.269   1.683
 3155SOL     OW21495   2.835   2.752   1.572
 3155SOL    HW121496   2.881   2.668   1.543
 3155SOL    HW221497   2.779   2.786   1.497
 3156SOL     OW21498   2.853   2.272   1.242
 3156SOL    HW121499   2.776   2.306   1.296
 3156SOL    HW221500   2.819   2.221   1.163
 3157SOL     OW21501   2.903   2.563   0.429
 3157SOL    HW121502   2.929   2.559   0.525
 3157SOL    HW221503   2.818   2.512   0.415
 3158SOL     OW21504   1.938   2.673   0.789
 3158SOL    HW121505   2.037   2.661   0.798
 3158SOL    HW221506   1.914   2.768   0.810
 3159SOL     OW21507   1.992   3.683   1.571
 3159SOL    HW121508   1.982   3.668   1.670
 3159SOL    HW221509   1.906   3.719   1.535
 3160SOL     OW21510   2.727   2.210   0.195
 3160SOL    HW121511   2.786   2.273   0.146
 3160SOL    HW221512   2.746   2.116   0.166
 3161SOL     OW21513   3.581   2.447   1.831
 3161SOL    HW121514   3.555   2.536   1.795
 3161SOL    HW221515   3.579   2.379   1.758
 3162SOL     OW21516   3.224   3.006   0.545
 3162SOL    HW121517   3.307   2.977   0.497
 3162SOL    HW221518   3.175   3.073   0.489
 3163SOL     OW21519   2.412   2.058   0.885
 3163SOL    HW121520   2.407   2.053   0.985
 3163SOL    HW221521   2.414   2.154   0.856
 3164SOL     OW21522   2.870   3.318   0.477
 3164SOL    HW121523   2.824   3.390   0.425
 3164SOL    HW221524   2.866   3.338   0.575
 3165SOL     OW21525   2.213   3.663   0.853
 3165SOL    HW121526   2.263   3.577   0.859
 3165SOL    HW221527   2.278   3.740   0.850
 3166SOL     OW21528   3.657   2.928   0.873
 3166SOL    HW121529   3.595   2.913   0.797
 3166SOL    HW221530   3.605   2.939   0.958
 3167SOL     OW21531   3.089   3.412   1.506
 3167SOL    HW121532   3.095   3.335   1.570
 3167SOL    HW221533   3.037   3.386   1.426
 3168SOL     OW21534   2.183   2.805   0.242
 3168SOL    HW121535   2.265   2.844   0.200
 3168SOL    HW221536   2.156   2.723   0.193
 3169SOL     OW21537   3.320   2.597   0.728
 3169SOL    HW121538   3.315   2.532   0.803
 3169SOL    HW221539   3.400   2.656   0.741
 3170SOL     OW21540   2.973   3.638   0.237
 3170SOL    HW121541   2.913   3.576   0.287
 3170SOL    HW221542   3.004   3.594   0.152
 3171SOL     OW21543   2.064   2.147   1.498
 3171SOL    HW121544   1.984   2.207   1.485
 3171SOL    HW221545   2.054   2.098   1.584
 3172SOL     OW21546   3.494   3.239   0.081
 3172SOL    HW121547   3.462   3.333   0.071
 3172SOL    HW221548   3.418   3.176   0.069
 3173SOL     OW21549   2.326   3.605   0.323
 3173SOL    HW121550   2.359   3.644   0.409
 3173SOL    HW221551   2.402   3.598   0.258
 3174SOL     OW21552   3.262   1.969   0.426
 3174SOL    HW121553   3.238   1.932   0.336
 3174SOL    HW221554   3.361   1.985   0.430
 3175SOL     OW21555   2.111   3.647   1.241
 3175SOL    HW121556   2.168   3.582   1.291
 3175SOL    HW221557   2.095   3.614   1.148
 3176SOL     OW21558   2.802   3.560   0.904
 3176SOL    HW121559   2.882   3.503   0.925
 3176SOL    HW221560   2.753   3.520   0.827
 3177SOL     OW21561   2.244   2.562   0.480
 3177SOL    HW121562   2.289   2.472   0.477
 3177SOL    HW221563   2.150   2.551   0.513
 3178SOL     OW21564   3.409   2.084   1.729
 3178SOL    HW121565   3.404   2.121   1.821
 3178SOL    HW221566   3.337   2.015   1.717
 3179SOL     OW21567   2.476   1.984   0.117
 3179SOL    HW121568   2.574   1.962   0.124
 3179SOL    HW221569   2.445   1.967   0.024
 3180SOL     OW21570   2.643   2.126   1.749
 3180SOL    HW121571   2.710   2.065   1.792
 3180SOL    HW221572   2.570   2.145   1.814
 3181SOL     OW21573   2.750   3.376   1.195
 3181SOL    HW121574   2.727   3.351   1.101
 3181SOL    HW221575   2.811   3.307   1.234
 3182SOL     OW21576   3.213   2.452   1.433
 3182SOL    HW121577   3.241   2.409   1.518
 3182SOL    HW221578   3.238   2.548   1.434
 3183SOL     OW21579   2.665   3.264   0.924
 3183SOL    HW121580   2.755   3.278   0.882
 3183SOL    HW221581   2.594   3.266   0.853
 3184SOL     OW21582   2.784   2.365   0.899
 3184SOL    HW121583   2.759   2.356   0.803
 3184SOL    HW221584   2.832   2.283   0.930
 3185SOL     OW21585   2.401   1.926   0.512
 3185SOL    HW121586   2.320   1.927   0.570
 3185SOL    HW221587   2.404   2.009   0.457
 3186SOL     OW21588   3.296   3.050   0.041
 3186SOL    HW121589   3.328   2.974   0.098
 3186SOL    HW221590   3.204   3.077   0.071
 3187SOL     OW21591   2.159   1.897   0.171
 3187SOL    HW121592   2.208   1.981   0.150
 3187SOL    HW221593   2.221   1.832   0.216
 3188SOL     OW21594   2.797   2.098   0.480
 3188SOL    HW121595   2.749   2.139   0.402
 3188SOL    HW221596   2.896   2.096   0.461
 3189SOL     OW21597   2.938   2.545   1.464
 3189SOL    HW121598   2.858   2.484   1.467
 3189SOL    HW221599   3.019   2.492   1.440
 3190SOL     OW21600   3.089   3.432   0.793
 3190SOL    HW121601   3.110   3.506   0.728
 3190SOL    HW221602   3.157   3.432   0.866
 3191SOL     OW21603   2.321   3.014   0.741
 3191SOL    HW121604   2.250   2.987   0.806
 3191SOL    HW221605   2.295   2.986   0.648
 3192SOL     OW21606   3.133   3.659   0.591
 3192SOL    HW121607   3.177   3.723   0.527
 3192SOL    HW221608   3.083   3.711   0.661
 3193SOL     OW21609   2.894   2.411   0.016
 3193SOL    HW121610   2.853   2.493  -0.023
 3193SOL    HW221611   2.958   2.437   0.089
 3194SOL     OW21612   1.940   2.418   1.386
 3194SOL    HW121613   2.032   2.417   1.345
 3194SOL    HW221614   1.934   2.492   1.453
 3195SOL     OW21615   2.423   2.084   1.147
 3195SOL    HW121616   2.461   2.000   1.184
 3195SOL    HW221617   2.335   2.103   1.191
 3196SOL     OW21618   2.728   2.316   0.642
 3196SOL    HW121619   2.696   2.388   0.580
 3196SOL    HW221620   2.752   2.235   0.589
 3197SOL     OW21621   2.879   1.901   0.753
 3197SOL    HW121622   2.807   1.906   0.684
 3197SOL    HW221623   2.855   1.832   0.822
 3198SOL     OW21624   3.291   3.035   0.867
 3198SOL    HW121625   3.236   2.951   0.860
 3198SOL    HW221626   3.317   3.064   0.775
 3199SOL     OW21627   3.328   2.452   0.992
 3199SOL    HW121628   3.298   2.357   0.999
 3199SOL    HW221629   3.401   2.468   1.058
 3200SOL     OW21630   3.719   2.695   0.377
 3200SOL    HW121631   3.761   2.631   0.441
 3200SOL    HW221632   3.681   2.644   0.299
 3201SOL     OW21633   2.350   3.247   0.174
 3201SOL    HW121634   2.263   3.232   0.221
 3201SOL    HW221635   2.333   3.273   0.079
 3202SOL     OW21636   3.526   3.142   0.657
 3202SOL    HW121637   3.625   3.150   0.671
 3202SOL    HW221638   3.481   3.226   0.688
 3203SOL     OW21639   3.252   2.437   0.078
 3203SOL    HW121640   3.198   2.416   0.159
 3203SOL    HW221641   3.343   2.396   0.087
 3204SOL     OW21642   2.389   2.118   0.328
 3204SOL    HW121643   2.416   2.059   0.253
 3204SOL    HW221644   2.389   2.213   0.297
 3205SOL     OW21645   3.616   3.085   1.588
 3205SOL    HW121646   3.707   3.046   1.575
 3205SOL    HW221647   3.624   3.181   1.612
 3206SOL     OW21648   2.926   3.209   1.340
 3206SOL    HW121649   2.846   3.186   1.395
 3206SOL    HW221650   3.009   3.183   1.389
 3207SOL     OW21651   3.454   3.491   1.625
 3207SOL    HW121652   3.481   3.525   1.535
 3207SOL    HW221653   3.533   3.453   1.671
 3208SOL     OW21654   2.973   3.057   1.100
 3208SOL    HW121655   2.933   3.101   1.181
 3208SOL    HW221656   2.932   3.094   1.017
 3209SOL     OW21657   3.500   2.961   1.079
 3209SOL    HW121658   3.505   3.042   1.138
 3209SOL    HW221659   3.414   2.963   1.028
 3210SOL     OW21660   2.777   1.951   1.402
 3210SOL    HW121661   2.802   1.931   1.307
 3210SOL    HW221662   2.849   2.007   1.444
 3211SOL     OW21663   2.567   2.912   0.368
 3211SOL    HW121664   2.553   2.919   0.467
 3211SOL    HW221665   2.651   2.861   0.350
 3212SOL     OW21666   2.272   2.675   1.251
 3212SOL    HW121667   2.358   2.687   1.301
 3212SOL    HW221668   2.230   2.588   1.278
 3213SOL     OW21669   3.136   2.248   1.262
 3213SOL    HW121670   3.157   2.322   1.326
 3213SOL    HW221671   3.047   2.265   1.219
 3214SOL     OW21672   1.926   3.426   1.331
 3214SOL    HW121673   1.880   3.508   1.297
 3214SOL    HW221674   2.024   3.445   1.340
 3215SOL     OW21675   2.229   2.962   0.501
 3215SOL    HW121676   2.222   3.045   0.445
 3215SOL    HW221677   2.233   2.882   0.441
 3216SOL     OW21678   2.428   2.399   0.865
 3216SOL    HW121679   2.440   2.465   0.791
 3216SOL    HW221680   2.474   2.433   0.948
 3217SOL     OW21681   3.114   3.210   0.388
 3217SOL    HW121682   3.164   3.287   0.428
 3217SOL    HW221683   3.019   3.212   0.420
 3218SOL     OW21684   3.134   3.307   1.142
 3218SOL    HW121685   3.181   3.320   1.229
 3218SOL    HW221686   3.068   3.233   1.151
 3219SOL     OW21687   3.444   2.501   0.472
 3219SOL    HW121688   3.413   2.562   0.545
 3219SOL    HW221689   3.494   2.553   0.403
 3220SOL     OW21690   2.264   2.613   1.598
 3220SOL    HW121691   2.332   2.668   1.551
 3220SOL    HW221692   2.304   2.525   1.625
 3221SOL     OW21693   3.449   2.641   1.670
 3221SOL    HW121694   3.357   2.679   1.665
 3221SOL    HW221695   3.509   2.688   1.605
 3222SOL     OW21696   2.875   1.967   1.770
 3222SOL    HW121697   2.881   2.052   1.718
 3222SOL    HW221698   2.907   1.891   1.713
 3223SOL     OW21699   2.435   2.732   1.029
 3223SOL    HW121700   2.479   2.821   1.020
 3223SOL    HW221701   2.372   2.732   1.106
 3224SOL     OW21702   3.222   2.724   1.045
 3224SOL    HW121703   3.147   2.724   0.979
 3224SOL    HW221704   3.259   2.632   1.054
 3225SOL     OW21705   3.071   2.387   0.275
 3225SOL    HW121706   3.084   2.303   0.329
 3225SOL    HW221707   3.042   2.461   0.335
 3226SOL     OW21708   2.169   2.075   1.231
 3226SOL    HW121709   2.146   2.112   1.321
 3226SOL    HW221710   2.139   1.980   1.225
 3227SOL     OW21711   1.899   3.172   1.282
 3227SOL    HW121712   1.952   3.123   1.350
 3227SOL    HW221713   1.921   3.270   1.287
 3228SOL     OW21714   2.594   2.496   1.064
 3228SOL    HW121715   2.653   2.470   0.988
 3228SOL    HW221716   2.566   2.592   1.053
 3229SOL     OW21717   3.590   2.797   1.854
 3229SOL    HW121718   3.544   2.790   1.765
 3229SOL    HW221719   3.528   2.841   1.920
 3230SOL     OW21720   2.169   1.925   0.618
 3230SOL    HW121721   2.158   2.019   0.651
 3230SOL    HW221722   2.164   1.862   0.695
 3231SOL     OW21723   3.484   2.229   0.374
 3231SOL    HW121724   3.486   2.153   0.438
 3231SOL    HW221725   3.436   2.306   0.414
 3232SOL     OW21726   2.885   2.628   0.966
 3232SOL    HW121727   2.900   2.649   1.062
 3232SOL    HW221728   2.855   2.533   0.957
 3233SOL     OW21729   2.842   3.435   1.700
 3233SOL    HW121730   2.822   3.479   1.612
 3233SOL    HW221731   2.881   3.344   1.684
 3234SOL     OW21732   3.721   3.380   1.605
 3234SOL    HW121733   3.735   3.407   1.510
 3234SOL    HW221734   3.804   3.402   1.658
 3235SOL     OW21735   2.212   2.760   1.804
 3235SOL    HW121736   2.288   2.804   1.852
 3235SOL    HW221737   2.247   2.713   1.722
 3236SOL     OW21738   3.402   2.136   0.125
 3236SOL    HW121739   3.341   2.061   0.148
 3236SOL    HW221740   3.424   2.188   0.208
 3237SOL     OW21741   3.165   2.700   0.042
 3237SOL    HW121742   3.199   2.607   0.057
 3237SOL    HW221743   3.183   2.727  -0.053
 3238SOL     OW21744   2.930   3.195   0.849
 3238SOL    HW121745   2.937   3.111   0.794
 3238SOL    HW221746   2.992   3.264   0.813
 3239SOL     OW21747   2.181   2.672   0.949
 3239SOL    HW121748   2.274   2.708   0.954
 3239SOL    HW221749   2.175   2.587   1.001
 3240SOL     OW21750   2.201   2.371   1.006
 3240SOL    HW121751   2.149   2.288   0.989
 3240SOL    HW221752   2.278   2.376   0.942
 3241SOL     OW21753   3.000   2.242   1.678
 3241SOL    HW121754   2.955   2.305   1.742
 3241SOL    HW221755   3.093   2.273   1.661
 3242SOL     OW21756   3.022   2.069   1.477
 3242SOL    HW121757   3.022   2.133   1.554
 3242SOL    HW221758   3.050   2.117   1.394
 3243SOL     OW21759   1.870   3.188   0.200
 3243SOL    HW121760   1.777   3.209   0.169
 3243SOL    HW221761   1.880   3.089   0.213
 3244SOL     OW21762   1.950   3.663   0.927
 3244SOL    HW121763   1.908   3.577   0.900
 3244SOL    HW221764   2.044   3.666   0.893
 3245SOL     OW21765   2.366   3.430   0.910
 3245SOL    HW121766   2.432   3.504   0.919
 3245SOL    HW221767   2.410   3.351   0.868
 3246SOL     OW21768   2.864   2.658   1.238
 3246SOL    HW121769   2.905   2.626   1.324
 3246SOL    HW221770   2.768   2.631   1.235
 3247SOL     OW21771   1.902   2.406   1.114
 3247SOL    HW121772   1.987   2.373   1.073
 3247SOL    HW221773   1.915   2.421   1.212
 3248SOL     OW21774   3.231   2.812   1.660
 3248SOL    HW121775   3.270   2.901   1.680
 3248SOL    HW221776   3.241   2.792   1.563
 3249SOL     OW21777   2.677   2.434   0.325
 3249SOL    HW121778   2.684   2.345   0.279
 3249SOL    HW221779   2.583   2.468   0.317
 3250SOL     OW21780   3.519   2.466   1.206
 3250SOL    HW121781   3.481   2.397   1.268
 3250SOL    HW221782   3.601   2.430   1.162
 3251SOL     OW21783   2.533   2.326   1.269
 3251SOL    HW121784   2.499   2.237   1.239
 3251SOL    HW221785   2.559   2.380   1.189
 3252SOL     OW21786   2.792   3.540   1.465
 3252SOL    HW121787   2.768   3.522   1.370
 3252SOL    HW221788   2.822   3.634   1.475
 3253SOL     OW21789   2.335   2.362   0.191
 3253SOL    HW121790   2.396   2.442   0.195
 3253SOL    HW221791   2.240   2.393   0.198
 3254SOL     OW21792   3.209   2.921   1.234
 3254SOL    HW121793   3.233   2.858   1.160
 3254SOL    HW221794   3.119   2.961   1.216
 3255SOL     OW21795   3.164   2.717   0.309
 3255SOL    HW121796   3.078   2.686   0.351
 3255SOL    HW221797   3.160   2.703   0.210
 3256SOL     OW21798   3.621   3.609   1.154
 3256SOL    HW121799   3.682   3.639   1.081
 3256SOL    HW221800   3.583   3.520   1.132
 3257SOL     OW21801   3.114   3.593   1.128
 3257SOL    HW121802   3.198   3.598   1.074
 3257SOL    HW221803   3.091   3.497   1.146
 3258SOL     OW21804   1.945   3.120   1.022
 3258SOL    HW121805   1.940   3.119   1.122
 3258SOL    HW221806   1.862   3.079   0.984
 3259SOL     OW21807   2.765   1.948   0.133
 3259SOL    HW121808   2.816   1.949   0.047
 3259SOL    HW221809   2.821   1.906   0.204
 3260SOL     OW21810   3.588   1.997   0.523
 3260SOL    HW121811   3.661   1.980   0.456
 3260SOL    HW221812   3.557   1.910   0.561
 3261SOL     OW21813   3.250   3.435   0.477
 3261SOL    HW121814   3.317   3.447   0.403
 3261SOL    HW221815   3.210   3.524   0.500
 3262SOL     OW21816   1.992   3.656   1.851
 3262SOL    HW121817   1.951   3.582   1.904
 3262SOL    HW221818   2.056   3.707   1.909
 3263SOL     OW21819   3.142   2.789   0.672
 3263SOL    HW121820   3.202   2.708   0.674
 3263SOL    HW221821   3.182   2.858   0.612
 3264SOL     OW21822   2.692   3.135   1.422
 3264SOL    HW121823   2.687   3.168   1.517
 3264SOL    HW221824   2.606   3.154   1.376
 3265SOL     OW21825   2.534   3.478   0.154
 3265SOL    HW121826   2.543   3.488   0.055
 3265SOL    HW221827   2.494   3.389   0.175
 3266SOL     OW21828   3.512   3.582   1.394
 3266SOL    HW121829   3.565   3.592   1.310
 3266SOL    HW221830   3.485   3.672   1.428
 3267SOL     OW21831   3.703   2.037   0.963
 3267SOL    HW121832   3.742   1.952   0.927
 3267SOL    HW221833   3.605   2.039   0.944
 3268SOL     OW21834   2.125   2.188   0.720
 3268SOL    HW121835   2.046   2.239   0.686
 3268SOL    HW221836   2.116   2.173   0.818
 3269SOL     OW21837   3.056   3.474   0.031
 3269SOL    HW121838   3.062   3.381   0.068
 3269SOL    HW221839   2.997   3.474  -0.049
 3270SOL     OW21840   2.684   2.864   1.372
 3270SOL    HW121841   2.724   2.863   1.280
 3270SOL    HW221842   2.694   2.956   1.412
 3271SOL     OW21843   2.778   2.772   0.291
 3271SOL    HW121844   2.841   2.810   0.223
 3271SOL    HW221845   2.818   2.689   0.330
 3272SOL     OW21846   3.366   3.469   0.044
 3272SOL    HW121847   3.274   3.506   0.051
 3272SOL    HW221848   3.404   3.489  -0.046
 3273SOL     OW21849   3.476   3.154   1.289
 3273SOL    HW121850   3.536   3.157   1.369
 3273SOL    HW221851   3.401   3.218   1.302
 3274SOL     OW21852   2.901   2.960   0.696
 3274SOL    HW121853   2.831   2.913   0.750
 3274SOL    HW221854   2.960   2.892   0.653
 3275SOL     OW21855   2.876   2.098   0.971
 3275SOL    HW121856   2.868   2.062   0.878
 3275SOL    HW221857   2.874   2.022   1.036
 3276SOL     OW21858   2.452   3.349   0.491
 3276SOL    HW121859   2.494   3.291   0.421
 3276SOL    HW221860   2.408   3.428   0.447
 3277SOL     OW21861   3.571   2.247   1.381
 3277SOL    HW121862   3.644   2.316   1.385
 3277SOL    HW221863   3.599   2.172   1.322
 3278SOL     OW21864   2.117   3.210   0.290
 3278SOL    HW121865   2.021   3.211   0.263
 3278SOL    HW221866   2.129   3.263   0.374
 3279SOL     OW21867   2.534   2.065   1.489
 3279SOL    HW121868   2.624   2.049   1.449
 3279SOL    HW221869   2.542   2.070   1.588
 3280SOL     OW21870   1.937   2.207   0.033
 3280SOL    HW121871   1.845   2.179   0.004
 3280SOL    HW221872   1.968   2.284  -0.023
 3281SOL     OW21873   3.302   2.718   1.398
 3281SOL    HW121874   3.245   2.770   1.335
 3281SOL    HW221875   3.398   2.730   1.374
 3282SOL     OW21876   1.934   2.028   0.318
 3282SOL    HW121877   1.917   2.111   0.264
 3282SOL    HW221878   2.024   1.991   0.296
 3283SOL     OW21879   3.045   3.197   0.119
 3283SOL    HW121880   2.946   3.186   0.121
 3283SOL    HW221881   3.079   3.212   0.212
 3284SOL     OW21882   2.475   2.704   1.431
 3284SOL    HW121883   2.531   2.785   1.414
 3284SOL    HW221884   2.534   2.624   1.434
 3285SOL     OW21885   3.355   3.629   0.959
 3285SOL    HW121886   3.388   3.693   0.890
 3285SOL    HW221887   3.421   3.623   1.034
 3286SOL     OW21888   2.578   2.427   1.708
 3286SOL    HW121889   2.597   2.492   1.782
 3286SOL    HW221890   2.638   2.347   1.717
 3287SOL     OW21891   3.312   3.082   1.633
 3287SOL    HW121892   3.303   3.072   1.732
 3287SOL    HW221893   3.408   3.075   1.607
 3288SOL     OW21894   3.536   2.745   1.254
 3288SOL    HW121895   3.509   2.656   1.217
 3288SOL    HW221896   3.537   2.813   1.181
 3289SOL     OW21897   3.087   2.187   0.449
 3289SOL    HW121898   3.152   2.113   0.438
 3289SOL    HW221899   3.107   2.237   0.533
 3290SOL     OW21900   2.456   2.607   0.652
 3290SOL    HW121901   2.506   2.692   0.633
 3290SOL    HW221902   2.368   2.609   0.604
 3291SOL     OW21903   3.639   2.204   1.642
 3291SOL    HW121904   3.622   2.235   1.548
 3291SOL    HW221905   3.555   2.167   1.680
 3292SOL     OW21906   3.592   2.796   1.517
 3292SOL    HW121907   3.630   2.887   1.532
 3292SOL    HW221908   3.584   2.779   1.418
 3293SOL     OW21909   2.721   3.236   0.016
 3293SOL    HW121910   2.675   3.251   0.104
 3293SOL    HW221911   2.765   3.321  -0.014
 3294SOL     OW21912   2.523   3.652   0.953
 3294SOL    HW121913   2.477   3.740   0.940
 3294SOL    HW221914   2.622   3.664   0.946
 3295SOL     OW21915   2.721   2.818   0.861
 3295SOL    HW121916   2.775   2.749   0.909
 3295SOL    HW221917   2.689   2.887   0.927
 3296SOL     OW21918   2.945   2.846   0.087
 3296SOL    HW121919   2.922   2.899   0.005
 3296SOL    HW221920   3.026   2.790   0.068
 3297SOL     OW21921   3.723   3.431   0.851
 3297SOL    HW121922   3.652   3.419   0.781
 3297SOL    HW221923   3.724   3.352   0.911
 3298SOL     OW21924   1.941   3.102   0.653
 3298SOL    HW121925   1.940   3.055   0.741
 3298SOL    HW221926   2.023   3.074   0.602
 3299SOL     OW21927   3.686   2.054   1.227
 3299SOL    HW121928   3.682   1.964   1.271
 3299SOL    HW221929   3.689   2.043   1.128
 3300SOL     OW21930   2.290   2.286   0.520
 3300SOL    HW121931   2.320   2.214   0.458
 3300SOL    HW221932   2.251   2.246   0.603
 3301SOL     OW21933   3.567   3.349   1.104
 3301SOL    HW121934   3.474   3.324   1.077
 3301SOL    HW221935   3.593   3.299   1.186
 3302SOL     OW21936   2.179   2.409   1.280
 3302SOL    HW121937   2.217   2.350   1.352
 3302SOL    HW221938   2.219   2.383   1.192
 3303SOL     OW21939   2.674   3.448   0.687
 3303SOL    HW121940   2.706   3.458   0.593
 3303SOL    HW221941   2.595   3.386   0.689
 3304SOL     OW21942   3.286   2.076   1.112
 3304SOL    HW121943   3.338   2.011   1.167
 3304SOL    HW221944   3.237   2.139   1.173
 3305SOL     OW21945   2.863   1.896   1.154
 3305SOL    HW121946   2.800   1.824   1.123
 3305SOL    HW221947   2.956   1.860   1.154
 3306SOL     OW21948   2.632   3.192   0.301
 3306SOL    HW121949   2.586   3.105   0.318
 3306SOL    HW221950   2.723   3.189   0.342
 3307SOL     OW21951   2.480   3.429   1.284
 3307SOL    HW121952   2.475   3.511   1.341
 3307SOL    HW221953   2.569   3.426   1.239
 3308SOL     OW21954   3.214   1.914   0.168
 3308SOL    HW121955   3.249   1.873   0.084
 3308SOL    HW221956   3.124   1.876   0.188
 3309SOL     OW21957   3.162   2.315   0.691
 3309SOL    HW121958   3.103   2.395   0.695
 3309SOL    HW221959   3.177   2.280   0.784
 3310SOL     OW21960   3.455   2.083   0.882
 3310SOL    HW121961   3.371   2.082   0.936
 3310SOL    HW221962   3.457   2.166   0.826
 3311SOL     OW21963   1.901   2.939   0.300
 3311SOL    HW121964   2.000   2.928   0.291
 3311SOL    HW221965   1.861   2.853   0.332
 3312SOL     OW21966   2.737   3.508   0.337
 3312SOL    HW121967   2.660   3.473   0.283
 3312SOL    HW221968   2.705   3.579   0.399
 3313SOL     OW21969   2.092   2.490   1.975
 3313SOL    HW121970   1.999   2.488   2.012
 3313SOL    HW221971   2.093   2.451   1.883
 3314SOL     OW21972   3.617   2.469   2.093
 3314SOL    HW121973   3.605   2.456   1.994
 3314SOL    HW221974   3.587   2.388   2.142
 3315SOL     OW21975   2.548   3.023   3.665
 3315SOL    HW121976   2.608   3.102   3.679
 3315SOL    HW221977   2.462   3.054   3.624
 3316SOL     OW21978   3.456   1.976   3.342
 3316SOL    HW121979   3.438   2.043   3.270
 3316SOL    HW221980   3.453   2.022   3.431
 3317SOL     OW21981   3.503   2.970   2.294
 3317SOL    HW121982   3.589   2.972   2.242
 3317SOL    HW221983   3.517   3.017   2.382
 3318SOL     OW21984   3.143   2.207   2.806
 3318SOL    HW121985   3.057   2.157   2.793
 3318SOL    HW221986   3.205   2.153   2.862
 3319SOL     OW21987   3.256   2.331   3.536
 3319SOL    HW121988   3.236   2.374   3.624
 3319SOL    HW221989   3.334   2.269   3.545
 3320SOL     OW21990   1.992   3.683   3.433
 3320SOL    HW121991   1.982   3.668   3.532
 3320SOL    HW221992   1.906   3.719   3.397
 3321SOL     OW21993   2.727   2.210   2.057
 3321SOL    HW121994   2.786   2.273   2.008
 3321SOL    HW221995   2.746   2.116   2.028
 3322SOL     OW21996   2.213   3.663   2.715
 3322SOL    HW121997   2.263   3.577   2.721
 3322SOL    HW221998   2.278   3.740   2.712
 3323SOL     OW21999   2.064   2.147   3.360
 3323SOL    HW122000   1.984   2.207   3.347
 3323SOL    HW222001   2.054   2.098   3.446
 3324SOL     OW22002   3.494   3.239   1.943
 3324SOL    HW122003   3.462   3.333   1.933
 3324SOL    HW222004   3.418   3.176   1.931
 3325SOL     OW22005   3.262   1.969   2.288
 3325SOL    HW122006   3.238   1.932   2.198
 3325SOL    HW222007   3.361   1.985   2.292
 3326SOL     OW22008   3.409   2.084   3.591
 3326SOL    HW122009   3.404   2.121   3.683
 3326SOL    HW222010   3.337   2.015   3.579
 3327SOL     OW22011   2.476   1.984   1.979
 3327SOL    HW122012   2.574   1.962   1.986
 3327SOL    HW222013   2.445   1.967   1.886
 3328SOL     OW22014   3.213   2.452   3.295
 3328SOL    HW122015   3.241   2.409   3.380
 3328SOL    HW222016   3.238   2.548   3.296
 3329SOL     OW22017   3.296   3.050   1.903
 3329SOL    HW122018   3.328   2.974   1.960
 3329SOL    HW222019   3.204   3.077   1.933
 3330SOL     OW22020   2.938   2.545   3.326
 3330SOL    HW122021   2.858   2.484   3.329
 3330SOL    HW222022   3.019   2.492   3.302
 3331SOL     OW22023   2.321   3.014   2.603
 3331SOL    HW122024   2.250   2.987   2.668
 3331SOL    HW222025   2.295   2.986   2.510
 3332SOL     OW22026   2.894   2.411   1.878
 3332SOL    HW122027   2.853   2.493   1.839
 3332SOL    HW222028   2.958   2.437   1.951
 3333SOL     OW22029   1.940   2.418   3.248
 3333SOL    HW122030   2.032   2.417   3.207
 3333SOL    HW222031   1.934   2.492   3.315
 3334SOL     OW22032   2.879   1.901   2.615
 3334SOL    HW122033   2.807   1.906   2.546
 3334SOL    HW222034   2.855   1.832   2.684
 3335SOL     OW22035   3.328   2.452   2.854
 3335SOL    HW122036   3.298   2.357   2.861
 3335SOL    HW222037   3.401   2.468   2.920
 3336SOL     OW22038   3.719   2.695   2.239
 3336SOL    HW122039   3.761   2.631   2.303
 3336SOL    HW222040   3.681   2.644   2.161
 3337SOL     OW22041   3.252   2.437   1.940
 3337SOL    HW122042   3.198   2.416   2.021
 3337SOL    HW222043   3.343   2.396   1.949
 3338SOL     OW22044   2.389   2.118   2.190
 3338SOL    HW122045   2.416   2.059   2.115
 3338SOL    HW222046   2.389   2.213   2.159
 3339SOL     OW22047   3.616   3.085   3.450
 3339SOL    HW122048   3.707   3.046   3.437
 3339SOL    HW222049   3.624   3.181   3.474
 3340SOL     OW22050   3.454   3.491   3.487
 3340SOL    HW122051   3.481   3.525   3.397
 3340SOL    HW222052   3.533   3.453   3.533
 3341SOL     OW22053   3.500   2.961   2.941
 3341SOL    HW122054   3.505   3.042   3.000
 3341SOL    HW222055   3.414   2.963   2.890
 3342SOL     OW22056   2.272   2.675   3.113
 3342SOL    HW122057   2.358   2.687   3.163
 3342SOL    HW222058   2.230   2.588   3.140
 3343SOL     OW22059   3.136   2.248   3.124
 3343SOL    HW122060   3.157   2.322   3.188
 3343SOL    HW222061   3.047   2.265   3.081
 3344SOL     OW22062   2.428   2.399   2.727
 3344SOL    HW122063   2.440   2.465   2.653
 3344SOL    HW222064   2.474   2.433   2.810
 3345SOL     OW22065   3.449   2.641   3.532
 3345SOL    HW122066   3.357   2.679   3.527
 3345SOL    HW222067   3.509   2.688   3.467
 3346SOL     OW22068   2.875   1.967   3.632
 3346SOL    HW122069   2.881   2.052   3.580
 3346SOL    HW222070   2.907   1.891   3.575
 3347SOL     OW22071   3.222   2.724   2.907
 3347SOL    HW122072   3.147   2.724   2.841
 3347SOL    HW222073   3.259   2.632   2.916
 3348SOL     OW22074   2.169   2.075   3.093
 3348SOL    HW122075   2.146   2.112   3.183
 3348SOL    HW222076   2.139   1.980   3.087
 3349SOL     OW22077   2.594   2.496   2.926
 3349SOL    HW122078   2.653   2.470   2.850
 3349SOL    HW222079   2.566   2.592   2.915
 3350SOL     OW22080   2.842   3.435   3.562
 3350SOL    HW122081   2.822   3.479   3.474
 3350SOL    HW222082   2.881   3.344   3.546
 3351SOL     OW22083   3.402   2.136   1.987
 3351SOL    HW122084   3.341   2.061   2.010
 3351SOL    HW222085   3.424   2.188   2.070
 3352SOL     OW22086   2.930   3.195   2.711
 3352SOL    HW122087   2.937   3.111   2.656
 3352SOL    HW222088   2.992   3.264   2.675
 3353SOL     OW22089   2.181   2.672   2.811
 3353SOL    HW122090   2.274   2.708   2.816
 3353SOL    HW222091   2.175   2.587   2.863
 3354SOL     OW22092   2.201   2.371   2.868
 3354SOL    HW122093   2.149   2.288   2.851
 3354SOL    HW222094   2.278   2.376   2.804
 3355SOL     OW22095   3.000   2.242   3.540
 3355SOL    HW122096   2.955   2.305   3.604
 3355SOL    HW222097   3.093   2.273   3.523
 3356SOL     OW22098   3.231   2.812   3.522
 3356SOL    HW122099   3.270   2.901   3.542
 3356SOL    HW222100   3.241   2.792   3.425
 3357SOL     OW22101   3.519   2.466   3.068
 3357SOL    HW122102   3.481   2.397   3.130
 3357SOL    HW222103   3.601   2.430   3.024
 3358SOL     OW22104   2.533   2.326   3.131
 3358SOL    HW122105   2.499   2.237   3.101
 3358SOL    HW222106   2.559   2.380   3.051
 3359SOL     OW22107   2.792   3.540   3.327
 3359SOL    HW122108   2.768   3.522   3.232
 3359SOL    HW222109   2.822   3.634   3.337
 3360SOL     OW22110   2.335   2.362   2.053
 3360SOL    HW122111   2.396   2.442   2.057
 3360SOL    HW222112   2.240   2.393   2.060
 3361SOL     OW22113   2.021   2.999   3.328
 3361SOL    HW122114   2.043   2.938   3.404
 3361SOL    HW222115   2.031   2.950   3.242
 3362SOL     OW22116   3.621   3.609   3.016
 3362SOL    HW122117   3.682   3.639   2.943
 3362SOL    HW222118   3.583   3.520   2.994
 3363SOL     OW22119   2.550   3.524   3.578
 3363SOL    HW122120   2.494   3.605   3.587
 3363SOL    HW222121   2.602   3.528   3.492
 3364SOL     OW22122   1.992   3.656   3.713
 3364SOL    HW122123   1.951   3.582   3.766
 3364SOL    HW222124   2.056   3.707   3.771
 3365SOL     OW22125   3.703   2.037   2.825
 3365SOL    HW122126   3.742   1.952   2.789
 3365SOL    HW222127   3.605   2.039   2.806
 3366SOL     OW22128   2.125   2.188   2.582
 3366SOL    HW122129   2.046   2.239   2.548
 3366SOL    HW222130   2.116   2.173   2.680
 3367SOL     OW22131   2.684   2.864   3.234
 3367SOL    HW122132   2.724   2.863   3.142
 3367SOL    HW222133   2.694   2.956   3.274
 3368SOL     OW22134   3.366   3.469   1.906
 3368SOL    HW122135   3.274   3.506   1.913
 3368SOL    HW222136   3.404   3.489   1.816
 3369SOL     OW22137   3.476   3.154   3.151
 3369SOL    HW122138   3.536   3.157   3.231
 3369SOL    HW222139   3.401   3.218   3.164
 3370SOL     OW22140   2.876   2.098   2.833
 3370SOL    HW122141   2.868   2.062   2.740
 3370SOL    HW222142   2.874   2.022   2.898
 3371SOL     OW22143   2.117   3.210   2.152
 3371SOL    HW122144   2.021   3.211   2.125
 3371SOL    HW222145   2.129   3.263   2.236
 3372SOL     OW22146   1.937   2.207   1.895
 3372SOL    HW122147   1.845   2.179   1.866
 3372SOL    HW222148   1.968   2.284   1.839
 3373SOL     OW22149   3.355   3.629   2.821
 3373SOL    HW122150   3.388   3.693   2.752
 3373SOL    HW222151   3.421   3.623   2.896
 3374SOL     OW22152   2.578   2.427   3.570
 3374SOL    HW122153   2.597   2.492   3.644
 3374SOL    HW222154   2.638   2.347   3.579
 3375SOL     OW22155   2.252   3.603   3.422
 3375SOL    HW122156   2.161   3.644   3.420
 3375SOL    HW222157   2.245   3.509   3.454
 3376SOL     OW22158   2.721   3.236   1.878
 3376SOL    HW122159   2.675   3.251   1.966
 3376SOL    HW222160   2.765   3.321   1.848
 3377SOL     OW22161   2.083   3.176   3.706
 3377SOL    HW122162   2.018   3.103   3.685
 3377SOL    HW222163   2.087   3.190   3.804
 3378SOL     OW22164   3.686   2.054   3.089
 3378SOL    HW122165   3.682   1.964   3.133
 3378SOL    HW222166   3.689   2.043   2.990
 3379SOL     OW22167   2.290   2.286   2.382
 3379SOL    HW122168   2.320   2.214   2.320
 3379SOL    HW222169   2.251   2.246   2.465
 3380SOL     OW22170   2.179   2.409   3.142
 3380SOL    HW122171   2.217   2.350   3.214
 3380SOL    HW222172   2.219   2.383   3.054
 3381SOL     OW22173   3.286   2.076   2.974
 3381SOL    HW122174   3.338   2.011   3.029
 3381SOL    HW222175   3.237   2.139   3.035
 3382SOL     OW22176   2.632   3.192   2.163
 3382SOL    HW122177   2.586   3.105   2.180
 3382SOL    HW222178   2.723   3.189   2.204
 3383SOL     OW22179   3.214   1.914   2.030
 3383SOL    HW122180   3.249   1.873   1.946
 3383SOL    HW222181   3.124   1.876   2.050
 3384SOL     OW22182   3.455   2.083   2.744
 3384SOL    HW122183   3.371   2.082   2.798
 3384SOL    HW222184   3.457   2.166   2.688
 3385SOL     OW22185   2.737   3.508   2.199
 3385SOL    HW122186   2.660   3.473   2.145
 3385SOL    HW222187   2.705   3.579   2.261
 3386SOL     OW22188   2.092   2.490   3.837
 3386SOL    HW122189   1.999   2.488   3.874
 3386SOL    HW222190   2.093   2.451   3.745
 3387SOL     OW22191   2.431   3.137   4.889
 3387SOL    HW122192   2.338   3.130   4.852
 3387SOL    HW222193   2.442   3.226   4.933
 3388SOL     OW22194   2.997   2.565   4.441
 3388SOL    HW122195   3.054   2.643   4.416
 3388SOL    HW222196   2.937   2.591   4.517
 3389SOL     OW22197   2.102   2.953   4.610
 3389SOL    HW122198   2.116   2.869   4.662
 3389SOL    HW222199   2.047   3.017   4.665
 3390SOL     OW22200   2.468   2.826   3.847
 3390SOL    HW122201   2.475   2.910   3.793
 3390SOL    HW222202   2.514   2.839   3.935
 3391SOL     OW22203   1.889   3.458   3.841
 3391SOL    HW122204   1.870   3.362   3.862
 3391SOL    HW222205   1.856   3.516   3.916
 3392SOL     OW22206   3.503   2.970   4.156
 3392SOL    HW122207   3.589   2.972   4.104
 3392SOL    HW222208   3.517   3.017   4.244
 3393SOL     OW22209   2.475   3.227   4.450
 3393SOL    HW122210   2.426   3.140   4.459
 3393SOL    HW222211   2.452   3.270   4.363
 3394SOL     OW22212   2.059   2.838   4.988
 3394SOL    HW122213   2.148   2.793   4.974
 3394SOL    HW222214   1.986   2.773   4.969
 3395SOL     OW22215   3.387   2.861   3.914
 3395SOL    HW122216   3.324   2.785   3.927
 3395SOL    HW222217   3.435   2.879   4.000
 3396SOL     OW22218   3.049   3.654   5.340
 3396SOL    HW122219   3.073   3.714   5.264
 3396SOL    HW222220   3.056   3.559   5.310
 3397SOL     OW22221   3.438   3.524   4.031
 3397SOL    HW122222   3.527   3.570   4.034
 3397SOL    HW222223   3.417   3.500   3.936
 3398SOL     OW22224   2.727   2.210   3.919
 3398SOL    HW122225   2.786   2.273   3.870
 3398SOL    HW222226   2.746   2.116   3.890
 3399SOL     OW22227   3.581   2.447   5.555
 3399SOL    HW122228   3.555   2.536   5.519
 3399SOL    HW222229   3.579   2.379   5.482
 3400SOL     OW22230   3.089   3.412   5.230
 3400SOL    HW122231   3.095   3.335   5.294
 3400SOL    HW222232   3.037   3.386   5.150
 3401SOL     OW22233   2.323   3.128   5.451
 3401SOL    HW122234   2.273   3.129   5.365
 3401SOL    HW222235   2.260   3.110   5.527
 3402SOL     OW22236   3.262   1.969   4.150
 3402SOL    HW122237   3.238   1.932   4.060
 3402SOL    HW222238   3.361   1.985   4.154
 3403SOL     OW22239   2.244   2.562   4.204
 3403SOL    HW122240   2.289   2.472   4.201
 3403SOL    HW222241   2.150   2.551   4.237
 3404SOL     OW22242   2.750   3.376   4.919
 3404SOL    HW122243   2.727   3.351   4.825
 3404SOL    HW222244   2.811   3.307   4.958
 3405SOL     OW22245   2.784   2.365   4.623
 3405SOL    HW122246   2.759   2.356   4.527
 3405SOL    HW222247   2.832   2.283   4.654
 3406SOL     OW22248   2.401   1.926   4.236
 3406SOL    HW122249   2.320   1.927   4.294
 3406SOL    HW222250   2.404   2.009   4.181
 3407SOL     OW22251   3.296   3.050   3.765
 3407SOL    HW122252   3.328   2.974   3.822
 3407SOL    HW222253   3.204   3.077   3.795
 3408SOL     OW22254   3.089   3.432   4.517
 3408SOL    HW122255   3.110   3.506   4.452
 3408SOL    HW222256   3.157   3.432   4.590
 3409SOL     OW22257   2.728   2.316   4.366
 3409SOL    HW122258   2.696   2.388   4.304
 3409SOL    HW222259   2.752   2.235   4.313
 3410SOL     OW22260   2.879   1.901   4.477
 3410SOL    HW122261   2.807   1.906   4.408
 3410SOL    HW222262   2.855   1.832   4.546
 3411SOL     OW22263   2.926   3.209   5.064
 3411SOL    HW122264   2.846   3.186   5.119
 3411SOL    HW222265   3.009   3.183   5.113
 3412SOL     OW22266   2.567   2.912   4.092
 3412SOL    HW122267   2.553   2.919   4.191
 3412SOL    HW222268   2.651   2.861   4.074
 3413SOL     OW22269   3.136   2.248   4.986
 3413SOL    HW122270   3.157   2.322   5.050
 3413SOL    HW222271   3.047   2.265   4.943
 3414SOL     OW22272   3.134   3.307   4.866
 3414SOL    HW122273   3.181   3.320   4.953
 3414SOL    HW222274   3.068   3.233   4.875
 3415SOL     OW22275   3.444   2.501   4.196
 3415SOL    HW122276   3.413   2.562   4.269
 3415SOL    HW222277   3.494   2.553   4.127
 3416SOL     OW22278   3.402   2.136   3.849
 3416SOL    HW122279   3.341   2.061   3.872
 3416SOL    HW222280   3.424   2.188   3.932
 3417SOL     OW22281   2.864   2.658   4.962
 3417SOL    HW122282   2.905   2.626   5.048
 3417SOL    HW222283   2.768   2.631   4.959
 3418SOL     OW22284   2.114   3.426   5.468
 3418SOL    HW122285   2.084   3.483   5.544
 3418SOL    HW222286   2.107   3.329   5.494
 3419SOL     OW22287   2.335   2.362   3.915
 3419SOL    HW122288   2.396   2.442   3.919
 3419SOL    HW222289   2.240   2.393   3.922
 3420SOL     OW22290   1.992   3.656   5.575
 3420SOL    HW122291   1.951   3.582   5.628
 3420SOL    HW222292   2.056   3.707   5.633
 3421SOL     OW22293   2.692   3.135   5.146
 3421SOL    HW122294   2.687   3.168   5.241
 3421SOL    HW222295   2.606   3.154   5.100
 3422SOL     OW22296   2.534   3.478   3.878
 3422SOL    HW122297   2.543   3.488   3.779
 3422SOL    HW222298   2.494   3.389   3.899
 3423SOL     OW22299   3.366   3.469   3.768
 3423SOL    HW122300   3.274   3.506   3.775
 3423SOL    HW222301   3.404   3.489   3.678
 3424SOL     OW22302   3.476   3.154   5.013
 3424SOL    HW122303   3.536   3.157   5.093
 3424SOL    HW222304   3.401   3.218   5.026
 3425SOL     OW22305   3.045   3.197   3.843
 3425SOL    HW122306   2.946   3.186   3.845
 3425SOL    HW222307   3.079   3.212   3.936
 3426SOL     OW22308   2.456   2.607   4.376
 3426SOL    HW122309   2.506   2.692   4.357
 3426SOL    HW222310   2.368   2.609   4.328
 3427SOL     OW22311   2.523   3.652   4.677
 3427SOL    HW122312   2.477   3.740   4.664
 3427SOL    HW222313   2.622   3.664   4.670
 3428SOL     OW22314   2.721   2.818   4.585
 3428SOL    HW122315   2.775   2.749   4.633
 3428SOL    HW222316   2.689   2.887   4.651
 3429SOL     OW22317   2.945   2.846   3.811
 3429SOL    HW122318   2.922   2.899   3.729
 3429SOL    HW222319   3.026   2.790   3.792
 3430SOL     OW22320   3.723   3.431   4.575
 3430SOL    HW122321   3.652   3.419   4.505
 3430SOL    HW222322   3.724   3.352   4.635
 3431SOL     OW22323   2.290   2.286   4.244
 3431SOL    HW122324   2.320   2.214   4.182
 3431SOL    HW222325   2.251   2.246   4.327
 3432SOL     OW22326   2.674   3.448   4.411
 3432SOL    HW122327   2.706   3.458   4.317
 3432SOL    HW222328   2.595   3.386   4.413
 3433SOL     OW22329   3.286   2.076   4.836
 3433SOL    HW122330   3.338   2.011   4.891
 3433SOL    HW222331   3.237   2.139   4.897
 3434SOL     OW22332   2.737   3.508   4.061
 3434SOL    HW122333   2.660   3.473   4.007
 3434SOL    HW222334   2.705   3.579   4.123
 3435SOL     OW22335   2.092   2.490   5.699
 3435SOL    HW122336   1.999   2.488   5.736
 3435SOL    HW222337   2.093   2.451   5.607
 3436SOL     OW22338   2.087   2.137   6.582
 3436SOL    HW122339   2.122   2.120   6.674
 3436SOL    HW222340   1.999   2.092   6.570
 3437SOL     OW22341   1.881   2.230   6.233
 3437SOL    HW122342   1.799   2.273   6.272
 3437SOL    HW222343   1.853   2.157   6.170
 3438SOL     OW22344   2.431   3.137   6.751
 3438SOL    HW122345   2.338   3.130   6.714
 3438SOL    HW222346   2.442   3.226   6.795
 3439SOL     OW22347   2.997   2.565   6.303
 3439SOL    HW122348   3.054   2.643   6.278
 3439SOL    HW222349   2.937   2.591   6.379
 3440SOL     OW22350   2.630   3.006   6.609
 3440SOL    HW122351   2.552   3.023   6.669
 3440SOL    HW222352   2.664   3.093   6.573
 3441SOL     OW22353   2.712   2.660   7.409
 3441SOL    HW122354   2.708   2.736   7.474
 3441SOL    HW222355   2.734   2.696   7.318
 3442SOL     OW22356   2.547   2.874   6.251
 3442SOL    HW122357   2.616   2.858   6.321
 3442SOL    HW222358   2.474   2.931   6.289
 3443SOL     OW22359   2.548   3.023   7.389
 3443SOL    HW122360   2.608   3.102   7.403
 3443SOL    HW222361   2.462   3.054   7.348
 3444SOL     OW22362   2.197   3.297   6.647
 3444SOL    HW122363   2.119   3.266   6.594
 3444SOL    HW222364   2.255   3.355   6.590
 3445SOL     OW22365   3.322   3.367   6.925
 3445SOL    HW122366   3.346   3.461   6.951
 3445SOL    HW222367   3.306   3.313   7.007
 3446SOL     OW22368   2.300   2.254   7.085
 3446SOL    HW122369   2.382   2.198   7.094
 3446SOL    HW222370   2.219   2.196   7.089
 3447SOL     OW22371   2.093   3.575   6.069
 3447SOL    HW122372   2.127   3.652   6.123
 3447SOL    HW222373   2.137   3.575   5.979
 3448SOL     OW22374   2.989   3.203   7.276
 3448SOL    HW122375   3.036   3.203   7.364
 3448SOL    HW222376   2.941   3.116   7.265
 3449SOL     OW22377   2.092   3.296   6.124
 3449SOL    HW122378   2.066   3.392   6.124
 3449SOL    HW222379   2.021   3.242   6.169
 3450SOL     OW22380   2.102   2.953   6.472
 3450SOL    HW122381   2.116   2.869   6.524
 3450SOL    HW222382   2.047   3.017   6.527
 3451SOL     OW22383   2.482   3.648   7.025
 3451SOL    HW122384   2.390   3.631   7.060
 3451SOL    HW222385   2.510   3.740   7.051
 3452SOL     OW22386   3.456   1.976   7.066
 3452SOL    HW122387   3.438   2.043   6.994
 3452SOL    HW222388   3.453   2.022   7.155
 3453SOL     OW22389   1.984   2.505   6.149
 3453SOL    HW122390   1.939   2.417   6.166
 3453SOL    HW222391   1.983   2.559   6.233
 3454SOL     OW22392   3.704   3.629   5.945
 3454SOL    HW122393   3.758   3.600   6.025
 3454SOL    HW222394   3.734   3.719   5.916
 3455SOL     OW22395   1.889   3.458   5.703
 3455SOL    HW122396   1.870   3.362   5.724
 3455SOL    HW222397   1.856   3.516   5.778
 3456SOL     OW22398   3.503   2.970   6.018
 3456SOL    HW122399   3.589   2.972   5.966
 3456SOL    HW222400   3.517   3.017   6.106
 3457SOL     OW22401   1.975   2.599   7.183
 3457SOL    HW122402   2.063   2.586   7.228
 3457SOL    HW222403   1.962   2.696   7.161
 3458SOL     OW22404   2.475   3.227   6.312
 3458SOL    HW122405   2.426   3.140   6.321
 3458SOL    HW222406   2.452   3.270   6.225
 3459SOL     OW22407   3.155   3.090   7.009
 3459SOL    HW122408   3.192   3.017   6.951
 3459SOL    HW222409   3.207   3.095   7.094
 3460SOL     OW22410   2.671   1.866   6.088
 3460SOL    HW122411   2.711   1.957   6.079
 3460SOL    HW222412   2.571   1.874   6.094
 3461SOL     OW22413   2.059   2.838   6.850
 3461SOL    HW122414   2.148   2.793   6.836
 3461SOL    HW222415   1.986   2.773   6.831
 3462SOL     OW22416   3.049   3.654   7.202
 3462SOL    HW122417   3.073   3.714   7.126
 3462SOL    HW222418   3.056   3.559   7.172
 3463SOL     OW22419   2.179   2.113   7.387
 3463SOL    HW122420   2.250   2.184   7.393
 3463SOL    HW222421   2.091   2.152   7.415
 3464SOL     OW22422   3.328   3.279   6.539
 3464SOL    HW122423   3.269   3.285   6.619
 3464SOL    HW222424   3.313   3.191   6.493
 3465SOL     OW22425   2.460   2.591   5.856
 3465SOL    HW122426   2.484   2.660   5.788
 3465SOL    HW222427   2.382   2.624   5.910
 3466SOL     OW22428   2.669   2.467   7.051
 3466SOL    HW122429   2.622   2.464   7.140
 3466SOL    HW222430   2.618   2.412   6.985
 3467SOL     OW22431   2.835   2.752   7.158
 3467SOL    HW122432   2.881   2.668   7.129
 3467SOL    HW222433   2.779   2.786   7.083
 3468SOL     OW22434   2.853   2.272   6.828
 3468SOL    HW122435   2.776   2.306   6.882
 3468SOL    HW222436   2.819   2.221   6.749
 3469SOL     OW22437   2.903   2.563   6.015
 3469SOL    HW122438   2.929   2.559   6.111
 3469SOL    HW222439   2.818   2.512   6.001
 3470SOL     OW22440   1.938   2.673   6.375
 3470SOL    HW122441   2.037   2.661   6.384
 3470SOL    HW222442   1.914   2.768   6.396
 3471SOL     OW22443   1.992   3.683   7.157
 3471SOL    HW122444   1.982   3.668   7.256
 3471SOL    HW222445   1.906   3.719   7.121
 3472SOL     OW22446   2.412   2.058   6.471
 3472SOL    HW122447   2.407   2.053   6.571
 3472SOL    HW222448   2.414   2.154   6.442
 3473SOL     OW22449   2.870   3.318   6.063
 3473SOL    HW122450   2.824   3.390   6.011
 3473SOL    HW222451   2.866   3.338   6.161
 3474SOL     OW22452   2.213   3.663   6.439
 3474SOL    HW122453   2.263   3.577   6.445
 3474SOL    HW222454   2.278   3.740   6.436
 3475SOL     OW22455   3.657   2.928   6.459
 3475SOL    HW122456   3.595   2.913   6.383
 3475SOL    HW222457   3.605   2.939   6.544
 3476SOL     OW22458   3.089   3.412   7.092
 3476SOL    HW122459   3.095   3.335   7.156
 3476SOL    HW222460   3.037   3.386   7.012
 3477SOL     OW22461   3.320   2.597   6.314
 3477SOL    HW122462   3.315   2.532   6.389
 3477SOL    HW222463   3.400   2.656   6.327
 3478SOL     OW22464   2.323   3.128   7.313
 3478SOL    HW122465   2.273   3.129   7.227
 3478SOL    HW222466   2.260   3.110   7.389
 3479SOL     OW22467   2.973   3.638   5.823
 3479SOL    HW122468   2.913   3.576   5.873
 3479SOL    HW222469   3.004   3.594   5.738
 3480SOL     OW22470   2.064   2.147   7.084
 3480SOL    HW122471   1.984   2.207   7.071
 3480SOL    HW222472   2.054   2.098   7.170
 3481SOL     OW22473   2.326   3.605   5.909
 3481SOL    HW122474   2.359   3.644   5.995
 3481SOL    HW222475   2.402   3.598   5.844
 3482SOL     OW22476   3.262   1.969   6.012
 3482SOL    HW122477   3.238   1.932   5.922
 3482SOL    HW222478   3.361   1.985   6.016
 3483SOL     OW22479   2.111   3.647   6.827
 3483SOL    HW122480   2.168   3.582   6.877
 3483SOL    HW222481   2.095   3.614   6.734
 3484SOL     OW22482   2.802   3.560   6.490
 3484SOL    HW122483   2.882   3.503   6.511
 3484SOL    HW222484   2.753   3.520   6.413
 3485SOL     OW22485   2.244   2.562   6.066
 3485SOL    HW122486   2.289   2.472   6.063
 3485SOL    HW222487   2.150   2.551   6.099
 3486SOL     OW22488   2.643   2.126   7.335
 3486SOL    HW122489   2.710   2.065   7.378
 3486SOL    HW222490   2.570   2.145   7.400
 3487SOL     OW22491   2.750   3.376   6.781
 3487SOL    HW122492   2.727   3.351   6.687
 3487SOL    HW222493   2.811   3.307   6.820
 3488SOL     OW22494   3.213   2.452   7.019
 3488SOL    HW122495   3.241   2.409   7.104
 3488SOL    HW222496   3.238   2.548   7.020
 3489SOL     OW22497   2.665   3.264   6.510
 3489SOL    HW122498   2.755   3.278   6.468
 3489SOL    HW222499   2.594   3.266   6.439
 3490SOL     OW22500   2.784   2.365   6.485
 3490SOL    HW122501   2.759   2.356   6.389
 3490SOL    HW222502   2.832   2.283   6.516
 3491SOL     OW22503   2.401   1.926   6.098
 3491SOL    HW122504   2.320   1.927   6.156
 3491SOL    HW222505   2.404   2.009   6.043
 3492SOL     OW22506   3.296   3.050   5.627
 3492SOL    HW122507   3.328   2.974   5.684
 3492SOL    HW222508   3.204   3.077   5.657
 3493SOL     OW22509   2.938   2.545   7.050
 3493SOL    HW122510   2.858   2.484   7.053
 3493SOL    HW222511   3.019   2.492   7.026
 3494SOL     OW22512   3.089   3.432   6.379
 3494SOL    HW122513   3.110   3.506   6.314
 3494SOL    HW222514   3.157   3.432   6.452
 3495SOL     OW22515   2.321   3.014   6.327
 3495SOL    HW122516   2.250   2.987   6.392
 3495SOL    HW222517   2.295   2.986   6.234
 3496SOL     OW22518   3.133   3.659   6.177
 3496SOL    HW122519   3.177   3.723   6.113
 3496SOL    HW222520   3.083   3.711   6.247
 3497SOL     OW22521   1.940   2.418   6.972
 3497SOL    HW122522   2.032   2.417   6.931
 3497SOL    HW222523   1.934   2.492   7.039
 3498SOL     OW22524   2.423   2.084   6.733
 3498SOL    HW122525   2.461   2.000   6.770
 3498SOL    HW222526   2.335   2.103   6.777
 3499SOL     OW22527   2.728   2.316   6.228
 3499SOL    HW122528   2.696   2.388   6.166
 3499SOL    HW222529   2.752   2.235   6.175
 3500SOL     OW22530   2.879   1.901   6.339
 3500SOL    HW122531   2.807   1.906   6.270
 3500SOL    HW222532   2.855   1.832   6.408
 3501SOL     OW22533   3.291   3.035   6.453
 3501SOL    HW122534   3.236   2.951   6.446
 3501SOL    HW222535   3.317   3.064   6.361
 3502SOL     OW22536   3.328   2.452   6.578
 3502SOL    HW122537   3.298   2.357   6.585
 3502SOL    HW222538   3.401   2.468   6.644
 3503SOL     OW22539   3.526   3.142   6.243
 3503SOL    HW122540   3.625   3.150   6.257
 3503SOL    HW222541   3.481   3.226   6.274
 3504SOL     OW22542   3.616   3.085   7.174
 3504SOL    HW122543   3.707   3.046   7.161
 3504SOL    HW222544   3.624   3.181   7.198
 3505SOL     OW22545   2.926   3.209   6.926
 3505SOL    HW122546   2.846   3.186   6.981
 3505SOL    HW222547   3.009   3.183   6.975
 3506SOL     OW22548   3.454   3.491   7.211
 3506SOL    HW122549   3.481   3.525   7.121
 3506SOL    HW222550   3.533   3.453   7.257
 3507SOL     OW22551   2.973   3.057   6.686
 3507SOL    HW122552   2.933   3.101   6.767
 3507SOL    HW222553   2.932   3.094   6.603
 3508SOL     OW22554   3.500   2.961   6.665
 3508SOL    HW122555   3.505   3.042   6.724
 3508SOL    HW222556   3.414   2.963   6.614
 3509SOL     OW22557   2.777   1.951   6.988
 3509SOL    HW122558   2.802   1.931   6.893
 3509SOL    HW222559   2.849   2.007   7.030
 3510SOL     OW22560   2.842   2.978   7.305
 3510SOL    HW122561   2.743   2.984   7.315
 3510SOL    HW222562   2.865   2.898   7.249
 3511SOL     OW22563   2.567   2.912   5.954
 3511SOL    HW122564   2.553   2.919   6.053
 3511SOL    HW222565   2.651   2.861   5.936
 3512SOL     OW22566   2.272   2.675   6.837
 3512SOL    HW122567   2.358   2.687   6.887
 3512SOL    HW222568   2.230   2.588   6.864
 3513SOL     OW22569   3.136   2.248   6.848
 3513SOL    HW122570   3.157   2.322   6.912
 3513SOL    HW222571   3.047   2.265   6.805
 3514SOL     OW22572   1.926   3.426   6.917
 3514SOL    HW122573   1.880   3.508   6.883
 3514SOL    HW222574   2.024   3.445   6.926
 3515SOL     OW22575   2.428   2.399   6.451
 3515SOL    HW122576   2.440   2.465   6.377
 3515SOL    HW222577   2.474   2.433   6.534
 3516SOL     OW22578   3.114   3.210   5.974
 3516SOL    HW122579   3.164   3.287   6.014
 3516SOL    HW222580   3.019   3.212   6.006
 3517SOL     OW22581   3.134   3.307   6.728
 3517SOL    HW122582   3.181   3.320   6.815
 3517SOL    HW222583   3.068   3.233   6.737
 3518SOL     OW22584   3.444   2.501   6.058
 3518SOL    HW122585   3.413   2.562   6.131
 3518SOL    HW222586   3.494   2.553   5.989
 3519SOL     OW22587   2.216   3.372   6.915
 3519SOL    HW122588   2.195   3.328   6.828
 3519SOL    HW222589   2.313   3.398   6.918
 3520SOL     OW22590   2.264   2.613   7.184
 3520SOL    HW122591   2.332   2.668   7.137
 3520SOL    HW222592   2.304   2.525   7.211
 3521SOL     OW22593   3.449   2.641   7.256
 3521SOL    HW122594   3.357   2.679   7.251
 3521SOL    HW222595   3.509   2.688   7.191
 3522SOL     OW22596   2.435   2.732   6.615
 3522SOL    HW122597   2.479   2.821   6.606
 3522SOL    HW222598   2.372   2.732   6.692
 3523SOL     OW22599   3.222   2.724   6.631
 3523SOL    HW122600   3.147   2.724   6.565
 3523SOL    HW222601   3.259   2.632   6.640
 3524SOL     OW22602   3.071   2.387   5.861
 3524SOL    HW122603   3.084   2.303   5.915
 3524SOL    HW222604   3.042   2.461   5.921
 3525SOL     OW22605   2.169   2.075   6.817
 3525SOL    HW122606   2.146   2.112   6.907
 3525SOL    HW222607   2.139   1.980   6.811
 3526SOL     OW22608   1.899   3.172   6.868
 3526SOL    HW122609   1.952   3.123   6.936
 3526SOL    HW222610   1.921   3.270   6.873
 3527SOL     OW22611   2.594   2.496   6.650
 3527SOL    HW122612   2.653   2.470   6.574
 3527SOL    HW222613   2.566   2.592   6.639
 3528SOL     OW22614   3.590   2.797   7.440
 3528SOL    HW122615   3.544   2.790   7.351
 3528SOL    HW222616   3.528   2.841   7.506
 3529SOL     OW22617   2.169   1.925   6.204
 3529SOL    HW122618   2.158   2.019   6.237
 3529SOL    HW222619   2.164   1.862   6.281
 3530SOL     OW22620   3.484   2.229   5.960
 3530SOL    HW122621   3.486   2.153   6.024
 3530SOL    HW222622   3.436   2.306   6.000
 3531SOL     OW22623   2.885   2.628   6.552
 3531SOL    HW122624   2.900   2.649   6.648
 3531SOL    HW222625   2.855   2.533   6.543
 3532SOL     OW22626   2.842   3.435   7.286
 3532SOL    HW122627   2.822   3.479   7.198
 3532SOL    HW222628   2.881   3.344   7.270
 3533SOL     OW22629   3.721   3.380   7.191
 3533SOL    HW122630   3.735   3.407   7.096
 3533SOL    HW222631   3.804   3.402   7.244
 3534SOL     OW22632   2.212   2.760   7.390
 3534SOL    HW122633   2.288   2.804   7.438
 3534SOL    HW222634   2.247   2.713   7.308
 3535SOL     OW22635   3.402   2.136   5.711
 3535SOL    HW122636   3.341   2.061   5.734
 3535SOL    HW222637   3.424   2.188   5.794
 3536SOL     OW22638   2.181   2.672   6.535
 3536SOL    HW122639   2.274   2.708   6.540
 3536SOL    HW222640   2.175   2.587   6.587
 3537SOL     OW22641   2.201   2.371   6.592
 3537SOL    HW122642   2.149   2.288   6.575
 3537SOL    HW222643   2.278   2.376   6.528
 3538SOL     OW22644   3.000   2.242   7.264
 3538SOL    HW122645   2.955   2.305   7.328
 3538SOL    HW222646   3.093   2.273   7.247
 3539SOL     OW22647   3.022   2.069   7.063
 3539SOL    HW122648   3.022   2.133   7.140
 3539SOL    HW222649   3.050   2.117   6.980
 3540SOL     OW22650   1.870   3.188   5.786
 3540SOL    HW122651   1.777   3.209   5.755
 3540SOL    HW222652   1.880   3.089   5.799
 3541SOL     OW22653   1.950   3.663   6.513
 3541SOL    HW122654   1.908   3.577   6.486
 3541SOL    HW222655   2.044   3.666   6.479
 3542SOL     OW22656   2.366   3.430   6.496
 3542SOL    HW122657   2.432   3.504   6.505
 3542SOL    HW222658   2.410   3.351   6.454
 3543SOL     OW22659   2.864   2.658   6.824
 3543SOL    HW122660   2.905   2.626   6.910
 3543SOL    HW222661   2.768   2.631   6.821
 3544SOL     OW22662   1.902   2.406   6.700
 3544SOL    HW122663   1.987   2.373   6.659
 3544SOL    HW222664   1.915   2.421   6.798
 3545SOL     OW22665   3.519   2.466   6.792
 3545SOL    HW122666   3.481   2.397   6.854
 3545SOL    HW222667   3.601   2.430   6.748
 3546SOL     OW22668   2.114   3.426   7.330
 3546SOL    HW122669   2.084   3.483   7.406
 3546SOL    HW222670   2.107   3.329   7.356
 3547SOL     OW22671   2.533   2.326   6.855
 3547SOL    HW122672   2.499   2.237   6.825
 3547SOL    HW222673   2.559   2.380   6.775
 3548SOL     OW22674   2.792   3.540   7.051
 3548SOL    HW122675   2.768   3.522   6.956
 3548SOL    HW222676   2.822   3.634   7.061
 3549SOL     OW22677   2.335   2.362   5.777
 3549SOL    HW122678   2.396   2.442   5.781
 3549SOL    HW222679   2.240   2.393   5.784
 3550SOL     OW22680   2.021   2.999   7.052
 3550SOL    HW122681   2.043   2.938   7.128
 3550SOL    HW222682   2.031   2.950   6.966
 3551SOL     OW22683   3.209   2.921   6.820
 3551SOL    HW122684   3.233   2.858   6.746
 3551SOL    HW222685   3.119   2.961   6.802
 3552SOL     OW22686   3.164   2.717   5.895
 3552SOL    HW122687   3.078   2.686   5.937
 3552SOL    HW222688   3.160   2.703   5.796
 3553SOL     OW22689   3.621   3.609   6.740
 3553SOL    HW122690   3.682   3.639   6.667
 3553SOL    HW222691   3.583   3.520   6.718
 3554SOL     OW22692   3.114   3.593   6.714
 3554SOL    HW122693   3.198   3.598   6.660
 3554SOL    HW222694   3.091   3.497   6.732
 3555SOL     OW22695   1.945   3.120   6.608
 3555SOL    HW122696   1.940   3.119   6.708
 3555SOL    HW222697   1.862   3.079   6.570
 3556SOL     OW22698   2.550   3.524   7.302
 3556SOL    HW122699   2.494   3.605   7.311
 3556SOL    HW222700   2.602   3.528   7.216
 3557SOL     OW22701   3.588   1.997   6.109
 3557SOL    HW122702   3.661   1.980   6.042
 3557SOL    HW222703   3.557   1.910   6.147
 3558SOL     OW22704   2.692   3.135   7.008
 3558SOL    HW122705   2.687   3.168   7.103
 3558SOL    HW222706   2.606   3.154   6.962
 3559SOL     OW22707   3.512   3.582   6.980
 3559SOL    HW122708   3.565   3.592   6.896
 3559SOL    HW222709   3.485   3.672   7.014
 3560SOL     OW22710   3.703   2.037   6.549
 3560SOL    HW122711   3.742   1.952   6.513
 3560SOL    HW222712   3.605   2.039   6.530
 3561SOL     OW22713   2.125   2.188   6.306
 3561SOL    HW122714   2.046   2.239   6.272
 3561SOL    HW222715   2.116   2.173   6.404
 3562SOL     OW22716   3.056   3.474   5.617
 3562SOL    HW122717   3.062   3.381   5.654
 3562SOL    HW222718   2.997   3.474   5.537
 3563SOL     OW22719   2.684   2.864   6.958
 3563SOL    HW122720   2.724   2.863   6.866
 3563SOL    HW222721   2.694   2.956   6.998
 3564SOL     OW22722   2.778   2.772   5.877
 3564SOL    HW122723   2.841   2.810   5.809
 3564SOL    HW222724   2.818   2.689   5.916
 3565SOL     OW22725   2.234   3.150   7.076
 3565SOL    HW122726   2.221   3.243   7.042
 3565SOL    HW222727   2.150   3.098   7.063
 3566SOL     OW22728   3.476   3.154   6.875
 3566SOL    HW122729   3.536   3.157   6.955
 3566SOL    HW222730   3.401   3.218   6.888
 3567SOL     OW22731   2.876   2.098   6.557
 3567SOL    HW122732   2.868   2.062   6.464
 3567SOL    HW222733   2.874   2.022   6.622
 3568SOL     OW22734   2.452   3.349   6.077
 3568SOL    HW122735   2.494   3.291   6.007
 3568SOL    HW222736   2.408   3.428   6.033
 3569SOL     OW22737   3.571   2.247   6.967
 3569SOL    HW122738   3.644   2.316   6.971
 3569SOL    HW222739   3.599   2.172   6.908
 3570SOL     OW22740   2.117   3.210   5.876
 3570SOL    HW122741   2.021   3.211   5.849
 3570SOL    HW222742   2.129   3.263   5.960
 3571SOL     OW22743   1.967   2.875   7.312
 3571SOL    HW122744   1.890   2.842   7.366
 3571SOL    HW222745   2.052   2.845   7.354
 3572SOL     OW22746   2.534   2.065   7.075
 3572SOL    HW122747   2.624   2.049   7.035
 3572SOL    HW222748   2.542   2.070   7.174
 3573SOL     OW22749   3.302   2.718   6.984
 3573SOL    HW122750   3.245   2.770   6.921
 3573SOL    HW222751   3.398   2.730   6.960
 3574SOL     OW22752   2.475   2.704   7.017
 3574SOL    HW122753   2.531   2.785   7.000
 3574SOL    HW222754   2.534   2.624   7.020
 3575SOL     OW22755   3.355   3.629   6.545
 3575SOL    HW122756   3.388   3.693   6.476
 3575SOL    HW222757   3.421   3.623   6.620
 3576SOL     OW22758   2.578   2.427   7.294
 3576SOL    HW122759   2.597   2.492   7.368
 3576SOL    HW222760   2.638   2.347   7.303
 3577SOL     OW22761   2.252   3.603   7.146
 3577SOL    HW122762   2.161   3.644   7.144
 3577SOL    HW222763   2.245   3.509   7.178
 3578SOL     OW22764   3.536   2.745   6.840
 3578SOL    HW122765   3.509   2.656   6.803
 3578SOL    HW222766   3.537   2.813   6.767
 3579SOL     OW22767   2.456   2.607   6.238
 3579SOL    HW122768   2.506   2.692   6.219
 3579SOL    HW222769   2.368   2.609   6.190
 3580SOL     OW22770   3.639   2.204   7.228
 3580SOL    HW122771   3.622   2.235   7.134
 3580SOL    HW222772   3.555   2.167   7.266
 3581SOL     OW22773   3.592   2.796   7.103
 3581SOL    HW122774   3.630   2.887   7.118
 3581SOL    HW222775   3.584   2.779   7.004
 3582SOL     OW22776   2.523   3.652   6.539
 3582SOL    HW122777   2.477   3.740   6.526
 3582SOL    HW222778   2.622   3.664   6.532
 3583SOL     OW22779   2.721   2.818   6.447
 3583SOL    HW122780   2.775   2.749   6.495
 3583SOL    HW222781   2.689   2.887   6.513
 3584SOL     OW22782   3.723   3.431   6.437
 3584SOL    HW122783   3.652   3.419   6.367
 3584SOL    HW222784   3.724   3.352   6.497
 3585SOL     OW22785   2.083   3.176   7.430
 3585SOL    HW122786   2.018   3.103   7.409
 3585SOL    HW222787   2.087   3.190   7.528
 3586SOL     OW22788   1.941   3.102   6.239
 3586SOL    HW122789   1.940   3.055   6.327
 3586SOL    HW222790   2.023   3.074   6.188
 3587SOL     OW22791   2.534   3.253   7.210
 3587SOL    HW122792   2.456   3.203   7.248
 3587SOL    HW222793   2.531   3.348   7.241
 3588SOL     OW22794   3.686   2.054   6.813
 3588SOL    HW122795   3.682   1.964   6.857
 3588SOL    HW222796   3.689   2.043   6.714
 3589SOL     OW22797   2.290   2.286   6.106
 3589SOL    HW122798   2.320   2.214   6.044
 3589SOL    HW222799   2.251   2.246   6.189
 3590SOL     OW22800   3.567   3.349   6.690
 3590SOL    HW122801   3.474   3.324   6.663
 3590SOL    HW222802   3.593   3.299   6.772
 3591SOL     OW22803   2.179   2.409   6.866
 3591SOL    HW122804   2.217   2.350   6.938
 3591SOL    HW222805   2.219   2.383   6.778
 3592SOL     OW22806   2.674   3.448   6.273
 3592SOL    HW122807   2.706   3.458   6.179
 3592SOL    HW222808   2.595   3.386   6.275
 3593SOL     OW22809   3.286   2.076   6.698
 3593SOL    HW122810   3.338   2.011   6.753
 3593SOL    HW222811   3.237   2.139   6.759
 3594SOL     OW22812   2.863   1.896   6.740
 3594SOL    HW122813   2.800   1.824   6.709
 3594SOL    HW222814   2.956   1.860   6.740
 3595SOL     OW22815   2.480   3.429   6.870
 3595SOL    HW122816   2.475   3.511   6.927
 3595SOL    HW222817   2.569   3.426   6.825
 3596SOL     OW22818   2.737   3.508   5.923
 3596SOL    HW122819   2.660   3.473   5.869
 3596SOL    HW222820   2.705   3.579   5.985
 3597SOL     OW22821   2.092   4.352   0.113
 3597SOL    HW122822   1.999   4.350   0.150
 3597SOL    HW222823   2.093   4.313   0.021
 3598SOL     OW22824   2.087   3.999   0.996
 3598SOL    HW122825   2.122   3.982   1.088
 3598SOL    HW222826   1.999   3.954   0.984
 3599SOL     OW22827   1.881   4.092   0.647
 3599SOL    HW122828   1.799   4.135   0.686
 3599SOL    HW222829   1.853   4.019   0.584
 3600SOL     OW22830   2.431   4.999   1.165
 3600SOL    HW122831   2.338   4.992   1.128
 3600SOL    HW222832   2.442   5.088   1.209
 3601SOL     OW22833   3.417   5.235   0.703
 3601SOL    HW122834   3.360   5.219   0.784
 3601SOL    HW222835   3.358   5.245   0.623
 3602SOL     OW22836   2.997   4.427   0.717
 3602SOL    HW122837   3.054   4.505   0.692
 3602SOL    HW222838   2.937   4.453   0.793
 3603SOL     OW22839   3.617   4.331   0.231
 3603SOL    HW122840   3.605   4.318   0.132
 3603SOL    HW222841   3.587   4.250   0.280
 3604SOL     OW22842   2.630   4.868   1.023
 3604SOL    HW122843   2.552   4.885   1.083
 3604SOL    HW222844   2.664   4.955   0.987
 3605SOL     OW22845   2.547   4.736   0.665
 3605SOL    HW122846   2.616   4.720   0.735
 3605SOL    HW222847   2.474   4.793   0.703
 3606SOL     OW22848   2.548   4.885   1.803
 3606SOL    HW122849   2.608   4.964   1.817
 3606SOL    HW222850   2.462   4.916   1.762
 3607SOL     OW22851   2.197   5.159   1.061
 3607SOL    HW122852   2.119   5.128   1.008
 3607SOL    HW222853   2.255   5.217   1.004
 3608SOL     OW22854   3.322   5.229   1.339
 3608SOL    HW122855   3.346   5.323   1.365
 3608SOL    HW222856   3.306   5.175   1.421
 3609SOL     OW22857   2.300   4.116   1.499
 3609SOL    HW122858   2.382   4.060   1.508
 3609SOL    HW222859   2.219   4.058   1.503
 3610SOL     OW22860   3.465   4.171   0.737
 3610SOL    HW122861   3.391   4.217   0.687
 3610SOL    HW222862   3.516   4.239   0.790
 3611SOL     OW22863   2.093   5.437   0.483
 3611SOL    HW122864   2.127   5.514   0.537
 3611SOL    HW222865   2.137   5.437   0.393
 3612SOL     OW22866   2.092   5.158   0.538
 3612SOL    HW122867   2.066   5.254   0.538
 3612SOL    HW222868   2.021   5.104   0.583
 3613SOL     OW22869   2.102   4.815   0.886
 3613SOL    HW122870   2.116   4.731   0.938
 3613SOL    HW222871   2.047   4.879   0.941
 3614SOL     OW22872   2.482   5.510   1.439
 3614SOL    HW122873   2.390   5.493   1.474
 3614SOL    HW222874   2.510   5.602   1.465
 3615SOL     OW22875   2.468   4.688   0.123
 3615SOL    HW122876   2.475   4.772   0.069
 3615SOL    HW222877   2.514   4.701   0.211
 3616SOL     OW22878   3.456   3.838   1.480
 3616SOL    HW122879   3.438   3.905   1.408
 3616SOL    HW222880   3.453   3.884   1.569
 3617SOL     OW22881   1.984   4.367   0.563
 3617SOL    HW122882   1.939   4.279   0.580
 3617SOL    HW222883   1.983   4.421   0.647
 3618SOL     OW22884   3.704   5.491   0.359
 3618SOL    HW122885   3.758   5.462   0.439
 3618SOL    HW222886   3.734   5.581   0.330
 3619SOL     OW22887   1.889   5.320   0.117
 3619SOL    HW122888   1.870   5.224   0.138
 3619SOL    HW222889   1.856   5.378   0.192
 3620SOL     OW22890   3.551   4.646   0.612
 3620SOL    HW122891   3.646   4.617   0.620
 3620SOL    HW222892   3.543   4.711   0.537
 3621SOL     OW22893   3.503   4.832   0.432
 3621SOL    HW122894   3.589   4.834   0.380
 3621SOL    HW222895   3.517   4.879   0.520
 3622SOL     OW22896   1.975   4.461   1.597
 3622SOL    HW122897   2.063   4.448   1.642
 3622SOL    HW222898   1.962   4.558   1.575
 3623SOL     OW22899   2.475   5.089   0.726
 3623SOL    HW122900   2.426   5.002   0.735
 3623SOL    HW222901   2.452   5.132   0.639
 3624SOL     OW22902   3.155   4.952   1.423
 3624SOL    HW122903   3.192   4.879   1.365
 3624SOL    HW222904   3.207   4.957   1.508
 3625SOL     OW22905   2.671   3.728   0.502
 3625SOL    HW122906   2.711   3.819   0.493
 3625SOL    HW222907   2.571   3.736   0.508
 3626SOL     OW22908   2.059   4.700   1.264
 3626SOL    HW122909   2.148   4.655   1.250
 3626SOL    HW222910   1.986   4.635   1.245
 3627SOL     OW22911   3.387   4.723   0.190
 3627SOL    HW122912   3.324   4.647   0.203
 3627SOL    HW222913   3.435   4.741   0.276
 3628SOL     OW22914   3.049   5.516   1.616
 3628SOL    HW122915   3.073   5.576   1.540
 3628SOL    HW222916   3.056   5.421   1.586
 3629SOL     OW22917   3.328   5.141   0.953
 3629SOL    HW122918   3.269   5.147   1.033
 3629SOL    HW222919   3.313   5.053   0.907
 3630SOL     OW22920   3.529   5.438   0.572
 3630SOL    HW122921   3.488   5.415   0.484
 3630SOL    HW222922   3.511   5.364   0.637
 3631SOL     OW22923   2.460   4.453   0.270
 3631SOL    HW122924   2.484   4.522   0.202
 3631SOL    HW222925   2.382   4.486   0.324
 3632SOL     OW22926   3.143   4.069   0.944
 3632SOL    HW122927   3.057   4.019   0.931
 3632SOL    HW222928   3.205   4.015   1.000
 3633SOL     OW22929   3.438   5.386   0.307
 3633SOL    HW122930   3.527   5.432   0.310
 3633SOL    HW222931   3.417   5.362   0.212
 3634SOL     OW22932   2.669   4.329   1.465
 3634SOL    HW122933   2.622   4.326   1.554
 3634SOL    HW222934   2.618   4.274   1.399
 3635SOL     OW22935   2.835   4.614   1.572
 3635SOL    HW122936   2.881   4.530   1.543
 3635SOL    HW222937   2.779   4.648   1.497
 3636SOL     OW22938   2.853   4.134   1.242
 3636SOL    HW122939   2.776   4.168   1.296
 3636SOL    HW222940   2.819   4.083   1.163
 3637SOL     OW22941   2.903   4.425   0.429
 3637SOL    HW122942   2.929   4.421   0.525
 3637SOL    HW222943   2.818   4.374   0.415
 3638SOL     OW22944   1.938   4.535   0.789
 3638SOL    HW122945   2.037   4.523   0.798
 3638SOL    HW222946   1.914   4.630   0.810
 3639SOL     OW22947   2.727   4.072   0.195
 3639SOL    HW122948   2.786   4.135   0.146
 3639SOL    HW222949   2.746   3.978   0.166
 3640SOL     OW22950   3.581   4.309   1.831
 3640SOL    HW122951   3.555   4.398   1.795
 3640SOL    HW222952   3.579   4.241   1.758
 3641SOL     OW22953   3.224   4.868   0.545
 3641SOL    HW122954   3.307   4.839   0.497
 3641SOL    HW222955   3.175   4.935   0.489
 3642SOL     OW22956   2.412   3.920   0.885
 3642SOL    HW122957   2.407   3.915   0.985
 3642SOL    HW222958   2.414   4.016   0.856
 3643SOL     OW22959   2.870   5.180   0.477
 3643SOL    HW122960   2.824   5.252   0.425
 3643SOL    HW222961   2.866   5.200   0.575
 3644SOL     OW22962   2.213   5.525   0.853
 3644SOL    HW122963   2.263   5.439   0.859
 3644SOL    HW222964   2.278   5.602   0.850
 3645SOL     OW22965   3.657   4.790   0.873
 3645SOL    HW122966   3.595   4.775   0.797
 3645SOL    HW222967   3.605   4.801   0.958
 3646SOL     OW22968   3.089   5.274   1.506
 3646SOL    HW122969   3.095   5.197   1.570
 3646SOL    HW222970   3.037   5.248   1.426
 3647SOL     OW22971   2.183   4.667   0.242
 3647SOL    HW122972   2.265   4.706   0.200
 3647SOL    HW222973   2.156   4.585   0.193
 3648SOL     OW22974   3.320   4.459   0.728
 3648SOL    HW122975   3.315   4.394   0.803
 3648SOL    HW222976   3.400   4.518   0.741
 3649SOL     OW22977   2.323   4.990   1.727
 3649SOL    HW122978   2.273   4.991   1.641
 3649SOL    HW222979   2.260   4.972   1.803
 3650SOL     OW22980   2.973   5.500   0.237
 3650SOL    HW122981   2.913   5.438   0.287
 3650SOL    HW222982   3.004   5.456   0.152
 3651SOL     OW22983   3.494   5.101   0.081
 3651SOL    HW122984   3.462   5.195   0.071
 3651SOL    HW222985   3.418   5.038   0.069
 3652SOL     OW22986   2.326   5.467   0.323
 3652SOL    HW122987   2.359   5.506   0.409
 3652SOL    HW222988   2.402   5.460   0.258
 3653SOL     OW22989   3.262   3.831   0.426
 3653SOL    HW122990   3.238   3.794   0.336
 3653SOL    HW222991   3.361   3.847   0.430
 3654SOL     OW22992   2.111   5.509   1.241
 3654SOL    HW122993   2.168   5.444   1.291
 3654SOL    HW222994   2.095   5.476   1.148
 3655SOL     OW22995   2.802   5.422   0.904
 3655SOL    HW122996   2.882   5.365   0.925
 3655SOL    HW222997   2.753   5.382   0.827
 3656SOL     OW22998   2.244   4.424   0.480
 3656SOL    HW122999   2.289   4.334   0.477
 3656SOL    HW223000   2.150   4.413   0.513
 3657SOL     OW23001   3.409   3.946   1.729
 3657SOL    HW123002   3.404   3.983   1.821
 3657SOL    HW223003   3.337   3.877   1.717
 3658SOL     OW23004   2.476   3.846   0.117
 3658SOL    HW123005   2.574   3.824   0.124
 3658SOL    HW223006   2.445   3.829   0.024
 3659SOL     OW23007   2.643   3.988   1.749
 3659SOL    HW123008   2.710   3.927   1.792
 3659SOL    HW223009   2.570   4.007   1.814
 3660SOL     OW23010   2.750   5.238   1.195
 3660SOL    HW123011   2.727   5.213   1.101
 3660SOL    HW223012   2.811   5.169   1.234
 3661SOL     OW23013   2.665   5.126   0.924
 3661SOL    HW123014   2.755   5.140   0.882
 3661SOL    HW223015   2.594   5.128   0.853
 3662SOL     OW23016   2.784   4.227   0.899
 3662SOL    HW123017   2.759   4.218   0.803
 3662SOL    HW223018   2.832   4.145   0.930
 3663SOL     OW23019   2.401   3.788   0.512
 3663SOL    HW123020   2.320   3.789   0.570
 3663SOL    HW223021   2.404   3.871   0.457
 3664SOL     OW23022   3.296   4.912   0.041
 3664SOL    HW123023   3.328   4.836   0.098
 3664SOL    HW223024   3.204   4.939   0.071
 3665SOL     OW23025   2.159   3.759   0.171
 3665SOL    HW123026   2.208   3.843   0.150
 3665SOL    HW223027   2.221   3.694   0.216
 3666SOL     OW23028   2.797   3.960   0.480
 3666SOL    HW123029   2.749   4.001   0.402
 3666SOL    HW223030   2.896   3.958   0.461
 3667SOL     OW23031   2.938   4.407   1.464
 3667SOL    HW123032   2.858   4.346   1.467
 3667SOL    HW223033   3.019   4.354   1.440
 3668SOL     OW23034   3.089   5.294   0.793
 3668SOL    HW123035   3.110   5.368   0.728
 3668SOL    HW223036   3.157   5.294   0.866
 3669SOL     OW23037   2.321   4.876   0.741
 3669SOL    HW123038   2.250   4.849   0.806
 3669SOL    HW223039   2.295   4.848   0.648
 3670SOL     OW23040   3.133   5.521   0.591
 3670SOL    HW123041   3.177   5.585   0.527
 3670SOL    HW223042   3.083   5.573   0.661
 3671SOL     OW23043   2.894   4.273   0.016
 3671SOL    HW123044   2.853   4.355  -0.023
 3671SOL    HW223045   2.958   4.299   0.089
 3672SOL     OW23046   1.940   4.280   1.386
 3672SOL    HW123047   2.032   4.279   1.345
 3672SOL    HW223048   1.934   4.354   1.453
 3673SOL     OW23049   2.423   3.946   1.147
 3673SOL    HW123050   2.461   3.862   1.184
 3673SOL    HW223051   2.335   3.965   1.191
 3674SOL     OW23052   2.728   4.178   0.642
 3674SOL    HW123053   2.696   4.250   0.580
 3674SOL    HW223054   2.752   4.097   0.589
 3675SOL     OW23055   2.879   3.763   0.753
 3675SOL    HW123056   2.807   3.768   0.684
 3675SOL    HW223057   2.855   3.694   0.822
 3676SOL     OW23058   3.291   4.897   0.867
 3676SOL    HW123059   3.236   4.813   0.860
 3676SOL    HW223060   3.317   4.926   0.775
 3677SOL     OW23061   3.328   4.314   0.992
 3677SOL    HW123062   3.298   4.219   0.999
 3677SOL    HW223063   3.401   4.330   1.058
 3678SOL     OW23064   3.719   4.557   0.377
 3678SOL    HW123065   3.761   4.493   0.441
 3678SOL    HW223066   3.681   4.506   0.299
 3679SOL     OW23067   2.350   5.109   0.174
 3679SOL    HW123068   2.263   5.094   0.221
 3679SOL    HW223069   2.333   5.135   0.079
 3680SOL     OW23070   3.526   5.004   0.657
 3680SOL    HW123071   3.625   5.012   0.671
 3680SOL    HW223072   3.481   5.088   0.688
 3681SOL     OW23073   3.252   4.299   0.078
 3681SOL    HW123074   3.198   4.278   0.159
 3681SOL    HW223075   3.343   4.258   0.087
 3682SOL     OW23076   2.389   3.980   0.328
 3682SOL    HW123077   2.416   3.921   0.253
 3682SOL    HW223078   2.389   4.075   0.297
 3683SOL     OW23079   3.616   4.947   1.588
 3683SOL    HW123080   3.707   4.908   1.575
 3683SOL    HW223081   3.624   5.043   1.612
 3684SOL     OW23082   2.926   5.071   1.340
 3684SOL    HW123083   2.846   5.048   1.395
 3684SOL    HW223084   3.009   5.045   1.389
 3685SOL     OW23085   3.454   5.353   1.625
 3685SOL    HW123086   3.481   5.387   1.535
 3685SOL    HW223087   3.533   5.315   1.671
 3686SOL     OW23088   2.973   4.919   1.100
 3686SOL    HW123089   2.933   4.963   1.181
 3686SOL    HW223090   2.932   4.956   1.017
 3687SOL     OW23091   3.500   4.823   1.079
 3687SOL    HW123092   3.505   4.904   1.138
 3687SOL    HW223093   3.414   4.825   1.028
 3688SOL     OW23094   2.777   3.813   1.402
 3688SOL    HW123095   2.802   3.793   1.307
 3688SOL    HW223096   2.849   3.869   1.444
 3689SOL     OW23097   2.842   4.840   1.719
 3689SOL    HW123098   2.743   4.846   1.729
 3689SOL    HW223099   2.865   4.760   1.663
 3690SOL     OW23100   2.567   4.774   0.368
 3690SOL    HW123101   2.553   4.781   0.467
 3690SOL    HW223102   2.651   4.723   0.350
 3691SOL     OW23103   2.272   4.537   1.251
 3691SOL    HW123104   2.358   4.549   1.301
 3691SOL    HW223105   2.230   4.450   1.278
 3692SOL     OW23106   3.136   4.110   1.262
 3692SOL    HW123107   3.157   4.184   1.326
 3692SOL    HW223108   3.047   4.127   1.219
 3693SOL     OW23109   1.926   5.288   1.331
 3693SOL    HW123110   1.880   5.370   1.297
 3693SOL    HW223111   2.024   5.307   1.340
 3694SOL     OW23112   2.229   4.824   0.501
 3694SOL    HW123113   2.222   4.907   0.445
 3694SOL    HW223114   2.233   4.744   0.441
 3695SOL     OW23115   2.428   4.261   0.865
 3695SOL    HW123116   2.440   4.327   0.791
 3695SOL    HW223117   2.474   4.295   0.948
 3696SOL     OW23118   3.114   5.072   0.388
 3696SOL    HW123119   3.164   5.149   0.428
 3696SOL    HW223120   3.019   5.074   0.420
 3697SOL     OW23121   3.134   5.169   1.142
 3697SOL    HW123122   3.181   5.182   1.229
 3697SOL    HW223123   3.068   5.095   1.151
 3698SOL     OW23124   3.444   4.363   0.472
 3698SOL    HW123125   3.413   4.424   0.545
 3698SOL    HW223126   3.494   4.415   0.403
 3699SOL     OW23127   2.216   5.234   1.329
 3699SOL    HW123128   2.195   5.190   1.242
 3699SOL    HW223129   2.313   5.260   1.332
 3700SOL     OW23130   2.264   4.475   1.598
 3700SOL    HW123131   2.332   4.530   1.551
 3700SOL    HW223132   2.304   4.387   1.625
 3701SOL     OW23133   2.875   3.829   1.770
 3701SOL    HW123134   2.881   3.914   1.718
 3701SOL    HW223135   2.907   3.753   1.713
 3702SOL     OW23136   2.435   4.594   1.029
 3702SOL    HW123137   2.479   4.683   1.020
 3702SOL    HW223138   2.372   4.594   1.106
 3703SOL     OW23139   3.222   4.586   1.045
 3703SOL    HW123140   3.147   4.586   0.979
 3703SOL    HW223141   3.259   4.494   1.054
 3704SOL     OW23142   3.071   4.249   0.275
 3704SOL    HW123143   3.084   4.165   0.329
 3704SOL    HW223144   3.042   4.323   0.335
 3705SOL     OW23145   2.169   3.937   1.231
 3705SOL    HW123146   2.146   3.974   1.321
 3705SOL    HW223147   2.139   3.842   1.225
 3706SOL     OW23148   1.899   5.034   1.282
 3706SOL    HW123149   1.952   4.985   1.350
 3706SOL    HW223150   1.921   5.132   1.287
 3707SOL     OW23151   2.594   4.358   1.064
 3707SOL    HW123152   2.653   4.332   0.988
 3707SOL    HW223153   2.566   4.454   1.053
 3708SOL     OW23154   3.590   4.659   1.854
 3708SOL    HW123155   3.544   4.652   1.765
 3708SOL    HW223156   3.528   4.703   1.920
 3709SOL     OW23157   2.169   3.787   0.618
 3709SOL    HW123158   2.158   3.881   0.651
 3709SOL    HW223159   2.164   3.724   0.695
 3710SOL     OW23160   3.484   4.091   0.374
 3710SOL    HW123161   3.486   4.015   0.438
 3710SOL    HW223162   3.436   4.168   0.414
 3711SOL     OW23163   2.885   4.490   0.966
 3711SOL    HW123164   2.900   4.511   1.062
 3711SOL    HW223165   2.855   4.395   0.957
 3712SOL     OW23166   2.842   5.297   1.700
 3712SOL    HW123167   2.822   5.341   1.612
 3712SOL    HW223168   2.881   5.206   1.684
 3713SOL     OW23169   3.721   5.242   1.605
 3713SOL    HW123170   3.735   5.269   1.510
 3713SOL    HW223171   3.804   5.264   1.658
 3714SOL     OW23172   3.402   3.998   0.125
 3714SOL    HW123173   3.341   3.923   0.148
 3714SOL    HW223174   3.424   4.050   0.208
 3715SOL     OW23175   3.165   4.562   0.042
 3715SOL    HW123176   3.199   4.469   0.057
 3715SOL    HW223177   3.183   4.589  -0.053
 3716SOL     OW23178   2.930   5.057   0.849
 3716SOL    HW123179   2.937   4.973   0.794
 3716SOL    HW223180   2.992   5.126   0.813
 3717SOL     OW23181   2.181   4.534   0.949
 3717SOL    HW123182   2.274   4.570   0.954
 3717SOL    HW223183   2.175   4.449   1.001
 3718SOL     OW23184   2.201   4.233   1.006
 3718SOL    HW123185   2.149   4.150   0.989
 3718SOL    HW223186   2.278   4.238   0.942
 3719SOL     OW23187   3.022   3.931   1.477
 3719SOL    HW123188   3.022   3.995   1.554
 3719SOL    HW223189   3.050   3.979   1.394
 3720SOL     OW23190   1.870   5.050   0.200
 3720SOL    HW123191   1.777   5.071   0.169
 3720SOL    HW223192   1.880   4.951   0.213
 3721SOL     OW23193   1.950   5.525   0.927
 3721SOL    HW123194   1.908   5.439   0.900
 3721SOL    HW223195   2.044   5.528   0.893
 3722SOL     OW23196   2.366   5.292   0.910
 3722SOL    HW123197   2.432   5.366   0.919
 3722SOL    HW223198   2.410   5.213   0.868
 3723SOL     OW23199   2.864   4.520   1.238
 3723SOL    HW123200   2.905   4.488   1.324
 3723SOL    HW223201   2.768   4.493   1.235
 3724SOL     OW23202   1.902   4.268   1.114
 3724SOL    HW123203   1.987   4.235   1.073
 3724SOL    HW223204   1.915   4.283   1.212
 3725SOL     OW23205   2.051   4.244   1.722
 3725SOL    HW123206   2.110   4.204   1.652
 3725SOL    HW223207   1.993   4.315   1.681
 3726SOL     OW23208   3.231   4.674   1.660
 3726SOL    HW123209   3.270   4.763   1.680
 3726SOL    HW223210   3.241   4.654   1.563
 3727SOL     OW23211   2.677   4.296   0.325
 3727SOL    HW123212   2.684   4.207   0.279
 3727SOL    HW223213   2.583   4.330   0.317
 3728SOL     OW23214   3.519   4.328   1.206
 3728SOL    HW123215   3.481   4.259   1.268
 3728SOL    HW223216   3.601   4.292   1.162
 3729SOL     OW23217   2.114   5.288   1.744
 3729SOL    HW123218   2.084   5.345   1.820
 3729SOL    HW223219   2.107   5.191   1.770
 3730SOL     OW23220   2.533   4.188   1.269
 3730SOL    HW123221   2.499   4.099   1.239
 3730SOL    HW223222   2.559   4.242   1.189
 3731SOL     OW23223   2.792   5.402   1.465
 3731SOL    HW123224   2.768   5.384   1.370
 3731SOL    HW223225   2.822   5.496   1.475
 3732SOL     OW23226   2.335   4.224   0.191
 3732SOL    HW123227   2.396   4.304   0.195
 3732SOL    HW223228   2.240   4.255   0.198
 3733SOL     OW23229   2.021   4.861   1.466
 3733SOL    HW123230   2.043   4.800   1.542
 3733SOL    HW223231   2.031   4.812   1.380
 3734SOL     OW23232   3.209   4.783   1.234
 3734SOL    HW123233   3.233   4.720   1.160
 3734SOL    HW223234   3.119   4.823   1.216
 3735SOL     OW23235   3.164   4.579   0.309
 3735SOL    HW123236   3.078   4.548   0.351
 3735SOL    HW223237   3.160   4.565   0.210
 3736SOL     OW23238   3.621   5.471   1.154
 3736SOL    HW123239   3.682   5.501   1.081
 3736SOL    HW223240   3.583   5.382   1.132
 3737SOL     OW23241   3.114   5.455   1.128
 3737SOL    HW123242   3.198   5.460   1.074
 3737SOL    HW223243   3.091   5.359   1.146
 3738SOL     OW23244   1.945   4.982   1.022
 3738SOL    HW123245   1.940   4.981   1.122
 3738SOL    HW223246   1.862   4.941   0.984
 3739SOL     OW23247   2.765   3.810   0.133
 3739SOL    HW123248   2.816   3.811   0.047
 3739SOL    HW223249   2.821   3.768   0.204
 3740SOL     OW23250   3.588   3.859   0.523
 3740SOL    HW123251   3.661   3.842   0.456
 3740SOL    HW223252   3.557   3.772   0.561
 3741SOL     OW23253   3.250   5.297   0.477
 3741SOL    HW123254   3.317   5.309   0.403
 3741SOL    HW223255   3.210   5.386   0.500
 3742SOL     OW23256   3.142   4.651   0.672
 3742SOL    HW123257   3.202   4.570   0.674
 3742SOL    HW223258   3.182   4.720   0.612
 3743SOL     OW23259   2.692   4.997   1.422
 3743SOL    HW123260   2.687   5.030   1.517
 3743SOL    HW223261   2.606   5.016   1.376
 3744SOL     OW23262   2.534   5.340   0.154
 3744SOL    HW123263   2.543   5.350   0.055
 3744SOL    HW223264   2.494   5.251   0.175
 3745SOL     OW23265   3.512   5.444   1.394
 3745SOL    HW123266   3.565   5.454   1.310
 3745SOL    HW223267   3.485   5.534   1.428
 3746SOL     OW23268   3.703   3.899   0.963
 3746SOL    HW123269   3.742   3.814   0.927
 3746SOL    HW223270   3.605   3.901   0.944
 3747SOL     OW23271   2.125   4.050   0.720
 3747SOL    HW123272   2.046   4.101   0.686
 3747SOL    HW223273   2.116   4.035   0.818
 3748SOL     OW23274   3.056   5.336   0.031
 3748SOL    HW123275   3.062   5.243   0.068
 3748SOL    HW223276   2.997   5.336  -0.049
 3749SOL     OW23277   2.684   4.726   1.372
 3749SOL    HW123278   2.724   4.725   1.280
 3749SOL    HW223279   2.694   4.818   1.412
 3750SOL     OW23280   2.778   4.634   0.291
 3750SOL    HW123281   2.841   4.672   0.223
 3750SOL    HW223282   2.818   4.551   0.330
 3751SOL     OW23283   3.366   5.331   0.044
 3751SOL    HW123284   3.274   5.368   0.051
 3751SOL    HW223285   3.404   5.351  -0.046
 3752SOL     OW23286   2.234   5.012   1.490
 3752SOL    HW123287   2.221   5.105   1.456
 3752SOL    HW223288   2.150   4.960   1.477
 3753SOL     OW23289   3.476   5.016   1.289
 3753SOL    HW123290   3.536   5.019   1.369
 3753SOL    HW223291   3.401   5.080   1.302
 3754SOL     OW23292   2.901   4.822   0.696
 3754SOL    HW123293   2.831   4.775   0.750
 3754SOL    HW223294   2.960   4.754   0.653
 3755SOL     OW23295   2.876   3.960   0.971
 3755SOL    HW123296   2.868   3.924   0.878
 3755SOL    HW223297   2.874   3.884   1.036
 3756SOL     OW23298   2.452   5.211   0.491
 3756SOL    HW123299   2.494   5.153   0.421
 3756SOL    HW223300   2.408   5.290   0.447
 3757SOL     OW23301   3.571   4.109   1.381
 3757SOL    HW123302   3.644   4.178   1.385
 3757SOL    HW223303   3.599   4.034   1.322
 3758SOL     OW23304   2.117   5.072   0.290
 3758SOL    HW123305   2.021   5.073   0.263
 3758SOL    HW223306   2.129   5.125   0.374
 3759SOL     OW23307   1.967   4.737   1.726
 3759SOL    HW123308   1.890   4.704   1.780
 3759SOL    HW223309   2.052   4.707   1.768
 3760SOL     OW23310   2.534   3.927   1.489
 3760SOL    HW123311   2.624   3.911   1.449
 3760SOL    HW223312   2.542   3.932   1.588
 3761SOL     OW23313   1.937   4.069   0.033
 3761SOL    HW123314   1.845   4.041   0.004
 3761SOL    HW223315   1.968   4.146  -0.023
 3762SOL     OW23316   3.302   4.580   1.398
 3762SOL    HW123317   3.245   4.632   1.335
 3762SOL    HW223318   3.398   4.592   1.374
 3763SOL     OW23319   1.934   3.890   0.318
 3763SOL    HW123320   1.917   3.973   0.264
 3763SOL    HW223321   2.024   3.853   0.296
 3764SOL     OW23322   3.045   5.059   0.119
 3764SOL    HW123323   2.946   5.048   0.121
 3764SOL    HW223324   3.079   5.074   0.212
 3765SOL     OW23325   2.475   4.566   1.431
 3765SOL    HW123326   2.531   4.647   1.414
 3765SOL    HW223327   2.534   4.486   1.434
 3766SOL     OW23328   3.355   5.491   0.959
 3766SOL    HW123329   3.388   5.555   0.890
 3766SOL    HW223330   3.421   5.485   1.034
 3767SOL     OW23331   2.578   4.289   1.708
 3767SOL    HW123332   2.597   4.354   1.782
 3767SOL    HW223333   2.638   4.209   1.717
 3768SOL     OW23334   3.312   4.944   1.633
 3768SOL    HW123335   3.303   4.934   1.732
 3768SOL    HW223336   3.408   4.937   1.607
 3769SOL     OW23337   2.252   5.465   1.560
 3769SOL    HW123338   2.161   5.506   1.558
 3769SOL    HW223339   2.245   5.371   1.592
 3770SOL     OW23340   3.536   4.607   1.254
 3770SOL    HW123341   3.509   4.518   1.217
 3770SOL    HW223342   3.537   4.675   1.181
 3771SOL     OW23343   3.087   4.049   0.449
 3771SOL    HW123344   3.152   3.975   0.438
 3771SOL    HW223345   3.107   4.099   0.533
 3772SOL     OW23346   2.456   4.469   0.652
 3772SOL    HW123347   2.506   4.554   0.633
 3772SOL    HW223348   2.368   4.471   0.604
 3773SOL     OW23349   3.639   4.066   1.642
 3773SOL    HW123350   3.622   4.097   1.548
 3773SOL    HW223351   3.555   4.029   1.680
 3774SOL     OW23352   3.592   4.658   1.517
 3774SOL    HW123353   3.630   4.749   1.532
 3774SOL    HW223354   3.584   4.641   1.418
 3775SOL     OW23355   2.721   5.098   0.016
 3775SOL    HW123356   2.675   5.113   0.104
 3775SOL    HW223357   2.765   5.183  -0.014
 3776SOL     OW23358   2.523   5.514   0.953
 3776SOL    HW123359   2.477   5.602   0.940
 3776SOL    HW223360   2.622   5.526   0.946
 3777SOL     OW23361   2.721   4.680   0.861
 3777SOL    HW123362   2.775   4.611   0.909
 3777SOL    HW223363   2.689   4.749   0.927
 3778SOL     OW23364   2.945   4.708   0.087
 3778SOL    HW123365   2.922   4.761   0.005
 3778SOL    HW223366   3.026   4.652   0.068
 3779SOL     OW23367   3.723   5.293   0.851
 3779SOL    HW123368   3.652   5.281   0.781
 3779SOL    HW223369   3.724   5.214   0.911
 3780SOL     OW23370   1.941   4.964   0.653
 3780SOL    HW123371   1.940   4.917   0.741
 3780SOL    HW223372   2.023   4.936   0.602
 3781SOL     OW23373   2.534   5.115   1.624
 3781SOL    HW123374   2.456   5.065   1.662
 3781SOL    HW223375   2.531   5.210   1.655
 3782SOL     OW23376   3.686   3.916   1.227
 3782SOL    HW123377   3.682   3.826   1.271
 3782SOL    HW223378   3.689   3.905   1.128
 3783SOL     OW23379   2.290   4.148   0.520
 3783SOL    HW123380   2.320   4.076   0.458
 3783SOL    HW223381   2.251   4.108   0.603
 3784SOL     OW23382   3.567   5.211   1.104
 3784SOL    HW123383   3.474   5.186   1.077
 3784SOL    HW223384   3.593   5.161   1.186
 3785SOL     OW23385   2.179   4.271   1.280
 3785SOL    HW123386   2.217   4.212   1.352
 3785SOL    HW223387   2.219   4.245   1.192
 3786SOL     OW23388   2.674   5.310   0.687
 3786SOL    HW123389   2.706   5.320   0.593
 3786SOL    HW223390   2.595   5.248   0.689
 3787SOL     OW23391   3.286   3.938   1.112
 3787SOL    HW123392   3.338   3.873   1.167
 3787SOL    HW223393   3.237   4.001   1.173
 3788SOL     OW23394   2.863   3.758   1.154
 3788SOL    HW123395   2.800   3.686   1.123
 3788SOL    HW223396   2.956   3.722   1.154
 3789SOL     OW23397   2.632   5.054   0.301
 3789SOL    HW123398   2.586   4.967   0.318
 3789SOL    HW223399   2.723   5.051   0.342
 3790SOL     OW23400   2.480   5.291   1.284
 3790SOL    HW123401   2.475   5.373   1.341
 3790SOL    HW223402   2.569   5.288   1.239
 3791SOL     OW23403   3.214   3.776   0.168
 3791SOL    HW123404   3.249   3.735   0.084
 3791SOL    HW223405   3.124   3.738   0.188
 3792SOL     OW23406   3.162   4.177   0.691
 3792SOL    HW123407   3.103   4.257   0.695
 3792SOL    HW223408   3.177   4.142   0.784
 3793SOL     OW23409   3.455   3.945   0.882
 3793SOL    HW123410   3.371   3.944   0.936
 3793SOL    HW223411   3.457   4.028   0.826
 3794SOL     OW23412   1.901   4.801   0.300
 3794SOL    HW123413   2.000   4.790   0.291
 3794SOL    HW223414   1.861   4.715   0.332
 3795SOL     OW23415   2.737   5.370   0.337
 3795SOL    HW123416   2.660   5.335   0.283
 3795SOL    HW223417   2.705   5.441   0.399
 3796SOL     OW23418   2.997   4.427   2.579
 3796SOL    HW123419   3.054   4.505   2.554
 3796SOL    HW223420   2.937   4.453   2.655
 3797SOL     OW23421   3.617   4.331   2.093
 3797SOL    HW123422   3.605   4.318   1.994
 3797SOL    HW223423   3.587   4.250   2.142
 3798SOL     OW23424   3.465   4.171   2.599
 3798SOL    HW123425   3.391   4.217   2.549
 3798SOL    HW223426   3.516   4.239   2.652
 3799SOL     OW23427   2.989   5.065   3.552
 3799SOL    HW123428   3.036   5.065   3.640
 3799SOL    HW223429   2.941   4.978   3.541
 3800SOL     OW23430   3.704   5.491   2.221
 3800SOL    HW123431   3.758   5.462   2.301
 3800SOL    HW223432   3.734   5.581   2.192
 3801SOL     OW23433   1.889   5.320   1.979
 3801SOL    HW123434   1.870   5.224   2.000
 3801SOL    HW223435   1.856   5.378   2.054
 3802SOL     OW23436   3.155   4.952   3.285
 3802SOL    HW123437   3.192   4.879   3.227
 3802SOL    HW223438   3.207   4.957   3.370
 3803SOL     OW23439   3.387   4.723   2.052
 3803SOL    HW123440   3.324   4.647   2.065
 3803SOL    HW223441   3.435   4.741   2.138
 3804SOL     OW23442   2.179   3.975   3.663
 3804SOL    HW123443   2.250   4.046   3.669
 3804SOL    HW223444   2.091   4.014   3.691
 3805SOL     OW23445   2.669   4.329   3.327
 3805SOL    HW123446   2.622   4.326   3.416
 3805SOL    HW223447   2.618   4.274   3.261
 3806SOL     OW23448   2.835   4.614   3.434
 3806SOL    HW123449   2.881   4.530   3.405
 3806SOL    HW223450   2.779   4.648   3.359
 3807SOL     OW23451   3.657   4.790   2.735
 3807SOL    HW123452   3.595   4.775   2.659
 3807SOL    HW223453   3.605   4.801   2.820
 3808SOL     OW23454   3.089   5.274   3.368
 3808SOL    HW123455   3.095   5.197   3.432
 3808SOL    HW223456   3.037   5.248   3.288
 3809SOL     OW23457   3.494   5.101   1.943
 3809SOL    HW123458   3.462   5.195   1.933
 3809SOL    HW223459   3.418   5.038   1.931
 3810SOL     OW23460   2.750   5.238   3.057
 3810SOL    HW123461   2.727   5.213   2.963
 3810SOL    HW223462   2.811   5.169   3.096
 3811SOL     OW23463   3.213   4.314   3.295
 3811SOL    HW123464   3.241   4.271   3.380
 3811SOL    HW223465   3.238   4.410   3.296
 3812SOL     OW23466   2.665   5.126   2.786
 3812SOL    HW123467   2.755   5.140   2.744
 3812SOL    HW223468   2.594   5.128   2.715
 3813SOL     OW23469   2.159   3.759   2.033
 3813SOL    HW123470   2.208   3.843   2.012
 3813SOL    HW223471   2.221   3.694   2.078
 3814SOL     OW23472   3.133   5.521   2.453
 3814SOL    HW123473   3.177   5.585   2.389
 3814SOL    HW223474   3.083   5.573   2.523
 3815SOL     OW23475   2.728   4.178   2.504
 3815SOL    HW123476   2.696   4.250   2.442
 3815SOL    HW223477   2.752   4.097   2.451
 3816SOL     OW23478   2.879   3.763   2.615
 3816SOL    HW123479   2.807   3.768   2.546
 3816SOL    HW223480   2.855   3.694   2.684
 3817SOL     OW23481   3.719   4.557   2.239
 3817SOL    HW123482   3.761   4.493   2.303
 3817SOL    HW223483   3.681   4.506   2.161
 3818SOL     OW23484   3.500   4.823   2.941
 3818SOL    HW123485   3.505   4.904   3.000
 3818SOL    HW223486   3.414   4.825   2.890
 3819SOL     OW23487   2.842   4.840   3.581
 3819SOL    HW123488   2.743   4.846   3.591
 3819SOL    HW223489   2.865   4.760   3.525
 3820SOL     OW23490   3.136   4.110   3.124
 3820SOL    HW123491   3.157   4.184   3.188
 3820SOL    HW223492   3.047   4.127   3.081
 3821SOL     OW23493   2.428   4.261   2.727
 3821SOL    HW123494   2.440   4.327   2.653
 3821SOL    HW223495   2.474   4.295   2.810
 3822SOL     OW23496   3.114   5.072   2.250
 3822SOL    HW123497   3.164   5.149   2.290
 3822SOL    HW223498   3.019   5.074   2.282
 3823SOL     OW23499   3.449   4.503   3.532
 3823SOL    HW123500   3.357   4.541   3.527
 3823SOL    HW223501   3.509   4.550   3.467
 3824SOL     OW23502   2.875   3.829   3.632
 3824SOL    HW123503   2.881   3.914   3.580
 3824SOL    HW223504   2.907   3.753   3.575
 3825SOL     OW23505   2.366   3.774   3.602
 3825SOL    HW123506   2.324   3.717   3.532
 3825SOL    HW223507   2.300   3.843   3.634
 3826SOL     OW23508   3.222   4.586   2.907
 3826SOL    HW123509   3.147   4.586   2.841
 3826SOL    HW223510   3.259   4.494   2.916
 3827SOL     OW23511   2.885   4.490   2.828
 3827SOL    HW123512   2.900   4.511   2.924
 3827SOL    HW223513   2.855   4.395   2.819
 3828SOL     OW23514   2.212   4.622   3.666
 3828SOL    HW123515   2.288   4.666   3.714
 3828SOL    HW223516   2.247   4.575   3.584
 3829SOL     OW23517   3.402   3.998   1.987
 3829SOL    HW123518   3.341   3.923   2.010
 3829SOL    HW223519   3.424   4.050   2.070
 3830SOL     OW23520   2.930   5.057   2.711
 3830SOL    HW123521   2.937   4.973   2.656
 3830SOL    HW223522   2.992   5.126   2.675
 3831SOL     OW23523   3.000   4.104   3.540
 3831SOL    HW123524   2.955   4.167   3.604
 3831SOL    HW223525   3.093   4.135   3.523
 3832SOL     OW23526   2.864   4.520   3.100
 3832SOL    HW123527   2.905   4.488   3.186
 3832SOL    HW223528   2.768   4.493   3.097
 3833SOL     OW23529   2.051   4.244   3.584
 3833SOL    HW123530   2.110   4.204   3.514
 3833SOL    HW223531   1.993   4.315   3.543
 3834SOL     OW23532   3.231   4.674   3.522
 3834SOL    HW123533   3.270   4.763   3.542
 3834SOL    HW223534   3.241   4.654   3.425
 3835SOL     OW23535   2.114   5.288   3.606
 3835SOL    HW123536   2.084   5.345   3.682
 3835SOL    HW223537   2.107   5.191   3.632
 3836SOL     OW23538   2.533   4.188   3.131
 3836SOL    HW123539   2.499   4.099   3.101
 3836SOL    HW223540   2.559   4.242   3.051
 3837SOL     OW23541   3.621   5.471   3.016
 3837SOL    HW123542   3.682   5.501   2.943
 3837SOL    HW223543   3.583   5.382   2.994
 3838SOL     OW23544   2.550   5.386   3.578
 3838SOL    HW123545   2.494   5.467   3.587
 3838SOL    HW223546   2.602   5.390   3.492
 3839SOL     OW23547   3.250   5.297   2.339
 3839SOL    HW123548   3.317   5.309   2.265
 3839SOL    HW223549   3.210   5.386   2.362
 3840SOL     OW23550   2.684   4.726   3.234
 3840SOL    HW123551   2.724   4.725   3.142
 3840SOL    HW223552   2.694   4.818   3.274
 3841SOL     OW23553   2.901   4.822   2.558
 3841SOL    HW123554   2.831   4.775   2.612
 3841SOL    HW223555   2.960   4.754   2.515
 3842SOL     OW23556   2.876   3.960   2.833
 3842SOL    HW123557   2.868   3.924   2.740
 3842SOL    HW223558   2.874   3.884   2.898
 3843SOL     OW23559   3.571   4.109   3.243
 3843SOL    HW123560   3.644   4.178   3.247
 3843SOL    HW223561   3.599   4.034   3.184
 3844SOL     OW23562   2.117   5.072   2.152
 3844SOL    HW123563   2.021   5.073   2.125
 3844SOL    HW223564   2.129   5.125   2.236
 3845SOL     OW23565   1.967   4.737   3.588
 3845SOL    HW123566   1.890   4.704   3.642
 3845SOL    HW223567   2.052   4.707   3.630
 3846SOL     OW23568   1.934   3.890   2.180
 3846SOL    HW123569   1.917   3.973   2.126
 3846SOL    HW223570   2.024   3.853   2.158
 3847SOL     OW23571   2.721   5.098   1.878
 3847SOL    HW123572   2.675   5.113   1.966
 3847SOL    HW223573   2.765   5.183   1.848
 3848SOL     OW23574   2.721   4.680   2.723
 3848SOL    HW123575   2.775   4.611   2.771
 3848SOL    HW223576   2.689   4.749   2.789
 3849SOL     OW23577   2.083   5.038   3.706
 3849SOL    HW123578   2.018   4.965   3.685
 3849SOL    HW223579   2.087   5.052   3.804
 3850SOL     OW23580   1.941   4.964   2.515
 3850SOL    HW123581   1.940   4.917   2.603
 3850SOL    HW223582   2.023   4.936   2.464
 3851SOL     OW23583   2.534   5.115   3.486
 3851SOL    HW123584   2.456   5.065   3.524
 3851SOL    HW223585   2.531   5.210   3.517
 3852SOL     OW23586   2.290   4.148   2.382
 3852SOL    HW123587   2.320   4.076   2.320
 3852SOL    HW223588   2.251   4.108   2.465
 3853SOL     OW23589   2.674   5.310   2.549
 3853SOL    HW123590   2.706   5.320   2.455
 3853SOL    HW223591   2.595   5.248   2.551
 3854SOL     OW23592   3.214   3.776   2.030
 3854SOL    HW123593   3.249   3.735   1.946
 3854SOL    HW223594   3.124   3.738   2.050
 3855SOL     OW23595   3.455   3.945   2.744
 3855SOL    HW123596   3.371   3.944   2.798
 3855SOL    HW223597   3.457   4.028   2.688
 3856SOL     OW23598   2.087   3.999   4.720
 3856SOL    HW123599   2.122   3.982   4.812
 3856SOL    HW223600   1.999   3.954   4.708
 3857SOL     OW23601   1.881   4.092   4.371
 3857SOL    HW123602   1.799   4.135   4.410
 3857SOL    HW223603   1.853   4.019   4.308
 3858SOL     OW23604   2.197   5.159   4.785
 3858SOL    HW123605   2.119   5.128   4.732
 3858SOL    HW223606   2.255   5.217   4.728
 3859SOL     OW23607   2.102   4.815   4.610
 3859SOL    HW123608   2.116   4.731   4.662
 3859SOL    HW223609   2.047   4.879   4.665
 3860SOL     OW23610   2.482   5.510   5.163
 3860SOL    HW123611   2.390   5.493   5.198
 3860SOL    HW223612   2.510   5.602   5.189
 3861SOL     OW23613   2.468   4.688   3.847
 3861SOL    HW123614   2.475   4.772   3.793
 3861SOL    HW223615   2.514   4.701   3.935
 3862SOL     OW23616   3.456   3.838   5.204
 3862SOL    HW123617   3.438   3.905   5.132
 3862SOL    HW223618   3.453   3.884   5.293
 3863SOL     OW23619   1.984   4.367   4.287
 3863SOL    HW123620   1.939   4.279   4.304
 3863SOL    HW223621   1.983   4.421   4.371
 3864SOL     OW23622   3.704   5.491   4.083
 3864SOL    HW123623   3.758   5.462   4.163
 3864SOL    HW223624   3.734   5.581   4.054
 3865SOL     OW23625   3.503   4.832   4.156
 3865SOL    HW123626   3.589   4.834   4.104
 3865SOL    HW223627   3.517   4.879   4.244
 3866SOL     OW23628   1.975   4.461   5.321
 3866SOL    HW123629   2.063   4.448   5.366
 3866SOL    HW223630   1.962   4.558   5.299
 3867SOL     OW23631   2.671   3.728   4.226
 3867SOL    HW123632   2.711   3.819   4.217
 3867SOL    HW223633   2.571   3.736   4.232
 3868SOL     OW23634   3.049   5.516   5.340
 3868SOL    HW123635   3.073   5.576   5.264
 3868SOL    HW223636   3.056   5.421   5.310
 3869SOL     OW23637   2.903   4.425   4.153
 3869SOL    HW123638   2.929   4.421   4.249
 3869SOL    HW223639   2.818   4.374   4.139
 3870SOL     OW23640   1.938   4.535   4.513
 3870SOL    HW123641   2.037   4.523   4.522
 3870SOL    HW223642   1.914   4.630   4.534
 3871SOL     OW23643   1.992   5.545   5.295
 3871SOL    HW123644   1.982   5.530   5.394
 3871SOL    HW223645   1.906   5.581   5.259
 3872SOL     OW23646   2.412   3.920   4.609
 3872SOL    HW123647   2.407   3.915   4.709
 3872SOL    HW223648   2.414   4.016   4.580
 3873SOL     OW23649   3.657   4.790   4.597
 3873SOL    HW123650   3.595   4.775   4.521
 3873SOL    HW223651   3.605   4.801   4.682
 3874SOL     OW23652   3.089   5.274   5.230
 3874SOL    HW123653   3.095   5.197   5.294
 3874SOL    HW223654   3.037   5.248   5.150
 3875SOL     OW23655   2.183   4.667   3.966
 3875SOL    HW123656   2.265   4.706   3.924
 3875SOL    HW223657   2.156   4.585   3.917
 3876SOL     OW23658   2.323   4.990   5.451
 3876SOL    HW123659   2.273   4.991   5.365
 3876SOL    HW223660   2.260   4.972   5.527
 3877SOL     OW23661   2.973   5.500   3.961
 3877SOL    HW123662   2.913   5.438   4.011
 3877SOL    HW223663   3.004   5.456   3.876
 3878SOL     OW23664   3.494   5.101   3.805
 3878SOL    HW123665   3.462   5.195   3.795
 3878SOL    HW223666   3.418   5.038   3.793
 3879SOL     OW23667   2.111   5.509   4.965
 3879SOL    HW123668   2.168   5.444   5.015
 3879SOL    HW223669   2.095   5.476   4.872
 3880SOL     OW23670   2.244   4.424   4.204
 3880SOL    HW123671   2.289   4.334   4.201
 3880SOL    HW223672   2.150   4.413   4.237
 3881SOL     OW23673   3.409   3.946   5.453
 3881SOL    HW123674   3.404   3.983   5.545
 3881SOL    HW223675   3.337   3.877   5.441
 3882SOL     OW23676   2.476   3.846   3.841
 3882SOL    HW123677   2.574   3.824   3.848
 3882SOL    HW223678   2.445   3.829   3.748
 3883SOL     OW23679   2.784   4.227   4.623
 3883SOL    HW123680   2.759   4.218   4.527
 3883SOL    HW223681   2.832   4.145   4.654
 3884SOL     OW23682   3.089   5.294   4.517
 3884SOL    HW123683   3.110   5.368   4.452
 3884SOL    HW223684   3.157   5.294   4.590
 3885SOL     OW23685   3.133   5.521   4.315
 3885SOL    HW123686   3.177   5.585   4.251
 3885SOL    HW223687   3.083   5.573   4.385
 3886SOL     OW23688   2.894   4.273   3.740
 3886SOL    HW123689   2.853   4.355   3.701
 3886SOL    HW223690   2.958   4.299   3.813
 3887SOL     OW23691   2.423   3.946   4.871
 3887SOL    HW123692   2.461   3.862   4.908
 3887SOL    HW223693   2.335   3.965   4.915
 3888SOL     OW23694   3.328   4.314   4.716
 3888SOL    HW123695   3.298   4.219   4.723
 3888SOL    HW223696   3.401   4.330   4.782
 3889SOL     OW23697   3.719   4.557   4.101
 3889SOL    HW123698   3.761   4.493   4.165
 3889SOL    HW223699   3.681   4.506   4.023
 3890SOL     OW23700   2.350   5.109   3.898
 3890SOL    HW123701   2.263   5.094   3.945
 3890SOL    HW223702   2.333   5.135   3.803
 3891SOL     OW23703   3.526   5.004   4.381
 3891SOL    HW123704   3.625   5.012   4.395
 3891SOL    HW223705   3.481   5.088   4.412
 3892SOL     OW23706   3.252   4.299   3.802
 3892SOL    HW123707   3.198   4.278   3.883
 3892SOL    HW223708   3.343   4.258   3.811
 3893SOL     OW23709   2.389   3.980   4.052
 3893SOL    HW123710   2.416   3.921   3.977
 3893SOL    HW223711   2.389   4.075   4.021
 3894SOL     OW23712   3.616   4.947   5.312
 3894SOL    HW123713   3.707   4.908   5.299
 3894SOL    HW223714   3.624   5.043   5.336
 3895SOL     OW23715   3.454   5.353   5.349
 3895SOL    HW123716   3.481   5.387   5.259
 3895SOL    HW223717   3.533   5.315   5.395
 3896SOL     OW23718   2.973   4.919   4.824
 3896SOL    HW123719   2.933   4.963   4.905
 3896SOL    HW223720   2.932   4.956   4.741
 3897SOL     OW23721   3.500   4.823   4.803
 3897SOL    HW123722   3.505   4.904   4.862
 3897SOL    HW223723   3.414   4.825   4.752
 3898SOL     OW23724   2.777   3.813   5.126
 3898SOL    HW123725   2.802   3.793   5.031
 3898SOL    HW223726   2.849   3.869   5.168
 3899SOL     OW23727   2.842   4.840   5.443
 3899SOL    HW123728   2.743   4.846   5.453
 3899SOL    HW223729   2.865   4.760   5.387
 3900SOL     OW23730   3.114   5.072   4.112
 3900SOL    HW123731   3.164   5.149   4.152
 3900SOL    HW223732   3.019   5.074   4.144
 3901SOL     OW23733   3.444   4.363   4.196
 3901SOL    HW123734   3.413   4.424   4.269
 3901SOL    HW223735   3.494   4.415   4.127
 3902SOL     OW23736   2.875   3.829   5.494
 3902SOL    HW123737   2.881   3.914   5.442
 3902SOL    HW223738   2.907   3.753   5.437
 3903SOL     OW23739   2.435   4.594   4.753
 3903SOL    HW123740   2.479   4.683   4.744
 3903SOL    HW223741   2.372   4.594   4.830
 3904SOL     OW23742   3.071   4.249   3.999
 3904SOL    HW123743   3.084   4.165   4.053
 3904SOL    HW223744   3.042   4.323   4.059
 3905SOL     OW23745   3.484   4.091   4.098
 3905SOL    HW123746   3.486   4.015   4.162
 3905SOL    HW223747   3.436   4.168   4.138
 3906SOL     OW23748   3.165   4.562   3.766
 3906SOL    HW123749   3.199   4.469   3.781
 3906SOL    HW223750   3.183   4.589   3.671
 3907SOL     OW23751   2.181   4.534   4.673
 3907SOL    HW123752   2.274   4.570   4.678
 3907SOL    HW223753   2.175   4.449   4.725
 3908SOL     OW23754   2.114   5.288   5.468
 3908SOL    HW123755   2.084   5.345   5.544
 3908SOL    HW223756   2.107   5.191   5.494
 3909SOL     OW23757   2.533   4.188   4.993
 3909SOL    HW123758   2.499   4.099   4.963
 3909SOL    HW223759   2.559   4.242   4.913
 3910SOL     OW23760   2.021   4.861   5.190
 3910SOL    HW123761   2.043   4.800   5.266
 3910SOL    HW223762   2.031   4.812   5.104
 3911SOL     OW23763   3.114   5.455   4.852
 3911SOL    HW123764   3.198   5.460   4.798
 3911SOL    HW223765   3.091   5.359   4.870
 3912SOL     OW23766   1.945   4.982   4.746
 3912SOL    HW123767   1.940   4.981   4.846
 3912SOL    HW223768   1.862   4.941   4.708
 3913SOL     OW23769   2.550   5.386   5.440
 3913SOL    HW123770   2.494   5.467   5.449
 3913SOL    HW223771   2.602   5.390   5.354
 3914SOL     OW23772   1.992   5.518   5.575
 3914SOL    HW123773   1.951   5.444   5.628
 3914SOL    HW223774   2.056   5.569   5.633
 3915SOL     OW23775   3.142   4.651   4.396
 3915SOL    HW123776   3.202   4.570   4.398
 3915SOL    HW223777   3.182   4.720   4.336
 3916SOL     OW23778   2.534   5.340   3.878
 3916SOL    HW123779   2.543   5.350   3.779
 3916SOL    HW223780   2.494   5.251   3.899
 3917SOL     OW23781   2.125   4.050   4.444
 3917SOL    HW123782   2.046   4.101   4.410
 3917SOL    HW223783   2.116   4.035   4.542
 3918SOL     OW23784   3.366   5.331   3.768
 3918SOL    HW123785   3.274   5.368   3.775
 3918SOL    HW223786   3.404   5.351   3.678
 3919SOL     OW23787   2.234   5.012   5.214
 3919SOL    HW123788   2.221   5.105   5.180
 3919SOL    HW223789   2.150   4.960   5.201
 3920SOL     OW23790   3.476   5.016   5.013
 3920SOL    HW123791   3.536   5.019   5.093
 3920SOL    HW223792   3.401   5.080   5.026
 3921SOL     OW23793   2.452   5.211   4.215
 3921SOL    HW123794   2.494   5.153   4.145
 3921SOL    HW223795   2.408   5.290   4.171
 3922SOL     OW23796   1.967   4.737   5.450
 3922SOL    HW123797   1.890   4.704   5.504
 3922SOL    HW223798   2.052   4.707   5.492
 3923SOL     OW23799   2.534   3.927   5.213
 3923SOL    HW123800   2.624   3.911   5.173
 3923SOL    HW223801   2.542   3.932   5.312
 3924SOL     OW23802   2.578   4.289   5.432
 3924SOL    HW123803   2.597   4.354   5.506
 3924SOL    HW223804   2.638   4.209   5.441
 3925SOL     OW23805   2.252   5.465   5.284
 3925SOL    HW123806   2.161   5.506   5.282
 3925SOL    HW223807   2.245   5.371   5.316
 3926SOL     OW23808   3.592   4.658   5.241
 3926SOL    HW123809   3.630   4.749   5.256
 3926SOL    HW223810   3.584   4.641   5.142
 3927SOL     OW23811   2.721   5.098   3.740
 3927SOL    HW123812   2.675   5.113   3.828
 3927SOL    HW223813   2.765   5.183   3.710
 3928SOL     OW23814   2.083   5.038   5.568
 3928SOL    HW123815   2.018   4.965   5.547
 3928SOL    HW223816   2.087   5.052   5.666
 3929SOL     OW23817   3.686   3.916   4.951
 3929SOL    HW123818   3.682   3.826   4.995
 3929SOL    HW223819   3.689   3.905   4.852
 3930SOL     OW23820   2.290   4.148   4.244
 3930SOL    HW123821   2.320   4.076   4.182
 3930SOL    HW223822   2.251   4.108   4.327
 3931SOL     OW23823   3.214   3.776   3.892
 3931SOL    HW123824   3.249   3.735   3.808
 3931SOL    HW223825   3.124   3.738   3.912
 3932SOL     OW23826   2.737   5.370   4.061
 3932SOL    HW123827   2.660   5.335   4.007
 3932SOL    HW223828   2.705   5.441   4.123
 3933SOL     OW23829   2.092   4.352   5.699
 3933SOL    HW123830   1.999   4.350   5.736
 3933SOL    HW223831   2.093   4.313   5.607
 3934SOL     OW23832   2.087   3.999   6.582
 3934SOL    HW123833   2.122   3.982   6.674
 3934SOL    HW223834   1.999   3.954   6.570
 3935SOL     OW23835   1.881   4.092   6.233
 3935SOL    HW123836   1.799   4.135   6.272
 3935SOL    HW223837   1.853   4.019   6.170
 3936SOL     OW23838   2.431   4.999   6.751
 3936SOL    HW123839   2.338   4.992   6.714
 3936SOL    HW223840   2.442   5.088   6.795
 3937SOL     OW23841   3.417   5.235   6.289
 3937SOL    HW123842   3.360   5.219   6.370
 3937SOL    HW223843   3.358   5.245   6.209
 3938SOL     OW23844   2.997   4.427   6.303
 3938SOL    HW123845   3.054   4.505   6.278
 3938SOL    HW223846   2.937   4.453   6.379
 3939SOL     OW23847   2.630   4.868   6.609
 3939SOL    HW123848   2.552   4.885   6.669
 3939SOL    HW223849   2.664   4.955   6.573
 3940SOL     OW23850   2.712   4.522   7.409
 3940SOL    HW123851   2.708   4.598   7.474
 3940SOL    HW223852   2.734   4.558   7.318
 3941SOL     OW23853   2.547   4.736   6.251
 3941SOL    HW123854   2.616   4.720   6.321
 3941SOL    HW223855   2.474   4.793   6.289
 3942SOL     OW23856   2.548   4.885   7.389
 3942SOL    HW123857   2.608   4.964   7.403
 3942SOL    HW223858   2.462   4.916   7.348
 3943SOL     OW23859   2.197   5.159   6.647
 3943SOL    HW123860   2.119   5.128   6.594
 3943SOL    HW223861   2.255   5.217   6.590
 3944SOL     OW23862   3.322   5.229   6.925
 3944SOL    HW123863   3.346   5.323   6.951
 3944SOL    HW223864   3.306   5.175   7.007
 3945SOL     OW23865   2.300   4.116   7.085
 3945SOL    HW123866   2.382   4.060   7.094
 3945SOL    HW223867   2.219   4.058   7.089
 3946SOL     OW23868   2.093   5.437   6.069
 3946SOL    HW123869   2.127   5.514   6.123
 3946SOL    HW223870   2.137   5.437   5.979
 3947SOL     OW23871   2.989   5.065   7.276
 3947SOL    HW123872   3.036   5.065   7.364
 3947SOL    HW223873   2.941   4.978   7.265
 3948SOL     OW23874   2.092   5.158   6.124
 3948SOL    HW123875   2.066   5.254   6.124
 3948SOL    HW223876   2.021   5.104   6.169
 3949SOL     OW23877   2.102   4.815   6.472
 3949SOL    HW123878   2.116   4.731   6.524
 3949SOL    HW223879   2.047   4.879   6.527
 3950SOL     OW23880   2.482   5.510   7.025
 3950SOL    HW123881   2.390   5.493   7.060
 3950SOL    HW223882   2.510   5.602   7.051
 3951SOL     OW23883   3.456   3.838   7.066
 3951SOL    HW123884   3.438   3.905   6.994
 3951SOL    HW223885   3.453   3.884   7.155
 3952SOL     OW23886   1.984   4.367   6.149
 3952SOL    HW123887   1.939   4.279   6.166
 3952SOL    HW223888   1.983   4.421   6.233
 3953SOL     OW23889   3.704   5.491   5.945
 3953SOL    HW123890   3.758   5.462   6.025
 3953SOL    HW223891   3.734   5.581   5.916
 3954SOL     OW23892   1.889   5.320   5.703
 3954SOL    HW123893   1.870   5.224   5.724
 3954SOL    HW223894   1.856   5.378   5.778
 3955SOL     OW23895   3.551   4.646   6.198
 3955SOL    HW123896   3.646   4.617   6.206
 3955SOL    HW223897   3.543   4.711   6.123
 3956SOL     OW23898   3.503   4.832   6.018
 3956SOL    HW123899   3.589   4.834   5.966
 3956SOL    HW223900   3.517   4.879   6.106
 3957SOL     OW23901   1.975   4.461   7.183
 3957SOL    HW123902   2.063   4.448   7.228
 3957SOL    HW223903   1.962   4.558   7.161
 3958SOL     OW23904   2.475   5.089   6.312
 3958SOL    HW123905   2.426   5.002   6.321
 3958SOL    HW223906   2.452   5.132   6.225
 3959SOL     OW23907   3.155   4.952   7.009
 3959SOL    HW123908   3.192   4.879   6.951
 3959SOL    HW223909   3.207   4.957   7.094
 3960SOL     OW23910   2.671   3.728   6.088
 3960SOL    HW123911   2.711   3.819   6.079
 3960SOL    HW223912   2.571   3.736   6.094
 3961SOL     OW23913   2.059   4.700   6.850
 3961SOL    HW123914   2.148   4.655   6.836
 3961SOL    HW223915   1.986   4.635   6.831
 3962SOL     OW23916   3.049   5.516   7.202
 3962SOL    HW123917   3.073   5.576   7.126
 3962SOL    HW223918   3.056   5.421   7.172
 3963SOL     OW23919   2.179   3.975   7.387
 3963SOL    HW123920   2.250   4.046   7.393
 3963SOL    HW223921   2.091   4.014   7.415
 3964SOL     OW23922   3.328   5.141   6.539
 3964SOL    HW123923   3.269   5.147   6.619
 3964SOL    HW223924   3.313   5.053   6.493
 3965SOL     OW23925   3.529   5.438   6.158
 3965SOL    HW123926   3.488   5.415   6.070
 3965SOL    HW223927   3.511   5.364   6.223
 3966SOL     OW23928   3.143   4.069   6.530
 3966SOL    HW123929   3.057   4.019   6.517
 3966SOL    HW223930   3.205   4.015   6.586
 3967SOL     OW23931   3.438   5.386   5.893
 3967SOL    HW123932   3.527   5.432   5.896
 3967SOL    HW223933   3.417   5.362   5.798
 3968SOL     OW23934   2.669   4.329   7.051
 3968SOL    HW123935   2.622   4.326   7.140
 3968SOL    HW223936   2.618   4.274   6.985
 3969SOL     OW23937   2.835   4.614   7.158
 3969SOL    HW123938   2.881   4.530   7.129
 3969SOL    HW223939   2.779   4.648   7.083
 3970SOL     OW23940   2.853   4.134   6.828
 3970SOL    HW123941   2.776   4.168   6.882
 3970SOL    HW223942   2.819   4.083   6.749
 3971SOL     OW23943   2.903   4.425   6.015
 3971SOL    HW123944   2.929   4.421   6.111
 3971SOL    HW223945   2.818   4.374   6.001
 3972SOL     OW23946   1.938   4.535   6.375
 3972SOL    HW123947   2.037   4.523   6.384
 3972SOL    HW223948   1.914   4.630   6.396
 3973SOL     OW23949   1.992   5.545   7.157
 3973SOL    HW123950   1.982   5.530   7.256
 3973SOL    HW223951   1.906   5.581   7.121
 3974SOL     OW23952   2.727   4.072   5.781
 3974SOL    HW123953   2.786   4.135   5.732
 3974SOL    HW223954   2.746   3.978   5.752
 3975SOL     OW23955   3.224   4.868   6.131
 3975SOL    HW123956   3.307   4.839   6.083
 3975SOL    HW223957   3.175   4.935   6.075
 3976SOL     OW23958   2.412   3.920   6.471
 3976SOL    HW123959   2.407   3.915   6.571
 3976SOL    HW223960   2.414   4.016   6.442
 3977SOL     OW23961   2.870   5.180   6.063
 3977SOL    HW123962   2.824   5.252   6.011
 3977SOL    HW223963   2.866   5.200   6.161
 3978SOL     OW23964   2.213   5.525   6.439
 3978SOL    HW123965   2.263   5.439   6.445
 3978SOL    HW223966   2.278   5.602   6.436
 3979SOL     OW23967   3.657   4.790   6.459
 3979SOL    HW123968   3.595   4.775   6.383
 3979SOL    HW223969   3.605   4.801   6.544
 3980SOL     OW23970   3.089   5.274   7.092
 3980SOL    HW123971   3.095   5.197   7.156
 3980SOL    HW223972   3.037   5.248   7.012
 3981SOL     OW23973   2.183   4.667   5.828
 3981SOL    HW123974   2.265   4.706   5.786
 3981SOL    HW223975   2.156   4.585   5.779
 3982SOL     OW23976   3.320   4.459   6.314
 3982SOL    HW123977   3.315   4.394   6.389
 3982SOL    HW223978   3.400   4.518   6.327
 3983SOL     OW23979   2.323   4.990   7.313
 3983SOL    HW123980   2.273   4.991   7.227
 3983SOL    HW223981   2.260   4.972   7.389
 3984SOL     OW23982   2.973   5.500   5.823
 3984SOL    HW123983   2.913   5.438   5.873
 3984SOL    HW223984   3.004   5.456   5.738
 3985SOL     OW23985   2.064   4.009   7.084
 3985SOL    HW123986   1.984   4.069   7.071
 3985SOL    HW223987   2.054   3.960   7.170
 3986SOL     OW23988   3.494   5.101   5.667
 3986SOL    HW123989   3.462   5.195   5.657
 3986SOL    HW223990   3.418   5.038   5.655
 3987SOL     OW23991   2.326   5.467   5.909
 3987SOL    HW123992   2.359   5.506   5.995
 3987SOL    HW223993   2.402   5.460   5.844
 3988SOL     OW23994   2.111   5.509   6.827
 3988SOL    HW123995   2.168   5.444   6.877
 3988SOL    HW223996   2.095   5.476   6.734
 3989SOL     OW23997   2.802   5.422   6.490
 3989SOL    HW123998   2.882   5.365   6.511
 3989SOL    HW223999   2.753   5.382   6.413
 3990SOL     OW24000   2.643   3.988   7.335
 3990SOL    HW124001   2.710   3.927   7.378
 3990SOL    HW224002   2.570   4.007   7.400
 3991SOL     OW24003   2.750   5.238   6.781
 3991SOL    HW124004   2.727   5.213   6.687
 3991SOL    HW224005   2.811   5.169   6.820
 3992SOL     OW24006   3.213   4.314   7.019
 3992SOL    HW124007   3.241   4.271   7.104
 3992SOL    HW224008   3.238   4.410   7.020
 3993SOL     OW24009   2.665   5.126   6.510
 3993SOL    HW124010   2.755   5.140   6.468
 3993SOL    HW224011   2.594   5.128   6.439
 3994SOL     OW24012   2.784   4.227   6.485
 3994SOL    HW124013   2.759   4.218   6.389
 3994SOL    HW224014   2.832   4.145   6.516
 3995SOL     OW24015   2.401   3.788   6.098
 3995SOL    HW124016   2.320   3.789   6.156
 3995SOL    HW224017   2.404   3.871   6.043
 3996SOL     OW24018   2.159   3.759   5.757
 3996SOL    HW124019   2.208   3.843   5.736
 3996SOL    HW224020   2.221   3.694   5.802
 3997SOL     OW24021   2.797   3.960   6.066
 3997SOL    HW124022   2.749   4.001   5.988
 3997SOL    HW224023   2.896   3.958   6.047
 3998SOL     OW24024   2.938   4.407   7.050
 3998SOL    HW124025   2.858   4.346   7.053
 3998SOL    HW224026   3.019   4.354   7.026
 3999SOL     OW24027   3.089   5.294   6.379
 3999SOL    HW124028   3.110   5.368   6.314
 3999SOL    HW224029   3.157   5.294   6.452
 4000SOL     OW24030   2.321   4.876   6.327
 4000SOL    HW124031   2.250   4.849   6.392
 4000SOL    HW224032   2.295   4.848   6.234
 4001SOL     OW24033   3.133   5.521   6.177
 4001SOL    HW124034   3.177   5.585   6.113
 4001SOL    HW224035   3.083   5.573   6.247
 4002SOL     OW24036   1.940   4.280   6.972
 4002SOL    HW124037   2.032   4.279   6.931
 4002SOL    HW224038   1.934   4.354   7.039
 4003SOL     OW24039   2.423   3.946   6.733
 4003SOL    HW124040   2.461   3.862   6.770
 4003SOL    HW224041   2.335   3.965   6.777
 4004SOL     OW24042   2.728   4.178   6.228
 4004SOL    HW124043   2.696   4.250   6.166
 4004SOL    HW224044   2.752   4.097   6.175
 4005SOL     OW24045   2.879   3.763   6.339
 4005SOL    HW124046   2.807   3.768   6.270
 4005SOL    HW224047   2.855   3.694   6.408
 4006SOL     OW24048   3.291   4.897   6.453
 4006SOL    HW124049   3.236   4.813   6.446
 4006SOL    HW224050   3.317   4.926   6.361
 4007SOL     OW24051   3.328   4.314   6.578
 4007SOL    HW124052   3.298   4.219   6.585
 4007SOL    HW224053   3.401   4.330   6.644
 4008SOL     OW24054   3.719   4.557   5.963
 4008SOL    HW124055   3.761   4.493   6.027
 4008SOL    HW224056   3.681   4.506   5.885
 4009SOL     OW24057   3.526   5.004   6.243
 4009SOL    HW124058   3.625   5.012   6.257
 4009SOL    HW224059   3.481   5.088   6.274
 4010SOL     OW24060   3.616   4.947   7.174
 4010SOL    HW124061   3.707   4.908   7.161
 4010SOL    HW224062   3.624   5.043   7.198
 4011SOL     OW24063   2.926   5.071   6.926
 4011SOL    HW124064   2.846   5.048   6.981
 4011SOL    HW224065   3.009   5.045   6.975
 4012SOL     OW24066   3.454   5.353   7.211
 4012SOL    HW124067   3.481   5.387   7.121
 4012SOL    HW224068   3.533   5.315   7.257
 4013SOL     OW24069   2.973   4.919   6.686
 4013SOL    HW124070   2.933   4.963   6.767
 4013SOL    HW224071   2.932   4.956   6.603
 4014SOL     OW24072   3.500   4.823   6.665
 4014SOL    HW124073   3.505   4.904   6.724
 4014SOL    HW224074   3.414   4.825   6.614
 4015SOL     OW24075   2.777   3.813   6.988
 4015SOL    HW124076   2.802   3.793   6.893
 4015SOL    HW224077   2.849   3.869   7.030
 4016SOL     OW24078   2.842   4.840   7.305
 4016SOL    HW124079   2.743   4.846   7.315
 4016SOL    HW224080   2.865   4.760   7.249
 4017SOL     OW24081   2.567   4.774   5.954
 4017SOL    HW124082   2.553   4.781   6.053
 4017SOL    HW224083   2.651   4.723   5.936
 4018SOL     OW24084   2.272   4.537   6.837
 4018SOL    HW124085   2.358   4.549   6.887
 4018SOL    HW224086   2.230   4.450   6.864
 4019SOL     OW24087   3.136   4.110   6.848
 4019SOL    HW124088   3.157   4.184   6.912
 4019SOL    HW224089   3.047   4.127   6.805
 4020SOL     OW24090   1.926   5.288   6.917
 4020SOL    HW124091   1.880   5.370   6.883
 4020SOL    HW224092   2.024   5.307   6.926
 4021SOL     OW24093   2.229   4.824   6.087
 4021SOL    HW124094   2.222   4.907   6.031
 4021SOL    HW224095   2.233   4.744   6.027
 4022SOL     OW24096   2.428   4.261   6.451
 4022SOL    HW124097   2.440   4.327   6.377
 4022SOL    HW224098   2.474   4.295   6.534
 4023SOL     OW24099   3.114   5.072   5.974
 4023SOL    HW124100   3.164   5.149   6.014
 4023SOL    HW224101   3.019   5.074   6.006
 4024SOL     OW24102   3.134   5.169   6.728
 4024SOL    HW124103   3.181   5.182   6.815
 4024SOL    HW224104   3.068   5.095   6.737
 4025SOL     OW24105   3.444   4.363   6.058
 4025SOL    HW124106   3.413   4.424   6.131
 4025SOL    HW224107   3.494   4.415   5.989
 4026SOL     OW24108   2.216   5.234   6.915
 4026SOL    HW124109   2.195   5.190   6.828
 4026SOL    HW224110   2.313   5.260   6.918
 4027SOL     OW24111   2.264   4.475   7.184
 4027SOL    HW124112   2.332   4.530   7.137
 4027SOL    HW224113   2.304   4.387   7.211
 4028SOL     OW24114   3.449   4.503   7.256
 4028SOL    HW124115   3.357   4.541   7.251
 4028SOL    HW224116   3.509   4.550   7.191
 4029SOL     OW24117   2.435   4.594   6.615
 4029SOL    HW124118   2.479   4.683   6.606
 4029SOL    HW224119   2.372   4.594   6.692
 4030SOL     OW24120   3.222   4.586   6.631
 4030SOL    HW124121   3.147   4.586   6.565
 4030SOL    HW224122   3.259   4.494   6.640
 4031SOL     OW24123   3.071   4.249   5.861
 4031SOL    HW124124   3.084   4.165   5.915
 4031SOL    HW224125   3.042   4.323   5.921
 4032SOL     OW24126   2.169   3.937   6.817
 4032SOL    HW124127   2.146   3.974   6.907
 4032SOL    HW224128   2.139   3.842   6.811
 4033SOL     OW24129   1.899   5.034   6.868
 4033SOL    HW124130   1.952   4.985   6.936
 4033SOL    HW224131   1.921   5.132   6.873
 4034SOL     OW24132   2.594   4.358   6.650
 4034SOL    HW124133   2.653   4.332   6.574
 4034SOL    HW224134   2.566   4.454   6.639
 4035SOL     OW24135   3.590   4.659   7.440
 4035SOL    HW124136   3.544   4.652   7.351
 4035SOL    HW224137   3.528   4.703   7.506
 4036SOL     OW24138   2.169   3.787   6.204
 4036SOL    HW124139   2.158   3.881   6.237
 4036SOL    HW224140   2.164   3.724   6.281
 4037SOL     OW24141   2.885   4.490   6.552
 4037SOL    HW124142   2.900   4.511   6.648
 4037SOL    HW224143   2.855   4.395   6.543
 4038SOL     OW24144   2.842   5.297   7.286
 4038SOL    HW124145   2.822   5.341   7.198
 4038SOL    HW224146   2.881   5.206   7.270
 4039SOL     OW24147   3.721   5.242   7.191
 4039SOL    HW124148   3.735   5.269   7.096
 4039SOL    HW224149   3.804   5.264   7.244
 4040SOL     OW24150   2.212   4.622   7.390
 4040SOL    HW124151   2.288   4.666   7.438
 4040SOL    HW224152   2.247   4.575   7.308
 4041SOL     OW24153   2.930   5.057   6.435
 4041SOL    HW124154   2.937   4.973   6.380
 4041SOL    HW224155   2.992   5.126   6.399
 4042SOL     OW24156   2.181   4.534   6.535
 4042SOL    HW124157   2.274   4.570   6.540
 4042SOL    HW224158   2.175   4.449   6.587
 4043SOL     OW24159   2.201   4.233   6.592
 4043SOL    HW124160   2.149   4.150   6.575
 4043SOL    HW224161   2.278   4.238   6.528
 4044SOL     OW24162   3.000   4.104   7.264
 4044SOL    HW124163   2.955   4.167   7.328
 4044SOL    HW224164   3.093   4.135   7.247
 4045SOL     OW24165   3.022   3.931   7.063
 4045SOL    HW124166   3.022   3.995   7.140
 4045SOL    HW224167   3.050   3.979   6.980
 4046SOL     OW24168   1.870   5.050   5.786
 4046SOL    HW124169   1.777   5.071   5.755
 4046SOL    HW224170   1.880   4.951   5.799
 4047SOL     OW24171   1.950   5.525   6.513
 4047SOL    HW124172   1.908   5.439   6.486
 4047SOL    HW224173   2.044   5.528   6.479
 4048SOL     OW24174   2.366   5.292   6.496
 4048SOL    HW124175   2.432   5.366   6.505
 4048SOL    HW224176   2.410   5.213   6.454
 4049SOL     OW24177   2.864   4.520   6.824
 4049SOL    HW124178   2.905   4.488   6.910
 4049SOL    HW224179   2.768   4.493   6.821
 4050SOL     OW24180   1.902   4.268   6.700
 4050SOL    HW124181   1.987   4.235   6.659
 4050SOL    HW224182   1.915   4.283   6.798
 4051SOL     OW24183   2.677   4.296   5.911
 4051SOL    HW124184   2.684   4.207   5.865
 4051SOL    HW224185   2.583   4.330   5.903
 4052SOL     OW24186   3.519   4.328   6.792
 4052SOL    HW124187   3.481   4.259   6.854
 4052SOL    HW224188   3.601   4.292   6.748
 4053SOL     OW24189   2.114   5.288   7.330
 4053SOL    HW124190   2.084   5.345   7.406
 4053SOL    HW224191   2.107   5.191   7.356
 4054SOL     OW24192   2.533   4.188   6.855
 4054SOL    HW124193   2.499   4.099   6.825
 4054SOL    HW224194   2.559   4.242   6.775
 4055SOL     OW24195   2.792   5.402   7.051
 4055SOL    HW124196   2.768   5.384   6.956
 4055SOL    HW224197   2.822   5.496   7.061
 4056SOL     OW24198   2.021   4.861   7.052
 4056SOL    HW124199   2.043   4.800   7.128
 4056SOL    HW224200   2.031   4.812   6.966
 4057SOL     OW24201   3.209   4.783   6.820
 4057SOL    HW124202   3.233   4.720   6.746
 4057SOL    HW224203   3.119   4.823   6.802
 4058SOL     OW24204   3.621   5.471   6.740
 4058SOL    HW124205   3.682   5.501   6.667
 4058SOL    HW224206   3.583   5.382   6.718
 4059SOL     OW24207   3.114   5.455   6.714
 4059SOL    HW124208   3.198   5.460   6.660
 4059SOL    HW224209   3.091   5.359   6.732
 4060SOL     OW24210   1.945   4.982   6.608
 4060SOL    HW124211   1.940   4.981   6.708
 4060SOL    HW224212   1.862   4.941   6.570
 4061SOL     OW24213   2.550   5.386   7.302
 4061SOL    HW124214   2.494   5.467   7.311
 4061SOL    HW224215   2.602   5.390   7.216
 4062SOL     OW24216   3.588   3.859   6.109
 4062SOL    HW124217   3.661   3.842   6.042
 4062SOL    HW224218   3.557   3.772   6.147
 4063SOL     OW24219   3.250   5.297   6.063
 4063SOL    HW124220   3.317   5.309   5.989
 4063SOL    HW224221   3.210   5.386   6.086
 4064SOL     OW24222   3.142   4.651   6.258
 4064SOL    HW124223   3.202   4.570   6.260
 4064SOL    HW224224   3.182   4.720   6.198
 4065SOL     OW24225   2.692   4.997   7.008
 4065SOL    HW124226   2.687   5.030   7.103
 4065SOL    HW224227   2.606   5.016   6.962
 4066SOL     OW24228   3.512   5.444   6.980
 4066SOL    HW124229   3.565   5.454   6.896
 4066SOL    HW224230   3.485   5.534   7.014
 4067SOL     OW24231   2.125   4.050   6.306
 4067SOL    HW124232   2.046   4.101   6.272
 4067SOL    HW224233   2.116   4.035   6.404
 4068SOL     OW24234   2.684   4.726   6.958
 4068SOL    HW124235   2.724   4.725   6.866
 4068SOL    HW224236   2.694   4.818   6.998
 4069SOL     OW24237   2.234   5.012   7.076
 4069SOL    HW124238   2.221   5.105   7.042
 4069SOL    HW224239   2.150   4.960   7.063
 4070SOL     OW24240   3.476   5.016   6.875
 4070SOL    HW124241   3.536   5.019   6.955
 4070SOL    HW224242   3.401   5.080   6.888
 4071SOL     OW24243   2.901   4.822   6.282
 4071SOL    HW124244   2.831   4.775   6.336
 4071SOL    HW224245   2.960   4.754   6.239
 4072SOL     OW24246   2.876   3.960   6.557
 4072SOL    HW124247   2.868   3.924   6.464
 4072SOL    HW224248   2.874   3.884   6.622
 4073SOL     OW24249   2.452   5.211   6.077
 4073SOL    HW124250   2.494   5.153   6.007
 4073SOL    HW224251   2.408   5.290   6.033
 4074SOL     OW24252   3.571   4.109   6.967
 4074SOL    HW124253   3.644   4.178   6.971
 4074SOL    HW224254   3.599   4.034   6.908
 4075SOL     OW24255   2.117   5.072   5.876
 4075SOL    HW124256   2.021   5.073   5.849
 4075SOL    HW224257   2.129   5.125   5.960
 4076SOL     OW24258   1.967   4.737   7.312
 4076SOL    HW124259   1.890   4.704   7.366
 4076SOL    HW224260   2.052   4.707   7.354
 4077SOL     OW24261   2.534   3.927   7.075
 4077SOL    HW124262   2.624   3.911   7.035
 4077SOL    HW224263   2.542   3.932   7.174
 4078SOL     OW24264   1.937   4.069   5.619
 4078SOL    HW124265   1.845   4.041   5.590
 4078SOL    HW224266   1.968   4.146   5.563
 4079SOL     OW24267   3.302   4.580   6.984
 4079SOL    HW124268   3.245   4.632   6.921
 4079SOL    HW224269   3.398   4.592   6.960
 4080SOL     OW24270   1.934   3.890   5.904
 4080SOL    HW124271   1.917   3.973   5.850
 4080SOL    HW224272   2.024   3.853   5.882
 4081SOL     OW24273   2.475   4.566   7.017
 4081SOL    HW124274   2.531   4.647   7.000
 4081SOL    HW224275   2.534   4.486   7.020
 4082SOL     OW24276   3.355   5.491   6.545
 4082SOL    HW124277   3.388   5.555   6.476
 4082SOL    HW224278   3.421   5.485   6.620
 4083SOL     OW24279   2.578   4.289   7.294
 4083SOL    HW124280   2.597   4.354   7.368
 4083SOL    HW224281   2.638   4.209   7.303
 4084SOL     OW24282   2.252   5.465   7.146
 4084SOL    HW124283   2.161   5.506   7.144
 4084SOL    HW224284   2.245   5.371   7.178
 4085SOL     OW24285   3.536   4.607   6.840
 4085SOL    HW124286   3.509   4.518   6.803
 4085SOL    HW224287   3.537   4.675   6.767
 4086SOL     OW24288   2.456   4.469   6.238
 4086SOL    HW124289   2.506   4.554   6.219
 4086SOL    HW224290   2.368   4.471   6.190
 4087SOL     OW24291   3.639   4.066   7.228
 4087SOL    HW124292   3.622   4.097   7.134
 4087SOL    HW224293   3.555   4.029   7.266
 4088SOL     OW24294   3.592   4.658   7.103
 4088SOL    HW124295   3.630   4.749   7.118
 4088SOL    HW224296   3.584   4.641   7.004
 4089SOL     OW24297   2.523   5.514   6.539
 4089SOL    HW124298   2.477   5.602   6.526
 4089SOL    HW224299   2.622   5.526   6.532
 4090SOL     OW24300   2.721   4.680   6.447
 4090SOL    HW124301   2.775   4.611   6.495
 4090SOL    HW224302   2.689   4.749   6.513
 4091SOL     OW24303   3.723   5.293   6.437
 4091SOL    HW124304   3.652   5.281   6.367
 4091SOL    HW224305   3.724   5.214   6.497
 4092SOL     OW24306   2.083   5.038   7.430
 4092SOL    HW124307   2.018   4.965   7.409
 4092SOL    HW224308   2.087   5.052   7.528
 4093SOL     OW24309   1.941   4.964   6.239
 4093SOL    HW124310   1.940   4.917   6.327
 4093SOL    HW224311   2.023   4.936   6.188
 4094SOL     OW24312   2.534   5.115   7.210
 4094SOL    HW124313   2.456   5.065   7.248
 4094SOL    HW224314   2.531   5.210   7.241
 4095SOL     OW24315   3.567   5.211   6.690
 4095SOL    HW124316   3.474   5.186   6.663
 4095SOL    HW224317   3.593   5.161   6.772
 4096SOL     OW24318   2.179   4.271   6.866
 4096SOL    HW124319   2.217   4.212   6.938
 4096SOL    HW224320   2.219   4.245   6.778
 4097SOL     OW24321   2.674   5.310   6.273
 4097SOL    HW124322   2.706   5.320   6.179
 4097SOL    HW224323   2.595   5.248   6.275
 4098SOL     OW24324   3.286   3.938   6.698
 4098SOL    HW124325   3.338   3.873   6.753
 4098SOL    HW224326   3.237   4.001   6.759
 4099SOL     OW24327   2.863   3.758   6.740
 4099SOL    HW124328   2.800   3.686   6.709
 4099SOL    HW224329   2.956   3.722   6.740
 4100SOL     OW24330   2.480   5.291   6.870
 4100SOL    HW124331   2.475   5.373   6.927
 4100SOL    HW224332   2.569   5.288   6.825
 4101SOL     OW24333   1.901   4.801   5.886
 4101SOL    HW124334   2.000   4.790   5.877
 4101SOL    HW224335   1.861   4.715   5.918
 4102SOL     OW24336   2.737   5.370   5.923
 4102SOL    HW124337   2.660   5.335   5.869
 4102SOL    HW224338   2.705   5.441   5.985
 4103SOL     OW24339   2.092   6.214   0.113
 4103SOL    HW124340   1.999   6.212   0.150
 4103SOL    HW224341   2.093   6.175   0.021
 4104SOL     OW24342   2.087   5.861   0.996
 4104SOL    HW124343   2.122   5.844   1.088
 4104SOL    HW224344   1.999   5.816   0.984
 4105SOL     OW24345   1.881   5.954   0.647
 4105SOL    HW124346   1.799   5.997   0.686
 4105SOL    HW224347   1.853   5.881   0.584
 4106SOL     OW24348   2.431   6.861   1.165
 4106SOL    HW124349   2.338   6.854   1.128
 4106SOL    HW224350   2.442   6.950   1.209
 4107SOL     OW24351   3.417   7.097   0.703
 4107SOL    HW124352   3.360   7.081   0.784
 4107SOL    HW224353   3.358   7.107   0.623
 4108SOL     OW24354   2.997   6.289   0.717
 4108SOL    HW124355   3.054   6.367   0.692
 4108SOL    HW224356   2.937   6.315   0.793
 4109SOL     OW24357   3.617   6.193   0.231
 4109SOL    HW124358   3.605   6.180   0.132
 4109SOL    HW224359   3.587   6.112   0.280
 4110SOL     OW24360   2.630   6.730   1.023
 4110SOL    HW124361   2.552   6.747   1.083
 4110SOL    HW224362   2.664   6.817   0.987
 4111SOL     OW24363   2.547   6.598   0.665
 4111SOL    HW124364   2.616   6.582   0.735
 4111SOL    HW224365   2.474   6.655   0.703
 4112SOL     OW24366   2.197   7.021   1.061
 4112SOL    HW124367   2.119   6.990   1.008
 4112SOL    HW224368   2.255   7.079   1.004
 4113SOL     OW24369   3.322   7.091   1.339
 4113SOL    HW124370   3.346   7.185   1.365
 4113SOL    HW224371   3.306   7.037   1.421
 4114SOL     OW24372   2.300   5.978   1.499
 4114SOL    HW124373   2.382   5.922   1.508
 4114SOL    HW224374   2.219   5.920   1.503
 4115SOL     OW24375   3.465   6.033   0.737
 4115SOL    HW124376   3.391   6.079   0.687
 4115SOL    HW224377   3.516   6.101   0.790
 4116SOL     OW24378   2.093   7.299   0.483
 4116SOL    HW124379   2.127   7.376   0.537
 4116SOL    HW224380   2.137   7.299   0.393
 4117SOL     OW24381   2.989   6.927   1.690
 4117SOL    HW124382   3.036   6.927   1.778
 4117SOL    HW224383   2.941   6.840   1.679
 4118SOL     OW24384   2.092   7.020   0.538
 4118SOL    HW124385   2.066   7.116   0.538
 4118SOL    HW224386   2.021   6.966   0.583
 4119SOL     OW24387   2.102   6.677   0.886
 4119SOL    HW124388   2.116   6.593   0.938
 4119SOL    HW224389   2.047   6.741   0.941
 4120SOL     OW24390   2.468   6.550   0.123
 4120SOL    HW124391   2.475   6.634   0.069
 4120SOL    HW224392   2.514   6.563   0.211
 4121SOL     OW24393   3.456   5.700   1.480
 4121SOL    HW124394   3.438   5.767   1.408
 4121SOL    HW224395   3.453   5.746   1.569
 4122SOL     OW24396   1.984   6.229   0.563
 4122SOL    HW124397   1.939   6.141   0.580
 4122SOL    HW224398   1.983   6.283   0.647
 4123SOL     OW24399   3.704   7.353   0.359
 4123SOL    HW124400   3.758   7.324   0.439
 4123SOL    HW224401   3.734   7.443   0.330
 4124SOL     OW24402   1.889   7.182   0.117
 4124SOL    HW124403   1.870   7.086   0.138
 4124SOL    HW224404   1.856   7.240   0.192
 4125SOL     OW24405   3.551   6.508   0.612
 4125SOL    HW124406   3.646   6.479   0.620
 4125SOL    HW224407   3.543   6.573   0.537
 4126SOL     OW24408   3.503   6.694   0.432
 4126SOL    HW124409   3.589   6.696   0.380
 4126SOL    HW224410   3.517   6.741   0.520
 4127SOL     OW24411   1.975   6.323   1.597
 4127SOL    HW124412   2.063   6.310   1.642
 4127SOL    HW224413   1.962   6.420   1.575
 4128SOL     OW24414   2.475   6.951   0.726
 4128SOL    HW124415   2.426   6.864   0.735
 4128SOL    HW224416   2.452   6.994   0.639
 4129SOL     OW24417   3.155   6.814   1.423
 4129SOL    HW124418   3.192   6.741   1.365
 4129SOL    HW224419   3.207   6.819   1.508
 4130SOL     OW24420   2.671   5.590   0.502
 4130SOL    HW124421   2.711   5.681   0.493
 4130SOL    HW224422   2.571   5.598   0.508
 4131SOL     OW24423   2.059   6.562   1.264
 4131SOL    HW124424   2.148   6.517   1.250
 4131SOL    HW224425   1.986   6.497   1.245
 4132SOL     OW24426   3.387   6.585   0.190
 4132SOL    HW124427   3.324   6.509   0.203
 4132SOL    HW224428   3.435   6.603   0.276
 4133SOL     OW24429   3.049   7.378   1.616
 4133SOL    HW124430   3.073   7.438   1.540
 4133SOL    HW224431   3.056   7.283   1.586
 4134SOL     OW24432   2.179   5.837   1.801
 4134SOL    HW124433   2.250   5.908   1.807
 4134SOL    HW224434   2.091   5.876   1.829
 4135SOL     OW24435   3.328   7.003   0.953
 4135SOL    HW124436   3.269   7.009   1.033
 4135SOL    HW224437   3.313   6.915   0.907
 4136SOL     OW24438   3.529   7.300   0.572
 4136SOL    HW124439   3.488   7.277   0.484
 4136SOL    HW224440   3.511   7.226   0.637
 4137SOL     OW24441   2.460   6.315   0.270
 4137SOL    HW124442   2.484   6.384   0.202
 4137SOL    HW224443   2.382   6.348   0.324
 4138SOL     OW24444   3.143   5.931   0.944
 4138SOL    HW124445   3.057   5.881   0.931
 4138SOL    HW224446   3.205   5.877   1.000
 4139SOL     OW24447   3.438   7.248   0.307
 4139SOL    HW124448   3.527   7.294   0.310
 4139SOL    HW224449   3.417   7.224   0.212
 4140SOL     OW24450   3.256   6.055   1.674
 4140SOL    HW124451   3.236   6.098   1.762
 4140SOL    HW224452   3.334   5.993   1.683
 4141SOL     OW24453   2.835   6.476   1.572
 4141SOL    HW124454   2.881   6.392   1.543
 4141SOL    HW224455   2.779   6.510   1.497
 4142SOL     OW24456   2.853   5.996   1.242
 4142SOL    HW124457   2.776   6.030   1.296
 4142SOL    HW224458   2.819   5.945   1.163
 4143SOL     OW24459   2.903   6.287   0.429
 4143SOL    HW124460   2.929   6.283   0.525
 4143SOL    HW224461   2.818   6.236   0.415
 4144SOL     OW24462   1.938   6.397   0.789
 4144SOL    HW124463   2.037   6.385   0.798
 4144SOL    HW224464   1.914   6.492   0.810
 4145SOL     OW24465   2.727   5.934   0.195
 4145SOL    HW124466   2.786   5.997   0.146
 4145SOL    HW224467   2.746   5.840   0.166
 4146SOL     OW24468   3.581   6.171   1.831
 4146SOL    HW124469   3.555   6.260   1.795
 4146SOL    HW224470   3.579   6.103   1.758
 4147SOL     OW24471   3.224   6.730   0.545
 4147SOL    HW124472   3.307   6.701   0.497
 4147SOL    HW224473   3.175   6.797   0.489
 4148SOL     OW24474   2.412   5.782   0.885
 4148SOL    HW124475   2.407   5.777   0.985
 4148SOL    HW224476   2.414   5.878   0.856
 4149SOL     OW24477   2.870   7.042   0.477
 4149SOL    HW124478   2.824   7.114   0.425
 4149SOL    HW224479   2.866   7.062   0.575
 4150SOL     OW24480   2.213   7.387   0.853
 4150SOL    HW124481   2.263   7.301   0.859
 4150SOL    HW224482   2.278   7.464   0.850
 4151SOL     OW24483   3.657   6.652   0.873
 4151SOL    HW124484   3.595   6.637   0.797
 4151SOL    HW224485   3.605   6.663   0.958
 4152SOL     OW24486   3.089   7.136   1.506
 4152SOL    HW124487   3.095   7.059   1.570
 4152SOL    HW224488   3.037   7.110   1.426
 4153SOL     OW24489   2.183   6.529   0.242
 4153SOL    HW124490   2.265   6.568   0.200
 4153SOL    HW224491   2.156   6.447   0.193
 4154SOL     OW24492   3.320   6.321   0.728
 4154SOL    HW124493   3.315   6.256   0.803
 4154SOL    HW224494   3.400   6.380   0.741
 4155SOL     OW24495   2.973   7.362   0.237
 4155SOL    HW124496   2.913   7.300   0.287
 4155SOL    HW224497   3.004   7.318   0.152
 4156SOL     OW24498   3.494   6.963   0.081
 4156SOL    HW124499   3.462   7.057   0.071
 4156SOL    HW224500   3.418   6.900   0.069
 4157SOL     OW24501   2.326   7.329   0.323
 4157SOL    HW124502   2.359   7.368   0.409
 4157SOL    HW224503   2.402   7.322   0.258
 4158SOL     OW24504   3.262   5.693   0.426
 4158SOL    HW124505   3.238   5.656   0.336
 4158SOL    HW224506   3.361   5.709   0.430
 4159SOL     OW24507   2.111   7.371   1.241
 4159SOL    HW124508   2.168   7.306   1.291
 4159SOL    HW224509   2.095   7.338   1.148
 4160SOL     OW24510   2.802   7.284   0.904
 4160SOL    HW124511   2.882   7.227   0.925
 4160SOL    HW224512   2.753   7.244   0.827
 4161SOL     OW24513   2.244   6.286   0.480
 4161SOL    HW124514   2.289   6.196   0.477
 4161SOL    HW224515   2.150   6.275   0.513
 4162SOL     OW24516   3.409   5.808   1.729
 4162SOL    HW124517   3.404   5.845   1.821
 4162SOL    HW224518   3.337   5.739   1.717
 4163SOL     OW24519   2.476   5.708   0.117
 4163SOL    HW124520   2.574   5.686   0.124
 4163SOL    HW224521   2.445   5.691   0.024
 4164SOL     OW24522   2.750   7.100   1.195
 4164SOL    HW124523   2.727   7.075   1.101
 4164SOL    HW224524   2.811   7.031   1.234
 4165SOL     OW24525   3.213   6.176   1.433
 4165SOL    HW124526   3.241   6.133   1.518
 4165SOL    HW224527   3.238   6.272   1.434
 4166SOL     OW24528   2.665   6.988   0.924
 4166SOL    HW124529   2.755   7.002   0.882
 4166SOL    HW224530   2.594   6.990   0.853
 4167SOL     OW24531   2.784   6.089   0.899
 4167SOL    HW124532   2.759   6.080   0.803
 4167SOL    HW224533   2.832   6.007   0.930
 4168SOL     OW24534   2.401   5.650   0.512
 4168SOL    HW124535   2.320   5.651   0.570
 4168SOL    HW224536   2.404   5.733   0.457
 4169SOL     OW24537   3.296   6.774   0.041
 4169SOL    HW124538   3.328   6.698   0.098
 4169SOL    HW224539   3.204   6.801   0.071
 4170SOL     OW24540   2.159   5.621   0.171
 4170SOL    HW124541   2.208   5.705   0.150
 4170SOL    HW224542   2.221   5.556   0.216
 4171SOL     OW24543   2.797   5.822   0.480
 4171SOL    HW124544   2.749   5.863   0.402
 4171SOL    HW224545   2.896   5.820   0.461
 4172SOL     OW24546   2.938   6.269   1.464
 4172SOL    HW124547   2.858   6.208   1.467
 4172SOL    HW224548   3.019   6.216   1.440
 4173SOL     OW24549   3.089   7.156   0.793
 4173SOL    HW124550   3.110   7.230   0.728
 4173SOL    HW224551   3.157   7.156   0.866
 4174SOL     OW24552   2.321   6.738   0.741
 4174SOL    HW124553   2.250   6.711   0.806
 4174SOL    HW224554   2.295   6.710   0.648
 4175SOL     OW24555   3.133   7.383   0.591
 4175SOL    HW124556   3.177   7.447   0.527
 4175SOL    HW224557   3.083   7.435   0.661
 4176SOL     OW24558   2.894   6.135   0.016
 4176SOL    HW124559   2.853   6.217  -0.023
 4176SOL    HW224560   2.958   6.161   0.089
 4177SOL     OW24561   1.940   6.142   1.386
 4177SOL    HW124562   2.032   6.141   1.345
 4177SOL    HW224563   1.934   6.216   1.453
 4178SOL     OW24564   2.423   5.808   1.147
 4178SOL    HW124565   2.461   5.724   1.184
 4178SOL    HW224566   2.335   5.827   1.191
 4179SOL     OW24567   2.728   6.040   0.642
 4179SOL    HW124568   2.696   6.112   0.580
 4179SOL    HW224569   2.752   5.959   0.589
 4180SOL     OW24570   2.879   5.625   0.753
 4180SOL    HW124571   2.807   5.630   0.684
 4180SOL    HW224572   2.855   5.556   0.822
 4181SOL     OW24573   3.291   6.759   0.867
 4181SOL    HW124574   3.236   6.675   0.860
 4181SOL    HW224575   3.317   6.788   0.775
 4182SOL     OW24576   3.328   6.176   0.992
 4182SOL    HW124577   3.298   6.081   0.999
 4182SOL    HW224578   3.401   6.192   1.058
 4183SOL     OW24579   3.719   6.419   0.377
 4183SOL    HW124580   3.761   6.355   0.441
 4183SOL    HW224581   3.681   6.368   0.299
 4184SOL     OW24582   2.350   6.971   0.174
 4184SOL    HW124583   2.263   6.956   0.221
 4184SOL    HW224584   2.333   6.997   0.079
 4185SOL     OW24585   3.526   6.866   0.657
 4185SOL    HW124586   3.625   6.874   0.671
 4185SOL    HW224587   3.481   6.950   0.688
 4186SOL     OW24588   3.252   6.161   0.078
 4186SOL    HW124589   3.198   6.140   0.159
 4186SOL    HW224590   3.343   6.120   0.087
 4187SOL     OW24591   2.389   5.842   0.328
 4187SOL    HW124592   2.416   5.783   0.253
 4187SOL    HW224593   2.389   5.937   0.297
 4188SOL     OW24594   3.616   6.809   1.588
 4188SOL    HW124595   3.707   6.770   1.575
 4188SOL    HW224596   3.624   6.905   1.612
 4189SOL     OW24597   2.926   6.933   1.340
 4189SOL    HW124598   2.846   6.910   1.395
 4189SOL    HW224599   3.009   6.907   1.389
 4190SOL     OW24600   3.454   7.215   1.625
 4190SOL    HW124601   3.481   7.249   1.535
 4190SOL    HW224602   3.533   7.177   1.671
 4191SOL     OW24603   2.973   6.781   1.100
 4191SOL    HW124604   2.933   6.825   1.181
 4191SOL    HW224605   2.932   6.818   1.017
 4192SOL     OW24606   3.500   6.685   1.079
 4192SOL    HW124607   3.505   6.766   1.138
 4192SOL    HW224608   3.414   6.687   1.028
 4193SOL     OW24609   2.567   6.636   0.368
 4193SOL    HW124610   2.553   6.643   0.467
 4193SOL    HW224611   2.651   6.585   0.350
 4194SOL     OW24612   3.136   5.972   1.262
 4194SOL    HW124613   3.157   6.046   1.326
 4194SOL    HW224614   3.047   5.989   1.219
 4195SOL     OW24615   1.926   7.150   1.331
 4195SOL    HW124616   1.880   7.232   1.297
 4195SOL    HW224617   2.024   7.169   1.340
 4196SOL     OW24618   2.229   6.686   0.501
 4196SOL    HW124619   2.222   6.769   0.445
 4196SOL    HW224620   2.233   6.606   0.441
 4197SOL     OW24621   2.428   6.123   0.865
 4197SOL    HW124622   2.440   6.189   0.791
 4197SOL    HW224623   2.474   6.157   0.948
 4198SOL     OW24624   3.114   6.934   0.388
 4198SOL    HW124625   3.164   7.011   0.428
 4198SOL    HW224626   3.019   6.936   0.420
 4199SOL     OW24627   3.134   7.031   1.142
 4199SOL    HW124628   3.181   7.044   1.229
 4199SOL    HW224629   3.068   6.957   1.151
 4200SOL     OW24630   3.444   6.225   0.472
 4200SOL    HW124631   3.413   6.286   0.545
 4200SOL    HW224632   3.494   6.277   0.403
 4201SOL     OW24633   2.216   7.096   1.329
 4201SOL    HW124634   2.195   7.052   1.242
 4201SOL    HW224635   2.313   7.122   1.332
 4202SOL     OW24636   3.449   6.365   1.670
 4202SOL    HW124637   3.357   6.403   1.665
 4202SOL    HW224638   3.509   6.412   1.605
 4203SOL     OW24639   2.435   6.456   1.029
 4203SOL    HW124640   2.479   6.545   1.020
 4203SOL    HW224641   2.372   6.456   1.106
 4204SOL     OW24642   3.222   6.448   1.045
 4204SOL    HW124643   3.147   6.448   0.979
 4204SOL    HW224644   3.259   6.356   1.054
 4205SOL     OW24645   3.071   6.111   0.275
 4205SOL    HW124646   3.084   6.027   0.329
 4205SOL    HW224647   3.042   6.185   0.335
 4206SOL     OW24648   2.169   5.799   1.231
 4206SOL    HW124649   2.146   5.836   1.321
 4206SOL    HW224650   2.139   5.704   1.225
 4207SOL     OW24651   1.899   6.896   1.282
 4207SOL    HW124652   1.952   6.847   1.350
 4207SOL    HW224653   1.921   6.994   1.287
 4208SOL     OW24654   2.594   6.220   1.064
 4208SOL    HW124655   2.653   6.194   0.988
 4208SOL    HW224656   2.566   6.316   1.053
 4209SOL     OW24657   3.590   6.521   1.854
 4209SOL    HW124658   3.544   6.514   1.765
 4209SOL    HW224659   3.528   6.565   1.920
 4210SOL     OW24660   2.169   5.649   0.618
 4210SOL    HW124661   2.158   5.743   0.651
 4210SOL    HW224662   2.164   5.586   0.695
 4211SOL     OW24663   3.484   5.953   0.374
 4211SOL    HW124664   3.486   5.877   0.438
 4211SOL    HW224665   3.436   6.030   0.414
 4212SOL     OW24666   2.885   6.352   0.966
 4212SOL    HW124667   2.900   6.373   1.062
 4212SOL    HW224668   2.855   6.257   0.957
 4213SOL     OW24669   3.721   7.104   1.605
 4213SOL    HW124670   3.735   7.131   1.510
 4213SOL    HW224671   3.804   7.126   1.658
 4214SOL     OW24672   2.212   6.484   1.804
 4214SOL    HW124673   2.288   6.528   1.852
 4214SOL    HW224674   2.247   6.437   1.722
 4215SOL     OW24675   3.402   5.860   0.125
 4215SOL    HW124676   3.341   5.785   0.148
 4215SOL    HW224677   3.424   5.912   0.208
 4216SOL     OW24678   3.165   6.424   0.042
 4216SOL    HW124679   3.199   6.331   0.057
 4216SOL    HW224680   3.183   6.451  -0.053
 4217SOL     OW24681   2.930   6.919   0.849
 4217SOL    HW124682   2.937   6.835   0.794
 4217SOL    HW224683   2.992   6.988   0.813
 4218SOL     OW24684   2.181   6.396   0.949
 4218SOL    HW124685   2.274   6.432   0.954
 4218SOL    HW224686   2.175   6.311   1.001
 4219SOL     OW24687   2.201   6.095   1.006
 4219SOL    HW124688   2.149   6.012   0.989
 4219SOL    HW224689   2.278   6.100   0.942
 4220SOL     OW24690   3.022   5.793   1.477
 4220SOL    HW124691   3.022   5.857   1.554
 4220SOL    HW224692   3.050   5.841   1.394
 4221SOL     OW24693   1.870   6.912   0.200
 4221SOL    HW124694   1.777   6.933   0.169
 4221SOL    HW224695   1.880   6.813   0.213
 4222SOL     OW24696   1.950   7.387   0.927
 4222SOL    HW124697   1.908   7.301   0.900
 4222SOL    HW224698   2.044   7.390   0.893
 4223SOL     OW24699   2.366   7.154   0.910
 4223SOL    HW124700   2.432   7.228   0.919
 4223SOL    HW224701   2.410   7.075   0.868
 4224SOL     OW24702   2.864   6.382   1.238
 4224SOL    HW124703   2.905   6.350   1.324
 4224SOL    HW224704   2.768   6.355   1.235
 4225SOL     OW24705   1.902   6.130   1.114
 4225SOL    HW124706   1.987   6.097   1.073
 4225SOL    HW224707   1.915   6.145   1.212
 4226SOL     OW24708   2.051   6.106   1.722
 4226SOL    HW124709   2.110   6.066   1.652
 4226SOL    HW224710   1.993   6.177   1.681
 4227SOL     OW24711   3.231   6.536   1.660
 4227SOL    HW124712   3.270   6.625   1.680
 4227SOL    HW224713   3.241   6.516   1.563
 4228SOL     OW24714   2.677   6.158   0.325
 4228SOL    HW124715   2.684   6.069   0.279
 4228SOL    HW224716   2.583   6.192   0.317
 4229SOL     OW24717   3.519   6.190   1.206
 4229SOL    HW124718   3.481   6.121   1.268
 4229SOL    HW224719   3.601   6.154   1.162
 4230SOL     OW24720   2.114   7.150   1.744
 4230SOL    HW124721   2.084   7.207   1.820
 4230SOL    HW224722   2.107   7.053   1.770
 4231SOL     OW24723   2.533   6.050   1.269
 4231SOL    HW124724   2.499   5.961   1.239
 4231SOL    HW224725   2.559   6.104   1.189
 4232SOL     OW24726   2.335   6.086   0.191
 4232SOL    HW124727   2.396   6.166   0.195
 4232SOL    HW224728   2.240   6.117   0.198
 4233SOL     OW24729   3.209   6.645   1.234
 4233SOL    HW124730   3.233   6.582   1.160
 4233SOL    HW224731   3.119   6.685   1.216
 4234SOL     OW24732   3.164   6.441   0.309
 4234SOL    HW124733   3.078   6.410   0.351
 4234SOL    HW224734   3.160   6.427   0.210
 4235SOL     OW24735   3.621   7.333   1.154
 4235SOL    HW124736   3.682   7.363   1.081
 4235SOL    HW224737   3.583   7.244   1.132
 4236SOL     OW24738   3.114   7.317   1.128
 4236SOL    HW124739   3.198   7.322   1.074
 4236SOL    HW224740   3.091   7.221   1.146
 4237SOL     OW24741   1.945   6.844   1.022
 4237SOL    HW124742   1.940   6.843   1.122
 4237SOL    HW224743   1.862   6.803   0.984
 4238SOL     OW24744   2.765   5.672   0.133
 4238SOL    HW124745   2.816   5.673   0.047
 4238SOL    HW224746   2.821   5.630   0.204
 4239SOL     OW24747   3.588   5.721   0.523
 4239SOL    HW124748   3.661   5.704   0.456
 4239SOL    HW224749   3.557   5.634   0.561
 4240SOL     OW24750   3.250   7.159   0.477
 4240SOL    HW124751   3.317   7.171   0.403
 4240SOL    HW224752   3.210   7.248   0.500
 4241SOL     OW24753   3.142   6.513   0.672
 4241SOL    HW124754   3.202   6.432   0.674
 4241SOL    HW224755   3.182   6.582   0.612
 4242SOL     OW24756   2.692   6.859   1.422
 4242SOL    HW124757   2.687   6.892   1.517
 4242SOL    HW224758   2.606   6.878   1.376
 4243SOL     OW24759   2.534   7.202   0.154
 4243SOL    HW124760   2.543   7.212   0.055
 4243SOL    HW224761   2.494   7.113   0.175
 4244SOL     OW24762   3.512   7.306   1.394
 4244SOL    HW124763   3.565   7.316   1.310
 4244SOL    HW224764   3.485   7.396   1.428
 4245SOL     OW24765   3.703   5.761   0.963
 4245SOL    HW124766   3.742   5.676   0.927
 4245SOL    HW224767   3.605   5.763   0.944
 4246SOL     OW24768   2.125   5.912   0.720
 4246SOL    HW124769   2.046   5.963   0.686
 4246SOL    HW224770   2.116   5.897   0.818
 4247SOL     OW24771   3.056   7.198   0.031
 4247SOL    HW124772   3.062   7.105   0.068
 4247SOL    HW224773   2.997   7.198  -0.049
 4248SOL     OW24774   2.684   6.588   1.372
 4248SOL    HW124775   2.724   6.587   1.280
 4248SOL    HW224776   2.694   6.680   1.412
 4249SOL     OW24777   2.778   6.496   0.291
 4249SOL    HW124778   2.841   6.534   0.223
 4249SOL    HW224779   2.818   6.413   0.330
 4250SOL     OW24780   3.366   7.193   0.044
 4250SOL    HW124781   3.274   7.230   0.051
 4250SOL    HW224782   3.404   7.213  -0.046
 4251SOL     OW24783   3.476   6.878   1.289
 4251SOL    HW124784   3.536   6.881   1.369
 4251SOL    HW224785   3.401   6.942   1.302
 4252SOL     OW24786   2.901   6.684   0.696
 4252SOL    HW124787   2.831   6.637   0.750
 4252SOL    HW224788   2.960   6.616   0.653
 4253SOL     OW24789   2.876   5.822   0.971
 4253SOL    HW124790   2.868   5.786   0.878
 4253SOL    HW224791   2.874   5.746   1.036
 4254SOL     OW24792   2.452   7.073   0.491
 4254SOL    HW124793   2.494   7.015   0.421
 4254SOL    HW224794   2.408   7.152   0.447
 4255SOL     OW24795   3.571   5.971   1.381
 4255SOL    HW124796   3.644   6.040   1.385
 4255SOL    HW224797   3.599   5.896   1.322
 4256SOL     OW24798   2.117   6.934   0.290
 4256SOL    HW124799   2.021   6.935   0.263
 4256SOL    HW224800   2.129   6.987   0.374
 4257SOL     OW24801   1.967   6.599   1.726
 4257SOL    HW124802   1.890   6.566   1.780
 4257SOL    HW224803   2.052   6.569   1.768
 4258SOL     OW24804   1.937   5.931   0.033
 4258SOL    HW124805   1.845   5.903   0.004
 4258SOL    HW224806   1.968   6.008  -0.023
 4259SOL     OW24807   3.302   6.442   1.398
 4259SOL    HW124808   3.245   6.494   1.335
 4259SOL    HW224809   3.398   6.454   1.374
 4260SOL     OW24810   1.934   5.752   0.318
 4260SOL    HW124811   1.917   5.835   0.264
 4260SOL    HW224812   2.024   5.715   0.296
 4261SOL     OW24813   3.045   6.921   0.119
 4261SOL    HW124814   2.946   6.910   0.121
 4261SOL    HW224815   3.079   6.936   0.212
 4262SOL     OW24816   2.475   6.428   1.431
 4262SOL    HW124817   2.531   6.509   1.414
 4262SOL    HW224818   2.534   6.348   1.434
 4263SOL     OW24819   3.355   7.353   0.959
 4263SOL    HW124820   3.388   7.417   0.890
 4263SOL    HW224821   3.421   7.347   1.034
 4264SOL     OW24822   3.312   6.806   1.633
 4264SOL    HW124823   3.303   6.796   1.732
 4264SOL    HW224824   3.408   6.799   1.607
 4265SOL     OW24825   2.252   7.327   1.560
 4265SOL    HW124826   2.161   7.368   1.558
 4265SOL    HW224827   2.245   7.233   1.592
 4266SOL     OW24828   3.536   6.469   1.254
 4266SOL    HW124829   3.509   6.380   1.217
 4266SOL    HW224830   3.537   6.537   1.181
 4267SOL     OW24831   3.087   5.911   0.449
 4267SOL    HW124832   3.152   5.837   0.438
 4267SOL    HW224833   3.107   5.961   0.533
 4268SOL     OW24834   2.456   6.331   0.652
 4268SOL    HW124835   2.506   6.416   0.633
 4268SOL    HW224836   2.368   6.333   0.604
 4269SOL     OW24837   3.639   5.928   1.642
 4269SOL    HW124838   3.622   5.959   1.548
 4269SOL    HW224839   3.555   5.891   1.680
 4270SOL     OW24840   3.592   6.520   1.517
 4270SOL    HW124841   3.630   6.611   1.532
 4270SOL    HW224842   3.584   6.503   1.418
 4271SOL     OW24843   2.721   6.960   0.016
 4271SOL    HW124844   2.675   6.975   0.104
 4271SOL    HW224845   2.765   7.045  -0.014
 4272SOL     OW24846   2.523   7.376   0.953
 4272SOL    HW124847   2.477   7.464   0.940
 4272SOL    HW224848   2.622   7.388   0.946
 4273SOL     OW24849   2.721   6.542   0.861
 4273SOL    HW124850   2.775   6.473   0.909
 4273SOL    HW224851   2.689   6.611   0.927
 4274SOL     OW24852   2.945   6.570   0.087
 4274SOL    HW124853   2.922   6.623   0.005
 4274SOL    HW224854   3.026   6.514   0.068
 4275SOL     OW24855   3.723   7.155   0.851
 4275SOL    HW124856   3.652   7.143   0.781
 4275SOL    HW224857   3.724   7.076   0.911
 4276SOL     OW24858   1.941   6.826   0.653
 4276SOL    HW124859   1.940   6.779   0.741
 4276SOL    HW224860   2.023   6.798   0.602
 4277SOL     OW24861   3.686   5.778   1.227
 4277SOL    HW124862   3.682   5.688   1.271
 4277SOL    HW224863   3.689   5.767   1.128
 4278SOL     OW24864   2.290   6.010   0.520
 4278SOL    HW124865   2.320   5.938   0.458
 4278SOL    HW224866   2.251   5.970   0.603
 4279SOL     OW24867   3.567   7.073   1.104
 4279SOL    HW124868   3.474   7.048   1.077
 4279SOL    HW224869   3.593   7.023   1.186
 4280SOL     OW24870   2.179   6.133   1.280
 4280SOL    HW124871   2.217   6.074   1.352
 4280SOL    HW224872   2.219   6.107   1.192
 4281SOL     OW24873   2.674   7.172   0.687
 4281SOL    HW124874   2.706   7.182   0.593
 4281SOL    HW224875   2.595   7.110   0.689
 4282SOL     OW24876   3.286   5.800   1.112
 4282SOL    HW124877   3.338   5.735   1.167
 4282SOL    HW224878   3.237   5.863   1.173
 4283SOL     OW24879   2.863   5.620   1.154
 4283SOL    HW124880   2.800   5.548   1.123
 4283SOL    HW224881   2.956   5.584   1.154
 4284SOL     OW24882   2.632   6.916   0.301
 4284SOL    HW124883   2.586   6.829   0.318
 4284SOL    HW224884   2.723   6.913   0.342
 4285SOL     OW24885   2.480   7.153   1.284
 4285SOL    HW124886   2.475   7.235   1.341
 4285SOL    HW224887   2.569   7.150   1.239
 4286SOL     OW24888   3.214   5.638   0.168
 4286SOL    HW124889   3.249   5.597   0.084
 4286SOL    HW224890   3.124   5.600   0.188
 4287SOL     OW24891   3.162   6.039   0.691
 4287SOL    HW124892   3.103   6.119   0.695
 4287SOL    HW224893   3.177   6.004   0.784
 4288SOL     OW24894   3.455   5.807   0.882
 4288SOL    HW124895   3.371   5.806   0.936
 4288SOL    HW224896   3.457   5.890   0.826
 4289SOL     OW24897   1.901   6.663   0.300
 4289SOL    HW124898   2.000   6.652   0.291
 4289SOL    HW224899   1.861   6.577   0.332
 4290SOL     OW24900   2.737   7.232   0.337
 4290SOL    HW124901   2.660   7.197   0.283
 4290SOL    HW224902   2.705   7.303   0.399
 4291SOL     OW24903   2.092   6.214   1.975
 4291SOL    HW124904   1.999   6.212   2.012
 4291SOL    HW224905   2.093   6.175   1.883
 4292SOL     OW24906   2.431   6.861   3.027
 4292SOL    HW124907   2.338   6.854   2.990
 4292SOL    HW224908   2.442   6.950   3.071
 4293SOL     OW24909   3.417   7.097   2.565
 4293SOL    HW124910   3.360   7.081   2.646
 4293SOL    HW224911   3.358   7.107   2.485
 4294SOL     OW24912   3.617   6.193   2.093
 4294SOL    HW124913   3.605   6.180   1.994
 4294SOL    HW224914   3.587   6.112   2.142
 4295SOL     OW24915   2.989   6.927   3.552
 4295SOL    HW124916   3.036   6.927   3.640
 4295SOL    HW224917   2.941   6.840   3.541
 4296SOL     OW24918   2.482   7.372   3.301
 4296SOL    HW124919   2.390   7.355   3.336
 4296SOL    HW224920   2.510   7.464   3.327
 4297SOL     OW24921   2.475   6.951   2.588
 4297SOL    HW124922   2.426   6.864   2.597
 4297SOL    HW224923   2.452   6.994   2.501
 4298SOL     OW24924   3.387   6.585   2.052
 4298SOL    HW124925   3.324   6.509   2.065
 4298SOL    HW224926   3.435   6.603   2.138
 4299SOL     OW24927   3.049   7.378   3.478
 4299SOL    HW124928   3.073   7.438   3.402
 4299SOL    HW224929   3.056   7.283   3.448
 4300SOL     OW24930   3.328   7.003   2.815
 4300SOL    HW124931   3.269   7.009   2.895
 4300SOL    HW224932   3.313   6.915   2.769
 4301SOL     OW24933   3.529   7.300   2.434
 4301SOL    HW124934   3.488   7.277   2.346
 4301SOL    HW224935   3.511   7.226   2.499
 4302SOL     OW24936   3.438   7.248   2.169
 4302SOL    HW124937   3.527   7.294   2.172
 4302SOL    HW224938   3.417   7.224   2.074
 4303SOL     OW24939   2.853   5.996   3.104
 4303SOL    HW124940   2.776   6.030   3.158
 4303SOL    HW224941   2.819   5.945   3.025
 4304SOL     OW24942   1.992   7.407   3.433
 4304SOL    HW124943   1.982   7.392   3.532
 4304SOL    HW224944   1.906   7.443   3.397
 4305SOL     OW24945   2.870   7.042   2.339
 4305SOL    HW124946   2.824   7.114   2.287
 4305SOL    HW224947   2.866   7.062   2.437
 4306SOL     OW24948   3.089   7.136   3.368
 4306SOL    HW124949   3.095   7.059   3.432
 4306SOL    HW224950   3.037   7.110   3.288
 4307SOL     OW24951   2.183   6.529   2.104
 4307SOL    HW124952   2.265   6.568   2.062
 4307SOL    HW224953   2.156   6.447   2.055
 4308SOL     OW24954   2.973   7.362   2.099
 4308SOL    HW124955   2.913   7.300   2.149
 4308SOL    HW224956   3.004   7.318   2.014
 4309SOL     OW24957   3.494   6.963   1.943
 4309SOL    HW124958   3.462   7.057   1.933
 4309SOL    HW224959   3.418   6.900   1.931
 4310SOL     OW24960   2.111   7.371   3.103
 4310SOL    HW124961   2.168   7.306   3.153
 4310SOL    HW224962   2.095   7.338   3.010
 4311SOL     OW24963   2.802   7.284   2.766
 4311SOL    HW124964   2.882   7.227   2.787
 4311SOL    HW224965   2.753   7.244   2.689
 4312SOL     OW24966   2.665   6.988   2.786
 4312SOL    HW124967   2.755   7.002   2.744
 4312SOL    HW224968   2.594   6.990   2.715
 4313SOL     OW24969   3.296   6.774   1.903
 4313SOL    HW124970   3.328   6.698   1.960
 4313SOL    HW224971   3.204   6.801   1.933
 4314SOL     OW24972   2.797   5.822   2.342
 4314SOL    HW124973   2.749   5.863   2.264
 4314SOL    HW224974   2.896   5.820   2.323
 4315SOL     OW24975   3.089   7.156   2.655
 4315SOL    HW124976   3.110   7.230   2.590
 4315SOL    HW224977   3.157   7.156   2.728
 4316SOL     OW24978   3.133   7.383   2.453
 4316SOL    HW124979   3.177   7.447   2.389
 4316SOL    HW224980   3.083   7.435   2.523
 4317SOL     OW24981   1.940   6.142   3.248
 4317SOL    HW124982   2.032   6.141   3.207
 4317SOL    HW224983   1.934   6.216   3.315
 4318SOL     OW24984   3.291   6.759   2.729
 4318SOL    HW124985   3.236   6.675   2.722
 4318SOL    HW224986   3.317   6.788   2.637
 4319SOL     OW24987   3.252   6.161   1.940
 4319SOL    HW124988   3.198   6.140   2.021
 4319SOL    HW224989   3.343   6.120   1.949
 4320SOL     OW24990   2.973   6.781   2.962
 4320SOL    HW124991   2.933   6.825   3.043
 4320SOL    HW224992   2.932   6.818   2.879
 4321SOL     OW24993   2.777   5.675   3.264
 4321SOL    HW124994   2.802   5.655   3.169
 4321SOL    HW224995   2.849   5.731   3.306
 4322SOL     OW24996   3.136   5.972   3.124
 4322SOL    HW124997   3.157   6.046   3.188
 4322SOL    HW224998   3.047   5.989   3.081
 4323SOL     OW24999   2.875   5.691   3.632
 4323SOL    HW125000   2.881   5.776   3.580
 4323SOL    HW225001   2.907   5.615   3.575
 4324SOL     OW25002   2.366   5.636   3.602
 4324SOL    HW125003   2.324   5.579   3.532
 4324SOL    HW225004   2.300   5.705   3.634
 4325SOL     OW25005   2.885   6.352   2.828
 4325SOL    HW125006   2.900   6.373   2.924
 4325SOL    HW225007   2.855   6.257   2.819
 4326SOL     OW25008   3.721   7.104   3.467
 4326SOL    HW125009   3.735   7.131   3.372
 4326SOL    HW225010   3.804   7.126   3.520
 4327SOL     OW25011   3.402   5.860   1.987
 4327SOL    HW125012   3.341   5.785   2.010
 4327SOL    HW225013   3.424   5.912   2.070
 4328SOL     OW25014   3.165   6.424   1.904
 4328SOL    HW125015   3.199   6.331   1.919
 4328SOL    HW225016   3.183   6.451   1.809
 4329SOL     OW25017   2.181   6.396   2.811
 4329SOL    HW125018   2.274   6.432   2.816
 4329SOL    HW225019   2.175   6.311   2.863
 4330SOL     OW25020   2.201   6.095   2.868
 4330SOL    HW125021   2.149   6.012   2.851
 4330SOL    HW225022   2.278   6.100   2.804
 4331SOL     OW25023   3.000   5.966   3.540
 4331SOL    HW125024   2.955   6.029   3.604
 4331SOL    HW225025   3.093   5.997   3.523
 4332SOL     OW25026   2.864   6.382   3.100
 4332SOL    HW125027   2.905   6.350   3.186
 4332SOL    HW225028   2.768   6.355   3.097
 4333SOL     OW25029   3.519   6.190   3.068
 4333SOL    HW125030   3.481   6.121   3.130
 4333SOL    HW225031   3.601   6.154   3.024
 4334SOL     OW25032   2.114   7.150   3.606
 4334SOL    HW125033   2.084   7.207   3.682
 4334SOL    HW225034   2.107   7.053   3.632
 4335SOL     OW25035   2.021   6.723   3.328
 4335SOL    HW125036   2.043   6.662   3.404
 4335SOL    HW225037   2.031   6.674   3.242
 4336SOL     OW25038   3.209   6.645   3.096
 4336SOL    HW125039   3.233   6.582   3.022
 4336SOL    HW225040   3.119   6.685   3.078
 4337SOL     OW25041   3.621   7.333   3.016
 4337SOL    HW125042   3.682   7.363   2.943
 4337SOL    HW225043   3.583   7.244   2.994
 4338SOL     OW25044   3.114   7.317   2.990
 4338SOL    HW125045   3.198   7.322   2.936
 4338SOL    HW225046   3.091   7.221   3.008
 4339SOL     OW25047   1.992   7.380   3.713
 4339SOL    HW125048   1.951   7.306   3.766
 4339SOL    HW225049   2.056   7.431   3.771
 4340SOL     OW25050   2.692   6.859   3.284
 4340SOL    HW125051   2.687   6.892   3.379
 4340SOL    HW225052   2.606   6.878   3.238
 4341SOL     OW25053   3.056   7.198   1.893
 4341SOL    HW125054   3.062   7.105   1.930
 4341SOL    HW225055   2.997   7.198   1.813
 4342SOL     OW25056   3.366   7.193   1.906
 4342SOL    HW125057   3.274   7.230   1.913
 4342SOL    HW225058   3.404   7.213   1.816
 4343SOL     OW25059   3.302   6.442   3.260
 4343SOL    HW125060   3.245   6.494   3.197
 4343SOL    HW225061   3.398   6.454   3.236
 4344SOL     OW25062   2.475   6.428   3.293
 4344SOL    HW125063   2.531   6.509   3.276
 4344SOL    HW225064   2.534   6.348   3.296
 4345SOL     OW25065   2.252   7.327   3.422
 4345SOL    HW125066   2.161   7.368   3.420
 4345SOL    HW225067   2.245   7.233   3.454
 4346SOL     OW25068   3.639   5.928   3.504
 4346SOL    HW125069   3.622   5.959   3.410
 4346SOL    HW225070   3.555   5.891   3.542
 4347SOL     OW25071   2.721   6.960   1.878
 4347SOL    HW125072   2.675   6.975   1.966
 4347SOL    HW225073   2.765   7.045   1.848
 4348SOL     OW25074   2.523   7.376   2.815
 4348SOL    HW125075   2.477   7.464   2.802
 4348SOL    HW225076   2.622   7.388   2.808
 4349SOL     OW25077   2.290   6.010   2.382
 4349SOL    HW125078   2.320   5.938   2.320
 4349SOL    HW225079   2.251   5.970   2.465
 4350SOL     OW25080   2.179   6.133   3.142
 4350SOL    HW125081   2.217   6.074   3.214
 4350SOL    HW225082   2.219   6.107   3.054
 4351SOL     OW25083   2.632   6.916   2.163
 4351SOL    HW125084   2.586   6.829   2.180
 4351SOL    HW225085   2.723   6.913   2.204
 4352SOL     OW25086   3.162   6.039   2.553
 4352SOL    HW125087   3.103   6.119   2.557
 4352SOL    HW225088   3.177   6.004   2.646
 4353SOL     OW25089   3.455   5.807   2.744
 4353SOL    HW125090   3.371   5.806   2.798
 4353SOL    HW225091   3.457   5.890   2.688
 4354SOL     OW25092   1.901   6.663   2.162
 4354SOL    HW125093   2.000   6.652   2.153
 4354SOL    HW225094   1.861   6.577   2.194
 4355SOL     OW25095   2.092   6.214   3.837
 4355SOL    HW125096   1.999   6.212   3.874
 4355SOL    HW225097   2.093   6.175   3.745
 4356SOL     OW25098   3.417   7.097   4.427
 4356SOL    HW125099   3.360   7.081   4.508
 4356SOL    HW225100   3.358   7.107   4.347
 4357SOL     OW25101   2.197   7.021   4.785
 4357SOL    HW125102   2.119   6.990   4.732
 4357SOL    HW225103   2.255   7.079   4.728
 4358SOL     OW25104   3.465   6.033   4.461
 4358SOL    HW125105   3.391   6.079   4.411
 4358SOL    HW225106   3.516   6.101   4.514
 4359SOL     OW25107   2.092   7.020   4.262
 4359SOL    HW125108   2.066   7.116   4.262
 4359SOL    HW225109   2.021   6.966   4.307
 4360SOL     OW25110   2.102   6.677   4.610
 4360SOL    HW125111   2.116   6.593   4.662
 4360SOL    HW225112   2.047   6.741   4.665
 4361SOL     OW25113   2.468   6.550   3.847
 4361SOL    HW125114   2.475   6.634   3.793
 4361SOL    HW225115   2.514   6.563   3.935
 4362SOL     OW25116   1.889   7.182   3.841
 4362SOL    HW125117   1.870   7.086   3.862
 4362SOL    HW225118   1.856   7.240   3.916
 4363SOL     OW25119   3.503   6.694   4.156
 4363SOL    HW125120   3.589   6.696   4.104
 4363SOL    HW225121   3.517   6.741   4.244
 4364SOL     OW25122   1.975   6.323   5.321
 4364SOL    HW125123   2.063   6.310   5.366
 4364SOL    HW225124   1.962   6.420   5.299
 4365SOL     OW25125   3.155   6.814   5.147
 4365SOL    HW125126   3.192   6.741   5.089
 4365SOL    HW225127   3.207   6.819   5.232
 4366SOL     OW25128   3.387   6.585   3.914
 4366SOL    HW125129   3.324   6.509   3.927
 4366SOL    HW225130   3.435   6.603   4.000
 4367SOL     OW25131   3.328   7.003   4.677
 4367SOL    HW125132   3.269   7.009   4.757
 4367SOL    HW225133   3.313   6.915   4.631
 4368SOL     OW25134   2.460   6.315   3.994
 4368SOL    HW125135   2.484   6.384   3.926
 4368SOL    HW225136   2.382   6.348   4.048
 4369SOL     OW25137   2.835   6.476   5.296
 4369SOL    HW125138   2.881   6.392   5.267
 4369SOL    HW225139   2.779   6.510   5.221
 4370SOL     OW25140   1.992   7.407   5.295
 4370SOL    HW125141   1.982   7.392   5.394
 4370SOL    HW225142   1.906   7.443   5.259
 4371SOL     OW25143   2.412   5.782   4.609
 4371SOL    HW125144   2.407   5.777   4.709
 4371SOL    HW225145   2.414   5.878   4.580
 4372SOL     OW25146   2.183   6.529   3.966
 4372SOL    HW125147   2.265   6.568   3.924
 4372SOL    HW225148   2.156   6.447   3.917
 4373SOL     OW25149   2.323   6.852   5.451
 4373SOL    HW125150   2.273   6.853   5.365
 4373SOL    HW225151   2.260   6.834   5.527
 4374SOL     OW25152   2.064   5.871   5.222
 4374SOL    HW125153   1.984   5.931   5.209
 4374SOL    HW225154   2.054   5.822   5.308
 4375SOL     OW25155   3.262   5.693   4.150
 4375SOL    HW125156   3.238   5.656   4.060
 4375SOL    HW225157   3.361   5.709   4.154
 4376SOL     OW25158   2.476   5.708   3.841
 4376SOL    HW125159   2.574   5.686   3.848
 4376SOL    HW225160   2.445   5.691   3.748
 4377SOL     OW25161   3.296   6.774   3.765
 4377SOL    HW125162   3.328   6.698   3.822
 4377SOL    HW225163   3.204   6.801   3.795
 4378SOL     OW25164   3.133   7.383   4.315
 4378SOL    HW125165   3.177   7.447   4.251
 4378SOL    HW225166   3.083   7.435   4.385
 4379SOL     OW25167   3.526   6.866   4.381
 4379SOL    HW125168   3.625   6.874   4.395
 4379SOL    HW225169   3.481   6.950   4.412
 4380SOL     OW25170   3.616   6.809   5.312
 4380SOL    HW125171   3.707   6.770   5.299
 4380SOL    HW225172   3.624   6.905   5.336
 4381SOL     OW25173   3.136   5.972   4.986
 4381SOL    HW125174   3.157   6.046   5.050
 4381SOL    HW225175   3.047   5.989   4.943
 4382SOL     OW25176   2.229   6.686   4.225
 4382SOL    HW125177   2.222   6.769   4.169
 4382SOL    HW225178   2.233   6.606   4.165
 4383SOL     OW25179   3.449   6.365   5.394
 4383SOL    HW125180   3.357   6.403   5.389
 4383SOL    HW225181   3.509   6.412   5.329
 4384SOL     OW25182   2.366   5.636   5.464
 4384SOL    HW125183   2.324   5.579   5.394
 4384SOL    HW225184   2.300   5.705   5.496
 4385SOL     OW25185   2.435   6.456   4.753
 4385SOL    HW125186   2.479   6.545   4.744
 4385SOL    HW225187   2.372   6.456   4.830
 4386SOL     OW25188   3.071   6.111   3.999
 4386SOL    HW125189   3.084   6.027   4.053
 4386SOL    HW225190   3.042   6.185   4.059
 4387SOL     OW25191   2.169   5.799   4.955
 4387SOL    HW125192   2.146   5.836   5.045
 4387SOL    HW225193   2.139   5.704   4.949
 4388SOL     OW25194   2.212   6.484   5.528
 4388SOL    HW125195   2.288   6.528   5.576
 4388SOL    HW225196   2.247   6.437   5.446
 4389SOL     OW25197   3.165   6.424   3.766
 4389SOL    HW125198   3.199   6.331   3.781
 4389SOL    HW225199   3.183   6.451   3.671
 4390SOL     OW25200   1.870   6.912   3.924
 4390SOL    HW125201   1.777   6.933   3.893
 4390SOL    HW225202   1.880   6.813   3.937
 4391SOL     OW25203   3.231   6.536   5.384
 4391SOL    HW125204   3.270   6.625   5.404
 4391SOL    HW225205   3.241   6.516   5.287
 4392SOL     OW25206   3.209   6.645   4.958
 4392SOL    HW125207   3.233   6.582   4.884
 4392SOL    HW225208   3.119   6.685   4.940
 4393SOL     OW25209   3.164   6.441   4.033
 4393SOL    HW125210   3.078   6.410   4.075
 4393SOL    HW225211   3.160   6.427   3.934
 4394SOL     OW25212   3.621   7.333   4.878
 4394SOL    HW125213   3.682   7.363   4.805
 4394SOL    HW225214   3.583   7.244   4.856
 4395SOL     OW25215   3.588   5.721   4.247
 4395SOL    HW125216   3.661   5.704   4.180
 4395SOL    HW225217   3.557   5.634   4.285
 4396SOL     OW25218   3.250   7.159   4.201
 4396SOL    HW125219   3.317   7.171   4.127
 4396SOL    HW225220   3.210   7.248   4.224
 4397SOL     OW25221   3.142   6.513   4.396
 4397SOL    HW125222   3.202   6.432   4.398
 4397SOL    HW225223   3.182   6.582   4.336
 4398SOL     OW25224   2.692   6.859   5.146
 4398SOL    HW125225   2.687   6.892   5.241
 4398SOL    HW225226   2.606   6.878   5.100
 4399SOL     OW25227   3.703   5.761   4.687
 4399SOL    HW125228   3.742   5.676   4.651
 4399SOL    HW225229   3.605   5.763   4.668
 4400SOL     OW25230   2.684   6.588   5.096
 4400SOL    HW125231   2.724   6.587   5.004
 4400SOL    HW225232   2.694   6.680   5.136
 4401SOL     OW25233   2.778   6.496   4.015
 4401SOL    HW125234   2.841   6.534   3.947
 4401SOL    HW225235   2.818   6.413   4.054
 4402SOL     OW25236   3.476   6.878   5.013
 4402SOL    HW125237   3.536   6.881   5.093
 4402SOL    HW225238   3.401   6.942   5.026
 4403SOL     OW25239   2.901   6.684   4.420
 4403SOL    HW125240   2.831   6.637   4.474
 4403SOL    HW225241   2.960   6.616   4.377
 4404SOL     OW25242   1.967   6.599   5.450
 4404SOL    HW125243   1.890   6.566   5.504
 4404SOL    HW225244   2.052   6.569   5.492
 4405SOL     OW25245   3.302   6.442   5.122
 4405SOL    HW125246   3.245   6.494   5.059
 4405SOL    HW225247   3.398   6.454   5.098
 4406SOL     OW25248   1.934   5.752   4.042
 4406SOL    HW125249   1.917   5.835   3.988
 4406SOL    HW225250   2.024   5.715   4.020
 4407SOL     OW25251   3.045   6.921   3.843
 4407SOL    HW125252   2.946   6.910   3.845
 4407SOL    HW225253   3.079   6.936   3.936
 4408SOL     OW25254   3.312   6.806   5.357
 4408SOL    HW125255   3.303   6.796   5.456
 4408SOL    HW225256   3.408   6.799   5.331
 4409SOL     OW25257   2.456   6.331   4.376
 4409SOL    HW125258   2.506   6.416   4.357
 4409SOL    HW225259   2.368   6.333   4.328
 4410SOL     OW25260   2.721   6.960   3.740
 4410SOL    HW125261   2.675   6.975   3.828
 4410SOL    HW225262   2.765   7.045   3.710
 4411SOL     OW25263   2.523   7.376   4.677
 4411SOL    HW125264   2.477   7.464   4.664
 4411SOL    HW225265   2.622   7.388   4.670
 4412SOL     OW25266   2.721   6.542   4.585
 4412SOL    HW125267   2.775   6.473   4.633
 4412SOL    HW225268   2.689   6.611   4.651
 4413SOL     OW25269   2.534   6.977   5.348
 4413SOL    HW125270   2.456   6.927   5.386
 4413SOL    HW225271   2.531   7.072   5.379
 4414SOL     OW25272   3.567   7.073   4.828
 4414SOL    HW125273   3.474   7.048   4.801
 4414SOL    HW225274   3.593   7.023   4.910
 4415SOL     OW25275   2.632   6.916   4.025
 4415SOL    HW125276   2.586   6.829   4.042
 4415SOL    HW225277   2.723   6.913   4.066
 4416SOL     OW25278   3.455   5.807   4.606
 4416SOL    HW125279   3.371   5.806   4.660
 4416SOL    HW225280   3.457   5.890   4.550
 4417SOL     OW25281   2.087   5.861   6.582
 4417SOL    HW125282   2.122   5.844   6.674
 4417SOL    HW225283   1.999   5.816   6.570
 4418SOL     OW25284   1.881   5.954   6.233
 4418SOL    HW125285   1.799   5.997   6.272
 4418SOL    HW225286   1.853   5.881   6.170
 4419SOL     OW25287   2.431   6.861   6.751
 4419SOL    HW125288   2.338   6.854   6.714
 4419SOL    HW225289   2.442   6.950   6.795
 4420SOL     OW25290   3.417   7.097   6.289
 4420SOL    HW125291   3.360   7.081   6.370
 4420SOL    HW225292   3.358   7.107   6.209
 4421SOL     OW25293   2.997   6.289   6.303
 4421SOL    HW125294   3.054   6.367   6.278
 4421SOL    HW225295   2.937   6.315   6.379
 4422SOL     OW25296   2.630   6.730   6.609
 4422SOL    HW125297   2.552   6.747   6.669
 4422SOL    HW225298   2.664   6.817   6.573
 4423SOL     OW25299   2.712   6.384   7.409
 4423SOL    HW125300   2.708   6.460   7.474
 4423SOL    HW225301   2.734   6.420   7.318
 4424SOL     OW25302   2.547   6.598   6.251
 4424SOL    HW125303   2.616   6.582   6.321
 4424SOL    HW225304   2.474   6.655   6.289
 4425SOL     OW25305   2.548   6.747   7.389
 4425SOL    HW125306   2.608   6.826   7.403
 4425SOL    HW225307   2.462   6.778   7.348
 4426SOL     OW25308   2.197   7.021   6.647
 4426SOL    HW125309   2.119   6.990   6.594
 4426SOL    HW225310   2.255   7.079   6.590
 4427SOL     OW25311   3.322   7.091   6.925
 4427SOL    HW125312   3.346   7.185   6.951
 4427SOL    HW225313   3.306   7.037   7.007
 4428SOL     OW25314   2.300   5.978   7.085
 4428SOL    HW125315   2.382   5.922   7.094
 4428SOL    HW225316   2.219   5.920   7.089
 4429SOL     OW25317   3.465   6.033   6.323
 4429SOL    HW125318   3.391   6.079   6.273
 4429SOL    HW225319   3.516   6.101   6.376
 4430SOL     OW25320   2.093   7.299   6.069
 4430SOL    HW125321   2.127   7.376   6.123
 4430SOL    HW225322   2.137   7.299   5.979
 4431SOL     OW25323   2.989   6.927   7.276
 4431SOL    HW125324   3.036   6.927   7.364
 4431SOL    HW225325   2.941   6.840   7.265
 4432SOL     OW25326   2.092   7.020   6.124
 4432SOL    HW125327   2.066   7.116   6.124
 4432SOL    HW225328   2.021   6.966   6.169
 4433SOL     OW25329   2.102   6.677   6.472
 4433SOL    HW125330   2.116   6.593   6.524
 4433SOL    HW225331   2.047   6.741   6.527
 4434SOL     OW25332   2.482   7.372   7.025
 4434SOL    HW125333   2.390   7.355   7.060
 4434SOL    HW225334   2.510   7.464   7.051
 4435SOL     OW25335   3.456   5.700   7.066
 4435SOL    HW125336   3.438   5.767   6.994
 4435SOL    HW225337   3.453   5.746   7.155
 4436SOL     OW25338   1.984   6.229   6.149
 4436SOL    HW125339   1.939   6.141   6.166
 4436SOL    HW225340   1.983   6.283   6.233
 4437SOL     OW25341   3.704   7.353   5.945
 4437SOL    HW125342   3.758   7.324   6.025
 4437SOL    HW225343   3.734   7.443   5.916
 4438SOL     OW25344   3.551   6.508   6.198
 4438SOL    HW125345   3.646   6.479   6.206
 4438SOL    HW225346   3.543   6.573   6.123
 4439SOL     OW25347   3.503   6.694   6.018
 4439SOL    HW125348   3.589   6.696   5.966
 4439SOL    HW225349   3.517   6.741   6.106
 4440SOL     OW25350   1.975   6.323   7.183
 4440SOL    HW125351   2.063   6.310   7.228
 4440SOL    HW225352   1.962   6.420   7.161
 4441SOL     OW25353   2.475   6.951   6.312
 4441SOL    HW125354   2.426   6.864   6.321
 4441SOL    HW225355   2.452   6.994   6.225
 4442SOL     OW25356   3.155   6.814   7.009
 4442SOL    HW125357   3.192   6.741   6.951
 4442SOL    HW225358   3.207   6.819   7.094
 4443SOL     OW25359   2.671   5.590   6.088
 4443SOL    HW125360   2.711   5.681   6.079
 4443SOL    HW225361   2.571   5.598   6.094
 4444SOL     OW25362   2.059   6.562   6.850
 4444SOL    HW125363   2.148   6.517   6.836
 4444SOL    HW225364   1.986   6.497   6.831
 4445SOL     OW25365   3.049   7.378   7.202
 4445SOL    HW125366   3.073   7.438   7.126
 4445SOL    HW225367   3.056   7.283   7.172
 4446SOL     OW25368   2.179   5.837   7.387
 4446SOL    HW125369   2.250   5.908   7.393
 4446SOL    HW225370   2.091   5.876   7.415
 4447SOL     OW25371   3.328   7.003   6.539
 4447SOL    HW125372   3.269   7.009   6.619
 4447SOL    HW225373   3.313   6.915   6.493
 4448SOL     OW25374   2.460   6.315   5.856
 4448SOL    HW125375   2.484   6.384   5.788
 4448SOL    HW225376   2.382   6.348   5.910
 4449SOL     OW25377   3.143   5.931   6.530
 4449SOL    HW125378   3.057   5.881   6.517
 4449SOL    HW225379   3.205   5.877   6.586
 4450SOL     OW25380   2.669   6.191   7.051
 4450SOL    HW125381   2.622   6.188   7.140
 4450SOL    HW225382   2.618   6.136   6.985
 4451SOL     OW25383   2.835   6.476   7.158
 4451SOL    HW125384   2.881   6.392   7.129
 4451SOL    HW225385   2.779   6.510   7.083
 4452SOL     OW25386   2.853   5.996   6.828
 4452SOL    HW125387   2.776   6.030   6.882
 4452SOL    HW225388   2.819   5.945   6.749
 4453SOL     OW25389   2.903   6.287   6.015
 4453SOL    HW125390   2.929   6.283   6.111
 4453SOL    HW225391   2.818   6.236   6.001
 4454SOL     OW25392   1.938   6.397   6.375
 4454SOL    HW125393   2.037   6.385   6.384
 4454SOL    HW225394   1.914   6.492   6.396
 4455SOL     OW25395   1.992   7.407   7.157
 4455SOL    HW125396   1.982   7.392   7.256
 4455SOL    HW225397   1.906   7.443   7.121
 4456SOL     OW25398   2.727   5.934   5.781
 4456SOL    HW125399   2.786   5.997   5.732
 4456SOL    HW225400   2.746   5.840   5.752
 4457SOL     OW25401   3.224   6.730   6.131
 4457SOL    HW125402   3.307   6.701   6.083
 4457SOL    HW225403   3.175   6.797   6.075
 4458SOL     OW25404   2.412   5.782   6.471
 4458SOL    HW125405   2.407   5.777   6.571
 4458SOL    HW225406   2.414   5.878   6.442
 4459SOL     OW25407   2.870   7.042   6.063
 4459SOL    HW125408   2.824   7.114   6.011
 4459SOL    HW225409   2.866   7.062   6.161
 4460SOL     OW25410   2.213   7.387   6.439
 4460SOL    HW125411   2.263   7.301   6.445
 4460SOL    HW225412   2.278   7.464   6.436
 4461SOL     OW25413   3.657   6.652   6.459
 4461SOL    HW125414   3.595   6.637   6.383
 4461SOL    HW225415   3.605   6.663   6.544
 4462SOL     OW25416   3.089   7.136   7.092
 4462SOL    HW125417   3.095   7.059   7.156
 4462SOL    HW225418   3.037   7.110   7.012
 4463SOL     OW25419   2.183   6.529   5.828
 4463SOL    HW125420   2.265   6.568   5.786
 4463SOL    HW225421   2.156   6.447   5.779
 4464SOL     OW25422   3.320   6.321   6.314
 4464SOL    HW125423   3.315   6.256   6.389
 4464SOL    HW225424   3.400   6.380   6.327
 4465SOL     OW25425   2.323   6.852   7.313
 4465SOL    HW125426   2.273   6.853   7.227
 4465SOL    HW225427   2.260   6.834   7.389
 4466SOL     OW25428   2.973   7.362   5.823
 4466SOL    HW125429   2.913   7.300   5.873
 4466SOL    HW225430   3.004   7.318   5.738
 4467SOL     OW25431   2.064   5.871   7.084
 4467SOL    HW125432   1.984   5.931   7.071
 4467SOL    HW225433   2.054   5.822   7.170
 4468SOL     OW25434   3.494   6.963   5.667
 4468SOL    HW125435   3.462   7.057   5.657
 4468SOL    HW225436   3.418   6.900   5.655
 4469SOL     OW25437   2.326   7.329   5.909
 4469SOL    HW125438   2.359   7.368   5.995
 4469SOL    HW225439   2.402   7.322   5.844
 4470SOL     OW25440   3.262   5.693   6.012
 4470SOL    HW125441   3.238   5.656   5.922
 4470SOL    HW225442   3.361   5.709   6.016
 4471SOL     OW25443   2.111   7.371   6.827
 4471SOL    HW125444   2.168   7.306   6.877
 4471SOL    HW225445   2.095   7.338   6.734
 4472SOL     OW25446   2.802   7.284   6.490
 4472SOL    HW125447   2.882   7.227   6.511
 4472SOL    HW225448   2.753   7.244   6.413
 4473SOL     OW25449   2.244   6.286   6.066
 4473SOL    HW125450   2.289   6.196   6.063
 4473SOL    HW225451   2.150   6.275   6.099
 4474SOL     OW25452   2.643   5.850   7.335
 4474SOL    HW125453   2.710   5.789   7.378
 4474SOL    HW225454   2.570   5.869   7.400
 4475SOL     OW25455   2.750   7.100   6.781
 4475SOL    HW125456   2.727   7.075   6.687
 4475SOL    HW225457   2.811   7.031   6.820
 4476SOL     OW25458   3.213   6.176   7.019
 4476SOL    HW125459   3.241   6.133   7.104
 4476SOL    HW225460   3.238   6.272   7.020
 4477SOL     OW25461   2.665   6.988   6.510
 4477SOL    HW125462   2.755   7.002   6.468
 4477SOL    HW225463   2.594   6.990   6.439
 4478SOL     OW25464   2.784   6.089   6.485
 4478SOL    HW125465   2.759   6.080   6.389
 4478SOL    HW225466   2.832   6.007   6.516
 4479SOL     OW25467   2.401   5.650   6.098
 4479SOL    HW125468   2.320   5.651   6.156
 4479SOL    HW225469   2.404   5.733   6.043
 4480SOL     OW25470   2.159   5.621   5.757
 4480SOL    HW125471   2.208   5.705   5.736
 4480SOL    HW225472   2.221   5.556   5.802
 4481SOL     OW25473   2.797   5.822   6.066
 4481SOL    HW125474   2.749   5.863   5.988
 4481SOL    HW225475   2.896   5.820   6.047
 4482SOL     OW25476   2.938   6.269   7.050
 4482SOL    HW125477   2.858   6.208   7.053
 4482SOL    HW225478   3.019   6.216   7.026
 4483SOL     OW25479   3.089   7.156   6.379
 4483SOL    HW125480   3.110   7.230   6.314
 4483SOL    HW225481   3.157   7.156   6.452
 4484SOL     OW25482   2.321   6.738   6.327
 4484SOL    HW125483   2.250   6.711   6.392
 4484SOL    HW225484   2.295   6.710   6.234
 4485SOL     OW25485   3.133   7.383   6.177
 4485SOL    HW125486   3.177   7.447   6.113
 4485SOL    HW225487   3.083   7.435   6.247
 4486SOL     OW25488   1.940   6.142   6.972
 4486SOL    HW125489   2.032   6.141   6.931
 4486SOL    HW225490   1.934   6.216   7.039
 4487SOL     OW25491   2.423   5.808   6.733
 4487SOL    HW125492   2.461   5.724   6.770
 4487SOL    HW225493   2.335   5.827   6.777
 4488SOL     OW25494   2.728   6.040   6.228
 4488SOL    HW125495   2.696   6.112   6.166
 4488SOL    HW225496   2.752   5.959   6.175
 4489SOL     OW25497   2.879   5.625   6.339
 4489SOL    HW125498   2.807   5.630   6.270
 4489SOL    HW225499   2.855   5.556   6.408
 4490SOL     OW25500   3.291   6.759   6.453
 4490SOL    HW125501   3.236   6.675   6.446
 4490SOL    HW225502   3.317   6.788   6.361
 4491SOL     OW25503   3.328   6.176   6.578
 4491SOL    HW125504   3.298   6.081   6.585
 4491SOL    HW225505   3.401   6.192   6.644
 4492SOL     OW25506   2.350   6.971   5.760
 4492SOL    HW125507   2.263   6.956   5.807
 4492SOL    HW225508   2.333   6.997   5.665
 4493SOL     OW25509   3.526   6.866   6.243
 4493SOL    HW125510   3.625   6.874   6.257
 4493SOL    HW225511   3.481   6.950   6.274
 4494SOL     OW25512   3.252   6.161   5.664
 4494SOL    HW125513   3.198   6.140   5.745
 4494SOL    HW225514   3.343   6.120   5.673
 4495SOL     OW25515   3.616   6.809   7.174
 4495SOL    HW125516   3.707   6.770   7.161
 4495SOL    HW225517   3.624   6.905   7.198
 4496SOL     OW25518   2.926   6.933   6.926
 4496SOL    HW125519   2.846   6.910   6.981
 4496SOL    HW225520   3.009   6.907   6.975
 4497SOL     OW25521   3.454   7.215   7.211
 4497SOL    HW125522   3.481   7.249   7.121
 4497SOL    HW225523   3.533   7.177   7.257
 4498SOL     OW25524   2.973   6.781   6.686
 4498SOL    HW125525   2.933   6.825   6.767
 4498SOL    HW225526   2.932   6.818   6.603
 4499SOL     OW25527   3.500   6.685   6.665
 4499SOL    HW125528   3.505   6.766   6.724
 4499SOL    HW225529   3.414   6.687   6.614
 4500SOL     OW25530   2.777   5.675   6.988
 4500SOL    HW125531   2.802   5.655   6.893
 4500SOL    HW225532   2.849   5.731   7.030
 4501SOL     OW25533   2.842   6.702   7.305
 4501SOL    HW125534   2.743   6.708   7.315
 4501SOL    HW225535   2.865   6.622   7.249
 4502SOL     OW25536   2.567   6.636   5.954
 4502SOL    HW125537   2.553   6.643   6.053
 4502SOL    HW225538   2.651   6.585   5.936
 4503SOL     OW25539   2.272   6.399   6.837
 4503SOL    HW125540   2.358   6.411   6.887
 4503SOL    HW225541   2.230   6.312   6.864
 4504SOL     OW25542   3.136   5.972   6.848
 4504SOL    HW125543   3.157   6.046   6.912
 4504SOL    HW225544   3.047   5.989   6.805
 4505SOL     OW25545   1.926   7.150   6.917
 4505SOL    HW125546   1.880   7.232   6.883
 4505SOL    HW225547   2.024   7.169   6.926
 4506SOL     OW25548   2.229   6.686   6.087
 4506SOL    HW125549   2.222   6.769   6.031
 4506SOL    HW225550   2.233   6.606   6.027
 4507SOL     OW25551   2.428   6.123   6.451
 4507SOL    HW125552   2.440   6.189   6.377
 4507SOL    HW225553   2.474   6.157   6.534
 4508SOL     OW25554   3.114   6.934   5.974
 4508SOL    HW125555   3.164   7.011   6.014
 4508SOL    HW225556   3.019   6.936   6.006
 4509SOL     OW25557   3.134   7.031   6.728
 4509SOL    HW125558   3.181   7.044   6.815
 4509SOL    HW225559   3.068   6.957   6.737
 4510SOL     OW25560   3.444   6.225   6.058
 4510SOL    HW125561   3.413   6.286   6.131
 4510SOL    HW225562   3.494   6.277   5.989
 4511SOL     OW25563   2.216   7.096   6.915
 4511SOL    HW125564   2.195   7.052   6.828
 4511SOL    HW225565   2.313   7.122   6.918
 4512SOL     OW25566   2.264   6.337   7.184
 4512SOL    HW125567   2.332   6.392   7.137
 4512SOL    HW225568   2.304   6.249   7.211
 4513SOL     OW25569   3.449   6.365   7.256
 4513SOL    HW125570   3.357   6.403   7.251
 4513SOL    HW225571   3.509   6.412   7.191
 4514SOL     OW25572   2.435   6.456   6.615
 4514SOL    HW125573   2.479   6.545   6.606
 4514SOL    HW225574   2.372   6.456   6.692
 4515SOL     OW25575   3.222   6.448   6.631
 4515SOL    HW125576   3.147   6.448   6.565
 4515SOL    HW225577   3.259   6.356   6.640
 4516SOL     OW25578   3.071   6.111   5.861
 4516SOL    HW125579   3.084   6.027   5.915
 4516SOL    HW225580   3.042   6.185   5.921
 4517SOL     OW25581   2.169   5.799   6.817
 4517SOL    HW125582   2.146   5.836   6.907
 4517SOL    HW225583   2.139   5.704   6.811
 4518SOL     OW25584   1.899   6.896   6.868
 4518SOL    HW125585   1.952   6.847   6.936
 4518SOL    HW225586   1.921   6.994   6.873
 4519SOL     OW25587   2.594   6.220   6.650
 4519SOL    HW125588   2.653   6.194   6.574
 4519SOL    HW225589   2.566   6.316   6.639
 4520SOL     OW25590   3.590   6.521   7.440
 4520SOL    HW125591   3.544   6.514   7.351
 4520SOL    HW225592   3.528   6.565   7.506
 4521SOL     OW25593   2.169   5.649   6.204
 4521SOL    HW125594   2.158   5.743   6.237
 4521SOL    HW225595   2.164   5.586   6.281
 4522SOL     OW25596   3.484   5.953   5.960
 4522SOL    HW125597   3.486   5.877   6.024
 4522SOL    HW225598   3.436   6.030   6.000
 4523SOL     OW25599   2.885   6.352   6.552
 4523SOL    HW125600   2.900   6.373   6.648
 4523SOL    HW225601   2.855   6.257   6.543
 4524SOL     OW25602   2.842   7.159   7.286
 4524SOL    HW125603   2.822   7.203   7.198
 4524SOL    HW225604   2.881   7.068   7.270
 4525SOL     OW25605   3.721   7.104   7.191
 4525SOL    HW125606   3.735   7.131   7.096
 4525SOL    HW225607   3.804   7.126   7.244
 4526SOL     OW25608   2.212   6.484   7.390
 4526SOL    HW125609   2.288   6.528   7.438
 4526SOL    HW225610   2.247   6.437   7.308
 4527SOL     OW25611   3.402   5.860   5.711
 4527SOL    HW125612   3.341   5.785   5.734
 4527SOL    HW225613   3.424   5.912   5.794
 4528SOL     OW25614   3.165   6.424   5.628
 4528SOL    HW125615   3.199   6.331   5.643
 4528SOL    HW225616   3.183   6.451   5.533
 4529SOL     OW25617   2.930   6.919   6.435
 4529SOL    HW125618   2.937   6.835   6.380
 4529SOL    HW225619   2.992   6.988   6.399
 4530SOL     OW25620   2.181   6.396   6.535
 4530SOL    HW125621   2.274   6.432   6.540
 4530SOL    HW225622   2.175   6.311   6.587
 4531SOL     OW25623   2.201   6.095   6.592
 4531SOL    HW125624   2.149   6.012   6.575
 4531SOL    HW225625   2.278   6.100   6.528
 4532SOL     OW25626   3.000   5.966   7.264
 4532SOL    HW125627   2.955   6.029   7.328
 4532SOL    HW225628   3.093   5.997   7.247
 4533SOL     OW25629   3.022   5.793   7.063
 4533SOL    HW125630   3.022   5.857   7.140
 4533SOL    HW225631   3.050   5.841   6.980
 4534SOL     OW25632   1.950   7.387   6.513
 4534SOL    HW125633   1.908   7.301   6.486
 4534SOL    HW225634   2.044   7.390   6.479
 4535SOL     OW25635   2.366   7.154   6.496
 4535SOL    HW125636   2.432   7.228   6.505
 4535SOL    HW225637   2.410   7.075   6.454
 4536SOL     OW25638   2.864   6.382   6.824
 4536SOL    HW125639   2.905   6.350   6.910
 4536SOL    HW225640   2.768   6.355   6.821
 4537SOL     OW25641   1.902   6.130   6.700
 4537SOL    HW125642   1.987   6.097   6.659
 4537SOL    HW225643   1.915   6.145   6.798
 4538SOL     OW25644   2.677   6.158   5.911
 4538SOL    HW125645   2.684   6.069   5.865
 4538SOL    HW225646   2.583   6.192   5.903
 4539SOL     OW25647   3.519   6.190   6.792
 4539SOL    HW125648   3.481   6.121   6.854
 4539SOL    HW225649   3.601   6.154   6.748
 4540SOL     OW25650   2.114   7.150   7.330
 4540SOL    HW125651   2.084   7.207   7.406
 4540SOL    HW225652   2.107   7.053   7.356
 4541SOL     OW25653   2.533   6.050   6.855
 4541SOL    HW125654   2.499   5.961   6.825
 4541SOL    HW225655   2.559   6.104   6.775
 4542SOL     OW25656   2.792   7.264   7.051
 4542SOL    HW125657   2.768   7.246   6.956
 4542SOL    HW225658   2.822   7.358   7.061
 4543SOL     OW25659   2.335   6.086   5.777
 4543SOL    HW125660   2.396   6.166   5.781
 4543SOL    HW225661   2.240   6.117   5.784
 4544SOL     OW25662   2.021   6.723   7.052
 4544SOL    HW125663   2.043   6.662   7.128
 4544SOL    HW225664   2.031   6.674   6.966
 4545SOL     OW25665   3.209   6.645   6.820
 4545SOL    HW125666   3.233   6.582   6.746
 4545SOL    HW225667   3.119   6.685   6.802
 4546SOL     OW25668   3.164   6.441   5.895
 4546SOL    HW125669   3.078   6.410   5.937
 4546SOL    HW225670   3.160   6.427   5.796
 4547SOL     OW25671   3.621   7.333   6.740
 4547SOL    HW125672   3.682   7.363   6.667
 4547SOL    HW225673   3.583   7.244   6.718
 4548SOL     OW25674   3.114   7.317   6.714
 4548SOL    HW125675   3.198   7.322   6.660
 4548SOL    HW225676   3.091   7.221   6.732
 4549SOL     OW25677   1.945   6.844   6.608
 4549SOL    HW125678   1.940   6.843   6.708
 4549SOL    HW225679   1.862   6.803   6.570
 4550SOL     OW25680   2.550   7.248   7.302
 4550SOL    HW125681   2.494   7.329   7.311
 4550SOL    HW225682   2.602   7.252   7.216
 4551SOL     OW25683   3.588   5.721   6.109
 4551SOL    HW125684   3.661   5.704   6.042
 4551SOL    HW225685   3.557   5.634   6.147
 4552SOL     OW25686   3.142   6.513   6.258
 4552SOL    HW125687   3.202   6.432   6.260
 4552SOL    HW225688   3.182   6.582   6.198
 4553SOL     OW25689   2.692   6.859   7.008
 4553SOL    HW125690   2.687   6.892   7.103
 4553SOL    HW225691   2.606   6.878   6.962
 4554SOL     OW25692   2.534   7.202   5.740
 4554SOL    HW125693   2.543   7.212   5.641
 4554SOL    HW225694   2.494   7.113   5.761
 4555SOL     OW25695   3.512   7.306   6.980
 4555SOL    HW125696   3.565   7.316   6.896
 4555SOL    HW225697   3.485   7.396   7.014
 4556SOL     OW25698   3.703   5.761   6.549
 4556SOL    HW125699   3.742   5.676   6.513
 4556SOL    HW225700   3.605   5.763   6.530
 4557SOL     OW25701   2.125   5.912   6.306
 4557SOL    HW125702   2.046   5.963   6.272
 4557SOL    HW225703   2.116   5.897   6.404
 4558SOL     OW25704   2.684   6.588   6.958
 4558SOL    HW125705   2.724   6.587   6.866
 4558SOL    HW225706   2.694   6.680   6.998
 4559SOL     OW25707   2.778   6.496   5.877
 4559SOL    HW125708   2.841   6.534   5.809
 4559SOL    HW225709   2.818   6.413   5.916
 4560SOL     OW25710   3.366   7.193   5.630
 4560SOL    HW125711   3.274   7.230   5.637
 4560SOL    HW225712   3.404   7.213   5.540
 4561SOL     OW25713   2.234   6.874   7.076
 4561SOL    HW125714   2.221   6.967   7.042
 4561SOL    HW225715   2.150   6.822   7.063
 4562SOL     OW25716   3.476   6.878   6.875
 4562SOL    HW125717   3.536   6.881   6.955
 4562SOL    HW225718   3.401   6.942   6.888
 4563SOL     OW25719   2.901   6.684   6.282
 4563SOL    HW125720   2.831   6.637   6.336
 4563SOL    HW225721   2.960   6.616   6.239
 4564SOL     OW25722   2.876   5.822   6.557
 4564SOL    HW125723   2.868   5.786   6.464
 4564SOL    HW225724   2.874   5.746   6.622
 4565SOL     OW25725   2.452   7.073   6.077
 4565SOL    HW125726   2.494   7.015   6.007
 4565SOL    HW225727   2.408   7.152   6.033
 4566SOL     OW25728   3.571   5.971   6.967
 4566SOL    HW125729   3.644   6.040   6.971
 4566SOL    HW225730   3.599   5.896   6.908
 4567SOL     OW25731   1.967   6.599   7.312
 4567SOL    HW125732   1.890   6.566   7.366
 4567SOL    HW225733   2.052   6.569   7.354
 4568SOL     OW25734   2.534   5.789   7.075
 4568SOL    HW125735   2.624   5.773   7.035
 4568SOL    HW225736   2.542   5.794   7.174
 4569SOL     OW25737   3.302   6.442   6.984
 4569SOL    HW125738   3.245   6.494   6.921
 4569SOL    HW225739   3.398   6.454   6.960
 4570SOL     OW25740   1.934   5.752   5.904
 4570SOL    HW125741   1.917   5.835   5.850
 4570SOL    HW225742   2.024   5.715   5.882
 4571SOL     OW25743   2.475   6.428   7.017
 4571SOL    HW125744   2.531   6.509   7.000
 4571SOL    HW225745   2.534   6.348   7.020
 4572SOL     OW25746   3.355   7.353   6.545
 4572SOL    HW125747   3.388   7.417   6.476
 4572SOL    HW225748   3.421   7.347   6.620
 4573SOL     OW25749   2.578   6.151   7.294
 4573SOL    HW125750   2.597   6.216   7.368
 4573SOL    HW225751   2.638   6.071   7.303
 4574SOL     OW25752   2.252   7.327   7.146
 4574SOL    HW125753   2.161   7.368   7.144
 4574SOL    HW225754   2.245   7.233   7.178
 4575SOL     OW25755   3.536   6.469   6.840
 4575SOL    HW125756   3.509   6.380   6.803
 4575SOL    HW225757   3.537   6.537   6.767
 4576SOL     OW25758   3.087   5.911   6.035
 4576SOL    HW125759   3.152   5.837   6.024
 4576SOL    HW225760   3.107   5.961   6.119
 4577SOL     OW25761   2.456   6.331   6.238
 4577SOL    HW125762   2.506   6.416   6.219
 4577SOL    HW225763   2.368   6.333   6.190
 4578SOL     OW25764   3.639   5.928   7.228
 4578SOL    HW125765   3.622   5.959   7.134
 4578SOL    HW225766   3.555   5.891   7.266
 4579SOL     OW25767   3.592   6.520   7.103
 4579SOL    HW125768   3.630   6.611   7.118
 4579SOL    HW225769   3.584   6.503   7.004
 4580SOL     OW25770   2.523   7.376   6.539
 4580SOL    HW125771   2.477   7.464   6.526
 4580SOL    HW225772   2.622   7.388   6.532
 4581SOL     OW25773   2.721   6.542   6.447
 4581SOL    HW125774   2.775   6.473   6.495
 4581SOL    HW225775   2.689   6.611   6.513
 4582SOL     OW25776   3.723   7.155   6.437
 4582SOL    HW125777   3.652   7.143   6.367
 4582SOL    HW225778   3.724   7.076   6.497
 4583SOL     OW25779   2.083   6.900   7.430
 4583SOL    HW125780   2.018   6.827   7.409
 4583SOL    HW225781   2.087   6.914   7.528
 4584SOL     OW25782   1.941   6.826   6.239
 4584SOL    HW125783   1.940   6.779   6.327
 4584SOL    HW225784   2.023   6.798   6.188
 4585SOL     OW25785   2.534   6.977   7.210
 4585SOL    HW125786   2.456   6.927   7.248
 4585SOL    HW225787   2.531   7.072   7.241
 4586SOL     OW25788   3.686   5.778   6.813
 4586SOL    HW125789   3.682   5.688   6.857
 4586SOL    HW225790   3.689   5.767   6.714
 4587SOL     OW25791   2.290   6.010   6.106
 4587SOL    HW125792   2.320   5.938   6.044
 4587SOL    HW225793   2.251   5.970   6.189
 4588SOL     OW25794   3.567   7.073   6.690
 4588SOL    HW125795   3.474   7.048   6.663
 4588SOL    HW225796   3.593   7.023   6.772
 4589SOL     OW25797   2.179   6.133   6.866
 4589SOL    HW125798   2.217   6.074   6.938
 4589SOL    HW225799   2.219   6.107   6.778
 4590SOL     OW25800   2.674   7.172   6.273
 4590SOL    HW125801   2.706   7.182   6.179
 4590SOL    HW225802   2.595   7.110   6.275
 4591SOL     OW25803   3.286   5.800   6.698
 4591SOL    HW125804   3.338   5.735   6.753
 4591SOL    HW225805   3.237   5.863   6.759
 4592SOL     OW25806   2.863   5.620   6.740
 4592SOL    HW125807   2.800   5.548   6.709
 4592SOL    HW225808   2.956   5.584   6.740
 4593SOL     OW25809   2.632   6.916   5.887
 4593SOL    HW125810   2.586   6.829   5.904
 4593SOL    HW225811   2.723   6.913   5.928
 4594SOL     OW25812   2.480   7.153   6.870
 4594SOL    HW125813   2.475   7.235   6.927
 4594SOL    HW225814   2.569   7.150   6.825
 4595SOL     OW25815   3.162   6.039   6.277
 4595SOL    HW125816   3.103   6.119   6.281
 4595SOL    HW225817   3.177   6.004   6.370
 4596SOL     OW25818   3.455   5.807   6.468
 4596SOL    HW125819   3.371   5.806   6.522
 4596SOL    HW225820   3.457   5.890   6.412
 4597SOL     OW25821   1.901   6.663   5.886
 4597SOL    HW125822   2.000   6.652   5.877
 4597SOL    HW225823   1.861   6.577   5.918
 4598SOL     OW25824   2.737   7.232   5.923
 4598SOL    HW125825   2.660   7.197   5.869
 4598SOL    HW225826   2.705   7.303   5.985
 4599SOL     OW25827   2.092   8.076   0.113
 4599SOL    HW125828   1.999   8.074   0.150
 4599SOL    HW225829   2.093   8.037   0.021
 4600SOL     OW25830   2.087   7.723   0.996
 4600SOL    HW125831   2.122   7.706   1.088
 4600SOL    HW225832   1.999   7.678   0.984
 4601SOL     OW25833   1.881   7.816   0.647
 4601SOL    HW125834   1.799   7.859   0.686
 4601SOL    HW225835   1.853   7.743   0.584
 4602SOL     OW25836   2.997   8.151   0.717
 4602SOL    HW125837   3.054   8.229   0.692
 4602SOL    HW225838   2.937   8.177   0.793
 4603SOL     OW25839   3.617   8.055   0.231
 4603SOL    HW125840   3.605   8.042   0.132
 4603SOL    HW225841   3.587   7.974   0.280
 4604SOL     OW25842   2.630   8.592   1.023
 4604SOL    HW125843   2.552   8.609   1.083
 4604SOL    HW225844   2.664   8.679   0.987
 4605SOL     OW25845   2.547   8.460   0.665
 4605SOL    HW125846   2.616   8.444   0.735
 4605SOL    HW225847   2.474   8.517   0.703
 4606SOL     OW25848   2.300   7.840   1.499
 4606SOL    HW125849   2.382   7.784   1.508
 4606SOL    HW225850   2.219   7.782   1.503
 4607SOL     OW25851   3.465   7.895   0.737
 4607SOL    HW125852   3.391   7.941   0.687
 4607SOL    HW225853   3.516   7.963   0.790
 4608SOL     OW25854   2.102   8.539   0.886
 4608SOL    HW125855   2.116   8.455   0.938
 4608SOL    HW225856   2.047   8.603   0.941
 4609SOL     OW25857   3.456   7.562   1.480
 4609SOL    HW125858   3.438   7.629   1.408
 4609SOL    HW225859   3.453   7.608   1.569
 4610SOL     OW25860   1.984   8.091   0.563
 4610SOL    HW125861   1.939   8.003   0.580
 4610SOL    HW225862   1.983   8.145   0.647
 4611SOL     OW25863   2.671   7.452   0.502
 4611SOL    HW125864   2.711   7.543   0.493
 4611SOL    HW225865   2.571   7.460   0.508
 4612SOL     OW25866   2.059   8.424   1.264
 4612SOL    HW125867   2.148   8.379   1.250
 4612SOL    HW225868   1.986   8.359   1.245
 4613SOL     OW25869   3.387   8.447   0.190
 4613SOL    HW125870   3.324   8.371   0.203
 4613SOL    HW225871   3.435   8.465   0.276
 4614SOL     OW25872   2.179   7.699   1.801
 4614SOL    HW125873   2.250   7.770   1.807
 4614SOL    HW225874   2.091   7.738   1.829
 4615SOL     OW25875   2.460   8.177   0.270
 4615SOL    HW125876   2.484   8.246   0.202
 4615SOL    HW225877   2.382   8.210   0.324
 4616SOL     OW25878   3.143   7.793   0.944
 4616SOL    HW125879   3.057   7.743   0.931
 4616SOL    HW225880   3.205   7.739   1.000
 4617SOL     OW25881   3.256   7.917   1.674
 4617SOL    HW125882   3.236   7.960   1.762
 4617SOL    HW225883   3.334   7.855   1.683
 4618SOL     OW25884   2.835   8.338   1.572
 4618SOL    HW125885   2.881   8.254   1.543
 4618SOL    HW225886   2.779   8.372   1.497
 4619SOL     OW25887   2.853   7.858   1.242
 4619SOL    HW125888   2.776   7.892   1.296
 4619SOL    HW225889   2.819   7.807   1.163
 4620SOL     OW25890   2.903   8.149   0.429
 4620SOL    HW125891   2.929   8.145   0.525
 4620SOL    HW225892   2.818   8.098   0.415
 4621SOL     OW25893   1.938   8.259   0.789
 4621SOL    HW125894   2.037   8.247   0.798
 4621SOL    HW225895   1.914   8.354   0.810
 4622SOL     OW25896   2.727   7.796   0.195
 4622SOL    HW125897   2.786   7.859   0.146
 4622SOL    HW225898   2.746   7.702   0.166
 4623SOL     OW25899   2.412   7.644   0.885
 4623SOL    HW125900   2.407   7.639   0.985
 4623SOL    HW225901   2.414   7.740   0.856
 4624SOL     OW25902   3.320   8.183   0.728
 4624SOL    HW125903   3.315   8.118   0.803
 4624SOL    HW225904   3.400   8.242   0.741
 4625SOL     OW25905   3.262   7.555   0.426
 4625SOL    HW125906   3.238   7.518   0.336
 4625SOL    HW225907   3.361   7.571   0.430
 4626SOL     OW25908   2.244   8.148   0.480
 4626SOL    HW125909   2.289   8.058   0.477
 4626SOL    HW225910   2.150   8.137   0.513
 4627SOL     OW25911   3.409   7.670   1.729
 4627SOL    HW125912   3.404   7.707   1.821
 4627SOL    HW225913   3.337   7.601   1.717
 4628SOL     OW25914   2.476   7.570   0.117
 4628SOL    HW125915   2.574   7.548   0.124
 4628SOL    HW225916   2.445   7.553   0.024
 4629SOL     OW25917   3.213   8.038   1.433
 4629SOL    HW125918   3.241   7.995   1.518
 4629SOL    HW225919   3.238   8.134   1.434
 4630SOL     OW25920   2.784   7.951   0.899
 4630SOL    HW125921   2.759   7.942   0.803
 4630SOL    HW225922   2.832   7.869   0.930
 4631SOL     OW25923   2.401   7.512   0.512
 4631SOL    HW125924   2.320   7.513   0.570
 4631SOL    HW225925   2.404   7.595   0.457
 4632SOL     OW25926   2.159   7.483   0.171
 4632SOL    HW125927   2.208   7.567   0.150
 4632SOL    HW225928   2.221   7.418   0.216
 4633SOL     OW25929   2.797   7.684   0.480
 4633SOL    HW125930   2.749   7.725   0.402
 4633SOL    HW225931   2.896   7.682   0.461
 4634SOL     OW25932   2.894   7.997   0.016
 4634SOL    HW125933   2.853   8.079  -0.023
 4634SOL    HW225934   2.958   8.023   0.089
 4635SOL     OW25935   2.423   7.670   1.147
 4635SOL    HW125936   2.461   7.586   1.184
 4635SOL    HW225937   2.335   7.689   1.191
 4636SOL     OW25938   2.728   7.902   0.642
 4636SOL    HW125939   2.696   7.974   0.580
 4636SOL    HW225940   2.752   7.821   0.589
 4637SOL     OW25941   2.879   7.487   0.753
 4637SOL    HW125942   2.807   7.492   0.684
 4637SOL    HW225943   2.855   7.418   0.822
 4638SOL     OW25944   3.328   8.038   0.992
 4638SOL    HW125945   3.298   7.943   0.999
 4638SOL    HW225946   3.401   8.054   1.058
 4639SOL     OW25947   3.719   8.281   0.377
 4639SOL    HW125948   3.761   8.217   0.441
 4639SOL    HW225949   3.681   8.230   0.299
 4640SOL     OW25950   3.252   8.023   0.078
 4640SOL    HW125951   3.198   8.002   0.159
 4640SOL    HW225952   3.343   7.982   0.087
 4641SOL     OW25953   2.389   7.704   0.328
 4641SOL    HW125954   2.416   7.645   0.253
 4641SOL    HW225955   2.389   7.799   0.297
 4642SOL     OW25956   3.500   8.547   1.079
 4642SOL    HW125957   3.505   8.628   1.138
 4642SOL    HW225958   3.414   8.549   1.028
 4643SOL     OW25959   2.777   7.537   1.402
 4643SOL    HW125960   2.802   7.517   1.307
 4643SOL    HW225961   2.849   7.593   1.444
 4644SOL     OW25962   2.272   8.261   1.251
 4644SOL    HW125963   2.358   8.273   1.301
 4644SOL    HW225964   2.230   8.174   1.278
 4645SOL     OW25965   3.136   7.834   1.262
 4645SOL    HW125966   3.157   7.908   1.326
 4645SOL    HW225967   3.047   7.851   1.219
 4646SOL     OW25968   2.428   7.985   0.865
 4646SOL    HW125969   2.440   8.051   0.791
 4646SOL    HW225970   2.474   8.019   0.948
 4647SOL     OW25971   3.444   8.087   0.472
 4647SOL    HW125972   3.413   8.148   0.545
 4647SOL    HW225973   3.494   8.139   0.403
 4648SOL     OW25974   3.449   8.227   1.670
 4648SOL    HW125975   3.357   8.265   1.665
 4648SOL    HW225976   3.509   8.274   1.605
 4649SOL     OW25977   2.366   7.498   1.740
 4649SOL    HW125978   2.324   7.441   1.670
 4649SOL    HW225979   2.300   7.567   1.772
 4650SOL     OW25980   2.435   8.318   1.029
 4650SOL    HW125981   2.479   8.407   1.020
 4650SOL    HW225982   2.372   8.318   1.106
 4651SOL     OW25983   3.222   8.310   1.045
 4651SOL    HW125984   3.147   8.310   0.979
 4651SOL    HW225985   3.259   8.218   1.054
 4652SOL     OW25986   3.071   7.973   0.275
 4652SOL    HW125987   3.084   7.889   0.329
 4652SOL    HW225988   3.042   8.047   0.335
 4653SOL     OW25989   2.169   7.661   1.231
 4653SOL    HW125990   2.146   7.698   1.321
 4653SOL    HW225991   2.139   7.566   1.225
 4654SOL     OW25992   2.594   8.082   1.064
 4654SOL    HW125993   2.653   8.056   0.988
 4654SOL    HW225994   2.566   8.178   1.053
 4655SOL     OW25995   3.590   8.383   1.854
 4655SOL    HW125996   3.544   8.376   1.765
 4655SOL    HW225997   3.528   8.427   1.920
 4656SOL     OW25998   2.169   7.511   0.618
 4656SOL    HW125999   2.158   7.605   0.651
 4656SOL    HW226000   2.164   7.448   0.695
 4657SOL     OW26001   3.484   7.815   0.374
 4657SOL    HW126002   3.486   7.739   0.438
 4657SOL    HW226003   3.436   7.892   0.414
 4658SOL     OW26004   2.885   8.214   0.966
 4658SOL    HW126005   2.900   8.235   1.062
 4658SOL    HW226006   2.855   8.119   0.957
 4659SOL     OW26007   3.402   7.722   0.125
 4659SOL    HW126008   3.341   7.647   0.148
 4659SOL    HW226009   3.424   7.774   0.208
 4660SOL     OW26010   3.165   8.286   0.042
 4660SOL    HW126011   3.199   8.193   0.057
 4660SOL    HW226012   3.183   8.313  -0.053
 4661SOL     OW26013   2.181   8.258   0.949
 4661SOL    HW126014   2.274   8.294   0.954
 4661SOL    HW226015   2.175   8.173   1.001
 4662SOL     OW26016   2.201   7.957   1.006
 4662SOL    HW126017   2.149   7.874   0.989
 4662SOL    HW226018   2.278   7.962   0.942
 4663SOL     OW26019   3.000   7.828   1.678
 4663SOL    HW126020   2.955   7.891   1.742
 4663SOL    HW226021   3.093   7.859   1.661
 4664SOL     OW26022   3.022   7.655   1.477
 4664SOL    HW126023   3.022   7.719   1.554
 4664SOL    HW226024   3.050   7.703   1.394
 4665SOL     OW26025   2.864   8.244   1.238
 4665SOL    HW126026   2.905   8.212   1.324
 4665SOL    HW226027   2.768   8.217   1.235
 4666SOL     OW26028   1.902   7.992   1.114
 4666SOL    HW126029   1.987   7.959   1.073
 4666SOL    HW226030   1.915   8.007   1.212
 4667SOL     OW26031   3.231   8.398   1.660
 4667SOL    HW126032   3.270   8.487   1.680
 4667SOL    HW226033   3.241   8.378   1.563
 4668SOL     OW26034   2.677   8.020   0.325
 4668SOL    HW126035   2.684   7.931   0.279
 4668SOL    HW226036   2.583   8.054   0.317
 4669SOL     OW26037   3.519   8.052   1.206
 4669SOL    HW126038   3.481   7.983   1.268
 4669SOL    HW226039   3.601   8.016   1.162
 4670SOL     OW26040   2.533   7.912   1.269
 4670SOL    HW126041   2.499   7.823   1.239
 4670SOL    HW226042   2.559   7.966   1.189
 4671SOL     OW26043   2.335   7.948   0.191
 4671SOL    HW126044   2.396   8.028   0.195
 4671SOL    HW226045   2.240   7.979   0.198
 4672SOL     OW26046   2.021   8.585   1.466
 4672SOL    HW126047   2.043   8.524   1.542
 4672SOL    HW226048   2.031   8.536   1.380
 4673SOL     OW26049   3.209   8.507   1.234
 4673SOL    HW126050   3.233   8.444   1.160
 4673SOL    HW226051   3.119   8.547   1.216
 4674SOL     OW26052   3.164   8.303   0.309
 4674SOL    HW126053   3.078   8.272   0.351
 4674SOL    HW226054   3.160   8.289   0.210
 4675SOL     OW26055   2.765   7.534   0.133
 4675SOL    HW126056   2.816   7.535   0.047
 4675SOL    HW226057   2.821   7.492   0.204
 4676SOL     OW26058   3.588   7.583   0.523
 4676SOL    HW126059   3.661   7.566   0.456
 4676SOL    HW226060   3.557   7.496   0.561
 4677SOL     OW26061   3.142   8.375   0.672
 4677SOL    HW126062   3.202   8.294   0.674
 4677SOL    HW226063   3.182   8.444   0.612
 4678SOL     OW26064   3.703   7.623   0.963
 4678SOL    HW126065   3.742   7.538   0.927
 4678SOL    HW226066   3.605   7.625   0.944
 4679SOL     OW26067   2.125   7.774   0.720
 4679SOL    HW126068   2.046   7.825   0.686
 4679SOL    HW226069   2.116   7.759   0.818
 4680SOL     OW26070   2.778   8.358   0.291
 4680SOL    HW126071   2.841   8.396   0.223
 4680SOL    HW226072   2.818   8.275   0.330
 4681SOL     OW26073   2.876   7.684   0.971
 4681SOL    HW126074   2.868   7.648   0.878
 4681SOL    HW226075   2.874   7.608   1.036
 4682SOL     OW26076   3.571   7.833   1.381
 4682SOL    HW126077   3.644   7.902   1.385
 4682SOL    HW226078   3.599   7.758   1.322
 4683SOL     OW26079   1.967   8.461   1.726
 4683SOL    HW126080   1.890   8.428   1.780
 4683SOL    HW226081   2.052   8.431   1.768
 4684SOL     OW26082   2.534   7.651   1.489
 4684SOL    HW126083   2.624   7.635   1.449
 4684SOL    HW226084   2.542   7.656   1.588
 4685SOL     OW26085   1.937   7.793   0.033
 4685SOL    HW126086   1.845   7.765   0.004
 4685SOL    HW226087   1.968   7.870  -0.023
 4686SOL     OW26088   3.302   8.304   1.398
 4686SOL    HW126089   3.245   8.356   1.335
 4686SOL    HW226090   3.398   8.316   1.374
 4687SOL     OW26091   1.934   7.614   0.318
 4687SOL    HW126092   1.917   7.697   0.264
 4687SOL    HW226093   2.024   7.577   0.296
 4688SOL     OW26094   2.475   8.290   1.431
 4688SOL    HW126095   2.531   8.371   1.414
 4688SOL    HW226096   2.534   8.210   1.434
 4689SOL     OW26097   3.536   8.331   1.254
 4689SOL    HW126098   3.509   8.242   1.217
 4689SOL    HW226099   3.537   8.399   1.181
 4690SOL     OW26100   3.087   7.773   0.449
 4690SOL    HW126101   3.152   7.699   0.438
 4690SOL    HW226102   3.107   7.823   0.533
 4691SOL     OW26103   2.456   8.193   0.652
 4691SOL    HW126104   2.506   8.278   0.633
 4691SOL    HW226105   2.368   8.195   0.604
 4692SOL     OW26106   3.639   7.790   1.642
 4692SOL    HW126107   3.622   7.821   1.548
 4692SOL    HW226108   3.555   7.753   1.680
 4693SOL     OW26109   3.592   8.382   1.517
 4693SOL    HW126110   3.630   8.473   1.532
 4693SOL    HW226111   3.584   8.365   1.418
 4694SOL     OW26112   2.945   8.432   0.087
 4694SOL    HW126113   2.922   8.485   0.005
 4694SOL    HW226114   3.026   8.376   0.068
 4695SOL     OW26115   3.686   7.640   1.227
 4695SOL    HW126116   3.682   7.550   1.271
 4695SOL    HW226117   3.689   7.629   1.128
 4696SOL     OW26118   2.290   7.872   0.520
 4696SOL    HW126119   2.320   7.800   0.458
 4696SOL    HW226120   2.251   7.832   0.603
 4697SOL     OW26121   2.179   7.995   1.280
 4697SOL    HW126122   2.217   7.936   1.352
 4697SOL    HW226123   2.219   7.969   1.192
 4698SOL     OW26124   3.286   7.662   1.112
 4698SOL    HW126125   3.338   7.597   1.167
 4698SOL    HW226126   3.237   7.725   1.173
 4699SOL     OW26127   2.863   7.482   1.154
 4699SOL    HW126128   2.800   7.410   1.123
 4699SOL    HW226129   2.956   7.446   1.154
 4700SOL     OW26130   3.214   7.500   0.168
 4700SOL    HW126131   3.249   7.459   0.084
 4700SOL    HW226132   3.124   7.462   0.188
 4701SOL     OW26133   3.162   7.901   0.691
 4701SOL    HW126134   3.103   7.981   0.695
 4701SOL    HW226135   3.177   7.866   0.784
 4702SOL     OW26136   3.455   7.669   0.882
 4702SOL    HW126137   3.371   7.668   0.936
 4702SOL    HW226138   3.457   7.752   0.826
 4703SOL     OW26139   2.630   8.592   2.885
 4703SOL    HW126140   2.552   8.609   2.945
 4703SOL    HW226141   2.664   8.679   2.849
 4704SOL     OW26142   2.300   7.840   3.361
 4704SOL    HW126143   2.382   7.784   3.370
 4704SOL    HW226144   2.219   7.782   3.365
 4705SOL     OW26145   2.102   8.539   2.748
 4705SOL    HW126146   2.116   8.455   2.800
 4705SOL    HW226147   2.047   8.603   2.803
 4706SOL     OW26148   1.984   8.091   2.425
 4706SOL    HW126149   1.939   8.003   2.442
 4706SOL    HW226150   1.983   8.145   2.509
 4707SOL     OW26151   1.975   8.185   3.459
 4707SOL    HW126152   2.063   8.172   3.504
 4707SOL    HW226153   1.962   8.282   3.437
 4708SOL     OW26154   2.671   7.452   2.364
 4708SOL    HW126155   2.711   7.543   2.355
 4708SOL    HW226156   2.571   7.460   2.370
 4709SOL     OW26157   2.460   8.177   2.132
 4709SOL    HW126158   2.484   8.246   2.064
 4709SOL    HW226159   2.382   8.210   2.186
 4710SOL     OW26160   3.581   8.033   3.693
 4710SOL    HW126161   3.555   8.122   3.657
 4710SOL    HW226162   3.579   7.965   3.620
 4711SOL     OW26163   3.320   8.183   2.590
 4711SOL    HW126164   3.315   8.118   2.665
 4711SOL    HW226165   3.400   8.242   2.603
 4712SOL     OW26166   3.262   7.555   2.288
 4712SOL    HW126167   3.238   7.518   2.198
 4712SOL    HW226168   3.361   7.571   2.292
 4713SOL     OW26169   3.409   7.670   3.591
 4713SOL    HW126170   3.404   7.707   3.683
 4713SOL    HW226171   3.337   7.601   3.579
 4714SOL     OW26172   2.784   7.951   2.761
 4714SOL    HW126173   2.759   7.942   2.665
 4714SOL    HW226174   2.832   7.869   2.792
 4715SOL     OW26175   2.401   7.512   2.374
 4715SOL    HW126176   2.320   7.513   2.432
 4715SOL    HW226177   2.404   7.595   2.319
 4716SOL     OW26178   2.938   8.131   3.326
 4716SOL    HW126179   2.858   8.070   3.329
 4716SOL    HW226180   3.019   8.078   3.302
 4717SOL     OW26181   2.894   7.997   1.878
 4717SOL    HW126182   2.853   8.079   1.839
 4717SOL    HW226183   2.958   8.023   1.951
 4718SOL     OW26184   3.719   8.281   2.239
 4718SOL    HW126185   3.761   8.217   2.303
 4718SOL    HW226186   3.681   8.230   2.161
 4719SOL     OW26187   3.252   8.023   1.940
 4719SOL    HW126188   3.198   8.002   2.021
 4719SOL    HW226189   3.343   7.982   1.949
 4720SOL     OW26190   3.136   7.834   3.124
 4720SOL    HW126191   3.157   7.908   3.188
 4720SOL    HW226192   3.047   7.851   3.081
 4721SOL     OW26193   2.428   7.985   2.727
 4721SOL    HW126194   2.440   8.051   2.653
 4721SOL    HW226195   2.474   8.019   2.810
 4722SOL     OW26196   2.366   7.498   3.602
 4722SOL    HW126197   2.324   7.441   3.532
 4722SOL    HW226198   2.300   7.567   3.634
 4723SOL     OW26199   2.435   8.318   2.891
 4723SOL    HW126200   2.479   8.407   2.882
 4723SOL    HW226201   2.372   8.318   2.968
 4724SOL     OW26202   2.594   8.082   2.926
 4724SOL    HW126203   2.653   8.056   2.850
 4724SOL    HW226204   2.566   8.178   2.915
 4725SOL     OW26205   3.402   7.722   1.987
 4725SOL    HW126206   3.341   7.647   2.010
 4725SOL    HW226207   3.424   7.774   2.070
 4726SOL     OW26208   3.165   8.286   1.904
 4726SOL    HW126209   3.199   8.193   1.919
 4726SOL    HW226210   3.183   8.313   1.809
 4727SOL     OW26211   2.181   8.258   2.811
 4727SOL    HW126212   2.274   8.294   2.816
 4727SOL    HW226213   2.175   8.173   2.863
 4728SOL     OW26214   2.864   8.244   3.100
 4728SOL    HW126215   2.905   8.212   3.186
 4728SOL    HW226216   2.768   8.217   3.097
 4729SOL     OW26217   2.051   7.968   3.584
 4729SOL    HW126218   2.110   7.928   3.514
 4729SOL    HW226219   1.993   8.039   3.543
 4730SOL     OW26220   2.021   8.585   3.328
 4730SOL    HW126221   2.043   8.524   3.404
 4730SOL    HW226222   2.031   8.536   3.242
 4731SOL     OW26223   3.164   8.303   2.171
 4731SOL    HW126224   3.078   8.272   2.213
 4731SOL    HW226225   3.160   8.289   2.072
 4732SOL     OW26226   3.142   8.375   2.534
 4732SOL    HW126227   3.202   8.294   2.536
 4732SOL    HW226228   3.182   8.444   2.474
 4733SOL     OW26229   3.703   7.623   2.825
 4733SOL    HW126230   3.742   7.538   2.789
 4733SOL    HW226231   3.605   7.625   2.806
 4734SOL     OW26232   2.125   7.774   2.582
 4734SOL    HW126233   2.046   7.825   2.548
 4734SOL    HW226234   2.116   7.759   2.680
 4735SOL     OW26235   2.778   8.358   2.153
 4735SOL    HW126236   2.841   8.396   2.085
 4735SOL    HW226237   2.818   8.275   2.192
 4736SOL     OW26238   1.967   8.461   3.588
 4736SOL    HW126239   1.890   8.428   3.642
 4736SOL    HW226240   2.052   8.431   3.630
 4737SOL     OW26241   3.536   8.331   3.116
 4737SOL    HW126242   3.509   8.242   3.079
 4737SOL    HW226243   3.537   8.399   3.043
 4738SOL     OW26244   3.639   7.790   3.504
 4738SOL    HW126245   3.622   7.821   3.410
 4738SOL    HW226246   3.555   7.753   3.542
 4739SOL     OW26247   3.214   7.500   2.030
 4739SOL    HW126248   3.249   7.459   1.946
 4739SOL    HW226249   3.124   7.462   2.050
 4740SOL     OW26250   1.881   7.816   4.371
 4740SOL    HW126251   1.799   7.859   4.410
 4740SOL    HW226252   1.853   7.743   4.308
 4741SOL     OW26253   2.547   8.460   4.389
 4741SOL    HW126254   2.616   8.444   4.459
 4741SOL    HW226255   2.474   8.517   4.427
 4742SOL     OW26256   2.300   7.840   5.223
 4742SOL    HW126257   2.382   7.784   5.232
 4742SOL    HW226258   2.219   7.782   5.227
 4743SOL     OW26259   1.984   8.091   4.287
 4743SOL    HW126260   1.939   8.003   4.304
 4743SOL    HW226261   1.983   8.145   4.371
 4744SOL     OW26262   2.179   7.699   5.525
 4744SOL    HW126263   2.250   7.770   5.531
 4744SOL    HW226264   2.091   7.738   5.553
 4745SOL     OW26265   2.460   8.177   3.994
 4745SOL    HW126266   2.484   8.246   3.926
 4745SOL    HW226267   2.382   8.210   4.048
 4746SOL     OW26268   3.256   7.917   5.398
 4746SOL    HW126269   3.236   7.960   5.486
 4746SOL    HW226270   3.334   7.855   5.407
 4747SOL     OW26271   1.938   8.259   4.513
 4747SOL    HW126272   2.037   8.247   4.522
 4747SOL    HW226273   1.914   8.354   4.534
 4748SOL     OW26274   2.727   7.796   3.919
 4748SOL    HW126275   2.786   7.859   3.870
 4748SOL    HW226276   2.746   7.702   3.890
 4749SOL     OW26277   3.581   8.033   5.555
 4749SOL    HW126278   3.555   8.122   5.519
 4749SOL    HW226279   3.579   7.965   5.482
 4750SOL     OW26280   2.064   7.733   5.222
 4750SOL    HW126281   1.984   7.793   5.209
 4750SOL    HW226282   2.054   7.684   5.308
 4751SOL     OW26283   3.262   7.555   4.150
 4751SOL    HW126284   3.238   7.518   4.060
 4751SOL    HW226285   3.361   7.571   4.154
 4752SOL     OW26286   2.784   7.951   4.623
 4752SOL    HW126287   2.759   7.942   4.527
 4752SOL    HW226288   2.832   7.869   4.654
 4753SOL     OW26289   2.894   7.997   3.740
 4753SOL    HW126290   2.853   8.079   3.701
 4753SOL    HW226291   2.958   8.023   3.813
 4754SOL     OW26292   2.728   7.902   4.366
 4754SOL    HW126293   2.696   7.974   4.304
 4754SOL    HW226294   2.752   7.821   4.313
 4755SOL     OW26295   3.719   8.281   4.101
 4755SOL    HW126296   3.761   8.217   4.165
 4755SOL    HW226297   3.681   8.230   4.023
 4756SOL     OW26298   2.777   7.537   5.126
 4756SOL    HW126299   2.802   7.517   5.031
 4756SOL    HW226300   2.849   7.593   5.168
 4757SOL     OW26301   3.444   8.087   4.196
 4757SOL    HW126302   3.413   8.148   4.269
 4757SOL    HW226303   3.494   8.139   4.127
 4758SOL     OW26304   3.449   8.227   5.394
 4758SOL    HW126305   3.357   8.265   5.389
 4758SOL    HW226306   3.509   8.274   5.329
 4759SOL     OW26307   3.590   8.383   5.578
 4759SOL    HW126308   3.544   8.376   5.489
 4759SOL    HW226309   3.528   8.427   5.644
 4760SOL     OW26310   2.885   8.214   4.690
 4760SOL    HW126311   2.900   8.235   4.786
 4760SOL    HW226312   2.855   8.119   4.681
 4761SOL     OW26313   2.212   8.346   5.528
 4761SOL    HW126314   2.288   8.390   5.576
 4761SOL    HW226315   2.247   8.299   5.446
 4762SOL     OW26316   3.402   7.722   3.849
 4762SOL    HW126317   3.341   7.647   3.872
 4762SOL    HW226318   3.424   7.774   3.932
 4763SOL     OW26319   3.165   8.286   3.766
 4763SOL    HW126320   3.199   8.193   3.781
 4763SOL    HW226321   3.183   8.313   3.671
 4764SOL     OW26322   2.201   7.957   4.730
 4764SOL    HW126323   2.149   7.874   4.713
 4764SOL    HW226324   2.278   7.962   4.666
 4765SOL     OW26325   3.000   7.828   5.402
 4765SOL    HW126326   2.955   7.891   5.466
 4765SOL    HW226327   3.093   7.859   5.385
 4766SOL     OW26328   3.022   7.655   5.201
 4766SOL    HW126329   3.022   7.719   5.278
 4766SOL    HW226330   3.050   7.703   5.118
 4767SOL     OW26331   2.533   7.912   4.993
 4767SOL    HW126332   2.499   7.823   4.963
 4767SOL    HW226333   2.559   7.966   4.913
 4768SOL     OW26334   3.588   7.583   4.247
 4768SOL    HW126335   3.661   7.566   4.180
 4768SOL    HW226336   3.557   7.496   4.285
 4769SOL     OW26337   3.142   8.375   4.396
 4769SOL    HW126338   3.202   8.294   4.398
 4769SOL    HW226339   3.182   8.444   4.336
 4770SOL     OW26340   2.125   7.774   4.444
 4770SOL    HW126341   2.046   7.825   4.410
 4770SOL    HW226342   2.116   7.759   4.542
 4771SOL     OW26343   3.571   7.833   5.105
 4771SOL    HW126344   3.644   7.902   5.109
 4771SOL    HW226345   3.599   7.758   5.046
 4772SOL     OW26346   1.967   8.461   5.450
 4772SOL    HW126347   1.890   8.428   5.504
 4772SOL    HW226348   2.052   8.431   5.492
 4773SOL     OW26349   1.937   7.793   3.757
 4773SOL    HW126350   1.845   7.765   3.728
 4773SOL    HW226351   1.968   7.870   3.701
 4774SOL     OW26352   2.578   8.013   5.432
 4774SOL    HW126353   2.597   8.078   5.506
 4774SOL    HW226354   2.638   7.933   5.441
 4775SOL     OW26355   3.639   7.790   5.366
 4775SOL    HW126356   3.622   7.821   5.272
 4775SOL    HW226357   3.555   7.753   5.404
 4776SOL     OW26358   2.945   8.432   3.811
 4776SOL    HW126359   2.922   8.485   3.729
 4776SOL    HW226360   3.026   8.376   3.792
 4777SOL     OW26361   3.455   7.669   4.606
 4777SOL    HW126362   3.371   7.668   4.660
 4777SOL    HW226363   3.457   7.752   4.550
 4778SOL     OW26364   2.087   7.723   6.582
 4778SOL    HW126365   2.122   7.706   6.674
 4778SOL    HW226366   1.999   7.678   6.570
 4779SOL     OW26367   1.881   7.816   6.233
 4779SOL    HW126368   1.799   7.859   6.272
 4779SOL    HW226369   1.853   7.743   6.170
 4780SOL     OW26370   2.997   8.151   6.303
 4780SOL    HW126371   3.054   8.229   6.278
 4780SOL    HW226372   2.937   8.177   6.379
 4781SOL     OW26373   3.617   8.055   5.817
 4781SOL    HW126374   3.605   8.042   5.718
 4781SOL    HW226375   3.587   7.974   5.866
 4782SOL     OW26376   2.630   8.592   6.609
 4782SOL    HW126377   2.552   8.609   6.669
 4782SOL    HW226378   2.664   8.679   6.573
 4783SOL     OW26379   2.712   8.246   7.409
 4783SOL    HW126380   2.708   8.322   7.474
 4783SOL    HW226381   2.734   8.282   7.318
 4784SOL     OW26382   2.547   8.460   6.251
 4784SOL    HW126383   2.616   8.444   6.321
 4784SOL    HW226384   2.474   8.517   6.289
 4785SOL     OW26385   2.300   7.840   7.085
 4785SOL    HW126386   2.382   7.784   7.094
 4785SOL    HW226387   2.219   7.782   7.089
 4786SOL     OW26388   3.465   7.895   6.323
 4786SOL    HW126389   3.391   7.941   6.273
 4786SOL    HW226390   3.516   7.963   6.376
 4787SOL     OW26391   2.102   8.539   6.472
 4787SOL    HW126392   2.116   8.455   6.524
 4787SOL    HW226393   2.047   8.603   6.527
 4788SOL     OW26394   3.456   7.562   7.066
 4788SOL    HW126395   3.438   7.629   6.994
 4788SOL    HW226396   3.453   7.608   7.155
 4789SOL     OW26397   1.984   8.091   6.149
 4789SOL    HW126398   1.939   8.003   6.166
 4789SOL    HW226399   1.983   8.145   6.233
 4790SOL     OW26400   1.975   8.185   7.183
 4790SOL    HW126401   2.063   8.172   7.228
 4790SOL    HW226402   1.962   8.282   7.161
 4791SOL     OW26403   2.671   7.452   6.088
 4791SOL    HW126404   2.711   7.543   6.079
 4791SOL    HW226405   2.571   7.460   6.094
 4792SOL     OW26406   2.059   8.424   6.850
 4792SOL    HW126407   2.148   8.379   6.836
 4792SOL    HW226408   1.986   8.359   6.831
 4793SOL     OW26409   3.387   8.447   5.776
 4793SOL    HW126410   3.324   8.371   5.789
 4793SOL    HW226411   3.435   8.465   5.862
 4794SOL     OW26412   2.179   7.699   7.387
 4794SOL    HW126413   2.250   7.770   7.393
 4794SOL    HW226414   2.091   7.738   7.415
 4795SOL     OW26415   2.460   8.177   5.856
 4795SOL    HW126416   2.484   8.246   5.788
 4795SOL    HW226417   2.382   8.210   5.910
 4796SOL     OW26418   3.143   7.793   6.530
 4796SOL    HW126419   3.057   7.743   6.517
 4796SOL    HW226420   3.205   7.739   6.586
 4797SOL     OW26421   2.669   8.053   7.051
 4797SOL    HW126422   2.622   8.050   7.140
 4797SOL    HW226423   2.618   7.998   6.985
 4798SOL     OW26424   2.835   8.338   7.158
 4798SOL    HW126425   2.881   8.254   7.129
 4798SOL    HW226426   2.779   8.372   7.083
 4799SOL     OW26427   2.853   7.858   6.828
 4799SOL    HW126428   2.776   7.892   6.882
 4799SOL    HW226429   2.819   7.807   6.749
 4800SOL     OW26430   2.903   8.149   6.015
 4800SOL    HW126431   2.929   8.145   6.111
 4800SOL    HW226432   2.818   8.098   6.001
 4801SOL     OW26433   1.938   8.259   6.375
 4801SOL    HW126434   2.037   8.247   6.384
 4801SOL    HW226435   1.914   8.354   6.396
 4802SOL     OW26436   2.727   7.796   5.781
 4802SOL    HW126437   2.786   7.859   5.732
 4802SOL    HW226438   2.746   7.702   5.752
 4803SOL     OW26439   2.412   7.644   6.471
 4803SOL    HW126440   2.407   7.639   6.571
 4803SOL    HW226441   2.414   7.740   6.442
 4804SOL     OW26442   3.320   8.183   6.314
 4804SOL    HW126443   3.315   8.118   6.389
 4804SOL    HW226444   3.400   8.242   6.327
 4805SOL     OW26445   2.064   7.733   7.084
 4805SOL    HW126446   1.984   7.793   7.071
 4805SOL    HW226447   2.054   7.684   7.170
 4806SOL     OW26448   2.244   8.148   6.066
 4806SOL    HW126449   2.289   8.058   6.063
 4806SOL    HW226450   2.150   8.137   6.099
 4807SOL     OW26451   2.643   7.712   7.335
 4807SOL    HW126452   2.710   7.651   7.378
 4807SOL    HW226453   2.570   7.731   7.400
 4808SOL     OW26454   3.213   8.038   7.019
 4808SOL    HW126455   3.241   7.995   7.104
 4808SOL    HW226456   3.238   8.134   7.020
 4809SOL     OW26457   2.784   7.951   6.485
 4809SOL    HW126458   2.759   7.942   6.389
 4809SOL    HW226459   2.832   7.869   6.516
 4810SOL     OW26460   2.401   7.512   6.098
 4810SOL    HW126461   2.320   7.513   6.156
 4810SOL    HW226462   2.404   7.595   6.043
 4811SOL     OW26463   2.159   7.483   5.757
 4811SOL    HW126464   2.208   7.567   5.736
 4811SOL    HW226465   2.221   7.418   5.802
 4812SOL     OW26466   2.797   7.684   6.066
 4812SOL    HW126467   2.749   7.725   5.988
 4812SOL    HW226468   2.896   7.682   6.047
 4813SOL     OW26469   2.938   8.131   7.050
 4813SOL    HW126470   2.858   8.070   7.053
 4813SOL    HW226471   3.019   8.078   7.026
 4814SOL     OW26472   1.940   8.004   6.972
 4814SOL    HW126473   2.032   8.003   6.931
 4814SOL    HW226474   1.934   8.078   7.039
 4815SOL     OW26475   2.423   7.670   6.733
 4815SOL    HW126476   2.461   7.586   6.770
 4815SOL    HW226477   2.335   7.689   6.777
 4816SOL     OW26478   2.728   7.902   6.228
 4816SOL    HW126479   2.696   7.974   6.166
 4816SOL    HW226480   2.752   7.821   6.175
 4817SOL     OW26481   2.879   7.487   6.339
 4817SOL    HW126482   2.807   7.492   6.270
 4817SOL    HW226483   2.855   7.418   6.408
 4818SOL     OW26484   3.328   8.038   6.578
 4818SOL    HW126485   3.298   7.943   6.585
 4818SOL    HW226486   3.401   8.054   6.644
 4819SOL     OW26487   3.719   8.281   5.963
 4819SOL    HW126488   3.761   8.217   6.027
 4819SOL    HW226489   3.681   8.230   5.885
 4820SOL     OW26490   3.252   8.023   5.664
 4820SOL    HW126491   3.198   8.002   5.745
 4820SOL    HW226492   3.343   7.982   5.673
 4821SOL     OW26493   2.389   7.704   5.914
 4821SOL    HW126494   2.416   7.645   5.839
 4821SOL    HW226495   2.389   7.799   5.883
 4822SOL     OW26496   3.500   8.547   6.665
 4822SOL    HW126497   3.505   8.628   6.724
 4822SOL    HW226498   3.414   8.549   6.614
 4823SOL     OW26499   2.777   7.537   6.988
 4823SOL    HW126500   2.802   7.517   6.893
 4823SOL    HW226501   2.849   7.593   7.030
 4824SOL     OW26502   2.272   8.261   6.837
 4824SOL    HW126503   2.358   8.273   6.887
 4824SOL    HW226504   2.230   8.174   6.864
 4825SOL     OW26505   3.136   7.834   6.848
 4825SOL    HW126506   3.157   7.908   6.912
 4825SOL    HW226507   3.047   7.851   6.805
 4826SOL     OW26508   2.428   7.985   6.451
 4826SOL    HW126509   2.440   8.051   6.377
 4826SOL    HW226510   2.474   8.019   6.534
 4827SOL     OW26511   3.444   8.087   6.058
 4827SOL    HW126512   3.413   8.148   6.131
 4827SOL    HW226513   3.494   8.139   5.989
 4828SOL     OW26514   2.264   8.199   7.184
 4828SOL    HW126515   2.332   8.254   7.137
 4828SOL    HW226516   2.304   8.111   7.211
 4829SOL     OW26517   3.449   8.227   7.256
 4829SOL    HW126518   3.357   8.265   7.251
 4829SOL    HW226519   3.509   8.274   7.191
 4830SOL     OW26520   2.435   8.318   6.615
 4830SOL    HW126521   2.479   8.407   6.606
 4830SOL    HW226522   2.372   8.318   6.692
 4831SOL     OW26523   3.222   8.310   6.631
 4831SOL    HW126524   3.147   8.310   6.565
 4831SOL    HW226525   3.259   8.218   6.640
 4832SOL     OW26526   3.071   7.973   5.861
 4832SOL    HW126527   3.084   7.889   5.915
 4832SOL    HW226528   3.042   8.047   5.921
 4833SOL     OW26529   2.169   7.661   6.817
 4833SOL    HW126530   2.146   7.698   6.907
 4833SOL    HW226531   2.139   7.566   6.811
 4834SOL     OW26532   2.594   8.082   6.650
 4834SOL    HW126533   2.653   8.056   6.574
 4834SOL    HW226534   2.566   8.178   6.639
 4835SOL     OW26535   3.590   8.383   7.440
 4835SOL    HW126536   3.544   8.376   7.351
 4835SOL    HW226537   3.528   8.427   7.506
 4836SOL     OW26538   2.169   7.511   6.204
 4836SOL    HW126539   2.158   7.605   6.237
 4836SOL    HW226540   2.164   7.448   6.281
 4837SOL     OW26541   3.484   7.815   5.960
 4837SOL    HW126542   3.486   7.739   6.024
 4837SOL    HW226543   3.436   7.892   6.000
 4838SOL     OW26544   2.885   8.214   6.552
 4838SOL    HW126545   2.900   8.235   6.648
 4838SOL    HW226546   2.855   8.119   6.543
 4839SOL     OW26547   2.212   8.346   7.390
 4839SOL    HW126548   2.288   8.390   7.438
 4839SOL    HW226549   2.247   8.299   7.308
 4840SOL     OW26550   3.402   7.722   5.711
 4840SOL    HW126551   3.341   7.647   5.734
 4840SOL    HW226552   3.424   7.774   5.794
 4841SOL     OW26553   3.165   8.286   5.628
 4841SOL    HW126554   3.199   8.193   5.643
 4841SOL    HW226555   3.183   8.313   5.533
 4842SOL     OW26556   2.181   8.258   6.535
 4842SOL    HW126557   2.274   8.294   6.540
 4842SOL    HW226558   2.175   8.173   6.587
 4843SOL     OW26559   2.201   7.957   6.592
 4843SOL    HW126560   2.149   7.874   6.575
 4843SOL    HW226561   2.278   7.962   6.528
 4844SOL     OW26562   3.000   7.828   7.264
 4844SOL    HW126563   2.955   7.891   7.328
 4844SOL    HW226564   3.093   7.859   7.247
 4845SOL     OW26565   3.022   7.655   7.063
 4845SOL    HW126566   3.022   7.719   7.140
 4845SOL    HW226567   3.050   7.703   6.980
 4846SOL     OW26568   2.864   8.244   6.824
 4846SOL    HW126569   2.905   8.212   6.910
 4846SOL    HW226570   2.768   8.217   6.821
 4847SOL     OW26571   1.902   7.992   6.700
 4847SOL    HW126572   1.987   7.959   6.659
 4847SOL    HW226573   1.915   8.007   6.798
 4848SOL     OW26574   2.677   8.020   5.911
 4848SOL    HW126575   2.684   7.931   5.865
 4848SOL    HW226576   2.583   8.054   5.903
 4849SOL     OW26577   3.519   8.052   6.792
 4849SOL    HW126578   3.481   7.983   6.854
 4849SOL    HW226579   3.601   8.016   6.748
 4850SOL     OW26580   2.533   7.912   6.855
 4850SOL    HW126581   2.499   7.823   6.825
 4850SOL    HW226582   2.559   7.966   6.775
 4851SOL     OW26583   2.021   8.585   7.052
 4851SOL    HW126584   2.043   8.524   7.128
 4851SOL    HW226585   2.031   8.536   6.966
 4852SOL     OW26586   3.209   8.507   6.820
 4852SOL    HW126587   3.233   8.444   6.746
 4852SOL    HW226588   3.119   8.547   6.802
 4853SOL     OW26589   3.164   8.303   5.895
 4853SOL    HW126590   3.078   8.272   5.937
 4853SOL    HW226591   3.160   8.289   5.796
 4854SOL     OW26592   3.588   7.583   6.109
 4854SOL    HW126593   3.661   7.566   6.042
 4854SOL    HW226594   3.557   7.496   6.147
 4855SOL     OW26595   3.142   8.375   6.258
 4855SOL    HW126596   3.202   8.294   6.260
 4855SOL    HW226597   3.182   8.444   6.198
 4856SOL     OW26598   3.703   7.623   6.549
 4856SOL    HW126599   3.742   7.538   6.513
 4856SOL    HW226600   3.605   7.625   6.530
 4857SOL     OW26601   2.125   7.774   6.306
 4857SOL    HW126602   2.046   7.825   6.272
 4857SOL    HW226603   2.116   7.759   6.404
 4858SOL     OW26604   2.778   8.358   5.877
 4858SOL    HW126605   2.841   8.396   5.809
 4858SOL    HW226606   2.818   8.275   5.916
 4859SOL     OW26607   2.876   7.684   6.557
 4859SOL    HW126608   2.868   7.648   6.464
 4859SOL    HW226609   2.874   7.608   6.622
 4860SOL     OW26610   3.571   7.833   6.967
 4860SOL    HW126611   3.644   7.902   6.971
 4860SOL    HW226612   3.599   7.758   6.908
 4861SOL     OW26613   1.967   8.461   7.312
 4861SOL    HW126614   1.890   8.428   7.366
 4861SOL    HW226615   2.052   8.431   7.354
 4862SOL     OW26616   2.534   7.651   7.075
 4862SOL    HW126617   2.624   7.635   7.035
 4862SOL    HW226618   2.542   7.656   7.174
 4863SOL     OW26619   1.937   7.793   5.619
 4863SOL    HW126620   1.845   7.765   5.590
 4863SOL    HW226621   1.968   7.870   5.563
 4864SOL     OW26622   3.302   8.304   6.984
 4864SOL    HW126623   3.245   8.356   6.921
 4864SOL    HW226624   3.398   8.316   6.960
 4865SOL     OW26625   1.934   7.614   5.904
 4865SOL    HW126626   1.917   7.697   5.850
 4865SOL    HW226627   2.024   7.577   5.882
 4866SOL     OW26628   2.475   8.290   7.017
 4866SOL    HW126629   2.531   8.371   7.000
 4866SOL    HW226630   2.534   8.210   7.020
 4867SOL     OW26631   2.578   8.013   7.294
 4867SOL    HW126632   2.597   8.078   7.368
 4867SOL    HW226633   2.638   7.933   7.303
 4868SOL     OW26634   3.536   8.331   6.840
 4868SOL    HW126635   3.509   8.242   6.803
 4868SOL    HW226636   3.537   8.399   6.767
 4869SOL     OW26637   3.087   7.773   6.035
 4869SOL    HW126638   3.152   7.699   6.024
 4869SOL    HW226639   3.107   7.823   6.119
 4870SOL     OW26640   2.456   8.193   6.238
 4870SOL    HW126641   2.506   8.278   6.219
 4870SOL    HW226642   2.368   8.195   6.190
 4871SOL     OW26643   3.639   7.790   7.228
 4871SOL    HW126644   3.622   7.821   7.134
 4871SOL    HW226645   3.555   7.753   7.266
 4872SOL     OW26646   3.592   8.382   7.103
 4872SOL    HW126647   3.630   8.473   7.118
 4872SOL    HW226648   3.584   8.365   7.004
 4873SOL     OW26649   2.945   8.432   5.673
 4873SOL    HW126650   2.922   8.485   5.591
 4873SOL    HW226651   3.026   8.376   5.654
 4874SOL     OW26652   3.686   7.640   6.813
 4874SOL    HW126653   3.682   7.550   6.857
 4874SOL    HW226654   3.689   7.629   6.714
 4875SOL     OW26655   2.290   7.872   6.106
 4875SOL    HW126656   2.320   7.800   6.044
 4875SOL    HW226657   2.251   7.832   6.189
 4876SOL     OW26658   2.179   7.995   6.866
 4876SOL    HW126659   2.217   7.936   6.938
 4876SOL    HW226660   2.219   7.969   6.778
 4877SOL     OW26661   3.286   7.662   6.698
 4877SOL    HW126662   3.338   7.597   6.753
 4877SOL    HW226663   3.237   7.725   6.759
 4878SOL     OW26664   2.863   7.482   6.740
 4878SOL    HW126665   2.800   7.410   6.709
 4878SOL    HW226666   2.956   7.446   6.740
 4879SOL     OW26667   3.162   7.901   6.277
 4879SOL    HW126668   3.103   7.981   6.281
 4879SOL    HW226669   3.177   7.866   6.370
 4880SOL     OW26670   3.455   7.669   6.468
 4880SOL    HW126671   3.371   7.668   6.522
 4880SOL    HW226672   3.457   7.752   6.412
 4881SOL     OW26673   3.954   0.628   0.113
 4881SOL    HW126674   3.861   0.626   0.150
 4881SOL    HW226675   3.955   0.589   0.021
 4882SOL     OW26676   3.949   0.275   0.996
 4882SOL    HW126677   3.984   0.258   1.088
 4882SOL    HW226678   3.861   0.230   0.984
 4883SOL     OW26679   3.743   0.368   0.647
 4883SOL    HW126680   3.661   0.411   0.686
 4883SOL    HW226681   3.715   0.295   0.584
 4884SOL     OW26682   4.293   1.275   1.165
 4884SOL    HW126683   4.200   1.268   1.128
 4884SOL    HW226684   4.304   1.364   1.209
 4885SOL     OW26685   5.279   1.511   0.703
 4885SOL    HW126686   5.222   1.495   0.784
 4885SOL    HW226687   5.220   1.521   0.623
 4886SOL     OW26688   4.859   0.703   0.717
 4886SOL    HW126689   4.916   0.781   0.692
 4886SOL    HW226690   4.799   0.729   0.793
 4887SOL     OW26691   5.479   0.607   0.231
 4887SOL    HW126692   5.467   0.594   0.132
 4887SOL    HW226693   5.449   0.526   0.280
 4888SOL     OW26694   4.492   1.144   1.023
 4888SOL    HW126695   4.414   1.161   1.083
 4888SOL    HW226696   4.526   1.231   0.987
 4889SOL     OW26697   4.574   0.798   1.823
 4889SOL    HW126698   4.570   0.874   1.888
 4889SOL    HW226699   4.596   0.834   1.732
 4890SOL     OW26700   4.409   1.012   0.665
 4890SOL    HW126701   4.478   0.996   0.735
 4890SOL    HW226702   4.336   1.069   0.703
 4891SOL     OW26703   4.410   1.161   1.803
 4891SOL    HW126704   4.470   1.240   1.817
 4891SOL    HW226705   4.324   1.192   1.762
 4892SOL     OW26706   4.059   1.435   1.061
 4892SOL    HW126707   3.981   1.404   1.008
 4892SOL    HW226708   4.117   1.493   1.004
 4893SOL     OW26709   5.184   1.505   1.339
 4893SOL    HW126710   5.208   1.599   1.365
 4893SOL    HW226711   5.168   1.451   1.421
 4894SOL     OW26712   4.162   0.392   1.499
 4894SOL    HW126713   4.244   0.336   1.508
 4894SOL    HW226714   4.081   0.334   1.503
 4895SOL     OW26715   5.327   0.447   0.737
 4895SOL    HW126716   5.253   0.493   0.687
 4895SOL    HW226717   5.378   0.515   0.790
 4896SOL     OW26718   3.955   1.713   0.483
 4896SOL    HW126719   3.989   1.790   0.537
 4896SOL    HW226720   3.999   1.713   0.393
 4897SOL     OW26721   4.851   1.341   1.690
 4897SOL    HW126722   4.898   1.341   1.778
 4897SOL    HW226723   4.803   1.254   1.679
 4898SOL     OW26724   3.954   1.434   0.538
 4898SOL    HW126725   3.928   1.530   0.538
 4898SOL    HW226726   3.883   1.380   0.583
 4899SOL     OW26727   3.964   1.091   0.886
 4899SOL    HW126728   3.978   1.007   0.938
 4899SOL    HW226729   3.909   1.155   0.941
 4900SOL     OW26730   4.344   1.786   1.439
 4900SOL    HW126731   4.252   1.769   1.474
 4900SOL    HW226732   4.372   1.878   1.465
 4901SOL     OW26733   4.330   0.964   0.123
 4901SOL    HW126734   4.337   1.048   0.069
 4901SOL    HW226735   4.376   0.977   0.211
 4902SOL     OW26736   5.318   0.114   1.480
 4902SOL    HW126737   5.300   0.181   1.408
 4902SOL    HW226738   5.315   0.160   1.569
 4903SOL     OW26739   3.846   0.643   0.563
 4903SOL    HW126740   3.801   0.555   0.580
 4903SOL    HW226741   3.845   0.697   0.647
 4904SOL     OW26742   5.566   1.767   0.359
 4904SOL    HW126743   5.620   1.738   0.439
 4904SOL    HW226744   5.596   1.857   0.330
 4905SOL     OW26745   3.751   1.596   0.117
 4905SOL    HW126746   3.732   1.500   0.138
 4905SOL    HW226747   3.718   1.654   0.192
 4906SOL     OW26748   5.413   0.922   0.612
 4906SOL    HW126749   5.508   0.893   0.620
 4906SOL    HW226750   5.405   0.987   0.537
 4907SOL     OW26751   5.365   1.108   0.432
 4907SOL    HW126752   5.451   1.110   0.380
 4907SOL    HW226753   5.379   1.155   0.520
 4908SOL     OW26754   3.837   0.737   1.597
 4908SOL    HW126755   3.925   0.724   1.642
 4908SOL    HW226756   3.824   0.834   1.575
 4909SOL     OW26757   4.337   1.365   0.726
 4909SOL    HW126758   4.288   1.278   0.735
 4909SOL    HW226759   4.314   1.408   0.639
 4910SOL     OW26760   5.017   1.228   1.423
 4910SOL    HW126761   5.054   1.155   1.365
 4910SOL    HW226762   5.069   1.233   1.508
 4911SOL     OW26763   4.533   0.004   0.502
 4911SOL    HW126764   4.573   0.095   0.493
 4911SOL    HW226765   4.433   0.012   0.508
 4912SOL     OW26766   3.921   0.976   1.264
 4912SOL    HW126767   4.010   0.931   1.250
 4912SOL    HW226768   3.848   0.911   1.245
 4913SOL     OW26769   5.249   0.999   0.190
 4913SOL    HW126770   5.186   0.923   0.203
 4913SOL    HW226771   5.297   1.017   0.276
 4914SOL     OW26772   4.041   0.251   1.801
 4914SOL    HW126773   4.112   0.322   1.807
 4914SOL    HW226774   3.953   0.290   1.829
 4915SOL     OW26775   5.190   1.417   0.953
 4915SOL    HW126776   5.131   1.423   1.033
 4915SOL    HW226777   5.175   1.329   0.907
 4916SOL     OW26778   5.391   1.714   0.572
 4916SOL    HW126779   5.350   1.691   0.484
 4916SOL    HW226780   5.373   1.640   0.637
 4917SOL     OW26781   4.322   0.729   0.270
 4917SOL    HW126782   4.346   0.798   0.202
 4917SOL    HW226783   4.244   0.762   0.324
 4918SOL     OW26784   5.005   0.345   0.944
 4918SOL    HW126785   4.919   0.295   0.931
 4918SOL    HW226786   5.067   0.291   1.000
 4919SOL     OW26787   5.300   1.662   0.307
 4919SOL    HW126788   5.389   1.708   0.310
 4919SOL    HW226789   5.279   1.638   0.212
 4920SOL     OW26790   4.531   0.605   1.465
 4920SOL    HW126791   4.484   0.602   1.554
 4920SOL    HW226792   4.480   0.550   1.399
 4921SOL     OW26793   5.118   0.469   1.674
 4921SOL    HW126794   5.098   0.512   1.762
 4921SOL    HW226795   5.196   0.407   1.683
 4922SOL     OW26796   4.697   0.890   1.572
 4922SOL    HW126797   4.743   0.806   1.543
 4922SOL    HW226798   4.641   0.924   1.497
 4923SOL     OW26799   4.715   0.410   1.242
 4923SOL    HW126800   4.638   0.444   1.296
 4923SOL    HW226801   4.681   0.359   1.163
 4924SOL     OW26802   4.765   0.701   0.429
 4924SOL    HW126803   4.791   0.697   0.525
 4924SOL    HW226804   4.680   0.650   0.415
 4925SOL     OW26805   3.800   0.811   0.789
 4925SOL    HW126806   3.899   0.799   0.798
 4925SOL    HW226807   3.776   0.906   0.810
 4926SOL     OW26808   3.854   1.821   1.571
 4926SOL    HW126809   3.844   1.806   1.670
 4926SOL    HW226810   3.768   1.857   1.535
 4927SOL     OW26811   4.589   0.348   0.195
 4927SOL    HW126812   4.648   0.411   0.146
 4927SOL    HW226813   4.608   0.254   0.166
 4928SOL     OW26814   5.443   0.585   1.831
 4928SOL    HW126815   5.417   0.674   1.795
 4928SOL    HW226816   5.441   0.517   1.758
 4929SOL     OW26817   5.086   1.144   0.545
 4929SOL    HW126818   5.169   1.115   0.497
 4929SOL    HW226819   5.037   1.211   0.489
 4930SOL     OW26820   4.274   0.196   0.885
 4930SOL    HW126821   4.269   0.191   0.985
 4930SOL    HW226822   4.276   0.292   0.856
 4931SOL     OW26823   4.732   1.456   0.477
 4931SOL    HW126824   4.686   1.528   0.425
 4931SOL    HW226825   4.728   1.476   0.575
 4932SOL     OW26826   4.075   1.801   0.853
 4932SOL    HW126827   4.125   1.715   0.859
 4932SOL    HW226828   4.140   1.878   0.850
 4933SOL     OW26829   5.519   1.066   0.873
 4933SOL    HW126830   5.457   1.051   0.797
 4933SOL    HW226831   5.467   1.077   0.958
 4934SOL     OW26832   4.951   1.550   1.506
 4934SOL    HW126833   4.957   1.473   1.570
 4934SOL    HW226834   4.899   1.524   1.426
 4935SOL     OW26835   4.045   0.943   0.242
 4935SOL    HW126836   4.127   0.982   0.200
 4935SOL    HW226837   4.018   0.861   0.193
 4936SOL     OW26838   5.182   0.735   0.728
 4936SOL    HW126839   5.177   0.670   0.803
 4936SOL    HW226840   5.262   0.794   0.741
 4937SOL     OW26841   4.185   1.266   1.727
 4937SOL    HW126842   4.135   1.267   1.641
 4937SOL    HW226843   4.122   1.248   1.803
 4938SOL     OW26844   4.835   1.776   0.237
 4938SOL    HW126845   4.775   1.714   0.287
 4938SOL    HW226846   4.866   1.732   0.152
 4939SOL     OW26847   3.926   0.285   1.498
 4939SOL    HW126848   3.846   0.345   1.485
 4939SOL    HW226849   3.916   0.236   1.584
 4940SOL     OW26850   5.356   1.377   0.081
 4940SOL    HW126851   5.324   1.471   0.071
 4940SOL    HW226852   5.280   1.314   0.069
 4941SOL     OW26853   4.188   1.743   0.323
 4941SOL    HW126854   4.221   1.782   0.409
 4941SOL    HW226855   4.264   1.736   0.258
 4942SOL     OW26856   5.124   0.107   0.426
 4942SOL    HW126857   5.100   0.070   0.336
 4942SOL    HW226858   5.223   0.123   0.430
 4943SOL     OW26859   3.973   1.785   1.241
 4943SOL    HW126860   4.030   1.720   1.291
 4943SOL    HW226861   3.957   1.752   1.148
 4944SOL     OW26862   4.664   1.698   0.904
 4944SOL    HW126863   4.744   1.641   0.925
 4944SOL    HW226864   4.615   1.658   0.827
 4945SOL     OW26865   4.106   0.700   0.480
 4945SOL    HW126866   4.151   0.610   0.477
 4945SOL    HW226867   4.012   0.689   0.513
 4946SOL     OW26868   5.271   0.222   1.729
 4946SOL    HW126869   5.266   0.259   1.821
 4946SOL    HW226870   5.199   0.153   1.717
 4947SOL     OW26871   4.338   0.122   0.117
 4947SOL    HW126872   4.436   0.100   0.124
 4947SOL    HW226873   4.307   0.105   0.024
 4948SOL     OW26874   4.612   1.514   1.195
 4948SOL    HW126875   4.589   1.489   1.101
 4948SOL    HW226876   4.673   1.445   1.234
 4949SOL     OW26877   5.075   0.590   1.433
 4949SOL    HW126878   5.103   0.547   1.518
 4949SOL    HW226879   5.100   0.686   1.434
 4950SOL     OW26880   4.527   1.402   0.924
 4950SOL    HW126881   4.617   1.416   0.882
 4950SOL    HW226882   4.456   1.404   0.853
 4951SOL     OW26883   4.646   0.503   0.899
 4951SOL    HW126884   4.621   0.494   0.803
 4951SOL    HW226885   4.694   0.421   0.930
 4952SOL     OW26886   4.263   0.064   0.512
 4952SOL    HW126887   4.182   0.065   0.570
 4952SOL    HW226888   4.266   0.147   0.457
 4953SOL     OW26889   5.158   1.188   0.041
 4953SOL    HW126890   5.190   1.112   0.098
 4953SOL    HW226891   5.066   1.215   0.071
 4954SOL     OW26892   4.021   0.035   0.171
 4954SOL    HW126893   4.070   0.119   0.150
 4954SOL    HW226894   4.083  -0.030   0.216
 4955SOL     OW26895   4.659   0.236   0.480
 4955SOL    HW126896   4.611   0.277   0.402
 4955SOL    HW226897   4.758   0.234   0.461
 4956SOL     OW26898   4.800   0.683   1.464
 4956SOL    HW126899   4.720   0.622   1.467
 4956SOL    HW226900   4.881   0.630   1.440
 4957SOL     OW26901   4.951   1.570   0.793
 4957SOL    HW126902   4.972   1.644   0.728
 4957SOL    HW226903   5.019   1.570   0.866
 4958SOL     OW26904   4.183   1.152   0.741
 4958SOL    HW126905   4.112   1.125   0.806
 4958SOL    HW226906   4.157   1.124   0.648
 4959SOL     OW26907   4.995   1.797   0.591
 4959SOL    HW126908   5.039   1.861   0.527
 4959SOL    HW226909   4.945   1.849   0.661
 4960SOL     OW26910   4.756   0.549   0.016
 4960SOL    HW126911   4.715   0.631  -0.023
 4960SOL    HW226912   4.820   0.575   0.089
 4961SOL     OW26913   3.802   0.556   1.386
 4961SOL    HW126914   3.894   0.555   1.345
 4961SOL    HW226915   3.796   0.630   1.453
 4962SOL     OW26916   4.285   0.222   1.147
 4962SOL    HW126917   4.323   0.138   1.184
 4962SOL    HW226918   4.197   0.241   1.191
 4963SOL     OW26919   4.590   0.454   0.642
 4963SOL    HW126920   4.558   0.526   0.580
 4963SOL    HW226921   4.614   0.373   0.589
 4964SOL     OW26922   4.741   0.039   0.753
 4964SOL    HW126923   4.669   0.044   0.684
 4964SOL    HW226924   4.717  -0.030   0.822
 4965SOL     OW26925   5.153   1.173   0.867
 4965SOL    HW126926   5.098   1.089   0.860
 4965SOL    HW226927   5.179   1.202   0.775
 4966SOL     OW26928   5.190   0.590   0.992
 4966SOL    HW126929   5.160   0.495   0.999
 4966SOL    HW226930   5.263   0.606   1.058
 4967SOL     OW26931   5.581   0.833   0.377
 4967SOL    HW126932   5.623   0.769   0.441
 4967SOL    HW226933   5.543   0.782   0.299
 4968SOL     OW26934   4.212   1.385   0.174
 4968SOL    HW126935   4.125   1.370   0.221
 4968SOL    HW226936   4.195   1.411   0.079
 4969SOL     OW26937   5.388   1.280   0.657
 4969SOL    HW126938   5.487   1.288   0.671
 4969SOL    HW226939   5.343   1.364   0.688
 4970SOL     OW26940   5.114   0.575   0.078
 4970SOL    HW126941   5.060   0.554   0.159
 4970SOL    HW226942   5.205   0.534   0.087
 4971SOL     OW26943   4.251   0.256   0.328
 4971SOL    HW126944   4.278   0.197   0.253
 4971SOL    HW226945   4.251   0.351   0.297
 4972SOL     OW26946   5.478   1.223   1.588
 4972SOL    HW126947   5.569   1.184   1.575
 4972SOL    HW226948   5.486   1.319   1.612
 4973SOL     OW26949   4.788   1.347   1.340
 4973SOL    HW126950   4.708   1.324   1.395
 4973SOL    HW226951   4.871   1.321   1.389
 4974SOL     OW26952   4.835   1.195   1.100
 4974SOL    HW126953   4.795   1.239   1.181
 4974SOL    HW226954   4.794   1.232   1.017
 4975SOL     OW26955   5.362   1.099   1.079
 4975SOL    HW126956   5.367   1.180   1.138
 4975SOL    HW226957   5.276   1.101   1.028
 4976SOL     OW26958   4.639   0.089   1.402
 4976SOL    HW126959   4.664   0.069   1.307
 4976SOL    HW226960   4.711   0.145   1.444
 4977SOL     OW26961   4.704   1.116   1.719
 4977SOL    HW126962   4.605   1.122   1.729
 4977SOL    HW226963   4.727   1.036   1.663
 4978SOL     OW26964   4.429   1.050   0.368
 4978SOL    HW126965   4.415   1.057   0.467
 4978SOL    HW226966   4.513   0.999   0.350
 4979SOL     OW26967   4.134   0.813   1.251
 4979SOL    HW126968   4.220   0.825   1.301
 4979SOL    HW226969   4.092   0.726   1.278
 4980SOL     OW26970   4.998   0.386   1.262
 4980SOL    HW126971   5.019   0.460   1.326
 4980SOL    HW226972   4.909   0.403   1.219
 4981SOL     OW26973   3.788   1.564   1.331
 4981SOL    HW126974   3.742   1.646   1.297
 4981SOL    HW226975   3.886   1.583   1.340
 4982SOL     OW26976   4.091   1.100   0.501
 4982SOL    HW126977   4.084   1.183   0.445
 4982SOL    HW226978   4.095   1.020   0.441
 4983SOL     OW26979   4.290   0.537   0.865
 4983SOL    HW126980   4.302   0.603   0.791
 4983SOL    HW226981   4.336   0.571   0.948
 4984SOL     OW26982   4.976   1.348   0.388
 4984SOL    HW126983   5.026   1.425   0.428
 4984SOL    HW226984   4.881   1.350   0.420
 4985SOL     OW26985   4.996   1.445   1.142
 4985SOL    HW126986   5.043   1.458   1.229
 4985SOL    HW226987   4.930   1.371   1.151
 4986SOL     OW26988   5.306   0.639   0.472
 4986SOL    HW126989   5.275   0.700   0.545
 4986SOL    HW226990   5.356   0.691   0.403
 4987SOL     OW26991   4.078   1.510   1.329
 4987SOL    HW126992   4.057   1.466   1.242
 4987SOL    HW226993   4.175   1.536   1.332
 4988SOL     OW26994   4.126   0.751   1.598
 4988SOL    HW126995   4.194   0.806   1.551
 4988SOL    HW226996   4.166   0.663   1.625
 4989SOL     OW26997   5.311   0.779   1.670
 4989SOL    HW126998   5.219   0.817   1.665
 4989SOL    HW226999   5.371   0.826   1.605
 4990SOL     OW27000   4.228   0.050   1.740
 4990SOL    HW127001   4.186  -0.007   1.670
 4990SOL    HW227002   4.162   0.119   1.772
 4991SOL     OW27003   4.297   0.870   1.029
 4991SOL    HW127004   4.341   0.959   1.020
 4991SOL    HW227005   4.234   0.870   1.106
 4992SOL     OW27006   5.084   0.862   1.045
 4992SOL    HW127007   5.009   0.862   0.979
 4992SOL    HW227008   5.121   0.770   1.054
 4993SOL     OW27009   4.933   0.525   0.275
 4993SOL    HW127010   4.946   0.441   0.329
 4993SOL    HW227011   4.904   0.599   0.335
 4994SOL     OW27012   4.031   0.213   1.231
 4994SOL    HW127013   4.008   0.250   1.321
 4994SOL    HW227014   4.001   0.118   1.225
 4995SOL     OW27015   3.761   1.310   1.282
 4995SOL    HW127016   3.814   1.261   1.350
 4995SOL    HW227017   3.783   1.408   1.287
 4996SOL     OW27018   4.456   0.634   1.064
 4996SOL    HW127019   4.515   0.608   0.988
 4996SOL    HW227020   4.428   0.730   1.053
 4997SOL     OW27021   5.452   0.935   1.854
 4997SOL    HW127022   5.406   0.928   1.765
 4997SOL    HW227023   5.390   0.979   1.920
 4998SOL     OW27024   4.031   0.063   0.618
 4998SOL    HW127025   4.020   0.157   0.651
 4998SOL    HW227026   4.026   0.000   0.695
 4999SOL     OW27027   5.346   0.367   0.374
 4999SOL    HW127028   5.348   0.291   0.438
 4999SOL    HW227029   5.298   0.444   0.414
 5000SOL     OW27030   4.747   0.766   0.966
 5000SOL    HW127031   4.762   0.787   1.062
 5000SOL    HW227032   4.717   0.671   0.957
 5001SOL     OW27033   4.704   1.573   1.700
 5001SOL    HW127034   4.684   1.617   1.612
 5001SOL    HW227035   4.743   1.482   1.684
 5002SOL     OW27036   5.583   1.518   1.605
 5002SOL    HW127037   5.597   1.545   1.510
 5002SOL    HW227038   5.666   1.540   1.658
 5003SOL     OW27039   4.074   0.898   1.804
 5003SOL    HW127040   4.150   0.942   1.852
 5003SOL    HW227041   4.109   0.851   1.722
 5004SOL     OW27042   5.264   0.274   0.125
 5004SOL    HW127043   5.203   0.199   0.148
 5004SOL    HW227044   5.286   0.326   0.208
 5005SOL     OW27045   5.027   0.838   0.042
 5005SOL    HW127046   5.061   0.745   0.057
 5005SOL    HW227047   5.045   0.865  -0.053
 5006SOL     OW27048   4.792   1.333   0.849
 5006SOL    HW127049   4.799   1.249   0.794
 5006SOL    HW227050   4.854   1.402   0.813
 5007SOL     OW27051   4.043   0.810   0.949
 5007SOL    HW127052   4.136   0.846   0.954
 5007SOL    HW227053   4.037   0.725   1.001
 5008SOL     OW27054   4.063   0.509   1.006
 5008SOL    HW127055   4.011   0.426   0.989
 5008SOL    HW227056   4.140   0.514   0.942
 5009SOL     OW27057   4.884   0.207   1.477
 5009SOL    HW127058   4.884   0.271   1.554
 5009SOL    HW227059   4.912   0.255   1.394
 5010SOL     OW27060   3.732   1.326   0.200
 5010SOL    HW127061   3.639   1.347   0.169
 5010SOL    HW227062   3.742   1.227   0.213
 5011SOL     OW27063   3.812   1.801   0.927
 5011SOL    HW127064   3.770   1.715   0.900
 5011SOL    HW227065   3.906   1.804   0.893
 5012SOL     OW27066   4.228   1.568   0.910
 5012SOL    HW127067   4.294   1.642   0.919
 5012SOL    HW227068   4.272   1.489   0.868
 5013SOL     OW27069   4.726   0.796   1.238
 5013SOL    HW127070   4.767   0.764   1.324
 5013SOL    HW227071   4.630   0.769   1.235
 5014SOL     OW27072   3.764   0.544   1.114
 5014SOL    HW127073   3.849   0.511   1.073
 5014SOL    HW227074   3.777   0.559   1.212
 5015SOL     OW27075   3.913   0.520   1.722
 5015SOL    HW127076   3.972   0.480   1.652
 5015SOL    HW227077   3.855   0.591   1.681
 5016SOL     OW27078   5.093   0.950   1.660
 5016SOL    HW127079   5.132   1.039   1.680
 5016SOL    HW227080   5.103   0.930   1.563
 5017SOL     OW27081   4.539   0.572   0.325
 5017SOL    HW127082   4.546   0.483   0.279
 5017SOL    HW227083   4.445   0.606   0.317
 5018SOL     OW27084   5.381   0.604   1.206
 5018SOL    HW127085   5.343   0.535   1.268
 5018SOL    HW227086   5.463   0.568   1.162
 5019SOL     OW27087   3.976   1.564   1.744
 5019SOL    HW127088   3.946   1.621   1.820
 5019SOL    HW227089   3.969   1.467   1.770
 5020SOL     OW27090   4.395   0.464   1.269
 5020SOL    HW127091   4.361   0.375   1.239
 5020SOL    HW227092   4.421   0.518   1.189
 5021SOL     OW27093   4.197   0.500   0.191
 5021SOL    HW127094   4.258   0.580   0.195
 5021SOL    HW227095   4.102   0.531   0.198
 5022SOL     OW27096   3.883   1.137   1.466
 5022SOL    HW127097   3.905   1.076   1.542
 5022SOL    HW227098   3.893   1.088   1.380
 5023SOL     OW27099   5.071   1.059   1.234
 5023SOL    HW127100   5.095   0.996   1.160
 5023SOL    HW227101   4.981   1.099   1.216
 5024SOL     OW27102   5.026   0.855   0.309
 5024SOL    HW127103   4.940   0.824   0.351
 5024SOL    HW227104   5.022   0.841   0.210
 5025SOL     OW27105   5.483   1.747   1.154
 5025SOL    HW127106   5.544   1.777   1.081
 5025SOL    HW227107   5.445   1.658   1.132
 5026SOL     OW27108   4.976   1.731   1.128
 5026SOL    HW127109   5.060   1.736   1.074
 5026SOL    HW227110   4.953   1.635   1.146
 5027SOL     OW27111   3.807   1.258   1.022
 5027SOL    HW127112   3.802   1.257   1.122
 5027SOL    HW227113   3.724   1.217   0.984
 5028SOL     OW27114   4.412   1.662   1.716
 5028SOL    HW127115   4.356   1.743   1.725
 5028SOL    HW227116   4.464   1.666   1.630
 5029SOL     OW27117   4.627   0.086   0.133
 5029SOL    HW127118   4.678   0.087   0.047
 5029SOL    HW227119   4.683   0.044   0.204
 5030SOL     OW27120   5.450   0.135   0.523
 5030SOL    HW127121   5.523   0.118   0.456
 5030SOL    HW227122   5.419   0.048   0.561
 5031SOL     OW27123   5.112   1.573   0.477
 5031SOL    HW127124   5.179   1.585   0.403
 5031SOL    HW227125   5.072   1.662   0.500
 5032SOL     OW27126   3.854   1.794   1.851
 5032SOL    HW127127   3.813   1.720   1.904
 5032SOL    HW227128   3.918   1.845   1.909
 5033SOL     OW27129   5.004   0.927   0.672
 5033SOL    HW127130   5.064   0.846   0.674
 5033SOL    HW227131   5.044   0.996   0.612
 5034SOL     OW27132   4.554   1.273   1.422
 5034SOL    HW127133   4.549   1.306   1.517
 5034SOL    HW227134   4.468   1.292   1.376
 5035SOL     OW27135   4.396   1.616   0.154
 5035SOL    HW127136   4.405   1.626   0.055
 5035SOL    HW227137   4.356   1.527   0.175
 5036SOL     OW27138   5.374   1.720   1.394
 5036SOL    HW127139   5.427   1.730   1.310
 5036SOL    HW227140   5.347   1.810   1.428
 5037SOL     OW27141   5.565   0.175   0.963
 5037SOL    HW127142   5.604   0.090   0.927
 5037SOL    HW227143   5.467   0.177   0.944
 5038SOL     OW27144   3.987   0.326   0.720
 5038SOL    HW127145   3.908   0.377   0.686
 5038SOL    HW227146   3.978   0.311   0.818
 5039SOL     OW27147   4.918   1.612   0.031
 5039SOL    HW127148   4.924   1.519   0.068
 5039SOL    HW227149   4.859   1.612  -0.049
 5040SOL     OW27150   4.546   1.002   1.372
 5040SOL    HW127151   4.586   1.001   1.280
 5040SOL    HW227152   4.556   1.094   1.412
 5041SOL     OW27153   4.640   0.910   0.291
 5041SOL    HW127154   4.703   0.948   0.223
 5041SOL    HW227155   4.680   0.827   0.330
 5042SOL     OW27156   5.228   1.607   0.044
 5042SOL    HW127157   5.136   1.644   0.051
 5042SOL    HW227158   5.266   1.627  -0.046
 5043SOL     OW27159   4.096   1.288   1.490
 5043SOL    HW127160   4.083   1.381   1.456
 5043SOL    HW227161   4.012   1.236   1.477
 5044SOL     OW27162   5.338   1.292   1.289
 5044SOL    HW127163   5.398   1.295   1.369
 5044SOL    HW227164   5.263   1.356   1.302
 5045SOL     OW27165   4.763   1.098   0.696
 5045SOL    HW127166   4.693   1.051   0.750
 5045SOL    HW227167   4.822   1.030   0.653
 5046SOL     OW27168   4.738   0.236   0.971
 5046SOL    HW127169   4.730   0.200   0.878
 5046SOL    HW227170   4.736   0.160   1.036
 5047SOL     OW27171   4.314   1.487   0.491
 5047SOL    HW127172   4.356   1.429   0.421
 5047SOL    HW227173   4.270   1.566   0.447
 5048SOL     OW27174   5.433   0.385   1.381
 5048SOL    HW127175   5.506   0.454   1.385
 5048SOL    HW227176   5.461   0.310   1.322
 5049SOL     OW27177   3.979   1.348   0.290
 5049SOL    HW127178   3.883   1.349   0.263
 5049SOL    HW227179   3.991   1.401   0.374
 5050SOL     OW27180   4.396   0.203   1.489
 5050SOL    HW127181   4.486   0.187   1.449
 5050SOL    HW227182   4.404   0.208   1.588
 5051SOL     OW27183   3.799   0.345   0.033
 5051SOL    HW127184   3.707   0.317   0.004
 5051SOL    HW227185   3.830   0.422  -0.023
 5052SOL     OW27186   5.164   0.856   1.398
 5052SOL    HW127187   5.107   0.908   1.335
 5052SOL    HW227188   5.260   0.868   1.374
 5053SOL     OW27189   3.796   0.166   0.318
 5053SOL    HW127190   3.779   0.249   0.264
 5053SOL    HW227191   3.886   0.129   0.296
 5054SOL     OW27192   4.907   1.335   0.119
 5054SOL    HW127193   4.808   1.324   0.121
 5054SOL    HW227194   4.941   1.350   0.212
 5055SOL     OW27195   4.337   0.842   1.431
 5055SOL    HW127196   4.393   0.923   1.414
 5055SOL    HW227197   4.396   0.762   1.434
 5056SOL     OW27198   5.217   1.767   0.959
 5056SOL    HW127199   5.250   1.831   0.890
 5056SOL    HW227200   5.283   1.761   1.034
 5057SOL     OW27201   4.440   0.565   1.708
 5057SOL    HW127202   4.459   0.630   1.782
 5057SOL    HW227203   4.500   0.485   1.717
 5058SOL     OW27204   5.174   1.220   1.633
 5058SOL    HW127205   5.165   1.210   1.732
 5058SOL    HW227206   5.270   1.213   1.607
 5059SOL     OW27207   4.114   1.741   1.560
 5059SOL    HW127208   4.023   1.782   1.558
 5059SOL    HW227209   4.107   1.647   1.592
 5060SOL     OW27210   5.398   0.883   1.254
 5060SOL    HW127211   5.371   0.794   1.217
 5060SOL    HW227212   5.399   0.951   1.181
 5061SOL     OW27213   4.949   0.325   0.449
 5061SOL    HW127214   5.014   0.251   0.438
 5061SOL    HW227215   4.969   0.375   0.533
 5062SOL     OW27216   4.318   0.745   0.652
 5062SOL    HW127217   4.368   0.830   0.633
 5062SOL    HW227218   4.230   0.747   0.604
 5063SOL     OW27219   5.501   0.342   1.642
 5063SOL    HW127220   5.484   0.373   1.548
 5063SOL    HW227221   5.417   0.305   1.680
 5064SOL     OW27222   5.454   0.934   1.517
 5064SOL    HW127223   5.492   1.025   1.532
 5064SOL    HW227224   5.446   0.917   1.418
 5065SOL     OW27225   4.583   1.374   0.016
 5065SOL    HW127226   4.537   1.389   0.104
 5065SOL    HW227227   4.627   1.459  -0.014
 5066SOL     OW27228   4.385   1.790   0.953
 5066SOL    HW127229   4.339   1.878   0.940
 5066SOL    HW227230   4.484   1.802   0.946
 5067SOL     OW27231   4.583   0.956   0.861
 5067SOL    HW127232   4.637   0.887   0.909
 5067SOL    HW227233   4.551   1.025   0.927
 5068SOL     OW27234   4.807   0.984   0.087
 5068SOL    HW127235   4.784   1.037   0.005
 5068SOL    HW227236   4.888   0.928   0.068
 5069SOL     OW27237   5.585   1.569   0.851
 5069SOL    HW127238   5.514   1.557   0.781
 5069SOL    HW227239   5.586   1.490   0.911
 5070SOL     OW27240   3.945   1.314   1.844
 5070SOL    HW127241   3.880   1.241   1.823
 5070SOL    HW227242   3.949   1.328   1.942
 5071SOL     OW27243   3.803   1.240   0.653
 5071SOL    HW127244   3.802   1.193   0.741
 5071SOL    HW227245   3.885   1.212   0.602
 5072SOL     OW27246   4.396   1.391   1.624
 5072SOL    HW127247   4.318   1.341   1.662
 5072SOL    HW227248   4.393   1.486   1.655
 5073SOL     OW27249   5.548   0.192   1.227
 5073SOL    HW127250   5.544   0.102   1.271
 5073SOL    HW227251   5.551   0.181   1.128
 5074SOL     OW27252   4.152   0.424   0.520
 5074SOL    HW127253   4.182   0.352   0.458
 5074SOL    HW227254   4.113   0.384   0.603
 5075SOL     OW27255   5.429   1.487   1.104
 5075SOL    HW127256   5.336   1.462   1.077
 5075SOL    HW227257   5.455   1.437   1.186
 5076SOL     OW27258   4.041   0.547   1.280
 5076SOL    HW127259   4.079   0.488   1.352
 5076SOL    HW227260   4.081   0.521   1.192
 5077SOL     OW27261   4.536   1.586   0.687
 5077SOL    HW127262   4.568   1.596   0.593
 5077SOL    HW227263   4.457   1.524   0.689
 5078SOL     OW27264   5.148   0.214   1.112
 5078SOL    HW127265   5.200   0.149   1.167
 5078SOL    HW227266   5.099   0.277   1.173
 5079SOL     OW27267   4.725   0.034   1.154
 5079SOL    HW127268   4.662  -0.038   1.123
 5079SOL    HW227269   4.818  -0.002   1.154
 5080SOL     OW27270   4.494   1.330   0.301
 5080SOL    HW127271   4.448   1.243   0.318
 5080SOL    HW227272   4.585   1.327   0.342
 5081SOL     OW27273   4.342   1.567   1.284
 5081SOL    HW127274   4.337   1.649   1.341
 5081SOL    HW227275   4.431   1.564   1.239
 5082SOL     OW27276   5.076   0.052   0.168
 5082SOL    HW127277   5.111   0.011   0.084
 5082SOL    HW227278   4.986   0.014   0.188
 5083SOL     OW27279   5.024   0.453   0.691
 5083SOL    HW127280   4.965   0.533   0.695
 5083SOL    HW227281   5.039   0.418   0.784
 5084SOL     OW27282   5.317   0.221   0.882
 5084SOL    HW127283   5.233   0.220   0.936
 5084SOL    HW227284   5.319   0.304   0.826
 5085SOL     OW27285   3.763   1.077   0.300
 5085SOL    HW127286   3.862   1.066   0.291
 5085SOL    HW227287   3.723   0.991   0.332
 5086SOL     OW27288   4.599   1.646   0.337
 5086SOL    HW127289   4.522   1.611   0.283
 5086SOL    HW227290   4.567   1.717   0.399
 5087SOL     OW27291   3.954   0.628   1.975
 5087SOL    HW127292   3.861   0.626   2.012
 5087SOL    HW227293   3.955   0.589   1.883
 5088SOL     OW27294   4.409   1.012   2.527
 5088SOL    HW127295   4.478   0.996   2.597
 5088SOL    HW227296   4.336   1.069   2.565
 5089SOL     OW27297   4.059   1.435   2.923
 5089SOL    HW127298   3.981   1.404   2.870
 5089SOL    HW227299   4.117   1.493   2.866
 5090SOL     OW27300   5.184   1.505   3.201
 5090SOL    HW127301   5.208   1.599   3.227
 5090SOL    HW227302   5.168   1.451   3.283
 5091SOL     OW27303   4.330   0.964   1.985
 5091SOL    HW127304   4.337   1.048   1.931
 5091SOL    HW227305   4.376   0.977   2.073
 5092SOL     OW27306   5.318   0.114   3.342
 5092SOL    HW127307   5.300   0.181   3.270
 5092SOL    HW227308   5.315   0.160   3.431
 5093SOL     OW27309   3.837   0.737   3.459
 5093SOL    HW127310   3.925   0.724   3.504
 5093SOL    HW227311   3.824   0.834   3.437
 5094SOL     OW27312   4.337   1.365   2.588
 5094SOL    HW127313   4.288   1.278   2.597
 5094SOL    HW227314   4.314   1.408   2.501
 5095SOL     OW27315   3.921   0.976   3.126
 5095SOL    HW127316   4.010   0.931   3.112
 5095SOL    HW227317   3.848   0.911   3.107
 5096SOL     OW27318   4.911   1.792   3.478
 5096SOL    HW127319   4.935   1.852   3.402
 5096SOL    HW227320   4.918   1.697   3.448
 5097SOL     OW27321   4.041   0.251   3.663
 5097SOL    HW127322   4.112   0.322   3.669
 5097SOL    HW227323   3.953   0.290   3.691
 5098SOL     OW27324   4.322   0.729   2.132
 5098SOL    HW127325   4.346   0.798   2.064
 5098SOL    HW227326   4.244   0.762   2.186
 5099SOL     OW27327   4.589   0.348   2.057
 5099SOL    HW127328   4.648   0.411   2.008
 5099SOL    HW227329   4.608   0.254   2.028
 5100SOL     OW27330   4.732   1.456   2.339
 5100SOL    HW127331   4.686   1.528   2.287
 5100SOL    HW227332   4.728   1.476   2.437
 5101SOL     OW27333   4.951   1.550   3.368
 5101SOL    HW127334   4.957   1.473   3.432
 5101SOL    HW227335   4.899   1.524   3.288
 5102SOL     OW27336   4.045   0.943   2.104
 5102SOL    HW127337   4.127   0.982   2.062
 5102SOL    HW227338   4.018   0.861   2.055
 5103SOL     OW27339   4.835   1.776   2.099
 5103SOL    HW127340   4.775   1.714   2.149
 5103SOL    HW227341   4.866   1.732   2.014
 5104SOL     OW27342   4.188   1.743   2.185
 5104SOL    HW127343   4.221   1.782   2.271
 5104SOL    HW227344   4.264   1.736   2.120
 5105SOL     OW27345   4.664   1.698   2.766
 5105SOL    HW127346   4.744   1.641   2.787
 5105SOL    HW227347   4.615   1.658   2.689
 5106SOL     OW27348   5.271   0.222   3.591
 5106SOL    HW127349   5.266   0.259   3.683
 5106SOL    HW227350   5.199   0.153   3.579
 5107SOL     OW27351   4.338   0.122   1.979
 5107SOL    HW127352   4.436   0.100   1.986
 5107SOL    HW227353   4.307   0.105   1.886
 5108SOL     OW27354   4.505   0.264   3.611
 5108SOL    HW127355   4.572   0.203   3.654
 5108SOL    HW227356   4.432   0.283   3.676
 5109SOL     OW27357   5.075   0.590   3.295
 5109SOL    HW127358   5.103   0.547   3.380
 5109SOL    HW227359   5.100   0.686   3.296
 5110SOL     OW27360   4.646   0.503   2.761
 5110SOL    HW127361   4.621   0.494   2.665
 5110SOL    HW227362   4.694   0.421   2.792
 5111SOL     OW27363   5.158   1.188   1.903
 5111SOL    HW127364   5.190   1.112   1.960
 5111SOL    HW227365   5.066   1.215   1.933
 5112SOL     OW27366   4.021   0.035   2.033
 5112SOL    HW127367   4.070   0.119   2.012
 5112SOL    HW227368   4.083  -0.030   2.078
 5113SOL     OW27369   4.800   0.683   3.326
 5113SOL    HW127370   4.720   0.622   3.329
 5113SOL    HW227371   4.881   0.630   3.302
 5114SOL     OW27372   4.756   0.549   1.878
 5114SOL    HW127373   4.715   0.631   1.839
 5114SOL    HW227374   4.820   0.575   1.951
 5115SOL     OW27375   4.741   0.039   2.615
 5115SOL    HW127376   4.669   0.044   2.546
 5115SOL    HW227377   4.717  -0.030   2.684
 5116SOL     OW27378   5.153   1.173   2.729
 5116SOL    HW127379   5.098   1.089   2.722
 5116SOL    HW227380   5.179   1.202   2.637
 5117SOL     OW27381   5.581   0.833   2.239
 5117SOL    HW127382   5.623   0.769   2.303
 5117SOL    HW227383   5.543   0.782   2.161
 5118SOL     OW27384   4.212   1.385   2.036
 5118SOL    HW127385   4.125   1.370   2.083
 5118SOL    HW227386   4.195   1.411   1.941
 5119SOL     OW27387   5.114   0.575   1.940
 5119SOL    HW127388   5.060   0.554   2.021
 5119SOL    HW227389   5.205   0.534   1.949
 5120SOL     OW27390   4.251   0.256   2.190
 5120SOL    HW127391   4.278   0.197   2.115
 5120SOL    HW227392   4.251   0.351   2.159
 5121SOL     OW27393   5.362   1.099   2.941
 5121SOL    HW127394   5.367   1.180   3.000
 5121SOL    HW227395   5.276   1.101   2.890
 5122SOL     OW27396   4.429   1.050   2.230
 5122SOL    HW127397   4.415   1.057   2.329
 5122SOL    HW227398   4.513   0.999   2.212
 5123SOL     OW27399   4.091   1.100   2.363
 5123SOL    HW127400   4.084   1.183   2.307
 5123SOL    HW227401   4.095   1.020   2.303
 5124SOL     OW27402   4.290   0.537   2.727
 5124SOL    HW127403   4.302   0.603   2.653
 5124SOL    HW227404   4.336   0.571   2.810
 5125SOL     OW27405   4.228   0.050   3.602
 5125SOL    HW127406   4.186  -0.007   3.532
 5125SOL    HW227407   4.162   0.119   3.634
 5126SOL     OW27408   4.933   0.525   2.137
 5126SOL    HW127409   4.946   0.441   2.191
 5126SOL    HW227410   4.904   0.599   2.197
 5127SOL     OW27411   4.456   0.634   2.926
 5127SOL    HW127412   4.515   0.608   2.850
 5127SOL    HW227413   4.428   0.730   2.915
 5128SOL     OW27414   4.747   0.766   2.828
 5128SOL    HW127415   4.762   0.787   2.924
 5128SOL    HW227416   4.717   0.671   2.819
 5129SOL     OW27417   3.764   0.544   2.976
 5129SOL    HW127418   3.849   0.511   2.935
 5129SOL    HW227419   3.777   0.559   3.074
 5130SOL     OW27420   5.093   0.950   3.522
 5130SOL    HW127421   5.132   1.039   3.542
 5130SOL    HW227422   5.103   0.930   3.425
 5131SOL     OW27423   4.539   0.572   2.187
 5131SOL    HW127424   4.546   0.483   2.141
 5131SOL    HW227425   4.445   0.606   2.179
 5132SOL     OW27426   4.654   1.678   3.327
 5132SOL    HW127427   4.630   1.660   3.232
 5132SOL    HW227428   4.684   1.772   3.337
 5133SOL     OW27429   4.197   0.500   2.053
 5133SOL    HW127430   4.258   0.580   2.057
 5133SOL    HW227431   4.102   0.531   2.060
 5134SOL     OW27432   5.483   1.747   3.016
 5134SOL    HW127433   5.544   1.777   2.943
 5134SOL    HW227434   5.445   1.658   2.994
 5135SOL     OW27435   3.854   1.794   3.713
 5135SOL    HW127436   3.813   1.720   3.766
 5135SOL    HW227437   3.918   1.845   3.771
 5136SOL     OW27438   4.396   1.616   2.016
 5136SOL    HW127439   4.405   1.626   1.917
 5136SOL    HW227440   4.356   1.527   2.037
 5137SOL     OW27441   5.374   1.720   3.256
 5137SOL    HW127442   5.427   1.730   3.172
 5137SOL    HW227443   5.347   1.810   3.290
 5138SOL     OW27444   3.987   0.326   2.582
 5138SOL    HW127445   3.908   0.377   2.548
 5138SOL    HW227446   3.978   0.311   2.680
 5139SOL     OW27447   4.918   1.612   1.893
 5139SOL    HW127448   4.924   1.519   1.930
 5139SOL    HW227449   4.859   1.612   1.813
 5140SOL     OW27450   4.546   1.002   3.234
 5140SOL    HW127451   4.586   1.001   3.142
 5140SOL    HW227452   4.556   1.094   3.274
 5141SOL     OW27453   4.640   0.910   2.153
 5141SOL    HW127454   4.703   0.948   2.085
 5141SOL    HW227455   4.680   0.827   2.192
 5142SOL     OW27456   5.228   1.607   1.906
 5142SOL    HW127457   5.136   1.644   1.913
 5142SOL    HW227458   5.266   1.627   1.816
 5143SOL     OW27459   4.314   1.487   2.353
 5143SOL    HW127460   4.356   1.429   2.283
 5143SOL    HW227461   4.270   1.566   2.309
 5144SOL     OW27462   3.799   0.345   1.895
 5144SOL    HW127463   3.707   0.317   1.866
 5144SOL    HW227464   3.830   0.422   1.839
 5145SOL     OW27465   4.907   1.335   1.981
 5145SOL    HW127466   4.808   1.324   1.983
 5145SOL    HW227467   4.941   1.350   2.074
 5146SOL     OW27468   5.174   1.220   3.495
 5146SOL    HW127469   5.165   1.210   3.594
 5146SOL    HW227470   5.270   1.213   3.469
 5147SOL     OW27471   4.114   1.741   3.422
 5147SOL    HW127472   4.023   1.782   3.420
 5147SOL    HW227473   4.107   1.647   3.454
 5148SOL     OW27474   5.398   0.883   3.116
 5148SOL    HW127475   5.371   0.794   3.079
 5148SOL    HW227476   5.399   0.951   3.043
 5149SOL     OW27477   4.318   0.745   2.514
 5149SOL    HW127478   4.368   0.830   2.495
 5149SOL    HW227479   4.230   0.747   2.466
 5150SOL     OW27480   4.583   1.374   1.878
 5150SOL    HW127481   4.537   1.389   1.966
 5150SOL    HW227482   4.627   1.459   1.848
 5151SOL     OW27483   4.583   0.956   2.723
 5151SOL    HW127484   4.637   0.887   2.771
 5151SOL    HW227485   4.551   1.025   2.789
 5152SOL     OW27486   3.945   1.314   3.706
 5152SOL    HW127487   3.880   1.241   3.685
 5152SOL    HW227488   3.949   1.328   3.804
 5153SOL     OW27489   4.041   0.547   3.142
 5153SOL    HW127490   4.079   0.488   3.214
 5153SOL    HW227491   4.081   0.521   3.054
 5154SOL     OW27492   4.536   1.586   2.549
 5154SOL    HW127493   4.568   1.596   2.455
 5154SOL    HW227494   4.457   1.524   2.551
 5155SOL     OW27495   5.148   0.214   2.974
 5155SOL    HW127496   5.200   0.149   3.029
 5155SOL    HW227497   5.099   0.277   3.035
 5156SOL     OW27498   4.494   1.330   2.163
 5156SOL    HW127499   4.448   1.243   2.180
 5156SOL    HW227500   4.585   1.327   2.204
 5157SOL     OW27501   4.342   1.567   3.146
 5157SOL    HW127502   4.337   1.649   3.203
 5157SOL    HW227503   4.431   1.564   3.101
 5158SOL     OW27504   5.076   0.052   2.030
 5158SOL    HW127505   5.111   0.011   1.946
 5158SOL    HW227506   4.986   0.014   2.050
 5159SOL     OW27507   4.599   1.646   2.199
 5159SOL    HW127508   4.522   1.611   2.145
 5159SOL    HW227509   4.567   1.717   2.261
 5160SOL     OW27510   3.954   0.628   3.837
 5160SOL    HW127511   3.861   0.626   3.874
 5160SOL    HW227512   3.955   0.589   3.745
 5161SOL     OW27513   5.184   1.505   5.063
 5161SOL    HW127514   5.208   1.599   5.089
 5161SOL    HW227515   5.168   1.451   5.145
 5162SOL     OW27516   4.162   0.392   5.223
 5162SOL    HW127517   4.244   0.336   5.232
 5162SOL    HW227518   4.081   0.334   5.227
 5163SOL     OW27519   5.327   0.447   4.461
 5163SOL    HW127520   5.253   0.493   4.411
 5163SOL    HW227521   5.378   0.515   4.514
 5164SOL     OW27522   4.330   0.964   3.847
 5164SOL    HW127523   4.337   1.048   3.793
 5164SOL    HW227524   4.376   0.977   3.935
 5165SOL     OW27525   5.566   1.767   4.083
 5165SOL    HW127526   5.620   1.738   4.163
 5165SOL    HW227527   5.596   1.857   4.054
 5166SOL     OW27528   3.837   0.737   5.321
 5166SOL    HW127529   3.925   0.724   5.366
 5166SOL    HW227530   3.824   0.834   5.299
 5167SOL     OW27531   4.337   1.365   4.450
 5167SOL    HW127532   4.288   1.278   4.459
 5167SOL    HW227533   4.314   1.408   4.363
 5168SOL     OW27534   5.249   0.999   3.914
 5168SOL    HW127535   5.186   0.923   3.927
 5168SOL    HW227536   5.297   1.017   4.000
 5169SOL     OW27537   4.041   0.251   5.525
 5169SOL    HW127538   4.112   0.322   5.531
 5169SOL    HW227539   3.953   0.290   5.553
 5170SOL     OW27540   4.715   0.410   4.966
 5170SOL    HW127541   4.638   0.444   5.020
 5170SOL    HW227542   4.681   0.359   4.887
 5171SOL     OW27543   4.589   0.348   3.919
 5171SOL    HW127544   4.648   0.411   3.870
 5171SOL    HW227545   4.608   0.254   3.890
 5172SOL     OW27546   4.075   1.801   4.577
 5172SOL    HW127547   4.125   1.715   4.583
 5172SOL    HW227548   4.140   1.878   4.574
 5173SOL     OW27549   4.951   1.550   5.230
 5173SOL    HW127550   4.957   1.473   5.294
 5173SOL    HW227551   4.899   1.524   5.150
 5174SOL     OW27552   3.926   0.285   5.222
 5174SOL    HW127553   3.846   0.345   5.209
 5174SOL    HW227554   3.916   0.236   5.308
 5175SOL     OW27555   5.356   1.377   3.805
 5175SOL    HW127556   5.324   1.471   3.795
 5175SOL    HW227557   5.280   1.314   3.793
 5176SOL     OW27558   4.664   1.698   4.628
 5176SOL    HW127559   4.744   1.641   4.649
 5176SOL    HW227560   4.615   1.658   4.551
 5177SOL     OW27561   4.106   0.700   4.204
 5177SOL    HW127562   4.151   0.610   4.201
 5177SOL    HW227563   4.012   0.689   4.237
 5178SOL     OW27564   5.271   0.222   5.453
 5178SOL    HW127565   5.266   0.259   5.545
 5178SOL    HW227566   5.199   0.153   5.441
 5179SOL     OW27567   4.505   0.264   5.473
 5179SOL    HW127568   4.572   0.203   5.516
 5179SOL    HW227569   4.432   0.283   5.538
 5180SOL     OW27570   4.646   0.503   4.623
 5180SOL    HW127571   4.621   0.494   4.527
 5180SOL    HW227572   4.694   0.421   4.654
 5181SOL     OW27573   4.800   0.683   5.188
 5181SOL    HW127574   4.720   0.622   5.191
 5181SOL    HW227575   4.881   0.630   5.164
 5182SOL     OW27576   4.183   1.152   4.465
 5182SOL    HW127577   4.112   1.125   4.530
 5182SOL    HW227578   4.157   1.124   4.372
 5183SOL     OW27579   4.995   1.797   4.315
 5183SOL    HW127580   5.039   1.861   4.251
 5183SOL    HW227581   4.945   1.849   4.385
 5184SOL     OW27582   3.802   0.556   5.110
 5184SOL    HW127583   3.894   0.555   5.069
 5184SOL    HW227584   3.796   0.630   5.177
 5185SOL     OW27585   4.285   0.222   4.871
 5185SOL    HW127586   4.323   0.138   4.908
 5185SOL    HW227587   4.197   0.241   4.915
 5186SOL     OW27588   5.581   0.833   4.101
 5186SOL    HW127589   5.623   0.769   4.165
 5186SOL    HW227590   5.543   0.782   4.023
 5187SOL     OW27591   5.388   1.280   4.381
 5187SOL    HW127592   5.487   1.288   4.395
 5187SOL    HW227593   5.343   1.364   4.412
 5188SOL     OW27594   4.788   1.347   5.064
 5188SOL    HW127595   4.708   1.324   5.119
 5188SOL    HW227596   4.871   1.321   5.113
 5189SOL     OW27597   5.362   1.099   4.803
 5189SOL    HW127598   5.367   1.180   4.862
 5189SOL    HW227599   5.276   1.101   4.752
 5190SOL     OW27600   4.429   1.050   4.092
 5190SOL    HW127601   4.415   1.057   4.191
 5190SOL    HW227602   4.513   0.999   4.074
 5191SOL     OW27603   4.998   0.386   4.986
 5191SOL    HW127604   5.019   0.460   5.050
 5191SOL    HW227605   4.909   0.403   4.943
 5192SOL     OW27606   4.091   1.100   4.225
 5192SOL    HW127607   4.084   1.183   4.169
 5192SOL    HW227608   4.095   1.020   4.165
 5193SOL     OW27609   4.976   1.348   4.112
 5193SOL    HW127610   5.026   1.425   4.152
 5193SOL    HW227611   4.881   1.350   4.144
 5194SOL     OW27612   4.996   1.445   4.866
 5194SOL    HW127613   5.043   1.458   4.953
 5194SOL    HW227614   4.930   1.371   4.875
 5195SOL     OW27615   4.228   0.050   5.464
 5195SOL    HW127616   4.186  -0.007   5.394
 5195SOL    HW227617   4.162   0.119   5.496
 5196SOL     OW27618   4.456   0.634   4.788
 5196SOL    HW127619   4.515   0.608   4.712
 5196SOL    HW227620   4.428   0.730   4.777
 5197SOL     OW27621   5.346   0.367   4.098
 5197SOL    HW127622   5.348   0.291   4.162
 5197SOL    HW227623   5.298   0.444   4.138
 5198SOL     OW27624   4.074   0.898   5.528
 5198SOL    HW127625   4.150   0.942   5.576
 5198SOL    HW227626   4.109   0.851   5.446
 5199SOL     OW27627   5.027   0.838   3.766
 5199SOL    HW127628   5.061   0.745   3.781
 5199SOL    HW227629   5.045   0.865   3.671
 5200SOL     OW27630   4.792   1.333   4.573
 5200SOL    HW127631   4.799   1.249   4.518
 5200SOL    HW227632   4.854   1.402   4.537
 5201SOL     OW27633   4.862   0.380   5.402
 5201SOL    HW127634   4.817   0.443   5.466
 5201SOL    HW227635   4.955   0.411   5.385
 5202SOL     OW27636   4.726   0.796   4.962
 5202SOL    HW127637   4.767   0.764   5.048
 5202SOL    HW227638   4.630   0.769   4.959
 5203SOL     OW27639   3.913   0.520   5.446
 5203SOL    HW127640   3.972   0.480   5.376
 5203SOL    HW227641   3.855   0.591   5.405
 5204SOL     OW27642   4.539   0.572   4.049
 5204SOL    HW127643   4.546   0.483   4.003
 5204SOL    HW227644   4.445   0.606   4.041
 5205SOL     OW27645   5.381   0.604   4.930
 5205SOL    HW127646   5.343   0.535   4.992
 5205SOL    HW227647   5.463   0.568   4.886
 5206SOL     OW27648   3.976   1.564   5.468
 5206SOL    HW127649   3.946   1.621   5.544
 5206SOL    HW227650   3.969   1.467   5.494
 5207SOL     OW27651   4.654   1.678   5.189
 5207SOL    HW127652   4.630   1.660   5.094
 5207SOL    HW227653   4.684   1.772   5.199
 5208SOL     OW27654   5.026   0.855   4.033
 5208SOL    HW127655   4.940   0.824   4.075
 5208SOL    HW227656   5.022   0.841   3.934
 5209SOL     OW27657   3.807   1.258   4.746
 5209SOL    HW127658   3.802   1.257   4.846
 5209SOL    HW227659   3.724   1.217   4.708
 5210SOL     OW27660   5.112   1.573   4.201
 5210SOL    HW127661   5.179   1.585   4.127
 5210SOL    HW227662   5.072   1.662   4.224
 5211SOL     OW27663   3.854   1.794   5.575
 5211SOL    HW127664   3.813   1.720   5.628
 5211SOL    HW227665   3.918   1.845   5.633
 5212SOL     OW27666   4.396   1.616   3.878
 5212SOL    HW127667   4.405   1.626   3.779
 5212SOL    HW227668   4.356   1.527   3.899
 5213SOL     OW27669   5.565   0.175   4.687
 5213SOL    HW127670   5.604   0.090   4.651
 5213SOL    HW227671   5.467   0.177   4.668
 5214SOL     OW27672   4.918   1.612   3.755
 5214SOL    HW127673   4.924   1.519   3.792
 5214SOL    HW227674   4.859   1.612   3.675
 5215SOL     OW27675   4.640   0.910   4.015
 5215SOL    HW127676   4.703   0.948   3.947
 5215SOL    HW227677   4.680   0.827   4.054
 5216SOL     OW27678   5.338   1.292   5.013
 5216SOL    HW127679   5.398   1.295   5.093
 5216SOL    HW227680   5.263   1.356   5.026
 5217SOL     OW27681   3.829   1.013   5.450
 5217SOL    HW127682   3.752   0.980   5.504
 5217SOL    HW227683   3.914   0.983   5.492
 5218SOL     OW27684   3.796   0.166   4.042
 5218SOL    HW127685   3.779   0.249   3.988
 5218SOL    HW227686   3.886   0.129   4.020
 5219SOL     OW27687   5.217   1.767   4.683
 5219SOL    HW127688   5.250   1.831   4.614
 5219SOL    HW227689   5.283   1.761   4.758
 5220SOL     OW27690   5.174   1.220   5.357
 5220SOL    HW127691   5.165   1.210   5.456
 5220SOL    HW227692   5.270   1.213   5.331
 5221SOL     OW27693   5.501   0.342   5.366
 5221SOL    HW127694   5.484   0.373   5.272
 5221SOL    HW227695   5.417   0.305   5.404
 5222SOL     OW27696   4.583   1.374   3.740
 5222SOL    HW127697   4.537   1.389   3.828
 5222SOL    HW227698   4.627   1.459   3.710
 5223SOL     OW27699   4.385   1.790   4.677
 5223SOL    HW127700   4.339   1.878   4.664
 5223SOL    HW227701   4.484   1.802   4.670
 5224SOL     OW27702   4.807   0.984   3.811
 5224SOL    HW127703   4.784   1.037   3.729
 5224SOL    HW227704   4.888   0.928   3.792
 5225SOL     OW27705   3.945   1.314   5.568
 5225SOL    HW127706   3.880   1.241   5.547
 5225SOL    HW227707   3.949   1.328   5.666
 5226SOL     OW27708   3.803   1.240   4.377
 5226SOL    HW127709   3.802   1.193   4.465
 5226SOL    HW227710   3.885   1.212   4.326
 5227SOL     OW27711   4.152   0.424   4.244
 5227SOL    HW127712   4.182   0.352   4.182
 5227SOL    HW227713   4.113   0.384   4.327
 5228SOL     OW27714   4.536   1.586   4.411
 5228SOL    HW127715   4.568   1.596   4.317
 5228SOL    HW227716   4.457   1.524   4.413
 5229SOL     OW27717   5.024   0.453   4.415
 5229SOL    HW127718   4.965   0.533   4.419
 5229SOL    HW227719   5.039   0.418   4.508
 5230SOL     OW27720   3.954   0.628   5.699
 5230SOL    HW127721   3.861   0.626   5.736
 5230SOL    HW227722   3.955   0.589   5.607
 5231SOL     OW27723   3.949   0.275   6.582
 5231SOL    HW127724   3.984   0.258   6.674
 5231SOL    HW227725   3.861   0.230   6.570
 5232SOL     OW27726   3.743   0.368   6.233
 5232SOL    HW127727   3.661   0.411   6.272
 5232SOL    HW227728   3.715   0.295   6.170
 5233SOL     OW27729   4.293   1.275   6.751
 5233SOL    HW127730   4.200   1.268   6.714
 5233SOL    HW227731   4.304   1.364   6.795
 5234SOL     OW27732   5.279   1.511   6.289
 5234SOL    HW127733   5.222   1.495   6.370
 5234SOL    HW227734   5.220   1.521   6.209
 5235SOL     OW27735   4.859   0.703   6.303
 5235SOL    HW127736   4.916   0.781   6.278
 5235SOL    HW227737   4.799   0.729   6.379
 5236SOL     OW27738   4.492   1.144   6.609
 5236SOL    HW127739   4.414   1.161   6.669
 5236SOL    HW227740   4.526   1.231   6.573
 5237SOL     OW27741   4.574   0.798   7.409
 5237SOL    HW127742   4.570   0.874   7.474
 5237SOL    HW227743   4.596   0.834   7.318
 5238SOL     OW27744   4.409   1.012   6.251
 5238SOL    HW127745   4.478   0.996   6.321
 5238SOL    HW227746   4.336   1.069   6.289
 5239SOL     OW27747   4.410   1.161   7.389
 5239SOL    HW127748   4.470   1.240   7.403
 5239SOL    HW227749   4.324   1.192   7.348
 5240SOL     OW27750   4.059   1.435   6.647
 5240SOL    HW127751   3.981   1.404   6.594
 5240SOL    HW227752   4.117   1.493   6.590
 5241SOL     OW27753   5.184   1.505   6.925
 5241SOL    HW127754   5.208   1.599   6.951
 5241SOL    HW227755   5.168   1.451   7.007
 5242SOL     OW27756   4.162   0.392   7.085
 5242SOL    HW127757   4.244   0.336   7.094
 5242SOL    HW227758   4.081   0.334   7.089
 5243SOL     OW27759   5.327   0.447   6.323
 5243SOL    HW127760   5.253   0.493   6.273
 5243SOL    HW227761   5.378   0.515   6.376
 5244SOL     OW27762   3.955   1.713   6.069
 5244SOL    HW127763   3.989   1.790   6.123
 5244SOL    HW227764   3.999   1.713   5.979
 5245SOL     OW27765   4.851   1.341   7.276
 5245SOL    HW127766   4.898   1.341   7.364
 5245SOL    HW227767   4.803   1.254   7.265
 5246SOL     OW27768   3.954   1.434   6.124
 5246SOL    HW127769   3.928   1.530   6.124
 5246SOL    HW227770   3.883   1.380   6.169
 5247SOL     OW27771   3.964   1.091   6.472
 5247SOL    HW127772   3.978   1.007   6.524
 5247SOL    HW227773   3.909   1.155   6.527
 5248SOL     OW27774   4.344   1.786   7.025
 5248SOL    HW127775   4.252   1.769   7.060
 5248SOL    HW227776   4.372   1.878   7.051
 5249SOL     OW27777   4.330   0.964   5.709
 5249SOL    HW127778   4.337   1.048   5.655
 5249SOL    HW227779   4.376   0.977   5.797
 5250SOL     OW27780   5.318   0.114   7.066
 5250SOL    HW127781   5.300   0.181   6.994
 5250SOL    HW227782   5.315   0.160   7.155
 5251SOL     OW27783   3.846   0.643   6.149
 5251SOL    HW127784   3.801   0.555   6.166
 5251SOL    HW227785   3.845   0.697   6.233
 5252SOL     OW27786   5.566   1.767   5.945
 5252SOL    HW127787   5.620   1.738   6.025
 5252SOL    HW227788   5.596   1.857   5.916
 5253SOL     OW27789   5.413   0.922   6.198
 5253SOL    HW127790   5.508   0.893   6.206
 5253SOL    HW227791   5.405   0.987   6.123
 5254SOL     OW27792   5.365   1.108   6.018
 5254SOL    HW127793   5.451   1.110   5.966
 5254SOL    HW227794   5.379   1.155   6.106
 5255SOL     OW27795   3.837   0.737   7.183
 5255SOL    HW127796   3.925   0.724   7.228
 5255SOL    HW227797   3.824   0.834   7.161
 5256SOL     OW27798   4.337   1.365   6.312
 5256SOL    HW127799   4.288   1.278   6.321
 5256SOL    HW227800   4.314   1.408   6.225
 5257SOL     OW27801   5.017   1.228   7.009
 5257SOL    HW127802   5.054   1.155   6.951
 5257SOL    HW227803   5.069   1.233   7.094
 5258SOL     OW27804   4.533   0.004   6.088
 5258SOL    HW127805   4.573   0.095   6.079
 5258SOL    HW227806   4.433   0.012   6.094
 5259SOL     OW27807   3.921   0.976   6.850
 5259SOL    HW127808   4.010   0.931   6.836
 5259SOL    HW227809   3.848   0.911   6.831
 5260SOL     OW27810   4.911   1.792   7.202
 5260SOL    HW127811   4.935   1.852   7.126
 5260SOL    HW227812   4.918   1.697   7.172
 5261SOL     OW27813   4.041   0.251   7.387
 5261SOL    HW127814   4.112   0.322   7.393
 5261SOL    HW227815   3.953   0.290   7.415
 5262SOL     OW27816   5.190   1.417   6.539
 5262SOL    HW127817   5.131   1.423   6.619
 5262SOL    HW227818   5.175   1.329   6.493
 5263SOL     OW27819   5.391   1.714   6.158
 5263SOL    HW127820   5.350   1.691   6.070
 5263SOL    HW227821   5.373   1.640   6.223
 5264SOL     OW27822   4.322   0.729   5.856
 5264SOL    HW127823   4.346   0.798   5.788
 5264SOL    HW227824   4.244   0.762   5.910
 5265SOL     OW27825   5.005   0.345   6.530
 5265SOL    HW127826   4.919   0.295   6.517
 5265SOL    HW227827   5.067   0.291   6.586
 5266SOL     OW27828   5.300   1.662   5.893
 5266SOL    HW127829   5.389   1.708   5.896
 5266SOL    HW227830   5.279   1.638   5.798
 5267SOL     OW27831   4.531   0.605   7.051
 5267SOL    HW127832   4.484   0.602   7.140
 5267SOL    HW227833   4.480   0.550   6.985
 5268SOL     OW27834   4.697   0.890   7.158
 5268SOL    HW127835   4.743   0.806   7.129
 5268SOL    HW227836   4.641   0.924   7.083
 5269SOL     OW27837   4.715   0.410   6.828
 5269SOL    HW127838   4.638   0.444   6.882
 5269SOL    HW227839   4.681   0.359   6.749
 5270SOL     OW27840   3.800   0.811   6.375
 5270SOL    HW127841   3.899   0.799   6.384
 5270SOL    HW227842   3.776   0.906   6.396
 5271SOL     OW27843   3.854   1.821   7.157
 5271SOL    HW127844   3.844   1.806   7.256
 5271SOL    HW227845   3.768   1.857   7.121
 5272SOL     OW27846   4.589   0.348   5.781
 5272SOL    HW127847   4.648   0.411   5.732
 5272SOL    HW227848   4.608   0.254   5.752
 5273SOL     OW27849   5.086   1.144   6.131
 5273SOL    HW127850   5.169   1.115   6.083
 5273SOL    HW227851   5.037   1.211   6.075
 5274SOL     OW27852   4.274   0.196   6.471
 5274SOL    HW127853   4.269   0.191   6.571
 5274SOL    HW227854   4.276   0.292   6.442
 5275SOL     OW27855   4.732   1.456   6.063
 5275SOL    HW127856   4.686   1.528   6.011
 5275SOL    HW227857   4.728   1.476   6.161
 5276SOL     OW27858   4.075   1.801   6.439
 5276SOL    HW127859   4.125   1.715   6.445
 5276SOL    HW227860   4.140   1.878   6.436
 5277SOL     OW27861   5.519   1.066   6.459
 5277SOL    HW127862   5.457   1.051   6.383
 5277SOL    HW227863   5.467   1.077   6.544
 5278SOL     OW27864   4.951   1.550   7.092
 5278SOL    HW127865   4.957   1.473   7.156
 5278SOL    HW227866   4.899   1.524   7.012
 5279SOL     OW27867   4.045   0.943   5.828
 5279SOL    HW127868   4.127   0.982   5.786
 5279SOL    HW227869   4.018   0.861   5.779
 5280SOL     OW27870   5.182   0.735   6.314
 5280SOL    HW127871   5.177   0.670   6.389
 5280SOL    HW227872   5.262   0.794   6.327
 5281SOL     OW27873   4.185   1.266   7.313
 5281SOL    HW127874   4.135   1.267   7.227
 5281SOL    HW227875   4.122   1.248   7.389
 5282SOL     OW27876   3.926   0.285   7.084
 5282SOL    HW127877   3.846   0.345   7.071
 5282SOL    HW227878   3.916   0.236   7.170
 5283SOL     OW27879   4.188   1.743   5.909
 5283SOL    HW127880   4.221   1.782   5.995
 5283SOL    HW227881   4.264   1.736   5.844
 5284SOL     OW27882   5.124   0.107   6.012
 5284SOL    HW127883   5.100   0.070   5.922
 5284SOL    HW227884   5.223   0.123   6.016
 5285SOL     OW27885   3.973   1.785   6.827
 5285SOL    HW127886   4.030   1.720   6.877
 5285SOL    HW227887   3.957   1.752   6.734
 5286SOL     OW27888   4.664   1.698   6.490
 5286SOL    HW127889   4.744   1.641   6.511
 5286SOL    HW227890   4.615   1.658   6.413
 5287SOL     OW27891   4.106   0.700   6.066
 5287SOL    HW127892   4.151   0.610   6.063
 5287SOL    HW227893   4.012   0.689   6.099
 5288SOL     OW27894   4.338   0.122   5.703
 5288SOL    HW127895   4.436   0.100   5.710
 5288SOL    HW227896   4.307   0.105   5.610
 5289SOL     OW27897   4.505   0.264   7.335
 5289SOL    HW127898   4.572   0.203   7.378
 5289SOL    HW227899   4.432   0.283   7.400
 5290SOL     OW27900   4.612   1.514   6.781
 5290SOL    HW127901   4.589   1.489   6.687
 5290SOL    HW227902   4.673   1.445   6.820
 5291SOL     OW27903   5.075   0.590   7.019
 5291SOL    HW127904   5.103   0.547   7.104
 5291SOL    HW227905   5.100   0.686   7.020
 5292SOL     OW27906   4.527   1.402   6.510
 5292SOL    HW127907   4.617   1.416   6.468
 5292SOL    HW227908   4.456   1.404   6.439
 5293SOL     OW27909   4.646   0.503   6.485
 5293SOL    HW127910   4.621   0.494   6.389
 5293SOL    HW227911   4.694   0.421   6.516
 5294SOL     OW27912   4.263   0.064   6.098
 5294SOL    HW127913   4.182   0.065   6.156
 5294SOL    HW227914   4.266   0.147   6.043
 5295SOL     OW27915   4.021   0.035   5.757
 5295SOL    HW127916   4.070   0.119   5.736
 5295SOL    HW227917   4.083  -0.030   5.802
 5296SOL     OW27918   4.659   0.236   6.066
 5296SOL    HW127919   4.611   0.277   5.988
 5296SOL    HW227920   4.758   0.234   6.047
 5297SOL     OW27921   4.800   0.683   7.050
 5297SOL    HW127922   4.720   0.622   7.053
 5297SOL    HW227923   4.881   0.630   7.026
 5298SOL     OW27924   4.951   1.570   6.379
 5298SOL    HW127925   4.972   1.644   6.314
 5298SOL    HW227926   5.019   1.570   6.452
 5299SOL     OW27927   4.183   1.152   6.327
 5299SOL    HW127928   4.112   1.125   6.392
 5299SOL    HW227929   4.157   1.124   6.234
 5300SOL     OW27930   4.756   0.549   5.602
 5300SOL    HW127931   4.715   0.631   5.563
 5300SOL    HW227932   4.820   0.575   5.675
 5301SOL     OW27933   3.802   0.556   6.972
 5301SOL    HW127934   3.894   0.555   6.931
 5301SOL    HW227935   3.796   0.630   7.039
 5302SOL     OW27936   4.285   0.222   6.733
 5302SOL    HW127937   4.323   0.138   6.770
 5302SOL    HW227938   4.197   0.241   6.777
 5303SOL     OW27939   4.590   0.454   6.228
 5303SOL    HW127940   4.558   0.526   6.166
 5303SOL    HW227941   4.614   0.373   6.175
 5304SOL     OW27942   4.741   0.039   6.339
 5304SOL    HW127943   4.669   0.044   6.270
 5304SOL    HW227944   4.717  -0.030   6.408
 5305SOL     OW27945   5.153   1.173   6.453
 5305SOL    HW127946   5.098   1.089   6.446
 5305SOL    HW227947   5.179   1.202   6.361
 5306SOL     OW27948   5.190   0.590   6.578
 5306SOL    HW127949   5.160   0.495   6.585
 5306SOL    HW227950   5.263   0.606   6.644
 5307SOL     OW27951   5.581   0.833   5.963
 5307SOL    HW127952   5.623   0.769   6.027
 5307SOL    HW227953   5.543   0.782   5.885
 5308SOL     OW27954   4.212   1.385   5.760
 5308SOL    HW127955   4.125   1.370   5.807
 5308SOL    HW227956   4.195   1.411   5.665
 5309SOL     OW27957   5.388   1.280   6.243
 5309SOL    HW127958   5.487   1.288   6.257
 5309SOL    HW227959   5.343   1.364   6.274
 5310SOL     OW27960   5.114   0.575   5.664
 5310SOL    HW127961   5.060   0.554   5.745
 5310SOL    HW227962   5.205   0.534   5.673
 5311SOL     OW27963   4.251   0.256   5.914
 5311SOL    HW127964   4.278   0.197   5.839
 5311SOL    HW227965   4.251   0.351   5.883
 5312SOL     OW27966   5.478   1.223   7.174
 5312SOL    HW127967   5.569   1.184   7.161
 5312SOL    HW227968   5.486   1.319   7.198
 5313SOL     OW27969   4.788   1.347   6.926
 5313SOL    HW127970   4.708   1.324   6.981
 5313SOL    HW227971   4.871   1.321   6.975
 5314SOL     OW27972   5.316   1.629   7.211
 5314SOL    HW127973   5.343   1.663   7.121
 5314SOL    HW227974   5.395   1.591   7.257
 5315SOL     OW27975   4.835   1.195   6.686
 5315SOL    HW127976   4.795   1.239   6.767
 5315SOL    HW227977   4.794   1.232   6.603
 5316SOL     OW27978   5.362   1.099   6.665
 5316SOL    HW127979   5.367   1.180   6.724
 5316SOL    HW227980   5.276   1.101   6.614
 5317SOL     OW27981   4.639   0.089   6.988
 5317SOL    HW127982   4.664   0.069   6.893
 5317SOL    HW227983   4.711   0.145   7.030
 5318SOL     OW27984   4.704   1.116   7.305
 5318SOL    HW127985   4.605   1.122   7.315
 5318SOL    HW227986   4.727   1.036   7.249
 5319SOL     OW27987   4.134   0.813   6.837
 5319SOL    HW127988   4.220   0.825   6.887
 5319SOL    HW227989   4.092   0.726   6.864
 5320SOL     OW27990   4.998   0.386   6.848
 5320SOL    HW127991   5.019   0.460   6.912
 5320SOL    HW227992   4.909   0.403   6.805
 5321SOL     OW27993   3.788   1.564   6.917
 5321SOL    HW127994   3.742   1.646   6.883
 5321SOL    HW227995   3.886   1.583   6.926
 5322SOL     OW27996   4.091   1.100   6.087
 5322SOL    HW127997   4.084   1.183   6.031
 5322SOL    HW227998   4.095   1.020   6.027
 5323SOL     OW27999   4.290   0.537   6.451
 5323SOL    HW128000   4.302   0.603   6.377
 5323SOL    HW228001   4.336   0.571   6.534
 5324SOL     OW28002   4.976   1.348   5.974
 5324SOL    HW128003   5.026   1.425   6.014
 5324SOL    HW228004   4.881   1.350   6.006
 5325SOL     OW28005   4.996   1.445   6.728
 5325SOL    HW128006   5.043   1.458   6.815
 5325SOL    HW228007   4.930   1.371   6.737
 5326SOL     OW28008   5.306   0.639   6.058
 5326SOL    HW128009   5.275   0.700   6.131
 5326SOL    HW228010   5.356   0.691   5.989
 5327SOL     OW28011   4.078   1.510   6.915
 5327SOL    HW128012   4.057   1.466   6.828
 5327SOL    HW228013   4.175   1.536   6.918
 5328SOL     OW28014   4.126   0.751   7.184
 5328SOL    HW128015   4.194   0.806   7.137
 5328SOL    HW228016   4.166   0.663   7.211
 5329SOL     OW28017   5.311   0.779   7.256
 5329SOL    HW128018   5.219   0.817   7.251
 5329SOL    HW228019   5.371   0.826   7.191
 5330SOL     OW28020   4.297   0.870   6.615
 5330SOL    HW128021   4.341   0.959   6.606
 5330SOL    HW228022   4.234   0.870   6.692
 5331SOL     OW28023   5.084   0.862   6.631
 5331SOL    HW128024   5.009   0.862   6.565
 5331SOL    HW228025   5.121   0.770   6.640
 5332SOL     OW28026   4.933   0.525   5.861
 5332SOL    HW128027   4.946   0.441   5.915
 5332SOL    HW228028   4.904   0.599   5.921
 5333SOL     OW28029   4.031   0.213   6.817
 5333SOL    HW128030   4.008   0.250   6.907
 5333SOL    HW228031   4.001   0.118   6.811
 5334SOL     OW28032   3.761   1.310   6.868
 5334SOL    HW128033   3.814   1.261   6.936
 5334SOL    HW228034   3.783   1.408   6.873
 5335SOL     OW28035   4.456   0.634   6.650
 5335SOL    HW128036   4.515   0.608   6.574
 5335SOL    HW228037   4.428   0.730   6.639
 5336SOL     OW28038   5.452   0.935   7.440
 5336SOL    HW128039   5.406   0.928   7.351
 5336SOL    HW228040   5.390   0.979   7.506
 5337SOL     OW28041   4.031   0.063   6.204
 5337SOL    HW128042   4.020   0.157   6.237
 5337SOL    HW228043   4.026   0.000   6.281
 5338SOL     OW28044   5.346   0.367   5.960
 5338SOL    HW128045   5.348   0.291   6.024
 5338SOL    HW228046   5.298   0.444   6.000
 5339SOL     OW28047   4.747   0.766   6.552
 5339SOL    HW128048   4.762   0.787   6.648
 5339SOL    HW228049   4.717   0.671   6.543
 5340SOL     OW28050   4.704   1.573   7.286
 5340SOL    HW128051   4.684   1.617   7.198
 5340SOL    HW228052   4.743   1.482   7.270
 5341SOL     OW28053   5.583   1.518   7.191
 5341SOL    HW128054   5.597   1.545   7.096
 5341SOL    HW228055   5.666   1.540   7.244
 5342SOL     OW28056   4.074   0.898   7.390
 5342SOL    HW128057   4.150   0.942   7.438
 5342SOL    HW228058   4.109   0.851   7.308
 5343SOL     OW28059   5.264   0.274   5.711
 5343SOL    HW128060   5.203   0.199   5.734
 5343SOL    HW228061   5.286   0.326   5.794
 5344SOL     OW28062   4.792   1.333   6.435
 5344SOL    HW128063   4.799   1.249   6.380
 5344SOL    HW228064   4.854   1.402   6.399
 5345SOL     OW28065   4.043   0.810   6.535
 5345SOL    HW128066   4.136   0.846   6.540
 5345SOL    HW228067   4.037   0.725   6.587
 5346SOL     OW28068   4.063   0.509   6.592
 5346SOL    HW128069   4.011   0.426   6.575
 5346SOL    HW228070   4.140   0.514   6.528
 5347SOL     OW28071   4.862   0.380   7.264
 5347SOL    HW128072   4.817   0.443   7.328
 5347SOL    HW228073   4.955   0.411   7.247
 5348SOL     OW28074   4.884   0.207   7.063
 5348SOL    HW128075   4.884   0.271   7.140
 5348SOL    HW228076   4.912   0.255   6.980
 5349SOL     OW28077   3.812   1.801   6.513
 5349SOL    HW128078   3.770   1.715   6.486
 5349SOL    HW228079   3.906   1.804   6.479
 5350SOL     OW28080   4.228   1.568   6.496
 5350SOL    HW128081   4.294   1.642   6.505
 5350SOL    HW228082   4.272   1.489   6.454
 5351SOL     OW28083   4.726   0.796   6.824
 5351SOL    HW128084   4.767   0.764   6.910
 5351SOL    HW228085   4.630   0.769   6.821
 5352SOL     OW28086   3.764   0.544   6.700
 5352SOL    HW128087   3.849   0.511   6.659
 5352SOL    HW228088   3.777   0.559   6.798
 5353SOL     OW28089   4.539   0.572   5.911
 5353SOL    HW128090   4.546   0.483   5.865
 5353SOL    HW228091   4.445   0.606   5.903
 5354SOL     OW28092   5.381   0.604   6.792
 5354SOL    HW128093   5.343   0.535   6.854
 5354SOL    HW228094   5.463   0.568   6.748
 5355SOL     OW28095   3.976   1.564   7.330
 5355SOL    HW128096   3.946   1.621   7.406
 5355SOL    HW228097   3.969   1.467   7.356
 5356SOL     OW28098   4.395   0.464   6.855
 5356SOL    HW128099   4.361   0.375   6.825
 5356SOL    HW228100   4.421   0.518   6.775
 5357SOL     OW28101   4.654   1.678   7.051
 5357SOL    HW128102   4.630   1.660   6.956
 5357SOL    HW228103   4.684   1.772   7.061
 5358SOL     OW28104   4.197   0.500   5.777
 5358SOL    HW128105   4.258   0.580   5.781
 5358SOL    HW228106   4.102   0.531   5.784
 5359SOL     OW28107   3.883   1.137   7.052
 5359SOL    HW128108   3.905   1.076   7.128
 5359SOL    HW228109   3.893   1.088   6.966
 5360SOL     OW28110   5.071   1.059   6.820
 5360SOL    HW128111   5.095   0.996   6.746
 5360SOL    HW228112   4.981   1.099   6.802
 5361SOL     OW28113   5.483   1.747   6.740
 5361SOL    HW128114   5.544   1.777   6.667
 5361SOL    HW228115   5.445   1.658   6.718
 5362SOL     OW28116   4.976   1.731   6.714
 5362SOL    HW128117   5.060   1.736   6.660
 5362SOL    HW228118   4.953   1.635   6.732
 5363SOL     OW28119   3.807   1.258   6.608
 5363SOL    HW128120   3.802   1.257   6.708
 5363SOL    HW228121   3.724   1.217   6.570
 5364SOL     OW28122   4.412   1.662   7.302
 5364SOL    HW128123   4.356   1.743   7.311
 5364SOL    HW228124   4.464   1.666   7.216
 5365SOL     OW28125   5.450   0.135   6.109
 5365SOL    HW128126   5.523   0.118   6.042
 5365SOL    HW228127   5.419   0.048   6.147
 5366SOL     OW28128   5.004   0.927   6.258
 5366SOL    HW128129   5.064   0.846   6.260
 5366SOL    HW228130   5.044   0.996   6.198
 5367SOL     OW28131   4.554   1.273   7.008
 5367SOL    HW128132   4.549   1.306   7.103
 5367SOL    HW228133   4.468   1.292   6.962
 5368SOL     OW28134   5.374   1.720   6.980
 5368SOL    HW128135   5.427   1.730   6.896
 5368SOL    HW228136   5.347   1.810   7.014
 5369SOL     OW28137   5.565   0.175   6.549
 5369SOL    HW128138   5.604   0.090   6.513
 5369SOL    HW228139   5.467   0.177   6.530
 5370SOL     OW28140   3.987   0.326   6.306
 5370SOL    HW128141   3.908   0.377   6.272
 5370SOL    HW228142   3.978   0.311   6.404
 5371SOL     OW28143   4.918   1.612   5.617
 5371SOL    HW128144   4.924   1.519   5.654
 5371SOL    HW228145   4.859   1.612   5.537
 5372SOL     OW28146   4.546   1.002   6.958
 5372SOL    HW128147   4.586   1.001   6.866
 5372SOL    HW228148   4.556   1.094   6.998
 5373SOL     OW28149   4.096   1.288   7.076
 5373SOL    HW128150   4.083   1.381   7.042
 5373SOL    HW228151   4.012   1.236   7.063
 5374SOL     OW28152   5.338   1.292   6.875
 5374SOL    HW128153   5.398   1.295   6.955
 5374SOL    HW228154   5.263   1.356   6.888
 5375SOL     OW28155   4.763   1.098   6.282
 5375SOL    HW128156   4.693   1.051   6.336
 5375SOL    HW228157   4.822   1.030   6.239
 5376SOL     OW28158   4.738   0.236   6.557
 5376SOL    HW128159   4.730   0.200   6.464
 5376SOL    HW228160   4.736   0.160   6.622
 5377SOL     OW28161   5.433   0.385   6.967
 5377SOL    HW128162   5.506   0.454   6.971
 5377SOL    HW228163   5.461   0.310   6.908
 5378SOL     OW28164   3.979   1.348   5.876
 5378SOL    HW128165   3.883   1.349   5.849
 5378SOL    HW228166   3.991   1.401   5.960
 5379SOL     OW28167   3.829   1.013   7.312
 5379SOL    HW128168   3.752   0.980   7.366
 5379SOL    HW228169   3.914   0.983   7.354
 5380SOL     OW28170   4.396   0.203   7.075
 5380SOL    HW128171   4.486   0.187   7.035
 5380SOL    HW228172   4.404   0.208   7.174
 5381SOL     OW28173   5.164   0.856   6.984
 5381SOL    HW128174   5.107   0.908   6.921
 5381SOL    HW228175   5.260   0.868   6.960
 5382SOL     OW28176   3.796   0.166   5.904
 5382SOL    HW128177   3.779   0.249   5.850
 5382SOL    HW228178   3.886   0.129   5.882
 5383SOL     OW28179   4.907   1.335   5.705
 5383SOL    HW128180   4.808   1.324   5.707
 5383SOL    HW228181   4.941   1.350   5.798
 5384SOL     OW28182   4.337   0.842   7.017
 5384SOL    HW128183   4.393   0.923   7.000
 5384SOL    HW228184   4.396   0.762   7.020
 5385SOL     OW28185   5.217   1.767   6.545
 5385SOL    HW128186   5.250   1.831   6.476
 5385SOL    HW228187   5.283   1.761   6.620
 5386SOL     OW28188   4.440   0.565   7.294
 5386SOL    HW128189   4.459   0.630   7.368
 5386SOL    HW228190   4.500   0.485   7.303
 5387SOL     OW28191   4.114   1.741   7.146
 5387SOL    HW128192   4.023   1.782   7.144
 5387SOL    HW228193   4.107   1.647   7.178
 5388SOL     OW28194   5.398   0.883   6.840
 5388SOL    HW128195   5.371   0.794   6.803
 5388SOL    HW228196   5.399   0.951   6.767
 5389SOL     OW28197   4.949   0.325   6.035
 5389SOL    HW128198   5.014   0.251   6.024
 5389SOL    HW228199   4.969   0.375   6.119
 5390SOL     OW28200   4.318   0.745   6.238
 5390SOL    HW128201   4.368   0.830   6.219
 5390SOL    HW228202   4.230   0.747   6.190
 5391SOL     OW28203   5.501   0.342   7.228
 5391SOL    HW128204   5.484   0.373   7.134
 5391SOL    HW228205   5.417   0.305   7.266
 5392SOL     OW28206   5.454   0.934   7.103
 5392SOL    HW128207   5.492   1.025   7.118
 5392SOL    HW228208   5.446   0.917   7.004
 5393SOL     OW28209   4.385   1.790   6.539
 5393SOL    HW128210   4.339   1.878   6.526
 5393SOL    HW228211   4.484   1.802   6.532
 5394SOL     OW28212   4.583   0.956   6.447
 5394SOL    HW128213   4.637   0.887   6.495
 5394SOL    HW228214   4.551   1.025   6.513
 5395SOL     OW28215   5.585   1.569   6.437
 5395SOL    HW128216   5.514   1.557   6.367
 5395SOL    HW228217   5.586   1.490   6.497
 5396SOL     OW28218   3.945   1.314   7.430
 5396SOL    HW128219   3.880   1.241   7.409
 5396SOL    HW228220   3.949   1.328   7.528
 5397SOL     OW28221   3.803   1.240   6.239
 5397SOL    HW128222   3.802   1.193   6.327
 5397SOL    HW228223   3.885   1.212   6.188
 5398SOL     OW28224   4.396   1.391   7.210
 5398SOL    HW128225   4.318   1.341   7.248
 5398SOL    HW228226   4.393   1.486   7.241
 5399SOL     OW28227   5.548   0.192   6.813
 5399SOL    HW128228   5.544   0.102   6.857
 5399SOL    HW228229   5.551   0.181   6.714
 5400SOL     OW28230   4.152   0.424   6.106
 5400SOL    HW128231   4.182   0.352   6.044
 5400SOL    HW228232   4.113   0.384   6.189
 5401SOL     OW28233   5.429   1.487   6.690
 5401SOL    HW128234   5.336   1.462   6.663
 5401SOL    HW228235   5.455   1.437   6.772
 5402SOL     OW28236   4.041   0.547   6.866
 5402SOL    HW128237   4.079   0.488   6.938
 5402SOL    HW228238   4.081   0.521   6.778
 5403SOL     OW28239   4.536   1.586   6.273
 5403SOL    HW128240   4.568   1.596   6.179
 5403SOL    HW228241   4.457   1.524   6.275
 5404SOL     OW28242   5.148   0.214   6.698
 5404SOL    HW128243   5.200   0.149   6.753
 5404SOL    HW228244   5.099   0.277   6.759
 5405SOL     OW28245   4.725   0.034   6.740
 5405SOL    HW128246   4.662  -0.038   6.709
 5405SOL    HW228247   4.818  -0.002   6.740
 5406SOL     OW28248   4.494   1.330   5.887
 5406SOL    HW128249   4.448   1.243   5.904
 5406SOL    HW228250   4.585   1.327   5.928
 5407SOL     OW28251   4.342   1.567   6.870
 5407SOL    HW128252   4.337   1.649   6.927
 5407SOL    HW228253   4.431   1.564   6.825
 5408SOL     OW28254   5.076   0.052   5.754
 5408SOL    HW128255   5.111   0.011   5.670
 5408SOL    HW228256   4.986   0.014   5.774
 5409SOL     OW28257   5.024   0.453   6.277
 5409SOL    HW128258   4.965   0.533   6.281
 5409SOL    HW228259   5.039   0.418   6.370
 5410SOL     OW28260   5.317   0.221   6.468
 5410SOL    HW128261   5.233   0.220   6.522
 5410SOL    HW228262   5.319   0.304   6.412
 5411SOL     OW28263   3.763   1.077   5.886
 5411SOL    HW128264   3.862   1.066   5.877
 5411SOL    HW228265   3.723   0.991   5.918
 5412SOL     OW28266   3.954   2.490   0.113
 5412SOL    HW128267   3.861   2.488   0.150
 5412SOL    HW228268   3.955   2.451   0.021
 5413SOL     OW28269   3.949   2.137   0.996
 5413SOL    HW128270   3.984   2.120   1.088
 5413SOL    HW228271   3.861   2.092   0.984
 5414SOL     OW28272   3.743   2.230   0.647
 5414SOL    HW128273   3.661   2.273   0.686
 5414SOL    HW228274   3.715   2.157   0.584
 5415SOL     OW28275   4.293   3.137   1.165
 5415SOL    HW128276   4.200   3.130   1.128
 5415SOL    HW228277   4.304   3.226   1.209
 5416SOL     OW28278   5.279   3.373   0.703
 5416SOL    HW128279   5.222   3.357   0.784
 5416SOL    HW228280   5.220   3.383   0.623
 5417SOL     OW28281   4.859   2.565   0.717
 5417SOL    HW128282   4.916   2.643   0.692
 5417SOL    HW228283   4.799   2.591   0.793
 5418SOL     OW28284   5.479   2.469   0.231
 5418SOL    HW128285   5.467   2.456   0.132
 5418SOL    HW228286   5.449   2.388   0.280
 5419SOL     OW28287   4.492   3.006   1.023
 5419SOL    HW128288   4.414   3.023   1.083
 5419SOL    HW228289   4.526   3.093   0.987
 5420SOL     OW28290   4.574   2.660   1.823
 5420SOL    HW128291   4.570   2.736   1.888
 5420SOL    HW228292   4.596   2.696   1.732
 5421SOL     OW28293   4.409   2.874   0.665
 5421SOL    HW128294   4.478   2.858   0.735
 5421SOL    HW228295   4.336   2.931   0.703
 5422SOL     OW28296   4.410   3.023   1.803
 5422SOL    HW128297   4.470   3.102   1.817
 5422SOL    HW228298   4.324   3.054   1.762
 5423SOL     OW28299   4.059   3.297   1.061
 5423SOL    HW128300   3.981   3.266   1.008
 5423SOL    HW228301   4.117   3.355   1.004
 5424SOL     OW28302   5.184   3.367   1.339
 5424SOL    HW128303   5.208   3.461   1.365
 5424SOL    HW228304   5.168   3.313   1.421
 5425SOL     OW28305   4.162   2.254   1.499
 5425SOL    HW128306   4.244   2.198   1.508
 5425SOL    HW228307   4.081   2.196   1.503
 5426SOL     OW28308   5.327   2.309   0.737
 5426SOL    HW128309   5.253   2.355   0.687
 5426SOL    HW228310   5.378   2.377   0.790
 5427SOL     OW28311   3.955   3.575   0.483
 5427SOL    HW128312   3.989   3.652   0.537
 5427SOL    HW228313   3.999   3.575   0.393
 5428SOL     OW28314   3.954   3.296   0.538
 5428SOL    HW128315   3.928   3.392   0.538
 5428SOL    HW228316   3.883   3.242   0.583
 5429SOL     OW28317   3.964   2.953   0.886
 5429SOL    HW128318   3.978   2.869   0.938
 5429SOL    HW228319   3.909   3.017   0.941
 5430SOL     OW28320   4.344   3.648   1.439
 5430SOL    HW128321   4.252   3.631   1.474
 5430SOL    HW228322   4.372   3.740   1.465
 5431SOL     OW28323   4.330   2.826   0.123
 5431SOL    HW128324   4.337   2.910   0.069
 5431SOL    HW228325   4.376   2.839   0.211
 5432SOL     OW28326   5.318   1.976   1.480
 5432SOL    HW128327   5.300   2.043   1.408
 5432SOL    HW228328   5.315   2.022   1.569
 5433SOL     OW28329   3.846   2.505   0.563
 5433SOL    HW128330   3.801   2.417   0.580
 5433SOL    HW228331   3.845   2.559   0.647
 5434SOL     OW28332   5.566   3.629   0.359
 5434SOL    HW128333   5.620   3.600   0.439
 5434SOL    HW228334   5.596   3.719   0.330
 5435SOL     OW28335   3.751   3.458   0.117
 5435SOL    HW128336   3.732   3.362   0.138
 5435SOL    HW228337   3.718   3.516   0.192
 5436SOL     OW28338   5.413   2.784   0.612
 5436SOL    HW128339   5.508   2.755   0.620
 5436SOL    HW228340   5.405   2.849   0.537
 5437SOL     OW28341   5.365   2.970   0.432
 5437SOL    HW128342   5.451   2.972   0.380
 5437SOL    HW228343   5.379   3.017   0.520
 5438SOL     OW28344   3.837   2.599   1.597
 5438SOL    HW128345   3.925   2.586   1.642
 5438SOL    HW228346   3.824   2.696   1.575
 5439SOL     OW28347   4.337   3.227   0.726
 5439SOL    HW128348   4.288   3.140   0.735
 5439SOL    HW228349   4.314   3.270   0.639
 5440SOL     OW28350   5.017   3.090   1.423
 5440SOL    HW128351   5.054   3.017   1.365
 5440SOL    HW228352   5.069   3.095   1.508
 5441SOL     OW28353   4.533   1.866   0.502
 5441SOL    HW128354   4.573   1.957   0.493
 5441SOL    HW228355   4.433   1.874   0.508
 5442SOL     OW28356   3.921   2.838   1.264
 5442SOL    HW128357   4.010   2.793   1.250
 5442SOL    HW228358   3.848   2.773   1.245
 5443SOL     OW28359   5.249   2.861   0.190
 5443SOL    HW128360   5.186   2.785   0.203
 5443SOL    HW228361   5.297   2.879   0.276
 5444SOL     OW28362   4.911   3.654   1.616
 5444SOL    HW128363   4.935   3.714   1.540
 5444SOL    HW228364   4.918   3.559   1.586
 5445SOL     OW28365   4.041   2.113   1.801
 5445SOL    HW128366   4.112   2.184   1.807
 5445SOL    HW228367   3.953   2.152   1.829
 5446SOL     OW28368   5.190   3.279   0.953
 5446SOL    HW128369   5.131   3.285   1.033
 5446SOL    HW228370   5.175   3.191   0.907
 5447SOL     OW28371   5.391   3.576   0.572
 5447SOL    HW128372   5.350   3.553   0.484
 5447SOL    HW228373   5.373   3.502   0.637
 5448SOL     OW28374   4.322   2.591   0.270
 5448SOL    HW128375   4.346   2.660   0.202
 5448SOL    HW228376   4.244   2.624   0.324
 5449SOL     OW28377   5.005   2.207   0.944
 5449SOL    HW128378   4.919   2.157   0.931
 5449SOL    HW228379   5.067   2.153   1.000
 5450SOL     OW28380   5.300   3.524   0.307
 5450SOL    HW128381   5.389   3.570   0.310
 5450SOL    HW228382   5.279   3.500   0.212
 5451SOL     OW28383   4.531   2.467   1.465
 5451SOL    HW128384   4.484   2.464   1.554
 5451SOL    HW228385   4.480   2.412   1.399
 5452SOL     OW28386   5.118   2.331   1.674
 5452SOL    HW128387   5.098   2.374   1.762
 5452SOL    HW228388   5.196   2.269   1.683
 5453SOL     OW28389   4.697   2.752   1.572
 5453SOL    HW128390   4.743   2.668   1.543
 5453SOL    HW228391   4.641   2.786   1.497
 5454SOL     OW28392   4.715   2.272   1.242
 5454SOL    HW128393   4.638   2.306   1.296
 5454SOL    HW228394   4.681   2.221   1.163
 5455SOL     OW28395   4.765   2.563   0.429
 5455SOL    HW128396   4.791   2.559   0.525
 5455SOL    HW228397   4.680   2.512   0.415
 5456SOL     OW28398   3.800   2.673   0.789
 5456SOL    HW128399   3.899   2.661   0.798
 5456SOL    HW228400   3.776   2.768   0.810
 5457SOL     OW28401   4.589   2.210   0.195
 5457SOL    HW128402   4.648   2.273   0.146
 5457SOL    HW228403   4.608   2.116   0.166
 5458SOL     OW28404   5.443   2.447   1.831
 5458SOL    HW128405   5.417   2.536   1.795
 5458SOL    HW228406   5.441   2.379   1.758
 5459SOL     OW28407   5.086   3.006   0.545
 5459SOL    HW128408   5.169   2.977   0.497
 5459SOL    HW228409   5.037   3.073   0.489
 5460SOL     OW28410   4.274   2.058   0.885
 5460SOL    HW128411   4.269   2.053   0.985
 5460SOL    HW228412   4.276   2.154   0.856
 5461SOL     OW28413   4.732   3.318   0.477
 5461SOL    HW128414   4.686   3.390   0.425
 5461SOL    HW228415   4.728   3.338   0.575
 5462SOL     OW28416   4.075   3.663   0.853
 5462SOL    HW128417   4.125   3.577   0.859
 5462SOL    HW228418   4.140   3.740   0.850
 5463SOL     OW28419   5.519   2.928   0.873
 5463SOL    HW128420   5.457   2.913   0.797
 5463SOL    HW228421   5.467   2.939   0.958
 5464SOL     OW28422   4.951   3.412   1.506
 5464SOL    HW128423   4.957   3.335   1.570
 5464SOL    HW228424   4.899   3.386   1.426
 5465SOL     OW28425   4.045   2.805   0.242
 5465SOL    HW128426   4.127   2.844   0.200
 5465SOL    HW228427   4.018   2.723   0.193
 5466SOL     OW28428   5.182   2.597   0.728
 5466SOL    HW128429   5.177   2.532   0.803
 5466SOL    HW228430   5.262   2.656   0.741
 5467SOL     OW28431   4.185   3.128   1.727
 5467SOL    HW128432   4.135   3.129   1.641
 5467SOL    HW228433   4.122   3.110   1.803
 5468SOL     OW28434   4.835   3.638   0.237
 5468SOL    HW128435   4.775   3.576   0.287
 5468SOL    HW228436   4.866   3.594   0.152
 5469SOL     OW28437   3.926   2.147   1.498
 5469SOL    HW128438   3.846   2.207   1.485
 5469SOL    HW228439   3.916   2.098   1.584
 5470SOL     OW28440   5.356   3.239   0.081
 5470SOL    HW128441   5.324   3.333   0.071
 5470SOL    HW228442   5.280   3.176   0.069
 5471SOL     OW28443   4.188   3.605   0.323
 5471SOL    HW128444   4.221   3.644   0.409
 5471SOL    HW228445   4.264   3.598   0.258
 5472SOL     OW28446   5.124   1.969   0.426
 5472SOL    HW128447   5.100   1.932   0.336
 5472SOL    HW228448   5.223   1.985   0.430
 5473SOL     OW28449   3.973   3.647   1.241
 5473SOL    HW128450   4.030   3.582   1.291
 5473SOL    HW228451   3.957   3.614   1.148
 5474SOL     OW28452   4.664   3.560   0.904
 5474SOL    HW128453   4.744   3.503   0.925
 5474SOL    HW228454   4.615   3.520   0.827
 5475SOL     OW28455   4.106   2.562   0.480
 5475SOL    HW128456   4.151   2.472   0.477
 5475SOL    HW228457   4.012   2.551   0.513
 5476SOL     OW28458   5.271   2.084   1.729
 5476SOL    HW128459   5.266   2.121   1.821
 5476SOL    HW228460   5.199   2.015   1.717
 5477SOL     OW28461   4.338   1.984   0.117
 5477SOL    HW128462   4.436   1.962   0.124
 5477SOL    HW228463   4.307   1.967   0.024
 5478SOL     OW28464   4.505   2.126   1.749
 5478SOL    HW128465   4.572   2.065   1.792
 5478SOL    HW228466   4.432   2.145   1.814
 5479SOL     OW28467   4.612   3.376   1.195
 5479SOL    HW128468   4.589   3.351   1.101
 5479SOL    HW228469   4.673   3.307   1.234
 5480SOL     OW28470   5.075   2.452   1.433
 5480SOL    HW128471   5.103   2.409   1.518
 5480SOL    HW228472   5.100   2.548   1.434
 5481SOL     OW28473   4.527   3.264   0.924
 5481SOL    HW128474   4.617   3.278   0.882
 5481SOL    HW228475   4.456   3.266   0.853
 5482SOL     OW28476   4.646   2.365   0.899
 5482SOL    HW128477   4.621   2.356   0.803
 5482SOL    HW228478   4.694   2.283   0.930
 5483SOL     OW28479   4.263   1.926   0.512
 5483SOL    HW128480   4.182   1.927   0.570
 5483SOL    HW228481   4.266   2.009   0.457
 5484SOL     OW28482   5.158   3.050   0.041
 5484SOL    HW128483   5.190   2.974   0.098
 5484SOL    HW228484   5.066   3.077   0.071
 5485SOL     OW28485   4.021   1.897   0.171
 5485SOL    HW128486   4.070   1.981   0.150
 5485SOL    HW228487   4.083   1.832   0.216
 5486SOL     OW28488   4.659   2.098   0.480
 5486SOL    HW128489   4.611   2.139   0.402
 5486SOL    HW228490   4.758   2.096   0.461
 5487SOL     OW28491   4.800   2.545   1.464
 5487SOL    HW128492   4.720   2.484   1.467
 5487SOL    HW228493   4.881   2.492   1.440
 5488SOL     OW28494   4.951   3.432   0.793
 5488SOL    HW128495   4.972   3.506   0.728
 5488SOL    HW228496   5.019   3.432   0.866
 5489SOL     OW28497   4.183   3.014   0.741
 5489SOL    HW128498   4.112   2.987   0.806
 5489SOL    HW228499   4.157   2.986   0.648
 5490SOL     OW28500   4.995   3.659   0.591
 5490SOL    HW128501   5.039   3.723   0.527
 5490SOL    HW228502   4.945   3.711   0.661
 5491SOL     OW28503   4.756   2.411   0.016
 5491SOL    HW128504   4.715   2.493  -0.023
 5491SOL    HW228505   4.820   2.437   0.089
 5492SOL     OW28506   3.802   2.418   1.386
 5492SOL    HW128507   3.894   2.417   1.345
 5492SOL    HW228508   3.796   2.492   1.453
 5493SOL     OW28509   4.285   2.084   1.147
 5493SOL    HW128510   4.323   2.000   1.184
 5493SOL    HW228511   4.197   2.103   1.191
 5494SOL     OW28512   4.590   2.316   0.642
 5494SOL    HW128513   4.558   2.388   0.580
 5494SOL    HW228514   4.614   2.235   0.589
 5495SOL     OW28515   4.741   1.901   0.753
 5495SOL    HW128516   4.669   1.906   0.684
 5495SOL    HW228517   4.717   1.832   0.822
 5496SOL     OW28518   5.153   3.035   0.867
 5496SOL    HW128519   5.098   2.951   0.860
 5496SOL    HW228520   5.179   3.064   0.775
 5497SOL     OW28521   5.190   2.452   0.992
 5497SOL    HW128522   5.160   2.357   0.999
 5497SOL    HW228523   5.263   2.468   1.058
 5498SOL     OW28524   5.581   2.695   0.377
 5498SOL    HW128525   5.623   2.631   0.441
 5498SOL    HW228526   5.543   2.644   0.299
 5499SOL     OW28527   4.212   3.247   0.174
 5499SOL    HW128528   4.125   3.232   0.221
 5499SOL    HW228529   4.195   3.273   0.079
 5500SOL     OW28530   5.388   3.142   0.657
 5500SOL    HW128531   5.487   3.150   0.671
 5500SOL    HW228532   5.343   3.226   0.688
 5501SOL     OW28533   5.114   2.437   0.078
 5501SOL    HW128534   5.060   2.416   0.159
 5501SOL    HW228535   5.205   2.396   0.087
 5502SOL     OW28536   4.251   2.118   0.328
 5502SOL    HW128537   4.278   2.059   0.253
 5502SOL    HW228538   4.251   2.213   0.297
 5503SOL     OW28539   5.478   3.085   1.588
 5503SOL    HW128540   5.569   3.046   1.575
 5503SOL    HW228541   5.486   3.181   1.612
 5504SOL     OW28542   5.316   3.491   1.625
 5504SOL    HW128543   5.343   3.525   1.535
 5504SOL    HW228544   5.395   3.453   1.671
 5505SOL     OW28545   4.835   3.057   1.100
 5505SOL    HW128546   4.795   3.101   1.181
 5505SOL    HW228547   4.794   3.094   1.017
 5506SOL     OW28548   5.362   2.961   1.079
 5506SOL    HW128549   5.367   3.042   1.138
 5506SOL    HW228550   5.276   2.963   1.028
 5507SOL     OW28551   4.639   1.951   1.402
 5507SOL    HW128552   4.664   1.931   1.307
 5507SOL    HW228553   4.711   2.007   1.444
 5508SOL     OW28554   4.429   2.912   0.368
 5508SOL    HW128555   4.415   2.919   0.467
 5508SOL    HW228556   4.513   2.861   0.350
 5509SOL     OW28557   4.134   2.675   1.251
 5509SOL    HW128558   4.220   2.687   1.301
 5509SOL    HW228559   4.092   2.588   1.278
 5510SOL     OW28560   4.998   2.248   1.262
 5510SOL    HW128561   5.019   2.322   1.326
 5510SOL    HW228562   4.909   2.265   1.219
 5511SOL     OW28563   3.788   3.426   1.331
 5511SOL    HW128564   3.742   3.508   1.297
 5511SOL    HW228565   3.886   3.445   1.340
 5512SOL     OW28566   4.091   2.962   0.501
 5512SOL    HW128567   4.084   3.045   0.445
 5512SOL    HW228568   4.095   2.882   0.441
 5513SOL     OW28569   4.290   2.399   0.865
 5513SOL    HW128570   4.302   2.465   0.791
 5513SOL    HW228571   4.336   2.433   0.948
 5514SOL     OW28572   4.976   3.210   0.388
 5514SOL    HW128573   5.026   3.287   0.428
 5514SOL    HW228574   4.881   3.212   0.420
 5515SOL     OW28575   4.996   3.307   1.142
 5515SOL    HW128576   5.043   3.320   1.229
 5515SOL    HW228577   4.930   3.233   1.151
 5516SOL     OW28578   5.306   2.501   0.472
 5516SOL    HW128579   5.275   2.562   0.545
 5516SOL    HW228580   5.356   2.553   0.403
 5517SOL     OW28581   4.078   3.372   1.329
 5517SOL    HW128582   4.057   3.328   1.242
 5517SOL    HW228583   4.175   3.398   1.332
 5518SOL     OW28584   4.126   2.613   1.598
 5518SOL    HW128585   4.194   2.668   1.551
 5518SOL    HW228586   4.166   2.525   1.625
 5519SOL     OW28587   5.311   2.641   1.670
 5519SOL    HW128588   5.219   2.679   1.665
 5519SOL    HW228589   5.371   2.688   1.605
 5520SOL     OW28590   4.228   1.912   1.740
 5520SOL    HW128591   4.186   1.855   1.670
 5520SOL    HW228592   4.162   1.981   1.772
 5521SOL     OW28593   4.297   2.732   1.029
 5521SOL    HW128594   4.341   2.821   1.020
 5521SOL    HW228595   4.234   2.732   1.106
 5522SOL     OW28596   5.084   2.724   1.045
 5522SOL    HW128597   5.009   2.724   0.979
 5522SOL    HW228598   5.121   2.632   1.054
 5523SOL     OW28599   4.933   2.387   0.275
 5523SOL    HW128600   4.946   2.303   0.329
 5523SOL    HW228601   4.904   2.461   0.335
 5524SOL     OW28602   4.031   2.075   1.231
 5524SOL    HW128603   4.008   2.112   1.321
 5524SOL    HW228604   4.001   1.980   1.225
 5525SOL     OW28605   3.761   3.172   1.282
 5525SOL    HW128606   3.814   3.123   1.350
 5525SOL    HW228607   3.783   3.270   1.287
 5526SOL     OW28608   4.456   2.496   1.064
 5526SOL    HW128609   4.515   2.470   0.988
 5526SOL    HW228610   4.428   2.592   1.053
 5527SOL     OW28611   4.031   1.925   0.618
 5527SOL    HW128612   4.020   2.019   0.651
 5527SOL    HW228613   4.026   1.862   0.695
 5528SOL     OW28614   5.346   2.229   0.374
 5528SOL    HW128615   5.348   2.153   0.438
 5528SOL    HW228616   5.298   2.306   0.414
 5529SOL     OW28617   4.747   2.628   0.966
 5529SOL    HW128618   4.762   2.649   1.062
 5529SOL    HW228619   4.717   2.533   0.957
 5530SOL     OW28620   4.704   3.435   1.700
 5530SOL    HW128621   4.684   3.479   1.612
 5530SOL    HW228622   4.743   3.344   1.684
 5531SOL     OW28623   5.583   3.380   1.605
 5531SOL    HW128624   5.597   3.407   1.510
 5531SOL    HW228625   5.666   3.402   1.658
 5532SOL     OW28626   4.074   2.760   1.804
 5532SOL    HW128627   4.150   2.804   1.852
 5532SOL    HW228628   4.109   2.713   1.722
 5533SOL     OW28629   5.264   2.136   0.125
 5533SOL    HW128630   5.203   2.061   0.148
 5533SOL    HW228631   5.286   2.188   0.208
 5534SOL     OW28632   5.027   2.700   0.042
 5534SOL    HW128633   5.061   2.607   0.057
 5534SOL    HW228634   5.045   2.727  -0.053
 5535SOL     OW28635   4.792   3.195   0.849
 5535SOL    HW128636   4.799   3.111   0.794
 5535SOL    HW228637   4.854   3.264   0.813
 5536SOL     OW28638   4.043   2.672   0.949
 5536SOL    HW128639   4.136   2.708   0.954
 5536SOL    HW228640   4.037   2.587   1.001
 5537SOL     OW28641   4.063   2.371   1.006
 5537SOL    HW128642   4.011   2.288   0.989
 5537SOL    HW228643   4.140   2.376   0.942
 5538SOL     OW28644   4.884   2.069   1.477
 5538SOL    HW128645   4.884   2.133   1.554
 5538SOL    HW228646   4.912   2.117   1.394
 5539SOL     OW28647   3.732   3.188   0.200
 5539SOL    HW128648   3.639   3.209   0.169
 5539SOL    HW228649   3.742   3.089   0.213
 5540SOL     OW28650   3.812   3.663   0.927
 5540SOL    HW128651   3.770   3.577   0.900
 5540SOL    HW228652   3.906   3.666   0.893
 5541SOL     OW28653   4.228   3.430   0.910
 5541SOL    HW128654   4.294   3.504   0.919
 5541SOL    HW228655   4.272   3.351   0.868
 5542SOL     OW28656   4.726   2.658   1.238
 5542SOL    HW128657   4.767   2.626   1.324
 5542SOL    HW228658   4.630   2.631   1.235
 5543SOL     OW28659   3.764   2.406   1.114
 5543SOL    HW128660   3.849   2.373   1.073
 5543SOL    HW228661   3.777   2.421   1.212
 5544SOL     OW28662   3.913   2.382   1.722
 5544SOL    HW128663   3.972   2.342   1.652
 5544SOL    HW228664   3.855   2.453   1.681
 5545SOL     OW28665   5.093   2.812   1.660
 5545SOL    HW128666   5.132   2.901   1.680
 5545SOL    HW228667   5.103   2.792   1.563
 5546SOL     OW28668   4.539   2.434   0.325
 5546SOL    HW128669   4.546   2.345   0.279
 5546SOL    HW228670   4.445   2.468   0.317
 5547SOL     OW28671   5.381   2.466   1.206
 5547SOL    HW128672   5.343   2.397   1.268
 5547SOL    HW228673   5.463   2.430   1.162
 5548SOL     OW28674   3.976   3.426   1.744
 5548SOL    HW128675   3.946   3.483   1.820
 5548SOL    HW228676   3.969   3.329   1.770
 5549SOL     OW28677   4.395   2.326   1.269
 5549SOL    HW128678   4.361   2.237   1.239
 5549SOL    HW228679   4.421   2.380   1.189
 5550SOL     OW28680   4.654   3.540   1.465
 5550SOL    HW128681   4.630   3.522   1.370
 5550SOL    HW228682   4.684   3.634   1.475
 5551SOL     OW28683   4.197   2.362   0.191
 5551SOL    HW128684   4.258   2.442   0.195
 5551SOL    HW228685   4.102   2.393   0.198
 5552SOL     OW28686   3.883   2.999   1.466
 5552SOL    HW128687   3.905   2.938   1.542
 5552SOL    HW228688   3.893   2.950   1.380
 5553SOL     OW28689   5.071   2.921   1.234
 5553SOL    HW128690   5.095   2.858   1.160
 5553SOL    HW228691   4.981   2.961   1.216
 5554SOL     OW28692   5.026   2.717   0.309
 5554SOL    HW128693   4.940   2.686   0.351
 5554SOL    HW228694   5.022   2.703   0.210
 5555SOL     OW28695   5.483   3.609   1.154
 5555SOL    HW128696   5.544   3.639   1.081
 5555SOL    HW228697   5.445   3.520   1.132
 5556SOL     OW28698   4.976   3.593   1.128
 5556SOL    HW128699   5.060   3.598   1.074
 5556SOL    HW228700   4.953   3.497   1.146
 5557SOL     OW28701   3.807   3.120   1.022
 5557SOL    HW128702   3.802   3.119   1.122
 5557SOL    HW228703   3.724   3.079   0.984
 5558SOL     OW28704   4.627   1.948   0.133
 5558SOL    HW128705   4.678   1.949   0.047
 5558SOL    HW228706   4.683   1.906   0.204
 5559SOL     OW28707   5.450   1.997   0.523
 5559SOL    HW128708   5.523   1.980   0.456
 5559SOL    HW228709   5.419   1.910   0.561
 5560SOL     OW28710   5.112   3.435   0.477
 5560SOL    HW128711   5.179   3.447   0.403
 5560SOL    HW228712   5.072   3.524   0.500
 5561SOL     OW28713   5.004   2.789   0.672
 5561SOL    HW128714   5.064   2.708   0.674
 5561SOL    HW228715   5.044   2.858   0.612
 5562SOL     OW28716   4.396   3.478   0.154
 5562SOL    HW128717   4.405   3.488   0.055
 5562SOL    HW228718   4.356   3.389   0.175
 5563SOL     OW28719   5.374   3.582   1.394
 5563SOL    HW128720   5.427   3.592   1.310
 5563SOL    HW228721   5.347   3.672   1.428
 5564SOL     OW28722   5.565   2.037   0.963
 5564SOL    HW128723   5.604   1.952   0.927
 5564SOL    HW228724   5.467   2.039   0.944
 5565SOL     OW28725   3.987   2.188   0.720
 5565SOL    HW128726   3.908   2.239   0.686
 5565SOL    HW228727   3.978   2.173   0.818
 5566SOL     OW28728   4.918   3.474   0.031
 5566SOL    HW128729   4.924   3.381   0.068
 5566SOL    HW228730   4.859   3.474  -0.049
 5567SOL     OW28731   4.546   2.864   1.372
 5567SOL    HW128732   4.586   2.863   1.280
 5567SOL    HW228733   4.556   2.956   1.412
 5568SOL     OW28734   4.640   2.772   0.291
 5568SOL    HW128735   4.703   2.810   0.223
 5568SOL    HW228736   4.680   2.689   0.330
 5569SOL     OW28737   5.228   3.469   0.044
 5569SOL    HW128738   5.136   3.506   0.051
 5569SOL    HW228739   5.266   3.489  -0.046
 5570SOL     OW28740   4.096   3.150   1.490
 5570SOL    HW128741   4.083   3.243   1.456
 5570SOL    HW228742   4.012   3.098   1.477
 5571SOL     OW28743   5.338   3.154   1.289
 5571SOL    HW128744   5.398   3.157   1.369
 5571SOL    HW228745   5.263   3.218   1.302
 5572SOL     OW28746   4.763   2.960   0.696
 5572SOL    HW128747   4.693   2.913   0.750
 5572SOL    HW228748   4.822   2.892   0.653
 5573SOL     OW28749   4.738   2.098   0.971
 5573SOL    HW128750   4.730   2.062   0.878
 5573SOL    HW228751   4.736   2.022   1.036
 5574SOL     OW28752   4.314   3.349   0.491
 5574SOL    HW128753   4.356   3.291   0.421
 5574SOL    HW228754   4.270   3.428   0.447
 5575SOL     OW28755   5.433   2.247   1.381
 5575SOL    HW128756   5.506   2.316   1.385
 5575SOL    HW228757   5.461   2.172   1.322
 5576SOL     OW28758   3.979   3.210   0.290
 5576SOL    HW128759   3.883   3.211   0.263
 5576SOL    HW228760   3.991   3.263   0.374
 5577SOL     OW28761   3.829   2.875   1.726
 5577SOL    HW128762   3.752   2.842   1.780
 5577SOL    HW228763   3.914   2.845   1.768
 5578SOL     OW28764   4.396   2.065   1.489
 5578SOL    HW128765   4.486   2.049   1.449
 5578SOL    HW228766   4.404   2.070   1.588
 5579SOL     OW28767   3.799   2.207   0.033
 5579SOL    HW128768   3.707   2.179   0.004
 5579SOL    HW228769   3.830   2.284  -0.023
 5580SOL     OW28770   5.164   2.718   1.398
 5580SOL    HW128771   5.107   2.770   1.335
 5580SOL    HW228772   5.260   2.730   1.374
 5581SOL     OW28773   3.796   2.028   0.318
 5581SOL    HW128774   3.779   2.111   0.264
 5581SOL    HW228775   3.886   1.991   0.296
 5582SOL     OW28776   4.907   3.197   0.119
 5582SOL    HW128777   4.808   3.186   0.121
 5582SOL    HW228778   4.941   3.212   0.212
 5583SOL     OW28779   4.337   2.704   1.431
 5583SOL    HW128780   4.393   2.785   1.414
 5583SOL    HW228781   4.396   2.624   1.434
 5584SOL     OW28782   5.217   3.629   0.959
 5584SOL    HW128783   5.250   3.693   0.890
 5584SOL    HW228784   5.283   3.623   1.034
 5585SOL     OW28785   4.440   2.427   1.708
 5585SOL    HW128786   4.459   2.492   1.782
 5585SOL    HW228787   4.500   2.347   1.717
 5586SOL     OW28788   5.174   3.082   1.633
 5586SOL    HW128789   5.165   3.072   1.732
 5586SOL    HW228790   5.270   3.075   1.607
 5587SOL     OW28791   4.114   3.603   1.560
 5587SOL    HW128792   4.023   3.644   1.558
 5587SOL    HW228793   4.107   3.509   1.592
 5588SOL     OW28794   5.398   2.745   1.254
 5588SOL    HW128795   5.371   2.656   1.217
 5588SOL    HW228796   5.399   2.813   1.181
 5589SOL     OW28797   4.949   2.187   0.449
 5589SOL    HW128798   5.014   2.113   0.438
 5589SOL    HW228799   4.969   2.237   0.533
 5590SOL     OW28800   4.318   2.607   0.652
 5590SOL    HW128801   4.368   2.692   0.633
 5590SOL    HW228802   4.230   2.609   0.604
 5591SOL     OW28803   5.501   2.204   1.642
 5591SOL    HW128804   5.484   2.235   1.548
 5591SOL    HW228805   5.417   2.167   1.680
 5592SOL     OW28806   5.454   2.796   1.517
 5592SOL    HW128807   5.492   2.887   1.532
 5592SOL    HW228808   5.446   2.779   1.418
 5593SOL     OW28809   4.583   3.236   0.016
 5593SOL    HW128810   4.537   3.251   0.104
 5593SOL    HW228811   4.627   3.321  -0.014
 5594SOL     OW28812   4.385   3.652   0.953
 5594SOL    HW128813   4.339   3.740   0.940
 5594SOL    HW228814   4.484   3.664   0.946
 5595SOL     OW28815   4.583   2.818   0.861
 5595SOL    HW128816   4.637   2.749   0.909
 5595SOL    HW228817   4.551   2.887   0.927
 5596SOL     OW28818   4.807   2.846   0.087
 5596SOL    HW128819   4.784   2.899   0.005
 5596SOL    HW228820   4.888   2.790   0.068
 5597SOL     OW28821   5.585   3.431   0.851
 5597SOL    HW128822   5.514   3.419   0.781
 5597SOL    HW228823   5.586   3.352   0.911
 5598SOL     OW28824   3.945   3.176   1.844
 5598SOL    HW128825   3.880   3.103   1.823
 5598SOL    HW228826   3.949   3.190   1.942
 5599SOL     OW28827   3.803   3.102   0.653
 5599SOL    HW128828   3.802   3.055   0.741
 5599SOL    HW228829   3.885   3.074   0.602
 5600SOL     OW28830   5.548   2.054   1.227
 5600SOL    HW128831   5.544   1.964   1.271
 5600SOL    HW228832   5.551   2.043   1.128
 5601SOL     OW28833   4.152   2.286   0.520
 5601SOL    HW128834   4.182   2.214   0.458
 5601SOL    HW228835   4.113   2.246   0.603
 5602SOL     OW28836   5.429   3.349   1.104
 5602SOL    HW128837   5.336   3.324   1.077
 5602SOL    HW228838   5.455   3.299   1.186
 5603SOL     OW28839   4.041   2.409   1.280
 5603SOL    HW128840   4.079   2.350   1.352
 5603SOL    HW228841   4.081   2.383   1.192
 5604SOL     OW28842   4.536   3.448   0.687
 5604SOL    HW128843   4.568   3.458   0.593
 5604SOL    HW228844   4.457   3.386   0.689
 5605SOL     OW28845   5.148   2.076   1.112
 5605SOL    HW128846   5.200   2.011   1.167
 5605SOL    HW228847   5.099   2.139   1.173
 5606SOL     OW28848   4.725   1.896   1.154
 5606SOL    HW128849   4.662   1.824   1.123
 5606SOL    HW228850   4.818   1.860   1.154
 5607SOL     OW28851   4.494   3.192   0.301
 5607SOL    HW128852   4.448   3.105   0.318
 5607SOL    HW228853   4.585   3.189   0.342
 5608SOL     OW28854   4.342   3.429   1.284
 5608SOL    HW128855   4.337   3.511   1.341
 5608SOL    HW228856   4.431   3.426   1.239
 5609SOL     OW28857   5.076   1.914   0.168
 5609SOL    HW128858   5.111   1.873   0.084
 5609SOL    HW228859   4.986   1.876   0.188
 5610SOL     OW28860   5.024   2.315   0.691
 5610SOL    HW128861   4.965   2.395   0.695
 5610SOL    HW228862   5.039   2.280   0.784
 5611SOL     OW28863   5.317   2.083   0.882
 5611SOL    HW128864   5.233   2.082   0.936
 5611SOL    HW228865   5.319   2.166   0.826
 5612SOL     OW28866   3.763   2.939   0.300
 5612SOL    HW128867   3.862   2.928   0.291
 5612SOL    HW228868   3.723   2.853   0.332
 5613SOL     OW28869   4.599   3.508   0.337
 5613SOL    HW128870   4.522   3.473   0.283
 5613SOL    HW228871   4.567   3.579   0.399
 5614SOL     OW28872   3.954   2.490   1.975
 5614SOL    HW128873   3.861   2.488   2.012
 5614SOL    HW228874   3.955   2.451   1.883
 5615SOL     OW28875   3.949   2.137   2.858
 5615SOL    HW128876   3.984   2.120   2.950
 5615SOL    HW228877   3.861   2.092   2.846
 5616SOL     OW28878   3.743   2.230   2.509
 5616SOL    HW128879   3.661   2.273   2.548
 5616SOL    HW228880   3.715   2.157   2.446
 5617SOL     OW28881   4.859   2.565   2.579
 5617SOL    HW128882   4.916   2.643   2.554
 5617SOL    HW228883   4.799   2.591   2.655
 5618SOL     OW28884   4.492   3.006   2.885
 5618SOL    HW128885   4.414   3.023   2.945
 5618SOL    HW228886   4.526   3.093   2.849
 5619SOL     OW28887   4.574   2.660   3.685
 5619SOL    HW128888   4.570   2.736   3.750
 5619SOL    HW228889   4.596   2.696   3.594
 5620SOL     OW28890   4.410   3.023   3.665
 5620SOL    HW128891   4.470   3.102   3.679
 5620SOL    HW228892   4.324   3.054   3.624
 5621SOL     OW28893   4.059   3.297   2.923
 5621SOL    HW128894   3.981   3.266   2.870
 5621SOL    HW228895   4.117   3.355   2.866
 5622SOL     OW28896   5.318   1.976   3.342
 5622SOL    HW128897   5.300   2.043   3.270
 5622SOL    HW228898   5.315   2.022   3.431
 5623SOL     OW28899   3.846   2.505   2.425
 5623SOL    HW128900   3.801   2.417   2.442
 5623SOL    HW228901   3.845   2.559   2.509
 5624SOL     OW28902   3.751   3.458   1.979
 5624SOL    HW128903   3.732   3.362   2.000
 5624SOL    HW228904   3.718   3.516   2.054
 5625SOL     OW28905   5.413   2.784   2.474
 5625SOL    HW128906   5.508   2.755   2.482
 5625SOL    HW228907   5.405   2.849   2.399
 5626SOL     OW28908   5.365   2.970   2.294
 5626SOL    HW128909   5.451   2.972   2.242
 5626SOL    HW228910   5.379   3.017   2.382
 5627SOL     OW28911   3.837   2.599   3.459
 5627SOL    HW128912   3.925   2.586   3.504
 5627SOL    HW228913   3.824   2.696   3.437
 5628SOL     OW28914   5.190   3.279   2.815
 5628SOL    HW128915   5.131   3.285   2.895
 5628SOL    HW228916   5.175   3.191   2.769
 5629SOL     OW28917   5.005   2.207   2.806
 5629SOL    HW128918   4.919   2.157   2.793
 5629SOL    HW228919   5.067   2.153   2.862
 5630SOL     OW28920   5.300   3.524   2.169
 5630SOL    HW128921   5.389   3.570   2.172
 5630SOL    HW228922   5.279   3.500   2.074
 5631SOL     OW28923   5.118   2.331   3.536
 5631SOL    HW128924   5.098   2.374   3.624
 5631SOL    HW228925   5.196   2.269   3.545
 5632SOL     OW28926   5.086   3.006   2.407
 5632SOL    HW128927   5.169   2.977   2.359
 5632SOL    HW228928   5.037   3.073   2.351
 5633SOL     OW28929   4.075   3.663   2.715
 5633SOL    HW128930   4.125   3.577   2.721
 5633SOL    HW228931   4.140   3.740   2.712
 5634SOL     OW28932   4.045   2.805   2.104
 5634SOL    HW128933   4.127   2.844   2.062
 5634SOL    HW228934   4.018   2.723   2.055
 5635SOL     OW28935   4.664   3.560   2.766
 5635SOL    HW128936   4.744   3.503   2.787
 5635SOL    HW228937   4.615   3.520   2.689
 5636SOL     OW28938   4.338   1.984   1.979
 5636SOL    HW128939   4.436   1.962   1.986
 5636SOL    HW228940   4.307   1.967   1.886
 5637SOL     OW28941   5.075   2.452   3.295
 5637SOL    HW128942   5.103   2.409   3.380
 5637SOL    HW228943   5.100   2.548   3.296
 5638SOL     OW28944   4.021   1.897   2.033
 5638SOL    HW128945   4.070   1.981   2.012
 5638SOL    HW228946   4.083   1.832   2.078
 5639SOL     OW28947   4.800   2.545   3.326
 5639SOL    HW128948   4.720   2.484   3.329
 5639SOL    HW228949   4.881   2.492   3.302
 5640SOL     OW28950   5.153   3.035   2.729
 5640SOL    HW128951   5.098   2.951   2.722
 5640SOL    HW228952   5.179   3.064   2.637
 5641SOL     OW28953   4.212   3.247   2.036
 5641SOL    HW128954   4.125   3.232   2.083
 5641SOL    HW228955   4.195   3.273   1.941
 5642SOL     OW28956   4.251   2.118   2.190
 5642SOL    HW128957   4.278   2.059   2.115
 5642SOL    HW228958   4.251   2.213   2.159
 5643SOL     OW28959   5.306   2.501   2.334
 5643SOL    HW128960   5.275   2.562   2.407
 5643SOL    HW228961   5.356   2.553   2.265
 5644SOL     OW28962   4.078   3.372   3.191
 5644SOL    HW128963   4.057   3.328   3.104
 5644SOL    HW228964   4.175   3.398   3.194
 5645SOL     OW28965   5.311   2.641   3.532
 5645SOL    HW128966   5.219   2.679   3.527
 5645SOL    HW228967   5.371   2.688   3.467
 5646SOL     OW28968   4.737   1.967   3.632
 5646SOL    HW128969   4.743   2.052   3.580
 5646SOL    HW228970   4.769   1.891   3.575
 5647SOL     OW28971   4.704   3.435   3.562
 5647SOL    HW128972   4.684   3.479   3.474
 5647SOL    HW228973   4.743   3.344   3.546
 5648SOL     OW28974   5.027   2.700   1.904
 5648SOL    HW128975   5.061   2.607   1.919
 5648SOL    HW228976   5.045   2.727   1.809
 5649SOL     OW28977   4.862   2.242   3.540
 5649SOL    HW128978   4.817   2.305   3.604
 5649SOL    HW228979   4.955   2.273   3.523
 5650SOL     OW28980   3.732   3.188   2.062
 5650SOL    HW128981   3.639   3.209   2.031
 5650SOL    HW228982   3.742   3.089   2.075
 5651SOL     OW28983   3.883   2.999   3.328
 5651SOL    HW128984   3.905   2.938   3.404
 5651SOL    HW228985   3.893   2.950   3.242
 5652SOL     OW28986   3.807   3.120   2.884
 5652SOL    HW128987   3.802   3.119   2.984
 5652SOL    HW228988   3.724   3.079   2.846
 5653SOL     OW28989   4.412   3.524   3.578
 5653SOL    HW128990   4.356   3.605   3.587
 5653SOL    HW228991   4.464   3.528   3.492
 5654SOL     OW28992   5.374   3.582   3.256
 5654SOL    HW128993   5.427   3.592   3.172
 5654SOL    HW228994   5.347   3.672   3.290
 5655SOL     OW28995   3.987   2.188   2.582
 5655SOL    HW128996   3.908   2.239   2.548
 5655SOL    HW228997   3.978   2.173   2.680
 5656SOL     OW28998   4.918   3.474   1.893
 5656SOL    HW128999   4.924   3.381   1.930
 5656SOL    HW229000   4.859   3.474   1.813
 5657SOL     OW29001   4.546   2.864   3.234
 5657SOL    HW129002   4.586   2.863   3.142
 5657SOL    HW229003   4.556   2.956   3.274
 5658SOL     OW29004   5.228   3.469   1.906
 5658SOL    HW129005   5.136   3.506   1.913
 5658SOL    HW229006   5.266   3.489   1.816
 5659SOL     OW29007   4.763   2.960   2.558
 5659SOL    HW129008   4.693   2.913   2.612
 5659SOL    HW229009   4.822   2.892   2.515
 5660SOL     OW29010   4.314   3.349   2.353
 5660SOL    HW129011   4.356   3.291   2.283
 5660SOL    HW229012   4.270   3.428   2.309
 5661SOL     OW29013   4.396   2.065   3.351
 5661SOL    HW129014   4.486   2.049   3.311
 5661SOL    HW229015   4.404   2.070   3.450
 5662SOL     OW29016   3.799   2.207   1.895
 5662SOL    HW129017   3.707   2.179   1.866
 5662SOL    HW229018   3.830   2.284   1.839
 5663SOL     OW29019   5.164   2.718   3.260
 5663SOL    HW129020   5.107   2.770   3.197
 5663SOL    HW229021   5.260   2.730   3.236
 5664SOL     OW29022   5.217   3.629   2.821
 5664SOL    HW129023   5.250   3.693   2.752
 5664SOL    HW229024   5.283   3.623   2.896
 5665SOL     OW29025   4.114   3.603   3.422
 5665SOL    HW129026   4.023   3.644   3.420
 5665SOL    HW229027   4.107   3.509   3.454
 5666SOL     OW29028   5.501   2.204   3.504
 5666SOL    HW129029   5.484   2.235   3.410
 5666SOL    HW229030   5.417   2.167   3.542
 5667SOL     OW29031   4.583   3.236   1.878
 5667SOL    HW129032   4.537   3.251   1.966
 5667SOL    HW229033   4.627   3.321   1.848
 5668SOL     OW29034   5.148   2.076   2.974
 5668SOL    HW129035   5.200   2.011   3.029
 5668SOL    HW229036   5.099   2.139   3.035
 5669SOL     OW29037   4.342   3.429   3.146
 5669SOL    HW129038   4.337   3.511   3.203
 5669SOL    HW229039   4.431   3.426   3.101
 5670SOL     OW29040   5.076   1.914   2.030
 5670SOL    HW129041   5.111   1.873   1.946
 5670SOL    HW229042   4.986   1.876   2.050
 5671SOL     OW29043   3.763   2.939   2.162
 5671SOL    HW129044   3.862   2.928   2.153
 5671SOL    HW229045   3.723   2.853   2.194
 5672SOL     OW29046   3.743   2.230   4.371
 5672SOL    HW129047   3.661   2.273   4.410
 5672SOL    HW229048   3.715   2.157   4.308
 5673SOL     OW29049   5.479   2.469   3.955
 5673SOL    HW129050   5.467   2.456   3.856
 5673SOL    HW229051   5.449   2.388   4.004
 5674SOL     OW29052   4.409   2.874   4.389
 5674SOL    HW129053   4.478   2.858   4.459
 5674SOL    HW229054   4.336   2.931   4.427
 5675SOL     OW29055   4.162   2.254   5.223
 5675SOL    HW129056   4.244   2.198   5.232
 5675SOL    HW229057   4.081   2.196   5.227
 5676SOL     OW29058   4.344   3.648   5.163
 5676SOL    HW129059   4.252   3.631   5.198
 5676SOL    HW229060   4.372   3.740   5.189
 5677SOL     OW29061   4.330   2.826   3.847
 5677SOL    HW129062   4.337   2.910   3.793
 5677SOL    HW229063   4.376   2.839   3.935
 5678SOL     OW29064   4.337   3.227   4.450
 5678SOL    HW129065   4.288   3.140   4.459
 5678SOL    HW229066   4.314   3.270   4.363
 5679SOL     OW29067   4.533   1.866   4.226
 5679SOL    HW129068   4.573   1.957   4.217
 5679SOL    HW229069   4.433   1.874   4.232
 5680SOL     OW29070   5.249   2.861   3.914
 5680SOL    HW129071   5.186   2.785   3.927
 5680SOL    HW229072   5.297   2.879   4.000
 5681SOL     OW29073   4.041   2.113   5.525
 5681SOL    HW129074   4.112   2.184   5.531
 5681SOL    HW229075   3.953   2.152   5.553
 5682SOL     OW29076   5.190   3.279   4.677
 5682SOL    HW129077   5.131   3.285   4.757
 5682SOL    HW229078   5.175   3.191   4.631
 5683SOL     OW29079   4.531   2.467   5.189
 5683SOL    HW129080   4.484   2.464   5.278
 5683SOL    HW229081   4.480   2.412   5.123
 5684SOL     OW29082   4.589   2.210   3.919
 5684SOL    HW129083   4.648   2.273   3.870
 5684SOL    HW229084   4.608   2.116   3.890
 5685SOL     OW29085   4.274   2.058   4.609
 5685SOL    HW129086   4.269   2.053   4.709
 5685SOL    HW229087   4.276   2.154   4.580
 5686SOL     OW29088   4.732   3.318   4.201
 5686SOL    HW129089   4.686   3.390   4.149
 5686SOL    HW229090   4.728   3.338   4.299
 5687SOL     OW29091   5.519   2.928   4.597
 5687SOL    HW129092   5.457   2.913   4.521
 5687SOL    HW229093   5.467   2.939   4.682
 5688SOL     OW29094   4.045   2.805   3.966
 5688SOL    HW129095   4.127   2.844   3.924
 5688SOL    HW229096   4.018   2.723   3.917
 5689SOL     OW29097   5.182   2.597   4.452
 5689SOL    HW129098   5.177   2.532   4.527
 5689SOL    HW229099   5.262   2.656   4.465
 5690SOL     OW29100   4.185   3.128   5.451
 5690SOL    HW129101   4.135   3.129   5.365
 5690SOL    HW229102   4.122   3.110   5.527
 5691SOL     OW29103   3.926   2.147   5.222
 5691SOL    HW129104   3.846   2.207   5.209
 5691SOL    HW229105   3.916   2.098   5.308
 5692SOL     OW29106   5.124   1.969   4.150
 5692SOL    HW129107   5.100   1.932   4.060
 5692SOL    HW229108   5.223   1.985   4.154
 5693SOL     OW29109   4.106   2.562   4.204
 5693SOL    HW129110   4.151   2.472   4.201
 5693SOL    HW229111   4.012   2.551   4.237
 5694SOL     OW29112   4.756   2.411   3.740
 5694SOL    HW129113   4.715   2.493   3.701
 5694SOL    HW229114   4.820   2.437   3.813
 5695SOL     OW29115   3.802   2.418   5.110
 5695SOL    HW129116   3.894   2.417   5.069
 5695SOL    HW229117   3.796   2.492   5.177
 5696SOL     OW29118   4.590   2.316   4.366
 5696SOL    HW129119   4.558   2.388   4.304
 5696SOL    HW229120   4.614   2.235   4.313
 5697SOL     OW29121   4.741   1.901   4.477
 5697SOL    HW129122   4.669   1.906   4.408
 5697SOL    HW229123   4.717   1.832   4.546
 5698SOL     OW29124   5.153   3.035   4.591
 5698SOL    HW129125   5.098   2.951   4.584
 5698SOL    HW229126   5.179   3.064   4.499
 5699SOL     OW29127   5.581   2.695   4.101
 5699SOL    HW129128   5.623   2.631   4.165
 5699SOL    HW229129   5.543   2.644   4.023
 5700SOL     OW29130   5.114   2.437   3.802
 5700SOL    HW129131   5.060   2.416   3.883
 5700SOL    HW229132   5.205   2.396   3.811
 5701SOL     OW29133   4.251   2.118   4.052
 5701SOL    HW129134   4.278   2.059   3.977
 5701SOL    HW229135   4.251   2.213   4.021
 5702SOL     OW29136   5.362   2.961   4.803
 5702SOL    HW129137   5.367   3.042   4.862
 5702SOL    HW229138   5.276   2.963   4.752
 5703SOL     OW29139   4.704   2.978   5.443
 5703SOL    HW129140   4.605   2.984   5.453
 5703SOL    HW229141   4.727   2.898   5.387
 5704SOL     OW29142   4.091   2.962   4.225
 5704SOL    HW129143   4.084   3.045   4.169
 5704SOL    HW229144   4.095   2.882   4.165
 5705SOL     OW29145   4.976   3.210   4.112
 5705SOL    HW129146   5.026   3.287   4.152
 5705SOL    HW229147   4.881   3.212   4.144
 5706SOL     OW29148   4.996   3.307   4.866
 5706SOL    HW129149   5.043   3.320   4.953
 5706SOL    HW229150   4.930   3.233   4.875
 5707SOL     OW29151   5.306   2.501   4.196
 5707SOL    HW129152   5.275   2.562   4.269
 5707SOL    HW229153   5.356   2.553   4.127
 5708SOL     OW29154   4.228   1.912   5.464
 5708SOL    HW129155   4.186   1.855   5.394
 5708SOL    HW229156   4.162   1.981   5.496
 5709SOL     OW29157   4.297   2.732   4.753
 5709SOL    HW129158   4.341   2.821   4.744
 5709SOL    HW229159   4.234   2.732   4.830
 5710SOL     OW29160   4.933   2.387   3.999
 5710SOL    HW129161   4.946   2.303   4.053
 5710SOL    HW229162   4.904   2.461   4.059
 5711SOL     OW29163   5.346   2.229   4.098
 5711SOL    HW129164   5.348   2.153   4.162
 5711SOL    HW229165   5.298   2.306   4.138
 5712SOL     OW29166   4.747   2.628   4.690
 5712SOL    HW129167   4.762   2.649   4.786
 5712SOL    HW229168   4.717   2.533   4.681
 5713SOL     OW29169   5.583   3.380   5.329
 5713SOL    HW129170   5.597   3.407   5.234
 5713SOL    HW229171   5.666   3.402   5.382
 5714SOL     OW29172   5.264   2.136   3.849
 5714SOL    HW129173   5.203   2.061   3.872
 5714SOL    HW229174   5.286   2.188   3.932
 5715SOL     OW29175   5.027   2.700   3.766
 5715SOL    HW129176   5.061   2.607   3.781
 5715SOL    HW229177   5.045   2.727   3.671
 5716SOL     OW29178   4.043   2.672   4.673
 5716SOL    HW129179   4.136   2.708   4.678
 5716SOL    HW229180   4.037   2.587   4.725
 5717SOL     OW29181   4.862   2.242   5.402
 5717SOL    HW129182   4.817   2.305   5.466
 5717SOL    HW229183   4.955   2.273   5.385
 5718SOL     OW29184   3.913   2.382   5.446
 5718SOL    HW129185   3.972   2.342   5.376
 5718SOL    HW229186   3.855   2.453   5.405
 5719SOL     OW29187   5.381   2.466   4.930
 5719SOL    HW129188   5.343   2.397   4.992
 5719SOL    HW229189   5.463   2.430   4.886
 5720SOL     OW29190   4.654   3.540   5.189
 5720SOL    HW129191   4.630   3.522   5.094
 5720SOL    HW229192   4.684   3.634   5.199
 5721SOL     OW29193   4.197   2.362   3.915
 5721SOL    HW129194   4.258   2.442   3.919
 5721SOL    HW229195   4.102   2.393   3.922
 5722SOL     OW29196   5.450   1.997   4.247
 5722SOL    HW129197   5.523   1.980   4.180
 5722SOL    HW229198   5.419   1.910   4.285
 5723SOL     OW29199   5.112   3.435   4.201
 5723SOL    HW129200   5.179   3.447   4.127
 5723SOL    HW229201   5.072   3.524   4.224
 5724SOL     OW29202   4.554   3.135   5.146
 5724SOL    HW129203   4.549   3.168   5.241
 5724SOL    HW229204   4.468   3.154   5.100
 5725SOL     OW29205   4.396   3.478   3.878
 5725SOL    HW129206   4.405   3.488   3.779
 5725SOL    HW229207   4.356   3.389   3.899
 5726SOL     OW29208   5.374   3.582   5.118
 5726SOL    HW129209   5.427   3.592   5.034
 5726SOL    HW229210   5.347   3.672   5.152
 5727SOL     OW29211   5.565   2.037   4.687
 5727SOL    HW129212   5.604   1.952   4.651
 5727SOL    HW229213   5.467   2.039   4.668
 5728SOL     OW29214   4.640   2.772   4.015
 5728SOL    HW129215   4.703   2.810   3.947
 5728SOL    HW229216   4.680   2.689   4.054
 5729SOL     OW29217   4.096   3.150   5.214
 5729SOL    HW129218   4.083   3.243   5.180
 5729SOL    HW229219   4.012   3.098   5.201
 5730SOL     OW29220   3.979   3.210   4.014
 5730SOL    HW129221   3.883   3.211   3.987
 5730SOL    HW229222   3.991   3.263   4.098
 5731SOL     OW29223   3.829   2.875   5.450
 5731SOL    HW129224   3.752   2.842   5.504
 5731SOL    HW229225   3.914   2.845   5.492
 5732SOL     OW29226   4.396   2.065   5.213
 5732SOL    HW129227   4.486   2.049   5.173
 5732SOL    HW229228   4.404   2.070   5.312
 5733SOL     OW29229   3.796   2.028   4.042
 5733SOL    HW129230   3.779   2.111   3.988
 5733SOL    HW229231   3.886   1.991   4.020
 5734SOL     OW29232   5.174   3.082   5.357
 5734SOL    HW129233   5.165   3.072   5.456
 5734SOL    HW229234   5.270   3.075   5.331
 5735SOL     OW29235   4.583   3.236   3.740
 5735SOL    HW129236   4.537   3.251   3.828
 5735SOL    HW229237   4.627   3.321   3.710
 5736SOL     OW29238   4.807   2.846   3.811
 5736SOL    HW129239   4.784   2.899   3.729
 5736SOL    HW229240   4.888   2.790   3.792
 5737SOL     OW29241   5.548   2.054   4.951
 5737SOL    HW129242   5.544   1.964   4.995
 5737SOL    HW229243   5.551   2.043   4.852
 5738SOL     OW29244   4.536   3.448   4.411
 5738SOL    HW129245   4.568   3.458   4.317
 5738SOL    HW229246   4.457   3.386   4.413
 5739SOL     OW29247   5.076   1.914   3.892
 5739SOL    HW129248   5.111   1.873   3.808
 5739SOL    HW229249   4.986   1.876   3.912
 5740SOL     OW29250   5.024   2.315   4.415
 5740SOL    HW129251   4.965   2.395   4.419
 5740SOL    HW229252   5.039   2.280   4.508
 5741SOL     OW29253   4.599   3.508   4.061
 5741SOL    HW129254   4.522   3.473   4.007
 5741SOL    HW229255   4.567   3.579   4.123
 5742SOL     OW29256   3.954   2.490   5.699
 5742SOL    HW129257   3.861   2.488   5.736
 5742SOL    HW229258   3.955   2.451   5.607
 5743SOL     OW29259   3.949   2.137   6.582
 5743SOL    HW129260   3.984   2.120   6.674
 5743SOL    HW229261   3.861   2.092   6.570
 5744SOL     OW29262   3.743   2.230   6.233
 5744SOL    HW129263   3.661   2.273   6.272
 5744SOL    HW229264   3.715   2.157   6.170
 5745SOL     OW29265   4.293   3.137   6.751
 5745SOL    HW129266   4.200   3.130   6.714
 5745SOL    HW229267   4.304   3.226   6.795
 5746SOL     OW29268   5.279   3.373   6.289
 5746SOL    HW129269   5.222   3.357   6.370
 5746SOL    HW229270   5.220   3.383   6.209
 5747SOL     OW29271   4.859   2.565   6.303
 5747SOL    HW129272   4.916   2.643   6.278
 5747SOL    HW229273   4.799   2.591   6.379
 5748SOL     OW29274   4.492   3.006   6.609
 5748SOL    HW129275   4.414   3.023   6.669
 5748SOL    HW229276   4.526   3.093   6.573
 5749SOL     OW29277   4.574   2.660   7.409
 5749SOL    HW129278   4.570   2.736   7.474
 5749SOL    HW229279   4.596   2.696   7.318
 5750SOL     OW29280   4.409   2.874   6.251
 5750SOL    HW129281   4.478   2.858   6.321
 5750SOL    HW229282   4.336   2.931   6.289
 5751SOL     OW29283   4.410   3.023   7.389
 5751SOL    HW129284   4.470   3.102   7.403
 5751SOL    HW229285   4.324   3.054   7.348
 5752SOL     OW29286   4.059   3.297   6.647
 5752SOL    HW129287   3.981   3.266   6.594
 5752SOL    HW229288   4.117   3.355   6.590
 5753SOL     OW29289   5.184   3.367   6.925
 5753SOL    HW129290   5.208   3.461   6.951
 5753SOL    HW229291   5.168   3.313   7.007
 5754SOL     OW29292   4.162   2.254   7.085
 5754SOL    HW129293   4.244   2.198   7.094
 5754SOL    HW229294   4.081   2.196   7.089
 5755SOL     OW29295   4.851   3.203   7.276
 5755SOL    HW129296   4.898   3.203   7.364
 5755SOL    HW229297   4.803   3.116   7.265
 5756SOL     OW29298   3.954   3.296   6.124
 5756SOL    HW129299   3.928   3.392   6.124
 5756SOL    HW229300   3.883   3.242   6.169
 5757SOL     OW29301   3.964   2.953   6.472
 5757SOL    HW129302   3.978   2.869   6.524
 5757SOL    HW229303   3.909   3.017   6.527
 5758SOL     OW29304   4.344   3.648   7.025
 5758SOL    HW129305   4.252   3.631   7.060
 5758SOL    HW229306   4.372   3.740   7.051
 5759SOL     OW29307   5.318   1.976   7.066
 5759SOL    HW129308   5.300   2.043   6.994
 5759SOL    HW229309   5.315   2.022   7.155
 5760SOL     OW29310   3.846   2.505   6.149
 5760SOL    HW129311   3.801   2.417   6.166
 5760SOL    HW229312   3.845   2.559   6.233
 5761SOL     OW29313   3.837   2.599   7.183
 5761SOL    HW129314   3.925   2.586   7.228
 5761SOL    HW229315   3.824   2.696   7.161
 5762SOL     OW29316   4.337   3.227   6.312
 5762SOL    HW129317   4.288   3.140   6.321
 5762SOL    HW229318   4.314   3.270   6.225
 5763SOL     OW29319   5.017   3.090   7.009
 5763SOL    HW129320   5.054   3.017   6.951
 5763SOL    HW229321   5.069   3.095   7.094
 5764SOL     OW29322   4.533   1.866   6.088
 5764SOL    HW129323   4.573   1.957   6.079
 5764SOL    HW229324   4.433   1.874   6.094
 5765SOL     OW29325   3.921   2.838   6.850
 5765SOL    HW129326   4.010   2.793   6.836
 5765SOL    HW229327   3.848   2.773   6.831
 5766SOL     OW29328   4.911   3.654   7.202
 5766SOL    HW129329   4.935   3.714   7.126
 5766SOL    HW229330   4.918   3.559   7.172
 5767SOL     OW29331   4.041   2.113   7.387
 5767SOL    HW129332   4.112   2.184   7.393
 5767SOL    HW229333   3.953   2.152   7.415
 5768SOL     OW29334   5.190   3.279   6.539
 5768SOL    HW129335   5.131   3.285   6.619
 5768SOL    HW229336   5.175   3.191   6.493
 5769SOL     OW29337   5.391   3.576   6.158
 5769SOL    HW129338   5.350   3.553   6.070
 5769SOL    HW229339   5.373   3.502   6.223
 5770SOL     OW29340   5.005   2.207   6.530
 5770SOL    HW129341   4.919   2.157   6.517
 5770SOL    HW229342   5.067   2.153   6.586
 5771SOL     OW29343   5.300   3.524   5.893
 5771SOL    HW129344   5.389   3.570   5.896
 5771SOL    HW229345   5.279   3.500   5.798
 5772SOL     OW29346   4.531   2.467   7.051
 5772SOL    HW129347   4.484   2.464   7.140
 5772SOL    HW229348   4.480   2.412   6.985
 5773SOL     OW29349   4.697   2.752   7.158
 5773SOL    HW129350   4.743   2.668   7.129
 5773SOL    HW229351   4.641   2.786   7.083
 5774SOL     OW29352   4.715   2.272   6.828
 5774SOL    HW129353   4.638   2.306   6.882
 5774SOL    HW229354   4.681   2.221   6.749
 5775SOL     OW29355   4.765   2.563   6.015
 5775SOL    HW129356   4.791   2.559   6.111
 5775SOL    HW229357   4.680   2.512   6.001
 5776SOL     OW29358   3.800   2.673   6.375
 5776SOL    HW129359   3.899   2.661   6.384
 5776SOL    HW229360   3.776   2.768   6.396
 5777SOL     OW29361   3.854   3.683   7.157
 5777SOL    HW129362   3.844   3.668   7.256
 5777SOL    HW229363   3.768   3.719   7.121
 5778SOL     OW29364   4.589   2.210   5.781
 5778SOL    HW129365   4.648   2.273   5.732
 5778SOL    HW229366   4.608   2.116   5.752
 5779SOL     OW29367   4.274   2.058   6.471
 5779SOL    HW129368   4.269   2.053   6.571
 5779SOL    HW229369   4.276   2.154   6.442
 5780SOL     OW29370   4.075   3.663   6.439
 5780SOL    HW129371   4.125   3.577   6.445
 5780SOL    HW229372   4.140   3.740   6.436
 5781SOL     OW29373   5.519   2.928   6.459
 5781SOL    HW129374   5.457   2.913   6.383
 5781SOL    HW229375   5.467   2.939   6.544
 5782SOL     OW29376   4.951   3.412   7.092
 5782SOL    HW129377   4.957   3.335   7.156
 5782SOL    HW229378   4.899   3.386   7.012
 5783SOL     OW29379   4.185   3.128   7.313
 5783SOL    HW129380   4.135   3.129   7.227
 5783SOL    HW229381   4.122   3.110   7.389
 5784SOL     OW29382   3.926   2.147   7.084
 5784SOL    HW129383   3.846   2.207   7.071
 5784SOL    HW229384   3.916   2.098   7.170
 5785SOL     OW29385   5.356   3.239   5.667
 5785SOL    HW129386   5.324   3.333   5.657
 5785SOL    HW229387   5.280   3.176   5.655
 5786SOL     OW29388   3.973   3.647   6.827
 5786SOL    HW129389   4.030   3.582   6.877
 5786SOL    HW229390   3.957   3.614   6.734
 5787SOL     OW29391   4.664   3.560   6.490
 5787SOL    HW129392   4.744   3.503   6.511
 5787SOL    HW229393   4.615   3.520   6.413
 5788SOL     OW29394   4.106   2.562   6.066
 5788SOL    HW129395   4.151   2.472   6.063
 5788SOL    HW229396   4.012   2.551   6.099
 5789SOL     OW29397   4.505   2.126   7.335
 5789SOL    HW129398   4.572   2.065   7.378
 5789SOL    HW229399   4.432   2.145   7.400
 5790SOL     OW29400   4.612   3.376   6.781
 5790SOL    HW129401   4.589   3.351   6.687
 5790SOL    HW229402   4.673   3.307   6.820
 5791SOL     OW29403   5.075   2.452   7.019
 5791SOL    HW129404   5.103   2.409   7.104
 5791SOL    HW229405   5.100   2.548   7.020
 5792SOL     OW29406   4.527   3.264   6.510
 5792SOL    HW129407   4.617   3.278   6.468
 5792SOL    HW229408   4.456   3.266   6.439
 5793SOL     OW29409   4.646   2.365   6.485
 5793SOL    HW129410   4.621   2.356   6.389
 5793SOL    HW229411   4.694   2.283   6.516
 5794SOL     OW29412   4.263   1.926   6.098
 5794SOL    HW129413   4.182   1.927   6.156
 5794SOL    HW229414   4.266   2.009   6.043
 5795SOL     OW29415   4.021   1.897   5.757
 5795SOL    HW129416   4.070   1.981   5.736
 5795SOL    HW229417   4.083   1.832   5.802
 5796SOL     OW29418   4.659   2.098   6.066
 5796SOL    HW129419   4.611   2.139   5.988
 5796SOL    HW229420   4.758   2.096   6.047
 5797SOL     OW29421   4.800   2.545   7.050
 5797SOL    HW129422   4.720   2.484   7.053
 5797SOL    HW229423   4.881   2.492   7.026
 5798SOL     OW29424   4.951   3.432   6.379
 5798SOL    HW129425   4.972   3.506   6.314
 5798SOL    HW229426   5.019   3.432   6.452
 5799SOL     OW29427   4.183   3.014   6.327
 5799SOL    HW129428   4.112   2.987   6.392
 5799SOL    HW229429   4.157   2.986   6.234
 5800SOL     OW29430   4.995   3.659   6.177
 5800SOL    HW129431   5.039   3.723   6.113
 5800SOL    HW229432   4.945   3.711   6.247
 5801SOL     OW29433   3.802   2.418   6.972
 5801SOL    HW129434   3.894   2.417   6.931
 5801SOL    HW229435   3.796   2.492   7.039
 5802SOL     OW29436   4.285   2.084   6.733
 5802SOL    HW129437   4.323   2.000   6.770
 5802SOL    HW229438   4.197   2.103   6.777
 5803SOL     OW29439   4.590   2.316   6.228
 5803SOL    HW129440   4.558   2.388   6.166
 5803SOL    HW229441   4.614   2.235   6.175
 5804SOL     OW29442   4.741   1.901   6.339
 5804SOL    HW129443   4.669   1.906   6.270
 5804SOL    HW229444   4.717   1.832   6.408
 5805SOL     OW29445   5.190   2.452   6.578
 5805SOL    HW129446   5.160   2.357   6.585
 5805SOL    HW229447   5.263   2.468   6.644
 5806SOL     OW29448   5.581   2.695   5.963
 5806SOL    HW129449   5.623   2.631   6.027
 5806SOL    HW229450   5.543   2.644   5.885
 5807SOL     OW29451   4.212   3.247   5.760
 5807SOL    HW129452   4.125   3.232   5.807
 5807SOL    HW229453   4.195   3.273   5.665
 5808SOL     OW29454   4.251   2.118   5.914
 5808SOL    HW129455   4.278   2.059   5.839
 5808SOL    HW229456   4.251   2.213   5.883
 5809SOL     OW29457   5.478   3.085   7.174
 5809SOL    HW129458   5.569   3.046   7.161
 5809SOL    HW229459   5.486   3.181   7.198
 5810SOL     OW29460   4.788   3.209   6.926
 5810SOL    HW129461   4.708   3.186   6.981
 5810SOL    HW229462   4.871   3.183   6.975
 5811SOL     OW29463   5.316   3.491   7.211
 5811SOL    HW129464   5.343   3.525   7.121
 5811SOL    HW229465   5.395   3.453   7.257
 5812SOL     OW29466   4.835   3.057   6.686
 5812SOL    HW129467   4.795   3.101   6.767
 5812SOL    HW229468   4.794   3.094   6.603
 5813SOL     OW29469   5.362   2.961   6.665
 5813SOL    HW129470   5.367   3.042   6.724
 5813SOL    HW229471   5.276   2.963   6.614
 5814SOL     OW29472   4.639   1.951   6.988
 5814SOL    HW129473   4.664   1.931   6.893
 5814SOL    HW229474   4.711   2.007   7.030
 5815SOL     OW29475   4.704   2.978   7.305
 5815SOL    HW129476   4.605   2.984   7.315
 5815SOL    HW229477   4.727   2.898   7.249
 5816SOL     OW29478   4.429   2.912   5.954
 5816SOL    HW129479   4.415   2.919   6.053
 5816SOL    HW229480   4.513   2.861   5.936
 5817SOL     OW29481   4.134   2.675   6.837
 5817SOL    HW129482   4.220   2.687   6.887
 5817SOL    HW229483   4.092   2.588   6.864
 5818SOL     OW29484   4.998   2.248   6.848
 5818SOL    HW129485   5.019   2.322   6.912
 5818SOL    HW229486   4.909   2.265   6.805
 5819SOL     OW29487   3.788   3.426   6.917
 5819SOL    HW129488   3.742   3.508   6.883
 5819SOL    HW229489   3.886   3.445   6.926
 5820SOL     OW29490   4.290   2.399   6.451
 5820SOL    HW129491   4.302   2.465   6.377
 5820SOL    HW229492   4.336   2.433   6.534
 5821SOL     OW29493   4.976   3.210   5.974
 5821SOL    HW129494   5.026   3.287   6.014
 5821SOL    HW229495   4.881   3.212   6.006
 5822SOL     OW29496   4.996   3.307   6.728
 5822SOL    HW129497   5.043   3.320   6.815
 5822SOL    HW229498   4.930   3.233   6.737
 5823SOL     OW29499   4.078   3.372   6.915
 5823SOL    HW129500   4.057   3.328   6.828
 5823SOL    HW229501   4.175   3.398   6.918
 5824SOL     OW29502   4.126   2.613   7.184
 5824SOL    HW129503   4.194   2.668   7.137
 5824SOL    HW229504   4.166   2.525   7.211
 5825SOL     OW29505   5.311   2.641   7.256
 5825SOL    HW129506   5.219   2.679   7.251
 5825SOL    HW229507   5.371   2.688   7.191
 5826SOL     OW29508   4.297   2.732   6.615
 5826SOL    HW129509   4.341   2.821   6.606
 5826SOL    HW229510   4.234   2.732   6.692
 5827SOL     OW29511   5.084   2.724   6.631
 5827SOL    HW129512   5.009   2.724   6.565
 5827SOL    HW229513   5.121   2.632   6.640
 5828SOL     OW29514   4.031   2.075   6.817
 5828SOL    HW129515   4.008   2.112   6.907
 5828SOL    HW229516   4.001   1.980   6.811
 5829SOL     OW29517   3.761   3.172   6.868
 5829SOL    HW129518   3.814   3.123   6.936
 5829SOL    HW229519   3.783   3.270   6.873
 5830SOL     OW29520   4.456   2.496   6.650
 5830SOL    HW129521   4.515   2.470   6.574
 5830SOL    HW229522   4.428   2.592   6.639
 5831SOL     OW29523   5.452   2.797   7.440
 5831SOL    HW129524   5.406   2.790   7.351
 5831SOL    HW229525   5.390   2.841   7.506
 5832SOL     OW29526   4.031   1.925   6.204
 5832SOL    HW129527   4.020   2.019   6.237
 5832SOL    HW229528   4.026   1.862   6.281
 5833SOL     OW29529   5.346   2.229   5.960
 5833SOL    HW129530   5.348   2.153   6.024
 5833SOL    HW229531   5.298   2.306   6.000
 5834SOL     OW29532   4.747   2.628   6.552
 5834SOL    HW129533   4.762   2.649   6.648
 5834SOL    HW229534   4.717   2.533   6.543
 5835SOL     OW29535   4.704   3.435   7.286
 5835SOL    HW129536   4.684   3.479   7.198
 5835SOL    HW229537   4.743   3.344   7.270
 5836SOL     OW29538   5.583   3.380   7.191
 5836SOL    HW129539   5.597   3.407   7.096
 5836SOL    HW229540   5.666   3.402   7.244
 5837SOL     OW29541   4.074   2.760   7.390
 5837SOL    HW129542   4.150   2.804   7.438
 5837SOL    HW229543   4.109   2.713   7.308
 5838SOL     OW29544   4.792   3.195   6.435
 5838SOL    HW129545   4.799   3.111   6.380
 5838SOL    HW229546   4.854   3.264   6.399
 5839SOL     OW29547   4.043   2.672   6.535
 5839SOL    HW129548   4.136   2.708   6.540
 5839SOL    HW229549   4.037   2.587   6.587
 5840SOL     OW29550   4.063   2.371   6.592
 5840SOL    HW129551   4.011   2.288   6.575
 5840SOL    HW229552   4.140   2.376   6.528
 5841SOL     OW29553   4.862   2.242   7.264
 5841SOL    HW129554   4.817   2.305   7.328
 5841SOL    HW229555   4.955   2.273   7.247
 5842SOL     OW29556   4.884   2.069   7.063
 5842SOL    HW129557   4.884   2.133   7.140
 5842SOL    HW229558   4.912   2.117   6.980
 5843SOL     OW29559   3.812   3.663   6.513
 5843SOL    HW129560   3.770   3.577   6.486
 5843SOL    HW229561   3.906   3.666   6.479
 5844SOL     OW29562   4.228   3.430   6.496
 5844SOL    HW129563   4.294   3.504   6.505
 5844SOL    HW229564   4.272   3.351   6.454
 5845SOL     OW29565   4.726   2.658   6.824
 5845SOL    HW129566   4.767   2.626   6.910
 5845SOL    HW229567   4.630   2.631   6.821
 5846SOL     OW29568   3.764   2.406   6.700
 5846SOL    HW129569   3.849   2.373   6.659
 5846SOL    HW229570   3.777   2.421   6.798
 5847SOL     OW29571   4.539   2.434   5.911
 5847SOL    HW129572   4.546   2.345   5.865
 5847SOL    HW229573   4.445   2.468   5.903
 5848SOL     OW29574   5.381   2.466   6.792
 5848SOL    HW129575   5.343   2.397   6.854
 5848SOL    HW229576   5.463   2.430   6.748
 5849SOL     OW29577   3.976   3.426   7.330
 5849SOL    HW129578   3.946   3.483   7.406
 5849SOL    HW229579   3.969   3.329   7.356
 5850SOL     OW29580   4.395   2.326   6.855
 5850SOL    HW129581   4.361   2.237   6.825
 5850SOL    HW229582   4.421   2.380   6.775
 5851SOL     OW29583   4.654   3.540   7.051
 5851SOL    HW129584   4.630   3.522   6.956
 5851SOL    HW229585   4.684   3.634   7.061
 5852SOL     OW29586   4.197   2.362   5.777
 5852SOL    HW129587   4.258   2.442   5.781
 5852SOL    HW229588   4.102   2.393   5.784
 5853SOL     OW29589   3.883   2.999   7.052
 5853SOL    HW129590   3.905   2.938   7.128
 5853SOL    HW229591   3.893   2.950   6.966
 5854SOL     OW29592   5.071   2.921   6.820
 5854SOL    HW129593   5.095   2.858   6.746
 5854SOL    HW229594   4.981   2.961   6.802
 5855SOL     OW29595   5.483   3.609   6.740
 5855SOL    HW129596   5.544   3.639   6.667
 5855SOL    HW229597   5.445   3.520   6.718
 5856SOL     OW29598   4.976   3.593   6.714
 5856SOL    HW129599   5.060   3.598   6.660
 5856SOL    HW229600   4.953   3.497   6.732
 5857SOL     OW29601   3.807   3.120   6.608
 5857SOL    HW129602   3.802   3.119   6.708
 5857SOL    HW229603   3.724   3.079   6.570
 5858SOL     OW29604   4.412   3.524   7.302
 5858SOL    HW129605   4.356   3.605   7.311
 5858SOL    HW229606   4.464   3.528   7.216
 5859SOL     OW29607   5.450   1.997   6.109
 5859SOL    HW129608   5.523   1.980   6.042
 5859SOL    HW229609   5.419   1.910   6.147
 5860SOL     OW29610   5.112   3.435   6.063
 5860SOL    HW129611   5.179   3.447   5.989
 5860SOL    HW229612   5.072   3.524   6.086
 5861SOL     OW29613   5.004   2.789   6.258
 5861SOL    HW129614   5.064   2.708   6.260
 5861SOL    HW229615   5.044   2.858   6.198
 5862SOL     OW29616   4.554   3.135   7.008
 5862SOL    HW129617   4.549   3.168   7.103
 5862SOL    HW229618   4.468   3.154   6.962
 5863SOL     OW29619   4.396   3.478   5.740
 5863SOL    HW129620   4.405   3.488   5.641
 5863SOL    HW229621   4.356   3.389   5.761
 5864SOL     OW29622   5.374   3.582   6.980
 5864SOL    HW129623   5.427   3.592   6.896
 5864SOL    HW229624   5.347   3.672   7.014
 5865SOL     OW29625   5.565   2.037   6.549
 5865SOL    HW129626   5.604   1.952   6.513
 5865SOL    HW229627   5.467   2.039   6.530
 5866SOL     OW29628   3.987   2.188   6.306
 5866SOL    HW129629   3.908   2.239   6.272
 5866SOL    HW229630   3.978   2.173   6.404
 5867SOL     OW29631   4.546   2.864   6.958
 5867SOL    HW129632   4.586   2.863   6.866
 5867SOL    HW229633   4.556   2.956   6.998
 5868SOL     OW29634   4.640   2.772   5.877
 5868SOL    HW129635   4.703   2.810   5.809
 5868SOL    HW229636   4.680   2.689   5.916
 5869SOL     OW29637   4.096   3.150   7.076
 5869SOL    HW129638   4.083   3.243   7.042
 5869SOL    HW229639   4.012   3.098   7.063
 5870SOL     OW29640   5.338   3.154   6.875
 5870SOL    HW129641   5.398   3.157   6.955
 5870SOL    HW229642   5.263   3.218   6.888
 5871SOL     OW29643   4.738   2.098   6.557
 5871SOL    HW129644   4.730   2.062   6.464
 5871SOL    HW229645   4.736   2.022   6.622
 5872SOL     OW29646   4.314   3.349   6.077
 5872SOL    HW129647   4.356   3.291   6.007
 5872SOL    HW229648   4.270   3.428   6.033
 5873SOL     OW29649   5.433   2.247   6.967
 5873SOL    HW129650   5.506   2.316   6.971
 5873SOL    HW229651   5.461   2.172   6.908
 5874SOL     OW29652   3.829   2.875   7.312
 5874SOL    HW129653   3.752   2.842   7.366
 5874SOL    HW229654   3.914   2.845   7.354
 5875SOL     OW29655   4.396   2.065   7.075
 5875SOL    HW129656   4.486   2.049   7.035
 5875SOL    HW229657   4.404   2.070   7.174
 5876SOL     OW29658   3.799   2.207   5.619
 5876SOL    HW129659   3.707   2.179   5.590
 5876SOL    HW229660   3.830   2.284   5.563
 5877SOL     OW29661   5.164   2.718   6.984
 5877SOL    HW129662   5.107   2.770   6.921
 5877SOL    HW229663   5.260   2.730   6.960
 5878SOL     OW29664   3.796   2.028   5.904
 5878SOL    HW129665   3.779   2.111   5.850
 5878SOL    HW229666   3.886   1.991   5.882
 5879SOL     OW29667   4.337   2.704   7.017
 5879SOL    HW129668   4.393   2.785   7.000
 5879SOL    HW229669   4.396   2.624   7.020
 5880SOL     OW29670   5.217   3.629   6.545
 5880SOL    HW129671   5.250   3.693   6.476
 5880SOL    HW229672   5.283   3.623   6.620
 5881SOL     OW29673   4.440   2.427   7.294
 5881SOL    HW129674   4.459   2.492   7.368
 5881SOL    HW229675   4.500   2.347   7.303
 5882SOL     OW29676   4.114   3.603   7.146
 5882SOL    HW129677   4.023   3.644   7.144
 5882SOL    HW229678   4.107   3.509   7.178
 5883SOL     OW29679   5.398   2.745   6.840
 5883SOL    HW129680   5.371   2.656   6.803
 5883SOL    HW229681   5.399   2.813   6.767
 5884SOL     OW29682   4.949   2.187   6.035
 5884SOL    HW129683   5.014   2.113   6.024
 5884SOL    HW229684   4.969   2.237   6.119
 5885SOL     OW29685   4.318   2.607   6.238
 5885SOL    HW129686   4.368   2.692   6.219
 5885SOL    HW229687   4.230   2.609   6.190
 5886SOL     OW29688   5.501   2.204   7.228
 5886SOL    HW129689   5.484   2.235   7.134
 5886SOL    HW229690   5.417   2.167   7.266
 5887SOL     OW29691   5.454   2.796   7.103
 5887SOL    HW129692   5.492   2.887   7.118
 5887SOL    HW229693   5.446   2.779   7.004
 5888SOL     OW29694   4.385   3.652   6.539
 5888SOL    HW129695   4.339   3.740   6.526
 5888SOL    HW229696   4.484   3.664   6.532
 5889SOL     OW29697   4.583   2.818   6.447
 5889SOL    HW129698   4.637   2.749   6.495
 5889SOL    HW229699   4.551   2.887   6.513
 5890SOL     OW29700   4.807   2.846   5.673
 5890SOL    HW129701   4.784   2.899   5.591
 5890SOL    HW229702   4.888   2.790   5.654
 5891SOL     OW29703   5.585   3.431   6.437
 5891SOL    HW129704   5.514   3.419   6.367
 5891SOL    HW229705   5.586   3.352   6.497
 5892SOL     OW29706   3.945   3.176   7.430
 5892SOL    HW129707   3.880   3.103   7.409
 5892SOL    HW229708   3.949   3.190   7.528
 5893SOL     OW29709   3.803   3.102   6.239
 5893SOL    HW129710   3.802   3.055   6.327
 5893SOL    HW229711   3.885   3.074   6.188
 5894SOL     OW29712   4.396   3.253   7.210
 5894SOL    HW129713   4.318   3.203   7.248
 5894SOL    HW229714   4.393   3.348   7.241
 5895SOL     OW29715   5.548   2.054   6.813
 5895SOL    HW129716   5.544   1.964   6.857
 5895SOL    HW229717   5.551   2.043   6.714
 5896SOL     OW29718   4.152   2.286   6.106
 5896SOL    HW129719   4.182   2.214   6.044
 5896SOL    HW229720   4.113   2.246   6.189
 5897SOL     OW29721   5.429   3.349   6.690
 5897SOL    HW129722   5.336   3.324   6.663
 5897SOL    HW229723   5.455   3.299   6.772
 5898SOL     OW29724   4.041   2.409   6.866
 5898SOL    HW129725   4.079   2.350   6.938
 5898SOL    HW229726   4.081   2.383   6.778
 5899SOL     OW29727   4.536   3.448   6.273
 5899SOL    HW129728   4.568   3.458   6.179
 5899SOL    HW229729   4.457   3.386   6.275
 5900SOL     OW29730   5.148   2.076   6.698
 5900SOL    HW129731   5.200   2.011   6.753
 5900SOL    HW229732   5.099   2.139   6.759
 5901SOL     OW29733   4.725   1.896   6.740
 5901SOL    HW129734   4.662   1.824   6.709
 5901SOL    HW229735   4.818   1.860   6.740
 5902SOL     OW29736   4.342   3.429   6.870
 5902SOL    HW129737   4.337   3.511   6.927
 5902SOL    HW229738   4.431   3.426   6.825
 5903SOL     OW29739   5.076   1.914   5.754
 5903SOL    HW129740   5.111   1.873   5.670
 5903SOL    HW229741   4.986   1.876   5.774
 5904SOL     OW29742   5.024   2.315   6.277
 5904SOL    HW129743   4.965   2.395   6.281
 5904SOL    HW229744   5.039   2.280   6.370
 5905SOL     OW29745   5.317   2.083   6.468
 5905SOL    HW129746   5.233   2.082   6.522
 5905SOL    HW229747   5.319   2.166   6.412
 5906SOL     OW29748   3.954   4.352   0.113
 5906SOL    HW129749   3.861   4.350   0.150
 5906SOL    HW229750   3.955   4.313   0.021
 5907SOL     OW29751   3.949   3.999   0.996
 5907SOL    HW129752   3.984   3.982   1.088
 5907SOL    HW229753   3.861   3.954   0.984
 5908SOL     OW29754   3.743   4.092   0.647
 5908SOL    HW129755   3.661   4.135   0.686
 5908SOL    HW229756   3.715   4.019   0.584
 5909SOL     OW29757   4.293   4.999   1.165
 5909SOL    HW129758   4.200   4.992   1.128
 5909SOL    HW229759   4.304   5.088   1.209
 5910SOL     OW29760   5.279   5.235   0.703
 5910SOL    HW129761   5.222   5.219   0.784
 5910SOL    HW229762   5.220   5.245   0.623
 5911SOL     OW29763   4.859   4.427   0.717
 5911SOL    HW129764   4.916   4.505   0.692
 5911SOL    HW229765   4.799   4.453   0.793
 5912SOL     OW29766   5.479   4.331   0.231
 5912SOL    HW129767   5.467   4.318   0.132
 5912SOL    HW229768   5.449   4.250   0.280
 5913SOL     OW29769   4.492   4.868   1.023
 5913SOL    HW129770   4.414   4.885   1.083
 5913SOL    HW229771   4.526   4.955   0.987
 5914SOL     OW29772   4.409   4.736   0.665
 5914SOL    HW129773   4.478   4.720   0.735
 5914SOL    HW229774   4.336   4.793   0.703
 5915SOL     OW29775   4.059   5.159   1.061
 5915SOL    HW129776   3.981   5.128   1.008
 5915SOL    HW229777   4.117   5.217   1.004
 5916SOL     OW29778   5.184   5.229   1.339
 5916SOL    HW129779   5.208   5.323   1.365
 5916SOL    HW229780   5.168   5.175   1.421
 5917SOL     OW29781   4.162   4.116   1.499
 5917SOL    HW129782   4.244   4.060   1.508
 5917SOL    HW229783   4.081   4.058   1.503
 5918SOL     OW29784   5.327   4.171   0.737
 5918SOL    HW129785   5.253   4.217   0.687
 5918SOL    HW229786   5.378   4.239   0.790
 5919SOL     OW29787   3.955   5.437   0.483
 5919SOL    HW129788   3.989   5.514   0.537
 5919SOL    HW229789   3.999   5.437   0.393
 5920SOL     OW29790   4.851   5.065   1.690
 5920SOL    HW129791   4.898   5.065   1.778
 5920SOL    HW229792   4.803   4.978   1.679
 5921SOL     OW29793   3.954   5.158   0.538
 5921SOL    HW129794   3.928   5.254   0.538
 5921SOL    HW229795   3.883   5.104   0.583
 5922SOL     OW29796   3.964   4.815   0.886
 5922SOL    HW129797   3.978   4.731   0.938
 5922SOL    HW229798   3.909   4.879   0.941
 5923SOL     OW29799   4.344   5.510   1.439
 5923SOL    HW129800   4.252   5.493   1.474
 5923SOL    HW229801   4.372   5.602   1.465
 5924SOL     OW29802   4.330   4.688   0.123
 5924SOL    HW129803   4.337   4.772   0.069
 5924SOL    HW229804   4.376   4.701   0.211
 5925SOL     OW29805   5.318   3.838   1.480
 5925SOL    HW129806   5.300   3.905   1.408
 5925SOL    HW229807   5.315   3.884   1.569
 5926SOL     OW29808   3.846   4.367   0.563
 5926SOL    HW129809   3.801   4.279   0.580
 5926SOL    HW229810   3.845   4.421   0.647
 5927SOL     OW29811   5.566   5.491   0.359
 5927SOL    HW129812   5.620   5.462   0.439
 5927SOL    HW229813   5.596   5.581   0.330
 5928SOL     OW29814   3.751   5.320   0.117
 5928SOL    HW129815   3.732   5.224   0.138
 5928SOL    HW229816   3.718   5.378   0.192
 5929SOL     OW29817   5.413   4.646   0.612
 5929SOL    HW129818   5.508   4.617   0.620
 5929SOL    HW229819   5.405   4.711   0.537
 5930SOL     OW29820   5.365   4.832   0.432
 5930SOL    HW129821   5.451   4.834   0.380
 5930SOL    HW229822   5.379   4.879   0.520
 5931SOL     OW29823   3.837   4.461   1.597
 5931SOL    HW129824   3.925   4.448   1.642
 5931SOL    HW229825   3.824   4.558   1.575
 5932SOL     OW29826   4.337   5.089   0.726
 5932SOL    HW129827   4.288   5.002   0.735
 5932SOL    HW229828   4.314   5.132   0.639
 5933SOL     OW29829   5.017   4.952   1.423
 5933SOL    HW129830   5.054   4.879   1.365
 5933SOL    HW229831   5.069   4.957   1.508
 5934SOL     OW29832   4.533   3.728   0.502
 5934SOL    HW129833   4.573   3.819   0.493
 5934SOL    HW229834   4.433   3.736   0.508
 5935SOL     OW29835   3.921   4.700   1.264
 5935SOL    HW129836   4.010   4.655   1.250
 5935SOL    HW229837   3.848   4.635   1.245
 5936SOL     OW29838   5.249   4.723   0.190
 5936SOL    HW129839   5.186   4.647   0.203
 5936SOL    HW229840   5.297   4.741   0.276
 5937SOL     OW29841   4.911   5.516   1.616
 5937SOL    HW129842   4.935   5.576   1.540
 5937SOL    HW229843   4.918   5.421   1.586
 5938SOL     OW29844   5.190   5.141   0.953
 5938SOL    HW129845   5.131   5.147   1.033
 5938SOL    HW229846   5.175   5.053   0.907
 5939SOL     OW29847   5.391   5.438   0.572
 5939SOL    HW129848   5.350   5.415   0.484
 5939SOL    HW229849   5.373   5.364   0.637
 5940SOL     OW29850   4.322   4.453   0.270
 5940SOL    HW129851   4.346   4.522   0.202
 5940SOL    HW229852   4.244   4.486   0.324
 5941SOL     OW29853   5.005   4.069   0.944
 5941SOL    HW129854   4.919   4.019   0.931
 5941SOL    HW229855   5.067   4.015   1.000
 5942SOL     OW29856   5.300   5.386   0.307
 5942SOL    HW129857   5.389   5.432   0.310
 5942SOL    HW229858   5.279   5.362   0.212
 5943SOL     OW29859   4.697   4.614   1.572
 5943SOL    HW129860   4.743   4.530   1.543
 5943SOL    HW229861   4.641   4.648   1.497
 5944SOL     OW29862   4.715   4.134   1.242
 5944SOL    HW129863   4.638   4.168   1.296
 5944SOL    HW229864   4.681   4.083   1.163
 5945SOL     OW29865   4.765   4.425   0.429
 5945SOL    HW129866   4.791   4.421   0.525
 5945SOL    HW229867   4.680   4.374   0.415
 5946SOL     OW29868   3.800   4.535   0.789
 5946SOL    HW129869   3.899   4.523   0.798
 5946SOL    HW229870   3.776   4.630   0.810
 5947SOL     OW29871   3.854   5.545   1.571
 5947SOL    HW129872   3.844   5.530   1.670
 5947SOL    HW229873   3.768   5.581   1.535
 5948SOL     OW29874   4.589   4.072   0.195
 5948SOL    HW129875   4.648   4.135   0.146
 5948SOL    HW229876   4.608   3.978   0.166
 5949SOL     OW29877   5.086   4.868   0.545
 5949SOL    HW129878   5.169   4.839   0.497
 5949SOL    HW229879   5.037   4.935   0.489
 5950SOL     OW29880   4.274   3.920   0.885
 5950SOL    HW129881   4.269   3.915   0.985
 5950SOL    HW229882   4.276   4.016   0.856
 5951SOL     OW29883   4.732   5.180   0.477
 5951SOL    HW129884   4.686   5.252   0.425
 5951SOL    HW229885   4.728   5.200   0.575
 5952SOL     OW29886   4.075   5.525   0.853
 5952SOL    HW129887   4.125   5.439   0.859
 5952SOL    HW229888   4.140   5.602   0.850
 5953SOL     OW29889   5.519   4.790   0.873
 5953SOL    HW129890   5.457   4.775   0.797
 5953SOL    HW229891   5.467   4.801   0.958
 5954SOL     OW29892   4.951   5.274   1.506
 5954SOL    HW129893   4.957   5.197   1.570
 5954SOL    HW229894   4.899   5.248   1.426
 5955SOL     OW29895   4.045   4.667   0.242
 5955SOL    HW129896   4.127   4.706   0.200
 5955SOL    HW229897   4.018   4.585   0.193
 5956SOL     OW29898   5.182   4.459   0.728
 5956SOL    HW129899   5.177   4.394   0.803
 5956SOL    HW229900   5.262   4.518   0.741
 5957SOL     OW29901   4.185   4.990   1.727
 5957SOL    HW129902   4.135   4.991   1.641
 5957SOL    HW229903   4.122   4.972   1.803
 5958SOL     OW29904   4.835   5.500   0.237
 5958SOL    HW129905   4.775   5.438   0.287
 5958SOL    HW229906   4.866   5.456   0.152
 5959SOL     OW29907   5.356   5.101   0.081
 5959SOL    HW129908   5.324   5.195   0.071
 5959SOL    HW229909   5.280   5.038   0.069
 5960SOL     OW29910   4.188   5.467   0.323
 5960SOL    HW129911   4.221   5.506   0.409
 5960SOL    HW229912   4.264   5.460   0.258
 5961SOL     OW29913   5.124   3.831   0.426
 5961SOL    HW129914   5.100   3.794   0.336
 5961SOL    HW229915   5.223   3.847   0.430
 5962SOL     OW29916   3.973   5.509   1.241
 5962SOL    HW129917   4.030   5.444   1.291
 5962SOL    HW229918   3.957   5.476   1.148
 5963SOL     OW29919   4.664   5.422   0.904
 5963SOL    HW129920   4.744   5.365   0.925
 5963SOL    HW229921   4.615   5.382   0.827
 5964SOL     OW29922   4.106   4.424   0.480
 5964SOL    HW129923   4.151   4.334   0.477
 5964SOL    HW229924   4.012   4.413   0.513
 5965SOL     OW29925   4.338   3.846   0.117
 5965SOL    HW129926   4.436   3.824   0.124
 5965SOL    HW229927   4.307   3.829   0.024
 5966SOL     OW29928   4.505   3.988   1.749
 5966SOL    HW129929   4.572   3.927   1.792
 5966SOL    HW229930   4.432   4.007   1.814
 5967SOL     OW29931   4.612   5.238   1.195
 5967SOL    HW129932   4.589   5.213   1.101
 5967SOL    HW229933   4.673   5.169   1.234
 5968SOL     OW29934   5.075   4.314   1.433
 5968SOL    HW129935   5.103   4.271   1.518
 5968SOL    HW229936   5.100   4.410   1.434
 5969SOL     OW29937   4.527   5.126   0.924
 5969SOL    HW129938   4.617   5.140   0.882
 5969SOL    HW229939   4.456   5.128   0.853
 5970SOL     OW29940   4.646   4.227   0.899
 5970SOL    HW129941   4.621   4.218   0.803
 5970SOL    HW229942   4.694   4.145   0.930
 5971SOL     OW29943   4.263   3.788   0.512
 5971SOL    HW129944   4.182   3.789   0.570
 5971SOL    HW229945   4.266   3.871   0.457
 5972SOL     OW29946   5.158   4.912   0.041
 5972SOL    HW129947   5.190   4.836   0.098
 5972SOL    HW229948   5.066   4.939   0.071
 5973SOL     OW29949   4.021   3.759   0.171
 5973SOL    HW129950   4.070   3.843   0.150
 5973SOL    HW229951   4.083   3.694   0.216
 5974SOL     OW29952   4.659   3.960   0.480
 5974SOL    HW129953   4.611   4.001   0.402
 5974SOL    HW229954   4.758   3.958   0.461
 5975SOL     OW29955   4.800   4.407   1.464
 5975SOL    HW129956   4.720   4.346   1.467
 5975SOL    HW229957   4.881   4.354   1.440
 5976SOL     OW29958   4.951   5.294   0.793
 5976SOL    HW129959   4.972   5.368   0.728
 5976SOL    HW229960   5.019   5.294   0.866
 5977SOL     OW29961   4.183   4.876   0.741
 5977SOL    HW129962   4.112   4.849   0.806
 5977SOL    HW229963   4.157   4.848   0.648
 5978SOL     OW29964   4.995   5.521   0.591
 5978SOL    HW129965   5.039   5.585   0.527
 5978SOL    HW229966   4.945   5.573   0.661
 5979SOL     OW29967   4.756   4.273   0.016
 5979SOL    HW129968   4.715   4.355  -0.023
 5979SOL    HW229969   4.820   4.299   0.089
 5980SOL     OW29970   3.802   4.280   1.386
 5980SOL    HW129971   3.894   4.279   1.345
 5980SOL    HW229972   3.796   4.354   1.453
 5981SOL     OW29973   4.285   3.946   1.147
 5981SOL    HW129974   4.323   3.862   1.184
 5981SOL    HW229975   4.197   3.965   1.191
 5982SOL     OW29976   4.590   4.178   0.642
 5982SOL    HW129977   4.558   4.250   0.580
 5982SOL    HW229978   4.614   4.097   0.589
 5983SOL     OW29979   4.741   3.763   0.753
 5983SOL    HW129980   4.669   3.768   0.684
 5983SOL    HW229981   4.717   3.694   0.822
 5984SOL     OW29982   5.153   4.897   0.867
 5984SOL    HW129983   5.098   4.813   0.860
 5984SOL    HW229984   5.179   4.926   0.775
 5985SOL     OW29985   5.190   4.314   0.992
 5985SOL    HW129986   5.160   4.219   0.999
 5985SOL    HW229987   5.263   4.330   1.058
 5986SOL     OW29988   5.581   4.557   0.377
 5986SOL    HW129989   5.623   4.493   0.441
 5986SOL    HW229990   5.543   4.506   0.299
 5987SOL     OW29991   4.212   5.109   0.174
 5987SOL    HW129992   4.125   5.094   0.221
 5987SOL    HW229993   4.195   5.135   0.079
 5988SOL     OW29994   5.388   5.004   0.657
 5988SOL    HW129995   5.487   5.012   0.671
 5988SOL    HW229996   5.343   5.088   0.688
 5989SOL     OW29997   5.114   4.299   0.078
 5989SOL    HW129998   5.060   4.278   0.159
 5989SOL    HW229999   5.205   4.258   0.087
 5990SOL     OW30000   4.251   3.980   0.328
 5990SOL    HW130001   4.278   3.921   0.253
 5990SOL    HW230002   4.251   4.075   0.297
 5991SOL     OW30003   5.478   4.947   1.588
 5991SOL    HW130004   5.569   4.908   1.575
 5991SOL    HW230005   5.486   5.043   1.612
 5992SOL     OW30006   4.788   5.071   1.340
 5992SOL    HW130007   4.708   5.048   1.395
 5992SOL    HW230008   4.871   5.045   1.389
 5993SOL     OW30009   5.316   5.353   1.625
 5993SOL    HW130010   5.343   5.387   1.535
 5993SOL    HW230011   5.395   5.315   1.671
 5994SOL     OW30012   4.835   4.919   1.100
 5994SOL    HW130013   4.795   4.963   1.181
 5994SOL    HW230014   4.794   4.956   1.017
 5995SOL     OW30015   5.362   4.823   1.079
 5995SOL    HW130016   5.367   4.904   1.138
 5995SOL    HW230017   5.276   4.825   1.028
 5996SOL     OW30018   4.639   3.813   1.402
 5996SOL    HW130019   4.664   3.793   1.307
 5996SOL    HW230020   4.711   3.869   1.444
 5997SOL     OW30021   4.704   4.840   1.719
 5997SOL    HW130022   4.605   4.846   1.729
 5997SOL    HW230023   4.727   4.760   1.663
 5998SOL     OW30024   4.429   4.774   0.368
 5998SOL    HW130025   4.415   4.781   0.467
 5998SOL    HW230026   4.513   4.723   0.350
 5999SOL     OW30027   4.134   4.537   1.251
 5999SOL    HW130028   4.220   4.549   1.301
 5999SOL    HW230029   4.092   4.450   1.278
 6000SOL     OW30030   4.998   4.110   1.262
 6000SOL    HW130031   5.019   4.184   1.326
 6000SOL    HW230032   4.909   4.127   1.219
 6001SOL     OW30033   3.788   5.288   1.331
 6001SOL    HW130034   3.742   5.370   1.297
 6001SOL    HW230035   3.886   5.307   1.340
 6002SOL     OW30036   4.091   4.824   0.501
 6002SOL    HW130037   4.084   4.907   0.445
 6002SOL    HW230038   4.095   4.744   0.441
 6003SOL     OW30039   4.290   4.261   0.865
 6003SOL    HW130040   4.302   4.327   0.791
 6003SOL    HW230041   4.336   4.295   0.948
 6004SOL     OW30042   4.976   5.072   0.388
 6004SOL    HW130043   5.026   5.149   0.428
 6004SOL    HW230044   4.881   5.074   0.420
 6005SOL     OW30045   4.996   5.169   1.142
 6005SOL    HW130046   5.043   5.182   1.229
 6005SOL    HW230047   4.930   5.095   1.151
 6006SOL     OW30048   5.306   4.363   0.472
 6006SOL    HW130049   5.275   4.424   0.545
 6006SOL    HW230050   5.356   4.415   0.403
 6007SOL     OW30051   4.078   5.234   1.329
 6007SOL    HW130052   4.057   5.190   1.242
 6007SOL    HW230053   4.175   5.260   1.332
 6008SOL     OW30054   4.126   4.475   1.598
 6008SOL    HW130055   4.194   4.530   1.551
 6008SOL    HW230056   4.166   4.387   1.625
 6009SOL     OW30057   5.311   4.503   1.670
 6009SOL    HW130058   5.219   4.541   1.665
 6009SOL    HW230059   5.371   4.550   1.605
 6010SOL     OW30060   4.737   3.829   1.770
 6010SOL    HW130061   4.743   3.914   1.718
 6010SOL    HW230062   4.769   3.753   1.713
 6011SOL     OW30063   4.297   4.594   1.029
 6011SOL    HW130064   4.341   4.683   1.020
 6011SOL    HW230065   4.234   4.594   1.106
 6012SOL     OW30066   5.084   4.586   1.045
 6012SOL    HW130067   5.009   4.586   0.979
 6012SOL    HW230068   5.121   4.494   1.054
 6013SOL     OW30069   4.933   4.249   0.275
 6013SOL    HW130070   4.946   4.165   0.329
 6013SOL    HW230071   4.904   4.323   0.335
 6014SOL     OW30072   4.031   3.937   1.231
 6014SOL    HW130073   4.008   3.974   1.321
 6014SOL    HW230074   4.001   3.842   1.225
 6015SOL     OW30075   3.761   5.034   1.282
 6015SOL    HW130076   3.814   4.985   1.350
 6015SOL    HW230077   3.783   5.132   1.287
 6016SOL     OW30078   4.456   4.358   1.064
 6016SOL    HW130079   4.515   4.332   0.988
 6016SOL    HW230080   4.428   4.454   1.053
 6017SOL     OW30081   5.452   4.659   1.854
 6017SOL    HW130082   5.406   4.652   1.765
 6017SOL    HW230083   5.390   4.703   1.920
 6018SOL     OW30084   4.031   3.787   0.618
 6018SOL    HW130085   4.020   3.881   0.651
 6018SOL    HW230086   4.026   3.724   0.695
 6019SOL     OW30087   5.346   4.091   0.374
 6019SOL    HW130088   5.348   4.015   0.438
 6019SOL    HW230089   5.298   4.168   0.414
 6020SOL     OW30090   4.747   4.490   0.966
 6020SOL    HW130091   4.762   4.511   1.062
 6020SOL    HW230092   4.717   4.395   0.957
 6021SOL     OW30093   4.704   5.297   1.700
 6021SOL    HW130094   4.684   5.341   1.612
 6021SOL    HW230095   4.743   5.206   1.684
 6022SOL     OW30096   5.583   5.242   1.605
 6022SOL    HW130097   5.597   5.269   1.510
 6022SOL    HW230098   5.666   5.264   1.658
 6023SOL     OW30099   4.074   4.622   1.804
 6023SOL    HW130100   4.150   4.666   1.852
 6023SOL    HW230101   4.109   4.575   1.722
 6024SOL     OW30102   5.264   3.998   0.125
 6024SOL    HW130103   5.203   3.923   0.148
 6024SOL    HW230104   5.286   4.050   0.208
 6025SOL     OW30105   5.027   4.562   0.042
 6025SOL    HW130106   5.061   4.469   0.057
 6025SOL    HW230107   5.045   4.589  -0.053
 6026SOL     OW30108   4.792   5.057   0.849
 6026SOL    HW130109   4.799   4.973   0.794
 6026SOL    HW230110   4.854   5.126   0.813
 6027SOL     OW30111   4.043   4.534   0.949
 6027SOL    HW130112   4.136   4.570   0.954
 6027SOL    HW230113   4.037   4.449   1.001
 6028SOL     OW30114   4.063   4.233   1.006
 6028SOL    HW130115   4.011   4.150   0.989
 6028SOL    HW230116   4.140   4.238   0.942
 6029SOL     OW30117   4.884   3.931   1.477
 6029SOL    HW130118   4.884   3.995   1.554
 6029SOL    HW230119   4.912   3.979   1.394
 6030SOL     OW30120   3.732   5.050   0.200
 6030SOL    HW130121   3.639   5.071   0.169
 6030SOL    HW230122   3.742   4.951   0.213
 6031SOL     OW30123   3.812   5.525   0.927
 6031SOL    HW130124   3.770   5.439   0.900
 6031SOL    HW230125   3.906   5.528   0.893
 6032SOL     OW30126   4.228   5.292   0.910
 6032SOL    HW130127   4.294   5.366   0.919
 6032SOL    HW230128   4.272   5.213   0.868
 6033SOL     OW30129   4.726   4.520   1.238
 6033SOL    HW130130   4.767   4.488   1.324
 6033SOL    HW230131   4.630   4.493   1.235
 6034SOL     OW30132   3.764   4.268   1.114
 6034SOL    HW130133   3.849   4.235   1.073
 6034SOL    HW230134   3.777   4.283   1.212
 6035SOL     OW30135   3.913   4.244   1.722
 6035SOL    HW130136   3.972   4.204   1.652
 6035SOL    HW230137   3.855   4.315   1.681
 6036SOL     OW30138   5.093   4.674   1.660
 6036SOL    HW130139   5.132   4.763   1.680
 6036SOL    HW230140   5.103   4.654   1.563
 6037SOL     OW30141   4.539   4.296   0.325
 6037SOL    HW130142   4.546   4.207   0.279
 6037SOL    HW230143   4.445   4.330   0.317
 6038SOL     OW30144   5.381   4.328   1.206
 6038SOL    HW130145   5.343   4.259   1.268
 6038SOL    HW230146   5.463   4.292   1.162
 6039SOL     OW30147   3.976   5.288   1.744
 6039SOL    HW130148   3.946   5.345   1.820
 6039SOL    HW230149   3.969   5.191   1.770
 6040SOL     OW30150   4.395   4.188   1.269
 6040SOL    HW130151   4.361   4.099   1.239
 6040SOL    HW230152   4.421   4.242   1.189
 6041SOL     OW30153   4.654   5.402   1.465
 6041SOL    HW130154   4.630   5.384   1.370
 6041SOL    HW230155   4.684   5.496   1.475
 6042SOL     OW30156   4.197   4.224   0.191
 6042SOL    HW130157   4.258   4.304   0.195
 6042SOL    HW230158   4.102   4.255   0.198
 6043SOL     OW30159   3.883   4.861   1.466
 6043SOL    HW130160   3.905   4.800   1.542
 6043SOL    HW230161   3.893   4.812   1.380
 6044SOL     OW30162   5.071   4.783   1.234
 6044SOL    HW130163   5.095   4.720   1.160
 6044SOL    HW230164   4.981   4.823   1.216
 6045SOL     OW30165   5.026   4.579   0.309
 6045SOL    HW130166   4.940   4.548   0.351
 6045SOL    HW230167   5.022   4.565   0.210
 6046SOL     OW30168   5.483   5.471   1.154
 6046SOL    HW130169   5.544   5.501   1.081
 6046SOL    HW230170   5.445   5.382   1.132
 6047SOL     OW30171   4.976   5.455   1.128
 6047SOL    HW130172   5.060   5.460   1.074
 6047SOL    HW230173   4.953   5.359   1.146
 6048SOL     OW30174   3.807   4.982   1.022
 6048SOL    HW130175   3.802   4.981   1.122
 6048SOL    HW230176   3.724   4.941   0.984
 6049SOL     OW30177   4.412   5.386   1.716
 6049SOL    HW130178   4.356   5.467   1.725
 6049SOL    HW230179   4.464   5.390   1.630
 6050SOL     OW30180   4.627   3.810   0.133
 6050SOL    HW130181   4.678   3.811   0.047
 6050SOL    HW230182   4.683   3.768   0.204
 6051SOL     OW30183   5.450   3.859   0.523
 6051SOL    HW130184   5.523   3.842   0.456
 6051SOL    HW230185   5.419   3.772   0.561
 6052SOL     OW30186   5.112   5.297   0.477
 6052SOL    HW130187   5.179   5.309   0.403
 6052SOL    HW230188   5.072   5.386   0.500
 6053SOL     OW30189   3.854   5.518   1.851
 6053SOL    HW130190   3.813   5.444   1.904
 6053SOL    HW230191   3.918   5.569   1.909
 6054SOL     OW30192   5.004   4.651   0.672
 6054SOL    HW130193   5.064   4.570   0.674
 6054SOL    HW230194   5.044   4.720   0.612
 6055SOL     OW30195   4.554   4.997   1.422
 6055SOL    HW130196   4.549   5.030   1.517
 6055SOL    HW230197   4.468   5.016   1.376
 6056SOL     OW30198   4.396   5.340   0.154
 6056SOL    HW130199   4.405   5.350   0.055
 6056SOL    HW230200   4.356   5.251   0.175
 6057SOL     OW30201   5.374   5.444   1.394
 6057SOL    HW130202   5.427   5.454   1.310
 6057SOL    HW230203   5.347   5.534   1.428
 6058SOL     OW30204   5.565   3.899   0.963
 6058SOL    HW130205   5.604   3.814   0.927
 6058SOL    HW230206   5.467   3.901   0.944
 6059SOL     OW30207   3.987   4.050   0.720
 6059SOL    HW130208   3.908   4.101   0.686
 6059SOL    HW230209   3.978   4.035   0.818
 6060SOL     OW30210   4.918   5.336   0.031
 6060SOL    HW130211   4.924   5.243   0.068
 6060SOL    HW230212   4.859   5.336  -0.049
 6061SOL     OW30213   4.546   4.726   1.372
 6061SOL    HW130214   4.586   4.725   1.280
 6061SOL    HW230215   4.556   4.818   1.412
 6062SOL     OW30216   4.640   4.634   0.291
 6062SOL    HW130217   4.703   4.672   0.223
 6062SOL    HW230218   4.680   4.551   0.330
 6063SOL     OW30219   5.228   5.331   0.044
 6063SOL    HW130220   5.136   5.368   0.051
 6063SOL    HW230221   5.266   5.351  -0.046
 6064SOL     OW30222   4.096   5.012   1.490
 6064SOL    HW130223   4.083   5.105   1.456
 6064SOL    HW230224   4.012   4.960   1.477
 6065SOL     OW30225   5.338   5.016   1.289
 6065SOL    HW130226   5.398   5.019   1.369
 6065SOL    HW230227   5.263   5.080   1.302
 6066SOL     OW30228   4.763   4.822   0.696
 6066SOL    HW130229   4.693   4.775   0.750
 6066SOL    HW230230   4.822   4.754   0.653
 6067SOL     OW30231   4.738   3.960   0.971
 6067SOL    HW130232   4.730   3.924   0.878
 6067SOL    HW230233   4.736   3.884   1.036
 6068SOL     OW30234   4.314   5.211   0.491
 6068SOL    HW130235   4.356   5.153   0.421
 6068SOL    HW230236   4.270   5.290   0.447
 6069SOL     OW30237   5.433   4.109   1.381
 6069SOL    HW130238   5.506   4.178   1.385
 6069SOL    HW230239   5.461   4.034   1.322
 6070SOL     OW30240   3.979   5.072   0.290
 6070SOL    HW130241   3.883   5.073   0.263
 6070SOL    HW230242   3.991   5.125   0.374
 6071SOL     OW30243   3.829   4.737   1.726
 6071SOL    HW130244   3.752   4.704   1.780
 6071SOL    HW230245   3.914   4.707   1.768
 6072SOL     OW30246   4.396   3.927   1.489
 6072SOL    HW130247   4.486   3.911   1.449
 6072SOL    HW230248   4.404   3.932   1.588
 6073SOL     OW30249   3.799   4.069   0.033
 6073SOL    HW130250   3.707   4.041   0.004
 6073SOL    HW230251   3.830   4.146  -0.023
 6074SOL     OW30252   5.164   4.580   1.398
 6074SOL    HW130253   5.107   4.632   1.335
 6074SOL    HW230254   5.260   4.592   1.374
 6075SOL     OW30255   3.796   3.890   0.318
 6075SOL    HW130256   3.779   3.973   0.264
 6075SOL    HW230257   3.886   3.853   0.296
 6076SOL     OW30258   4.907   5.059   0.119
 6076SOL    HW130259   4.808   5.048   0.121
 6076SOL    HW230260   4.941   5.074   0.212
 6077SOL     OW30261   4.337   4.566   1.431
 6077SOL    HW130262   4.393   4.647   1.414
 6077SOL    HW230263   4.396   4.486   1.434
 6078SOL     OW30264   5.217   5.491   0.959
 6078SOL    HW130265   5.250   5.555   0.890
 6078SOL    HW230266   5.283   5.485   1.034
 6079SOL     OW30267   5.174   4.944   1.633
 6079SOL    HW130268   5.165   4.934   1.732
 6079SOL    HW230269   5.270   4.937   1.607
 6080SOL     OW30270   4.114   5.465   1.560
 6080SOL    HW130271   4.023   5.506   1.558
 6080SOL    HW230272   4.107   5.371   1.592
 6081SOL     OW30273   5.398   4.607   1.254
 6081SOL    HW130274   5.371   4.518   1.217
 6081SOL    HW230275   5.399   4.675   1.181
 6082SOL     OW30276   4.949   4.049   0.449
 6082SOL    HW130277   5.014   3.975   0.438
 6082SOL    HW230278   4.969   4.099   0.533
 6083SOL     OW30279   4.318   4.469   0.652
 6083SOL    HW130280   4.368   4.554   0.633
 6083SOL    HW230281   4.230   4.471   0.604
 6084SOL     OW30282   5.501   4.066   1.642
 6084SOL    HW130283   5.484   4.097   1.548
 6084SOL    HW230284   5.417   4.029   1.680
 6085SOL     OW30285   5.454   4.658   1.517
 6085SOL    HW130286   5.492   4.749   1.532
 6085SOL    HW230287   5.446   4.641   1.418
 6086SOL     OW30288   4.583   5.098   0.016
 6086SOL    HW130289   4.537   5.113   0.104
 6086SOL    HW230290   4.627   5.183  -0.014
 6087SOL     OW30291   4.385   5.514   0.953
 6087SOL    HW130292   4.339   5.602   0.940
 6087SOL    HW230293   4.484   5.526   0.946
 6088SOL     OW30294   4.583   4.680   0.861
 6088SOL    HW130295   4.637   4.611   0.909
 6088SOL    HW230296   4.551   4.749   0.927
 6089SOL     OW30297   4.807   4.708   0.087
 6089SOL    HW130298   4.784   4.761   0.005
 6089SOL    HW230299   4.888   4.652   0.068
 6090SOL     OW30300   5.585   5.293   0.851
 6090SOL    HW130301   5.514   5.281   0.781
 6090SOL    HW230302   5.586   5.214   0.911
 6091SOL     OW30303   3.945   5.038   1.844
 6091SOL    HW130304   3.880   4.965   1.823
 6091SOL    HW230305   3.949   5.052   1.942
 6092SOL     OW30306   3.803   4.964   0.653
 6092SOL    HW130307   3.802   4.917   0.741
 6092SOL    HW230308   3.885   4.936   0.602
 6093SOL     OW30309   5.548   3.916   1.227
 6093SOL    HW130310   5.544   3.826   1.271
 6093SOL    HW230311   5.551   3.905   1.128
 6094SOL     OW30312   4.152   4.148   0.520
 6094SOL    HW130313   4.182   4.076   0.458
 6094SOL    HW230314   4.113   4.108   0.603
 6095SOL     OW30315   5.429   5.211   1.104
 6095SOL    HW130316   5.336   5.186   1.077
 6095SOL    HW230317   5.455   5.161   1.186
 6096SOL     OW30318   4.041   4.271   1.280
 6096SOL    HW130319   4.079   4.212   1.352
 6096SOL    HW230320   4.081   4.245   1.192
 6097SOL     OW30321   4.536   5.310   0.687
 6097SOL    HW130322   4.568   5.320   0.593
 6097SOL    HW230323   4.457   5.248   0.689
 6098SOL     OW30324   5.148   3.938   1.112
 6098SOL    HW130325   5.200   3.873   1.167
 6098SOL    HW230326   5.099   4.001   1.173
 6099SOL     OW30327   4.725   3.758   1.154
 6099SOL    HW130328   4.662   3.686   1.123
 6099SOL    HW230329   4.818   3.722   1.154
 6100SOL     OW30330   4.494   5.054   0.301
 6100SOL    HW130331   4.448   4.967   0.318
 6100SOL    HW230332   4.585   5.051   0.342
 6101SOL     OW30333   4.342   5.291   1.284
 6101SOL    HW130334   4.337   5.373   1.341
 6101SOL    HW230335   4.431   5.288   1.239
 6102SOL     OW30336   5.076   3.776   0.168
 6102SOL    HW130337   5.111   3.735   0.084
 6102SOL    HW230338   4.986   3.738   0.188
 6103SOL     OW30339   5.024   4.177   0.691
 6103SOL    HW130340   4.965   4.257   0.695
 6103SOL    HW230341   5.039   4.142   0.784
 6104SOL     OW30342   5.317   3.945   0.882
 6104SOL    HW130343   5.233   3.944   0.936
 6104SOL    HW230344   5.319   4.028   0.826
 6105SOL     OW30345   3.763   4.801   0.300
 6105SOL    HW130346   3.862   4.790   0.291
 6105SOL    HW230347   3.723   4.715   0.332
 6106SOL     OW30348   4.599   5.370   0.337
 6106SOL    HW130349   4.522   5.335   0.283
 6106SOL    HW230350   4.567   5.441   0.399
 6107SOL     OW30351   3.954   4.352   1.975
 6107SOL    HW130352   3.861   4.350   2.012
 6107SOL    HW230353   3.955   4.313   1.883
 6108SOL     OW30354   3.949   3.999   2.858
 6108SOL    HW130355   3.984   3.982   2.950
 6108SOL    HW230356   3.861   3.954   2.846
 6109SOL     OW30357   4.293   4.999   3.027
 6109SOL    HW130358   4.200   4.992   2.990
 6109SOL    HW230359   4.304   5.088   3.071
 6110SOL     OW30360   5.279   5.235   2.565
 6110SOL    HW130361   5.222   5.219   2.646
 6110SOL    HW230362   5.220   5.245   2.485
 6111SOL     OW30363   4.574   4.522   3.685
 6111SOL    HW130364   4.570   4.598   3.750
 6111SOL    HW230365   4.596   4.558   3.594
 6112SOL     OW30366   4.409   4.736   2.527
 6112SOL    HW130367   4.478   4.720   2.597
 6112SOL    HW230368   4.336   4.793   2.565
 6113SOL     OW30369   4.410   4.885   3.665
 6113SOL    HW130370   4.470   4.964   3.679
 6113SOL    HW230371   4.324   4.916   3.624
 6114SOL     OW30372   5.327   4.171   2.599
 6114SOL    HW130373   5.253   4.217   2.549
 6114SOL    HW230374   5.378   4.239   2.652
 6115SOL     OW30375   3.955   5.437   2.345
 6115SOL    HW130376   3.989   5.514   2.399
 6115SOL    HW230377   3.999   5.437   2.255
 6116SOL     OW30378   4.330   4.688   1.985
 6116SOL    HW130379   4.337   4.772   1.931
 6116SOL    HW230380   4.376   4.701   2.073
 6117SOL     OW30381   3.751   5.320   1.979
 6117SOL    HW130382   3.732   5.224   2.000
 6117SOL    HW230383   3.718   5.378   2.054
 6118SOL     OW30384   5.413   4.646   2.474
 6118SOL    HW130385   5.508   4.617   2.482
 6118SOL    HW230386   5.405   4.711   2.399
 6119SOL     OW30387   5.017   4.952   3.285
 6119SOL    HW130388   5.054   4.879   3.227
 6119SOL    HW230389   5.069   4.957   3.370
 6120SOL     OW30390   5.249   4.723   2.052
 6120SOL    HW130391   5.186   4.647   2.065
 6120SOL    HW230392   5.297   4.741   2.138
 6121SOL     OW30393   4.911   5.516   3.478
 6121SOL    HW130394   4.935   5.576   3.402
 6121SOL    HW230395   4.918   5.421   3.448
 6122SOL     OW30396   4.531   4.329   3.327
 6122SOL    HW130397   4.484   4.326   3.416
 6122SOL    HW230398   4.480   4.274   3.261
 6123SOL     OW30399   4.697   4.614   3.434
 6123SOL    HW130400   4.743   4.530   3.405
 6123SOL    HW230401   4.641   4.648   3.359
 6124SOL     OW30402   4.715   4.134   3.104
 6124SOL    HW130403   4.638   4.168   3.158
 6124SOL    HW230404   4.681   4.083   3.025
 6125SOL     OW30405   4.589   4.072   2.057
 6125SOL    HW130406   4.648   4.135   2.008
 6125SOL    HW230407   4.608   3.978   2.028
 6126SOL     OW30408   4.732   5.180   2.339
 6126SOL    HW130409   4.686   5.252   2.287
 6126SOL    HW230410   4.728   5.200   2.437
 6127SOL     OW30411   4.075   5.525   2.715
 6127SOL    HW130412   4.125   5.439   2.721
 6127SOL    HW230413   4.140   5.602   2.712
 6128SOL     OW30414   5.519   4.790   2.735
 6128SOL    HW130415   5.457   4.775   2.659
 6128SOL    HW230416   5.467   4.801   2.820
 6129SOL     OW30417   4.951   5.274   3.368
 6129SOL    HW130418   4.957   5.197   3.432
 6129SOL    HW230419   4.899   5.248   3.288
 6130SOL     OW30420   4.045   4.667   2.104
 6130SOL    HW130421   4.127   4.706   2.062
 6130SOL    HW230422   4.018   4.585   2.055
 6131SOL     OW30423   4.185   4.990   3.589
 6131SOL    HW130424   4.135   4.991   3.503
 6131SOL    HW230425   4.122   4.972   3.665
 6132SOL     OW30426   4.835   5.500   2.099
 6132SOL    HW130427   4.775   5.438   2.149
 6132SOL    HW230428   4.866   5.456   2.014
 6133SOL     OW30429   3.926   4.009   3.360
 6133SOL    HW130430   3.846   4.069   3.347
 6133SOL    HW230431   3.916   3.960   3.446
 6134SOL     OW30432   4.188   5.467   2.185
 6134SOL    HW130433   4.221   5.506   2.271
 6134SOL    HW230434   4.264   5.460   2.120
 6135SOL     OW30435   4.527   5.126   2.786
 6135SOL    HW130436   4.617   5.140   2.744
 6135SOL    HW230437   4.456   5.128   2.715
 6136SOL     OW30438   4.646   4.227   2.761
 6136SOL    HW130439   4.621   4.218   2.665
 6136SOL    HW230440   4.694   4.145   2.792
 6137SOL     OW30441   5.158   4.912   1.903
 6137SOL    HW130442   5.190   4.836   1.960
 6137SOL    HW230443   5.066   4.939   1.933
 6138SOL     OW30444   4.951   5.294   2.655
 6138SOL    HW130445   4.972   5.368   2.590
 6138SOL    HW230446   5.019   5.294   2.728
 6139SOL     OW30447   4.183   4.876   2.603
 6139SOL    HW130448   4.112   4.849   2.668
 6139SOL    HW230449   4.157   4.848   2.510
 6140SOL     OW30450   4.995   5.521   2.453
 6140SOL    HW130451   5.039   5.585   2.389
 6140SOL    HW230452   4.945   5.573   2.523
 6141SOL     OW30453   3.802   4.280   3.248
 6141SOL    HW130454   3.894   4.279   3.207
 6141SOL    HW230455   3.796   4.354   3.315
 6142SOL     OW30456   4.285   3.946   3.009
 6142SOL    HW130457   4.323   3.862   3.046
 6142SOL    HW230458   4.197   3.965   3.053
 6143SOL     OW30459   4.590   4.178   2.504
 6143SOL    HW130460   4.558   4.250   2.442
 6143SOL    HW230461   4.614   4.097   2.451
 6144SOL     OW30462   5.190   4.314   2.854
 6144SOL    HW130463   5.160   4.219   2.861
 6144SOL    HW230464   5.263   4.330   2.920
 6145SOL     OW30465   5.581   4.557   2.239
 6145SOL    HW130466   5.623   4.493   2.303
 6145SOL    HW230467   5.543   4.506   2.161
 6146SOL     OW30468   4.212   5.109   2.036
 6146SOL    HW130469   4.125   5.094   2.083
 6146SOL    HW230470   4.195   5.135   1.941
 6147SOL     OW30471   5.114   4.299   1.940
 6147SOL    HW130472   5.060   4.278   2.021
 6147SOL    HW230473   5.205   4.258   1.949
 6148SOL     OW30474   4.251   3.980   2.190
 6148SOL    HW130475   4.278   3.921   2.115
 6148SOL    HW230476   4.251   4.075   2.159
 6149SOL     OW30477   5.316   5.353   3.487
 6149SOL    HW130478   5.343   5.387   3.397
 6149SOL    HW230479   5.395   5.315   3.533
 6150SOL     OW30480   4.704   4.840   3.581
 6150SOL    HW130481   4.605   4.846   3.591
 6150SOL    HW230482   4.727   4.760   3.525
 6151SOL     OW30483   4.998   4.110   3.124
 6151SOL    HW130484   5.019   4.184   3.188
 6151SOL    HW230485   4.909   4.127   3.081
 6152SOL     OW30486   4.996   5.169   3.004
 6152SOL    HW130487   5.043   5.182   3.091
 6152SOL    HW230488   4.930   5.095   3.013
 6153SOL     OW30489   4.737   3.829   3.632
 6153SOL    HW130490   4.743   3.914   3.580
 6153SOL    HW230491   4.769   3.753   3.575
 6154SOL     OW30492   4.747   4.490   2.828
 6154SOL    HW130493   4.762   4.511   2.924
 6154SOL    HW230494   4.717   4.395   2.819
 6155SOL     OW30495   4.074   4.622   3.666
 6155SOL    HW130496   4.150   4.666   3.714
 6155SOL    HW230497   4.109   4.575   3.584
 6156SOL     OW30498   5.027   4.562   1.904
 6156SOL    HW130499   5.061   4.469   1.919
 6156SOL    HW230500   5.045   4.589   1.809
 6157SOL     OW30501   4.792   5.057   2.711
 6157SOL    HW130502   4.799   4.973   2.656
 6157SOL    HW230503   4.854   5.126   2.675
 6158SOL     OW30504   3.732   5.050   2.062
 6158SOL    HW130505   3.639   5.071   2.031
 6158SOL    HW230506   3.742   4.951   2.075
 6159SOL     OW30507   4.539   4.296   2.187
 6159SOL    HW130508   4.546   4.207   2.141
 6159SOL    HW230509   4.445   4.330   2.179
 6160SOL     OW30510   3.976   5.288   3.606
 6160SOL    HW130511   3.946   5.345   3.682
 6160SOL    HW230512   3.969   5.191   3.632
 6161SOL     OW30513   4.395   4.188   3.131
 6161SOL    HW130514   4.361   4.099   3.101
 6161SOL    HW230515   4.421   4.242   3.051
 6162SOL     OW30516   4.197   4.224   2.053
 6162SOL    HW130517   4.258   4.304   2.057
 6162SOL    HW230518   4.102   4.255   2.060
 6163SOL     OW30519   5.483   5.471   3.016
 6163SOL    HW130520   5.544   5.501   2.943
 6163SOL    HW230521   5.445   5.382   2.994
 6164SOL     OW30522   4.412   5.386   3.578
 6164SOL    HW130523   4.356   5.467   3.587
 6164SOL    HW230524   4.464   5.390   3.492
 6165SOL     OW30525   5.450   3.859   2.385
 6165SOL    HW130526   5.523   3.842   2.318
 6165SOL    HW230527   5.419   3.772   2.423
 6166SOL     OW30528   5.112   5.297   2.339
 6166SOL    HW130529   5.179   5.309   2.265
 6166SOL    HW230530   5.072   5.386   2.362
 6167SOL     OW30531   3.854   5.518   3.713
 6167SOL    HW130532   3.813   5.444   3.766
 6167SOL    HW230533   3.918   5.569   3.771
 6168SOL     OW30534   4.554   4.997   3.284
 6168SOL    HW130535   4.549   5.030   3.379
 6168SOL    HW230536   4.468   5.016   3.238
 6169SOL     OW30537   4.396   5.340   2.016
 6169SOL    HW130538   4.405   5.350   1.917
 6169SOL    HW230539   4.356   5.251   2.037
 6170SOL     OW30540   5.374   5.444   3.256
 6170SOL    HW130541   5.427   5.454   3.172
 6170SOL    HW230542   5.347   5.534   3.290
 6171SOL     OW30543   5.565   3.899   2.825
 6171SOL    HW130544   5.604   3.814   2.789
 6171SOL    HW230545   5.467   3.901   2.806
 6172SOL     OW30546   4.738   3.960   2.833
 6172SOL    HW130547   4.730   3.924   2.740
 6172SOL    HW230548   4.736   3.884   2.898
 6173SOL     OW30549   4.396   3.927   3.351
 6173SOL    HW130550   4.486   3.911   3.311
 6173SOL    HW230551   4.404   3.932   3.450
 6174SOL     OW30552   3.799   4.069   1.895
 6174SOL    HW130553   3.707   4.041   1.866
 6174SOL    HW230554   3.830   4.146   1.839
 6175SOL     OW30555   4.114   5.465   3.422
 6175SOL    HW130556   4.023   5.506   3.420
 6175SOL    HW230557   4.107   5.371   3.454
 6176SOL     OW30558   4.583   4.680   2.723
 6176SOL    HW130559   4.637   4.611   2.771
 6176SOL    HW230560   4.551   4.749   2.789
 6177SOL     OW30561   3.945   5.038   3.706
 6177SOL    HW130562   3.880   4.965   3.685
 6177SOL    HW230563   3.949   5.052   3.804
 6178SOL     OW30564   5.548   3.916   3.089
 6178SOL    HW130565   5.544   3.826   3.133
 6178SOL    HW230566   5.551   3.905   2.990
 6179SOL     OW30567   5.429   5.211   2.966
 6179SOL    HW130568   5.336   5.186   2.939
 6179SOL    HW230569   5.455   5.161   3.048
 6180SOL     OW30570   4.494   5.054   2.163
 6180SOL    HW130571   4.448   4.967   2.180
 6180SOL    HW230572   4.585   5.051   2.204
 6181SOL     OW30573   4.342   5.291   3.146
 6181SOL    HW130574   4.337   5.373   3.203
 6181SOL    HW230575   4.431   5.288   3.101
 6182SOL     OW30576   5.076   3.776   2.030
 6182SOL    HW130577   5.111   3.735   1.946
 6182SOL    HW230578   4.986   3.738   2.050
 6183SOL     OW30579   5.317   3.945   2.744
 6183SOL    HW130580   5.233   3.944   2.798
 6183SOL    HW230581   5.319   4.028   2.688
 6184SOL     OW30582   4.599   5.370   2.199
 6184SOL    HW130583   4.522   5.335   2.145
 6184SOL    HW230584   4.567   5.441   2.261
 6185SOL     OW30585   3.954   4.352   3.837
 6185SOL    HW130586   3.861   4.350   3.874
 6185SOL    HW230587   3.955   4.313   3.745
 6186SOL     OW30588   3.949   3.999   4.720
 6186SOL    HW130589   3.984   3.982   4.812
 6186SOL    HW230590   3.861   3.954   4.708
 6187SOL     OW30591   5.279   5.235   4.427
 6187SOL    HW130592   5.222   5.219   4.508
 6187SOL    HW230593   5.220   5.245   4.347
 6188SOL     OW30594   4.492   4.868   4.747
 6188SOL    HW130595   4.414   4.885   4.807
 6188SOL    HW230596   4.526   4.955   4.711
 6189SOL     OW30597   4.574   4.522   5.547
 6189SOL    HW130598   4.570   4.598   5.612
 6189SOL    HW230599   4.596   4.558   5.456
 6190SOL     OW30600   4.410   4.885   5.527
 6190SOL    HW130601   4.470   4.964   5.541
 6190SOL    HW230602   4.324   4.916   5.486
 6191SOL     OW30603   5.327   4.171   4.461
 6191SOL    HW130604   5.253   4.217   4.411
 6191SOL    HW230605   5.378   4.239   4.514
 6192SOL     OW30606   3.954   5.158   4.262
 6192SOL    HW130607   3.928   5.254   4.262
 6192SOL    HW230608   3.883   5.104   4.307
 6193SOL     OW30609   3.964   4.815   4.610
 6193SOL    HW130610   3.978   4.731   4.662
 6193SOL    HW230611   3.909   4.879   4.665
 6194SOL     OW30612   4.344   5.510   5.163
 6194SOL    HW130613   4.252   5.493   5.198
 6194SOL    HW230614   4.372   5.602   5.189
 6195SOL     OW30615   4.330   4.688   3.847
 6195SOL    HW130616   4.337   4.772   3.793
 6195SOL    HW230617   4.376   4.701   3.935
 6196SOL     OW30618   5.318   3.838   5.204
 6196SOL    HW130619   5.300   3.905   5.132
 6196SOL    HW230620   5.315   3.884   5.293
 6197SOL     OW30621   4.533   3.728   4.226
 6197SOL    HW130622   4.573   3.819   4.217
 6197SOL    HW230623   4.433   3.736   4.232
 6198SOL     OW30624   4.322   4.453   3.994
 6198SOL    HW130625   4.346   4.522   3.926
 6198SOL    HW230626   4.244   4.486   4.048
 6199SOL     OW30627   5.005   4.069   4.668
 6199SOL    HW130628   4.919   4.019   4.655
 6199SOL    HW230629   5.067   4.015   4.724
 6200SOL     OW30630   4.765   4.425   4.153
 6200SOL    HW130631   4.791   4.421   4.249
 6200SOL    HW230632   4.680   4.374   4.139
 6201SOL     OW30633   4.589   4.072   3.919
 6201SOL    HW130634   4.648   4.135   3.870
 6201SOL    HW230635   4.608   3.978   3.890
 6202SOL     OW30636   4.075   5.525   4.577
 6202SOL    HW130637   4.125   5.439   4.583
 6202SOL    HW230638   4.140   5.602   4.574
 6203SOL     OW30639   4.185   4.990   5.451
 6203SOL    HW130640   4.135   4.991   5.365
 6203SOL    HW230641   4.122   4.972   5.527
 6204SOL     OW30642   4.835   5.500   3.961
 6204SOL    HW130643   4.775   5.438   4.011
 6204SOL    HW230644   4.866   5.456   3.876
 6205SOL     OW30645   3.926   4.009   5.222
 6205SOL    HW130646   3.846   4.069   5.209
 6205SOL    HW230647   3.916   3.960   5.308
 6206SOL     OW30648   3.973   5.509   4.965
 6206SOL    HW130649   4.030   5.444   5.015
 6206SOL    HW230650   3.957   5.476   4.872
 6207SOL     OW30651   4.106   4.424   4.204
 6207SOL    HW130652   4.151   4.334   4.201
 6207SOL    HW230653   4.012   4.413   4.237
 6208SOL     OW30654   4.505   3.988   5.473
 6208SOL    HW130655   4.572   3.927   5.516
 6208SOL    HW230656   4.432   4.007   5.538
 6209SOL     OW30657   4.263   3.788   4.236
 6209SOL    HW130658   4.182   3.789   4.294
 6209SOL    HW230659   4.266   3.871   4.181
 6210SOL     OW30660   4.183   4.876   4.465
 6210SOL    HW130661   4.112   4.849   4.530
 6210SOL    HW230662   4.157   4.848   4.372
 6211SOL     OW30663   4.995   5.521   4.315
 6211SOL    HW130664   5.039   5.585   4.251
 6211SOL    HW230665   4.945   5.573   4.385
 6212SOL     OW30666   5.581   4.557   4.101
 6212SOL    HW130667   5.623   4.493   4.165
 6212SOL    HW230668   5.543   4.506   4.023
 6213SOL     OW30669   5.388   5.004   4.381
 6213SOL    HW130670   5.487   5.012   4.395
 6213SOL    HW230671   5.343   5.088   4.412
 6214SOL     OW30672   5.114   4.299   3.802
 6214SOL    HW130673   5.060   4.278   3.883
 6214SOL    HW230674   5.205   4.258   3.811
 6215SOL     OW30675   4.639   3.813   5.126
 6215SOL    HW130676   4.664   3.793   5.031
 6215SOL    HW230677   4.711   3.869   5.168
 6216SOL     OW30678   4.704   4.840   5.443
 6216SOL    HW130679   4.605   4.846   5.453
 6216SOL    HW230680   4.727   4.760   5.387
 6217SOL     OW30681   4.429   4.774   4.092
 6217SOL    HW130682   4.415   4.781   4.191
 6217SOL    HW230683   4.513   4.723   4.074
 6218SOL     OW30684   4.134   4.537   4.975
 6218SOL    HW130685   4.220   4.549   5.025
 6218SOL    HW230686   4.092   4.450   5.002
 6219SOL     OW30687   4.290   4.261   4.589
 6219SOL    HW130688   4.302   4.327   4.515
 6219SOL    HW230689   4.336   4.295   4.672
 6220SOL     OW30690   4.976   5.072   4.112
 6220SOL    HW130691   5.026   5.149   4.152
 6220SOL    HW230692   4.881   5.074   4.144
 6221SOL     OW30693   4.126   4.475   5.322
 6221SOL    HW130694   4.194   4.530   5.275
 6221SOL    HW230695   4.166   4.387   5.349
 6222SOL     OW30696   4.228   3.774   5.464
 6222SOL    HW130697   4.186   3.717   5.394
 6222SOL    HW230698   4.162   3.843   5.496
 6223SOL     OW30699   3.761   5.034   5.006
 6223SOL    HW130700   3.814   4.985   5.074
 6223SOL    HW230701   3.783   5.132   5.011
 6224SOL     OW30702   4.031   3.787   4.342
 6224SOL    HW130703   4.020   3.881   4.375
 6224SOL    HW230704   4.026   3.724   4.419
 6225SOL     OW30705   5.346   4.091   4.098
 6225SOL    HW130706   5.348   4.015   4.162
 6225SOL    HW230707   5.298   4.168   4.138
 6226SOL     OW30708   4.747   4.490   4.690
 6226SOL    HW130709   4.762   4.511   4.786
 6226SOL    HW230710   4.717   4.395   4.681
 6227SOL     OW30711   5.264   3.998   3.849
 6227SOL    HW130712   5.203   3.923   3.872
 6227SOL    HW230713   5.286   4.050   3.932
 6228SOL     OW30714   4.792   5.057   4.573
 6228SOL    HW130715   4.799   4.973   4.518
 6228SOL    HW230716   4.854   5.126   4.537
 6229SOL     OW30717   4.862   4.104   5.402
 6229SOL    HW130718   4.817   4.167   5.466
 6229SOL    HW230719   4.955   4.135   5.385
 6230SOL     OW30720   4.726   4.520   4.962
 6230SOL    HW130721   4.767   4.488   5.048
 6230SOL    HW230722   4.630   4.493   4.959
 6231SOL     OW30723   4.539   4.296   4.049
 6231SOL    HW130724   4.546   4.207   4.003
 6231SOL    HW230725   4.445   4.330   4.041
 6232SOL     OW30726   5.381   4.328   4.930
 6232SOL    HW130727   5.343   4.259   4.992
 6232SOL    HW230728   5.463   4.292   4.886
 6233SOL     OW30729   3.883   4.861   5.190
 6233SOL    HW130730   3.905   4.800   5.266
 6233SOL    HW230731   3.893   4.812   5.104
 6234SOL     OW30732   5.026   4.579   4.033
 6234SOL    HW130733   4.940   4.548   4.075
 6234SOL    HW230734   5.022   4.565   3.934
 6235SOL     OW30735   5.004   4.651   4.396
 6235SOL    HW130736   5.064   4.570   4.398
 6235SOL    HW230737   5.044   4.720   4.336
 6236SOL     OW30738   4.396   5.340   3.878
 6236SOL    HW130739   4.405   5.350   3.779
 6236SOL    HW230740   4.356   5.251   3.899
 6237SOL     OW30741   4.918   5.336   3.755
 6237SOL    HW130742   4.924   5.243   3.792
 6237SOL    HW230743   4.859   5.336   3.675
 6238SOL     OW30744   4.640   4.634   4.015
 6238SOL    HW130745   4.703   4.672   3.947
 6238SOL    HW230746   4.680   4.551   4.054
 6239SOL     OW30747   4.763   4.822   4.420
 6239SOL    HW130748   4.693   4.775   4.474
 6239SOL    HW230749   4.822   4.754   4.377
 6240SOL     OW30750   4.396   3.927   5.213
 6240SOL    HW130751   4.486   3.911   5.173
 6240SOL    HW230752   4.404   3.932   5.312
 6241SOL     OW30753   3.799   4.069   3.757
 6241SOL    HW130754   3.707   4.041   3.728
 6241SOL    HW230755   3.830   4.146   3.701
 6242SOL     OW30756   5.164   4.580   5.122
 6242SOL    HW130757   5.107   4.632   5.059
 6242SOL    HW230758   5.260   4.592   5.098
 6243SOL     OW30759   3.796   3.890   4.042
 6243SOL    HW130760   3.779   3.973   3.988
 6243SOL    HW230761   3.886   3.853   4.020
 6244SOL     OW30762   4.440   4.289   5.432
 6244SOL    HW130763   4.459   4.354   5.506
 6244SOL    HW230764   4.500   4.209   5.441
 6245SOL     OW30765   5.501   4.066   5.366
 6245SOL    HW130766   5.484   4.097   5.272
 6245SOL    HW230767   5.417   4.029   5.404
 6246SOL     OW30768   4.583   5.098   3.740
 6246SOL    HW130769   4.537   5.113   3.828
 6246SOL    HW230770   4.627   5.183   3.710
 6247SOL     OW30771   4.385   5.514   4.677
 6247SOL    HW130772   4.339   5.602   4.664
 6247SOL    HW230773   4.484   5.526   4.670
 6248SOL     OW30774   4.807   4.708   3.811
 6248SOL    HW130775   4.784   4.761   3.729
 6248SOL    HW230776   4.888   4.652   3.792
 6249SOL     OW30777   4.152   4.148   4.244
 6249SOL    HW130778   4.182   4.076   4.182
 6249SOL    HW230779   4.113   4.108   4.327
 6250SOL     OW30780   4.536   5.310   4.411
 6250SOL    HW130781   4.568   5.320   4.317
 6250SOL    HW230782   4.457   5.248   4.413
 6251SOL     OW30783   5.148   3.938   4.836
 6251SOL    HW130784   5.200   3.873   4.891
 6251SOL    HW230785   5.099   4.001   4.897
 6252SOL     OW30786   4.725   3.758   4.878
 6252SOL    HW130787   4.662   3.686   4.847
 6252SOL    HW230788   4.818   3.722   4.878
 6253SOL     OW30789   4.342   5.291   5.008
 6253SOL    HW130790   4.337   5.373   5.065
 6253SOL    HW230791   4.431   5.288   4.963
 6254SOL     OW30792   5.317   3.945   4.606
 6254SOL    HW130793   5.233   3.944   4.660
 6254SOL    HW230794   5.319   4.028   4.550
 6255SOL     OW30795   4.599   5.370   4.061
 6255SOL    HW130796   4.522   5.335   4.007
 6255SOL    HW230797   4.567   5.441   4.123
 6256SOL     OW30798   3.949   3.999   6.582
 6256SOL    HW130799   3.984   3.982   6.674
 6256SOL    HW230800   3.861   3.954   6.570
 6257SOL     OW30801   3.743   4.092   6.233
 6257SOL    HW130802   3.661   4.135   6.272
 6257SOL    HW230803   3.715   4.019   6.170
 6258SOL     OW30804   4.293   4.999   6.751
 6258SOL    HW130805   4.200   4.992   6.714
 6258SOL    HW230806   4.304   5.088   6.795
 6259SOL     OW30807   5.279   5.235   6.289
 6259SOL    HW130808   5.222   5.219   6.370
 6259SOL    HW230809   5.220   5.245   6.209
 6260SOL     OW30810   4.492   4.868   6.609
 6260SOL    HW130811   4.414   4.885   6.669
 6260SOL    HW230812   4.526   4.955   6.573
 6261SOL     OW30813   4.574   4.522   7.409
 6261SOL    HW130814   4.570   4.598   7.474
 6261SOL    HW230815   4.596   4.558   7.318
 6262SOL     OW30816   4.409   4.736   6.251
 6262SOL    HW130817   4.478   4.720   6.321
 6262SOL    HW230818   4.336   4.793   6.289
 6263SOL     OW30819   4.410   4.885   7.389
 6263SOL    HW130820   4.470   4.964   7.403
 6263SOL    HW230821   4.324   4.916   7.348
 6264SOL     OW30822   4.059   5.159   6.647
 6264SOL    HW130823   3.981   5.128   6.594
 6264SOL    HW230824   4.117   5.217   6.590
 6265SOL     OW30825   5.184   5.229   6.925
 6265SOL    HW130826   5.208   5.323   6.951
 6265SOL    HW230827   5.168   5.175   7.007
 6266SOL     OW30828   4.162   4.116   7.085
 6266SOL    HW130829   4.244   4.060   7.094
 6266SOL    HW230830   4.081   4.058   7.089
 6267SOL     OW30831   3.955   5.437   6.069
 6267SOL    HW130832   3.989   5.514   6.123
 6267SOL    HW230833   3.999   5.437   5.979
 6268SOL     OW30834   4.851   5.065   7.276
 6268SOL    HW130835   4.898   5.065   7.364
 6268SOL    HW230836   4.803   4.978   7.265
 6269SOL     OW30837   3.954   5.158   6.124
 6269SOL    HW130838   3.928   5.254   6.124
 6269SOL    HW230839   3.883   5.104   6.169
 6270SOL     OW30840   3.964   4.815   6.472
 6270SOL    HW130841   3.978   4.731   6.524
 6270SOL    HW230842   3.909   4.879   6.527
 6271SOL     OW30843   4.344   5.510   7.025
 6271SOL    HW130844   4.252   5.493   7.060
 6271SOL    HW230845   4.372   5.602   7.051
 6272SOL     OW30846   5.318   3.838   7.066
 6272SOL    HW130847   5.300   3.905   6.994
 6272SOL    HW230848   5.315   3.884   7.155
 6273SOL     OW30849   3.846   4.367   6.149
 6273SOL    HW130850   3.801   4.279   6.166
 6273SOL    HW230851   3.845   4.421   6.233
 6274SOL     OW30852   3.751   5.320   5.703
 6274SOL    HW130853   3.732   5.224   5.724
 6274SOL    HW230854   3.718   5.378   5.778
 6275SOL     OW30855   5.413   4.646   6.198
 6275SOL    HW130856   5.508   4.617   6.206
 6275SOL    HW230857   5.405   4.711   6.123
 6276SOL     OW30858   5.365   4.832   6.018
 6276SOL    HW130859   5.451   4.834   5.966
 6276SOL    HW230860   5.379   4.879   6.106
 6277SOL     OW30861   3.837   4.461   7.183
 6277SOL    HW130862   3.925   4.448   7.228
 6277SOL    HW230863   3.824   4.558   7.161
 6278SOL     OW30864   4.337   5.089   6.312
 6278SOL    HW130865   4.288   5.002   6.321
 6278SOL    HW230866   4.314   5.132   6.225
 6279SOL     OW30867   5.017   4.952   7.009
 6279SOL    HW130868   5.054   4.879   6.951
 6279SOL    HW230869   5.069   4.957   7.094
 6280SOL     OW30870   3.921   4.700   6.850
 6280SOL    HW130871   4.010   4.655   6.836
 6280SOL    HW230872   3.848   4.635   6.831
 6281SOL     OW30873   4.911   5.516   7.202
 6281SOL    HW130874   4.935   5.576   7.126
 6281SOL    HW230875   4.918   5.421   7.172
 6282SOL     OW30876   4.041   3.975   7.387
 6282SOL    HW130877   4.112   4.046   7.393
 6282SOL    HW230878   3.953   4.014   7.415
 6283SOL     OW30879   5.190   5.141   6.539
 6283SOL    HW130880   5.131   5.147   6.619
 6283SOL    HW230881   5.175   5.053   6.493
 6284SOL     OW30882   4.322   4.453   5.856
 6284SOL    HW130883   4.346   4.522   5.788
 6284SOL    HW230884   4.244   4.486   5.910
 6285SOL     OW30885   5.005   4.069   6.530
 6285SOL    HW130886   4.919   4.019   6.517
 6285SOL    HW230887   5.067   4.015   6.586
 6286SOL     OW30888   4.531   4.329   7.051
 6286SOL    HW130889   4.484   4.326   7.140
 6286SOL    HW230890   4.480   4.274   6.985
 6287SOL     OW30891   4.697   4.614   7.158
 6287SOL    HW130892   4.743   4.530   7.129
 6287SOL    HW230893   4.641   4.648   7.083
 6288SOL     OW30894   4.715   4.134   6.828
 6288SOL    HW130895   4.638   4.168   6.882
 6288SOL    HW230896   4.681   4.083   6.749
 6289SOL     OW30897   4.765   4.425   6.015
 6289SOL    HW130898   4.791   4.421   6.111
 6289SOL    HW230899   4.680   4.374   6.001
 6290SOL     OW30900   3.800   4.535   6.375
 6290SOL    HW130901   3.899   4.523   6.384
 6290SOL    HW230902   3.776   4.630   6.396
 6291SOL     OW30903   3.854   5.545   7.157
 6291SOL    HW130904   3.844   5.530   7.256
 6291SOL    HW230905   3.768   5.581   7.121
 6292SOL     OW30906   4.589   4.072   5.781
 6292SOL    HW130907   4.648   4.135   5.732
 6292SOL    HW230908   4.608   3.978   5.752
 6293SOL     OW30909   5.086   4.868   6.131
 6293SOL    HW130910   5.169   4.839   6.083
 6293SOL    HW230911   5.037   4.935   6.075
 6294SOL     OW30912   4.274   3.920   6.471
 6294SOL    HW130913   4.269   3.915   6.571
 6294SOL    HW230914   4.276   4.016   6.442
 6295SOL     OW30915   4.732   5.180   6.063
 6295SOL    HW130916   4.686   5.252   6.011
 6295SOL    HW230917   4.728   5.200   6.161
 6296SOL     OW30918   4.075   5.525   6.439
 6296SOL    HW130919   4.125   5.439   6.445
 6296SOL    HW230920   4.140   5.602   6.436
 6297SOL     OW30921   5.519   4.790   6.459
 6297SOL    HW130922   5.457   4.775   6.383
 6297SOL    HW230923   5.467   4.801   6.544
 6298SOL     OW30924   4.951   5.274   7.092
 6298SOL    HW130925   4.957   5.197   7.156
 6298SOL    HW230926   4.899   5.248   7.012
 6299SOL     OW30927   5.182   4.459   6.314
 6299SOL    HW130928   5.177   4.394   6.389
 6299SOL    HW230929   5.262   4.518   6.327
 6300SOL     OW30930   4.185   4.990   7.313
 6300SOL    HW130931   4.135   4.991   7.227
 6300SOL    HW230932   4.122   4.972   7.389
 6301SOL     OW30933   4.835   5.500   5.823
 6301SOL    HW130934   4.775   5.438   5.873
 6301SOL    HW230935   4.866   5.456   5.738
 6302SOL     OW30936   3.926   4.009   7.084
 6302SOL    HW130937   3.846   4.069   7.071
 6302SOL    HW230938   3.916   3.960   7.170
 6303SOL     OW30939   4.188   5.467   5.909
 6303SOL    HW130940   4.221   5.506   5.995
 6303SOL    HW230941   4.264   5.460   5.844
 6304SOL     OW30942   5.124   3.831   6.012
 6304SOL    HW130943   5.100   3.794   5.922
 6304SOL    HW230944   5.223   3.847   6.016
 6305SOL     OW30945   3.973   5.509   6.827
 6305SOL    HW130946   4.030   5.444   6.877
 6305SOL    HW230947   3.957   5.476   6.734
 6306SOL     OW30948   4.664   5.422   6.490
 6306SOL    HW130949   4.744   5.365   6.511
 6306SOL    HW230950   4.615   5.382   6.413
 6307SOL     OW30951   4.106   4.424   6.066
 6307SOL    HW130952   4.151   4.334   6.063
 6307SOL    HW230953   4.012   4.413   6.099
 6308SOL     OW30954   4.505   3.988   7.335
 6308SOL    HW130955   4.572   3.927   7.378
 6308SOL    HW230956   4.432   4.007   7.400
 6309SOL     OW30957   4.612   5.238   6.781
 6309SOL    HW130958   4.589   5.213   6.687
 6309SOL    HW230959   4.673   5.169   6.820
 6310SOL     OW30960   5.075   4.314   7.019
 6310SOL    HW130961   5.103   4.271   7.104
 6310SOL    HW230962   5.100   4.410   7.020
 6311SOL     OW30963   4.527   5.126   6.510
 6311SOL    HW130964   4.617   5.140   6.468
 6311SOL    HW230965   4.456   5.128   6.439
 6312SOL     OW30966   4.646   4.227   6.485
 6312SOL    HW130967   4.621   4.218   6.389
 6312SOL    HW230968   4.694   4.145   6.516
 6313SOL     OW30969   4.800   4.407   7.050
 6313SOL    HW130970   4.720   4.346   7.053
 6313SOL    HW230971   4.881   4.354   7.026
 6314SOL     OW30972   4.951   5.294   6.379
 6314SOL    HW130973   4.972   5.368   6.314
 6314SOL    HW230974   5.019   5.294   6.452
 6315SOL     OW30975   4.183   4.876   6.327
 6315SOL    HW130976   4.112   4.849   6.392
 6315SOL    HW230977   4.157   4.848   6.234
 6316SOL     OW30978   4.995   5.521   6.177
 6316SOL    HW130979   5.039   5.585   6.113
 6316SOL    HW230980   4.945   5.573   6.247
 6317SOL     OW30981   4.756   4.273   5.602
 6317SOL    HW130982   4.715   4.355   5.563
 6317SOL    HW230983   4.820   4.299   5.675
 6318SOL     OW30984   3.802   4.280   6.972
 6318SOL    HW130985   3.894   4.279   6.931
 6318SOL    HW230986   3.796   4.354   7.039
 6319SOL     OW30987   4.285   3.946   6.733
 6319SOL    HW130988   4.323   3.862   6.770
 6319SOL    HW230989   4.197   3.965   6.777
 6320SOL     OW30990   4.590   4.178   6.228
 6320SOL    HW130991   4.558   4.250   6.166
 6320SOL    HW230992   4.614   4.097   6.175
 6321SOL     OW30993   5.153   4.897   6.453
 6321SOL    HW130994   5.098   4.813   6.446
 6321SOL    HW230995   5.179   4.926   6.361
 6322SOL     OW30996   5.190   4.314   6.578
 6322SOL    HW130997   5.160   4.219   6.585
 6322SOL    HW230998   5.263   4.330   6.644
 6323SOL     OW30999   5.388   5.004   6.243
 6323SOL    HW131000   5.487   5.012   6.257
 6323SOL    HW231001   5.343   5.088   6.274
 6324SOL     OW31002   5.478   4.947   7.174
 6324SOL    HW131003   5.569   4.908   7.161
 6324SOL    HW231004   5.486   5.043   7.198
 6325SOL     OW31005   4.788   5.071   6.926
 6325SOL    HW131006   4.708   5.048   6.981
 6325SOL    HW231007   4.871   5.045   6.975
 6326SOL     OW31008   5.316   5.353   7.211
 6326SOL    HW131009   5.343   5.387   7.121
 6326SOL    HW231010   5.395   5.315   7.257
 6327SOL     OW31011   4.835   4.919   6.686
 6327SOL    HW131012   4.795   4.963   6.767
 6327SOL    HW231013   4.794   4.956   6.603
 6328SOL     OW31014   5.362   4.823   6.665
 6328SOL    HW131015   5.367   4.904   6.724
 6328SOL    HW231016   5.276   4.825   6.614
 6329SOL     OW31017   4.639   3.813   6.988
 6329SOL    HW131018   4.664   3.793   6.893
 6329SOL    HW231019   4.711   3.869   7.030
 6330SOL     OW31020   4.704   4.840   7.305
 6330SOL    HW131021   4.605   4.846   7.315
 6330SOL    HW231022   4.727   4.760   7.249
 6331SOL     OW31023   4.429   4.774   5.954
 6331SOL    HW131024   4.415   4.781   6.053
 6331SOL    HW231025   4.513   4.723   5.936
 6332SOL     OW31026   4.134   4.537   6.837
 6332SOL    HW131027   4.220   4.549   6.887
 6332SOL    HW231028   4.092   4.450   6.864
 6333SOL     OW31029   4.998   4.110   6.848
 6333SOL    HW131030   5.019   4.184   6.912
 6333SOL    HW231031   4.909   4.127   6.805
 6334SOL     OW31032   3.788   5.288   6.917
 6334SOL    HW131033   3.742   5.370   6.883
 6334SOL    HW231034   3.886   5.307   6.926
 6335SOL     OW31035   4.091   4.824   6.087
 6335SOL    HW131036   4.084   4.907   6.031
 6335SOL    HW231037   4.095   4.744   6.027
 6336SOL     OW31038   4.290   4.261   6.451
 6336SOL    HW131039   4.302   4.327   6.377
 6336SOL    HW231040   4.336   4.295   6.534
 6337SOL     OW31041   4.976   5.072   5.974
 6337SOL    HW131042   5.026   5.149   6.014
 6337SOL    HW231043   4.881   5.074   6.006
 6338SOL     OW31044   4.996   5.169   6.728
 6338SOL    HW131045   5.043   5.182   6.815
 6338SOL    HW231046   4.930   5.095   6.737
 6339SOL     OW31047   4.078   5.234   6.915
 6339SOL    HW131048   4.057   5.190   6.828
 6339SOL    HW231049   4.175   5.260   6.918
 6340SOL     OW31050   4.126   4.475   7.184
 6340SOL    HW131051   4.194   4.530   7.137
 6340SOL    HW231052   4.166   4.387   7.211
 6341SOL     OW31053   5.311   4.503   7.256
 6341SOL    HW131054   5.219   4.541   7.251
 6341SOL    HW231055   5.371   4.550   7.191
 6342SOL     OW31056   4.297   4.594   6.615
 6342SOL    HW131057   4.341   4.683   6.606
 6342SOL    HW231058   4.234   4.594   6.692
 6343SOL     OW31059   5.084   4.586   6.631
 6343SOL    HW131060   5.009   4.586   6.565
 6343SOL    HW231061   5.121   4.494   6.640
 6344SOL     OW31062   4.933   4.249   5.861
 6344SOL    HW131063   4.946   4.165   5.915
 6344SOL    HW231064   4.904   4.323   5.921
 6345SOL     OW31065   4.031   3.937   6.817
 6345SOL    HW131066   4.008   3.974   6.907
 6345SOL    HW231067   4.001   3.842   6.811
 6346SOL     OW31068   3.761   5.034   6.868
 6346SOL    HW131069   3.814   4.985   6.936
 6346SOL    HW231070   3.783   5.132   6.873
 6347SOL     OW31071   4.456   4.358   6.650
 6347SOL    HW131072   4.515   4.332   6.574
 6347SOL    HW231073   4.428   4.454   6.639
 6348SOL     OW31074   5.452   4.659   7.440
 6348SOL    HW131075   5.406   4.652   7.351
 6348SOL    HW231076   5.390   4.703   7.506
 6349SOL     OW31077   4.031   3.787   6.204
 6349SOL    HW131078   4.020   3.881   6.237
 6349SOL    HW231079   4.026   3.724   6.281
 6350SOL     OW31080   4.747   4.490   6.552
 6350SOL    HW131081   4.762   4.511   6.648
 6350SOL    HW231082   4.717   4.395   6.543
 6351SOL     OW31083   4.704   5.297   7.286
 6351SOL    HW131084   4.684   5.341   7.198
 6351SOL    HW231085   4.743   5.206   7.270
 6352SOL     OW31086   5.583   5.242   7.191
 6352SOL    HW131087   5.597   5.269   7.096
 6352SOL    HW231088   5.666   5.264   7.244
 6353SOL     OW31089   4.074   4.622   7.390
 6353SOL    HW131090   4.150   4.666   7.438
 6353SOL    HW231091   4.109   4.575   7.308
 6354SOL     OW31092   4.792   5.057   6.435
 6354SOL    HW131093   4.799   4.973   6.380
 6354SOL    HW231094   4.854   5.126   6.399
 6355SOL     OW31095   4.043   4.534   6.535
 6355SOL    HW131096   4.136   4.570   6.540
 6355SOL    HW231097   4.037   4.449   6.587
 6356SOL     OW31098   4.063   4.233   6.592
 6356SOL    HW131099   4.011   4.150   6.575
 6356SOL    HW231100   4.140   4.238   6.528
 6357SOL     OW31101   4.862   4.104   7.264
 6357SOL    HW131102   4.817   4.167   7.328
 6357SOL    HW231103   4.955   4.135   7.247
 6358SOL     OW31104   4.884   3.931   7.063
 6358SOL    HW131105   4.884   3.995   7.140
 6358SOL    HW231106   4.912   3.979   6.980
 6359SOL     OW31107   3.732   5.050   5.786
 6359SOL    HW131108   3.639   5.071   5.755
 6359SOL    HW231109   3.742   4.951   5.799
 6360SOL     OW31110   3.812   5.525   6.513
 6360SOL    HW131111   3.770   5.439   6.486
 6360SOL    HW231112   3.906   5.528   6.479
 6361SOL     OW31113   4.228   5.292   6.496
 6361SOL    HW131114   4.294   5.366   6.505
 6361SOL    HW231115   4.272   5.213   6.454
 6362SOL     OW31116   4.726   4.520   6.824
 6362SOL    HW131117   4.767   4.488   6.910
 6362SOL    HW231118   4.630   4.493   6.821
 6363SOL     OW31119   5.381   4.328   6.792
 6363SOL    HW131120   5.343   4.259   6.854
 6363SOL    HW231121   5.463   4.292   6.748
 6364SOL     OW31122   3.976   5.288   7.330
 6364SOL    HW131123   3.946   5.345   7.406
 6364SOL    HW231124   3.969   5.191   7.356
 6365SOL     OW31125   4.395   4.188   6.855
 6365SOL    HW131126   4.361   4.099   6.825
 6365SOL    HW231127   4.421   4.242   6.775
 6366SOL     OW31128   4.654   5.402   7.051
 6366SOL    HW131129   4.630   5.384   6.956
 6366SOL    HW231130   4.684   5.496   7.061
 6367SOL     OW31131   3.883   4.861   7.052
 6367SOL    HW131132   3.905   4.800   7.128
 6367SOL    HW231133   3.893   4.812   6.966
 6368SOL     OW31134   5.071   4.783   6.820
 6368SOL    HW131135   5.095   4.720   6.746
 6368SOL    HW231136   4.981   4.823   6.802
 6369SOL     OW31137   5.483   5.471   6.740
 6369SOL    HW131138   5.544   5.501   6.667
 6369SOL    HW231139   5.445   5.382   6.718
 6370SOL     OW31140   4.976   5.455   6.714
 6370SOL    HW131141   5.060   5.460   6.660
 6370SOL    HW231142   4.953   5.359   6.732
 6371SOL     OW31143   3.807   4.982   6.608
 6371SOL    HW131144   3.802   4.981   6.708
 6371SOL    HW231145   3.724   4.941   6.570
 6372SOL     OW31146   4.412   5.386   7.302
 6372SOL    HW131147   4.356   5.467   7.311
 6372SOL    HW231148   4.464   5.390   7.216
 6373SOL     OW31149   5.450   3.859   6.109
 6373SOL    HW131150   5.523   3.842   6.042
 6373SOL    HW231151   5.419   3.772   6.147
 6374SOL     OW31152   5.112   5.297   6.063
 6374SOL    HW131153   5.179   5.309   5.989
 6374SOL    HW231154   5.072   5.386   6.086
 6375SOL     OW31155   4.554   4.997   7.008
 6375SOL    HW131156   4.549   5.030   7.103
 6375SOL    HW231157   4.468   5.016   6.962
 6376SOL     OW31158   4.396   5.340   5.740
 6376SOL    HW131159   4.405   5.350   5.641
 6376SOL    HW231160   4.356   5.251   5.761
 6377SOL     OW31161   5.374   5.444   6.980
 6377SOL    HW131162   5.427   5.454   6.896
 6377SOL    HW231163   5.347   5.534   7.014
 6378SOL     OW31164   3.987   4.050   6.306
 6378SOL    HW131165   3.908   4.101   6.272
 6378SOL    HW231166   3.978   4.035   6.404
 6379SOL     OW31167   4.918   5.336   5.617
 6379SOL    HW131168   4.924   5.243   5.654
 6379SOL    HW231169   4.859   5.336   5.537
 6380SOL     OW31170   4.546   4.726   6.958
 6380SOL    HW131171   4.586   4.725   6.866
 6380SOL    HW231172   4.556   4.818   6.998
 6381SOL     OW31173   4.640   4.634   5.877
 6381SOL    HW131174   4.703   4.672   5.809
 6381SOL    HW231175   4.680   4.551   5.916
 6382SOL     OW31176   4.096   5.012   7.076
 6382SOL    HW131177   4.083   5.105   7.042
 6382SOL    HW231178   4.012   4.960   7.063
 6383SOL     OW31179   5.338   5.016   6.875
 6383SOL    HW131180   5.398   5.019   6.955
 6383SOL    HW231181   5.263   5.080   6.888
 6384SOL     OW31182   4.763   4.822   6.282
 6384SOL    HW131183   4.693   4.775   6.336
 6384SOL    HW231184   4.822   4.754   6.239
 6385SOL     OW31185   4.738   3.960   6.557
 6385SOL    HW131186   4.730   3.924   6.464
 6385SOL    HW231187   4.736   3.884   6.622
 6386SOL     OW31188   4.314   5.211   6.077
 6386SOL    HW131189   4.356   5.153   6.007
 6386SOL    HW231190   4.270   5.290   6.033
 6387SOL     OW31191   5.433   4.109   6.967
 6387SOL    HW131192   5.506   4.178   6.971
 6387SOL    HW231193   5.461   4.034   6.908
 6388SOL     OW31194   3.829   4.737   7.312
 6388SOL    HW131195   3.752   4.704   7.366
 6388SOL    HW231196   3.914   4.707   7.354
 6389SOL     OW31197   4.396   3.927   7.075
 6389SOL    HW131198   4.486   3.911   7.035
 6389SOL    HW231199   4.404   3.932   7.174
 6390SOL     OW31200   5.164   4.580   6.984
 6390SOL    HW131201   5.107   4.632   6.921
 6390SOL    HW231202   5.260   4.592   6.960
 6391SOL     OW31203   4.907   5.059   5.705
 6391SOL    HW131204   4.808   5.048   5.707
 6391SOL    HW231205   4.941   5.074   5.798
 6392SOL     OW31206   4.337   4.566   7.017
 6392SOL    HW131207   4.393   4.647   7.000
 6392SOL    HW231208   4.396   4.486   7.020
 6393SOL     OW31209   5.217   5.491   6.545
 6393SOL    HW131210   5.250   5.555   6.476
 6393SOL    HW231211   5.283   5.485   6.620
 6394SOL     OW31212   4.440   4.289   7.294
 6394SOL    HW131213   4.459   4.354   7.368
 6394SOL    HW231214   4.500   4.209   7.303
 6395SOL     OW31215   4.114   5.465   7.146
 6395SOL    HW131216   4.023   5.506   7.144
 6395SOL    HW231217   4.107   5.371   7.178
 6396SOL     OW31218   5.398   4.607   6.840
 6396SOL    HW131219   5.371   4.518   6.803
 6396SOL    HW231220   5.399   4.675   6.767
 6397SOL     OW31221   4.318   4.469   6.238
 6397SOL    HW131222   4.368   4.554   6.219
 6397SOL    HW231223   4.230   4.471   6.190
 6398SOL     OW31224   5.501   4.066   7.228
 6398SOL    HW131225   5.484   4.097   7.134
 6398SOL    HW231226   5.417   4.029   7.266
 6399SOL     OW31227   5.454   4.658   7.103
 6399SOL    HW131228   5.492   4.749   7.118
 6399SOL    HW231229   5.446   4.641   7.004
 6400SOL     OW31230   4.385   5.514   6.539
 6400SOL    HW131231   4.339   5.602   6.526
 6400SOL    HW231232   4.484   5.526   6.532
 6401SOL     OW31233   4.583   4.680   6.447
 6401SOL    HW131234   4.637   4.611   6.495
 6401SOL    HW231235   4.551   4.749   6.513
 6402SOL     OW31236   5.585   5.293   6.437
 6402SOL    HW131237   5.514   5.281   6.367
 6402SOL    HW231238   5.586   5.214   6.497
 6403SOL     OW31239   3.945   5.038   7.430
 6403SOL    HW131240   3.880   4.965   7.409
 6403SOL    HW231241   3.949   5.052   7.528
 6404SOL     OW31242   3.803   4.964   6.239
 6404SOL    HW131243   3.802   4.917   6.327
 6404SOL    HW231244   3.885   4.936   6.188
 6405SOL     OW31245   4.396   5.115   7.210
 6405SOL    HW131246   4.318   5.065   7.248
 6405SOL    HW231247   4.393   5.210   7.241
 6406SOL     OW31248   5.548   3.916   6.813
 6406SOL    HW131249   5.544   3.826   6.857
 6406SOL    HW231250   5.551   3.905   6.714
 6407SOL     OW31251   5.429   5.211   6.690
 6407SOL    HW131252   5.336   5.186   6.663
 6407SOL    HW231253   5.455   5.161   6.772
 6408SOL     OW31254   4.041   4.271   6.866
 6408SOL    HW131255   4.079   4.212   6.938
 6408SOL    HW231256   4.081   4.245   6.778
 6409SOL     OW31257   4.536   5.310   6.273
 6409SOL    HW131258   4.568   5.320   6.179
 6409SOL    HW231259   4.457   5.248   6.275
 6410SOL     OW31260   5.148   3.938   6.698
 6410SOL    HW131261   5.200   3.873   6.753
 6410SOL    HW231262   5.099   4.001   6.759
 6411SOL     OW31263   4.725   3.758   6.740
 6411SOL    HW131264   4.662   3.686   6.709
 6411SOL    HW231265   4.818   3.722   6.740
 6412SOL     OW31266   4.494   5.054   5.887
 6412SOL    HW131267   4.448   4.967   5.904
 6412SOL    HW231268   4.585   5.051   5.928
 6413SOL     OW31269   4.342   5.291   6.870
 6413SOL    HW131270   4.337   5.373   6.927
 6413SOL    HW231271   4.431   5.288   6.825
 6414SOL     OW31272   5.024   4.177   6.277
 6414SOL    HW131273   4.965   4.257   6.281
 6414SOL    HW231274   5.039   4.142   6.370
 6415SOL     OW31275   5.317   3.945   6.468
 6415SOL    HW131276   5.233   3.944   6.522
 6415SOL    HW231277   5.319   4.028   6.412
 6416SOL     OW31278   3.763   4.801   5.886
 6416SOL    HW131279   3.862   4.790   5.877
 6416SOL    HW231280   3.723   4.715   5.918
 6417SOL     OW31281   4.599   5.370   5.923
 6417SOL    HW131282   4.522   5.335   5.869
 6417SOL    HW231283   4.567   5.441   5.985
 6418SOL     OW31284   3.954   6.214   0.113
 6418SOL    HW131285   3.861   6.212   0.150
 6418SOL    HW231286   3.955   6.175   0.021
 6419SOL     OW31287   3.949   5.861   0.996
 6419SOL    HW131288   3.984   5.844   1.088
 6419SOL    HW231289   3.861   5.816   0.984
 6420SOL     OW31290   3.743   5.954   0.647
 6420SOL    HW131291   3.661   5.997   0.686
 6420SOL    HW231292   3.715   5.881   0.584
 6421SOL     OW31293   4.293   6.861   1.165
 6421SOL    HW131294   4.200   6.854   1.128
 6421SOL    HW231295   4.304   6.950   1.209
 6422SOL     OW31296   5.279   7.097   0.703
 6422SOL    HW131297   5.222   7.081   0.784
 6422SOL    HW231298   5.220   7.107   0.623
 6423SOL     OW31299   4.859   6.289   0.717
 6423SOL    HW131300   4.916   6.367   0.692
 6423SOL    HW231301   4.799   6.315   0.793
 6424SOL     OW31302   5.479   6.193   0.231
 6424SOL    HW131303   5.467   6.180   0.132
 6424SOL    HW231304   5.449   6.112   0.280
 6425SOL     OW31305   4.492   6.730   1.023
 6425SOL    HW131306   4.414   6.747   1.083
 6425SOL    HW231307   4.526   6.817   0.987
 6426SOL     OW31308   4.574   6.384   1.823
 6426SOL    HW131309   4.570   6.460   1.888
 6426SOL    HW231310   4.596   6.420   1.732
 6427SOL     OW31311   4.409   6.598   0.665
 6427SOL    HW131312   4.478   6.582   0.735
 6427SOL    HW231313   4.336   6.655   0.703
 6428SOL     OW31314   4.410   6.747   1.803
 6428SOL    HW131315   4.470   6.826   1.817
 6428SOL    HW231316   4.324   6.778   1.762
 6429SOL     OW31317   4.059   7.021   1.061
 6429SOL    HW131318   3.981   6.990   1.008
 6429SOL    HW231319   4.117   7.079   1.004
 6430SOL     OW31320   5.184   7.091   1.339
 6430SOL    HW131321   5.208   7.185   1.365
 6430SOL    HW231322   5.168   7.037   1.421
 6431SOL     OW31323   4.162   5.978   1.499
 6431SOL    HW131324   4.244   5.922   1.508
 6431SOL    HW231325   4.081   5.920   1.503
 6432SOL     OW31326   5.327   6.033   0.737
 6432SOL    HW131327   5.253   6.079   0.687
 6432SOL    HW231328   5.378   6.101   0.790
 6433SOL     OW31329   3.955   7.299   0.483
 6433SOL    HW131330   3.989   7.376   0.537
 6433SOL    HW231331   3.999   7.299   0.393
 6434SOL     OW31332   4.851   6.927   1.690
 6434SOL    HW131333   4.898   6.927   1.778
 6434SOL    HW231334   4.803   6.840   1.679
 6435SOL     OW31335   3.954   7.020   0.538
 6435SOL    HW131336   3.928   7.116   0.538
 6435SOL    HW231337   3.883   6.966   0.583
 6436SOL     OW31338   3.964   6.677   0.886
 6436SOL    HW131339   3.978   6.593   0.938
 6436SOL    HW231340   3.909   6.741   0.941
 6437SOL     OW31341   4.344   7.372   1.439
 6437SOL    HW131342   4.252   7.355   1.474
 6437SOL    HW231343   4.372   7.464   1.465
 6438SOL     OW31344   4.330   6.550   0.123
 6438SOL    HW131345   4.337   6.634   0.069
 6438SOL    HW231346   4.376   6.563   0.211
 6439SOL     OW31347   5.318   5.700   1.480
 6439SOL    HW131348   5.300   5.767   1.408
 6439SOL    HW231349   5.315   5.746   1.569
 6440SOL     OW31350   3.846   6.229   0.563
 6440SOL    HW131351   3.801   6.141   0.580
 6440SOL    HW231352   3.845   6.283   0.647
 6441SOL     OW31353   5.566   7.353   0.359
 6441SOL    HW131354   5.620   7.324   0.439
 6441SOL    HW231355   5.596   7.443   0.330
 6442SOL     OW31356   3.751   7.182   0.117
 6442SOL    HW131357   3.732   7.086   0.138
 6442SOL    HW231358   3.718   7.240   0.192
 6443SOL     OW31359   5.413   6.508   0.612
 6443SOL    HW131360   5.508   6.479   0.620
 6443SOL    HW231361   5.405   6.573   0.537
 6444SOL     OW31362   5.365   6.694   0.432
 6444SOL    HW131363   5.451   6.696   0.380
 6444SOL    HW231364   5.379   6.741   0.520
 6445SOL     OW31365   3.837   6.323   1.597
 6445SOL    HW131366   3.925   6.310   1.642
 6445SOL    HW231367   3.824   6.420   1.575
 6446SOL     OW31368   4.337   6.951   0.726
 6446SOL    HW131369   4.288   6.864   0.735
 6446SOL    HW231370   4.314   6.994   0.639
 6447SOL     OW31371   5.017   6.814   1.423
 6447SOL    HW131372   5.054   6.741   1.365
 6447SOL    HW231373   5.069   6.819   1.508
 6448SOL     OW31374   4.533   5.590   0.502
 6448SOL    HW131375   4.573   5.681   0.493
 6448SOL    HW231376   4.433   5.598   0.508
 6449SOL     OW31377   3.921   6.562   1.264
 6449SOL    HW131378   4.010   6.517   1.250
 6449SOL    HW231379   3.848   6.497   1.245
 6450SOL     OW31380   5.249   6.585   0.190
 6450SOL    HW131381   5.186   6.509   0.203
 6450SOL    HW231382   5.297   6.603   0.276
 6451SOL     OW31383   4.911   7.378   1.616
 6451SOL    HW131384   4.935   7.438   1.540
 6451SOL    HW231385   4.918   7.283   1.586
 6452SOL     OW31386   5.190   7.003   0.953
 6452SOL    HW131387   5.131   7.009   1.033
 6452SOL    HW231388   5.175   6.915   0.907
 6453SOL     OW31389   5.391   7.300   0.572
 6453SOL    HW131390   5.350   7.277   0.484
 6453SOL    HW231391   5.373   7.226   0.637
 6454SOL     OW31392   4.322   6.315   0.270
 6454SOL    HW131393   4.346   6.384   0.202
 6454SOL    HW231394   4.244   6.348   0.324
 6455SOL     OW31395   5.005   5.931   0.944
 6455SOL    HW131396   4.919   5.881   0.931
 6455SOL    HW231397   5.067   5.877   1.000
 6456SOL     OW31398   5.300   7.248   0.307
 6456SOL    HW131399   5.389   7.294   0.310
 6456SOL    HW231400   5.279   7.224   0.212
 6457SOL     OW31401   4.531   6.191   1.465
 6457SOL    HW131402   4.484   6.188   1.554
 6457SOL    HW231403   4.480   6.136   1.399
 6458SOL     OW31404   5.118   6.055   1.674
 6458SOL    HW131405   5.098   6.098   1.762
 6458SOL    HW231406   5.196   5.993   1.683
 6459SOL     OW31407   4.697   6.476   1.572
 6459SOL    HW131408   4.743   6.392   1.543
 6459SOL    HW231409   4.641   6.510   1.497
 6460SOL     OW31410   4.715   5.996   1.242
 6460SOL    HW131411   4.638   6.030   1.296
 6460SOL    HW231412   4.681   5.945   1.163
 6461SOL     OW31413   4.765   6.287   0.429
 6461SOL    HW131414   4.791   6.283   0.525
 6461SOL    HW231415   4.680   6.236   0.415
 6462SOL     OW31416   3.800   6.397   0.789
 6462SOL    HW131417   3.899   6.385   0.798
 6462SOL    HW231418   3.776   6.492   0.810
 6463SOL     OW31419   3.854   7.407   1.571
 6463SOL    HW131420   3.844   7.392   1.670
 6463SOL    HW231421   3.768   7.443   1.535
 6464SOL     OW31422   4.589   5.934   0.195
 6464SOL    HW131423   4.648   5.997   0.146
 6464SOL    HW231424   4.608   5.840   0.166
 6465SOL     OW31425   5.443   6.171   1.831
 6465SOL    HW131426   5.417   6.260   1.795
 6465SOL    HW231427   5.441   6.103   1.758
 6466SOL     OW31428   5.086   6.730   0.545
 6466SOL    HW131429   5.169   6.701   0.497
 6466SOL    HW231430   5.037   6.797   0.489
 6467SOL     OW31431   4.274   5.782   0.885
 6467SOL    HW131432   4.269   5.777   0.985
 6467SOL    HW231433   4.276   5.878   0.856
 6468SOL     OW31434   4.732   7.042   0.477
 6468SOL    HW131435   4.686   7.114   0.425
 6468SOL    HW231436   4.728   7.062   0.575
 6469SOL     OW31437   4.075   7.387   0.853
 6469SOL    HW131438   4.125   7.301   0.859
 6469SOL    HW231439   4.140   7.464   0.850
 6470SOL     OW31440   5.519   6.652   0.873
 6470SOL    HW131441   5.457   6.637   0.797
 6470SOL    HW231442   5.467   6.663   0.958
 6471SOL     OW31443   4.951   7.136   1.506
 6471SOL    HW131444   4.957   7.059   1.570
 6471SOL    HW231445   4.899   7.110   1.426
 6472SOL     OW31446   4.045   6.529   0.242
 6472SOL    HW131447   4.127   6.568   0.200
 6472SOL    HW231448   4.018   6.447   0.193
 6473SOL     OW31449   5.182   6.321   0.728
 6473SOL    HW131450   5.177   6.256   0.803
 6473SOL    HW231451   5.262   6.380   0.741
 6474SOL     OW31452   4.185   6.852   1.727
 6474SOL    HW131453   4.135   6.853   1.641
 6474SOL    HW231454   4.122   6.834   1.803
 6475SOL     OW31455   4.835   7.362   0.237
 6475SOL    HW131456   4.775   7.300   0.287
 6475SOL    HW231457   4.866   7.318   0.152
 6476SOL     OW31458   3.926   5.871   1.498
 6476SOL    HW131459   3.846   5.931   1.485
 6476SOL    HW231460   3.916   5.822   1.584
 6477SOL     OW31461   5.356   6.963   0.081
 6477SOL    HW131462   5.324   7.057   0.071
 6477SOL    HW231463   5.280   6.900   0.069
 6478SOL     OW31464   4.188   7.329   0.323
 6478SOL    HW131465   4.221   7.368   0.409
 6478SOL    HW231466   4.264   7.322   0.258
 6479SOL     OW31467   5.124   5.693   0.426
 6479SOL    HW131468   5.100   5.656   0.336
 6479SOL    HW231469   5.223   5.709   0.430
 6480SOL     OW31470   3.973   7.371   1.241
 6480SOL    HW131471   4.030   7.306   1.291
 6480SOL    HW231472   3.957   7.338   1.148
 6481SOL     OW31473   4.664   7.284   0.904
 6481SOL    HW131474   4.744   7.227   0.925
 6481SOL    HW231475   4.615   7.244   0.827
 6482SOL     OW31476   4.106   6.286   0.480
 6482SOL    HW131477   4.151   6.196   0.477
 6482SOL    HW231478   4.012   6.275   0.513
 6483SOL     OW31479   4.338   5.708   0.117
 6483SOL    HW131480   4.436   5.686   0.124
 6483SOL    HW231481   4.307   5.691   0.024
 6484SOL     OW31482   4.505   5.850   1.749
 6484SOL    HW131483   4.572   5.789   1.792
 6484SOL    HW231484   4.432   5.869   1.814
 6485SOL     OW31485   4.612   7.100   1.195
 6485SOL    HW131486   4.589   7.075   1.101
 6485SOL    HW231487   4.673   7.031   1.234
 6486SOL     OW31488   5.075   6.176   1.433
 6486SOL    HW131489   5.103   6.133   1.518
 6486SOL    HW231490   5.100   6.272   1.434
 6487SOL     OW31491   4.527   6.988   0.924
 6487SOL    HW131492   4.617   7.002   0.882
 6487SOL    HW231493   4.456   6.990   0.853
 6488SOL     OW31494   4.646   6.089   0.899
 6488SOL    HW131495   4.621   6.080   0.803
 6488SOL    HW231496   4.694   6.007   0.930
 6489SOL     OW31497   4.263   5.650   0.512
 6489SOL    HW131498   4.182   5.651   0.570
 6489SOL    HW231499   4.266   5.733   0.457
 6490SOL     OW31500   5.158   6.774   0.041
 6490SOL    HW131501   5.190   6.698   0.098
 6490SOL    HW231502   5.066   6.801   0.071
 6491SOL     OW31503   4.021   5.621   0.171
 6491SOL    HW131504   4.070   5.705   0.150
 6491SOL    HW231505   4.083   5.556   0.216
 6492SOL     OW31506   4.659   5.822   0.480
 6492SOL    HW131507   4.611   5.863   0.402
 6492SOL    HW231508   4.758   5.820   0.461
 6493SOL     OW31509   4.800   6.269   1.464
 6493SOL    HW131510   4.720   6.208   1.467
 6493SOL    HW231511   4.881   6.216   1.440
 6494SOL     OW31512   4.951   7.156   0.793
 6494SOL    HW131513   4.972   7.230   0.728
 6494SOL    HW231514   5.019   7.156   0.866
 6495SOL     OW31515   4.183   6.738   0.741
 6495SOL    HW131516   4.112   6.711   0.806
 6495SOL    HW231517   4.157   6.710   0.648
 6496SOL     OW31518   4.995   7.383   0.591
 6496SOL    HW131519   5.039   7.447   0.527
 6496SOL    HW231520   4.945   7.435   0.661
 6497SOL     OW31521   4.756   6.135   0.016
 6497SOL    HW131522   4.715   6.217  -0.023
 6497SOL    HW231523   4.820   6.161   0.089
 6498SOL     OW31524   3.802   6.142   1.386
 6498SOL    HW131525   3.894   6.141   1.345
 6498SOL    HW231526   3.796   6.216   1.453
 6499SOL     OW31527   4.285   5.808   1.147
 6499SOL    HW131528   4.323   5.724   1.184
 6499SOL    HW231529   4.197   5.827   1.191
 6500SOL     OW31530   4.590   6.040   0.642
 6500SOL    HW131531   4.558   6.112   0.580
 6500SOL    HW231532   4.614   5.959   0.589
 6501SOL     OW31533   4.741   5.625   0.753
 6501SOL    HW131534   4.669   5.630   0.684
 6501SOL    HW231535   4.717   5.556   0.822
 6502SOL     OW31536   5.153   6.759   0.867
 6502SOL    HW131537   5.098   6.675   0.860
 6502SOL    HW231538   5.179   6.788   0.775
 6503SOL     OW31539   5.190   6.176   0.992
 6503SOL    HW131540   5.160   6.081   0.999
 6503SOL    HW231541   5.263   6.192   1.058
 6504SOL     OW31542   5.581   6.419   0.377
 6504SOL    HW131543   5.623   6.355   0.441
 6504SOL    HW231544   5.543   6.368   0.299
 6505SOL     OW31545   4.212   6.971   0.174
 6505SOL    HW131546   4.125   6.956   0.221
 6505SOL    HW231547   4.195   6.997   0.079
 6506SOL     OW31548   5.388   6.866   0.657
 6506SOL    HW131549   5.487   6.874   0.671
 6506SOL    HW231550   5.343   6.950   0.688
 6507SOL     OW31551   5.114   6.161   0.078
 6507SOL    HW131552   5.060   6.140   0.159
 6507SOL    HW231553   5.205   6.120   0.087
 6508SOL     OW31554   4.251   5.842   0.328
 6508SOL    HW131555   4.278   5.783   0.253
 6508SOL    HW231556   4.251   5.937   0.297
 6509SOL     OW31557   5.478   6.809   1.588
 6509SOL    HW131558   5.569   6.770   1.575
 6509SOL    HW231559   5.486   6.905   1.612
 6510SOL     OW31560   4.788   6.933   1.340
 6510SOL    HW131561   4.708   6.910   1.395
 6510SOL    HW231562   4.871   6.907   1.389
 6511SOL     OW31563   5.316   7.215   1.625
 6511SOL    HW131564   5.343   7.249   1.535
 6511SOL    HW231565   5.395   7.177   1.671
 6512SOL     OW31566   4.835   6.781   1.100
 6512SOL    HW131567   4.795   6.825   1.181
 6512SOL    HW231568   4.794   6.818   1.017
 6513SOL     OW31569   5.362   6.685   1.079
 6513SOL    HW131570   5.367   6.766   1.138
 6513SOL    HW231571   5.276   6.687   1.028
 6514SOL     OW31572   4.639   5.675   1.402
 6514SOL    HW131573   4.664   5.655   1.307
 6514SOL    HW231574   4.711   5.731   1.444
 6515SOL     OW31575   4.704   6.702   1.719
 6515SOL    HW131576   4.605   6.708   1.729
 6515SOL    HW231577   4.727   6.622   1.663
 6516SOL     OW31578   4.429   6.636   0.368
 6516SOL    HW131579   4.415   6.643   0.467
 6516SOL    HW231580   4.513   6.585   0.350
 6517SOL     OW31581   4.134   6.399   1.251
 6517SOL    HW131582   4.220   6.411   1.301
 6517SOL    HW231583   4.092   6.312   1.278
 6518SOL     OW31584   4.998   5.972   1.262
 6518SOL    HW131585   5.019   6.046   1.326
 6518SOL    HW231586   4.909   5.989   1.219
 6519SOL     OW31587   3.788   7.150   1.331
 6519SOL    HW131588   3.742   7.232   1.297
 6519SOL    HW231589   3.886   7.169   1.340
 6520SOL     OW31590   4.091   6.686   0.501
 6520SOL    HW131591   4.084   6.769   0.445
 6520SOL    HW231592   4.095   6.606   0.441
 6521SOL     OW31593   4.290   6.123   0.865
 6521SOL    HW131594   4.302   6.189   0.791
 6521SOL    HW231595   4.336   6.157   0.948
 6522SOL     OW31596   4.976   6.934   0.388
 6522SOL    HW131597   5.026   7.011   0.428
 6522SOL    HW231598   4.881   6.936   0.420
 6523SOL     OW31599   4.996   7.031   1.142
 6523SOL    HW131600   5.043   7.044   1.229
 6523SOL    HW231601   4.930   6.957   1.151
 6524SOL     OW31602   5.306   6.225   0.472
 6524SOL    HW131603   5.275   6.286   0.545
 6524SOL    HW231604   5.356   6.277   0.403
 6525SOL     OW31605   4.078   7.096   1.329
 6525SOL    HW131606   4.057   7.052   1.242
 6525SOL    HW231607   4.175   7.122   1.332
 6526SOL     OW31608   4.126   6.337   1.598
 6526SOL    HW131609   4.194   6.392   1.551
 6526SOL    HW231610   4.166   6.249   1.625
 6527SOL     OW31611   5.311   6.365   1.670
 6527SOL    HW131612   5.219   6.403   1.665
 6527SOL    HW231613   5.371   6.412   1.605
 6528SOL     OW31614   4.737   5.691   1.770
 6528SOL    HW131615   4.743   5.776   1.718
 6528SOL    HW231616   4.769   5.615   1.713
 6529SOL     OW31617   4.228   5.636   1.740
 6529SOL    HW131618   4.186   5.579   1.670
 6529SOL    HW231619   4.162   5.705   1.772
 6530SOL     OW31620   4.297   6.456   1.029
 6530SOL    HW131621   4.341   6.545   1.020
 6530SOL    HW231622   4.234   6.456   1.106
 6531SOL     OW31623   5.084   6.448   1.045
 6531SOL    HW131624   5.009   6.448   0.979
 6531SOL    HW231625   5.121   6.356   1.054
 6532SOL     OW31626   4.933   6.111   0.275
 6532SOL    HW131627   4.946   6.027   0.329
 6532SOL    HW231628   4.904   6.185   0.335
 6533SOL     OW31629   4.031   5.799   1.231
 6533SOL    HW131630   4.008   5.836   1.321
 6533SOL    HW231631   4.001   5.704   1.225
 6534SOL     OW31632   3.761   6.896   1.282
 6534SOL    HW131633   3.814   6.847   1.350
 6534SOL    HW231634   3.783   6.994   1.287
 6535SOL     OW31635   4.456   6.220   1.064
 6535SOL    HW131636   4.515   6.194   0.988
 6535SOL    HW231637   4.428   6.316   1.053
 6536SOL     OW31638   5.452   6.521   1.854
 6536SOL    HW131639   5.406   6.514   1.765
 6536SOL    HW231640   5.390   6.565   1.920
 6537SOL     OW31641   4.031   5.649   0.618
 6537SOL    HW131642   4.020   5.743   0.651
 6537SOL    HW231643   4.026   5.586   0.695
 6538SOL     OW31644   5.346   5.953   0.374
 6538SOL    HW131645   5.348   5.877   0.438
 6538SOL    HW231646   5.298   6.030   0.414
 6539SOL     OW31647   4.747   6.352   0.966
 6539SOL    HW131648   4.762   6.373   1.062
 6539SOL    HW231649   4.717   6.257   0.957
 6540SOL     OW31650   4.704   7.159   1.700
 6540SOL    HW131651   4.684   7.203   1.612
 6540SOL    HW231652   4.743   7.068   1.684
 6541SOL     OW31653   4.074   6.484   1.804
 6541SOL    HW131654   4.150   6.528   1.852
 6541SOL    HW231655   4.109   6.437   1.722
 6542SOL     OW31656   5.264   5.860   0.125
 6542SOL    HW131657   5.203   5.785   0.148
 6542SOL    HW231658   5.286   5.912   0.208
 6543SOL     OW31659   5.027   6.424   0.042
 6543SOL    HW131660   5.061   6.331   0.057
 6543SOL    HW231661   5.045   6.451  -0.053
 6544SOL     OW31662   4.792   6.919   0.849
 6544SOL    HW131663   4.799   6.835   0.794
 6544SOL    HW231664   4.854   6.988   0.813
 6545SOL     OW31665   4.043   6.396   0.949
 6545SOL    HW131666   4.136   6.432   0.954
 6545SOL    HW231667   4.037   6.311   1.001
 6546SOL     OW31668   4.063   6.095   1.006
 6546SOL    HW131669   4.011   6.012   0.989
 6546SOL    HW231670   4.140   6.100   0.942
 6547SOL     OW31671   4.862   5.966   1.678
 6547SOL    HW131672   4.817   6.029   1.742
 6547SOL    HW231673   4.955   5.997   1.661
 6548SOL     OW31674   4.884   5.793   1.477
 6548SOL    HW131675   4.884   5.857   1.554
 6548SOL    HW231676   4.912   5.841   1.394
 6549SOL     OW31677   3.732   6.912   0.200
 6549SOL    HW131678   3.639   6.933   0.169
 6549SOL    HW231679   3.742   6.813   0.213
 6550SOL     OW31680   3.812   7.387   0.927
 6550SOL    HW131681   3.770   7.301   0.900
 6550SOL    HW231682   3.906   7.390   0.893
 6551SOL     OW31683   4.228   7.154   0.910
 6551SOL    HW131684   4.294   7.228   0.919
 6551SOL    HW231685   4.272   7.075   0.868
 6552SOL     OW31686   4.726   6.382   1.238
 6552SOL    HW131687   4.767   6.350   1.324
 6552SOL    HW231688   4.630   6.355   1.235
 6553SOL     OW31689   3.764   6.130   1.114
 6553SOL    HW131690   3.849   6.097   1.073
 6553SOL    HW231691   3.777   6.145   1.212
 6554SOL     OW31692   3.913   6.106   1.722
 6554SOL    HW131693   3.972   6.066   1.652
 6554SOL    HW231694   3.855   6.177   1.681
 6555SOL     OW31695   5.093   6.536   1.660
 6555SOL    HW131696   5.132   6.625   1.680
 6555SOL    HW231697   5.103   6.516   1.563
 6556SOL     OW31698   4.539   6.158   0.325
 6556SOL    HW131699   4.546   6.069   0.279
 6556SOL    HW231700   4.445   6.192   0.317
 6557SOL     OW31701   5.381   6.190   1.206
 6557SOL    HW131702   5.343   6.121   1.268
 6557SOL    HW231703   5.463   6.154   1.162
 6558SOL     OW31704   3.976   7.150   1.744
 6558SOL    HW131705   3.946   7.207   1.820
 6558SOL    HW231706   3.969   7.053   1.770
 6559SOL     OW31707   4.395   6.050   1.269
 6559SOL    HW131708   4.361   5.961   1.239
 6559SOL    HW231709   4.421   6.104   1.189
 6560SOL     OW31710   4.654   7.264   1.465
 6560SOL    HW131711   4.630   7.246   1.370
 6560SOL    HW231712   4.684   7.358   1.475
 6561SOL     OW31713   4.197   6.086   0.191
 6561SOL    HW131714   4.258   6.166   0.195
 6561SOL    HW231715   4.102   6.117   0.198
 6562SOL     OW31716   3.883   6.723   1.466
 6562SOL    HW131717   3.905   6.662   1.542
 6562SOL    HW231718   3.893   6.674   1.380
 6563SOL     OW31719   5.071   6.645   1.234
 6563SOL    HW131720   5.095   6.582   1.160
 6563SOL    HW231721   4.981   6.685   1.216
 6564SOL     OW31722   5.026   6.441   0.309
 6564SOL    HW131723   4.940   6.410   0.351
 6564SOL    HW231724   5.022   6.427   0.210
 6565SOL     OW31725   5.483   7.333   1.154
 6565SOL    HW131726   5.544   7.363   1.081
 6565SOL    HW231727   5.445   7.244   1.132
 6566SOL     OW31728   4.976   7.317   1.128
 6566SOL    HW131729   5.060   7.322   1.074
 6566SOL    HW231730   4.953   7.221   1.146
 6567SOL     OW31731   3.807   6.844   1.022
 6567SOL    HW131732   3.802   6.843   1.122
 6567SOL    HW231733   3.724   6.803   0.984
 6568SOL     OW31734   4.412   7.248   1.716
 6568SOL    HW131735   4.356   7.329   1.725
 6568SOL    HW231736   4.464   7.252   1.630
 6569SOL     OW31737   4.627   5.672   0.133
 6569SOL    HW131738   4.678   5.673   0.047
 6569SOL    HW231739   4.683   5.630   0.204
 6570SOL     OW31740   5.450   5.721   0.523
 6570SOL    HW131741   5.523   5.704   0.456
 6570SOL    HW231742   5.419   5.634   0.561
 6571SOL     OW31743   5.112   7.159   0.477
 6571SOL    HW131744   5.179   7.171   0.403
 6571SOL    HW231745   5.072   7.248   0.500
 6572SOL     OW31746   3.854   7.380   1.851
 6572SOL    HW131747   3.813   7.306   1.904
 6572SOL    HW231748   3.918   7.431   1.909
 6573SOL     OW31749   5.004   6.513   0.672
 6573SOL    HW131750   5.064   6.432   0.674
 6573SOL    HW231751   5.044   6.582   0.612
 6574SOL     OW31752   4.554   6.859   1.422
 6574SOL    HW131753   4.549   6.892   1.517
 6574SOL    HW231754   4.468   6.878   1.376
 6575SOL     OW31755   4.396   7.202   0.154
 6575SOL    HW131756   4.405   7.212   0.055
 6575SOL    HW231757   4.356   7.113   0.175
 6576SOL     OW31758   5.374   7.306   1.394
 6576SOL    HW131759   5.427   7.316   1.310
 6576SOL    HW231760   5.347   7.396   1.428
 6577SOL     OW31761   5.565   5.761   0.963
 6577SOL    HW131762   5.604   5.676   0.927
 6577SOL    HW231763   5.467   5.763   0.944
 6578SOL     OW31764   3.987   5.912   0.720
 6578SOL    HW131765   3.908   5.963   0.686
 6578SOL    HW231766   3.978   5.897   0.818
 6579SOL     OW31767   4.918   7.198   0.031
 6579SOL    HW131768   4.924   7.105   0.068
 6579SOL    HW231769   4.859   7.198  -0.049
 6580SOL     OW31770   4.546   6.588   1.372
 6580SOL    HW131771   4.586   6.587   1.280
 6580SOL    HW231772   4.556   6.680   1.412
 6581SOL     OW31773   4.640   6.496   0.291
 6581SOL    HW131774   4.703   6.534   0.223
 6581SOL    HW231775   4.680   6.413   0.330
 6582SOL     OW31776   5.228   7.193   0.044
 6582SOL    HW131777   5.136   7.230   0.051
 6582SOL    HW231778   5.266   7.213  -0.046
 6583SOL     OW31779   4.096   6.874   1.490
 6583SOL    HW131780   4.083   6.967   1.456
 6583SOL    HW231781   4.012   6.822   1.477
 6584SOL     OW31782   5.338   6.878   1.289
 6584SOL    HW131783   5.398   6.881   1.369
 6584SOL    HW231784   5.263   6.942   1.302
 6585SOL     OW31785   4.763   6.684   0.696
 6585SOL    HW131786   4.693   6.637   0.750
 6585SOL    HW231787   4.822   6.616   0.653
 6586SOL     OW31788   4.738   5.822   0.971
 6586SOL    HW131789   4.730   5.786   0.878
 6586SOL    HW231790   4.736   5.746   1.036
 6587SOL     OW31791   4.314   7.073   0.491
 6587SOL    HW131792   4.356   7.015   0.421
 6587SOL    HW231793   4.270   7.152   0.447
 6588SOL     OW31794   5.433   5.971   1.381
 6588SOL    HW131795   5.506   6.040   1.385
 6588SOL    HW231796   5.461   5.896   1.322
 6589SOL     OW31797   3.979   6.934   0.290
 6589SOL    HW131798   3.883   6.935   0.263
 6589SOL    HW231799   3.991   6.987   0.374
 6590SOL     OW31800   3.829   6.599   1.726
 6590SOL    HW131801   3.752   6.566   1.780
 6590SOL    HW231802   3.914   6.569   1.768
 6591SOL     OW31803   4.396   5.789   1.489
 6591SOL    HW131804   4.486   5.773   1.449
 6591SOL    HW231805   4.404   5.794   1.588
 6592SOL     OW31806   3.799   5.931   0.033
 6592SOL    HW131807   3.707   5.903   0.004
 6592SOL    HW231808   3.830   6.008  -0.023
 6593SOL     OW31809   5.164   6.442   1.398
 6593SOL    HW131810   5.107   6.494   1.335
 6593SOL    HW231811   5.260   6.454   1.374
 6594SOL     OW31812   3.796   5.752   0.318
 6594SOL    HW131813   3.779   5.835   0.264
 6594SOL    HW231814   3.886   5.715   0.296
 6595SOL     OW31815   4.907   6.921   0.119
 6595SOL    HW131816   4.808   6.910   0.121
 6595SOL    HW231817   4.941   6.936   0.212
 6596SOL     OW31818   4.337   6.428   1.431
 6596SOL    HW131819   4.393   6.509   1.414
 6596SOL    HW231820   4.396   6.348   1.434
 6597SOL     OW31821   5.217   7.353   0.959
 6597SOL    HW131822   5.250   7.417   0.890
 6597SOL    HW231823   5.283   7.347   1.034
 6598SOL     OW31824   4.440   6.151   1.708
 6598SOL    HW131825   4.459   6.216   1.782
 6598SOL    HW231826   4.500   6.071   1.717
 6599SOL     OW31827   5.174   6.806   1.633
 6599SOL    HW131828   5.165   6.796   1.732
 6599SOL    HW231829   5.270   6.799   1.607
 6600SOL     OW31830   4.114   7.327   1.560
 6600SOL    HW131831   4.023   7.368   1.558
 6600SOL    HW231832   4.107   7.233   1.592
 6601SOL     OW31833   5.398   6.469   1.254
 6601SOL    HW131834   5.371   6.380   1.217
 6601SOL    HW231835   5.399   6.537   1.181
 6602SOL     OW31836   4.949   5.911   0.449
 6602SOL    HW131837   5.014   5.837   0.438
 6602SOL    HW231838   4.969   5.961   0.533
 6603SOL     OW31839   4.318   6.331   0.652
 6603SOL    HW131840   4.368   6.416   0.633
 6603SOL    HW231841   4.230   6.333   0.604
 6604SOL     OW31842   5.454   6.520   1.517
 6604SOL    HW131843   5.492   6.611   1.532
 6604SOL    HW231844   5.446   6.503   1.418
 6605SOL     OW31845   4.583   6.960   0.016
 6605SOL    HW131846   4.537   6.975   0.104
 6605SOL    HW231847   4.627   7.045  -0.014
 6606SOL     OW31848   4.385   7.376   0.953
 6606SOL    HW131849   4.339   7.464   0.940
 6606SOL    HW231850   4.484   7.388   0.946
 6607SOL     OW31851   4.583   6.542   0.861
 6607SOL    HW131852   4.637   6.473   0.909
 6607SOL    HW231853   4.551   6.611   0.927
 6608SOL     OW31854   4.807   6.570   0.087
 6608SOL    HW131855   4.784   6.623   0.005
 6608SOL    HW231856   4.888   6.514   0.068
 6609SOL     OW31857   5.585   7.155   0.851
 6609SOL    HW131858   5.514   7.143   0.781
 6609SOL    HW231859   5.586   7.076   0.911
 6610SOL     OW31860   3.945   6.900   1.844
 6610SOL    HW131861   3.880   6.827   1.823
 6610SOL    HW231862   3.949   6.914   1.942
 6611SOL     OW31863   3.803   6.826   0.653
 6611SOL    HW131864   3.802   6.779   0.741
 6611SOL    HW231865   3.885   6.798   0.602
 6612SOL     OW31866   4.396   6.977   1.624
 6612SOL    HW131867   4.318   6.927   1.662
 6612SOL    HW231868   4.393   7.072   1.655
 6613SOL     OW31869   5.548   5.778   1.227
 6613SOL    HW131870   5.544   5.688   1.271
 6613SOL    HW231871   5.551   5.767   1.128
 6614SOL     OW31872   4.152   6.010   0.520
 6614SOL    HW131873   4.182   5.938   0.458
 6614SOL    HW231874   4.113   5.970   0.603
 6615SOL     OW31875   5.429   7.073   1.104
 6615SOL    HW131876   5.336   7.048   1.077
 6615SOL    HW231877   5.455   7.023   1.186
 6616SOL     OW31878   4.041   6.133   1.280
 6616SOL    HW131879   4.079   6.074   1.352
 6616SOL    HW231880   4.081   6.107   1.192
 6617SOL     OW31881   4.536   7.172   0.687
 6617SOL    HW131882   4.568   7.182   0.593
 6617SOL    HW231883   4.457   7.110   0.689
 6618SOL     OW31884   5.148   5.800   1.112
 6618SOL    HW131885   5.200   5.735   1.167
 6618SOL    HW231886   5.099   5.863   1.173
 6619SOL     OW31887   4.725   5.620   1.154
 6619SOL    HW131888   4.662   5.548   1.123
 6619SOL    HW231889   4.818   5.584   1.154
 6620SOL     OW31890   4.494   6.916   0.301
 6620SOL    HW131891   4.448   6.829   0.318
 6620SOL    HW231892   4.585   6.913   0.342
 6621SOL     OW31893   4.342   7.153   1.284
 6621SOL    HW131894   4.337   7.235   1.341
 6621SOL    HW231895   4.431   7.150   1.239
 6622SOL     OW31896   5.076   5.638   0.168
 6622SOL    HW131897   5.111   5.597   0.084
 6622SOL    HW231898   4.986   5.600   0.188
 6623SOL     OW31899   5.024   6.039   0.691
 6623SOL    HW131900   4.965   6.119   0.695
 6623SOL    HW231901   5.039   6.004   0.784
 6624SOL     OW31902   5.317   5.807   0.882
 6624SOL    HW131903   5.233   5.806   0.936
 6624SOL    HW231904   5.319   5.890   0.826
 6625SOL     OW31905   3.763   6.663   0.300
 6625SOL    HW131906   3.862   6.652   0.291
 6625SOL    HW231907   3.723   6.577   0.332
 6626SOL     OW31908   4.599   7.232   0.337
 6626SOL    HW131909   4.522   7.197   0.283
 6626SOL    HW231910   4.567   7.303   0.399
 6627SOL     OW31911   3.954   6.214   1.975
 6627SOL    HW131912   3.861   6.212   2.012
 6627SOL    HW231913   3.955   6.175   1.883
 6628SOL     OW31914   5.479   6.193   2.093
 6628SOL    HW131915   5.467   6.180   1.994
 6628SOL    HW231916   5.449   6.112   2.142
 6629SOL     OW31917   4.409   6.598   2.527
 6629SOL    HW131918   4.478   6.582   2.597
 6629SOL    HW231919   4.336   6.655   2.565
 6630SOL     OW31920   4.410   6.747   3.665
 6630SOL    HW131921   4.470   6.826   3.679
 6630SOL    HW231922   4.324   6.778   3.624
 6631SOL     OW31923   4.059   7.021   2.923
 6631SOL    HW131924   3.981   6.990   2.870
 6631SOL    HW231925   4.117   7.079   2.866
 6632SOL     OW31926   4.162   5.978   3.361
 6632SOL    HW131927   4.244   5.922   3.370
 6632SOL    HW231928   4.081   5.920   3.365
 6633SOL     OW31929   4.330   6.550   1.985
 6633SOL    HW131930   4.337   6.634   1.931
 6633SOL    HW231931   4.376   6.563   2.073
 6634SOL     OW31932   3.751   7.182   1.979
 6634SOL    HW131933   3.732   7.086   2.000
 6634SOL    HW231934   3.718   7.240   2.054
 6635SOL     OW31935   5.413   6.508   2.474
 6635SOL    HW131936   5.508   6.479   2.482
 6635SOL    HW231937   5.405   6.573   2.399
 6636SOL     OW31938   5.365   6.694   2.294
 6636SOL    HW131939   5.451   6.696   2.242
 6636SOL    HW231940   5.379   6.741   2.382
 6637SOL     OW31941   3.837   6.323   3.459
 6637SOL    HW131942   3.925   6.310   3.504
 6637SOL    HW231943   3.824   6.420   3.437
 6638SOL     OW31944   5.017   6.814   3.285
 6638SOL    HW131945   5.054   6.741   3.227
 6638SOL    HW231946   5.069   6.819   3.370
 6639SOL     OW31947   4.533   5.590   2.364
 6639SOL    HW131948   4.573   5.681   2.355
 6639SOL    HW231949   4.433   5.598   2.370
 6640SOL     OW31950   4.911   7.378   3.478
 6640SOL    HW131951   4.935   7.438   3.402
 6640SOL    HW231952   4.918   7.283   3.448
 6641SOL     OW31953   4.041   5.837   3.663
 6641SOL    HW131954   4.112   5.908   3.669
 6641SOL    HW231955   3.953   5.876   3.691
 6642SOL     OW31956   4.322   6.315   2.132
 6642SOL    HW131957   4.346   6.384   2.064
 6642SOL    HW231958   4.244   6.348   2.186
 6643SOL     OW31959   5.005   5.931   2.806
 6643SOL    HW131960   4.919   5.881   2.793
 6643SOL    HW231961   5.067   5.877   2.862
 6644SOL     OW31962   4.531   6.191   3.327
 6644SOL    HW131963   4.484   6.188   3.416
 6644SOL    HW231964   4.480   6.136   3.261
 6645SOL     OW31965   5.118   6.055   3.536
 6645SOL    HW131966   5.098   6.098   3.624
 6645SOL    HW231967   5.196   5.993   3.545
 6646SOL     OW31968   4.697   6.476   3.434
 6646SOL    HW131969   4.743   6.392   3.405
 6646SOL    HW231970   4.641   6.510   3.359
 6647SOL     OW31971   3.800   6.397   2.651
 6647SOL    HW131972   3.899   6.385   2.660
 6647SOL    HW231973   3.776   6.492   2.672
 6648SOL     OW31974   4.589   5.934   2.057
 6648SOL    HW131975   4.648   5.997   2.008
 6648SOL    HW231976   4.608   5.840   2.028
 6649SOL     OW31977   5.086   6.730   2.407
 6649SOL    HW131978   5.169   6.701   2.359
 6649SOL    HW231979   5.037   6.797   2.351
 6650SOL     OW31980   4.732   7.042   2.339
 6650SOL    HW131981   4.686   7.114   2.287
 6650SOL    HW231982   4.728   7.062   2.437
 6651SOL     OW31983   5.519   6.652   2.735
 6651SOL    HW131984   5.457   6.637   2.659
 6651SOL    HW231985   5.467   6.663   2.820
 6652SOL     OW31986   4.951   7.136   3.368
 6652SOL    HW131987   4.957   7.059   3.432
 6652SOL    HW231988   4.899   7.110   3.288
 6653SOL     OW31989   5.182   6.321   2.590
 6653SOL    HW131990   5.177   6.256   2.665
 6653SOL    HW231991   5.262   6.380   2.603
 6654SOL     OW31992   4.185   6.852   3.589
 6654SOL    HW131993   4.135   6.853   3.503
 6654SOL    HW231994   4.122   6.834   3.665
 6655SOL     OW31995   3.926   5.871   3.360
 6655SOL    HW131996   3.846   5.931   3.347
 6655SOL    HW231997   3.916   5.822   3.446
 6656SOL     OW31998   5.356   6.963   1.943
 6656SOL    HW131999   5.324   7.057   1.933
 6656SOL    HW232000   5.280   6.900   1.931
 6657SOL     OW32001   4.106   6.286   2.342
 6657SOL    HW132002   4.151   6.196   2.339
 6657SOL    HW232003   4.012   6.275   2.375
 6658SOL     OW32004   5.075   6.176   3.295
 6658SOL    HW132005   5.103   6.133   3.380
 6658SOL    HW232006   5.100   6.272   3.296
 6659SOL     OW32007   4.263   5.650   2.374
 6659SOL    HW132008   4.182   5.651   2.432
 6659SOL    HW232009   4.266   5.733   2.319
 6660SOL     OW32010   5.158   6.774   1.903
 6660SOL    HW132011   5.190   6.698   1.960
 6660SOL    HW232012   5.066   6.801   1.933
 6661SOL     OW32013   4.659   5.822   2.342
 6661SOL    HW132014   4.611   5.863   2.264
 6661SOL    HW232015   4.758   5.820   2.323
 6662SOL     OW32016   4.800   6.269   3.326
 6662SOL    HW132017   4.720   6.208   3.329
 6662SOL    HW232018   4.881   6.216   3.302
 6663SOL     OW32019   4.756   6.135   1.878
 6663SOL    HW132020   4.715   6.217   1.839
 6663SOL    HW232021   4.820   6.161   1.951
 6664SOL     OW32022   3.802   6.142   3.248
 6664SOL    HW132023   3.894   6.141   3.207
 6664SOL    HW232024   3.796   6.216   3.315
 6665SOL     OW32025   5.190   6.176   2.854
 6665SOL    HW132026   5.160   6.081   2.861
 6665SOL    HW232027   5.263   6.192   2.920
 6666SOL     OW32028   4.212   6.971   2.036
 6666SOL    HW132029   4.125   6.956   2.083
 6666SOL    HW232030   4.195   6.997   1.941
 6667SOL     OW32031   5.478   6.809   3.450
 6667SOL    HW132032   5.569   6.770   3.437
 6667SOL    HW232033   5.486   6.905   3.474
 6668SOL     OW32034   5.362   6.685   2.941
 6668SOL    HW132035   5.367   6.766   3.000
 6668SOL    HW232036   5.276   6.687   2.890
 6669SOL     OW32037   4.704   6.702   3.581
 6669SOL    HW132038   4.605   6.708   3.591
 6669SOL    HW232039   4.727   6.622   3.525
 6670SOL     OW32040   4.429   6.636   2.230
 6670SOL    HW132041   4.415   6.643   2.329
 6670SOL    HW232042   4.513   6.585   2.212
 6671SOL     OW32043   4.290   6.123   2.727
 6671SOL    HW132044   4.302   6.189   2.653
 6671SOL    HW232045   4.336   6.157   2.810
 6672SOL     OW32046   4.126   6.337   3.460
 6672SOL    HW132047   4.194   6.392   3.413
 6672SOL    HW232048   4.166   6.249   3.487
 6673SOL     OW32049   5.583   7.104   3.467
 6673SOL    HW132050   5.597   7.131   3.372
 6673SOL    HW232051   5.666   7.126   3.520
 6674SOL     OW32052   4.792   6.919   2.711
 6674SOL    HW132053   4.799   6.835   2.656
 6674SOL    HW232054   4.854   6.988   2.675
 6675SOL     OW32055   4.043   6.396   2.811
 6675SOL    HW132056   4.136   6.432   2.816
 6675SOL    HW232057   4.037   6.311   2.863
 6676SOL     OW32058   4.063   6.095   2.868
 6676SOL    HW132059   4.011   6.012   2.851
 6676SOL    HW232060   4.140   6.100   2.804
 6677SOL     OW32061   4.862   5.966   3.540
 6677SOL    HW132062   4.817   6.029   3.604
 6677SOL    HW232063   4.955   5.997   3.523
 6678SOL     OW32064   4.884   5.793   3.339
 6678SOL    HW132065   4.884   5.857   3.416
 6678SOL    HW232066   4.912   5.841   3.256
 6679SOL     OW32067   3.732   6.912   2.062
 6679SOL    HW132068   3.639   6.933   2.031
 6679SOL    HW232069   3.742   6.813   2.075
 6680SOL     OW32070   3.812   7.387   2.789
 6680SOL    HW132071   3.770   7.301   2.762
 6680SOL    HW232072   3.906   7.390   2.755
 6681SOL     OW32073   4.228   7.154   2.772
 6681SOL    HW132074   4.294   7.228   2.781
 6681SOL    HW232075   4.272   7.075   2.730
 6682SOL     OW32076   3.764   6.130   2.976
 6682SOL    HW132077   3.849   6.097   2.935
 6682SOL    HW232078   3.777   6.145   3.074
 6683SOL     OW32079   3.913   6.106   3.584
 6683SOL    HW132080   3.972   6.066   3.514
 6683SOL    HW232081   3.855   6.177   3.543
 6684SOL     OW32082   5.093   6.536   3.522
 6684SOL    HW132083   5.132   6.625   3.542
 6684SOL    HW232084   5.103   6.516   3.425
 6685SOL     OW32085   4.539   6.158   2.187
 6685SOL    HW132086   4.546   6.069   2.141
 6685SOL    HW232087   4.445   6.192   2.179
 6686SOL     OW32088   5.381   6.190   3.068
 6686SOL    HW132089   5.343   6.121   3.130
 6686SOL    HW232090   5.463   6.154   3.024
 6687SOL     OW32091   4.197   6.086   2.053
 6687SOL    HW132092   4.258   6.166   2.057
 6687SOL    HW232093   4.102   6.117   2.060
 6688SOL     OW32094   3.883   6.723   3.328
 6688SOL    HW132095   3.905   6.662   3.404
 6688SOL    HW232096   3.893   6.674   3.242
 6689SOL     OW32097   4.412   7.248   3.578
 6689SOL    HW132098   4.356   7.329   3.587
 6689SOL    HW232099   4.464   7.252   3.492
 6690SOL     OW32100   3.854   7.380   3.713
 6690SOL    HW132101   3.813   7.306   3.766
 6690SOL    HW232102   3.918   7.431   3.771
 6691SOL     OW32103   4.554   6.859   3.284
 6691SOL    HW132104   4.549   6.892   3.379
 6691SOL    HW232105   4.468   6.878   3.238
 6692SOL     OW32106   4.396   7.202   2.016
 6692SOL    HW132107   4.405   7.212   1.917
 6692SOL    HW232108   4.356   7.113   2.037
 6693SOL     OW32109   5.565   5.761   2.825
 6693SOL    HW132110   5.604   5.676   2.789
 6693SOL    HW232111   5.467   5.763   2.806
 6694SOL     OW32112   5.338   6.878   3.151
 6694SOL    HW132113   5.398   6.881   3.231
 6694SOL    HW232114   5.263   6.942   3.164
 6695SOL     OW32115   4.738   5.822   2.833
 6695SOL    HW132116   4.730   5.786   2.740
 6695SOL    HW232117   4.736   5.746   2.898
 6696SOL     OW32118   3.979   6.934   2.152
 6696SOL    HW132119   3.883   6.935   2.125
 6696SOL    HW232120   3.991   6.987   2.236
 6697SOL     OW32121   3.799   5.931   1.895
 6697SOL    HW132122   3.707   5.903   1.866
 6697SOL    HW232123   3.830   6.008   1.839
 6698SOL     OW32124   4.907   6.921   1.981
 6698SOL    HW132125   4.808   6.910   1.983
 6698SOL    HW232126   4.941   6.936   2.074
 6699SOL     OW32127   4.337   6.428   3.293
 6699SOL    HW132128   4.393   6.509   3.276
 6699SOL    HW232129   4.396   6.348   3.296
 6700SOL     OW32130   5.174   6.806   3.495
 6700SOL    HW132131   5.165   6.796   3.594
 6700SOL    HW232132   5.270   6.799   3.469
 6701SOL     OW32133   4.949   5.911   2.311
 6701SOL    HW132134   5.014   5.837   2.300
 6701SOL    HW232135   4.969   5.961   2.395
 6702SOL     OW32136   4.318   6.331   2.514
 6702SOL    HW132137   4.368   6.416   2.495
 6702SOL    HW232138   4.230   6.333   2.466
 6703SOL     OW32139   5.501   5.928   3.504
 6703SOL    HW132140   5.484   5.959   3.410
 6703SOL    HW232141   5.417   5.891   3.542
 6704SOL     OW32142   5.454   6.520   3.379
 6704SOL    HW132143   5.492   6.611   3.394
 6704SOL    HW232144   5.446   6.503   3.280
 6705SOL     OW32145   4.583   6.960   1.878
 6705SOL    HW132146   4.537   6.975   1.966
 6705SOL    HW232147   4.627   7.045   1.848
 6706SOL     OW32148   4.385   7.376   2.815
 6706SOL    HW132149   4.339   7.464   2.802
 6706SOL    HW232150   4.484   7.388   2.808
 6707SOL     OW32151   4.583   6.542   2.723
 6707SOL    HW132152   4.637   6.473   2.771
 6707SOL    HW232153   4.551   6.611   2.789
 6708SOL     OW32154   4.807   6.570   1.949
 6708SOL    HW132155   4.784   6.623   1.867
 6708SOL    HW232156   4.888   6.514   1.930
 6709SOL     OW32157   3.945   6.900   3.706
 6709SOL    HW132158   3.880   6.827   3.685
 6709SOL    HW232159   3.949   6.914   3.804
 6710SOL     OW32160   4.396   6.977   3.486
 6710SOL    HW132161   4.318   6.927   3.524
 6710SOL    HW232162   4.393   7.072   3.517
 6711SOL     OW32163   5.548   5.778   3.089
 6711SOL    HW132164   5.544   5.688   3.133
 6711SOL    HW232165   5.551   5.767   2.990
 6712SOL     OW32166   4.152   6.010   2.382
 6712SOL    HW132167   4.182   5.938   2.320
 6712SOL    HW232168   4.113   5.970   2.465
 6713SOL     OW32169   5.429   7.073   2.966
 6713SOL    HW132170   5.336   7.048   2.939
 6713SOL    HW232171   5.455   7.023   3.048
 6714SOL     OW32172   5.148   5.800   2.974
 6714SOL    HW132173   5.200   5.735   3.029
 6714SOL    HW232174   5.099   5.863   3.035
 6715SOL     OW32175   4.725   5.620   3.016
 6715SOL    HW132176   4.662   5.548   2.985
 6715SOL    HW232177   4.818   5.584   3.016
 6716SOL     OW32178   4.494   6.916   2.163
 6716SOL    HW132179   4.448   6.829   2.180
 6716SOL    HW232180   4.585   6.913   2.204
 6717SOL     OW32181   5.317   5.807   2.744
 6717SOL    HW132182   5.233   5.806   2.798
 6717SOL    HW232183   5.319   5.890   2.688
 6718SOL     OW32184   4.599   7.232   2.199
 6718SOL    HW132185   4.522   7.197   2.145
 6718SOL    HW232186   4.567   7.303   2.261
 6719SOL     OW32187   3.954   6.214   3.837
 6719SOL    HW132188   3.861   6.212   3.874
 6719SOL    HW232189   3.955   6.175   3.745
 6720SOL     OW32190   5.479   6.193   3.955
 6720SOL    HW132191   5.467   6.180   3.856
 6720SOL    HW232192   5.449   6.112   4.004
 6721SOL     OW32193   4.492   6.730   4.747
 6721SOL    HW132194   4.414   6.747   4.807
 6721SOL    HW232195   4.526   6.817   4.711
 6722SOL     OW32196   4.851   6.927   5.414
 6722SOL    HW132197   4.898   6.927   5.502
 6722SOL    HW232198   4.803   6.840   5.403
 6723SOL     OW32199   3.964   6.677   4.610
 6723SOL    HW132200   3.978   6.593   4.662
 6723SOL    HW232201   3.909   6.741   4.665
 6724SOL     OW32202   5.318   5.700   5.204
 6724SOL    HW132203   5.300   5.767   5.132
 6724SOL    HW232204   5.315   5.746   5.293
 6725SOL     OW32205   3.846   6.229   4.287
 6725SOL    HW132206   3.801   6.141   4.304
 6725SOL    HW232207   3.845   6.283   4.371
 6726SOL     OW32208   3.751   7.182   3.841
 6726SOL    HW132209   3.732   7.086   3.862
 6726SOL    HW232210   3.718   7.240   3.916
 6727SOL     OW32211   5.017   6.814   5.147
 6727SOL    HW132212   5.054   6.741   5.089
 6727SOL    HW232213   5.069   6.819   5.232
 6728SOL     OW32214   4.911   7.378   5.340
 6728SOL    HW132215   4.935   7.438   5.264
 6728SOL    HW232216   4.918   7.283   5.310
 6729SOL     OW32217   4.041   5.837   5.525
 6729SOL    HW132218   4.112   5.908   5.531
 6729SOL    HW232219   3.953   5.876   5.553
 6730SOL     OW32220   5.118   6.055   5.398
 6730SOL    HW132221   5.098   6.098   5.486
 6730SOL    HW232222   5.196   5.993   5.407
 6731SOL     OW32223   4.715   5.996   4.966
 6731SOL    HW132224   4.638   6.030   5.020
 6731SOL    HW232225   4.681   5.945   4.887
 6732SOL     OW32226   3.854   7.407   5.295
 6732SOL    HW132227   3.844   7.392   5.394
 6732SOL    HW232228   3.768   7.443   5.259
 6733SOL     OW32229   4.732   7.042   4.201
 6733SOL    HW132230   4.686   7.114   4.149
 6733SOL    HW232231   4.728   7.062   4.299
 6734SOL     OW32232   5.519   6.652   4.597
 6734SOL    HW132233   5.457   6.637   4.521
 6734SOL    HW232234   5.467   6.663   4.682
 6735SOL     OW32235   4.045   6.529   3.966
 6735SOL    HW132236   4.127   6.568   3.924
 6735SOL    HW232237   4.018   6.447   3.917
 6736SOL     OW32238   4.185   6.852   5.451
 6736SOL    HW132239   4.135   6.853   5.365
 6736SOL    HW232240   4.122   6.834   5.527
 6737SOL     OW32241   4.664   7.284   4.628
 6737SOL    HW132242   4.744   7.227   4.649
 6737SOL    HW232243   4.615   7.244   4.551
 6738SOL     OW32244   5.271   5.808   5.453
 6738SOL    HW132245   5.266   5.845   5.545
 6738SOL    HW232246   5.199   5.739   5.441
 6739SOL     OW32247   4.505   5.850   5.473
 6739SOL    HW132248   4.572   5.789   5.516
 6739SOL    HW232249   4.432   5.869   5.538
 6740SOL     OW32250   4.527   6.988   4.648
 6740SOL    HW132251   4.617   7.002   4.606
 6740SOL    HW232252   4.456   6.990   4.577
 6741SOL     OW32253   4.995   7.383   4.315
 6741SOL    HW132254   5.039   7.447   4.251
 6741SOL    HW232255   4.945   7.435   4.385
 6742SOL     OW32256   5.190   6.176   4.716
 6742SOL    HW132257   5.160   6.081   4.723
 6742SOL    HW232258   5.263   6.192   4.782
 6743SOL     OW32259   4.251   5.842   4.052
 6743SOL    HW132260   4.278   5.783   3.977
 6743SOL    HW232261   4.251   5.937   4.021
 6744SOL     OW32262   4.788   6.933   5.064
 6744SOL    HW132263   4.708   6.910   5.119
 6744SOL    HW232264   4.871   6.907   5.113
 6745SOL     OW32265   4.835   6.781   4.824
 6745SOL    HW132266   4.795   6.825   4.905
 6745SOL    HW232267   4.794   6.818   4.741
 6746SOL     OW32268   4.290   6.123   4.589
 6746SOL    HW132269   4.302   6.189   4.515
 6746SOL    HW232270   4.336   6.157   4.672
 6747SOL     OW32271   5.306   6.225   4.196
 6747SOL    HW132272   5.275   6.286   4.269
 6747SOL    HW232273   5.356   6.277   4.127
 6748SOL     OW32274   4.078   7.096   5.053
 6748SOL    HW132275   4.057   7.052   4.966
 6748SOL    HW232276   4.175   7.122   5.056
 6749SOL     OW32277   4.737   5.691   5.494
 6749SOL    HW132278   4.743   5.776   5.442
 6749SOL    HW232279   4.769   5.615   5.437
 6750SOL     OW32280   4.228   5.636   5.464
 6750SOL    HW132281   4.186   5.579   5.394
 6750SOL    HW232282   4.162   5.705   5.496
 6751SOL     OW32283   3.761   6.896   5.006
 6751SOL    HW132284   3.814   6.847   5.074
 6751SOL    HW232285   3.783   6.994   5.011
 6752SOL     OW32286   5.452   6.521   5.578
 6752SOL    HW132287   5.406   6.514   5.489
 6752SOL    HW232288   5.390   6.565   5.644
 6753SOL     OW32289   4.704   7.159   5.424
 6753SOL    HW132290   4.684   7.203   5.336
 6753SOL    HW232291   4.743   7.068   5.408
 6754SOL     OW32292   4.074   6.484   5.528
 6754SOL    HW132293   4.150   6.528   5.576
 6754SOL    HW232294   4.109   6.437   5.446
 6755SOL     OW32295   5.264   5.860   3.849
 6755SOL    HW132296   5.203   5.785   3.872
 6755SOL    HW232297   5.286   5.912   3.932
 6756SOL     OW32298   5.027   6.424   3.766
 6756SOL    HW132299   5.061   6.331   3.781
 6756SOL    HW232300   5.045   6.451   3.671
 6757SOL     OW32301   4.063   6.095   4.730
 6757SOL    HW132302   4.011   6.012   4.713
 6757SOL    HW232303   4.140   6.100   4.666
 6758SOL     OW32304   4.862   5.966   5.402
 6758SOL    HW132305   4.817   6.029   5.466
 6758SOL    HW232306   4.955   5.997   5.385
 6759SOL     OW32307   3.732   6.912   3.924
 6759SOL    HW132308   3.639   6.933   3.893
 6759SOL    HW232309   3.742   6.813   3.937
 6760SOL     OW32310   4.228   7.154   4.634
 6760SOL    HW132311   4.294   7.228   4.643
 6760SOL    HW232312   4.272   7.075   4.592
 6761SOL     OW32313   3.764   6.130   4.838
 6761SOL    HW132314   3.849   6.097   4.797
 6761SOL    HW232315   3.777   6.145   4.936
 6762SOL     OW32316   5.093   6.536   5.384
 6762SOL    HW132317   5.132   6.625   5.404
 6762SOL    HW232318   5.103   6.516   5.287
 6763SOL     OW32319   3.976   7.150   5.468
 6763SOL    HW132320   3.946   7.207   5.544
 6763SOL    HW232321   3.969   7.053   5.494
 6764SOL     OW32322   4.395   6.050   4.993
 6764SOL    HW132323   4.361   5.961   4.963
 6764SOL    HW232324   4.421   6.104   4.913
 6765SOL     OW32325   4.976   7.317   4.852
 6765SOL    HW132326   5.060   7.322   4.798
 6765SOL    HW232327   4.953   7.221   4.870
 6766SOL     OW32328   3.854   7.380   5.575
 6766SOL    HW132329   3.813   7.306   5.628
 6766SOL    HW232330   3.918   7.431   5.633
 6767SOL     OW32331   3.987   5.912   4.444
 6767SOL    HW132332   3.908   5.963   4.410
 6767SOL    HW232333   3.978   5.897   4.542
 6768SOL     OW32334   4.918   7.198   3.755
 6768SOL    HW132335   4.924   7.105   3.792
 6768SOL    HW232336   4.859   7.198   3.675
 6769SOL     OW32337   4.546   6.588   5.096
 6769SOL    HW132338   4.586   6.587   5.004
 6769SOL    HW232339   4.556   6.680   5.136
 6770SOL     OW32340   4.640   6.496   4.015
 6770SOL    HW132341   4.703   6.534   3.947
 6770SOL    HW232342   4.680   6.413   4.054
 6771SOL     OW32343   4.096   6.874   5.214
 6771SOL    HW132344   4.083   6.967   5.180
 6771SOL    HW232345   4.012   6.822   5.201
 6772SOL     OW32346   3.796   5.752   4.042
 6772SOL    HW132347   3.779   5.835   3.988
 6772SOL    HW232348   3.886   5.715   4.020
 6773SOL     OW32349   4.907   6.921   3.843
 6773SOL    HW132350   4.808   6.910   3.845
 6773SOL    HW232351   4.941   6.936   3.936
 6774SOL     OW32352   5.217   7.353   4.683
 6774SOL    HW132353   5.250   7.417   4.614
 6774SOL    HW232354   5.283   7.347   4.758
 6775SOL     OW32355   5.174   6.806   5.357
 6775SOL    HW132356   5.165   6.796   5.456
 6775SOL    HW232357   5.270   6.799   5.331
 6776SOL     OW32358   5.398   6.469   4.978
 6776SOL    HW132359   5.371   6.380   4.941
 6776SOL    HW232360   5.399   6.537   4.905
 6777SOL     OW32361   4.318   6.331   4.376
 6777SOL    HW132362   4.368   6.416   4.357
 6777SOL    HW232363   4.230   6.333   4.328
 6778SOL     OW32364   4.583   6.542   4.585
 6778SOL    HW132365   4.637   6.473   4.633
 6778SOL    HW232366   4.551   6.611   4.651
 6779SOL     OW32367   3.945   6.900   5.568
 6779SOL    HW132368   3.880   6.827   5.547
 6779SOL    HW232369   3.949   6.914   5.666
 6780SOL     OW32370   3.803   6.826   4.377
 6780SOL    HW132371   3.802   6.779   4.465
 6780SOL    HW232372   3.885   6.798   4.326
 6781SOL     OW32373   4.396   6.977   5.348
 6781SOL    HW132374   4.318   6.927   5.386
 6781SOL    HW232375   4.393   7.072   5.379
 6782SOL     OW32376   4.494   6.916   4.025
 6782SOL    HW132377   4.448   6.829   4.042
 6782SOL    HW232378   4.585   6.913   4.066
 6783SOL     OW32379   5.024   6.039   4.415
 6783SOL    HW132380   4.965   6.119   4.419
 6783SOL    HW232381   5.039   6.004   4.508
 6784SOL     OW32382   3.763   6.663   4.024
 6784SOL    HW132383   3.862   6.652   4.015
 6784SOL    HW232384   3.723   6.577   4.056
 6785SOL     OW32385   3.949   5.861   6.582
 6785SOL    HW132386   3.984   5.844   6.674
 6785SOL    HW232387   3.861   5.816   6.570
 6786SOL     OW32388   3.743   5.954   6.233
 6786SOL    HW132389   3.661   5.997   6.272
 6786SOL    HW232390   3.715   5.881   6.170
 6787SOL     OW32391   4.293   6.861   6.751
 6787SOL    HW132392   4.200   6.854   6.714
 6787SOL    HW232393   4.304   6.950   6.795
 6788SOL     OW32394   5.279   7.097   6.289
 6788SOL    HW132395   5.222   7.081   6.370
 6788SOL    HW232396   5.220   7.107   6.209
 6789SOL     OW32397   4.859   6.289   6.303
 6789SOL    HW132398   4.916   6.367   6.278
 6789SOL    HW232399   4.799   6.315   6.379
 6790SOL     OW32400   4.492   6.730   6.609
 6790SOL    HW132401   4.414   6.747   6.669
 6790SOL    HW232402   4.526   6.817   6.573
 6791SOL     OW32403   4.574   6.384   7.409
 6791SOL    HW132404   4.570   6.460   7.474
 6791SOL    HW232405   4.596   6.420   7.318
 6792SOL     OW32406   4.409   6.598   6.251
 6792SOL    HW132407   4.478   6.582   6.321
 6792SOL    HW232408   4.336   6.655   6.289
 6793SOL     OW32409   4.410   6.747   7.389
 6793SOL    HW132410   4.470   6.826   7.403
 6793SOL    HW232411   4.324   6.778   7.348
 6794SOL     OW32412   4.059   7.021   6.647
 6794SOL    HW132413   3.981   6.990   6.594
 6794SOL    HW232414   4.117   7.079   6.590
 6795SOL     OW32415   5.184   7.091   6.925
 6795SOL    HW132416   5.208   7.185   6.951
 6795SOL    HW232417   5.168   7.037   7.007
 6796SOL     OW32418   4.162   5.978   7.085
 6796SOL    HW132419   4.244   5.922   7.094
 6796SOL    HW232420   4.081   5.920   7.089
 6797SOL     OW32421   5.327   6.033   6.323
 6797SOL    HW132422   5.253   6.079   6.273
 6797SOL    HW232423   5.378   6.101   6.376
 6798SOL     OW32424   3.955   7.299   6.069
 6798SOL    HW132425   3.989   7.376   6.123
 6798SOL    HW232426   3.999   7.299   5.979
 6799SOL     OW32427   4.851   6.927   7.276
 6799SOL    HW132428   4.898   6.927   7.364
 6799SOL    HW232429   4.803   6.840   7.265
 6800SOL     OW32430   3.954   7.020   6.124
 6800SOL    HW132431   3.928   7.116   6.124
 6800SOL    HW232432   3.883   6.966   6.169
 6801SOL     OW32433   3.964   6.677   6.472
 6801SOL    HW132434   3.978   6.593   6.524
 6801SOL    HW232435   3.909   6.741   6.527
 6802SOL     OW32436   4.344   7.372   7.025
 6802SOL    HW132437   4.252   7.355   7.060
 6802SOL    HW232438   4.372   7.464   7.051
 6803SOL     OW32439   4.330   6.550   5.709
 6803SOL    HW132440   4.337   6.634   5.655
 6803SOL    HW232441   4.376   6.563   5.797
 6804SOL     OW32442   5.318   5.700   7.066
 6804SOL    HW132443   5.300   5.767   6.994
 6804SOL    HW232444   5.315   5.746   7.155
 6805SOL     OW32445   3.846   6.229   6.149
 6805SOL    HW132446   3.801   6.141   6.166
 6805SOL    HW232447   3.845   6.283   6.233
 6806SOL     OW32448   5.566   7.353   5.945
 6806SOL    HW132449   5.620   7.324   6.025
 6806SOL    HW232450   5.596   7.443   5.916
 6807SOL     OW32451   3.751   7.182   5.703
 6807SOL    HW132452   3.732   7.086   5.724
 6807SOL    HW232453   3.718   7.240   5.778
 6808SOL     OW32454   5.413   6.508   6.198
 6808SOL    HW132455   5.508   6.479   6.206
 6808SOL    HW232456   5.405   6.573   6.123
 6809SOL     OW32457   5.365   6.694   6.018
 6809SOL    HW132458   5.451   6.696   5.966
 6809SOL    HW232459   5.379   6.741   6.106
 6810SOL     OW32460   3.837   6.323   7.183
 6810SOL    HW132461   3.925   6.310   7.228
 6810SOL    HW232462   3.824   6.420   7.161
 6811SOL     OW32463   4.337   6.951   6.312
 6811SOL    HW132464   4.288   6.864   6.321
 6811SOL    HW232465   4.314   6.994   6.225
 6812SOL     OW32466   5.017   6.814   7.009
 6812SOL    HW132467   5.054   6.741   6.951
 6812SOL    HW232468   5.069   6.819   7.094
 6813SOL     OW32469   4.533   5.590   6.088
 6813SOL    HW132470   4.573   5.681   6.079
 6813SOL    HW232471   4.433   5.598   6.094
 6814SOL     OW32472   3.921   6.562   6.850
 6814SOL    HW132473   4.010   6.517   6.836
 6814SOL    HW232474   3.848   6.497   6.831
 6815SOL     OW32475   5.249   6.585   5.776
 6815SOL    HW132476   5.186   6.509   5.789
 6815SOL    HW232477   5.297   6.603   5.862
 6816SOL     OW32478   4.911   7.378   7.202
 6816SOL    HW132479   4.935   7.438   7.126
 6816SOL    HW232480   4.918   7.283   7.172
 6817SOL     OW32481   4.041   5.837   7.387
 6817SOL    HW132482   4.112   5.908   7.393
 6817SOL    HW232483   3.953   5.876   7.415
 6818SOL     OW32484   5.190   7.003   6.539
 6818SOL    HW132485   5.131   7.009   6.619
 6818SOL    HW232486   5.175   6.915   6.493
 6819SOL     OW32487   5.391   7.300   6.158
 6819SOL    HW132488   5.350   7.277   6.070
 6819SOL    HW232489   5.373   7.226   6.223
 6820SOL     OW32490   4.322   6.315   5.856
 6820SOL    HW132491   4.346   6.384   5.788
 6820SOL    HW232492   4.244   6.348   5.910
 6821SOL     OW32493   5.005   5.931   6.530
 6821SOL    HW132494   4.919   5.881   6.517
 6821SOL    HW232495   5.067   5.877   6.586
 6822SOL     OW32496   4.531   6.191   7.051
 6822SOL    HW132497   4.484   6.188   7.140
 6822SOL    HW232498   4.480   6.136   6.985
 6823SOL     OW32499   4.697   6.476   7.158
 6823SOL    HW132500   4.743   6.392   7.129
 6823SOL    HW232501   4.641   6.510   7.083
 6824SOL     OW32502   4.715   5.996   6.828
 6824SOL    HW132503   4.638   6.030   6.882
 6824SOL    HW232504   4.681   5.945   6.749
 6825SOL     OW32505   4.765   6.287   6.015
 6825SOL    HW132506   4.791   6.283   6.111
 6825SOL    HW232507   4.680   6.236   6.001
 6826SOL     OW32508   3.800   6.397   6.375
 6826SOL    HW132509   3.899   6.385   6.384
 6826SOL    HW232510   3.776   6.492   6.396
 6827SOL     OW32511   3.854   7.407   7.157
 6827SOL    HW132512   3.844   7.392   7.256
 6827SOL    HW232513   3.768   7.443   7.121
 6828SOL     OW32514   5.086   6.730   6.131
 6828SOL    HW132515   5.169   6.701   6.083
 6828SOL    HW232516   5.037   6.797   6.075
 6829SOL     OW32517   4.274   5.782   6.471
 6829SOL    HW132518   4.269   5.777   6.571
 6829SOL    HW232519   4.276   5.878   6.442
 6830SOL     OW32520   4.732   7.042   6.063
 6830SOL    HW132521   4.686   7.114   6.011
 6830SOL    HW232522   4.728   7.062   6.161
 6831SOL     OW32523   4.075   7.387   6.439
 6831SOL    HW132524   4.125   7.301   6.445
 6831SOL    HW232525   4.140   7.464   6.436
 6832SOL     OW32526   5.519   6.652   6.459
 6832SOL    HW132527   5.457   6.637   6.383
 6832SOL    HW232528   5.467   6.663   6.544
 6833SOL     OW32529   4.951   7.136   7.092
 6833SOL    HW132530   4.957   7.059   7.156
 6833SOL    HW232531   4.899   7.110   7.012
 6834SOL     OW32532   4.045   6.529   5.828
 6834SOL    HW132533   4.127   6.568   5.786
 6834SOL    HW232534   4.018   6.447   5.779
 6835SOL     OW32535   5.182   6.321   6.314
 6835SOL    HW132536   5.177   6.256   6.389
 6835SOL    HW232537   5.262   6.380   6.327
 6836SOL     OW32538   4.185   6.852   7.313
 6836SOL    HW132539   4.135   6.853   7.227
 6836SOL    HW232540   4.122   6.834   7.389
 6837SOL     OW32541   4.835   7.362   5.823
 6837SOL    HW132542   4.775   7.300   5.873
 6837SOL    HW232543   4.866   7.318   5.738
 6838SOL     OW32544   3.926   5.871   7.084
 6838SOL    HW132545   3.846   5.931   7.071
 6838SOL    HW232546   3.916   5.822   7.170
 6839SOL     OW32547   4.188   7.329   5.909
 6839SOL    HW132548   4.221   7.368   5.995
 6839SOL    HW232549   4.264   7.322   5.844
 6840SOL     OW32550   3.973   7.371   6.827
 6840SOL    HW132551   4.030   7.306   6.877
 6840SOL    HW232552   3.957   7.338   6.734
 6841SOL     OW32553   4.664   7.284   6.490
 6841SOL    HW132554   4.744   7.227   6.511
 6841SOL    HW232555   4.615   7.244   6.413
 6842SOL     OW32556   4.106   6.286   6.066
 6842SOL    HW132557   4.151   6.196   6.063
 6842SOL    HW232558   4.012   6.275   6.099
 6843SOL     OW32559   4.338   5.708   5.703
 6843SOL    HW132560   4.436   5.686   5.710
 6843SOL    HW232561   4.307   5.691   5.610
 6844SOL     OW32562   4.505   5.850   7.335
 6844SOL    HW132563   4.572   5.789   7.378
 6844SOL    HW232564   4.432   5.869   7.400
 6845SOL     OW32565   4.612   7.100   6.781
 6845SOL    HW132566   4.589   7.075   6.687
 6845SOL    HW232567   4.673   7.031   6.820
 6846SOL     OW32568   5.075   6.176   7.019
 6846SOL    HW132569   5.103   6.133   7.104
 6846SOL    HW232570   5.100   6.272   7.020
 6847SOL     OW32571   4.527   6.988   6.510
 6847SOL    HW132572   4.617   7.002   6.468
 6847SOL    HW232573   4.456   6.990   6.439
 6848SOL     OW32574   4.646   6.089   6.485
 6848SOL    HW132575   4.621   6.080   6.389
 6848SOL    HW232576   4.694   6.007   6.516
 6849SOL     OW32577   4.263   5.650   6.098
 6849SOL    HW132578   4.182   5.651   6.156
 6849SOL    HW232579   4.266   5.733   6.043
 6850SOL     OW32580   5.158   6.774   5.627
 6850SOL    HW132581   5.190   6.698   5.684
 6850SOL    HW232582   5.066   6.801   5.657
 6851SOL     OW32583   4.021   5.621   5.757
 6851SOL    HW132584   4.070   5.705   5.736
 6851SOL    HW232585   4.083   5.556   5.802
 6852SOL     OW32586   4.800   6.269   7.050
 6852SOL    HW132587   4.720   6.208   7.053
 6852SOL    HW232588   4.881   6.216   7.026
 6853SOL     OW32589   4.951   7.156   6.379
 6853SOL    HW132590   4.972   7.230   6.314
 6853SOL    HW232591   5.019   7.156   6.452
 6854SOL     OW32592   4.183   6.738   6.327
 6854SOL    HW132593   4.112   6.711   6.392
 6854SOL    HW232594   4.157   6.710   6.234
 6855SOL     OW32595   4.995   7.383   6.177
 6855SOL    HW132596   5.039   7.447   6.113
 6855SOL    HW232597   4.945   7.435   6.247
 6856SOL     OW32598   3.802   6.142   6.972
 6856SOL    HW132599   3.894   6.141   6.931
 6856SOL    HW232600   3.796   6.216   7.039
 6857SOL     OW32601   4.285   5.808   6.733
 6857SOL    HW132602   4.323   5.724   6.770
 6857SOL    HW232603   4.197   5.827   6.777
 6858SOL     OW32604   4.590   6.040   6.228
 6858SOL    HW132605   4.558   6.112   6.166
 6858SOL    HW232606   4.614   5.959   6.175
 6859SOL     OW32607   4.741   5.625   6.339
 6859SOL    HW132608   4.669   5.630   6.270
 6859SOL    HW232609   4.717   5.556   6.408
 6860SOL     OW32610   5.153   6.759   6.453
 6860SOL    HW132611   5.098   6.675   6.446
 6860SOL    HW232612   5.179   6.788   6.361
 6861SOL     OW32613   5.190   6.176   6.578
 6861SOL    HW132614   5.160   6.081   6.585
 6861SOL    HW232615   5.263   6.192   6.644
 6862SOL     OW32616   5.581   6.419   5.963
 6862SOL    HW132617   5.623   6.355   6.027
 6862SOL    HW232618   5.543   6.368   5.885
 6863SOL     OW32619   4.212   6.971   5.760
 6863SOL    HW132620   4.125   6.956   5.807
 6863SOL    HW232621   4.195   6.997   5.665
 6864SOL     OW32622   5.388   6.866   6.243
 6864SOL    HW132623   5.487   6.874   6.257
 6864SOL    HW232624   5.343   6.950   6.274
 6865SOL     OW32625   5.114   6.161   5.664
 6865SOL    HW132626   5.060   6.140   5.745
 6865SOL    HW232627   5.205   6.120   5.673
 6866SOL     OW32628   5.478   6.809   7.174
 6866SOL    HW132629   5.569   6.770   7.161
 6866SOL    HW232630   5.486   6.905   7.198
 6867SOL     OW32631   4.788   6.933   6.926
 6867SOL    HW132632   4.708   6.910   6.981
 6867SOL    HW232633   4.871   6.907   6.975
 6868SOL     OW32634   5.316   7.215   7.211
 6868SOL    HW132635   5.343   7.249   7.121
 6868SOL    HW232636   5.395   7.177   7.257
 6869SOL     OW32637   4.835   6.781   6.686
 6869SOL    HW132638   4.795   6.825   6.767
 6869SOL    HW232639   4.794   6.818   6.603
 6870SOL     OW32640   5.362   6.685   6.665
 6870SOL    HW132641   5.367   6.766   6.724
 6870SOL    HW232642   5.276   6.687   6.614
 6871SOL     OW32643   4.639   5.675   6.988
 6871SOL    HW132644   4.664   5.655   6.893
 6871SOL    HW232645   4.711   5.731   7.030
 6872SOL     OW32646   4.704   6.702   7.305
 6872SOL    HW132647   4.605   6.708   7.315
 6872SOL    HW232648   4.727   6.622   7.249
 6873SOL     OW32649   4.429   6.636   5.954
 6873SOL    HW132650   4.415   6.643   6.053
 6873SOL    HW232651   4.513   6.585   5.936
 6874SOL     OW32652   4.134   6.399   6.837
 6874SOL    HW132653   4.220   6.411   6.887
 6874SOL    HW232654   4.092   6.312   6.864
 6875SOL     OW32655   4.998   5.972   6.848
 6875SOL    HW132656   5.019   6.046   6.912
 6875SOL    HW232657   4.909   5.989   6.805
 6876SOL     OW32658   3.788   7.150   6.917
 6876SOL    HW132659   3.742   7.232   6.883
 6876SOL    HW232660   3.886   7.169   6.926
 6877SOL     OW32661   4.091   6.686   6.087
 6877SOL    HW132662   4.084   6.769   6.031
 6877SOL    HW232663   4.095   6.606   6.027
 6878SOL     OW32664   4.290   6.123   6.451
 6878SOL    HW132665   4.302   6.189   6.377
 6878SOL    HW232666   4.336   6.157   6.534
 6879SOL     OW32667   4.976   6.934   5.974
 6879SOL    HW132668   5.026   7.011   6.014
 6879SOL    HW232669   4.881   6.936   6.006
 6880SOL     OW32670   4.996   7.031   6.728
 6880SOL    HW132671   5.043   7.044   6.815
 6880SOL    HW232672   4.930   6.957   6.737
 6881SOL     OW32673   5.306   6.225   6.058
 6881SOL    HW132674   5.275   6.286   6.131
 6881SOL    HW232675   5.356   6.277   5.989
 6882SOL     OW32676   4.078   7.096   6.915
 6882SOL    HW132677   4.057   7.052   6.828
 6882SOL    HW232678   4.175   7.122   6.918
 6883SOL     OW32679   4.126   6.337   7.184
 6883SOL    HW132680   4.194   6.392   7.137
 6883SOL    HW232681   4.166   6.249   7.211
 6884SOL     OW32682   5.311   6.365   7.256
 6884SOL    HW132683   5.219   6.403   7.251
 6884SOL    HW232684   5.371   6.412   7.191
 6885SOL     OW32685   4.297   6.456   6.615
 6885SOL    HW132686   4.341   6.545   6.606
 6885SOL    HW232687   4.234   6.456   6.692
 6886SOL     OW32688   5.084   6.448   6.631
 6886SOL    HW132689   5.009   6.448   6.565
 6886SOL    HW232690   5.121   6.356   6.640
 6887SOL     OW32691   4.933   6.111   5.861
 6887SOL    HW132692   4.946   6.027   5.915
 6887SOL    HW232693   4.904   6.185   5.921
 6888SOL     OW32694   4.031   5.799   6.817
 6888SOL    HW132695   4.008   5.836   6.907
 6888SOL    HW232696   4.001   5.704   6.811
 6889SOL     OW32697   3.761   6.896   6.868
 6889SOL    HW132698   3.814   6.847   6.936
 6889SOL    HW232699   3.783   6.994   6.873
 6890SOL     OW32700   4.456   6.220   6.650
 6890SOL    HW132701   4.515   6.194   6.574
 6890SOL    HW232702   4.428   6.316   6.639
 6891SOL     OW32703   5.452   6.521   7.440
 6891SOL    HW132704   5.406   6.514   7.351
 6891SOL    HW232705   5.390   6.565   7.506
 6892SOL     OW32706   4.031   5.649   6.204
 6892SOL    HW132707   4.020   5.743   6.237
 6892SOL    HW232708   4.026   5.586   6.281
 6893SOL     OW32709   5.346   5.953   5.960
 6893SOL    HW132710   5.348   5.877   6.024
 6893SOL    HW232711   5.298   6.030   6.000
 6894SOL     OW32712   4.747   6.352   6.552
 6894SOL    HW132713   4.762   6.373   6.648
 6894SOL    HW232714   4.717   6.257   6.543
 6895SOL     OW32715   4.704   7.159   7.286
 6895SOL    HW132716   4.684   7.203   7.198
 6895SOL    HW232717   4.743   7.068   7.270
 6896SOL     OW32718   5.583   7.104   7.191
 6896SOL    HW132719   5.597   7.131   7.096
 6896SOL    HW232720   5.666   7.126   7.244
 6897SOL     OW32721   4.074   6.484   7.390
 6897SOL    HW132722   4.150   6.528   7.438
 6897SOL    HW232723   4.109   6.437   7.308
 6898SOL     OW32724   5.027   6.424   5.628
 6898SOL    HW132725   5.061   6.331   5.643
 6898SOL    HW232726   5.045   6.451   5.533
 6899SOL     OW32727   4.792   6.919   6.435
 6899SOL    HW132728   4.799   6.835   6.380
 6899SOL    HW232729   4.854   6.988   6.399
 6900SOL     OW32730   4.043   6.396   6.535
 6900SOL    HW132731   4.136   6.432   6.540
 6900SOL    HW232732   4.037   6.311   6.587
 6901SOL     OW32733   4.063   6.095   6.592
 6901SOL    HW132734   4.011   6.012   6.575
 6901SOL    HW232735   4.140   6.100   6.528
 6902SOL     OW32736   4.862   5.966   7.264
 6902SOL    HW132737   4.817   6.029   7.328
 6902SOL    HW232738   4.955   5.997   7.247
 6903SOL     OW32739   4.884   5.793   7.063
 6903SOL    HW132740   4.884   5.857   7.140
 6903SOL    HW232741   4.912   5.841   6.980
 6904SOL     OW32742   3.732   6.912   5.786
 6904SOL    HW132743   3.639   6.933   5.755
 6904SOL    HW232744   3.742   6.813   5.799
 6905SOL     OW32745   3.812   7.387   6.513
 6905SOL    HW132746   3.770   7.301   6.486
 6905SOL    HW232747   3.906   7.390   6.479
 6906SOL     OW32748   4.228   7.154   6.496
 6906SOL    HW132749   4.294   7.228   6.505
 6906SOL    HW232750   4.272   7.075   6.454
 6907SOL     OW32751   4.726   6.382   6.824
 6907SOL    HW132752   4.767   6.350   6.910
 6907SOL    HW232753   4.630   6.355   6.821
 6908SOL     OW32754   3.764   6.130   6.700
 6908SOL    HW132755   3.849   6.097   6.659
 6908SOL    HW232756   3.777   6.145   6.798
 6909SOL     OW32757   4.539   6.158   5.911
 6909SOL    HW132758   4.546   6.069   5.865
 6909SOL    HW232759   4.445   6.192   5.903
 6910SOL     OW32760   5.381   6.190   6.792
 6910SOL    HW132761   5.343   6.121   6.854
 6910SOL    HW232762   5.463   6.154   6.748
 6911SOL     OW32763   3.976   7.150   7.330
 6911SOL    HW132764   3.946   7.207   7.406
 6911SOL    HW232765   3.969   7.053   7.356
 6912SOL     OW32766   4.395   6.050   6.855
 6912SOL    HW132767   4.361   5.961   6.825
 6912SOL    HW232768   4.421   6.104   6.775
 6913SOL     OW32769   4.654   7.264   7.051
 6913SOL    HW132770   4.630   7.246   6.956
 6913SOL    HW232771   4.684   7.358   7.061
 6914SOL     OW32772   3.883   6.723   7.052
 6914SOL    HW132773   3.905   6.662   7.128
 6914SOL    HW232774   3.893   6.674   6.966
 6915SOL     OW32775   5.071   6.645   6.820
 6915SOL    HW132776   5.095   6.582   6.746
 6915SOL    HW232777   4.981   6.685   6.802
 6916SOL     OW32778   5.026   6.441   5.895
 6916SOL    HW132779   4.940   6.410   5.937
 6916SOL    HW232780   5.022   6.427   5.796
 6917SOL     OW32781   5.483   7.333   6.740
 6917SOL    HW132782   5.544   7.363   6.667
 6917SOL    HW232783   5.445   7.244   6.718
 6918SOL     OW32784   4.976   7.317   6.714
 6918SOL    HW132785   5.060   7.322   6.660
 6918SOL    HW232786   4.953   7.221   6.732
 6919SOL     OW32787   3.807   6.844   6.608
 6919SOL    HW132788   3.802   6.843   6.708
 6919SOL    HW232789   3.724   6.803   6.570
 6920SOL     OW32790   4.412   7.248   7.302
 6920SOL    HW132791   4.356   7.329   7.311
 6920SOL    HW232792   4.464   7.252   7.216
 6921SOL     OW32793   5.112   7.159   6.063
 6921SOL    HW132794   5.179   7.171   5.989
 6921SOL    HW232795   5.072   7.248   6.086
 6922SOL     OW32796   5.004   6.513   6.258
 6922SOL    HW132797   5.064   6.432   6.260
 6922SOL    HW232798   5.044   6.582   6.198
 6923SOL     OW32799   4.554   6.859   7.008
 6923SOL    HW132800   4.549   6.892   7.103
 6923SOL    HW232801   4.468   6.878   6.962
 6924SOL     OW32802   5.374   7.306   6.980
 6924SOL    HW132803   5.427   7.316   6.896
 6924SOL    HW232804   5.347   7.396   7.014
 6925SOL     OW32805   5.565   5.761   6.549
 6925SOL    HW132806   5.604   5.676   6.513
 6925SOL    HW232807   5.467   5.763   6.530
 6926SOL     OW32808   3.987   5.912   6.306
 6926SOL    HW132809   3.908   5.963   6.272
 6926SOL    HW232810   3.978   5.897   6.404
 6927SOL     OW32811   4.918   7.198   5.617
 6927SOL    HW132812   4.924   7.105   5.654
 6927SOL    HW232813   4.859   7.198   5.537
 6928SOL     OW32814   4.546   6.588   6.958
 6928SOL    HW132815   4.586   6.587   6.866
 6928SOL    HW232816   4.556   6.680   6.998
 6929SOL     OW32817   4.640   6.496   5.877
 6929SOL    HW132818   4.703   6.534   5.809
 6929SOL    HW232819   4.680   6.413   5.916
 6930SOL     OW32820   4.096   6.874   7.076
 6930SOL    HW132821   4.083   6.967   7.042
 6930SOL    HW232822   4.012   6.822   7.063
 6931SOL     OW32823   5.338   6.878   6.875
 6931SOL    HW132824   5.398   6.881   6.955
 6931SOL    HW232825   5.263   6.942   6.888
 6932SOL     OW32826   4.763   6.684   6.282
 6932SOL    HW132827   4.693   6.637   6.336
 6932SOL    HW232828   4.822   6.616   6.239
 6933SOL     OW32829   4.738   5.822   6.557
 6933SOL    HW132830   4.730   5.786   6.464
 6933SOL    HW232831   4.736   5.746   6.622
 6934SOL     OW32832   4.314   7.073   6.077
 6934SOL    HW132833   4.356   7.015   6.007
 6934SOL    HW232834   4.270   7.152   6.033
 6935SOL     OW32835   5.433   5.971   6.967
 6935SOL    HW132836   5.506   6.040   6.971
 6935SOL    HW232837   5.461   5.896   6.908
 6936SOL     OW32838   3.979   6.934   5.876
 6936SOL    HW132839   3.883   6.935   5.849
 6936SOL    HW232840   3.991   6.987   5.960
 6937SOL     OW32841   3.829   6.599   7.312
 6937SOL    HW132842   3.752   6.566   7.366
 6937SOL    HW232843   3.914   6.569   7.354
 6938SOL     OW32844   4.396   5.789   7.075
 6938SOL    HW132845   4.486   5.773   7.035
 6938SOL    HW232846   4.404   5.794   7.174
 6939SOL     OW32847   5.164   6.442   6.984
 6939SOL    HW132848   5.107   6.494   6.921
 6939SOL    HW232849   5.260   6.454   6.960
 6940SOL     OW32850   3.796   5.752   5.904
 6940SOL    HW132851   3.779   5.835   5.850
 6940SOL    HW232852   3.886   5.715   5.882
 6941SOL     OW32853   4.907   6.921   5.705
 6941SOL    HW132854   4.808   6.910   5.707
 6941SOL    HW232855   4.941   6.936   5.798
 6942SOL     OW32856   4.337   6.428   7.017
 6942SOL    HW132857   4.393   6.509   7.000
 6942SOL    HW232858   4.396   6.348   7.020
 6943SOL     OW32859   5.217   7.353   6.545
 6943SOL    HW132860   5.250   7.417   6.476
 6943SOL    HW232861   5.283   7.347   6.620
 6944SOL     OW32862   4.440   6.151   7.294
 6944SOL    HW132863   4.459   6.216   7.368
 6944SOL    HW232864   4.500   6.071   7.303
 6945SOL     OW32865   4.114   7.327   7.146
 6945SOL    HW132866   4.023   7.368   7.144
 6945SOL    HW232867   4.107   7.233   7.178
 6946SOL     OW32868   5.398   6.469   6.840
 6946SOL    HW132869   5.371   6.380   6.803
 6946SOL    HW232870   5.399   6.537   6.767
 6947SOL     OW32871   4.949   5.911   6.035
 6947SOL    HW132872   5.014   5.837   6.024
 6947SOL    HW232873   4.969   5.961   6.119
 6948SOL     OW32874   4.318   6.331   6.238
 6948SOL    HW132875   4.368   6.416   6.219
 6948SOL    HW232876   4.230   6.333   6.190
 6949SOL     OW32877   5.501   5.928   7.228
 6949SOL    HW132878   5.484   5.959   7.134
 6949SOL    HW232879   5.417   5.891   7.266
 6950SOL     OW32880   5.454   6.520   7.103
 6950SOL    HW132881   5.492   6.611   7.118
 6950SOL    HW232882   5.446   6.503   7.004
 6951SOL     OW32883   4.385   7.376   6.539
 6951SOL    HW132884   4.339   7.464   6.526
 6951SOL    HW232885   4.484   7.388   6.532
 6952SOL     OW32886   4.583   6.542   6.447
 6952SOL    HW132887   4.637   6.473   6.495
 6952SOL    HW232888   4.551   6.611   6.513
 6953SOL     OW32889   4.807   6.570   5.673
 6953SOL    HW132890   4.784   6.623   5.591
 6953SOL    HW232891   4.888   6.514   5.654
 6954SOL     OW32892   5.585   7.155   6.437
 6954SOL    HW132893   5.514   7.143   6.367
 6954SOL    HW232894   5.586   7.076   6.497
 6955SOL     OW32895   3.945   6.900   7.430
 6955SOL    HW132896   3.880   6.827   7.409
 6955SOL    HW232897   3.949   6.914   7.528
 6956SOL     OW32898   3.803   6.826   6.239
 6956SOL    HW132899   3.802   6.779   6.327
 6956SOL    HW232900   3.885   6.798   6.188
 6957SOL     OW32901   4.396   6.977   7.210
 6957SOL    HW132902   4.318   6.927   7.248
 6957SOL    HW232903   4.393   7.072   7.241
 6958SOL     OW32904   5.548   5.778   6.813
 6958SOL    HW132905   5.544   5.688   6.857
 6958SOL    HW232906   5.551   5.767   6.714
 6959SOL     OW32907   4.152   6.010   6.106
 6959SOL    HW132908   4.182   5.938   6.044
 6959SOL    HW232909   4.113   5.970   6.189
 6960SOL     OW32910   5.429   7.073   6.690
 6960SOL    HW132911   5.336   7.048   6.663
 6960SOL    HW232912   5.455   7.023   6.772
 6961SOL     OW32913   4.041   6.133   6.866
 6961SOL    HW132914   4.079   6.074   6.938
 6961SOL    HW232915   4.081   6.107   6.778
 6962SOL     OW32916   4.536   7.172   6.273
 6962SOL    HW132917   4.568   7.182   6.179
 6962SOL    HW232918   4.457   7.110   6.275
 6963SOL     OW32919   5.148   5.800   6.698
 6963SOL    HW132920   5.200   5.735   6.753
 6963SOL    HW232921   5.099   5.863   6.759
 6964SOL     OW32922   4.725   5.620   6.740
 6964SOL    HW132923   4.662   5.548   6.709
 6964SOL    HW232924   4.818   5.584   6.740
 6965SOL     OW32925   4.494   6.916   5.887
 6965SOL    HW132926   4.448   6.829   5.904
 6965SOL    HW232927   4.585   6.913   5.928
 6966SOL     OW32928   4.342   7.153   6.870
 6966SOL    HW132929   4.337   7.235   6.927
 6966SOL    HW232930   4.431   7.150   6.825
 6967SOL     OW32931   5.076   5.638   5.754
 6967SOL    HW132932   5.111   5.597   5.670
 6967SOL    HW232933   4.986   5.600   5.774
 6968SOL     OW32934   5.024   6.039   6.277
 6968SOL    HW132935   4.965   6.119   6.281
 6968SOL    HW232936   5.039   6.004   6.370
 6969SOL     OW32937   5.317   5.807   6.468
 6969SOL    HW132938   5.233   5.806   6.522
 6969SOL    HW232939   5.319   5.890   6.412
 6970SOL     OW32940   3.763   6.663   5.886
 6970SOL    HW132941   3.862   6.652   5.877
 6970SOL    HW232942   3.723   6.577   5.918
 6971SOL     OW32943   3.954   8.076   0.113
 6971SOL    HW132944   3.861   8.074   0.150
 6971SOL    HW232945   3.955   8.037   0.021
 6972SOL     OW32946   3.949   7.723   0.996
 6972SOL    HW132947   3.984   7.706   1.088
 6972SOL    HW232948   3.861   7.678   0.984
 6973SOL     OW32949   3.743   7.816   0.647
 6973SOL    HW132950   3.661   7.859   0.686
 6973SOL    HW232951   3.715   7.743   0.584
 6974SOL     OW32952   4.859   8.151   0.717
 6974SOL    HW132953   4.916   8.229   0.692
 6974SOL    HW232954   4.799   8.177   0.793
 6975SOL     OW32955   5.479   8.055   0.231
 6975SOL    HW132956   5.467   8.042   0.132
 6975SOL    HW232957   5.449   7.974   0.280
 6976SOL     OW32958   4.492   8.592   1.023
 6976SOL    HW132959   4.414   8.609   1.083
 6976SOL    HW232960   4.526   8.679   0.987
 6977SOL     OW32961   4.409   8.460   0.665
 6977SOL    HW132962   4.478   8.444   0.735
 6977SOL    HW232963   4.336   8.517   0.703
 6978SOL     OW32964   4.162   7.840   1.499
 6978SOL    HW132965   4.244   7.784   1.508
 6978SOL    HW232966   4.081   7.782   1.503
 6979SOL     OW32967   5.327   7.895   0.737
 6979SOL    HW132968   5.253   7.941   0.687
 6979SOL    HW232969   5.378   7.963   0.790
 6980SOL     OW32970   3.964   8.539   0.886
 6980SOL    HW132971   3.978   8.455   0.938
 6980SOL    HW232972   3.909   8.603   0.941
 6981SOL     OW32973   5.318   7.562   1.480
 6981SOL    HW132974   5.300   7.629   1.408
 6981SOL    HW232975   5.315   7.608   1.569
 6982SOL     OW32976   3.846   8.091   0.563
 6982SOL    HW132977   3.801   8.003   0.580
 6982SOL    HW232978   3.845   8.145   0.647
 6983SOL     OW32979   3.837   8.185   1.597
 6983SOL    HW132980   3.925   8.172   1.642
 6983SOL    HW232981   3.824   8.282   1.575
 6984SOL     OW32982   4.533   7.452   0.502
 6984SOL    HW132983   4.573   7.543   0.493
 6984SOL    HW232984   4.433   7.460   0.508
 6985SOL     OW32985   3.921   8.424   1.264
 6985SOL    HW132986   4.010   8.379   1.250
 6985SOL    HW232987   3.848   8.359   1.245
 6986SOL     OW32988   5.249   8.447   0.190
 6986SOL    HW132989   5.186   8.371   0.203
 6986SOL    HW232990   5.297   8.465   0.276
 6987SOL     OW32991   4.041   7.699   1.801
 6987SOL    HW132992   4.112   7.770   1.807
 6987SOL    HW232993   3.953   7.738   1.829
 6988SOL     OW32994   4.322   8.177   0.270
 6988SOL    HW132995   4.346   8.246   0.202
 6988SOL    HW232996   4.244   8.210   0.324
 6989SOL     OW32997   5.005   7.793   0.944
 6989SOL    HW132998   4.919   7.743   0.931
 6989SOL    HW232999   5.067   7.739   1.000
 6990SOL     OW33000   4.531   8.053   1.465
 6990SOL    HW133001   4.484   8.050   1.554
 6990SOL    HW233002   4.480   7.998   1.399
 6991SOL     OW33003   5.118   7.917   1.674
 6991SOL    HW133004   5.098   7.960   1.762
 6991SOL    HW233005   5.196   7.855   1.683
 6992SOL     OW33006   4.697   8.338   1.572
 6992SOL    HW133007   4.743   8.254   1.543
 6992SOL    HW233008   4.641   8.372   1.497
 6993SOL     OW33009   4.715   7.858   1.242
 6993SOL    HW133010   4.638   7.892   1.296
 6993SOL    HW233011   4.681   7.807   1.163
 6994SOL     OW33012   4.765   8.149   0.429
 6994SOL    HW133013   4.791   8.145   0.525
 6994SOL    HW233014   4.680   8.098   0.415
 6995SOL     OW33015   3.800   8.259   0.789
 6995SOL    HW133016   3.899   8.247   0.798
 6995SOL    HW233017   3.776   8.354   0.810
 6996SOL     OW33018   4.589   7.796   0.195
 6996SOL    HW133019   4.648   7.859   0.146
 6996SOL    HW233020   4.608   7.702   0.166
 6997SOL     OW33021   5.443   8.033   1.831
 6997SOL    HW133022   5.417   8.122   1.795
 6997SOL    HW233023   5.441   7.965   1.758
 6998SOL     OW33024   4.274   7.644   0.885
 6998SOL    HW133025   4.269   7.639   0.985
 6998SOL    HW233026   4.276   7.740   0.856
 6999SOL     OW33027   5.182   8.183   0.728
 6999SOL    HW133028   5.177   8.118   0.803
 6999SOL    HW233029   5.262   8.242   0.741
 7000SOL     OW33030   3.926   7.733   1.498
 7000SOL    HW133031   3.846   7.793   1.485
 7000SOL    HW233032   3.916   7.684   1.584
 7001SOL     OW33033   5.124   7.555   0.426
 7001SOL    HW133034   5.100   7.518   0.336
 7001SOL    HW233035   5.223   7.571   0.430
 7002SOL     OW33036   4.106   8.148   0.480
 7002SOL    HW133037   4.151   8.058   0.477
 7002SOL    HW233038   4.012   8.137   0.513
 7003SOL     OW33039   5.271   7.670   1.729
 7003SOL    HW133040   5.266   7.707   1.821
 7003SOL    HW233041   5.199   7.601   1.717
 7004SOL     OW33042   4.338   7.570   0.117
 7004SOL    HW133043   4.436   7.548   0.124
 7004SOL    HW233044   4.307   7.553   0.024
 7005SOL     OW33045   4.505   7.712   1.749
 7005SOL    HW133046   4.572   7.651   1.792
 7005SOL    HW233047   4.432   7.731   1.814
 7006SOL     OW33048   5.075   8.038   1.433
 7006SOL    HW133049   5.103   7.995   1.518
 7006SOL    HW233050   5.100   8.134   1.434
 7007SOL     OW33051   4.646   7.951   0.899
 7007SOL    HW133052   4.621   7.942   0.803
 7007SOL    HW233053   4.694   7.869   0.930
 7008SOL     OW33054   4.263   7.512   0.512
 7008SOL    HW133055   4.182   7.513   0.570
 7008SOL    HW233056   4.266   7.595   0.457
 7009SOL     OW33057   4.021   7.483   0.171
 7009SOL    HW133058   4.070   7.567   0.150
 7009SOL    HW233059   4.083   7.418   0.216
 7010SOL     OW33060   4.659   7.684   0.480
 7010SOL    HW133061   4.611   7.725   0.402
 7010SOL    HW233062   4.758   7.682   0.461
 7011SOL     OW33063   4.800   8.131   1.464
 7011SOL    HW133064   4.720   8.070   1.467
 7011SOL    HW233065   4.881   8.078   1.440
 7012SOL     OW33066   4.756   7.997   0.016
 7012SOL    HW133067   4.715   8.079  -0.023
 7012SOL    HW233068   4.820   8.023   0.089
 7013SOL     OW33069   3.802   8.004   1.386
 7013SOL    HW133070   3.894   8.003   1.345
 7013SOL    HW233071   3.796   8.078   1.453
 7014SOL     OW33072   4.285   7.670   1.147
 7014SOL    HW133073   4.323   7.586   1.184
 7014SOL    HW233074   4.197   7.689   1.191
 7015SOL     OW33075   4.590   7.902   0.642
 7015SOL    HW133076   4.558   7.974   0.580
 7015SOL    HW233077   4.614   7.821   0.589
 7016SOL     OW33078   4.741   7.487   0.753
 7016SOL    HW133079   4.669   7.492   0.684
 7016SOL    HW233080   4.717   7.418   0.822
 7017SOL     OW33081   5.190   8.038   0.992
 7017SOL    HW133082   5.160   7.943   0.999
 7017SOL    HW233083   5.263   8.054   1.058
 7018SOL     OW33084   5.581   8.281   0.377
 7018SOL    HW133085   5.623   8.217   0.441
 7018SOL    HW233086   5.543   8.230   0.299
 7019SOL     OW33087   5.114   8.023   0.078
 7019SOL    HW133088   5.060   8.002   0.159
 7019SOL    HW233089   5.205   7.982   0.087
 7020SOL     OW33090   4.251   7.704   0.328
 7020SOL    HW133091   4.278   7.645   0.253
 7020SOL    HW233092   4.251   7.799   0.297
 7021SOL     OW33093   5.362   8.547   1.079
 7021SOL    HW133094   5.367   8.628   1.138
 7021SOL    HW233095   5.276   8.549   1.028
 7022SOL     OW33096   4.639   7.537   1.402
 7022SOL    HW133097   4.664   7.517   1.307
 7022SOL    HW233098   4.711   7.593   1.444
 7023SOL     OW33099   4.134   8.261   1.251
 7023SOL    HW133100   4.220   8.273   1.301
 7023SOL    HW233101   4.092   8.174   1.278
 7024SOL     OW33102   4.998   7.834   1.262
 7024SOL    HW133103   5.019   7.908   1.326
 7024SOL    HW233104   4.909   7.851   1.219
 7025SOL     OW33105   4.290   7.985   0.865
 7025SOL    HW133106   4.302   8.051   0.791
 7025SOL    HW233107   4.336   8.019   0.948
 7026SOL     OW33108   5.306   8.087   0.472
 7026SOL    HW133109   5.275   8.148   0.545
 7026SOL    HW233110   5.356   8.139   0.403
 7027SOL     OW33111   4.126   8.199   1.598
 7027SOL    HW133112   4.194   8.254   1.551
 7027SOL    HW233113   4.166   8.111   1.625
 7028SOL     OW33114   5.311   8.227   1.670
 7028SOL    HW133115   5.219   8.265   1.665
 7028SOL    HW233116   5.371   8.274   1.605
 7029SOL     OW33117   4.737   7.553   1.770
 7029SOL    HW133118   4.743   7.638   1.718
 7029SOL    HW233119   4.769   7.477   1.713
 7030SOL     OW33120   4.228   7.498   1.740
 7030SOL    HW133121   4.186   7.441   1.670
 7030SOL    HW233122   4.162   7.567   1.772
 7031SOL     OW33123   4.297   8.318   1.029
 7031SOL    HW133124   4.341   8.407   1.020
 7031SOL    HW233125   4.234   8.318   1.106
 7032SOL     OW33126   5.084   8.310   1.045
 7032SOL    HW133127   5.009   8.310   0.979
 7032SOL    HW233128   5.121   8.218   1.054
 7033SOL     OW33129   4.933   7.973   0.275
 7033SOL    HW133130   4.946   7.889   0.329
 7033SOL    HW233131   4.904   8.047   0.335
 7034SOL     OW33132   4.031   7.661   1.231
 7034SOL    HW133133   4.008   7.698   1.321
 7034SOL    HW233134   4.001   7.566   1.225
 7035SOL     OW33135   4.456   8.082   1.064
 7035SOL    HW133136   4.515   8.056   0.988
 7035SOL    HW233137   4.428   8.178   1.053
 7036SOL     OW33138   5.452   8.383   1.854
 7036SOL    HW133139   5.406   8.376   1.765
 7036SOL    HW233140   5.390   8.427   1.920
 7037SOL     OW33141   4.031   7.511   0.618
 7037SOL    HW133142   4.020   7.605   0.651
 7037SOL    HW233143   4.026   7.448   0.695
 7038SOL     OW33144   5.346   7.815   0.374
 7038SOL    HW133145   5.348   7.739   0.438
 7038SOL    HW233146   5.298   7.892   0.414
 7039SOL     OW33147   4.747   8.214   0.966
 7039SOL    HW133148   4.762   8.235   1.062
 7039SOL    HW233149   4.717   8.119   0.957
 7040SOL     OW33150   4.074   8.346   1.804
 7040SOL    HW133151   4.150   8.390   1.852
 7040SOL    HW233152   4.109   8.299   1.722
 7041SOL     OW33153   5.264   7.722   0.125
 7041SOL    HW133154   5.203   7.647   0.148
 7041SOL    HW233155   5.286   7.774   0.208
 7042SOL     OW33156   5.027   8.286   0.042
 7042SOL    HW133157   5.061   8.193   0.057
 7042SOL    HW233158   5.045   8.313  -0.053
 7043SOL     OW33159   4.043   8.258   0.949
 7043SOL    HW133160   4.136   8.294   0.954
 7043SOL    HW233161   4.037   8.173   1.001
 7044SOL     OW33162   4.063   7.957   1.006
 7044SOL    HW133163   4.011   7.874   0.989
 7044SOL    HW233164   4.140   7.962   0.942
 7045SOL     OW33165   4.862   7.828   1.678
 7045SOL    HW133166   4.817   7.891   1.742
 7045SOL    HW233167   4.955   7.859   1.661
 7046SOL     OW33168   4.884   7.655   1.477
 7046SOL    HW133169   4.884   7.719   1.554
 7046SOL    HW233170   4.912   7.703   1.394
 7047SOL     OW33171   4.726   8.244   1.238
 7047SOL    HW133172   4.767   8.212   1.324
 7047SOL    HW233173   4.630   8.217   1.235
 7048SOL     OW33174   3.764   7.992   1.114
 7048SOL    HW133175   3.849   7.959   1.073
 7048SOL    HW233176   3.777   8.007   1.212
 7049SOL     OW33177   3.913   7.968   1.722
 7049SOL    HW133178   3.972   7.928   1.652
 7049SOL    HW233179   3.855   8.039   1.681
 7050SOL     OW33180   5.093   8.398   1.660
 7050SOL    HW133181   5.132   8.487   1.680
 7050SOL    HW233182   5.103   8.378   1.563
 7051SOL     OW33183   4.539   8.020   0.325
 7051SOL    HW133184   4.546   7.931   0.279
 7051SOL    HW233185   4.445   8.054   0.317
 7052SOL     OW33186   5.381   8.052   1.206
 7052SOL    HW133187   5.343   7.983   1.268
 7052SOL    HW233188   5.463   8.016   1.162
 7053SOL     OW33189   4.395   7.912   1.269
 7053SOL    HW133190   4.361   7.823   1.239
 7053SOL    HW233191   4.421   7.966   1.189
 7054SOL     OW33192   4.197   7.948   0.191
 7054SOL    HW133193   4.258   8.028   0.195
 7054SOL    HW233194   4.102   7.979   0.198
 7055SOL     OW33195   3.883   8.585   1.466
 7055SOL    HW133196   3.905   8.524   1.542
 7055SOL    HW233197   3.893   8.536   1.380
 7056SOL     OW33198   5.071   8.507   1.234
 7056SOL    HW133199   5.095   8.444   1.160
 7056SOL    HW233200   4.981   8.547   1.216
 7057SOL     OW33201   5.026   8.303   0.309
 7057SOL    HW133202   4.940   8.272   0.351
 7057SOL    HW233203   5.022   8.289   0.210
 7058SOL     OW33204   4.627   7.534   0.133
 7058SOL    HW133205   4.678   7.535   0.047
 7058SOL    HW233206   4.683   7.492   0.204
 7059SOL     OW33207   5.450   7.583   0.523
 7059SOL    HW133208   5.523   7.566   0.456
 7059SOL    HW233209   5.419   7.496   0.561
 7060SOL     OW33210   5.004   8.375   0.672
 7060SOL    HW133211   5.064   8.294   0.674
 7060SOL    HW233212   5.044   8.444   0.612
 7061SOL     OW33213   5.565   7.623   0.963
 7061SOL    HW133214   5.604   7.538   0.927
 7061SOL    HW233215   5.467   7.625   0.944
 7062SOL     OW33216   3.987   7.774   0.720
 7062SOL    HW133217   3.908   7.825   0.686
 7062SOL    HW233218   3.978   7.759   0.818
 7063SOL     OW33219   4.640   8.358   0.291
 7063SOL    HW133220   4.703   8.396   0.223
 7063SOL    HW233221   4.680   8.275   0.330
 7064SOL     OW33222   4.738   7.684   0.971
 7064SOL    HW133223   4.730   7.648   0.878
 7064SOL    HW233224   4.736   7.608   1.036
 7065SOL     OW33225   5.433   7.833   1.381
 7065SOL    HW133226   5.506   7.902   1.385
 7065SOL    HW233227   5.461   7.758   1.322
 7066SOL     OW33228   3.829   8.461   1.726
 7066SOL    HW133229   3.752   8.428   1.780
 7066SOL    HW233230   3.914   8.431   1.768
 7067SOL     OW33231   4.396   7.651   1.489
 7067SOL    HW133232   4.486   7.635   1.449
 7067SOL    HW233233   4.404   7.656   1.588
 7068SOL     OW33234   3.799   7.793   0.033
 7068SOL    HW133235   3.707   7.765   0.004
 7068SOL    HW233236   3.830   7.870  -0.023
 7069SOL     OW33237   5.164   8.304   1.398
 7069SOL    HW133238   5.107   8.356   1.335
 7069SOL    HW233239   5.260   8.316   1.374
 7070SOL     OW33240   3.796   7.614   0.318
 7070SOL    HW133241   3.779   7.697   0.264
 7070SOL    HW233242   3.886   7.577   0.296
 7071SOL     OW33243   4.337   8.290   1.431
 7071SOL    HW133244   4.393   8.371   1.414
 7071SOL    HW233245   4.396   8.210   1.434
 7072SOL     OW33246   4.440   8.013   1.708
 7072SOL    HW133247   4.459   8.078   1.782
 7072SOL    HW233248   4.500   7.933   1.717
 7073SOL     OW33249   5.398   8.331   1.254
 7073SOL    HW133250   5.371   8.242   1.217
 7073SOL    HW233251   5.399   8.399   1.181
 7074SOL     OW33252   4.949   7.773   0.449
 7074SOL    HW133253   5.014   7.699   0.438
 7074SOL    HW233254   4.969   7.823   0.533
 7075SOL     OW33255   4.318   8.193   0.652
 7075SOL    HW133256   4.368   8.278   0.633
 7075SOL    HW233257   4.230   8.195   0.604
 7076SOL     OW33258   5.501   7.790   1.642
 7076SOL    HW133259   5.484   7.821   1.548
 7076SOL    HW233260   5.417   7.753   1.680
 7077SOL     OW33261   5.454   8.382   1.517
 7077SOL    HW133262   5.492   8.473   1.532
 7077SOL    HW233263   5.446   8.365   1.418
 7078SOL     OW33264   4.807   8.432   0.087
 7078SOL    HW133265   4.784   8.485   0.005
 7078SOL    HW233266   4.888   8.376   0.068
 7079SOL     OW33267   5.548   7.640   1.227
 7079SOL    HW133268   5.544   7.550   1.271
 7079SOL    HW233269   5.551   7.629   1.128
 7080SOL     OW33270   4.152   7.872   0.520
 7080SOL    HW133271   4.182   7.800   0.458
 7080SOL    HW233272   4.113   7.832   0.603
 7081SOL     OW33273   4.041   7.995   1.280
 7081SOL    HW133274   4.079   7.936   1.352
 7081SOL    HW233275   4.081   7.969   1.192
 7082SOL     OW33276   5.148   7.662   1.112
 7082SOL    HW133277   5.200   7.597   1.167
 7082SOL    HW233278   5.099   7.725   1.173
 7083SOL     OW33279   4.725   7.482   1.154
 7083SOL    HW133280   4.662   7.410   1.123
 7083SOL    HW233281   4.818   7.446   1.154
 7084SOL     OW33282   5.076   7.500   0.168
 7084SOL    HW133283   5.111   7.459   0.084
 7084SOL    HW233284   4.986   7.462   0.188
 7085SOL     OW33285   5.024   7.901   0.691
 7085SOL    HW133286   4.965   7.981   0.695
 7085SOL    HW233287   5.039   7.866   0.784
 7086SOL     OW33288   5.317   7.669   0.882
 7086SOL    HW133289   5.233   7.668   0.936
 7086SOL    HW233290   5.319   7.752   0.826
 7087SOL     OW33291   5.479   8.055   2.093
 7087SOL    HW133292   5.467   8.042   1.994
 7087SOL    HW233293   5.449   7.974   2.142
 7088SOL     OW33294   3.964   8.539   2.748
 7088SOL    HW133295   3.978   8.455   2.800
 7088SOL    HW233296   3.909   8.603   2.803
 7089SOL     OW33297   5.318   7.562   3.342
 7089SOL    HW133298   5.300   7.629   3.270
 7089SOL    HW233299   5.315   7.608   3.431
 7090SOL     OW33300   3.837   8.185   3.459
 7090SOL    HW133301   3.925   8.172   3.504
 7090SOL    HW233302   3.824   8.282   3.437
 7091SOL     OW33303   5.249   8.447   2.052
 7091SOL    HW133304   5.186   8.371   2.065
 7091SOL    HW233305   5.297   8.465   2.138
 7092SOL     OW33306   4.041   7.699   3.663
 7092SOL    HW133307   4.112   7.770   3.669
 7092SOL    HW233308   3.953   7.738   3.691
 7093SOL     OW33309   5.005   7.793   2.806
 7093SOL    HW133310   4.919   7.743   2.793
 7093SOL    HW233311   5.067   7.739   2.862
 7094SOL     OW33312   4.274   7.644   2.747
 7094SOL    HW133313   4.269   7.639   2.847
 7094SOL    HW233314   4.276   7.740   2.718
 7095SOL     OW33315   5.182   8.183   2.590
 7095SOL    HW133316   5.177   8.118   2.665
 7095SOL    HW233317   5.262   8.242   2.603
 7096SOL     OW33318   3.926   7.733   3.360
 7096SOL    HW133319   3.846   7.793   3.347
 7096SOL    HW233320   3.916   7.684   3.446
 7097SOL     OW33321   4.106   8.148   2.342
 7097SOL    HW133322   4.151   8.058   2.339
 7097SOL    HW233323   4.012   8.137   2.375
 7098SOL     OW33324   4.338   7.570   1.979
 7098SOL    HW133325   4.436   7.548   1.986
 7098SOL    HW233326   4.307   7.553   1.886
 7099SOL     OW33327   4.021   7.483   2.033
 7099SOL    HW133328   4.070   7.567   2.012
 7099SOL    HW233329   4.083   7.418   2.078
 7100SOL     OW33330   3.802   8.004   3.248
 7100SOL    HW133331   3.894   8.003   3.207
 7100SOL    HW233332   3.796   8.078   3.315
 7101SOL     OW33333   4.285   7.670   3.009
 7101SOL    HW133334   4.323   7.586   3.046
 7101SOL    HW233335   4.197   7.689   3.053
 7102SOL     OW33336   4.590   7.902   2.504
 7102SOL    HW133337   4.558   7.974   2.442
 7102SOL    HW233338   4.614   7.821   2.451
 7103SOL     OW33339   5.581   8.281   2.239
 7103SOL    HW133340   5.623   8.217   2.303
 7103SOL    HW233341   5.543   8.230   2.161
 7104SOL     OW33342   4.639   7.537   3.264
 7104SOL    HW133343   4.664   7.517   3.169
 7104SOL    HW233344   4.711   7.593   3.306
 7105SOL     OW33345   4.134   8.261   3.113
 7105SOL    HW133346   4.220   8.273   3.163
 7105SOL    HW233347   4.092   8.174   3.140
 7106SOL     OW33348   4.290   7.985   2.727
 7106SOL    HW133349   4.302   8.051   2.653
 7106SOL    HW233350   4.336   8.019   2.810
 7107SOL     OW33351   5.306   8.087   2.334
 7107SOL    HW133352   5.275   8.148   2.407
 7107SOL    HW233353   5.356   8.139   2.265
 7108SOL     OW33354   5.311   8.227   3.532
 7108SOL    HW133355   5.219   8.265   3.527
 7108SOL    HW233356   5.371   8.274   3.467
 7109SOL     OW33357   4.228   7.498   3.602
 7109SOL    HW133358   4.186   7.441   3.532
 7109SOL    HW233359   4.162   7.567   3.634
 7110SOL     OW33360   4.297   8.318   2.891
 7110SOL    HW133361   4.341   8.407   2.882
 7110SOL    HW233362   4.234   8.318   2.968
 7111SOL     OW33363   4.031   7.661   3.093
 7111SOL    HW133364   4.008   7.698   3.183
 7111SOL    HW233365   4.001   7.566   3.087
 7112SOL     OW33366   4.747   8.214   2.828
 7112SOL    HW133367   4.762   8.235   2.924
 7112SOL    HW233368   4.717   8.119   2.819
 7113SOL     OW33369   5.027   8.286   1.904
 7113SOL    HW133370   5.061   8.193   1.919
 7113SOL    HW233371   5.045   8.313   1.809
 7114SOL     OW33372   4.862   7.828   3.540
 7114SOL    HW133373   4.817   7.891   3.604
 7114SOL    HW233374   4.955   7.859   3.523
 7115SOL     OW33375   4.539   8.020   2.187
 7115SOL    HW133376   4.546   7.931   2.141
 7115SOL    HW233377   4.445   8.054   2.179
 7116SOL     OW33378   5.026   8.303   2.171
 7116SOL    HW133379   4.940   8.272   2.213
 7116SOL    HW233380   5.022   8.289   2.072
 7117SOL     OW33381   5.004   8.375   2.534
 7117SOL    HW133382   5.064   8.294   2.536
 7117SOL    HW233383   5.044   8.444   2.474
 7118SOL     OW33384   4.337   8.290   3.293
 7118SOL    HW133385   4.393   8.371   3.276
 7118SOL    HW233386   4.396   8.210   3.296
 7119SOL     OW33387   4.949   7.773   2.311
 7119SOL    HW133388   5.014   7.699   2.300
 7119SOL    HW233389   4.969   7.823   2.395
 7120SOL     OW33390   4.152   7.872   2.382
 7120SOL    HW133391   4.182   7.800   2.320
 7120SOL    HW233392   4.113   7.832   2.465
 7121SOL     OW33393   4.725   7.482   3.016
 7121SOL    HW133394   4.662   7.410   2.985
 7121SOL    HW233395   4.818   7.446   3.016
 7122SOL     OW33396   3.954   8.076   3.837
 7122SOL    HW133397   3.861   8.074   3.874
 7122SOL    HW233398   3.955   8.037   3.745
 7123SOL     OW33399   3.949   7.723   4.720
 7123SOL    HW133400   3.984   7.706   4.812
 7123SOL    HW233401   3.861   7.678   4.708
 7124SOL     OW33402   3.743   7.816   4.371
 7124SOL    HW133403   3.661   7.859   4.410
 7124SOL    HW233404   3.715   7.743   4.308
 7125SOL     OW33405   3.964   8.539   4.610
 7125SOL    HW133406   3.978   8.455   4.662
 7125SOL    HW233407   3.909   8.603   4.665
 7126SOL     OW33408   3.846   8.091   4.287
 7126SOL    HW133409   3.801   8.003   4.304
 7126SOL    HW233410   3.845   8.145   4.371
 7127SOL     OW33411   4.533   7.452   4.226
 7127SOL    HW133412   4.573   7.543   4.217
 7127SOL    HW233413   4.433   7.460   4.232
 7128SOL     OW33414   5.249   8.447   3.914
 7128SOL    HW133415   5.186   8.371   3.927
 7128SOL    HW233416   5.297   8.465   4.000
 7129SOL     OW33417   5.118   7.917   5.398
 7129SOL    HW133418   5.098   7.960   5.486
 7129SOL    HW233419   5.196   7.855   5.407
 7130SOL     OW33420   4.765   8.149   4.153
 7130SOL    HW133421   4.791   8.145   4.249
 7130SOL    HW233422   4.680   8.098   4.139
 7131SOL     OW33423   4.589   7.796   3.919
 7131SOL    HW133424   4.648   7.859   3.870
 7131SOL    HW233425   4.608   7.702   3.890
 7132SOL     OW33426   5.124   7.555   4.150
 7132SOL    HW133427   5.100   7.518   4.060
 7132SOL    HW233428   5.223   7.571   4.154
 7133SOL     OW33429   4.505   7.712   5.473
 7133SOL    HW133430   4.572   7.651   5.516
 7133SOL    HW233431   4.432   7.731   5.538
 7134SOL     OW33432   5.075   8.038   5.157
 7134SOL    HW133433   5.103   7.995   5.242
 7134SOL    HW233434   5.100   8.134   5.158
 7135SOL     OW33435   4.263   7.512   4.236
 7135SOL    HW133436   4.182   7.513   4.294
 7135SOL    HW233437   4.266   7.595   4.181
 7136SOL     OW33438   3.802   8.004   5.110
 7136SOL    HW133439   3.894   8.003   5.069
 7136SOL    HW233440   3.796   8.078   5.177
 7137SOL     OW33441   5.581   8.281   4.101
 7137SOL    HW133442   5.623   8.217   4.165
 7137SOL    HW233443   5.543   8.230   4.023
 7138SOL     OW33444   4.251   7.704   4.052
 7138SOL    HW133445   4.278   7.645   3.977
 7138SOL    HW233446   4.251   7.799   4.021
 7139SOL     OW33447   4.737   7.553   5.494
 7139SOL    HW133448   4.743   7.638   5.442
 7139SOL    HW233449   4.769   7.477   5.437
 7140SOL     OW33450   4.456   8.082   4.788
 7140SOL    HW133451   4.515   8.056   4.712
 7140SOL    HW233452   4.428   8.178   4.777
 7141SOL     OW33453   4.074   8.346   5.528
 7141SOL    HW133454   4.150   8.390   5.576
 7141SOL    HW233455   4.109   8.299   5.446
 7142SOL     OW33456   5.027   8.286   3.766
 7142SOL    HW133457   5.061   8.193   3.781
 7142SOL    HW233458   5.045   8.313   3.671
 7143SOL     OW33459   4.862   7.828   5.402
 7143SOL    HW133460   4.817   7.891   5.466
 7143SOL    HW233461   4.955   7.859   5.385
 7144SOL     OW33462   5.093   8.398   5.384
 7144SOL    HW133463   5.132   8.487   5.404
 7144SOL    HW233464   5.103   8.378   5.287
 7145SOL     OW33465   5.071   8.507   4.958
 7145SOL    HW133466   5.095   8.444   4.884
 7145SOL    HW233467   4.981   8.547   4.940
 7146SOL     OW33468   5.450   7.583   4.247
 7146SOL    HW133469   5.523   7.566   4.180
 7146SOL    HW233470   5.419   7.496   4.285
 7147SOL     OW33471   3.987   7.774   4.444
 7147SOL    HW133472   3.908   7.825   4.410
 7147SOL    HW233473   3.978   7.759   4.542
 7148SOL     OW33474   4.396   7.651   5.213
 7148SOL    HW133475   4.486   7.635   5.173
 7148SOL    HW233476   4.404   7.656   5.312
 7149SOL     OW33477   3.799   7.793   3.757
 7149SOL    HW133478   3.707   7.765   3.728
 7149SOL    HW233479   3.830   7.870   3.701
 7150SOL     OW33480   3.796   7.614   4.042
 7150SOL    HW133481   3.779   7.697   3.988
 7150SOL    HW233482   3.886   7.577   4.020
 7151SOL     OW33483   4.337   8.290   5.155
 7151SOL    HW133484   4.393   8.371   5.138
 7151SOL    HW233485   4.396   8.210   5.158
 7152SOL     OW33486   4.440   8.013   5.432
 7152SOL    HW133487   4.459   8.078   5.506
 7152SOL    HW233488   4.500   7.933   5.441
 7153SOL     OW33489   5.501   7.790   5.366
 7153SOL    HW133490   5.484   7.821   5.272
 7153SOL    HW233491   5.417   7.753   5.404
 7154SOL     OW33492   4.152   7.872   4.244
 7154SOL    HW133493   4.182   7.800   4.182
 7154SOL    HW233494   4.113   7.832   4.327
 7155SOL     OW33495   4.041   7.995   5.004
 7155SOL    HW133496   4.079   7.936   5.076
 7155SOL    HW233497   4.081   7.969   4.916
 7156SOL     OW33498   3.949   7.723   6.582
 7156SOL    HW133499   3.984   7.706   6.674
 7156SOL    HW233500   3.861   7.678   6.570
 7157SOL     OW33501   3.743   7.816   6.233
 7157SOL    HW133502   3.661   7.859   6.272
 7157SOL    HW233503   3.715   7.743   6.170
 7158SOL     OW33504   4.859   8.151   6.303
 7158SOL    HW133505   4.916   8.229   6.278
 7158SOL    HW233506   4.799   8.177   6.379
 7159SOL     OW33507   4.492   8.592   6.609
 7159SOL    HW133508   4.414   8.609   6.669
 7159SOL    HW233509   4.526   8.679   6.573
 7160SOL     OW33510   4.574   8.246   7.409
 7160SOL    HW133511   4.570   8.322   7.474
 7160SOL    HW233512   4.596   8.282   7.318
 7161SOL     OW33513   4.409   8.460   6.251
 7161SOL    HW133514   4.478   8.444   6.321
 7161SOL    HW233515   4.336   8.517   6.289
 7162SOL     OW33516   4.162   7.840   7.085
 7162SOL    HW133517   4.244   7.784   7.094
 7162SOL    HW233518   4.081   7.782   7.089
 7163SOL     OW33519   5.327   7.895   6.323
 7163SOL    HW133520   5.253   7.941   6.273
 7163SOL    HW233521   5.378   7.963   6.376
 7164SOL     OW33522   3.964   8.539   6.472
 7164SOL    HW133523   3.978   8.455   6.524
 7164SOL    HW233524   3.909   8.603   6.527
 7165SOL     OW33525   5.318   7.562   7.066
 7165SOL    HW133526   5.300   7.629   6.994
 7165SOL    HW233527   5.315   7.608   7.155
 7166SOL     OW33528   3.846   8.091   6.149
 7166SOL    HW133529   3.801   8.003   6.166
 7166SOL    HW233530   3.845   8.145   6.233
 7167SOL     OW33531   3.837   8.185   7.183
 7167SOL    HW133532   3.925   8.172   7.228
 7167SOL    HW233533   3.824   8.282   7.161
 7168SOL     OW33534   4.533   7.452   6.088
 7168SOL    HW133535   4.573   7.543   6.079
 7168SOL    HW233536   4.433   7.460   6.094
 7169SOL     OW33537   3.921   8.424   6.850
 7169SOL    HW133538   4.010   8.379   6.836
 7169SOL    HW233539   3.848   8.359   6.831
 7170SOL     OW33540   5.249   8.447   5.776
 7170SOL    HW133541   5.186   8.371   5.789
 7170SOL    HW233542   5.297   8.465   5.862
 7171SOL     OW33543   4.041   7.699   7.387
 7171SOL    HW133544   4.112   7.770   7.393
 7171SOL    HW233545   3.953   7.738   7.415
 7172SOL     OW33546   4.322   8.177   5.856
 7172SOL    HW133547   4.346   8.246   5.788
 7172SOL    HW233548   4.244   8.210   5.910
 7173SOL     OW33549   5.005   7.793   6.530
 7173SOL    HW133550   4.919   7.743   6.517
 7173SOL    HW233551   5.067   7.739   6.586
 7174SOL     OW33552   4.531   8.053   7.051
 7174SOL    HW133553   4.484   8.050   7.140
 7174SOL    HW233554   4.480   7.998   6.985
 7175SOL     OW33555   4.697   8.338   7.158
 7175SOL    HW133556   4.743   8.254   7.129
 7175SOL    HW233557   4.641   8.372   7.083
 7176SOL     OW33558   4.715   7.858   6.828
 7176SOL    HW133559   4.638   7.892   6.882
 7176SOL    HW233560   4.681   7.807   6.749
 7177SOL     OW33561   4.765   8.149   6.015
 7177SOL    HW133562   4.791   8.145   6.111
 7177SOL    HW233563   4.680   8.098   6.001
 7178SOL     OW33564   3.800   8.259   6.375
 7178SOL    HW133565   3.899   8.247   6.384
 7178SOL    HW233566   3.776   8.354   6.396
 7179SOL     OW33567   4.589   7.796   5.781
 7179SOL    HW133568   4.648   7.859   5.732
 7179SOL    HW233569   4.608   7.702   5.752
 7180SOL     OW33570   4.274   7.644   6.471
 7180SOL    HW133571   4.269   7.639   6.571
 7180SOL    HW233572   4.276   7.740   6.442
 7181SOL     OW33573   5.182   8.183   6.314
 7181SOL    HW133574   5.177   8.118   6.389
 7181SOL    HW233575   5.262   8.242   6.327
 7182SOL     OW33576   3.926   7.733   7.084
 7182SOL    HW133577   3.846   7.793   7.071
 7182SOL    HW233578   3.916   7.684   7.170
 7183SOL     OW33579   4.106   8.148   6.066
 7183SOL    HW133580   4.151   8.058   6.063
 7183SOL    HW233581   4.012   8.137   6.099
 7184SOL     OW33582   4.338   7.570   5.703
 7184SOL    HW133583   4.436   7.548   5.710
 7184SOL    HW233584   4.307   7.553   5.610
 7185SOL     OW33585   4.505   7.712   7.335
 7185SOL    HW133586   4.572   7.651   7.378
 7185SOL    HW233587   4.432   7.731   7.400
 7186SOL     OW33588   5.075   8.038   7.019
 7186SOL    HW133589   5.103   7.995   7.104
 7186SOL    HW233590   5.100   8.134   7.020
 7187SOL     OW33591   4.646   7.951   6.485
 7187SOL    HW133592   4.621   7.942   6.389
 7187SOL    HW233593   4.694   7.869   6.516
 7188SOL     OW33594   4.263   7.512   6.098
 7188SOL    HW133595   4.182   7.513   6.156
 7188SOL    HW233596   4.266   7.595   6.043
 7189SOL     OW33597   4.021   7.483   5.757
 7189SOL    HW133598   4.070   7.567   5.736
 7189SOL    HW233599   4.083   7.418   5.802
 7190SOL     OW33600   4.659   7.684   6.066
 7190SOL    HW133601   4.611   7.725   5.988
 7190SOL    HW233602   4.758   7.682   6.047
 7191SOL     OW33603   4.800   8.131   7.050
 7191SOL    HW133604   4.720   8.070   7.053
 7191SOL    HW233605   4.881   8.078   7.026
 7192SOL     OW33606   4.756   7.997   5.602
 7192SOL    HW133607   4.715   8.079   5.563
 7192SOL    HW233608   4.820   8.023   5.675
 7193SOL     OW33609   3.802   8.004   6.972
 7193SOL    HW133610   3.894   8.003   6.931
 7193SOL    HW233611   3.796   8.078   7.039
 7194SOL     OW33612   4.285   7.670   6.733
 7194SOL    HW133613   4.323   7.586   6.770
 7194SOL    HW233614   4.197   7.689   6.777
 7195SOL     OW33615   4.590   7.902   6.228
 7195SOL    HW133616   4.558   7.974   6.166
 7195SOL    HW233617   4.614   7.821   6.175
 7196SOL     OW33618   4.741   7.487   6.339
 7196SOL    HW133619   4.669   7.492   6.270
 7196SOL    HW233620   4.717   7.418   6.408
 7197SOL     OW33621   5.190   8.038   6.578
 7197SOL    HW133622   5.160   7.943   6.585
 7197SOL    HW233623   5.263   8.054   6.644
 7198SOL     OW33624   5.581   8.281   5.963
 7198SOL    HW133625   5.623   8.217   6.027
 7198SOL    HW233626   5.543   8.230   5.885
 7199SOL     OW33627   5.114   8.023   5.664
 7199SOL    HW133628   5.060   8.002   5.745
 7199SOL    HW233629   5.205   7.982   5.673
 7200SOL     OW33630   4.251   7.704   5.914
 7200SOL    HW133631   4.278   7.645   5.839
 7200SOL    HW233632   4.251   7.799   5.883
 7201SOL     OW33633   5.362   8.547   6.665
 7201SOL    HW133634   5.367   8.628   6.724
 7201SOL    HW233635   5.276   8.549   6.614
 7202SOL     OW33636   4.639   7.537   6.988
 7202SOL    HW133637   4.664   7.517   6.893
 7202SOL    HW233638   4.711   7.593   7.030
 7203SOL     OW33639   4.134   8.261   6.837
 7203SOL    HW133640   4.220   8.273   6.887
 7203SOL    HW233641   4.092   8.174   6.864
 7204SOL     OW33642   4.998   7.834   6.848
 7204SOL    HW133643   5.019   7.908   6.912
 7204SOL    HW233644   4.909   7.851   6.805
 7205SOL     OW33645   4.290   7.985   6.451
 7205SOL    HW133646   4.302   8.051   6.377
 7205SOL    HW233647   4.336   8.019   6.534
 7206SOL     OW33648   5.306   8.087   6.058
 7206SOL    HW133649   5.275   8.148   6.131
 7206SOL    HW233650   5.356   8.139   5.989
 7207SOL     OW33651   4.126   8.199   7.184
 7207SOL    HW133652   4.194   8.254   7.137
 7207SOL    HW233653   4.166   8.111   7.211
 7208SOL     OW33654   5.311   8.227   7.256
 7208SOL    HW133655   5.219   8.265   7.251
 7208SOL    HW233656   5.371   8.274   7.191
 7209SOL     OW33657   4.297   8.318   6.615
 7209SOL    HW133658   4.341   8.407   6.606
 7209SOL    HW233659   4.234   8.318   6.692
 7210SOL     OW33660   5.084   8.310   6.631
 7210SOL    HW133661   5.009   8.310   6.565
 7210SOL    HW233662   5.121   8.218   6.640
 7211SOL     OW33663   4.933   7.973   5.861
 7211SOL    HW133664   4.946   7.889   5.915
 7211SOL    HW233665   4.904   8.047   5.921
 7212SOL     OW33666   4.031   7.661   6.817
 7212SOL    HW133667   4.008   7.698   6.907
 7212SOL    HW233668   4.001   7.566   6.811
 7213SOL     OW33669   4.456   8.082   6.650
 7213SOL    HW133670   4.515   8.056   6.574
 7213SOL    HW233671   4.428   8.178   6.639
 7214SOL     OW33672   5.452   8.383   7.440
 7214SOL    HW133673   5.406   8.376   7.351
 7214SOL    HW233674   5.390   8.427   7.506
 7215SOL     OW33675   4.031   7.511   6.204
 7215SOL    HW133676   4.020   7.605   6.237
 7215SOL    HW233677   4.026   7.448   6.281
 7216SOL     OW33678   5.346   7.815   5.960
 7216SOL    HW133679   5.348   7.739   6.024
 7216SOL    HW233680   5.298   7.892   6.000
 7217SOL     OW33681   4.747   8.214   6.552
 7217SOL    HW133682   4.762   8.235   6.648
 7217SOL    HW233683   4.717   8.119   6.543
 7218SOL     OW33684   4.074   8.346   7.390
 7218SOL    HW133685   4.150   8.390   7.438
 7218SOL    HW233686   4.109   8.299   7.308
 7219SOL     OW33687   5.264   7.722   5.711
 7219SOL    HW133688   5.203   7.647   5.734
 7219SOL    HW233689   5.286   7.774   5.794
 7220SOL     OW33690   5.027   8.286   5.628
 7220SOL    HW133691   5.061   8.193   5.643
 7220SOL    HW233692   5.045   8.313   5.533
 7221SOL     OW33693   4.043   8.258   6.535
 7221SOL    HW133694   4.136   8.294   6.540
 7221SOL    HW233695   4.037   8.173   6.587
 7222SOL     OW33696   4.063   7.957   6.592
 7222SOL    HW133697   4.011   7.874   6.575
 7222SOL    HW233698   4.140   7.962   6.528
 7223SOL     OW33699   4.862   7.828   7.264
 7223SOL    HW133700   4.817   7.891   7.328
 7223SOL    HW233701   4.955   7.859   7.247
 7224SOL     OW33702   4.884   7.655   7.063
 7224SOL    HW133703   4.884   7.719   7.140
 7224SOL    HW233704   4.912   7.703   6.980
 7225SOL     OW33705   4.726   8.244   6.824
 7225SOL    HW133706   4.767   8.212   6.910
 7225SOL    HW233707   4.630   8.217   6.821
 7226SOL     OW33708   3.764   7.992   6.700
 7226SOL    HW133709   3.849   7.959   6.659
 7226SOL    HW233710   3.777   8.007   6.798
 7227SOL     OW33711   4.539   8.020   5.911
 7227SOL    HW133712   4.546   7.931   5.865
 7227SOL    HW233713   4.445   8.054   5.903
 7228SOL     OW33714   5.381   8.052   6.792
 7228SOL    HW133715   5.343   7.983   6.854
 7228SOL    HW233716   5.463   8.016   6.748
 7229SOL     OW33717   4.395   7.912   6.855
 7229SOL    HW133718   4.361   7.823   6.825
 7229SOL    HW233719   4.421   7.966   6.775
 7230SOL     OW33720   4.197   7.948   5.777
 7230SOL    HW133721   4.258   8.028   5.781
 7230SOL    HW233722   4.102   7.979   5.784
 7231SOL     OW33723   3.883   8.585   7.052
 7231SOL    HW133724   3.905   8.524   7.128
 7231SOL    HW233725   3.893   8.536   6.966
 7232SOL     OW33726   5.071   8.507   6.820
 7232SOL    HW133727   5.095   8.444   6.746
 7232SOL    HW233728   4.981   8.547   6.802
 7233SOL     OW33729   5.026   8.303   5.895
 7233SOL    HW133730   4.940   8.272   5.937
 7233SOL    HW233731   5.022   8.289   5.796
 7234SOL     OW33732   5.450   7.583   6.109
 7234SOL    HW133733   5.523   7.566   6.042
 7234SOL    HW233734   5.419   7.496   6.147
 7235SOL     OW33735   5.004   8.375   6.258
 7235SOL    HW133736   5.064   8.294   6.260
 7235SOL    HW233737   5.044   8.444   6.198
 7236SOL     OW33738   5.565   7.623   6.549
 7236SOL    HW133739   5.604   7.538   6.513
 7236SOL    HW233740   5.467   7.625   6.530
 7237SOL     OW33741   3.987   7.774   6.306
 7237SOL    HW133742   3.908   7.825   6.272
 7237SOL    HW233743   3.978   7.759   6.404
 7238SOL     OW33744   4.738   7.684   6.557
 7238SOL    HW133745   4.730   7.648   6.464
 7238SOL    HW233746   4.736   7.608   6.622
 7239SOL     OW33747   5.433   7.833   6.967
 7239SOL    HW133748   5.506   7.902   6.971
 7239SOL    HW233749   5.461   7.758   6.908
 7240SOL     OW33750   3.829   8.461   7.312
 7240SOL    HW133751   3.752   8.428   7.366
 7240SOL    HW233752   3.914   8.431   7.354
 7241SOL     OW33753   4.396   7.651   7.075
 7241SOL    HW133754   4.486   7.635   7.035
 7241SOL    HW233755   4.404   7.656   7.174
 7242SOL     OW33756   3.799   7.793   5.619
 7242SOL    HW133757   3.707   7.765   5.590
 7242SOL    HW233758   3.830   7.870   5.563
 7243SOL     OW33759   5.164   8.304   6.984
 7243SOL    HW133760   5.107   8.356   6.921
 7243SOL    HW233761   5.260   8.316   6.960
 7244SOL     OW33762   3.796   7.614   5.904
 7244SOL    HW133763   3.779   7.697   5.850
 7244SOL    HW233764   3.886   7.577   5.882
 7245SOL     OW33765   4.337   8.290   7.017
 7245SOL    HW133766   4.393   8.371   7.000
 7245SOL    HW233767   4.396   8.210   7.020
 7246SOL     OW33768   4.440   8.013   7.294
 7246SOL    HW133769   4.459   8.078   7.368
 7246SOL    HW233770   4.500   7.933   7.303
 7247SOL     OW33771   5.398   8.331   6.840
 7247SOL    HW133772   5.371   8.242   6.803
 7247SOL    HW233773   5.399   8.399   6.767
 7248SOL     OW33774   4.949   7.773   6.035
 7248SOL    HW133775   5.014   7.699   6.024
 7248SOL    HW233776   4.969   7.823   6.119
 7249SOL     OW33777   4.318   8.193   6.238
 7249SOL    HW133778   4.368   8.278   6.219
 7249SOL    HW233779   4.230   8.195   6.190
 7250SOL     OW33780   5.501   7.790   7.228
 7250SOL    HW133781   5.484   7.821   7.134
 7250SOL    HW233782   5.417   7.753   7.266
 7251SOL     OW33783   5.454   8.382   7.103
 7251SOL    HW133784   5.492   8.473   7.118
 7251SOL    HW233785   5.446   8.365   7.004
 7252SOL     OW33786   5.548   7.640   6.813
 7252SOL    HW133787   5.544   7.550   6.857
 7252SOL    HW233788   5.551   7.629   6.714
 7253SOL     OW33789   4.152   7.872   6.106
 7253SOL    HW133790   4.182   7.800   6.044
 7253SOL    HW233791   4.113   7.832   6.189
 7254SOL     OW33792   4.041   7.995   6.866
 7254SOL    HW133793   4.079   7.936   6.938
 7254SOL    HW233794   4.081   7.969   6.778
 7255SOL     OW33795   5.148   7.662   6.698
 7255SOL    HW133796   5.200   7.597   6.753
 7255SOL    HW233797   5.099   7.725   6.759
 7256SOL     OW33798   4.725   7.482   6.740
 7256SOL    HW133799   4.662   7.410   6.709
 7256SOL    HW233800   4.818   7.446   6.740
 7257SOL     OW33801   5.024   7.901   6.277
 7257SOL    HW133802   4.965   7.981   6.281
 7257SOL    HW233803   5.039   7.866   6.370
 7258SOL     OW33804   5.317   7.669   6.468
 7258SOL    HW133805   5.233   7.668   6.522
 7258SOL    HW233806   5.319   7.752   6.412
 7259SOL     OW33807   5.816   0.628   0.113
 7259SOL    HW133808   5.723   0.626   0.150
 7259SOL    HW233809   5.817   0.589   0.021
 7260SOL     OW33810   5.811   0.275   0.996
 7260SOL    HW133811   5.846   0.258   1.088
 7260SOL    HW233812   5.723   0.230   0.984
 7261SOL     OW33813   5.605   0.368   0.647
 7261SOL    HW133814   5.523   0.411   0.686
 7261SOL    HW233815   5.577   0.295   0.584
 7262SOL     OW33816   6.155   1.275   1.165
 7262SOL    HW133817   6.062   1.268   1.128
 7262SOL    HW233818   6.166   1.364   1.209
 7263SOL     OW33819   7.141   1.511   0.703
 7263SOL    HW133820   7.084   1.495   0.784
 7263SOL    HW233821   7.082   1.521   0.623
 7264SOL     OW33822   6.721   0.703   0.717
 7264SOL    HW133823   6.778   0.781   0.692
 7264SOL    HW233824   6.661   0.729   0.793
 7265SOL     OW33825   7.341   0.607   0.231
 7265SOL    HW133826   7.329   0.594   0.132
 7265SOL    HW233827   7.311   0.526   0.280
 7266SOL     OW33828   6.354   1.144   1.023
 7266SOL    HW133829   6.276   1.161   1.083
 7266SOL    HW233830   6.388   1.231   0.987
 7267SOL     OW33831   6.436   0.798   1.823
 7267SOL    HW133832   6.432   0.874   1.888
 7267SOL    HW233833   6.458   0.834   1.732
 7268SOL     OW33834   6.271   1.012   0.665
 7268SOL    HW133835   6.340   0.996   0.735
 7268SOL    HW233836   6.198   1.069   0.703
 7269SOL     OW33837   5.921   1.435   1.061
 7269SOL    HW133838   5.843   1.404   1.008
 7269SOL    HW233839   5.979   1.493   1.004
 7270SOL     OW33840   7.046   1.505   1.339
 7270SOL    HW133841   7.070   1.599   1.365
 7270SOL    HW233842   7.030   1.451   1.421
 7271SOL     OW33843   6.024   0.392   1.499
 7271SOL    HW133844   6.106   0.336   1.508
 7271SOL    HW233845   5.943   0.334   1.503
 7272SOL     OW33846   7.189   0.447   0.737
 7272SOL    HW133847   7.115   0.493   0.687
 7272SOL    HW233848   7.240   0.515   0.790
 7273SOL     OW33849   5.817   1.713   0.483
 7273SOL    HW133850   5.851   1.790   0.537
 7273SOL    HW233851   5.861   1.713   0.393
 7274SOL     OW33852   6.713   1.341   1.690
 7274SOL    HW133853   6.760   1.341   1.778
 7274SOL    HW233854   6.665   1.254   1.679
 7275SOL     OW33855   5.816   1.434   0.538
 7275SOL    HW133856   5.790   1.530   0.538
 7275SOL    HW233857   5.745   1.380   0.583
 7276SOL     OW33858   5.826   1.091   0.886
 7276SOL    HW133859   5.840   1.007   0.938
 7276SOL    HW233860   5.771   1.155   0.941
 7277SOL     OW33861   6.206   1.786   1.439
 7277SOL    HW133862   6.114   1.769   1.474
 7277SOL    HW233863   6.234   1.878   1.465
 7278SOL     OW33864   6.192   0.964   0.123
 7278SOL    HW133865   6.199   1.048   0.069
 7278SOL    HW233866   6.238   0.977   0.211
 7279SOL     OW33867   7.180   0.114   1.480
 7279SOL    HW133868   7.162   0.181   1.408
 7279SOL    HW233869   7.177   0.160   1.569
 7280SOL     OW33870   5.708   0.643   0.563
 7280SOL    HW133871   5.663   0.555   0.580
 7280SOL    HW233872   5.707   0.697   0.647
 7281SOL     OW33873   7.428   1.767   0.359
 7281SOL    HW133874   7.482   1.738   0.439
 7281SOL    HW233875   7.458   1.857   0.330
 7282SOL     OW33876   5.613   1.596   0.117
 7282SOL    HW133877   5.594   1.500   0.138
 7282SOL    HW233878   5.580   1.654   0.192
 7283SOL     OW33879   7.275   0.922   0.612
 7283SOL    HW133880   7.370   0.893   0.620
 7283SOL    HW233881   7.267   0.987   0.537
 7284SOL     OW33882   7.227   1.108   0.432
 7284SOL    HW133883   7.313   1.110   0.380
 7284SOL    HW233884   7.241   1.155   0.520
 7285SOL     OW33885   5.699   0.737   1.597
 7285SOL    HW133886   5.787   0.724   1.642
 7285SOL    HW233887   5.686   0.834   1.575
 7286SOL     OW33888   6.199   1.365   0.726
 7286SOL    HW133889   6.150   1.278   0.735
 7286SOL    HW233890   6.176   1.408   0.639
 7287SOL     OW33891   6.879   1.228   1.423
 7287SOL    HW133892   6.916   1.155   1.365
 7287SOL    HW233893   6.931   1.233   1.508
 7288SOL     OW33894   6.395   0.004   0.502
 7288SOL    HW133895   6.435   0.095   0.493
 7288SOL    HW233896   6.295   0.012   0.508
 7289SOL     OW33897   5.783   0.976   1.264
 7289SOL    HW133898   5.872   0.931   1.250
 7289SOL    HW233899   5.710   0.911   1.245
 7290SOL     OW33900   7.111   0.999   0.190
 7290SOL    HW133901   7.048   0.923   0.203
 7290SOL    HW233902   7.159   1.017   0.276
 7291SOL     OW33903   6.773   1.792   1.616
 7291SOL    HW133904   6.797   1.852   1.540
 7291SOL    HW233905   6.780   1.697   1.586
 7292SOL     OW33906   5.903   0.251   1.801
 7292SOL    HW133907   5.974   0.322   1.807
 7292SOL    HW233908   5.815   0.290   1.829
 7293SOL     OW33909   7.052   1.417   0.953
 7293SOL    HW133910   6.993   1.423   1.033
 7293SOL    HW233911   7.037   1.329   0.907
 7294SOL     OW33912   7.253   1.714   0.572
 7294SOL    HW133913   7.212   1.691   0.484
 7294SOL    HW233914   7.235   1.640   0.637
 7295SOL     OW33915   6.184   0.729   0.270
 7295SOL    HW133916   6.208   0.798   0.202
 7295SOL    HW233917   6.106   0.762   0.324
 7296SOL     OW33918   6.867   0.345   0.944
 7296SOL    HW133919   6.781   0.295   0.931
 7296SOL    HW233920   6.929   0.291   1.000
 7297SOL     OW33921   7.162   1.662   0.307
 7297SOL    HW133922   7.251   1.708   0.310
 7297SOL    HW233923   7.141   1.638   0.212
 7298SOL     OW33924   6.393   0.605   1.465
 7298SOL    HW133925   6.346   0.602   1.554
 7298SOL    HW233926   6.342   0.550   1.399
 7299SOL     OW33927   6.559   0.890   1.572
 7299SOL    HW133928   6.605   0.806   1.543
 7299SOL    HW233929   6.503   0.924   1.497
 7300SOL     OW33930   6.577   0.410   1.242
 7300SOL    HW133931   6.500   0.444   1.296
 7300SOL    HW233932   6.543   0.359   1.163
 7301SOL     OW33933   6.627   0.701   0.429
 7301SOL    HW133934   6.653   0.697   0.525
 7301SOL    HW233935   6.542   0.650   0.415
 7302SOL     OW33936   5.662   0.811   0.789
 7302SOL    HW133937   5.761   0.799   0.798
 7302SOL    HW233938   5.638   0.906   0.810
 7303SOL     OW33939   6.451   0.348   0.195
 7303SOL    HW133940   6.510   0.411   0.146
 7303SOL    HW233941   6.470   0.254   0.166
 7304SOL     OW33942   6.948   1.144   0.545
 7304SOL    HW133943   7.031   1.115   0.497
 7304SOL    HW233944   6.899   1.211   0.489
 7305SOL     OW33945   6.136   0.196   0.885
 7305SOL    HW133946   6.131   0.191   0.985
 7305SOL    HW233947   6.138   0.292   0.856
 7306SOL     OW33948   6.594   1.456   0.477
 7306SOL    HW133949   6.548   1.528   0.425
 7306SOL    HW233950   6.590   1.476   0.575
 7307SOL     OW33951   5.937   1.801   0.853
 7307SOL    HW133952   5.987   1.715   0.859
 7307SOL    HW233953   6.002   1.878   0.850
 7308SOL     OW33954   7.381   1.066   0.873
 7308SOL    HW133955   7.319   1.051   0.797
 7308SOL    HW233956   7.329   1.077   0.958
 7309SOL     OW33957   6.813   1.550   1.506
 7309SOL    HW133958   6.819   1.473   1.570
 7309SOL    HW233959   6.761   1.524   1.426
 7310SOL     OW33960   5.907   0.943   0.242
 7310SOL    HW133961   5.989   0.982   0.200
 7310SOL    HW233962   5.880   0.861   0.193
 7311SOL     OW33963   7.044   0.735   0.728
 7311SOL    HW133964   7.039   0.670   0.803
 7311SOL    HW233965   7.124   0.794   0.741
 7312SOL     OW33966   6.047   1.266   1.727
 7312SOL    HW133967   5.997   1.267   1.641
 7312SOL    HW233968   5.984   1.248   1.803
 7313SOL     OW33969   6.697   1.776   0.237
 7313SOL    HW133970   6.637   1.714   0.287
 7313SOL    HW233971   6.728   1.732   0.152
 7314SOL     OW33972   5.788   0.285   1.498
 7314SOL    HW133973   5.708   0.345   1.485
 7314SOL    HW233974   5.778   0.236   1.584
 7315SOL     OW33975   7.218   1.377   0.081
 7315SOL    HW133976   7.186   1.471   0.071
 7315SOL    HW233977   7.142   1.314   0.069
 7316SOL     OW33978   6.050   1.743   0.323
 7316SOL    HW133979   6.083   1.782   0.409
 7316SOL    HW233980   6.126   1.736   0.258
 7317SOL     OW33981   6.986   0.107   0.426
 7317SOL    HW133982   6.962   0.070   0.336
 7317SOL    HW233983   7.085   0.123   0.430
 7318SOL     OW33984   5.835   1.785   1.241
 7318SOL    HW133985   5.892   1.720   1.291
 7318SOL    HW233986   5.819   1.752   1.148
 7319SOL     OW33987   6.526   1.698   0.904
 7319SOL    HW133988   6.606   1.641   0.925
 7319SOL    HW233989   6.477   1.658   0.827
 7320SOL     OW33990   5.968   0.700   0.480
 7320SOL    HW133991   6.013   0.610   0.477
 7320SOL    HW233992   5.874   0.689   0.513
 7321SOL     OW33993   6.200   0.122   0.117
 7321SOL    HW133994   6.298   0.100   0.124
 7321SOL    HW233995   6.169   0.105   0.024
 7322SOL     OW33996   6.474   1.514   1.195
 7322SOL    HW133997   6.451   1.489   1.101
 7322SOL    HW233998   6.535   1.445   1.234
 7323SOL     OW33999   6.389   1.402   0.924
 7323SOL    HW134000   6.479   1.416   0.882
 7323SOL    HW234001   6.318   1.404   0.853
 7324SOL     OW34002   6.508   0.503   0.899
 7324SOL    HW134003   6.483   0.494   0.803
 7324SOL    HW234004   6.556   0.421   0.930
 7325SOL     OW34005   6.125   0.064   0.512
 7325SOL    HW134006   6.044   0.065   0.570
 7325SOL    HW234007   6.128   0.147   0.457
 7326SOL     OW34008   7.020   1.188   0.041
 7326SOL    HW134009   7.052   1.112   0.098
 7326SOL    HW234010   6.928   1.215   0.071
 7327SOL     OW34011   5.883   0.035   0.171
 7327SOL    HW134012   5.932   0.119   0.150
 7327SOL    HW234013   5.945  -0.030   0.216
 7328SOL     OW34014   6.521   0.236   0.480
 7328SOL    HW134015   6.473   0.277   0.402
 7328SOL    HW234016   6.620   0.234   0.461
 7329SOL     OW34017   6.662   0.683   1.464
 7329SOL    HW134018   6.582   0.622   1.467
 7329SOL    HW234019   6.743   0.630   1.440
 7330SOL     OW34020   6.813   1.570   0.793
 7330SOL    HW134021   6.834   1.644   0.728
 7330SOL    HW234022   6.881   1.570   0.866
 7331SOL     OW34023   6.045   1.152   0.741
 7331SOL    HW134024   5.974   1.125   0.806
 7331SOL    HW234025   6.019   1.124   0.648
 7332SOL     OW34026   6.857   1.797   0.591
 7332SOL    HW134027   6.901   1.861   0.527
 7332SOL    HW234028   6.807   1.849   0.661
 7333SOL     OW34029   6.618   0.549   0.016
 7333SOL    HW134030   6.577   0.631  -0.023
 7333SOL    HW234031   6.682   0.575   0.089
 7334SOL     OW34032   5.664   0.556   1.386
 7334SOL    HW134033   5.756   0.555   1.345
 7334SOL    HW234034   5.658   0.630   1.453
 7335SOL     OW34035   6.147   0.222   1.147
 7335SOL    HW134036   6.185   0.138   1.184
 7335SOL    HW234037   6.059   0.241   1.191
 7336SOL     OW34038   6.452   0.454   0.642
 7336SOL    HW134039   6.420   0.526   0.580
 7336SOL    HW234040   6.476   0.373   0.589
 7337SOL     OW34041   6.603   0.039   0.753
 7337SOL    HW134042   6.531   0.044   0.684
 7337SOL    HW234043   6.579  -0.030   0.822
 7338SOL     OW34044   7.015   1.173   0.867
 7338SOL    HW134045   6.960   1.089   0.860
 7338SOL    HW234046   7.041   1.202   0.775
 7339SOL     OW34047   7.052   0.590   0.992
 7339SOL    HW134048   7.022   0.495   0.999
 7339SOL    HW234049   7.125   0.606   1.058
 7340SOL     OW34050   7.443   0.833   0.377
 7340SOL    HW134051   7.485   0.769   0.441
 7340SOL    HW234052   7.405   0.782   0.299
 7341SOL     OW34053   6.074   1.385   0.174
 7341SOL    HW134054   5.987   1.370   0.221
 7341SOL    HW234055   6.057   1.411   0.079
 7342SOL     OW34056   7.250   1.280   0.657
 7342SOL    HW134057   7.349   1.288   0.671
 7342SOL    HW234058   7.205   1.364   0.688
 7343SOL     OW34059   6.976   0.575   0.078
 7343SOL    HW134060   6.922   0.554   0.159
 7343SOL    HW234061   7.067   0.534   0.087
 7344SOL     OW34062   6.113   0.256   0.328
 7344SOL    HW134063   6.140   0.197   0.253
 7344SOL    HW234064   6.113   0.351   0.297
 7345SOL     OW34065   7.340   1.223   1.588
 7345SOL    HW134066   7.431   1.184   1.575
 7345SOL    HW234067   7.348   1.319   1.612
 7346SOL     OW34068   6.650   1.347   1.340
 7346SOL    HW134069   6.570   1.324   1.395
 7346SOL    HW234070   6.733   1.321   1.389
 7347SOL     OW34071   7.178   1.629   1.625
 7347SOL    HW134072   7.205   1.663   1.535
 7347SOL    HW234073   7.257   1.591   1.671
 7348SOL     OW34074   6.697   1.195   1.100
 7348SOL    HW134075   6.657   1.239   1.181
 7348SOL    HW234076   6.656   1.232   1.017
 7349SOL     OW34077   6.501   0.089   1.402
 7349SOL    HW134078   6.526   0.069   1.307
 7349SOL    HW234079   6.573   0.145   1.444
 7350SOL     OW34080   6.566   1.116   1.719
 7350SOL    HW134081   6.467   1.122   1.729
 7350SOL    HW234082   6.589   1.036   1.663
 7351SOL     OW34083   6.291   1.050   0.368
 7351SOL    HW134084   6.277   1.057   0.467
 7351SOL    HW234085   6.375   0.999   0.350
 7352SOL     OW34086   5.996   0.813   1.251
 7352SOL    HW134087   6.082   0.825   1.301
 7352SOL    HW234088   5.954   0.726   1.278
 7353SOL     OW34089   5.650   1.564   1.331
 7353SOL    HW134090   5.604   1.646   1.297
 7353SOL    HW234091   5.748   1.583   1.340
 7354SOL     OW34092   5.953   1.100   0.501
 7354SOL    HW134093   5.946   1.183   0.445
 7354SOL    HW234094   5.957   1.020   0.441
 7355SOL     OW34095   6.152   0.537   0.865
 7355SOL    HW134096   6.164   0.603   0.791
 7355SOL    HW234097   6.198   0.571   0.948
 7356SOL     OW34098   6.838   1.348   0.388
 7356SOL    HW134099   6.888   1.425   0.428
 7356SOL    HW234100   6.743   1.350   0.420
 7357SOL     OW34101   6.858   1.445   1.142
 7357SOL    HW134102   6.905   1.458   1.229
 7357SOL    HW234103   6.792   1.371   1.151
 7358SOL     OW34104   7.168   0.639   0.472
 7358SOL    HW134105   7.137   0.700   0.545
 7358SOL    HW234106   7.218   0.691   0.403
 7359SOL     OW34107   5.940   1.510   1.329
 7359SOL    HW134108   5.919   1.466   1.242
 7359SOL    HW234109   6.037   1.536   1.332
 7360SOL     OW34110   5.988   0.751   1.598
 7360SOL    HW134111   6.056   0.806   1.551
 7360SOL    HW234112   6.028   0.663   1.625
 7361SOL     OW34113   6.090   0.050   1.740
 7361SOL    HW134114   6.048  -0.007   1.670
 7361SOL    HW234115   6.024   0.119   1.772
 7362SOL     OW34116   6.159   0.870   1.029
 7362SOL    HW134117   6.203   0.959   1.020
 7362SOL    HW234118   6.096   0.870   1.106
 7363SOL     OW34119   6.946   0.862   1.045
 7363SOL    HW134120   6.871   0.862   0.979
 7363SOL    HW234121   6.983   0.770   1.054
 7364SOL     OW34122   6.795   0.525   0.275
 7364SOL    HW134123   6.808   0.441   0.329
 7364SOL    HW234124   6.766   0.599   0.335
 7365SOL     OW34125   5.893   0.213   1.231
 7365SOL    HW134126   5.870   0.250   1.321
 7365SOL    HW234127   5.863   0.118   1.225
 7366SOL     OW34128   5.623   1.310   1.282
 7366SOL    HW134129   5.676   1.261   1.350
 7366SOL    HW234130   5.645   1.408   1.287
 7367SOL     OW34131   6.318   0.634   1.064
 7367SOL    HW134132   6.377   0.608   0.988
 7367SOL    HW234133   6.290   0.730   1.053
 7368SOL     OW34134   5.893   0.063   0.618
 7368SOL    HW134135   5.882   0.157   0.651
 7368SOL    HW234136   5.888   0.000   0.695
 7369SOL     OW34137   7.208   0.367   0.374
 7369SOL    HW134138   7.210   0.291   0.438
 7369SOL    HW234139   7.160   0.444   0.414
 7370SOL     OW34140   6.609   0.766   0.966
 7370SOL    HW134141   6.624   0.787   1.062
 7370SOL    HW234142   6.579   0.671   0.957
 7371SOL     OW34143   6.566   1.573   1.700
 7371SOL    HW134144   6.546   1.617   1.612
 7371SOL    HW234145   6.605   1.482   1.684
 7372SOL     OW34146   7.445   1.518   1.605
 7372SOL    HW134147   7.459   1.545   1.510
 7372SOL    HW234148   7.528   1.540   1.658
 7373SOL     OW34149   5.936   0.898   1.804
 7373SOL    HW134150   6.012   0.942   1.852
 7373SOL    HW234151   5.971   0.851   1.722
 7374SOL     OW34152   7.126   0.274   0.125
 7374SOL    HW134153   7.065   0.199   0.148
 7374SOL    HW234154   7.148   0.326   0.208
 7375SOL     OW34155   6.889   0.838   0.042
 7375SOL    HW134156   6.923   0.745   0.057
 7375SOL    HW234157   6.907   0.865  -0.053
 7376SOL     OW34158   6.654   1.333   0.849
 7376SOL    HW134159   6.661   1.249   0.794
 7376SOL    HW234160   6.716   1.402   0.813
 7377SOL     OW34161   5.905   0.810   0.949
 7377SOL    HW134162   5.998   0.846   0.954
 7377SOL    HW234163   5.899   0.725   1.001
 7378SOL     OW34164   5.925   0.509   1.006
 7378SOL    HW134165   5.873   0.426   0.989
 7378SOL    HW234166   6.002   0.514   0.942
 7379SOL     OW34167   5.594   1.326   0.200
 7379SOL    HW134168   5.501   1.347   0.169
 7379SOL    HW234169   5.604   1.227   0.213
 7380SOL     OW34170   5.674   1.801   0.927
 7380SOL    HW134171   5.632   1.715   0.900
 7380SOL    HW234172   5.768   1.804   0.893
 7381SOL     OW34173   6.090   1.568   0.910
 7381SOL    HW134174   6.156   1.642   0.919
 7381SOL    HW234175   6.134   1.489   0.868
 7382SOL     OW34176   6.588   0.796   1.238
 7382SOL    HW134177   6.629   0.764   1.324
 7382SOL    HW234178   6.492   0.769   1.235
 7383SOL     OW34179   5.626   0.544   1.114
 7383SOL    HW134180   5.711   0.511   1.073
 7383SOL    HW234181   5.639   0.559   1.212
 7384SOL     OW34182   5.775   0.520   1.722
 7384SOL    HW134183   5.834   0.480   1.652
 7384SOL    HW234184   5.717   0.591   1.681
 7385SOL     OW34185   6.955   0.950   1.660
 7385SOL    HW134186   6.994   1.039   1.680
 7385SOL    HW234187   6.965   0.930   1.563
 7386SOL     OW34188   6.401   0.572   0.325
 7386SOL    HW134189   6.408   0.483   0.279
 7386SOL    HW234190   6.307   0.606   0.317
 7387SOL     OW34191   5.838   1.564   1.744
 7387SOL    HW134192   5.808   1.621   1.820
 7387SOL    HW234193   5.831   1.467   1.770
 7388SOL     OW34194   6.257   0.464   1.269
 7388SOL    HW134195   6.223   0.375   1.239
 7388SOL    HW234196   6.283   0.518   1.189
 7389SOL     OW34197   6.516   1.678   1.465
 7389SOL    HW134198   6.492   1.660   1.370
 7389SOL    HW234199   6.546   1.772   1.475
 7390SOL     OW34200   6.059   0.500   0.191
 7390SOL    HW134201   6.120   0.580   0.195
 7390SOL    HW234202   5.964   0.531   0.198
 7391SOL     OW34203   5.745   1.137   1.466
 7391SOL    HW134204   5.767   1.076   1.542
 7391SOL    HW234205   5.755   1.088   1.380
 7392SOL     OW34206   6.933   1.059   1.234
 7392SOL    HW134207   6.957   0.996   1.160
 7392SOL    HW234208   6.843   1.099   1.216
 7393SOL     OW34209   6.888   0.855   0.309
 7393SOL    HW134210   6.802   0.824   0.351
 7393SOL    HW234211   6.884   0.841   0.210
 7394SOL     OW34212   7.345   1.747   1.154
 7394SOL    HW134213   7.406   1.777   1.081
 7394SOL    HW234214   7.307   1.658   1.132
 7395SOL     OW34215   6.838   1.731   1.128
 7395SOL    HW134216   6.922   1.736   1.074
 7395SOL    HW234217   6.815   1.635   1.146
 7396SOL     OW34218   5.669   1.258   1.022
 7396SOL    HW134219   5.664   1.257   1.122
 7396SOL    HW234220   5.586   1.217   0.984
 7397SOL     OW34221   6.274   1.662   1.716
 7397SOL    HW134222   6.218   1.743   1.725
 7397SOL    HW234223   6.326   1.666   1.630
 7398SOL     OW34224   6.489   0.086   0.133
 7398SOL    HW134225   6.540   0.087   0.047
 7398SOL    HW234226   6.545   0.044   0.204
 7399SOL     OW34227   7.312   0.135   0.523
 7399SOL    HW134228   7.385   0.118   0.456
 7399SOL    HW234229   7.281   0.048   0.561
 7400SOL     OW34230   6.974   1.573   0.477
 7400SOL    HW134231   7.041   1.585   0.403
 7400SOL    HW234232   6.934   1.662   0.500
 7401SOL     OW34233   5.716   1.794   1.851
 7401SOL    HW134234   5.675   1.720   1.904
 7401SOL    HW234235   5.780   1.845   1.909
 7402SOL     OW34236   6.866   0.927   0.672
 7402SOL    HW134237   6.926   0.846   0.674
 7402SOL    HW234238   6.906   0.996   0.612
 7403SOL     OW34239   6.416   1.273   1.422
 7403SOL    HW134240   6.411   1.306   1.517
 7403SOL    HW234241   6.330   1.292   1.376
 7404SOL     OW34242   6.258   1.616   0.154
 7404SOL    HW134243   6.267   1.626   0.055
 7404SOL    HW234244   6.218   1.527   0.175
 7405SOL     OW34245   7.236   1.720   1.394
 7405SOL    HW134246   7.289   1.730   1.310
 7405SOL    HW234247   7.209   1.810   1.428
 7406SOL     OW34248   7.427   0.175   0.963
 7406SOL    HW134249   7.466   0.090   0.927
 7406SOL    HW234250   7.329   0.177   0.944
 7407SOL     OW34251   5.849   0.326   0.720
 7407SOL    HW134252   5.770   0.377   0.686
 7407SOL    HW234253   5.840   0.311   0.818
 7408SOL     OW34254   6.780   1.612   0.031
 7408SOL    HW134255   6.786   1.519   0.068
 7408SOL    HW234256   6.721   1.612  -0.049
 7409SOL     OW34257   6.408   1.002   1.372
 7409SOL    HW134258   6.448   1.001   1.280
 7409SOL    HW234259   6.418   1.094   1.412
 7410SOL     OW34260   6.502   0.910   0.291
 7410SOL    HW134261   6.565   0.948   0.223
 7410SOL    HW234262   6.542   0.827   0.330
 7411SOL     OW34263   7.090   1.607   0.044
 7411SOL    HW134264   6.998   1.644   0.051
 7411SOL    HW234265   7.128   1.627  -0.046
 7412SOL     OW34266   5.958   1.288   1.490
 7412SOL    HW134267   5.945   1.381   1.456
 7412SOL    HW234268   5.874   1.236   1.477
 7413SOL     OW34269   6.625   1.098   0.696
 7413SOL    HW134270   6.555   1.051   0.750
 7413SOL    HW234271   6.684   1.030   0.653
 7414SOL     OW34272   6.600   0.236   0.971
 7414SOL    HW134273   6.592   0.200   0.878
 7414SOL    HW234274   6.598   0.160   1.036
 7415SOL     OW34275   6.176   1.487   0.491
 7415SOL    HW134276   6.218   1.429   0.421
 7415SOL    HW234277   6.132   1.566   0.447
 7416SOL     OW34278   7.295   0.385   1.381
 7416SOL    HW134279   7.368   0.454   1.385
 7416SOL    HW234280   7.323   0.310   1.322
 7417SOL     OW34281   5.841   1.348   0.290
 7417SOL    HW134282   5.745   1.349   0.263
 7417SOL    HW234283   5.853   1.401   0.374
 7418SOL     OW34284   5.691   1.013   1.726
 7418SOL    HW134285   5.614   0.980   1.780
 7418SOL    HW234286   5.776   0.983   1.768
 7419SOL     OW34287   6.258   0.203   1.489
 7419SOL    HW134288   6.348   0.187   1.449
 7419SOL    HW234289   6.266   0.208   1.588
 7420SOL     OW34290   5.661   0.345   0.033
 7420SOL    HW134291   5.569   0.317   0.004
 7420SOL    HW234292   5.692   0.422  -0.023
 7421SOL     OW34293   5.658   0.166   0.318
 7421SOL    HW134294   5.641   0.249   0.264
 7421SOL    HW234295   5.748   0.129   0.296
 7422SOL     OW34296   6.769   1.335   0.119
 7422SOL    HW134297   6.670   1.324   0.121
 7422SOL    HW234298   6.803   1.350   0.212
 7423SOL     OW34299   6.199   0.842   1.431
 7423SOL    HW134300   6.255   0.923   1.414
 7423SOL    HW234301   6.258   0.762   1.434
 7424SOL     OW34302   7.079   1.767   0.959
 7424SOL    HW134303   7.112   1.831   0.890
 7424SOL    HW234304   7.145   1.761   1.034
 7425SOL     OW34305   7.036   1.220   1.633
 7425SOL    HW134306   7.027   1.210   1.732
 7425SOL    HW234307   7.132   1.213   1.607
 7426SOL     OW34308   5.976   1.741   1.560
 7426SOL    HW134309   5.885   1.782   1.558
 7426SOL    HW234310   5.969   1.647   1.592
 7427SOL     OW34311   6.811   0.325   0.449
 7427SOL    HW134312   6.876   0.251   0.438
 7427SOL    HW234313   6.831   0.375   0.533
 7428SOL     OW34314   6.180   0.745   0.652
 7428SOL    HW134315   6.230   0.830   0.633
 7428SOL    HW234316   6.092   0.747   0.604
 7429SOL     OW34317   7.363   0.342   1.642
 7429SOL    HW134318   7.346   0.373   1.548
 7429SOL    HW234319   7.279   0.305   1.680
 7430SOL     OW34320   6.445   1.374   0.016
 7430SOL    HW134321   6.399   1.389   0.104
 7430SOL    HW234322   6.489   1.459  -0.014
 7431SOL     OW34323   6.247   1.790   0.953
 7431SOL    HW134324   6.201   1.878   0.940
 7431SOL    HW234325   6.346   1.802   0.946
 7432SOL     OW34326   6.445   0.956   0.861
 7432SOL    HW134327   6.499   0.887   0.909
 7432SOL    HW234328   6.413   1.025   0.927
 7433SOL     OW34329   6.669   0.984   0.087
 7433SOL    HW134330   6.646   1.037   0.005
 7433SOL    HW234331   6.750   0.928   0.068
 7434SOL     OW34332   7.447   1.569   0.851
 7434SOL    HW134333   7.376   1.557   0.781
 7434SOL    HW234334   7.448   1.490   0.911
 7435SOL     OW34335   5.807   1.314   1.844
 7435SOL    HW134336   5.742   1.241   1.823
 7435SOL    HW234337   5.811   1.328   1.942
 7436SOL     OW34338   5.665   1.240   0.653
 7436SOL    HW134339   5.664   1.193   0.741
 7436SOL    HW234340   5.747   1.212   0.602
 7437SOL     OW34341   6.258   1.391   1.624
 7437SOL    HW134342   6.180   1.341   1.662
 7437SOL    HW234343   6.255   1.486   1.655
 7438SOL     OW34344   7.410   0.192   1.227
 7438SOL    HW134345   7.406   0.102   1.271
 7438SOL    HW234346   7.413   0.181   1.128
 7439SOL     OW34347   6.014   0.424   0.520
 7439SOL    HW134348   6.044   0.352   0.458
 7439SOL    HW234349   5.975   0.384   0.603
 7440SOL     OW34350   5.903   0.547   1.280
 7440SOL    HW134351   5.941   0.488   1.352
 7440SOL    HW234352   5.943   0.521   1.192
 7441SOL     OW34353   6.398   1.586   0.687
 7441SOL    HW134354   6.430   1.596   0.593
 7441SOL    HW234355   6.319   1.524   0.689
 7442SOL     OW34356   7.010   0.214   1.112
 7442SOL    HW134357   7.062   0.149   1.167
 7442SOL    HW234358   6.961   0.277   1.173
 7443SOL     OW34359   6.587   0.034   1.154
 7443SOL    HW134360   6.524  -0.038   1.123
 7443SOL    HW234361   6.680  -0.002   1.154
 7444SOL     OW34362   6.356   1.330   0.301
 7444SOL    HW134363   6.310   1.243   0.318
 7444SOL    HW234364   6.447   1.327   0.342
 7445SOL     OW34365   6.204   1.567   1.284
 7445SOL    HW134366   6.199   1.649   1.341
 7445SOL    HW234367   6.293   1.564   1.239
 7446SOL     OW34368   6.938   0.052   0.168
 7446SOL    HW134369   6.973   0.011   0.084
 7446SOL    HW234370   6.848   0.014   0.188
 7447SOL     OW34371   6.886   0.453   0.691
 7447SOL    HW134372   6.827   0.533   0.695
 7447SOL    HW234373   6.901   0.418   0.784
 7448SOL     OW34374   7.179   0.221   0.882
 7448SOL    HW134375   7.095   0.220   0.936
 7448SOL    HW234376   7.181   0.304   0.826
 7449SOL     OW34377   5.625   1.077   0.300
 7449SOL    HW134378   5.724   1.066   0.291
 7449SOL    HW234379   5.585   0.991   0.332
 7450SOL     OW34380   6.461   1.646   0.337
 7450SOL    HW134381   6.384   1.611   0.283
 7450SOL    HW234382   6.429   1.717   0.399
 7451SOL     OW34383   5.816   0.628   1.975
 7451SOL    HW134384   5.723   0.626   2.012
 7451SOL    HW234385   5.817   0.589   1.883
 7452SOL     OW34386   5.811   0.275   2.858
 7452SOL    HW134387   5.846   0.258   2.950
 7452SOL    HW234388   5.723   0.230   2.846
 7453SOL     OW34389   6.436   0.798   3.685
 7453SOL    HW134390   6.432   0.874   3.750
 7453SOL    HW234391   6.458   0.834   3.594
 7454SOL     OW34392   5.817   1.713   2.345
 7454SOL    HW134393   5.851   1.790   2.399
 7454SOL    HW234394   5.861   1.713   2.255
 7455SOL     OW34395   5.816   1.434   2.400
 7455SOL    HW134396   5.790   1.530   2.400
 7455SOL    HW234397   5.745   1.380   2.445
 7456SOL     OW34398   6.192   0.964   1.985
 7456SOL    HW134399   6.199   1.048   1.931
 7456SOL    HW234400   6.238   0.977   2.073
 7457SOL     OW34401   7.428   1.767   2.221
 7457SOL    HW134402   7.482   1.738   2.301
 7457SOL    HW234403   7.458   1.857   2.192
 7458SOL     OW34404   6.199   1.365   2.588
 7458SOL    HW134405   6.150   1.278   2.597
 7458SOL    HW234406   6.176   1.408   2.501
 7459SOL     OW34407   6.184   0.729   2.132
 7459SOL    HW134408   6.208   0.798   2.064
 7459SOL    HW234409   6.106   0.762   2.186
 7460SOL     OW34410   6.559   0.890   3.434
 7460SOL    HW134411   6.605   0.806   3.405
 7460SOL    HW234412   6.503   0.924   3.359
 7461SOL     OW34413   6.594   1.456   2.339
 7461SOL    HW134414   6.548   1.528   2.287
 7461SOL    HW234415   6.590   1.476   2.437
 7462SOL     OW34416   5.937   1.801   2.715
 7462SOL    HW134417   5.987   1.715   2.721
 7462SOL    HW234418   6.002   1.878   2.712
 7463SOL     OW34419   6.813   1.550   3.368
 7463SOL    HW134420   6.819   1.473   3.432
 7463SOL    HW234421   6.761   1.524   3.288
 7464SOL     OW34422   7.044   0.735   2.590
 7464SOL    HW134423   7.039   0.670   2.665
 7464SOL    HW234424   7.124   0.794   2.603
 7465SOL     OW34425   6.697   1.776   2.099
 7465SOL    HW134426   6.637   1.714   2.149
 7465SOL    HW234427   6.728   1.732   2.014
 7466SOL     OW34428   5.788   0.285   3.360
 7466SOL    HW134429   5.708   0.345   3.347
 7466SOL    HW234430   5.778   0.236   3.446
 7467SOL     OW34431   6.050   1.743   2.185
 7467SOL    HW134432   6.083   1.782   2.271
 7467SOL    HW234433   6.126   1.736   2.120
 7468SOL     OW34434   5.968   0.700   2.342
 7468SOL    HW134435   6.013   0.610   2.339
 7468SOL    HW234436   5.874   0.689   2.375
 7469SOL     OW34437   6.200   0.122   1.979
 7469SOL    HW134438   6.298   0.100   1.986
 7469SOL    HW234439   6.169   0.105   1.886
 7470SOL     OW34440   6.367   0.264   3.611
 7470SOL    HW134441   6.434   0.203   3.654
 7470SOL    HW234442   6.294   0.283   3.676
 7471SOL     OW34443   6.474   1.514   3.057
 7471SOL    HW134444   6.451   1.489   2.963
 7471SOL    HW234445   6.535   1.445   3.096
 7472SOL     OW34446   6.508   0.503   2.761
 7472SOL    HW134447   6.483   0.494   2.665
 7472SOL    HW234448   6.556   0.421   2.792
 7473SOL     OW34449   7.020   1.188   1.903
 7473SOL    HW134450   7.052   1.112   1.960
 7473SOL    HW234451   6.928   1.215   1.933
 7474SOL     OW34452   5.883   0.035   2.033
 7474SOL    HW134453   5.932   0.119   2.012
 7474SOL    HW234454   5.945  -0.030   2.078
 7475SOL     OW34455   6.813   1.570   2.655
 7475SOL    HW134456   6.834   1.644   2.590
 7475SOL    HW234457   6.881   1.570   2.728
 7476SOL     OW34458   6.857   1.797   2.453
 7476SOL    HW134459   6.901   1.861   2.389
 7476SOL    HW234460   6.807   1.849   2.523
 7477SOL     OW34461   6.618   0.549   1.878
 7477SOL    HW134462   6.577   0.631   1.839
 7477SOL    HW234463   6.682   0.575   1.951
 7478SOL     OW34464   7.250   1.280   2.519
 7478SOL    HW134465   7.349   1.288   2.533
 7478SOL    HW234466   7.205   1.364   2.550
 7479SOL     OW34467   6.113   0.256   2.190
 7479SOL    HW134468   6.140   0.197   2.115
 7479SOL    HW234469   6.113   0.351   2.159
 7480SOL     OW34470   7.178   1.629   3.487
 7480SOL    HW134471   7.205   1.663   3.397
 7480SOL    HW234472   7.257   1.591   3.533
 7481SOL     OW34473   7.224   1.099   2.941
 7481SOL    HW134474   7.229   1.180   3.000
 7481SOL    HW234475   7.138   1.101   2.890
 7482SOL     OW34476   6.860   0.386   3.124
 7482SOL    HW134477   6.881   0.460   3.188
 7482SOL    HW234478   6.771   0.403   3.081
 7483SOL     OW34479   6.838   1.348   2.250
 7483SOL    HW134480   6.888   1.425   2.290
 7483SOL    HW234481   6.743   1.350   2.282
 7484SOL     OW34482   5.988   0.751   3.460
 7484SOL    HW134483   6.056   0.806   3.413
 7484SOL    HW234484   6.028   0.663   3.487
 7485SOL     OW34485   7.173   0.779   3.532
 7485SOL    HW134486   7.081   0.817   3.527
 7485SOL    HW234487   7.233   0.826   3.467
 7486SOL     OW34488   6.318   0.634   2.926
 7486SOL    HW134489   6.377   0.608   2.850
 7486SOL    HW234490   6.290   0.730   2.915
 7487SOL     OW34491   7.314   0.935   3.716
 7487SOL    HW134492   7.268   0.928   3.627
 7487SOL    HW234493   7.252   0.979   3.782
 7488SOL     OW34494   6.566   1.573   3.562
 7488SOL    HW134495   6.546   1.617   3.474
 7488SOL    HW234496   6.605   1.482   3.546
 7489SOL     OW34497   7.445   1.518   3.467
 7489SOL    HW134498   7.459   1.545   3.372
 7489SOL    HW234499   7.528   1.540   3.520
 7490SOL     OW34500   7.126   0.274   1.987
 7490SOL    HW134501   7.065   0.199   2.010
 7490SOL    HW234502   7.148   0.326   2.070
 7491SOL     OW34503   5.838   1.564   3.606
 7491SOL    HW134504   5.808   1.621   3.682
 7491SOL    HW234505   5.831   1.467   3.632
 7492SOL     OW34506   6.257   0.464   3.131
 7492SOL    HW134507   6.223   0.375   3.101
 7492SOL    HW234508   6.283   0.518   3.051
 7493SOL     OW34509   6.059   0.500   2.053
 7493SOL    HW134510   6.120   0.580   2.057
 7493SOL    HW234511   5.964   0.531   2.060
 7494SOL     OW34512   5.669   1.258   2.884
 7494SOL    HW134513   5.664   1.257   2.984
 7494SOL    HW234514   5.586   1.217   2.846
 7495SOL     OW34515   5.849   0.326   2.582
 7495SOL    HW134516   5.770   0.377   2.548
 7495SOL    HW234517   5.840   0.311   2.680
 7496SOL     OW34518   6.780   1.612   1.893
 7496SOL    HW134519   6.786   1.519   1.930
 7496SOL    HW234520   6.721   1.612   1.813
 7497SOL     OW34521   6.408   1.002   3.234
 7497SOL    HW134522   6.448   1.001   3.142
 7497SOL    HW234523   6.418   1.094   3.274
 7498SOL     OW34524   6.502   0.910   2.153
 7498SOL    HW134525   6.565   0.948   2.085
 7498SOL    HW234526   6.542   0.827   2.192
 7499SOL     OW34527   7.090   1.607   1.906
 7499SOL    HW134528   6.998   1.644   1.913
 7499SOL    HW234529   7.128   1.627   1.816
 7500SOL     OW34530   5.958   1.288   3.352
 7500SOL    HW134531   5.945   1.381   3.318
 7500SOL    HW234532   5.874   1.236   3.339
 7501SOL     OW34533   6.176   1.487   2.353
 7501SOL    HW134534   6.218   1.429   2.283
 7501SOL    HW234535   6.132   1.566   2.309
 7502SOL     OW34536   5.661   0.345   1.895
 7502SOL    HW134537   5.569   0.317   1.866
 7502SOL    HW234538   5.692   0.422   1.839
 7503SOL     OW34539   6.769   1.335   1.981
 7503SOL    HW134540   6.670   1.324   1.983
 7503SOL    HW234541   6.803   1.350   2.074
 7504SOL     OW34542   7.260   0.883   3.116
 7504SOL    HW134543   7.233   0.794   3.079
 7504SOL    HW234544   7.261   0.951   3.043
 7505SOL     OW34545   7.363   0.342   3.504
 7505SOL    HW134546   7.346   0.373   3.410
 7505SOL    HW234547   7.279   0.305   3.542
 7506SOL     OW34548   6.445   0.956   2.723
 7506SOL    HW134549   6.499   0.887   2.771
 7506SOL    HW234550   6.413   1.025   2.789
 7507SOL     OW34551   7.447   1.569   2.713
 7507SOL    HW134552   7.376   1.557   2.643
 7507SOL    HW234553   7.448   1.490   2.773
 7508SOL     OW34554   5.807   1.314   3.706
 7508SOL    HW134555   5.742   1.241   3.685
 7508SOL    HW234556   5.811   1.328   3.804
 7509SOL     OW34557   5.665   1.240   2.515
 7509SOL    HW134558   5.664   1.193   2.603
 7509SOL    HW234559   5.747   1.212   2.464
 7510SOL     OW34560   7.010   0.214   2.974
 7510SOL    HW134561   7.062   0.149   3.029
 7510SOL    HW234562   6.961   0.277   3.035
 7511SOL     OW34563   6.938   0.052   2.030
 7511SOL    HW134564   6.973   0.011   1.946
 7511SOL    HW234565   6.848   0.014   2.050
 7512SOL     OW34566   7.179   0.221   2.744
 7512SOL    HW134567   7.095   0.220   2.798
 7512SOL    HW234568   7.181   0.304   2.688
 7513SOL     OW34569   5.625   1.077   2.162
 7513SOL    HW134570   5.724   1.066   2.153
 7513SOL    HW234571   5.585   0.991   2.194
 7514SOL     OW34572   6.461   1.646   2.199
 7514SOL    HW134573   6.384   1.611   2.145
 7514SOL    HW234574   6.429   1.717   2.261
 7515SOL     OW34575   5.605   0.368   4.371
 7515SOL    HW134576   5.523   0.411   4.410
 7515SOL    HW234577   5.577   0.295   4.308
 7516SOL     OW34578   6.155   1.275   4.889
 7516SOL    HW134579   6.062   1.268   4.852
 7516SOL    HW234580   6.166   1.364   4.933
 7517SOL     OW34581   6.024   0.392   5.223
 7517SOL    HW134582   6.106   0.336   5.232
 7517SOL    HW234583   5.943   0.334   5.227
 7518SOL     OW34584   7.189   0.447   4.461
 7518SOL    HW134585   7.115   0.493   4.411
 7518SOL    HW234586   7.240   0.515   4.514
 7519SOL     OW34587   5.817   1.713   4.207
 7519SOL    HW134588   5.851   1.790   4.261
 7519SOL    HW234589   5.861   1.713   4.117
 7520SOL     OW34590   5.826   1.091   4.610
 7520SOL    HW134591   5.840   1.007   4.662
 7520SOL    HW234592   5.771   1.155   4.665
 7521SOL     OW34593   6.206   1.786   5.163
 7521SOL    HW134594   6.114   1.769   5.198
 7521SOL    HW234595   6.234   1.878   5.189
 7522SOL     OW34596   7.428   1.767   4.083
 7522SOL    HW134597   7.482   1.738   4.163
 7522SOL    HW234598   7.458   1.857   4.054
 7523SOL     OW34599   7.275   0.922   4.336
 7523SOL    HW134600   7.370   0.893   4.344
 7523SOL    HW234601   7.267   0.987   4.261
 7524SOL     OW34602   7.227   1.108   4.156
 7524SOL    HW134603   7.313   1.110   4.104
 7524SOL    HW234604   7.241   1.155   4.244
 7525SOL     OW34605   5.783   0.976   4.988
 7525SOL    HW134606   5.872   0.931   4.974
 7525SOL    HW234607   5.710   0.911   4.969
 7526SOL     OW34608   7.253   1.714   4.296
 7526SOL    HW134609   7.212   1.691   4.208
 7526SOL    HW234610   7.235   1.640   4.361
 7527SOL     OW34611   6.451   0.348   3.919
 7527SOL    HW134612   6.510   0.411   3.870
 7527SOL    HW234613   6.470   0.254   3.890
 7528SOL     OW34614   6.136   0.196   4.609
 7528SOL    HW134615   6.131   0.191   4.709
 7528SOL    HW234616   6.138   0.292   4.580
 7529SOL     OW34617   5.907   0.943   3.966
 7529SOL    HW134618   5.989   0.982   3.924
 7529SOL    HW234619   5.880   0.861   3.917
 7530SOL     OW34620   7.218   1.377   3.805
 7530SOL    HW134621   7.186   1.471   3.795
 7530SOL    HW234622   7.142   1.314   3.793
 7531SOL     OW34623   6.050   1.743   4.047
 7531SOL    HW134624   6.083   1.782   4.133
 7531SOL    HW234625   6.126   1.736   3.982
 7532SOL     OW34626   5.835   1.785   4.965
 7532SOL    HW134627   5.892   1.720   5.015
 7532SOL    HW234628   5.819   1.752   4.872
 7533SOL     OW34629   6.474   1.514   4.919
 7533SOL    HW134630   6.451   1.489   4.825
 7533SOL    HW234631   6.535   1.445   4.958
 7534SOL     OW34632   6.937   0.590   5.157
 7534SOL    HW134633   6.965   0.547   5.242
 7534SOL    HW234634   6.962   0.686   5.158
 7535SOL     OW34635   6.389   1.402   4.648
 7535SOL    HW134636   6.479   1.416   4.606
 7535SOL    HW234637   6.318   1.404   4.577
 7536SOL     OW34638   6.618   0.549   3.740
 7536SOL    HW134639   6.577   0.631   3.701
 7536SOL    HW234640   6.682   0.575   3.813
 7537SOL     OW34641   5.664   0.556   5.110
 7537SOL    HW134642   5.756   0.555   5.069
 7537SOL    HW234643   5.658   0.630   5.177
 7538SOL     OW34644   6.501   0.089   5.126
 7538SOL    HW134645   6.526   0.069   5.031
 7538SOL    HW234646   6.573   0.145   5.168
 7539SOL     OW34647   6.291   1.050   4.092
 7539SOL    HW134648   6.277   1.057   4.191
 7539SOL    HW234649   6.375   0.999   4.074
 7540SOL     OW34650   6.152   0.537   4.589
 7540SOL    HW134651   6.164   0.603   4.515
 7540SOL    HW234652   6.198   0.571   4.672
 7541SOL     OW34653   6.946   0.862   4.769
 7541SOL    HW134654   6.871   0.862   4.703
 7541SOL    HW234655   6.983   0.770   4.778
 7542SOL     OW34656   6.318   0.634   4.788
 7542SOL    HW134657   6.377   0.608   4.712
 7542SOL    HW234658   6.290   0.730   4.777
 7543SOL     OW34659   6.566   1.573   5.424
 7543SOL    HW134660   6.546   1.617   5.336
 7543SOL    HW234661   6.605   1.482   5.408
 7544SOL     OW34662   6.889   0.838   3.766
 7544SOL    HW134663   6.923   0.745   3.781
 7544SOL    HW234664   6.907   0.865   3.671
 7545SOL     OW34665   5.905   0.810   4.673
 7545SOL    HW134666   5.998   0.846   4.678
 7545SOL    HW234667   5.899   0.725   4.725
 7546SOL     OW34668   5.594   1.326   3.924
 7546SOL    HW134669   5.501   1.347   3.893
 7546SOL    HW234670   5.604   1.227   3.937
 7547SOL     OW34671   6.588   0.796   4.962
 7547SOL    HW134672   6.629   0.764   5.048
 7547SOL    HW234673   6.492   0.769   4.959
 7548SOL     OW34674   5.626   0.544   4.838
 7548SOL    HW134675   5.711   0.511   4.797
 7548SOL    HW234676   5.639   0.559   4.936
 7549SOL     OW34677   5.775   0.520   5.446
 7549SOL    HW134678   5.834   0.480   5.376
 7549SOL    HW234679   5.717   0.591   5.405
 7550SOL     OW34680   6.401   0.572   4.049
 7550SOL    HW134681   6.408   0.483   4.003
 7550SOL    HW234682   6.307   0.606   4.041
 7551SOL     OW34683   5.838   1.564   5.468
 7551SOL    HW134684   5.808   1.621   5.544
 7551SOL    HW234685   5.831   1.467   5.494
 7552SOL     OW34686   6.838   1.731   4.852
 7552SOL    HW134687   6.922   1.736   4.798
 7552SOL    HW234688   6.815   1.635   4.870
 7553SOL     OW34689   6.416   1.273   5.146
 7553SOL    HW134690   6.411   1.306   5.241
 7553SOL    HW234691   6.330   1.292   5.100
 7554SOL     OW34692   6.258   1.616   3.878
 7554SOL    HW134693   6.267   1.626   3.779
 7554SOL    HW234694   6.218   1.527   3.899
 7555SOL     OW34695   7.090   1.607   3.768
 7555SOL    HW134696   6.998   1.644   3.775
 7555SOL    HW234697   7.128   1.627   3.678
 7556SOL     OW34698   6.600   0.236   4.695
 7556SOL    HW134699   6.592   0.200   4.602
 7556SOL    HW234700   6.598   0.160   4.760
 7557SOL     OW34701   6.176   1.487   4.215
 7557SOL    HW134702   6.218   1.429   4.145
 7557SOL    HW234703   6.132   1.566   4.171
 7558SOL     OW34704   6.769   1.335   3.843
 7558SOL    HW134705   6.670   1.324   3.845
 7558SOL    HW234706   6.803   1.350   3.936
 7559SOL     OW34707   7.079   1.767   4.683
 7559SOL    HW134708   7.112   1.831   4.614
 7559SOL    HW234709   7.145   1.761   4.758
 7560SOL     OW34710   6.445   1.374   3.740
 7560SOL    HW134711   6.399   1.389   3.828
 7560SOL    HW234712   6.489   1.459   3.710
 7561SOL     OW34713   6.247   1.790   4.677
 7561SOL    HW134714   6.201   1.878   4.664
 7561SOL    HW234715   6.346   1.802   4.670
 7562SOL     OW34716   6.669   0.984   3.811
 7562SOL    HW134717   6.646   1.037   3.729
 7562SOL    HW234718   6.750   0.928   3.792
 7563SOL     OW34719   7.410   0.192   4.951
 7563SOL    HW134720   7.406   0.102   4.995
 7563SOL    HW234721   7.413   0.181   4.852
 7564SOL     OW34722   6.014   0.424   4.244
 7564SOL    HW134723   6.044   0.352   4.182
 7564SOL    HW234724   5.975   0.384   4.327
 7565SOL     OW34725   5.903   0.547   5.004
 7565SOL    HW134726   5.941   0.488   5.076
 7565SOL    HW234727   5.943   0.521   4.916
 7566SOL     OW34728   7.010   0.214   4.836
 7566SOL    HW134729   7.062   0.149   4.891
 7566SOL    HW234730   6.961   0.277   4.897
 7567SOL     OW34731   6.886   0.453   4.415
 7567SOL    HW134732   6.827   0.533   4.419
 7567SOL    HW234733   6.901   0.418   4.508
 7568SOL     OW34734   7.179   0.221   4.606
 7568SOL    HW134735   7.095   0.220   4.660
 7568SOL    HW234736   7.181   0.304   4.550
 7569SOL     OW34737   6.461   1.646   4.061
 7569SOL    HW134738   6.384   1.611   4.007
 7569SOL    HW234739   6.429   1.717   4.123
 7570SOL     OW34740   5.816   0.628   5.699
 7570SOL    HW134741   5.723   0.626   5.736
 7570SOL    HW234742   5.817   0.589   5.607
 7571SOL     OW34743   5.811   0.275   6.582
 7571SOL    HW134744   5.846   0.258   6.674
 7571SOL    HW234745   5.723   0.230   6.570
 7572SOL     OW34746   5.605   0.368   6.233
 7572SOL    HW134747   5.523   0.411   6.272
 7572SOL    HW234748   5.577   0.295   6.170
 7573SOL     OW34749   6.155   1.275   6.751
 7573SOL    HW134750   6.062   1.268   6.714
 7573SOL    HW234751   6.166   1.364   6.795
 7574SOL     OW34752   7.141   1.511   6.289
 7574SOL    HW134753   7.084   1.495   6.370
 7574SOL    HW234754   7.082   1.521   6.209
 7575SOL     OW34755   6.721   0.703   6.303
 7575SOL    HW134756   6.778   0.781   6.278
 7575SOL    HW234757   6.661   0.729   6.379
 7576SOL     OW34758   6.354   1.144   6.609
 7576SOL    HW134759   6.276   1.161   6.669
 7576SOL    HW234760   6.388   1.231   6.573
 7577SOL     OW34761   6.436   0.798   7.409
 7577SOL    HW134762   6.432   0.874   7.474
 7577SOL    HW234763   6.458   0.834   7.318
 7578SOL     OW34764   6.271   1.012   6.251
 7578SOL    HW134765   6.340   0.996   6.321
 7578SOL    HW234766   6.198   1.069   6.289
 7579SOL     OW34767   6.272   1.161   7.389
 7579SOL    HW134768   6.332   1.240   7.403
 7579SOL    HW234769   6.186   1.192   7.348
 7580SOL     OW34770   5.921   1.435   6.647
 7580SOL    HW134771   5.843   1.404   6.594
 7580SOL    HW234772   5.979   1.493   6.590
 7581SOL     OW34773   7.046   1.505   6.925
 7581SOL    HW134774   7.070   1.599   6.951
 7581SOL    HW234775   7.030   1.451   7.007
 7582SOL     OW34776   6.024   0.392   7.085
 7582SOL    HW134777   6.106   0.336   7.094
 7582SOL    HW234778   5.943   0.334   7.089
 7583SOL     OW34779   7.189   0.447   6.323
 7583SOL    HW134780   7.115   0.493   6.273
 7583SOL    HW234781   7.240   0.515   6.376
 7584SOL     OW34782   6.713   1.341   7.276
 7584SOL    HW134783   6.760   1.341   7.364
 7584SOL    HW234784   6.665   1.254   7.265
 7585SOL     OW34785   5.816   1.434   6.124
 7585SOL    HW134786   5.790   1.530   6.124
 7585SOL    HW234787   5.745   1.380   6.169
 7586SOL     OW34788   5.826   1.091   6.472
 7586SOL    HW134789   5.840   1.007   6.524
 7586SOL    HW234790   5.771   1.155   6.527
 7587SOL     OW34791   6.206   1.786   7.025
 7587SOL    HW134792   6.114   1.769   7.060
 7587SOL    HW234793   6.234   1.878   7.051
 7588SOL     OW34794   6.192   0.964   5.709
 7588SOL    HW134795   6.199   1.048   5.655
 7588SOL    HW234796   6.238   0.977   5.797
 7589SOL     OW34797   7.180   0.114   7.066
 7589SOL    HW134798   7.162   0.181   6.994
 7589SOL    HW234799   7.177   0.160   7.155
 7590SOL     OW34800   5.708   0.643   6.149
 7590SOL    HW134801   5.663   0.555   6.166
 7590SOL    HW234802   5.707   0.697   6.233
 7591SOL     OW34803   7.275   0.922   6.198
 7591SOL    HW134804   7.370   0.893   6.206
 7591SOL    HW234805   7.267   0.987   6.123
 7592SOL     OW34806   7.227   1.108   6.018
 7592SOL    HW134807   7.313   1.110   5.966
 7592SOL    HW234808   7.241   1.155   6.106
 7593SOL     OW34809   5.699   0.737   7.183
 7593SOL    HW134810   5.787   0.724   7.228
 7593SOL    HW234811   5.686   0.834   7.161
 7594SOL     OW34812   6.879   1.228   7.009
 7594SOL    HW134813   6.916   1.155   6.951
 7594SOL    HW234814   6.931   1.233   7.094
 7595SOL     OW34815   6.395   0.004   6.088
 7595SOL    HW134816   6.435   0.095   6.079
 7595SOL    HW234817   6.295   0.012   6.094
 7596SOL     OW34818   5.783   0.976   6.850
 7596SOL    HW134819   5.872   0.931   6.836
 7596SOL    HW234820   5.710   0.911   6.831
 7597SOL     OW34821   6.773   1.792   7.202
 7597SOL    HW134822   6.797   1.852   7.126
 7597SOL    HW234823   6.780   1.697   7.172
 7598SOL     OW34824   5.903   0.251   7.387
 7598SOL    HW134825   5.974   0.322   7.393
 7598SOL    HW234826   5.815   0.290   7.415
 7599SOL     OW34827   7.052   1.417   6.539
 7599SOL    HW134828   6.993   1.423   6.619
 7599SOL    HW234829   7.037   1.329   6.493
 7600SOL     OW34830   6.867   0.345   6.530
 7600SOL    HW134831   6.781   0.295   6.517
 7600SOL    HW234832   6.929   0.291   6.586
 7601SOL     OW34833   6.393   0.605   7.051
 7601SOL    HW134834   6.346   0.602   7.140
 7601SOL    HW234835   6.342   0.550   6.985
 7602SOL     OW34836   6.559   0.890   7.158
 7602SOL    HW134837   6.605   0.806   7.129
 7602SOL    HW234838   6.503   0.924   7.083
 7603SOL     OW34839   6.577   0.410   6.828
 7603SOL    HW134840   6.500   0.444   6.882
 7603SOL    HW234841   6.543   0.359   6.749
 7604SOL     OW34842   5.662   0.811   6.375
 7604SOL    HW134843   5.761   0.799   6.384
 7604SOL    HW234844   5.638   0.906   6.396
 7605SOL     OW34845   5.716   1.821   7.157
 7605SOL    HW134846   5.706   1.806   7.256
 7605SOL    HW234847   5.630   1.857   7.121
 7606SOL     OW34848   6.451   0.348   5.781
 7606SOL    HW134849   6.510   0.411   5.732
 7606SOL    HW234850   6.470   0.254   5.752
 7607SOL     OW34851   6.948   1.144   6.131
 7607SOL    HW134852   7.031   1.115   6.083
 7607SOL    HW234853   6.899   1.211   6.075
 7608SOL     OW34854   6.136   0.196   6.471
 7608SOL    HW134855   6.131   0.191   6.571
 7608SOL    HW234856   6.138   0.292   6.442
 7609SOL     OW34857   7.381   1.066   6.459
 7609SOL    HW134858   7.319   1.051   6.383
 7609SOL    HW234859   7.329   1.077   6.544
 7610SOL     OW34860   6.813   1.550   7.092
 7610SOL    HW134861   6.819   1.473   7.156
 7610SOL    HW234862   6.761   1.524   7.012
 7611SOL     OW34863   5.907   0.943   5.828
 7611SOL    HW134864   5.989   0.982   5.786
 7611SOL    HW234865   5.880   0.861   5.779
 7612SOL     OW34866   7.044   0.735   6.314
 7612SOL    HW134867   7.039   0.670   6.389
 7612SOL    HW234868   7.124   0.794   6.327
 7613SOL     OW34869   6.047   1.266   7.313
 7613SOL    HW134870   5.997   1.267   7.227
 7613SOL    HW234871   5.984   1.248   7.389
 7614SOL     OW34872   6.697   1.776   5.823
 7614SOL    HW134873   6.637   1.714   5.873
 7614SOL    HW234874   6.728   1.732   5.738
 7615SOL     OW34875   5.788   0.285   7.084
 7615SOL    HW134876   5.708   0.345   7.071
 7615SOL    HW234877   5.778   0.236   7.170
 7616SOL     OW34878   6.050   1.743   5.909
 7616SOL    HW134879   6.083   1.782   5.995
 7616SOL    HW234880   6.126   1.736   5.844
 7617SOL     OW34881   6.986   0.107   6.012
 7617SOL    HW134882   6.962   0.070   5.922
 7617SOL    HW234883   7.085   0.123   6.016
 7618SOL     OW34884   5.835   1.785   6.827
 7618SOL    HW134885   5.892   1.720   6.877
 7618SOL    HW234886   5.819   1.752   6.734
 7619SOL     OW34887   6.526   1.698   6.490
 7619SOL    HW134888   6.606   1.641   6.511
 7619SOL    HW234889   6.477   1.658   6.413
 7620SOL     OW34890   5.968   0.700   6.066
 7620SOL    HW134891   6.013   0.610   6.063
 7620SOL    HW234892   5.874   0.689   6.099
 7621SOL     OW34893   6.367   0.264   7.335
 7621SOL    HW134894   6.434   0.203   7.378
 7621SOL    HW234895   6.294   0.283   7.400
 7622SOL     OW34896   6.474   1.514   6.781
 7622SOL    HW134897   6.451   1.489   6.687
 7622SOL    HW234898   6.535   1.445   6.820
 7623SOL     OW34899   6.937   0.590   7.019
 7623SOL    HW134900   6.965   0.547   7.104
 7623SOL    HW234901   6.962   0.686   7.020
 7624SOL     OW34902   6.389   1.402   6.510
 7624SOL    HW134903   6.479   1.416   6.468
 7624SOL    HW234904   6.318   1.404   6.439
 7625SOL     OW34905   6.508   0.503   6.485
 7625SOL    HW134906   6.483   0.494   6.389
 7625SOL    HW234907   6.556   0.421   6.516
 7626SOL     OW34908   6.125   0.064   6.098
 7626SOL    HW134909   6.044   0.065   6.156
 7626SOL    HW234910   6.128   0.147   6.043
 7627SOL     OW34911   5.883   0.035   5.757
 7627SOL    HW134912   5.932   0.119   5.736
 7627SOL    HW234913   5.945  -0.030   5.802
 7628SOL     OW34914   6.662   0.683   7.050
 7628SOL    HW134915   6.582   0.622   7.053
 7628SOL    HW234916   6.743   0.630   7.026
 7629SOL     OW34917   6.813   1.570   6.379
 7629SOL    HW134918   6.834   1.644   6.314
 7629SOL    HW234919   6.881   1.570   6.452
 7630SOL     OW34920   6.045   1.152   6.327
 7630SOL    HW134921   5.974   1.125   6.392
 7630SOL    HW234922   6.019   1.124   6.234
 7631SOL     OW34923   6.618   0.549   5.602
 7631SOL    HW134924   6.577   0.631   5.563
 7631SOL    HW234925   6.682   0.575   5.675
 7632SOL     OW34926   5.664   0.556   6.972
 7632SOL    HW134927   5.756   0.555   6.931
 7632SOL    HW234928   5.658   0.630   7.039
 7633SOL     OW34929   6.147   0.222   6.733
 7633SOL    HW134930   6.185   0.138   6.770
 7633SOL    HW234931   6.059   0.241   6.777
 7634SOL     OW34932   6.603   0.039   6.339
 7634SOL    HW134933   6.531   0.044   6.270
 7634SOL    HW234934   6.579  -0.030   6.408
 7635SOL     OW34935   7.015   1.173   6.453
 7635SOL    HW134936   6.960   1.089   6.446
 7635SOL    HW234937   7.041   1.202   6.361
 7636SOL     OW34938   7.052   0.590   6.578
 7636SOL    HW134939   7.022   0.495   6.585
 7636SOL    HW234940   7.125   0.606   6.644
 7637SOL     OW34941   7.443   0.833   5.963
 7637SOL    HW134942   7.485   0.769   6.027
 7637SOL    HW234943   7.405   0.782   5.885
 7638SOL     OW34944   6.074   1.385   5.760
 7638SOL    HW134945   5.987   1.370   5.807
 7638SOL    HW234946   6.057   1.411   5.665
 7639SOL     OW34947   7.250   1.280   6.243
 7639SOL    HW134948   7.349   1.288   6.257
 7639SOL    HW234949   7.205   1.364   6.274
 7640SOL     OW34950   6.113   0.256   5.914
 7640SOL    HW134951   6.140   0.197   5.839
 7640SOL    HW234952   6.113   0.351   5.883
 7641SOL     OW34953   7.340   1.223   7.174
 7641SOL    HW134954   7.431   1.184   7.161
 7641SOL    HW234955   7.348   1.319   7.198
 7642SOL     OW34956   6.650   1.347   6.926
 7642SOL    HW134957   6.570   1.324   6.981
 7642SOL    HW234958   6.733   1.321   6.975
 7643SOL     OW34959   7.178   1.629   7.211
 7643SOL    HW134960   7.205   1.663   7.121
 7643SOL    HW234961   7.257   1.591   7.257
 7644SOL     OW34962   6.697   1.195   6.686
 7644SOL    HW134963   6.657   1.239   6.767
 7644SOL    HW234964   6.656   1.232   6.603
 7645SOL     OW34965   7.224   1.099   6.665
 7645SOL    HW134966   7.229   1.180   6.724
 7645SOL    HW234967   7.138   1.101   6.614
 7646SOL     OW34968   6.501   0.089   6.988
 7646SOL    HW134969   6.526   0.069   6.893
 7646SOL    HW234970   6.573   0.145   7.030
 7647SOL     OW34971   6.566   1.116   7.305
 7647SOL    HW134972   6.467   1.122   7.315
 7647SOL    HW234973   6.589   1.036   7.249
 7648SOL     OW34974   5.996   0.813   6.837
 7648SOL    HW134975   6.082   0.825   6.887
 7648SOL    HW234976   5.954   0.726   6.864
 7649SOL     OW34977   6.860   0.386   6.848
 7649SOL    HW134978   6.881   0.460   6.912
 7649SOL    HW234979   6.771   0.403   6.805
 7650SOL     OW34980   5.650   1.564   6.917
 7650SOL    HW134981   5.604   1.646   6.883
 7650SOL    HW234982   5.748   1.583   6.926
 7651SOL     OW34983   5.953   1.100   6.087
 7651SOL    HW134984   5.946   1.183   6.031
 7651SOL    HW234985   5.957   1.020   6.027
 7652SOL     OW34986   6.152   0.537   6.451
 7652SOL    HW134987   6.164   0.603   6.377
 7652SOL    HW234988   6.198   0.571   6.534
 7653SOL     OW34989   6.858   1.445   6.728
 7653SOL    HW134990   6.905   1.458   6.815
 7653SOL    HW234991   6.792   1.371   6.737
 7654SOL     OW34992   7.168   0.639   6.058
 7654SOL    HW134993   7.137   0.700   6.131
 7654SOL    HW234994   7.218   0.691   5.989
 7655SOL     OW34995   5.940   1.510   6.915
 7655SOL    HW134996   5.919   1.466   6.828
 7655SOL    HW234997   6.037   1.536   6.918
 7656SOL     OW34998   5.988   0.751   7.184
 7656SOL    HW134999   6.056   0.806   7.137
 7656SOL    HW235000   6.028   0.663   7.211
 7657SOL     OW35001   7.173   0.779   7.256
 7657SOL    HW135002   7.081   0.817   7.251
 7657SOL    HW235003   7.233   0.826   7.191
 7658SOL     OW35004   6.159   0.870   6.615
 7658SOL    HW135005   6.203   0.959   6.606
 7658SOL    HW235006   6.096   0.870   6.692
 7659SOL     OW35007   6.946   0.862   6.631
 7659SOL    HW135008   6.871   0.862   6.565
 7659SOL    HW235009   6.983   0.770   6.640
 7660SOL     OW35010   6.795   0.525   5.861
 7660SOL    HW135011   6.808   0.441   5.915
 7660SOL    HW235012   6.766   0.599   5.921
 7661SOL     OW35013   5.893   0.213   6.817
 7661SOL    HW135014   5.870   0.250   6.907
 7661SOL    HW235015   5.863   0.118   6.811
 7662SOL     OW35016   5.623   1.310   6.868
 7662SOL    HW135017   5.676   1.261   6.936
 7662SOL    HW235018   5.645   1.408   6.873
 7663SOL     OW35019   6.318   0.634   6.650
 7663SOL    HW135020   6.377   0.608   6.574
 7663SOL    HW235021   6.290   0.730   6.639
 7664SOL     OW35022   7.314   0.935   7.440
 7664SOL    HW135023   7.268   0.928   7.351
 7664SOL    HW235024   7.252   0.979   7.506
 7665SOL     OW35025   5.893   0.063   6.204
 7665SOL    HW135026   5.882   0.157   6.237
 7665SOL    HW235027   5.888   0.000   6.281
 7666SOL     OW35028   7.208   0.367   5.960
 7666SOL    HW135029   7.210   0.291   6.024
 7666SOL    HW235030   7.160   0.444   6.000
 7667SOL     OW35031   6.609   0.766   6.552
 7667SOL    HW135032   6.624   0.787   6.648
 7667SOL    HW235033   6.579   0.671   6.543
 7668SOL     OW35034   6.566   1.573   7.286
 7668SOL    HW135035   6.546   1.617   7.198
 7668SOL    HW235036   6.605   1.482   7.270
 7669SOL     OW35037   7.445   1.518   7.191
 7669SOL    HW135038   7.459   1.545   7.096
 7669SOL    HW235039   7.528   1.540   7.244
 7670SOL     OW35040   5.936   0.898   7.390
 7670SOL    HW135041   6.012   0.942   7.438
 7670SOL    HW235042   5.971   0.851   7.308
 7671SOL     OW35043   6.654   1.333   6.435
 7671SOL    HW135044   6.661   1.249   6.380
 7671SOL    HW235045   6.716   1.402   6.399
 7672SOL     OW35046   5.905   0.810   6.535
 7672SOL    HW135047   5.998   0.846   6.540
 7672SOL    HW235048   5.899   0.725   6.587
 7673SOL     OW35049   5.925   0.509   6.592
 7673SOL    HW135050   5.873   0.426   6.575
 7673SOL    HW235051   6.002   0.514   6.528
 7674SOL     OW35052   6.724   0.380   7.264
 7674SOL    HW135053   6.679   0.443   7.328
 7674SOL    HW235054   6.817   0.411   7.247
 7675SOL     OW35055   6.746   0.207   7.063
 7675SOL    HW135056   6.746   0.271   7.140
 7675SOL    HW235057   6.774   0.255   6.980
 7676SOL     OW35058   5.594   1.326   5.786
 7676SOL    HW135059   5.501   1.347   5.755
 7676SOL    HW235060   5.604   1.227   5.799
 7677SOL     OW35061   6.090   1.568   6.496
 7677SOL    HW135062   6.156   1.642   6.505
 7677SOL    HW235063   6.134   1.489   6.454
 7678SOL     OW35064   6.588   0.796   6.824
 7678SOL    HW135065   6.629   0.764   6.910
 7678SOL    HW235066   6.492   0.769   6.821
 7679SOL     OW35067   5.626   0.544   6.700
 7679SOL    HW135068   5.711   0.511   6.659
 7679SOL    HW235069   5.639   0.559   6.798
 7680SOL     OW35070   7.243   0.604   6.792
 7680SOL    HW135071   7.205   0.535   6.854
 7680SOL    HW235072   7.325   0.568   6.748
 7681SOL     OW35073   5.838   1.564   7.330
 7681SOL    HW135074   5.808   1.621   7.406
 7681SOL    HW235075   5.831   1.467   7.356
 7682SOL     OW35076   6.257   0.464   6.855
 7682SOL    HW135077   6.223   0.375   6.825
 7682SOL    HW235078   6.283   0.518   6.775
 7683SOL     OW35079   6.516   1.678   7.051
 7683SOL    HW135080   6.492   1.660   6.956
 7683SOL    HW235081   6.546   1.772   7.061
 7684SOL     OW35082   5.745   1.137   7.052
 7684SOL    HW135083   5.767   1.076   7.128
 7684SOL    HW235084   5.755   1.088   6.966
 7685SOL     OW35085   6.933   1.059   6.820
 7685SOL    HW135086   6.957   0.996   6.746
 7685SOL    HW235087   6.843   1.099   6.802
 7686SOL     OW35088   7.345   1.747   6.740
 7686SOL    HW135089   7.406   1.777   6.667
 7686SOL    HW235090   7.307   1.658   6.718
 7687SOL     OW35091   6.838   1.731   6.714
 7687SOL    HW135092   6.922   1.736   6.660
 7687SOL    HW235093   6.815   1.635   6.732
 7688SOL     OW35094   5.669   1.258   6.608
 7688SOL    HW135095   5.664   1.257   6.708
 7688SOL    HW235096   5.586   1.217   6.570
 7689SOL     OW35097   6.274   1.662   7.302
 7689SOL    HW135098   6.218   1.743   7.311
 7689SOL    HW235099   6.326   1.666   7.216
 7690SOL     OW35100   7.312   0.135   6.109
 7690SOL    HW135101   7.385   0.118   6.042
 7690SOL    HW235102   7.281   0.048   6.147
 7691SOL     OW35103   6.974   1.573   6.063
 7691SOL    HW135104   7.041   1.585   5.989
 7691SOL    HW235105   6.934   1.662   6.086
 7692SOL     OW35106   6.866   0.927   6.258
 7692SOL    HW135107   6.926   0.846   6.260
 7692SOL    HW235108   6.906   0.996   6.198
 7693SOL     OW35109   6.416   1.273   7.008
 7693SOL    HW135110   6.411   1.306   7.103
 7693SOL    HW235111   6.330   1.292   6.962
 7694SOL     OW35112   7.236   1.720   6.980
 7694SOL    HW135113   7.289   1.730   6.896
 7694SOL    HW235114   7.209   1.810   7.014
 7695SOL     OW35115   7.427   0.175   6.549
 7695SOL    HW135116   7.466   0.090   6.513
 7695SOL    HW235117   7.329   0.177   6.530
 7696SOL     OW35118   5.849   0.326   6.306
 7696SOL    HW135119   5.770   0.377   6.272
 7696SOL    HW235120   5.840   0.311   6.404
 7697SOL     OW35121   6.780   1.612   5.617
 7697SOL    HW135122   6.786   1.519   5.654
 7697SOL    HW235123   6.721   1.612   5.537
 7698SOL     OW35124   6.408   1.002   6.958
 7698SOL    HW135125   6.448   1.001   6.866
 7698SOL    HW235126   6.418   1.094   6.998
 7699SOL     OW35127   5.958   1.288   7.076
 7699SOL    HW135128   5.945   1.381   7.042
 7699SOL    HW235129   5.874   1.236   7.063
 7700SOL     OW35130   7.200   1.292   6.875
 7700SOL    HW135131   7.260   1.295   6.955
 7700SOL    HW235132   7.125   1.356   6.888
 7701SOL     OW35133   6.625   1.098   6.282
 7701SOL    HW135134   6.555   1.051   6.336
 7701SOL    HW235135   6.684   1.030   6.239
 7702SOL     OW35136   6.600   0.236   6.557
 7702SOL    HW135137   6.592   0.200   6.464
 7702SOL    HW235138   6.598   0.160   6.622
 7703SOL     OW35139   6.176   1.487   6.077
 7703SOL    HW135140   6.218   1.429   6.007
 7703SOL    HW235141   6.132   1.566   6.033
 7704SOL     OW35142   7.295   0.385   6.967
 7704SOL    HW135143   7.368   0.454   6.971
 7704SOL    HW235144   7.323   0.310   6.908
 7705SOL     OW35145   5.691   1.013   7.312
 7705SOL    HW135146   5.614   0.980   7.366
 7705SOL    HW235147   5.776   0.983   7.354
 7706SOL     OW35148   6.258   0.203   7.075
 7706SOL    HW135149   6.348   0.187   7.035
 7706SOL    HW235150   6.266   0.208   7.174
 7707SOL     OW35151   5.661   0.345   5.619
 7707SOL    HW135152   5.569   0.317   5.590
 7707SOL    HW235153   5.692   0.422   5.563
 7708SOL     OW35154   7.026   0.856   6.984
 7708SOL    HW135155   6.969   0.908   6.921
 7708SOL    HW235156   7.122   0.868   6.960
 7709SOL     OW35157   5.658   0.166   5.904
 7709SOL    HW135158   5.641   0.249   5.850
 7709SOL    HW235159   5.748   0.129   5.882
 7710SOL     OW35160   6.199   0.842   7.017
 7710SOL    HW135161   6.255   0.923   7.000
 7710SOL    HW235162   6.258   0.762   7.020
 7711SOL     OW35163   7.079   1.767   6.545
 7711SOL    HW135164   7.112   1.831   6.476
 7711SOL    HW235165   7.145   1.761   6.620
 7712SOL     OW35166   6.302   0.565   7.294
 7712SOL    HW135167   6.321   0.630   7.368
 7712SOL    HW235168   6.362   0.485   7.303
 7713SOL     OW35169   5.976   1.741   7.146
 7713SOL    HW135170   5.885   1.782   7.144
 7713SOL    HW235171   5.969   1.647   7.178
 7714SOL     OW35172   7.260   0.883   6.840
 7714SOL    HW135173   7.233   0.794   6.803
 7714SOL    HW235174   7.261   0.951   6.767
 7715SOL     OW35175   6.180   0.745   6.238
 7715SOL    HW135176   6.230   0.830   6.219
 7715SOL    HW235177   6.092   0.747   6.190
 7716SOL     OW35178   7.363   0.342   7.228
 7716SOL    HW135179   7.346   0.373   7.134
 7716SOL    HW235180   7.279   0.305   7.266
 7717SOL     OW35181   7.316   0.934   7.103
 7717SOL    HW135182   7.354   1.025   7.118
 7717SOL    HW235183   7.308   0.917   7.004
 7718SOL     OW35184   6.247   1.790   6.539
 7718SOL    HW135185   6.201   1.878   6.526
 7718SOL    HW235186   6.346   1.802   6.532
 7719SOL     OW35187   6.445   0.956   6.447
 7719SOL    HW135188   6.499   0.887   6.495
 7719SOL    HW235189   6.413   1.025   6.513
 7720SOL     OW35190   7.447   1.569   6.437
 7720SOL    HW135191   7.376   1.557   6.367
 7720SOL    HW235192   7.448   1.490   6.497
 7721SOL     OW35193   5.807   1.314   7.430
 7721SOL    HW135194   5.742   1.241   7.409
 7721SOL    HW235195   5.811   1.328   7.528
 7722SOL     OW35196   5.665   1.240   6.239
 7722SOL    HW135197   5.664   1.193   6.327
 7722SOL    HW235198   5.747   1.212   6.188
 7723SOL     OW35199   6.258   1.391   7.210
 7723SOL    HW135200   6.180   1.341   7.248
 7723SOL    HW235201   6.255   1.486   7.241
 7724SOL     OW35202   7.410   0.192   6.813
 7724SOL    HW135203   7.406   0.102   6.857
 7724SOL    HW235204   7.413   0.181   6.714
 7725SOL     OW35205   6.014   0.424   6.106
 7725SOL    HW135206   6.044   0.352   6.044
 7725SOL    HW235207   5.975   0.384   6.189
 7726SOL     OW35208   7.291   1.487   6.690
 7726SOL    HW135209   7.198   1.462   6.663
 7726SOL    HW235210   7.317   1.437   6.772
 7727SOL     OW35211   5.903   0.547   6.866
 7727SOL    HW135212   5.941   0.488   6.938
 7727SOL    HW235213   5.943   0.521   6.778
 7728SOL     OW35214   7.010   0.214   6.698
 7728SOL    HW135215   7.062   0.149   6.753
 7728SOL    HW235216   6.961   0.277   6.759
 7729SOL     OW35217   6.587   0.034   6.740
 7729SOL    HW135218   6.524  -0.038   6.709
 7729SOL    HW235219   6.680  -0.002   6.740
 7730SOL     OW35220   6.204   1.567   6.870
 7730SOL    HW135221   6.199   1.649   6.927
 7730SOL    HW235222   6.293   1.564   6.825
 7731SOL     OW35223   6.938   0.052   5.754
 7731SOL    HW135224   6.973   0.011   5.670
 7731SOL    HW235225   6.848   0.014   5.774
 7732SOL     OW35226   6.886   0.453   6.277
 7732SOL    HW135227   6.827   0.533   6.281
 7732SOL    HW235228   6.901   0.418   6.370
 7733SOL     OW35229   7.179   0.221   6.468
 7733SOL    HW135230   7.095   0.220   6.522
 7733SOL    HW235231   7.181   0.304   6.412
 7734SOL     OW35232   5.625   1.077   5.886
 7734SOL    HW135233   5.724   1.066   5.877
 7734SOL    HW235234   5.585   0.991   5.918
 7735SOL     OW35235   6.461   1.646   5.923
 7735SOL    HW135236   6.384   1.611   5.869
 7735SOL    HW235237   6.429   1.717   5.985
 7736SOL     OW35238   5.816   2.490   0.113
 7736SOL    HW135239   5.723   2.488   0.150
 7736SOL    HW235240   5.817   2.451   0.021
 7737SOL     OW35241   5.811   2.137   0.996
 7737SOL    HW135242   5.846   2.120   1.088
 7737SOL    HW235243   5.723   2.092   0.984
 7738SOL     OW35244   5.605   2.230   0.647
 7738SOL    HW135245   5.523   2.273   0.686
 7738SOL    HW235246   5.577   2.157   0.584
 7739SOL     OW35247   6.155   3.137   1.165
 7739SOL    HW135248   6.062   3.130   1.128
 7739SOL    HW235249   6.166   3.226   1.209
 7740SOL     OW35250   7.141   3.373   0.703
 7740SOL    HW135251   7.084   3.357   0.784
 7740SOL    HW235252   7.082   3.383   0.623
 7741SOL     OW35253   6.721   2.565   0.717
 7741SOL    HW135254   6.778   2.643   0.692
 7741SOL    HW235255   6.661   2.591   0.793
 7742SOL     OW35256   7.341   2.469   0.231
 7742SOL    HW135257   7.329   2.456   0.132
 7742SOL    HW235258   7.311   2.388   0.280
 7743SOL     OW35259   6.354   3.006   1.023
 7743SOL    HW135260   6.276   3.023   1.083
 7743SOL    HW235261   6.388   3.093   0.987
 7744SOL     OW35262   6.436   2.660   1.823
 7744SOL    HW135263   6.432   2.736   1.888
 7744SOL    HW235264   6.458   2.696   1.732
 7745SOL     OW35265   6.271   2.874   0.665
 7745SOL    HW135266   6.340   2.858   0.735
 7745SOL    HW235267   6.198   2.931   0.703
 7746SOL     OW35268   6.272   3.023   1.803
 7746SOL    HW135269   6.332   3.102   1.817
 7746SOL    HW235270   6.186   3.054   1.762
 7747SOL     OW35271   5.921   3.297   1.061
 7747SOL    HW135272   5.843   3.266   1.008
 7747SOL    HW235273   5.979   3.355   1.004
 7748SOL     OW35274   7.046   3.367   1.339
 7748SOL    HW135275   7.070   3.461   1.365
 7748SOL    HW235276   7.030   3.313   1.421
 7749SOL     OW35277   6.024   2.254   1.499
 7749SOL    HW135278   6.106   2.198   1.508
 7749SOL    HW235279   5.943   2.196   1.503
 7750SOL     OW35280   7.189   2.309   0.737
 7750SOL    HW135281   7.115   2.355   0.687
 7750SOL    HW235282   7.240   2.377   0.790
 7751SOL     OW35283   5.817   3.575   0.483
 7751SOL    HW135284   5.851   3.652   0.537
 7751SOL    HW235285   5.861   3.575   0.393
 7752SOL     OW35286   5.816   3.296   0.538
 7752SOL    HW135287   5.790   3.392   0.538
 7752SOL    HW235288   5.745   3.242   0.583
 7753SOL     OW35289   5.826   2.953   0.886
 7753SOL    HW135290   5.840   2.869   0.938
 7753SOL    HW235291   5.771   3.017   0.941
 7754SOL     OW35292   6.206   3.648   1.439
 7754SOL    HW135293   6.114   3.631   1.474
 7754SOL    HW235294   6.234   3.740   1.465
 7755SOL     OW35295   6.192   2.826   0.123
 7755SOL    HW135296   6.199   2.910   0.069
 7755SOL    HW235297   6.238   2.839   0.211
 7756SOL     OW35298   7.180   1.976   1.480
 7756SOL    HW135299   7.162   2.043   1.408
 7756SOL    HW235300   7.177   2.022   1.569
 7757SOL     OW35301   5.708   2.505   0.563
 7757SOL    HW135302   5.663   2.417   0.580
 7757SOL    HW235303   5.707   2.559   0.647
 7758SOL     OW35304   7.428   3.629   0.359
 7758SOL    HW135305   7.482   3.600   0.439
 7758SOL    HW235306   7.458   3.719   0.330
 7759SOL     OW35307   5.613   3.458   0.117
 7759SOL    HW135308   5.594   3.362   0.138
 7759SOL    HW235309   5.580   3.516   0.192
 7760SOL     OW35310   7.275   2.784   0.612
 7760SOL    HW135311   7.370   2.755   0.620
 7760SOL    HW235312   7.267   2.849   0.537
 7761SOL     OW35313   7.227   2.970   0.432
 7761SOL    HW135314   7.313   2.972   0.380
 7761SOL    HW235315   7.241   3.017   0.520
 7762SOL     OW35316   5.699   2.599   1.597
 7762SOL    HW135317   5.787   2.586   1.642
 7762SOL    HW235318   5.686   2.696   1.575
 7763SOL     OW35319   6.199   3.227   0.726
 7763SOL    HW135320   6.150   3.140   0.735
 7763SOL    HW235321   6.176   3.270   0.639
 7764SOL     OW35322   6.395   1.866   0.502
 7764SOL    HW135323   6.435   1.957   0.493
 7764SOL    HW235324   6.295   1.874   0.508
 7765SOL     OW35325   5.783   2.838   1.264
 7765SOL    HW135326   5.872   2.793   1.250
 7765SOL    HW235327   5.710   2.773   1.245
 7766SOL     OW35328   7.111   2.861   0.190
 7766SOL    HW135329   7.048   2.785   0.203
 7766SOL    HW235330   7.159   2.879   0.276
 7767SOL     OW35331   6.773   3.654   1.616
 7767SOL    HW135332   6.797   3.714   1.540
 7767SOL    HW235333   6.780   3.559   1.586
 7768SOL     OW35334   5.903   2.113   1.801
 7768SOL    HW135335   5.974   2.184   1.807
 7768SOL    HW235336   5.815   2.152   1.829
 7769SOL     OW35337   7.052   3.279   0.953
 7769SOL    HW135338   6.993   3.285   1.033
 7769SOL    HW235339   7.037   3.191   0.907
 7770SOL     OW35340   7.253   3.576   0.572
 7770SOL    HW135341   7.212   3.553   0.484
 7770SOL    HW235342   7.235   3.502   0.637
 7771SOL     OW35343   6.184   2.591   0.270
 7771SOL    HW135344   6.208   2.660   0.202
 7771SOL    HW235345   6.106   2.624   0.324
 7772SOL     OW35346   6.867   2.207   0.944
 7772SOL    HW135347   6.781   2.157   0.931
 7772SOL    HW235348   6.929   2.153   1.000
 7773SOL     OW35349   7.162   3.524   0.307
 7773SOL    HW135350   7.251   3.570   0.310
 7773SOL    HW235351   7.141   3.500   0.212
 7774SOL     OW35352   6.393   2.467   1.465
 7774SOL    HW135353   6.346   2.464   1.554
 7774SOL    HW235354   6.342   2.412   1.399
 7775SOL     OW35355   6.980   2.331   1.674
 7775SOL    HW135356   6.960   2.374   1.762
 7775SOL    HW235357   7.058   2.269   1.683
 7776SOL     OW35358   6.559   2.752   1.572
 7776SOL    HW135359   6.605   2.668   1.543
 7776SOL    HW235360   6.503   2.786   1.497
 7777SOL     OW35361   6.577   2.272   1.242
 7777SOL    HW135362   6.500   2.306   1.296
 7777SOL    HW235363   6.543   2.221   1.163
 7778SOL     OW35364   6.627   2.563   0.429
 7778SOL    HW135365   6.653   2.559   0.525
 7778SOL    HW235366   6.542   2.512   0.415
 7779SOL     OW35367   5.662   2.673   0.789
 7779SOL    HW135368   5.761   2.661   0.798
 7779SOL    HW235369   5.638   2.768   0.810
 7780SOL     OW35370   5.716   3.683   1.571
 7780SOL    HW135371   5.706   3.668   1.670
 7780SOL    HW235372   5.630   3.719   1.535
 7781SOL     OW35373   6.451   2.210   0.195
 7781SOL    HW135374   6.510   2.273   0.146
 7781SOL    HW235375   6.470   2.116   0.166
 7782SOL     OW35376   6.948   3.006   0.545
 7782SOL    HW135377   7.031   2.977   0.497
 7782SOL    HW235378   6.899   3.073   0.489
 7783SOL     OW35379   6.136   2.058   0.885
 7783SOL    HW135380   6.131   2.053   0.985
 7783SOL    HW235381   6.138   2.154   0.856
 7784SOL     OW35382   6.594   3.318   0.477
 7784SOL    HW135383   6.548   3.390   0.425
 7784SOL    HW235384   6.590   3.338   0.575
 7785SOL     OW35385   5.937   3.663   0.853
 7785SOL    HW135386   5.987   3.577   0.859
 7785SOL    HW235387   6.002   3.740   0.850
 7786SOL     OW35388   7.381   2.928   0.873
 7786SOL    HW135389   7.319   2.913   0.797
 7786SOL    HW235390   7.329   2.939   0.958
 7787SOL     OW35391   6.813   3.412   1.506
 7787SOL    HW135392   6.819   3.335   1.570
 7787SOL    HW235393   6.761   3.386   1.426
 7788SOL     OW35394   5.907   2.805   0.242
 7788SOL    HW135395   5.989   2.844   0.200
 7788SOL    HW235396   5.880   2.723   0.193
 7789SOL     OW35397   7.044   2.597   0.728
 7789SOL    HW135398   7.039   2.532   0.803
 7789SOL    HW235399   7.124   2.656   0.741
 7790SOL     OW35400   6.047   3.128   1.727
 7790SOL    HW135401   5.997   3.129   1.641
 7790SOL    HW235402   5.984   3.110   1.803
 7791SOL     OW35403   6.697   3.638   0.237
 7791SOL    HW135404   6.637   3.576   0.287
 7791SOL    HW235405   6.728   3.594   0.152
 7792SOL     OW35406   5.788   2.147   1.498
 7792SOL    HW135407   5.708   2.207   1.485
 7792SOL    HW235408   5.778   2.098   1.584
 7793SOL     OW35409   7.218   3.239   0.081
 7793SOL    HW135410   7.186   3.333   0.071
 7793SOL    HW235411   7.142   3.176   0.069
 7794SOL     OW35412   6.050   3.605   0.323
 7794SOL    HW135413   6.083   3.644   0.409
 7794SOL    HW235414   6.126   3.598   0.258
 7795SOL     OW35415   6.986   1.969   0.426
 7795SOL    HW135416   6.962   1.932   0.336
 7795SOL    HW235417   7.085   1.985   0.430
 7796SOL     OW35418   5.835   3.647   1.241
 7796SOL    HW135419   5.892   3.582   1.291
 7796SOL    HW235420   5.819   3.614   1.148
 7797SOL     OW35421   6.526   3.560   0.904
 7797SOL    HW135422   6.606   3.503   0.925
 7797SOL    HW235423   6.477   3.520   0.827
 7798SOL     OW35424   5.968   2.562   0.480
 7798SOL    HW135425   6.013   2.472   0.477
 7798SOL    HW235426   5.874   2.551   0.513
 7799SOL     OW35427   7.133   2.084   1.729
 7799SOL    HW135428   7.128   2.121   1.821
 7799SOL    HW235429   7.061   2.015   1.717
 7800SOL     OW35430   6.200   1.984   0.117
 7800SOL    HW135431   6.298   1.962   0.124
 7800SOL    HW235432   6.169   1.967   0.024
 7801SOL     OW35433   6.367   2.126   1.749
 7801SOL    HW135434   6.434   2.065   1.792
 7801SOL    HW235435   6.294   2.145   1.814
 7802SOL     OW35436   6.474   3.376   1.195
 7802SOL    HW135437   6.451   3.351   1.101
 7802SOL    HW235438   6.535   3.307   1.234
 7803SOL     OW35439   6.937   2.452   1.433
 7803SOL    HW135440   6.965   2.409   1.518
 7803SOL    HW235441   6.962   2.548   1.434
 7804SOL     OW35442   6.389   3.264   0.924
 7804SOL    HW135443   6.479   3.278   0.882
 7804SOL    HW235444   6.318   3.266   0.853
 7805SOL     OW35445   6.508   2.365   0.899
 7805SOL    HW135446   6.483   2.356   0.803
 7805SOL    HW235447   6.556   2.283   0.930
 7806SOL     OW35448   6.125   1.926   0.512
 7806SOL    HW135449   6.044   1.927   0.570
 7806SOL    HW235450   6.128   2.009   0.457
 7807SOL     OW35451   7.020   3.050   0.041
 7807SOL    HW135452   7.052   2.974   0.098
 7807SOL    HW235453   6.928   3.077   0.071
 7808SOL     OW35454   5.883   1.897   0.171
 7808SOL    HW135455   5.932   1.981   0.150
 7808SOL    HW235456   5.945   1.832   0.216
 7809SOL     OW35457   6.521   2.098   0.480
 7809SOL    HW135458   6.473   2.139   0.402
 7809SOL    HW235459   6.620   2.096   0.461
 7810SOL     OW35460   6.662   2.545   1.464
 7810SOL    HW135461   6.582   2.484   1.467
 7810SOL    HW235462   6.743   2.492   1.440
 7811SOL     OW35463   6.813   3.432   0.793
 7811SOL    HW135464   6.834   3.506   0.728
 7811SOL    HW235465   6.881   3.432   0.866
 7812SOL     OW35466   6.045   3.014   0.741
 7812SOL    HW135467   5.974   2.987   0.806
 7812SOL    HW235468   6.019   2.986   0.648
 7813SOL     OW35469   6.857   3.659   0.591
 7813SOL    HW135470   6.901   3.723   0.527
 7813SOL    HW235471   6.807   3.711   0.661
 7814SOL     OW35472   6.618   2.411   0.016
 7814SOL    HW135473   6.577   2.493  -0.023
 7814SOL    HW235474   6.682   2.437   0.089
 7815SOL     OW35475   5.664   2.418   1.386
 7815SOL    HW135476   5.756   2.417   1.345
 7815SOL    HW235477   5.658   2.492   1.453
 7816SOL     OW35478   6.147   2.084   1.147
 7816SOL    HW135479   6.185   2.000   1.184
 7816SOL    HW235480   6.059   2.103   1.191
 7817SOL     OW35481   6.452   2.316   0.642
 7817SOL    HW135482   6.420   2.388   0.580
 7817SOL    HW235483   6.476   2.235   0.589
 7818SOL     OW35484   6.603   1.901   0.753
 7818SOL    HW135485   6.531   1.906   0.684
 7818SOL    HW235486   6.579   1.832   0.822
 7819SOL     OW35487   7.015   3.035   0.867
 7819SOL    HW135488   6.960   2.951   0.860
 7819SOL    HW235489   7.041   3.064   0.775
 7820SOL     OW35490   7.052   2.452   0.992
 7820SOL    HW135491   7.022   2.357   0.999
 7820SOL    HW235492   7.125   2.468   1.058
 7821SOL     OW35493   7.443   2.695   0.377
 7821SOL    HW135494   7.485   2.631   0.441
 7821SOL    HW235495   7.405   2.644   0.299
 7822SOL     OW35496   6.074   3.247   0.174
 7822SOL    HW135497   5.987   3.232   0.221
 7822SOL    HW235498   6.057   3.273   0.079
 7823SOL     OW35499   7.250   3.142   0.657
 7823SOL    HW135500   7.349   3.150   0.671
 7823SOL    HW235501   7.205   3.226   0.688
 7824SOL     OW35502   6.976   2.437   0.078
 7824SOL    HW135503   6.922   2.416   0.159
 7824SOL    HW235504   7.067   2.396   0.087
 7825SOL     OW35505   6.113   2.118   0.328
 7825SOL    HW135506   6.140   2.059   0.253
 7825SOL    HW235507   6.113   2.213   0.297
 7826SOL     OW35508   7.340   3.085   1.588
 7826SOL    HW135509   7.431   3.046   1.575
 7826SOL    HW235510   7.348   3.181   1.612
 7827SOL     OW35511   6.650   3.209   1.340
 7827SOL    HW135512   6.570   3.186   1.395
 7827SOL    HW235513   6.733   3.183   1.389
 7828SOL     OW35514   7.178   3.491   1.625
 7828SOL    HW135515   7.205   3.525   1.535
 7828SOL    HW235516   7.257   3.453   1.671
 7829SOL     OW35517   6.697   3.057   1.100
 7829SOL    HW135518   6.657   3.101   1.181
 7829SOL    HW235519   6.656   3.094   1.017
 7830SOL     OW35520   7.224   2.961   1.079
 7830SOL    HW135521   7.229   3.042   1.138
 7830SOL    HW235522   7.138   2.963   1.028
 7831SOL     OW35523   6.501   1.951   1.402
 7831SOL    HW135524   6.526   1.931   1.307
 7831SOL    HW235525   6.573   2.007   1.444
 7832SOL     OW35526   6.291   2.912   0.368
 7832SOL    HW135527   6.277   2.919   0.467
 7832SOL    HW235528   6.375   2.861   0.350
 7833SOL     OW35529   5.996   2.675   1.251
 7833SOL    HW135530   6.082   2.687   1.301
 7833SOL    HW235531   5.954   2.588   1.278
 7834SOL     OW35532   6.860   2.248   1.262
 7834SOL    HW135533   6.881   2.322   1.326
 7834SOL    HW235534   6.771   2.265   1.219
 7835SOL     OW35535   5.650   3.426   1.331
 7835SOL    HW135536   5.604   3.508   1.297
 7835SOL    HW235537   5.748   3.445   1.340
 7836SOL     OW35538   5.953   2.962   0.501
 7836SOL    HW135539   5.946   3.045   0.445
 7836SOL    HW235540   5.957   2.882   0.441
 7837SOL     OW35541   6.152   2.399   0.865
 7837SOL    HW135542   6.164   2.465   0.791
 7837SOL    HW235543   6.198   2.433   0.948
 7838SOL     OW35544   6.838   3.210   0.388
 7838SOL    HW135545   6.888   3.287   0.428
 7838SOL    HW235546   6.743   3.212   0.420
 7839SOL     OW35547   6.858   3.307   1.142
 7839SOL    HW135548   6.905   3.320   1.229
 7839SOL    HW235549   6.792   3.233   1.151
 7840SOL     OW35550   7.168   2.501   0.472
 7840SOL    HW135551   7.137   2.562   0.545
 7840SOL    HW235552   7.218   2.553   0.403
 7841SOL     OW35553   5.940   3.372   1.329
 7841SOL    HW135554   5.919   3.328   1.242
 7841SOL    HW235555   6.037   3.398   1.332
 7842SOL     OW35556   7.173   2.641   1.670
 7842SOL    HW135557   7.081   2.679   1.665
 7842SOL    HW235558   7.233   2.688   1.605
 7843SOL     OW35559   6.599   1.967   1.770
 7843SOL    HW135560   6.605   2.052   1.718
 7843SOL    HW235561   6.631   1.891   1.713
 7844SOL     OW35562   6.090   1.912   1.740
 7844SOL    HW135563   6.048   1.855   1.670
 7844SOL    HW235564   6.024   1.981   1.772
 7845SOL     OW35565   6.159   2.732   1.029
 7845SOL    HW135566   6.203   2.821   1.020
 7845SOL    HW235567   6.096   2.732   1.106
 7846SOL     OW35568   6.946   2.724   1.045
 7846SOL    HW135569   6.871   2.724   0.979
 7846SOL    HW235570   6.983   2.632   1.054
 7847SOL     OW35571   6.795   2.387   0.275
 7847SOL    HW135572   6.808   2.303   0.329
 7847SOL    HW235573   6.766   2.461   0.335
 7848SOL     OW35574   5.893   2.075   1.231
 7848SOL    HW135575   5.870   2.112   1.321
 7848SOL    HW235576   5.863   1.980   1.225
 7849SOL     OW35577   5.623   3.172   1.282
 7849SOL    HW135578   5.676   3.123   1.350
 7849SOL    HW235579   5.645   3.270   1.287
 7850SOL     OW35580   6.318   2.496   1.064
 7850SOL    HW135581   6.377   2.470   0.988
 7850SOL    HW235582   6.290   2.592   1.053
 7851SOL     OW35583   5.893   1.925   0.618
 7851SOL    HW135584   5.882   2.019   0.651
 7851SOL    HW235585   5.888   1.862   0.695
 7852SOL     OW35586   7.208   2.229   0.374
 7852SOL    HW135587   7.210   2.153   0.438
 7852SOL    HW235588   7.160   2.306   0.414
 7853SOL     OW35589   6.609   2.628   0.966
 7853SOL    HW135590   6.624   2.649   1.062
 7853SOL    HW235591   6.579   2.533   0.957
 7854SOL     OW35592   6.566   3.435   1.700
 7854SOL    HW135593   6.546   3.479   1.612
 7854SOL    HW235594   6.605   3.344   1.684
 7855SOL     OW35595   7.445   3.380   1.605
 7855SOL    HW135596   7.459   3.407   1.510
 7855SOL    HW235597   7.528   3.402   1.658
 7856SOL     OW35598   7.126   2.136   0.125
 7856SOL    HW135599   7.065   2.061   0.148
 7856SOL    HW235600   7.148   2.188   0.208
 7857SOL     OW35601   6.889   2.700   0.042
 7857SOL    HW135602   6.923   2.607   0.057
 7857SOL    HW235603   6.907   2.727  -0.053
 7858SOL     OW35604   6.654   3.195   0.849
 7858SOL    HW135605   6.661   3.111   0.794
 7858SOL    HW235606   6.716   3.264   0.813
 7859SOL     OW35607   5.905   2.672   0.949
 7859SOL    HW135608   5.998   2.708   0.954
 7859SOL    HW235609   5.899   2.587   1.001
 7860SOL     OW35610   5.925   2.371   1.006
 7860SOL    HW135611   5.873   2.288   0.989
 7860SOL    HW235612   6.002   2.376   0.942
 7861SOL     OW35613   6.724   2.242   1.678
 7861SOL    HW135614   6.679   2.305   1.742
 7861SOL    HW235615   6.817   2.273   1.661
 7862SOL     OW35616   6.746   2.069   1.477
 7862SOL    HW135617   6.746   2.133   1.554
 7862SOL    HW235618   6.774   2.117   1.394
 7863SOL     OW35619   5.594   3.188   0.200
 7863SOL    HW135620   5.501   3.209   0.169
 7863SOL    HW235621   5.604   3.089   0.213
 7864SOL     OW35622   5.674   3.663   0.927
 7864SOL    HW135623   5.632   3.577   0.900
 7864SOL    HW235624   5.768   3.666   0.893
 7865SOL     OW35625   6.090   3.430   0.910
 7865SOL    HW135626   6.156   3.504   0.919
 7865SOL    HW235627   6.134   3.351   0.868
 7866SOL     OW35628   6.588   2.658   1.238
 7866SOL    HW135629   6.629   2.626   1.324
 7866SOL    HW235630   6.492   2.631   1.235
 7867SOL     OW35631   5.626   2.406   1.114
 7867SOL    HW135632   5.711   2.373   1.073
 7867SOL    HW235633   5.639   2.421   1.212
 7868SOL     OW35634   5.775   2.382   1.722
 7868SOL    HW135635   5.834   2.342   1.652
 7868SOL    HW235636   5.717   2.453   1.681
 7869SOL     OW35637   6.401   2.434   0.325
 7869SOL    HW135638   6.408   2.345   0.279
 7869SOL    HW235639   6.307   2.468   0.317
 7870SOL     OW35640   7.243   2.466   1.206
 7870SOL    HW135641   7.205   2.397   1.268
 7870SOL    HW235642   7.325   2.430   1.162
 7871SOL     OW35643   5.838   3.426   1.744
 7871SOL    HW135644   5.808   3.483   1.820
 7871SOL    HW235645   5.831   3.329   1.770
 7872SOL     OW35646   6.257   2.326   1.269
 7872SOL    HW135647   6.223   2.237   1.239
 7872SOL    HW235648   6.283   2.380   1.189
 7873SOL     OW35649   6.516   3.540   1.465
 7873SOL    HW135650   6.492   3.522   1.370
 7873SOL    HW235651   6.546   3.634   1.475
 7874SOL     OW35652   6.059   2.362   0.191
 7874SOL    HW135653   6.120   2.442   0.195
 7874SOL    HW235654   5.964   2.393   0.198
 7875SOL     OW35655   5.745   2.999   1.466
 7875SOL    HW135656   5.767   2.938   1.542
 7875SOL    HW235657   5.755   2.950   1.380
 7876SOL     OW35658   6.933   2.921   1.234
 7876SOL    HW135659   6.957   2.858   1.160
 7876SOL    HW235660   6.843   2.961   1.216
 7877SOL     OW35661   6.888   2.717   0.309
 7877SOL    HW135662   6.802   2.686   0.351
 7877SOL    HW235663   6.884   2.703   0.210
 7878SOL     OW35664   7.345   3.609   1.154
 7878SOL    HW135665   7.406   3.639   1.081
 7878SOL    HW235666   7.307   3.520   1.132
 7879SOL     OW35667   6.838   3.593   1.128
 7879SOL    HW135668   6.922   3.598   1.074
 7879SOL    HW235669   6.815   3.497   1.146
 7880SOL     OW35670   5.669   3.120   1.022
 7880SOL    HW135671   5.664   3.119   1.122
 7880SOL    HW235672   5.586   3.079   0.984
 7881SOL     OW35673   6.489   1.948   0.133
 7881SOL    HW135674   6.540   1.949   0.047
 7881SOL    HW235675   6.545   1.906   0.204
 7882SOL     OW35676   7.312   1.997   0.523
 7882SOL    HW135677   7.385   1.980   0.456
 7882SOL    HW235678   7.281   1.910   0.561
 7883SOL     OW35679   6.974   3.435   0.477
 7883SOL    HW135680   7.041   3.447   0.403
 7883SOL    HW235681   6.934   3.524   0.500
 7884SOL     OW35682   6.866   2.789   0.672
 7884SOL    HW135683   6.926   2.708   0.674
 7884SOL    HW235684   6.906   2.858   0.612
 7885SOL     OW35685   6.416   3.135   1.422
 7885SOL    HW135686   6.411   3.168   1.517
 7885SOL    HW235687   6.330   3.154   1.376
 7886SOL     OW35688   6.258   3.478   0.154
 7886SOL    HW135689   6.267   3.488   0.055
 7886SOL    HW235690   6.218   3.389   0.175
 7887SOL     OW35691   7.236   3.582   1.394
 7887SOL    HW135692   7.289   3.592   1.310
 7887SOL    HW235693   7.209   3.672   1.428
 7888SOL     OW35694   7.427   2.037   0.963
 7888SOL    HW135695   7.466   1.952   0.927
 7888SOL    HW235696   7.329   2.039   0.944
 7889SOL     OW35697   5.849   2.188   0.720
 7889SOL    HW135698   5.770   2.239   0.686
 7889SOL    HW235699   5.840   2.173   0.818
 7890SOL     OW35700   6.780   3.474   0.031
 7890SOL    HW135701   6.786   3.381   0.068
 7890SOL    HW235702   6.721   3.474  -0.049
 7891SOL     OW35703   6.408   2.864   1.372
 7891SOL    HW135704   6.448   2.863   1.280
 7891SOL    HW235705   6.418   2.956   1.412
 7892SOL     OW35706   6.502   2.772   0.291
 7892SOL    HW135707   6.565   2.810   0.223
 7892SOL    HW235708   6.542   2.689   0.330
 7893SOL     OW35709   7.090   3.469   0.044
 7893SOL    HW135710   6.998   3.506   0.051
 7893SOL    HW235711   7.128   3.489  -0.046
 7894SOL     OW35712   5.958   3.150   1.490
 7894SOL    HW135713   5.945   3.243   1.456
 7894SOL    HW235714   5.874   3.098   1.477
 7895SOL     OW35715   7.200   3.154   1.289
 7895SOL    HW135716   7.260   3.157   1.369
 7895SOL    HW235717   7.125   3.218   1.302
 7896SOL     OW35718   6.625   2.960   0.696
 7896SOL    HW135719   6.555   2.913   0.750
 7896SOL    HW235720   6.684   2.892   0.653
 7897SOL     OW35721   6.600   2.098   0.971
 7897SOL    HW135722   6.592   2.062   0.878
 7897SOL    HW235723   6.598   2.022   1.036
 7898SOL     OW35724   6.176   3.349   0.491
 7898SOL    HW135725   6.218   3.291   0.421
 7898SOL    HW235726   6.132   3.428   0.447
 7899SOL     OW35727   7.295   2.247   1.381
 7899SOL    HW135728   7.368   2.316   1.385
 7899SOL    HW235729   7.323   2.172   1.322
 7900SOL     OW35730   5.841   3.210   0.290
 7900SOL    HW135731   5.745   3.211   0.263
 7900SOL    HW235732   5.853   3.263   0.374
 7901SOL     OW35733   5.691   2.875   1.726
 7901SOL    HW135734   5.614   2.842   1.780
 7901SOL    HW235735   5.776   2.845   1.768
 7902SOL     OW35736   6.258   2.065   1.489
 7902SOL    HW135737   6.348   2.049   1.449
 7902SOL    HW235738   6.266   2.070   1.588
 7903SOL     OW35739   5.661   2.207   0.033
 7903SOL    HW135740   5.569   2.179   0.004
 7903SOL    HW235741   5.692   2.284  -0.023
 7904SOL     OW35742   7.026   2.718   1.398
 7904SOL    HW135743   6.969   2.770   1.335
 7904SOL    HW235744   7.122   2.730   1.374
 7905SOL     OW35745   5.658   2.028   0.318
 7905SOL    HW135746   5.641   2.111   0.264
 7905SOL    HW235747   5.748   1.991   0.296
 7906SOL     OW35748   6.769   3.197   0.119
 7906SOL    HW135749   6.670   3.186   0.121
 7906SOL    HW235750   6.803   3.212   0.212
 7907SOL     OW35751   7.079   3.629   0.959
 7907SOL    HW135752   7.112   3.693   0.890
 7907SOL    HW235753   7.145   3.623   1.034
 7908SOL     OW35754   6.302   2.427   1.708
 7908SOL    HW135755   6.321   2.492   1.782
 7908SOL    HW235756   6.362   2.347   1.717
 7909SOL     OW35757   7.260   2.745   1.254
 7909SOL    HW135758   7.233   2.656   1.217
 7909SOL    HW235759   7.261   2.813   1.181
 7910SOL     OW35760   6.811   2.187   0.449
 7910SOL    HW135761   6.876   2.113   0.438
 7910SOL    HW235762   6.831   2.237   0.533
 7911SOL     OW35763   6.180   2.607   0.652
 7911SOL    HW135764   6.230   2.692   0.633
 7911SOL    HW235765   6.092   2.609   0.604
 7912SOL     OW35766   7.316   2.796   1.517
 7912SOL    HW135767   7.354   2.887   1.532
 7912SOL    HW235768   7.308   2.779   1.418
 7913SOL     OW35769   6.445   3.236   0.016
 7913SOL    HW135770   6.399   3.251   0.104
 7913SOL    HW235771   6.489   3.321  -0.014
 7914SOL     OW35772   6.247   3.652   0.953
 7914SOL    HW135773   6.201   3.740   0.940
 7914SOL    HW235774   6.346   3.664   0.946
 7915SOL     OW35775   6.445   2.818   0.861
 7915SOL    HW135776   6.499   2.749   0.909
 7915SOL    HW235777   6.413   2.887   0.927
 7916SOL     OW35778   6.669   2.846   0.087
 7916SOL    HW135779   6.646   2.899   0.005
 7916SOL    HW235780   6.750   2.790   0.068
 7917SOL     OW35781   7.447   3.431   0.851
 7917SOL    HW135782   7.376   3.419   0.781
 7917SOL    HW235783   7.448   3.352   0.911
 7918SOL     OW35784   5.665   3.102   0.653
 7918SOL    HW135785   5.664   3.055   0.741
 7918SOL    HW235786   5.747   3.074   0.602
 7919SOL     OW35787   6.258   3.253   1.624
 7919SOL    HW135788   6.180   3.203   1.662
 7919SOL    HW235789   6.255   3.348   1.655
 7920SOL     OW35790   7.410   2.054   1.227
 7920SOL    HW135791   7.406   1.964   1.271
 7920SOL    HW235792   7.413   2.043   1.128
 7921SOL     OW35793   6.014   2.286   0.520
 7921SOL    HW135794   6.044   2.214   0.458
 7921SOL    HW235795   5.975   2.246   0.603
 7922SOL     OW35796   7.291   3.349   1.104
 7922SOL    HW135797   7.198   3.324   1.077
 7922SOL    HW235798   7.317   3.299   1.186
 7923SOL     OW35799   5.903   2.409   1.280
 7923SOL    HW135800   5.941   2.350   1.352
 7923SOL    HW235801   5.943   2.383   1.192
 7924SOL     OW35802   6.398   3.448   0.687
 7924SOL    HW135803   6.430   3.458   0.593
 7924SOL    HW235804   6.319   3.386   0.689
 7925SOL     OW35805   7.010   2.076   1.112
 7925SOL    HW135806   7.062   2.011   1.167
 7925SOL    HW235807   6.961   2.139   1.173
 7926SOL     OW35808   6.587   1.896   1.154
 7926SOL    HW135809   6.524   1.824   1.123
 7926SOL    HW235810   6.680   1.860   1.154
 7927SOL     OW35811   6.356   3.192   0.301
 7927SOL    HW135812   6.310   3.105   0.318
 7927SOL    HW235813   6.447   3.189   0.342
 7928SOL     OW35814   6.204   3.429   1.284
 7928SOL    HW135815   6.199   3.511   1.341
 7928SOL    HW235816   6.293   3.426   1.239
 7929SOL     OW35817   6.938   1.914   0.168
 7929SOL    HW135818   6.973   1.873   0.084
 7929SOL    HW235819   6.848   1.876   0.188
 7930SOL     OW35820   6.886   2.315   0.691
 7930SOL    HW135821   6.827   2.395   0.695
 7930SOL    HW235822   6.901   2.280   0.784
 7931SOL     OW35823   7.179   2.083   0.882
 7931SOL    HW135824   7.095   2.082   0.936
 7931SOL    HW235825   7.181   2.166   0.826
 7932SOL     OW35826   5.625   2.939   0.300
 7932SOL    HW135827   5.724   2.928   0.291
 7932SOL    HW235828   5.585   2.853   0.332
 7933SOL     OW35829   6.461   3.508   0.337
 7933SOL    HW135830   6.384   3.473   0.283
 7933SOL    HW235831   6.429   3.579   0.399
 7934SOL     OW35832   5.816   2.490   1.975
 7934SOL    HW135833   5.723   2.488   2.012
 7934SOL    HW235834   5.817   2.451   1.883
 7935SOL     OW35835   6.155   3.137   3.027
 7935SOL    HW135836   6.062   3.130   2.990
 7935SOL    HW235837   6.166   3.226   3.071
 7936SOL     OW35838   7.141   3.373   2.565
 7936SOL    HW135839   7.084   3.357   2.646
 7936SOL    HW235840   7.082   3.383   2.485
 7937SOL     OW35841   6.354   3.006   2.885
 7937SOL    HW135842   6.276   3.023   2.945
 7937SOL    HW235843   6.388   3.093   2.849
 7938SOL     OW35844   6.272   3.023   3.665
 7938SOL    HW135845   6.332   3.102   3.679
 7938SOL    HW235846   6.186   3.054   3.624
 7939SOL     OW35847   5.921   3.297   2.923
 7939SOL    HW135848   5.843   3.266   2.870
 7939SOL    HW235849   5.979   3.355   2.866
 7940SOL     OW35850   7.046   3.367   3.201
 7940SOL    HW135851   7.070   3.461   3.227
 7940SOL    HW235852   7.030   3.313   3.283
 7941SOL     OW35853   6.024   2.254   3.361
 7941SOL    HW135854   6.106   2.198   3.370
 7941SOL    HW235855   5.943   2.196   3.365
 7942SOL     OW35856   6.206   3.648   3.301
 7942SOL    HW135857   6.114   3.631   3.336
 7942SOL    HW235858   6.234   3.740   3.327
 7943SOL     OW35859   7.180   1.976   3.342
 7943SOL    HW135860   7.162   2.043   3.270
 7943SOL    HW235861   7.177   2.022   3.431
 7944SOL     OW35862   7.428   3.629   2.221
 7944SOL    HW135863   7.482   3.600   2.301
 7944SOL    HW235864   7.458   3.719   2.192
 7945SOL     OW35865   5.699   2.599   3.459
 7945SOL    HW135866   5.787   2.586   3.504
 7945SOL    HW235867   5.686   2.696   3.437
 7946SOL     OW35868   5.903   2.113   3.663
 7946SOL    HW135869   5.974   2.184   3.669
 7946SOL    HW235870   5.815   2.152   3.691
 7947SOL     OW35871   6.393   2.467   3.327
 7947SOL    HW135872   6.346   2.464   3.416
 7947SOL    HW235873   6.342   2.412   3.261
 7948SOL     OW35874   6.627   2.563   2.291
 7948SOL    HW135875   6.653   2.559   2.387
 7948SOL    HW235876   6.542   2.512   2.277
 7949SOL     OW35877   7.305   2.447   3.693
 7949SOL    HW135878   7.279   2.536   3.657
 7949SOL    HW235879   7.303   2.379   3.620
 7950SOL     OW35880   6.136   2.058   2.747
 7950SOL    HW135881   6.131   2.053   2.847
 7950SOL    HW235882   6.138   2.154   2.718
 7951SOL     OW35883   7.381   2.928   2.735
 7951SOL    HW135884   7.319   2.913   2.659
 7951SOL    HW235885   7.329   2.939   2.820
 7952SOL     OW35886   6.813   3.412   3.368
 7952SOL    HW135887   6.819   3.335   3.432
 7952SOL    HW235888   6.761   3.386   3.288
 7953SOL     OW35889   7.044   2.597   2.590
 7953SOL    HW135890   7.039   2.532   2.665
 7953SOL    HW235891   7.124   2.656   2.603
 7954SOL     OW35892   6.697   3.638   2.099
 7954SOL    HW135893   6.637   3.576   2.149
 7954SOL    HW235894   6.728   3.594   2.014
 7955SOL     OW35895   6.986   1.969   2.288
 7955SOL    HW135896   6.962   1.932   2.198
 7955SOL    HW235897   7.085   1.985   2.292
 7956SOL     OW35898   7.133   2.084   3.591
 7956SOL    HW135899   7.128   2.121   3.683
 7956SOL    HW235900   7.061   2.015   3.579
 7957SOL     OW35901   6.389   3.264   2.786
 7957SOL    HW135902   6.479   3.278   2.744
 7957SOL    HW235903   6.318   3.266   2.715
 7958SOL     OW35904   5.883   1.897   2.033
 7958SOL    HW135905   5.932   1.981   2.012
 7958SOL    HW235906   5.945   1.832   2.078
 7959SOL     OW35907   7.443   2.695   2.239
 7959SOL    HW135908   7.485   2.631   2.303
 7959SOL    HW235909   7.405   2.644   2.161
 7960SOL     OW35910   6.074   3.247   2.036
 7960SOL    HW135911   5.987   3.232   2.083
 7960SOL    HW235912   6.057   3.273   1.941
 7961SOL     OW35913   6.976   2.437   1.940
 7961SOL    HW135914   6.922   2.416   2.021
 7961SOL    HW235915   7.067   2.396   1.949
 7962SOL     OW35916   7.178   3.491   3.487
 7962SOL    HW135917   7.205   3.525   3.397
 7962SOL    HW235918   7.257   3.453   3.533
 7963SOL     OW35919   6.501   1.951   3.264
 7963SOL    HW135920   6.526   1.931   3.169
 7963SOL    HW235921   6.573   2.007   3.306
 7964SOL     OW35922   5.996   2.675   3.113
 7964SOL    HW135923   6.082   2.687   3.163
 7964SOL    HW235924   5.954   2.588   3.140
 7965SOL     OW35925   6.858   3.307   3.004
 7965SOL    HW135926   6.905   3.320   3.091
 7965SOL    HW235927   6.792   3.233   3.013
 7966SOL     OW35928   5.988   2.613   3.460
 7966SOL    HW135929   6.056   2.668   3.413
 7966SOL    HW235930   6.028   2.525   3.487
 7967SOL     OW35931   6.090   1.912   3.602
 7967SOL    HW135932   6.048   1.855   3.532
 7967SOL    HW235933   6.024   1.981   3.634
 7968SOL     OW35934   6.159   2.732   2.891
 7968SOL    HW135935   6.203   2.821   2.882
 7968SOL    HW235936   6.096   2.732   2.968
 7969SOL     OW35937   5.893   1.925   2.480
 7969SOL    HW135938   5.882   2.019   2.513
 7969SOL    HW235939   5.888   1.862   2.557
 7970SOL     OW35940   7.126   2.136   1.987
 7970SOL    HW135941   7.065   2.061   2.010
 7970SOL    HW235942   7.148   2.188   2.070
 7971SOL     OW35943   6.889   2.700   1.904
 7971SOL    HW135944   6.923   2.607   1.919
 7971SOL    HW235945   6.907   2.727   1.809
 7972SOL     OW35946   5.905   2.672   2.811
 7972SOL    HW135947   5.998   2.708   2.816
 7972SOL    HW235948   5.899   2.587   2.863
 7973SOL     OW35949   6.746   2.069   3.339
 7973SOL    HW135950   6.746   2.133   3.416
 7973SOL    HW235951   6.774   2.117   3.256
 7974SOL     OW35952   6.090   3.430   2.772
 7974SOL    HW135953   6.156   3.504   2.781
 7974SOL    HW235954   6.134   3.351   2.730
 7975SOL     OW35955   6.516   3.540   3.327
 7975SOL    HW135956   6.492   3.522   3.232
 7975SOL    HW235957   6.546   3.634   3.337
 7976SOL     OW35958   6.933   2.921   3.096
 7976SOL    HW135959   6.957   2.858   3.022
 7976SOL    HW235960   6.843   2.961   3.078
 7977SOL     OW35961   6.888   2.717   2.171
 7977SOL    HW135962   6.802   2.686   2.213
 7977SOL    HW235963   6.884   2.703   2.072
 7978SOL     OW35964   5.669   3.120   2.884
 7978SOL    HW135965   5.664   3.119   2.984
 7978SOL    HW235966   5.586   3.079   2.846
 7979SOL     OW35967   6.274   3.524   3.578
 7979SOL    HW135968   6.218   3.605   3.587
 7979SOL    HW235969   6.326   3.528   3.492
 7980SOL     OW35970   5.716   3.656   3.713
 7980SOL    HW135971   5.675   3.582   3.766
 7980SOL    HW235972   5.780   3.707   3.771
 7981SOL     OW35973   7.427   2.037   2.825
 7981SOL    HW135974   7.466   1.952   2.789
 7981SOL    HW235975   7.329   2.039   2.806
 7982SOL     OW35976   5.849   2.188   2.582
 7982SOL    HW135977   5.770   2.239   2.548
 7982SOL    HW235978   5.840   2.173   2.680
 7983SOL     OW35979   6.780   3.474   1.893
 7983SOL    HW135980   6.786   3.381   1.930
 7983SOL    HW235981   6.721   3.474   1.813
 7984SOL     OW35982   6.408   2.864   3.234
 7984SOL    HW135983   6.448   2.863   3.142
 7984SOL    HW235984   6.418   2.956   3.274
 7985SOL     OW35985   6.502   2.772   2.153
 7985SOL    HW135986   6.565   2.810   2.085
 7985SOL    HW235987   6.542   2.689   2.192
 7986SOL     OW35988   7.295   2.247   3.243
 7986SOL    HW135989   7.368   2.316   3.247
 7986SOL    HW235990   7.323   2.172   3.184
 7987SOL     OW35991   5.691   2.875   3.588
 7987SOL    HW135992   5.614   2.842   3.642
 7987SOL    HW235993   5.776   2.845   3.630
 7988SOL     OW35994   5.661   2.207   1.895
 7988SOL    HW135995   5.569   2.179   1.866
 7988SOL    HW235996   5.692   2.284   1.839
 7989SOL     OW35997   5.658   2.028   2.180
 7989SOL    HW135998   5.641   2.111   2.126
 7989SOL    HW235999   5.748   1.991   2.158
 7990SOL     OW36000   7.079   3.629   2.821
 7990SOL    HW136001   7.112   3.693   2.752
 7990SOL    HW236002   7.145   3.623   2.896
 7991SOL     OW36003   6.811   2.187   2.311
 7991SOL    HW136004   6.876   2.113   2.300
 7991SOL    HW236005   6.831   2.237   2.395
 7992SOL     OW36006   7.363   2.204   3.504
 7992SOL    HW136007   7.346   2.235   3.410
 7992SOL    HW236008   7.279   2.167   3.542
 7993SOL     OW36009   7.316   2.796   3.379
 7993SOL    HW136010   7.354   2.887   3.394
 7993SOL    HW236011   7.308   2.779   3.280
 7994SOL     OW36012   6.445   3.236   1.878
 7994SOL    HW136013   6.399   3.251   1.966
 7994SOL    HW236014   6.489   3.321   1.848
 7995SOL     OW36015   6.669   2.846   1.949
 7995SOL    HW136016   6.646   2.899   1.867
 7995SOL    HW236017   6.750   2.790   1.930
 7996SOL     OW36018   6.258   3.253   3.486
 7996SOL    HW136019   6.180   3.203   3.524
 7996SOL    HW236020   6.255   3.348   3.517
 7997SOL     OW36021   6.398   3.448   2.549
 7997SOL    HW136022   6.430   3.458   2.455
 7997SOL    HW236023   6.319   3.386   2.551
 7998SOL     OW36024   6.938   1.914   2.030
 7998SOL    HW136025   6.973   1.873   1.946
 7998SOL    HW236026   6.848   1.876   2.050
 7999SOL     OW36027   6.886   2.315   2.553
 7999SOL    HW136028   6.827   2.395   2.557
 7999SOL    HW236029   6.901   2.280   2.646
 8000SOL     OW36030   5.816   2.490   3.837
 8000SOL    HW136031   5.723   2.488   3.874
 8000SOL    HW236032   5.817   2.451   3.745
 8001SOL     OW36033   5.811   2.137   4.720
 8001SOL    HW136034   5.846   2.120   4.812
 8001SOL    HW236035   5.723   2.092   4.708
 8002SOL     OW36036   5.605   2.230   4.371
 8002SOL    HW136037   5.523   2.273   4.410
 8002SOL    HW236038   5.577   2.157   4.308
 8003SOL     OW36039   6.155   3.137   4.889
 8003SOL    HW136040   6.062   3.130   4.852
 8003SOL    HW236041   6.166   3.226   4.933
 8004SOL     OW36042   6.436   2.660   5.547
 8004SOL    HW136043   6.432   2.736   5.612
 8004SOL    HW236044   6.458   2.696   5.456
 8005SOL     OW36045   7.189   2.309   4.461
 8005SOL    HW136046   7.115   2.355   4.411
 8005SOL    HW236047   7.240   2.377   4.514
 8006SOL     OW36048   7.180   1.976   5.204
 8006SOL    HW136049   7.162   2.043   5.132
 8006SOL    HW236050   7.177   2.022   5.293
 8007SOL     OW36051   7.428   3.629   4.083
 8007SOL    HW136052   7.482   3.600   4.163
 8007SOL    HW236053   7.458   3.719   4.054
 8008SOL     OW36054   7.275   2.784   4.336
 8008SOL    HW136055   7.370   2.755   4.344
 8008SOL    HW236056   7.267   2.849   4.261
 8009SOL     OW36057   5.699   2.599   5.321
 8009SOL    HW136058   5.787   2.586   5.366
 8009SOL    HW236059   5.686   2.696   5.299
 8010SOL     OW36060   6.199   3.227   4.450
 8010SOL    HW136061   6.150   3.140   4.459
 8010SOL    HW236062   6.176   3.270   4.363
 8011SOL     OW36063   6.395   1.866   4.226
 8011SOL    HW136064   6.435   1.957   4.217
 8011SOL    HW236065   6.295   1.874   4.232
 8012SOL     OW36066   7.253   3.576   4.296
 8012SOL    HW136067   7.212   3.553   4.208
 8012SOL    HW236068   7.235   3.502   4.361
 8013SOL     OW36069   6.867   2.207   4.668
 8013SOL    HW136070   6.781   2.157   4.655
 8013SOL    HW236071   6.929   2.153   4.724
 8014SOL     OW36072   7.162   3.524   4.031
 8014SOL    HW136073   7.251   3.570   4.034
 8014SOL    HW236074   7.141   3.500   3.936
 8015SOL     OW36075   6.577   2.272   4.966
 8015SOL    HW136076   6.500   2.306   5.020
 8015SOL    HW236077   6.543   2.221   4.887
 8016SOL     OW36078   6.627   2.563   4.153
 8016SOL    HW136079   6.653   2.559   4.249
 8016SOL    HW236080   6.542   2.512   4.139
 8017SOL     OW36081   5.662   2.673   4.513
 8017SOL    HW136082   5.761   2.661   4.522
 8017SOL    HW236083   5.638   2.768   4.534
 8018SOL     OW36084   6.594   3.318   4.201
 8018SOL    HW136085   6.548   3.390   4.149
 8018SOL    HW236086   6.590   3.338   4.299
 8019SOL     OW36087   6.047   3.128   5.451
 8019SOL    HW136088   5.997   3.129   5.365
 8019SOL    HW236089   5.984   3.110   5.527
 8020SOL     OW36090   6.697   3.638   3.961
 8020SOL    HW136091   6.637   3.576   4.011
 8020SOL    HW236092   6.728   3.594   3.876
 8021SOL     OW36093   7.218   3.239   3.805
 8021SOL    HW136094   7.186   3.333   3.795
 8021SOL    HW236095   7.142   3.176   3.793
 8022SOL     OW36096   5.968   2.562   4.204
 8022SOL    HW136097   6.013   2.472   4.201
 8022SOL    HW236098   5.874   2.551   4.237
 8023SOL     OW36099   6.200   1.984   3.841
 8023SOL    HW136100   6.298   1.962   3.848
 8023SOL    HW236101   6.169   1.967   3.748
 8024SOL     OW36102   6.367   2.126   5.473
 8024SOL    HW136103   6.434   2.065   5.516
 8024SOL    HW236104   6.294   2.145   5.538
 8025SOL     OW36105   6.474   3.376   4.919
 8025SOL    HW136106   6.451   3.351   4.825
 8025SOL    HW236107   6.535   3.307   4.958
 8026SOL     OW36108   6.508   2.365   4.623
 8026SOL    HW136109   6.483   2.356   4.527
 8026SOL    HW236110   6.556   2.283   4.654
 8027SOL     OW36111   7.020   3.050   3.765
 8027SOL    HW136112   7.052   2.974   3.822
 8027SOL    HW236113   6.928   3.077   3.795
 8028SOL     OW36114   5.883   1.897   3.895
 8028SOL    HW136115   5.932   1.981   3.874
 8028SOL    HW236116   5.945   1.832   3.940
 8029SOL     OW36117   6.521   2.098   4.204
 8029SOL    HW136118   6.473   2.139   4.126
 8029SOL    HW236119   6.620   2.096   4.185
 8030SOL     OW36120   6.045   3.014   4.465
 8030SOL    HW136121   5.974   2.987   4.530
 8030SOL    HW236122   6.019   2.986   4.372
 8031SOL     OW36123   6.857   3.659   4.315
 8031SOL    HW136124   6.901   3.723   4.251
 8031SOL    HW236125   6.807   3.711   4.385
 8032SOL     OW36126   6.618   2.411   3.740
 8032SOL    HW136127   6.577   2.493   3.701
 8032SOL    HW236128   6.682   2.437   3.813
 8033SOL     OW36129   5.664   2.418   5.110
 8033SOL    HW136130   5.756   2.417   5.069
 8033SOL    HW236131   5.658   2.492   5.177
 8034SOL     OW36132   6.147   2.084   4.871
 8034SOL    HW136133   6.185   2.000   4.908
 8034SOL    HW236134   6.059   2.103   4.915
 8035SOL     OW36135   6.452   2.316   4.366
 8035SOL    HW136136   6.420   2.388   4.304
 8035SOL    HW236137   6.476   2.235   4.313
 8036SOL     OW36138   7.052   2.452   4.716
 8036SOL    HW136139   7.022   2.357   4.723
 8036SOL    HW236140   7.125   2.468   4.782
 8037SOL     OW36141   7.443   2.695   4.101
 8037SOL    HW136142   7.485   2.631   4.165
 8037SOL    HW236143   7.405   2.644   4.023
 8038SOL     OW36144   6.074   3.247   3.898
 8038SOL    HW136145   5.987   3.232   3.945
 8038SOL    HW236146   6.057   3.273   3.803
 8039SOL     OW36147   7.340   3.085   5.312
 8039SOL    HW136148   7.431   3.046   5.299
 8039SOL    HW236149   7.348   3.181   5.336
 8040SOL     OW36150   6.650   3.209   5.064
 8040SOL    HW136151   6.570   3.186   5.119
 8040SOL    HW236152   6.733   3.183   5.113
 8041SOL     OW36153   7.178   3.491   5.349
 8041SOL    HW136154   7.205   3.525   5.259
 8041SOL    HW236155   7.257   3.453   5.395
 8042SOL     OW36156   7.224   2.961   4.803
 8042SOL    HW136157   7.229   3.042   4.862
 8042SOL    HW236158   7.138   2.963   4.752
 8043SOL     OW36159   6.566   2.978   5.443
 8043SOL    HW136160   6.467   2.984   5.453
 8043SOL    HW236161   6.589   2.898   5.387
 8044SOL     OW36162   5.953   2.962   4.225
 8044SOL    HW136163   5.946   3.045   4.169
 8044SOL    HW236164   5.957   2.882   4.165
 8045SOL     OW36165   5.940   3.372   5.053
 8045SOL    HW136166   5.919   3.328   4.966
 8045SOL    HW236167   6.037   3.398   5.056
 8046SOL     OW36168   7.173   2.641   5.394
 8046SOL    HW136169   7.081   2.679   5.389
 8046SOL    HW236170   7.233   2.688   5.329
 8047SOL     OW36171   6.946   2.724   4.769
 8047SOL    HW136172   6.871   2.724   4.703
 8047SOL    HW236173   6.983   2.632   4.778
 8048SOL     OW36174   7.208   2.229   4.098
 8048SOL    HW136175   7.210   2.153   4.162
 8048SOL    HW236176   7.160   2.306   4.138
 8049SOL     OW36177   7.126   2.136   3.849
 8049SOL    HW136178   7.065   2.061   3.872
 8049SOL    HW236179   7.148   2.188   3.932
 8050SOL     OW36180   6.746   2.069   5.201
 8050SOL    HW136181   6.746   2.133   5.278
 8050SOL    HW236182   6.774   2.117   5.118
 8051SOL     OW36183   5.594   3.188   3.924
 8051SOL    HW136184   5.501   3.209   3.893
 8051SOL    HW236185   5.604   3.089   3.937
 8052SOL     OW36186   6.588   2.658   4.962
 8052SOL    HW136187   6.629   2.626   5.048
 8052SOL    HW236188   6.492   2.631   4.959
 8053SOL     OW36189   5.775   2.382   5.446
 8053SOL    HW136190   5.834   2.342   5.376
 8053SOL    HW236191   5.717   2.453   5.405
 8054SOL     OW36192   6.955   2.812   5.384
 8054SOL    HW136193   6.994   2.901   5.404
 8054SOL    HW236194   6.965   2.792   5.287
 8055SOL     OW36195   6.401   2.434   4.049
 8055SOL    HW136196   6.408   2.345   4.003
 8055SOL    HW236197   6.307   2.468   4.041
 8056SOL     OW36198   5.716   3.656   5.575
 8056SOL    HW136199   5.675   3.582   5.628
 8056SOL    HW236200   5.780   3.707   5.633
 8057SOL     OW36201   7.236   3.582   5.118
 8057SOL    HW136202   7.289   3.592   5.034
 8057SOL    HW236203   7.209   3.672   5.152
 8058SOL     OW36204   6.780   3.474   3.755
 8058SOL    HW136205   6.786   3.381   3.792
 8058SOL    HW236206   6.721   3.474   3.675
 8059SOL     OW36207   7.090   3.469   3.768
 8059SOL    HW136208   6.998   3.506   3.775
 8059SOL    HW236209   7.128   3.489   3.678
 8060SOL     OW36210   5.958   3.150   5.214
 8060SOL    HW136211   5.945   3.243   5.180
 8060SOL    HW236212   5.874   3.098   5.201
 8061SOL     OW36213   7.200   3.154   5.013
 8061SOL    HW136214   7.260   3.157   5.093
 8061SOL    HW236215   7.125   3.218   5.026
 8062SOL     OW36216   5.691   2.875   5.450
 8062SOL    HW136217   5.614   2.842   5.504
 8062SOL    HW236218   5.776   2.845   5.492
 8063SOL     OW36219   6.258   2.065   5.213
 8063SOL    HW136220   6.348   2.049   5.173
 8063SOL    HW236221   6.266   2.070   5.312
 8064SOL     OW36222   5.661   2.207   3.757
 8064SOL    HW136223   5.569   2.179   3.728
 8064SOL    HW236224   5.692   2.284   3.701
 8065SOL     OW36225   7.079   3.629   4.683
 8065SOL    HW136226   7.112   3.693   4.614
 8065SOL    HW236227   7.145   3.623   4.758
 8066SOL     OW36228   6.302   2.427   5.432
 8066SOL    HW136229   6.321   2.492   5.506
 8066SOL    HW236230   6.362   2.347   5.441
 8067SOL     OW36231   6.811   2.187   4.173
 8067SOL    HW136232   6.876   2.113   4.162
 8067SOL    HW236233   6.831   2.237   4.257
 8068SOL     OW36234   7.363   2.204   5.366
 8068SOL    HW136235   7.346   2.235   5.272
 8068SOL    HW236236   7.279   2.167   5.404
 8069SOL     OW36237   7.447   3.431   4.575
 8069SOL    HW136238   7.376   3.419   4.505
 8069SOL    HW236239   7.448   3.352   4.635
 8070SOL     OW36240   6.258   3.253   5.348
 8070SOL    HW136241   6.180   3.203   5.386
 8070SOL    HW236242   6.255   3.348   5.379
 8071SOL     OW36243   6.014   2.286   4.244
 8071SOL    HW136244   6.044   2.214   4.182
 8071SOL    HW236245   5.975   2.246   4.327
 8072SOL     OW36246   5.903   2.409   5.004
 8072SOL    HW136247   5.941   2.350   5.076
 8072SOL    HW236248   5.943   2.383   4.916
 8073SOL     OW36249   6.398   3.448   4.411
 8073SOL    HW136250   6.430   3.458   4.317
 8073SOL    HW236251   6.319   3.386   4.413
 8074SOL     OW36252   6.938   1.914   3.892
 8074SOL    HW136253   6.973   1.873   3.808
 8074SOL    HW236254   6.848   1.876   3.912
 8075SOL     OW36255   6.886   2.315   4.415
 8075SOL    HW136256   6.827   2.395   4.419
 8075SOL    HW236257   6.901   2.280   4.508
 8076SOL     OW36258   5.625   2.939   4.024
 8076SOL    HW136259   5.724   2.928   4.015
 8076SOL    HW236260   5.585   2.853   4.056
 8077SOL     OW36261   5.811   2.137   6.582
 8077SOL    HW136262   5.846   2.120   6.674
 8077SOL    HW236263   5.723   2.092   6.570
 8078SOL     OW36264   6.155   3.137   6.751
 8078SOL    HW136265   6.062   3.130   6.714
 8078SOL    HW236266   6.166   3.226   6.795
 8079SOL     OW36267   6.354   3.006   6.609
 8079SOL    HW136268   6.276   3.023   6.669
 8079SOL    HW236269   6.388   3.093   6.573
 8080SOL     OW36270   6.436   2.660   7.409
 8080SOL    HW136271   6.432   2.736   7.474
 8080SOL    HW236272   6.458   2.696   7.318
 8081SOL     OW36273   6.271   2.874   6.251
 8081SOL    HW136274   6.340   2.858   6.321
 8081SOL    HW236275   6.198   2.931   6.289
 8082SOL     OW36276   6.272   3.023   7.389
 8082SOL    HW136277   6.332   3.102   7.403
 8082SOL    HW236278   6.186   3.054   7.348
 8083SOL     OW36279   5.921   3.297   6.647
 8083SOL    HW136280   5.843   3.266   6.594
 8083SOL    HW236281   5.979   3.355   6.590
 8084SOL     OW36282   7.046   3.367   6.925
 8084SOL    HW136283   7.070   3.461   6.951
 8084SOL    HW236284   7.030   3.313   7.007
 8085SOL     OW36285   6.024   2.254   7.085
 8085SOL    HW136286   6.106   2.198   7.094
 8085SOL    HW236287   5.943   2.196   7.089
 8086SOL     OW36288   7.189   2.309   6.323
 8086SOL    HW136289   7.115   2.355   6.273
 8086SOL    HW236290   7.240   2.377   6.376
 8087SOL     OW36291   6.713   3.203   7.276
 8087SOL    HW136292   6.760   3.203   7.364
 8087SOL    HW236293   6.665   3.116   7.265
 8088SOL     OW36294   5.826   2.953   6.472
 8088SOL    HW136295   5.840   2.869   6.524
 8088SOL    HW236296   5.771   3.017   6.527
 8089SOL     OW36297   6.206   3.648   7.025
 8089SOL    HW136298   6.114   3.631   7.060
 8089SOL    HW236299   6.234   3.740   7.051
 8090SOL     OW36300   7.180   1.976   7.066
 8090SOL    HW136301   7.162   2.043   6.994
 8090SOL    HW236302   7.177   2.022   7.155
 8091SOL     OW36303   7.227   2.970   6.018
 8091SOL    HW136304   7.313   2.972   5.966
 8091SOL    HW236305   7.241   3.017   6.106
 8092SOL     OW36306   5.699   2.599   7.183
 8092SOL    HW136307   5.787   2.586   7.228
 8092SOL    HW236308   5.686   2.696   7.161
 8093SOL     OW36309   6.879   3.090   7.009
 8093SOL    HW136310   6.916   3.017   6.951
 8093SOL    HW236311   6.931   3.095   7.094
 8094SOL     OW36312   6.395   1.866   6.088
 8094SOL    HW136313   6.435   1.957   6.079
 8094SOL    HW236314   6.295   1.874   6.094
 8095SOL     OW36315   5.783   2.838   6.850
 8095SOL    HW136316   5.872   2.793   6.836
 8095SOL    HW236317   5.710   2.773   6.831
 8096SOL     OW36318   6.773   3.654   7.202
 8096SOL    HW136319   6.797   3.714   7.126
 8096SOL    HW236320   6.780   3.559   7.172
 8097SOL     OW36321   5.903   2.113   7.387
 8097SOL    HW136322   5.974   2.184   7.393
 8097SOL    HW236323   5.815   2.152   7.415
 8098SOL     OW36324   7.052   3.279   6.539
 8098SOL    HW136325   6.993   3.285   6.619
 8098SOL    HW236326   7.037   3.191   6.493
 8099SOL     OW36327   6.184   2.591   5.856
 8099SOL    HW136328   6.208   2.660   5.788
 8099SOL    HW236329   6.106   2.624   5.910
 8100SOL     OW36330   6.867   2.207   6.530
 8100SOL    HW136331   6.781   2.157   6.517
 8100SOL    HW236332   6.929   2.153   6.586
 8101SOL     OW36333   6.393   2.467   7.051
 8101SOL    HW136334   6.346   2.464   7.140
 8101SOL    HW236335   6.342   2.412   6.985
 8102SOL     OW36336   6.559   2.752   7.158
 8102SOL    HW136337   6.605   2.668   7.129
 8102SOL    HW236338   6.503   2.786   7.083
 8103SOL     OW36339   6.577   2.272   6.828
 8103SOL    HW136340   6.500   2.306   6.882
 8103SOL    HW236341   6.543   2.221   6.749
 8104SOL     OW36342   5.716   3.683   7.157
 8104SOL    HW136343   5.706   3.668   7.256
 8104SOL    HW236344   5.630   3.719   7.121
 8105SOL     OW36345   6.451   2.210   5.781
 8105SOL    HW136346   6.510   2.273   5.732
 8105SOL    HW236347   6.470   2.116   5.752
 8106SOL     OW36348   6.948   3.006   6.131
 8106SOL    HW136349   7.031   2.977   6.083
 8106SOL    HW236350   6.899   3.073   6.075
 8107SOL     OW36351   6.136   2.058   6.471
 8107SOL    HW136352   6.131   2.053   6.571
 8107SOL    HW236353   6.138   2.154   6.442
 8108SOL     OW36354   6.594   3.318   6.063
 8108SOL    HW136355   6.548   3.390   6.011
 8108SOL    HW236356   6.590   3.338   6.161
 8109SOL     OW36357   7.381   2.928   6.459
 8109SOL    HW136358   7.319   2.913   6.383
 8109SOL    HW236359   7.329   2.939   6.544
 8110SOL     OW36360   6.813   3.412   7.092
 8110SOL    HW136361   6.819   3.335   7.156
 8110SOL    HW236362   6.761   3.386   7.012
 8111SOL     OW36363   5.907   2.805   5.828
 8111SOL    HW136364   5.989   2.844   5.786
 8111SOL    HW236365   5.880   2.723   5.779
 8112SOL     OW36366   6.047   3.128   7.313
 8112SOL    HW136367   5.997   3.129   7.227
 8112SOL    HW236368   5.984   3.110   7.389
 8113SOL     OW36369   5.788   2.147   7.084
 8113SOL    HW136370   5.708   2.207   7.071
 8113SOL    HW236371   5.778   2.098   7.170
 8114SOL     OW36372   7.218   3.239   5.667
 8114SOL    HW136373   7.186   3.333   5.657
 8114SOL    HW236374   7.142   3.176   5.655
 8115SOL     OW36375   5.835   3.647   6.827
 8115SOL    HW136376   5.892   3.582   6.877
 8115SOL    HW236377   5.819   3.614   6.734
 8116SOL     OW36378   6.526   3.560   6.490
 8116SOL    HW136379   6.606   3.503   6.511
 8116SOL    HW236380   6.477   3.520   6.413
 8117SOL     OW36381   5.968   2.562   6.066
 8117SOL    HW136382   6.013   2.472   6.063
 8117SOL    HW236383   5.874   2.551   6.099
 8118SOL     OW36384   6.367   2.126   7.335
 8118SOL    HW136385   6.434   2.065   7.378
 8118SOL    HW236386   6.294   2.145   7.400
 8119SOL     OW36387   6.474   3.376   6.781
 8119SOL    HW136388   6.451   3.351   6.687
 8119SOL    HW236389   6.535   3.307   6.820
 8120SOL     OW36390   6.937   2.452   7.019
 8120SOL    HW136391   6.965   2.409   7.104
 8120SOL    HW236392   6.962   2.548   7.020
 8121SOL     OW36393   6.389   3.264   6.510
 8121SOL    HW136394   6.479   3.278   6.468
 8121SOL    HW236395   6.318   3.266   6.439
 8122SOL     OW36396   6.508   2.365   6.485
 8122SOL    HW136397   6.483   2.356   6.389
 8122SOL    HW236398   6.556   2.283   6.516
 8123SOL     OW36399   6.125   1.926   6.098
 8123SOL    HW136400   6.044   1.927   6.156
 8123SOL    HW236401   6.128   2.009   6.043
 8124SOL     OW36402   7.020   3.050   5.627
 8124SOL    HW136403   7.052   2.974   5.684
 8124SOL    HW236404   6.928   3.077   5.657
 8125SOL     OW36405   5.883   1.897   5.757
 8125SOL    HW136406   5.932   1.981   5.736
 8125SOL    HW236407   5.945   1.832   5.802
 8126SOL     OW36408   6.521   2.098   6.066
 8126SOL    HW136409   6.473   2.139   5.988
 8126SOL    HW236410   6.620   2.096   6.047
 8127SOL     OW36411   6.662   2.545   7.050
 8127SOL    HW136412   6.582   2.484   7.053
 8127SOL    HW236413   6.743   2.492   7.026
 8128SOL     OW36414   6.813   3.432   6.379
 8128SOL    HW136415   6.834   3.506   6.314
 8128SOL    HW236416   6.881   3.432   6.452
 8129SOL     OW36417   5.664   2.418   6.972
 8129SOL    HW136418   5.756   2.417   6.931
 8129SOL    HW236419   5.658   2.492   7.039
 8130SOL     OW36420   6.147   2.084   6.733
 8130SOL    HW136421   6.185   2.000   6.770
 8130SOL    HW236422   6.059   2.103   6.777
 8131SOL     OW36423   6.452   2.316   6.228
 8131SOL    HW136424   6.420   2.388   6.166
 8131SOL    HW236425   6.476   2.235   6.175
 8132SOL     OW36426   6.603   1.901   6.339
 8132SOL    HW136427   6.531   1.906   6.270
 8132SOL    HW236428   6.579   1.832   6.408
 8133SOL     OW36429   7.015   3.035   6.453
 8133SOL    HW136430   6.960   2.951   6.446
 8133SOL    HW236431   7.041   3.064   6.361
 8134SOL     OW36432   7.052   2.452   6.578
 8134SOL    HW136433   7.022   2.357   6.585
 8134SOL    HW236434   7.125   2.468   6.644
 8135SOL     OW36435   7.443   2.695   5.963
 8135SOL    HW136436   7.485   2.631   6.027
 8135SOL    HW236437   7.405   2.644   5.885
 8136SOL     OW36438   7.250   3.142   6.243
 8136SOL    HW136439   7.349   3.150   6.257
 8136SOL    HW236440   7.205   3.226   6.274
 8137SOL     OW36441   6.113   2.118   5.914
 8137SOL    HW136442   6.140   2.059   5.839
 8137SOL    HW236443   6.113   2.213   5.883
 8138SOL     OW36444   7.340   3.085   7.174
 8138SOL    HW136445   7.431   3.046   7.161
 8138SOL    HW236446   7.348   3.181   7.198
 8139SOL     OW36447   6.650   3.209   6.926
 8139SOL    HW136448   6.570   3.186   6.981
 8139SOL    HW236449   6.733   3.183   6.975
 8140SOL     OW36450   7.178   3.491   7.211
 8140SOL    HW136451   7.205   3.525   7.121
 8140SOL    HW236452   7.257   3.453   7.257
 8141SOL     OW36453   6.697   3.057   6.686
 8141SOL    HW136454   6.657   3.101   6.767
 8141SOL    HW236455   6.656   3.094   6.603
 8142SOL     OW36456   7.224   2.961   6.665
 8142SOL    HW136457   7.229   3.042   6.724
 8142SOL    HW236458   7.138   2.963   6.614
 8143SOL     OW36459   6.501   1.951   6.988
 8143SOL    HW136460   6.526   1.931   6.893
 8143SOL    HW236461   6.573   2.007   7.030
 8144SOL     OW36462   6.566   2.978   7.305
 8144SOL    HW136463   6.467   2.984   7.315
 8144SOL    HW236464   6.589   2.898   7.249
 8145SOL     OW36465   6.291   2.912   5.954
 8145SOL    HW136466   6.277   2.919   6.053
 8145SOL    HW236467   6.375   2.861   5.936
 8146SOL     OW36468   5.996   2.675   6.837
 8146SOL    HW136469   6.082   2.687   6.887
 8146SOL    HW236470   5.954   2.588   6.864
 8147SOL     OW36471   6.860   2.248   6.848
 8147SOL    HW136472   6.881   2.322   6.912
 8147SOL    HW236473   6.771   2.265   6.805
 8148SOL     OW36474   5.650   3.426   6.917
 8148SOL    HW136475   5.604   3.508   6.883
 8148SOL    HW236476   5.748   3.445   6.926
 8149SOL     OW36477   5.953   2.962   6.087
 8149SOL    HW136478   5.946   3.045   6.031
 8149SOL    HW236479   5.957   2.882   6.027
 8150SOL     OW36480   6.152   2.399   6.451
 8150SOL    HW136481   6.164   2.465   6.377
 8150SOL    HW236482   6.198   2.433   6.534
 8151SOL     OW36483   6.838   3.210   5.974
 8151SOL    HW136484   6.888   3.287   6.014
 8151SOL    HW236485   6.743   3.212   6.006
 8152SOL     OW36486   6.858   3.307   6.728
 8152SOL    HW136487   6.905   3.320   6.815
 8152SOL    HW236488   6.792   3.233   6.737
 8153SOL     OW36489   5.940   3.372   6.915
 8153SOL    HW136490   5.919   3.328   6.828
 8153SOL    HW236491   6.037   3.398   6.918
 8154SOL     OW36492   5.988   2.613   7.184
 8154SOL    HW136493   6.056   2.668   7.137
 8154SOL    HW236494   6.028   2.525   7.211
 8155SOL     OW36495   7.173   2.641   7.256
 8155SOL    HW136496   7.081   2.679   7.251
 8155SOL    HW236497   7.233   2.688   7.191
 8156SOL     OW36498   6.159   2.732   6.615
 8156SOL    HW136499   6.203   2.821   6.606
 8156SOL    HW236500   6.096   2.732   6.692
 8157SOL     OW36501   6.946   2.724   6.631
 8157SOL    HW136502   6.871   2.724   6.565
 8157SOL    HW236503   6.983   2.632   6.640
 8158SOL     OW36504   5.893   2.075   6.817
 8158SOL    HW136505   5.870   2.112   6.907
 8158SOL    HW236506   5.863   1.980   6.811
 8159SOL     OW36507   5.623   3.172   6.868
 8159SOL    HW136508   5.676   3.123   6.936
 8159SOL    HW236509   5.645   3.270   6.873
 8160SOL     OW36510   6.318   2.496   6.650
 8160SOL    HW136511   6.377   2.470   6.574
 8160SOL    HW236512   6.290   2.592   6.639
 8161SOL     OW36513   7.314   2.797   7.440
 8161SOL    HW136514   7.268   2.790   7.351
 8161SOL    HW236515   7.252   2.841   7.506
 8162SOL     OW36516   6.609   2.628   6.552
 8162SOL    HW136517   6.624   2.649   6.648
 8162SOL    HW236518   6.579   2.533   6.543
 8163SOL     OW36519   6.566   3.435   7.286
 8163SOL    HW136520   6.546   3.479   7.198
 8163SOL    HW236521   6.605   3.344   7.270
 8164SOL     OW36522   7.445   3.380   7.191
 8164SOL    HW136523   7.459   3.407   7.096
 8164SOL    HW236524   7.528   3.402   7.244
 8165SOL     OW36525   5.936   2.760   7.390
 8165SOL    HW136526   6.012   2.804   7.438
 8165SOL    HW236527   5.971   2.713   7.308
 8166SOL     OW36528   6.654   3.195   6.435
 8166SOL    HW136529   6.661   3.111   6.380
 8166SOL    HW236530   6.716   3.264   6.399
 8167SOL     OW36531   5.905   2.672   6.535
 8167SOL    HW136532   5.998   2.708   6.540
 8167SOL    HW236533   5.899   2.587   6.587
 8168SOL     OW36534   5.925   2.371   6.592
 8168SOL    HW136535   5.873   2.288   6.575
 8168SOL    HW236536   6.002   2.376   6.528
 8169SOL     OW36537   6.724   2.242   7.264
 8169SOL    HW136538   6.679   2.305   7.328
 8169SOL    HW236539   6.817   2.273   7.247
 8170SOL     OW36540   6.746   2.069   7.063
 8170SOL    HW136541   6.746   2.133   7.140
 8170SOL    HW236542   6.774   2.117   6.980
 8171SOL     OW36543   6.588   2.658   6.824
 8171SOL    HW136544   6.629   2.626   6.910
 8171SOL    HW236545   6.492   2.631   6.821
 8172SOL     OW36546   5.626   2.406   6.700
 8172SOL    HW136547   5.711   2.373   6.659
 8172SOL    HW236548   5.639   2.421   6.798
 8173SOL     OW36549   6.401   2.434   5.911
 8173SOL    HW136550   6.408   2.345   5.865
 8173SOL    HW236551   6.307   2.468   5.903
 8174SOL     OW36552   7.243   2.466   6.792
 8174SOL    HW136553   7.205   2.397   6.854
 8174SOL    HW236554   7.325   2.430   6.748
 8175SOL     OW36555   5.838   3.426   7.330
 8175SOL    HW136556   5.808   3.483   7.406
 8175SOL    HW236557   5.831   3.329   7.356
 8176SOL     OW36558   6.257   2.326   6.855
 8176SOL    HW136559   6.223   2.237   6.825
 8176SOL    HW236560   6.283   2.380   6.775
 8177SOL     OW36561   6.516   3.540   7.051
 8177SOL    HW136562   6.492   3.522   6.956
 8177SOL    HW236563   6.546   3.634   7.061
 8178SOL     OW36564   6.059   2.362   5.777
 8178SOL    HW136565   6.120   2.442   5.781
 8178SOL    HW236566   5.964   2.393   5.784
 8179SOL     OW36567   5.745   2.999   7.052
 8179SOL    HW136568   5.767   2.938   7.128
 8179SOL    HW236569   5.755   2.950   6.966
 8180SOL     OW36570   6.933   2.921   6.820
 8180SOL    HW136571   6.957   2.858   6.746
 8180SOL    HW236572   6.843   2.961   6.802
 8181SOL     OW36573   7.345   3.609   6.740
 8181SOL    HW136574   7.406   3.639   6.667
 8181SOL    HW236575   7.307   3.520   6.718
 8182SOL     OW36576   6.838   3.593   6.714
 8182SOL    HW136577   6.922   3.598   6.660
 8182SOL    HW236578   6.815   3.497   6.732
 8183SOL     OW36579   5.669   3.120   6.608
 8183SOL    HW136580   5.664   3.119   6.708
 8183SOL    HW236581   5.586   3.079   6.570
 8184SOL     OW36582   6.274   3.524   7.302
 8184SOL    HW136583   6.218   3.605   7.311
 8184SOL    HW236584   6.326   3.528   7.216
 8185SOL     OW36585   6.866   2.789   6.258
 8185SOL    HW136586   6.926   2.708   6.260
 8185SOL    HW236587   6.906   2.858   6.198
 8186SOL     OW36588   6.416   3.135   7.008
 8186SOL    HW136589   6.411   3.168   7.103
 8186SOL    HW236590   6.330   3.154   6.962
 8187SOL     OW36591   7.236   3.582   6.980
 8187SOL    HW136592   7.289   3.592   6.896
 8187SOL    HW236593   7.209   3.672   7.014
 8188SOL     OW36594   7.427   2.037   6.549
 8188SOL    HW136595   7.466   1.952   6.513
 8188SOL    HW236596   7.329   2.039   6.530
 8189SOL     OW36597   6.780   3.474   5.617
 8189SOL    HW136598   6.786   3.381   5.654
 8189SOL    HW236599   6.721   3.474   5.537
 8190SOL     OW36600   6.408   2.864   6.958
 8190SOL    HW136601   6.448   2.863   6.866
 8190SOL    HW236602   6.418   2.956   6.998
 8191SOL     OW36603   6.502   2.772   5.877
 8191SOL    HW136604   6.565   2.810   5.809
 8191SOL    HW236605   6.542   2.689   5.916
 8192SOL     OW36606   7.090   3.469   5.630
 8192SOL    HW136607   6.998   3.506   5.637
 8192SOL    HW236608   7.128   3.489   5.540
 8193SOL     OW36609   5.958   3.150   7.076
 8193SOL    HW136610   5.945   3.243   7.042
 8193SOL    HW236611   5.874   3.098   7.063
 8194SOL     OW36612   7.200   3.154   6.875
 8194SOL    HW136613   7.260   3.157   6.955
 8194SOL    HW236614   7.125   3.218   6.888
 8195SOL     OW36615   6.625   2.960   6.282
 8195SOL    HW136616   6.555   2.913   6.336
 8195SOL    HW236617   6.684   2.892   6.239
 8196SOL     OW36618   6.600   2.098   6.557
 8196SOL    HW136619   6.592   2.062   6.464
 8196SOL    HW236620   6.598   2.022   6.622
 8197SOL     OW36621   7.295   2.247   6.967
 8197SOL    HW136622   7.368   2.316   6.971
 8197SOL    HW236623   7.323   2.172   6.908
 8198SOL     OW36624   5.691   2.875   7.312
 8198SOL    HW136625   5.614   2.842   7.366
 8198SOL    HW236626   5.776   2.845   7.354
 8199SOL     OW36627   6.258   2.065   7.075
 8199SOL    HW136628   6.348   2.049   7.035
 8199SOL    HW236629   6.266   2.070   7.174
 8200SOL     OW36630   7.026   2.718   6.984
 8200SOL    HW136631   6.969   2.770   6.921
 8200SOL    HW236632   7.122   2.730   6.960
 8201SOL     OW36633   6.769   3.197   5.705
 8201SOL    HW136634   6.670   3.186   5.707
 8201SOL    HW236635   6.803   3.212   5.798
 8202SOL     OW36636   6.199   2.704   7.017
 8202SOL    HW136637   6.255   2.785   7.000
 8202SOL    HW236638   6.258   2.624   7.020
 8203SOL     OW36639   7.079   3.629   6.545
 8203SOL    HW136640   7.112   3.693   6.476
 8203SOL    HW236641   7.145   3.623   6.620
 8204SOL     OW36642   6.302   2.427   7.294
 8204SOL    HW136643   6.321   2.492   7.368
 8204SOL    HW236644   6.362   2.347   7.303
 8205SOL     OW36645   5.976   3.603   7.146
 8205SOL    HW136646   5.885   3.644   7.144
 8205SOL    HW236647   5.969   3.509   7.178
 8206SOL     OW36648   7.260   2.745   6.840
 8206SOL    HW136649   7.233   2.656   6.803
 8206SOL    HW236650   7.261   2.813   6.767
 8207SOL     OW36651   6.180   2.607   6.238
 8207SOL    HW136652   6.230   2.692   6.219
 8207SOL    HW236653   6.092   2.609   6.190
 8208SOL     OW36654   7.363   2.204   7.228
 8208SOL    HW136655   7.346   2.235   7.134
 8208SOL    HW236656   7.279   2.167   7.266
 8209SOL     OW36657   7.316   2.796   7.103
 8209SOL    HW136658   7.354   2.887   7.118
 8209SOL    HW236659   7.308   2.779   7.004
 8210SOL     OW36660   6.247   3.652   6.539
 8210SOL    HW136661   6.201   3.740   6.526
 8210SOL    HW236662   6.346   3.664   6.532
 8211SOL     OW36663   6.445   2.818   6.447
 8211SOL    HW136664   6.499   2.749   6.495
 8211SOL    HW236665   6.413   2.887   6.513
 8212SOL     OW36666   5.807   3.176   7.430
 8212SOL    HW136667   5.742   3.103   7.409
 8212SOL    HW236668   5.811   3.190   7.528
 8213SOL     OW36669   5.665   3.102   6.239
 8213SOL    HW136670   5.664   3.055   6.327
 8213SOL    HW236671   5.747   3.074   6.188
 8214SOL     OW36672   6.258   3.253   7.210
 8214SOL    HW136673   6.180   3.203   7.248
 8214SOL    HW236674   6.255   3.348   7.241
 8215SOL     OW36675   7.410   2.054   6.813
 8215SOL    HW136676   7.406   1.964   6.857
 8215SOL    HW236677   7.413   2.043   6.714
 8216SOL     OW36678   6.014   2.286   6.106
 8216SOL    HW136679   6.044   2.214   6.044
 8216SOL    HW236680   5.975   2.246   6.189
 8217SOL     OW36681   7.291   3.349   6.690
 8217SOL    HW136682   7.198   3.324   6.663
 8217SOL    HW236683   7.317   3.299   6.772
 8218SOL     OW36684   5.903   2.409   6.866
 8218SOL    HW136685   5.941   2.350   6.938
 8218SOL    HW236686   5.943   2.383   6.778
 8219SOL     OW36687   6.398   3.448   6.273
 8219SOL    HW136688   6.430   3.458   6.179
 8219SOL    HW236689   6.319   3.386   6.275
 8220SOL     OW36690   7.010   2.076   6.698
 8220SOL    HW136691   7.062   2.011   6.753
 8220SOL    HW236692   6.961   2.139   6.759
 8221SOL     OW36693   6.587   1.896   6.740
 8221SOL    HW136694   6.524   1.824   6.709
 8221SOL    HW236695   6.680   1.860   6.740
 8222SOL     OW36696   6.204   3.429   6.870
 8222SOL    HW136697   6.199   3.511   6.927
 8222SOL    HW236698   6.293   3.426   6.825
 8223SOL     OW36699   6.938   1.914   5.754
 8223SOL    HW136700   6.973   1.873   5.670
 8223SOL    HW236701   6.848   1.876   5.774
 8224SOL     OW36702   7.179   2.083   6.468
 8224SOL    HW136703   7.095   2.082   6.522
 8224SOL    HW236704   7.181   2.166   6.412
 8225SOL     OW36705   5.625   2.939   5.886
 8225SOL    HW136706   5.724   2.928   5.877
 8225SOL    HW236707   5.585   2.853   5.918
 8226SOL     OW36708   5.816   4.352   0.113
 8226SOL    HW136709   5.723   4.350   0.150
 8226SOL    HW236710   5.817   4.313   0.021
 8227SOL     OW36711   5.811   3.999   0.996
 8227SOL    HW136712   5.846   3.982   1.088
 8227SOL    HW236713   5.723   3.954   0.984
 8228SOL     OW36714   5.605   4.092   0.647
 8228SOL    HW136715   5.523   4.135   0.686
 8228SOL    HW236716   5.577   4.019   0.584
 8229SOL     OW36717   6.155   4.999   1.165
 8229SOL    HW136718   6.062   4.992   1.128
 8229SOL    HW236719   6.166   5.088   1.209
 8230SOL     OW36720   7.141   5.235   0.703
 8230SOL    HW136721   7.084   5.219   0.784
 8230SOL    HW236722   7.082   5.245   0.623
 8231SOL     OW36723   6.721   4.427   0.717
 8231SOL    HW136724   6.778   4.505   0.692
 8231SOL    HW236725   6.661   4.453   0.793
 8232SOL     OW36726   7.341   4.331   0.231
 8232SOL    HW136727   7.329   4.318   0.132
 8232SOL    HW236728   7.311   4.250   0.280
 8233SOL     OW36729   6.354   4.868   1.023
 8233SOL    HW136730   6.276   4.885   1.083
 8233SOL    HW236731   6.388   4.955   0.987
 8234SOL     OW36732   6.271   4.736   0.665
 8234SOL    HW136733   6.340   4.720   0.735
 8234SOL    HW236734   6.198   4.793   0.703
 8235SOL     OW36735   5.921   5.159   1.061
 8235SOL    HW136736   5.843   5.128   1.008
 8235SOL    HW236737   5.979   5.217   1.004
 8236SOL     OW36738   7.046   5.229   1.339
 8236SOL    HW136739   7.070   5.323   1.365
 8236SOL    HW236740   7.030   5.175   1.421
 8237SOL     OW36741   6.024   4.116   1.499
 8237SOL    HW136742   6.106   4.060   1.508
 8237SOL    HW236743   5.943   4.058   1.503
 8238SOL     OW36744   7.189   4.171   0.737
 8238SOL    HW136745   7.115   4.217   0.687
 8238SOL    HW236746   7.240   4.239   0.790
 8239SOL     OW36747   5.817   5.437   0.483
 8239SOL    HW136748   5.851   5.514   0.537
 8239SOL    HW236749   5.861   5.437   0.393
 8240SOL     OW36750   5.816   5.158   0.538
 8240SOL    HW136751   5.790   5.254   0.538
 8240SOL    HW236752   5.745   5.104   0.583
 8241SOL     OW36753   5.826   4.815   0.886
 8241SOL    HW136754   5.840   4.731   0.938
 8241SOL    HW236755   5.771   4.879   0.941
 8242SOL     OW36756   6.206   5.510   1.439
 8242SOL    HW136757   6.114   5.493   1.474
 8242SOL    HW236758   6.234   5.602   1.465
 8243SOL     OW36759   6.192   4.688   0.123
 8243SOL    HW136760   6.199   4.772   0.069
 8243SOL    HW236761   6.238   4.701   0.211
 8244SOL     OW36762   7.180   3.838   1.480
 8244SOL    HW136763   7.162   3.905   1.408
 8244SOL    HW236764   7.177   3.884   1.569
 8245SOL     OW36765   5.708   4.367   0.563
 8245SOL    HW136766   5.663   4.279   0.580
 8245SOL    HW236767   5.707   4.421   0.647
 8246SOL     OW36768   7.428   5.491   0.359
 8246SOL    HW136769   7.482   5.462   0.439
 8246SOL    HW236770   7.458   5.581   0.330
 8247SOL     OW36771   5.613   5.320   0.117
 8247SOL    HW136772   5.594   5.224   0.138
 8247SOL    HW236773   5.580   5.378   0.192
 8248SOL     OW36774   7.275   4.646   0.612
 8248SOL    HW136775   7.370   4.617   0.620
 8248SOL    HW236776   7.267   4.711   0.537
 8249SOL     OW36777   7.227   4.832   0.432
 8249SOL    HW136778   7.313   4.834   0.380
 8249SOL    HW236779   7.241   4.879   0.520
 8250SOL     OW36780   5.699   4.461   1.597
 8250SOL    HW136781   5.787   4.448   1.642
 8250SOL    HW236782   5.686   4.558   1.575
 8251SOL     OW36783   6.199   5.089   0.726
 8251SOL    HW136784   6.150   5.002   0.735
 8251SOL    HW236785   6.176   5.132   0.639
 8252SOL     OW36786   6.395   3.728   0.502
 8252SOL    HW136787   6.435   3.819   0.493
 8252SOL    HW236788   6.295   3.736   0.508
 8253SOL     OW36789   5.783   4.700   1.264
 8253SOL    HW136790   5.872   4.655   1.250
 8253SOL    HW236791   5.710   4.635   1.245
 8254SOL     OW36792   7.111   4.723   0.190
 8254SOL    HW136793   7.048   4.647   0.203
 8254SOL    HW236794   7.159   4.741   0.276
 8255SOL     OW36795   7.052   5.141   0.953
 8255SOL    HW136796   6.993   5.147   1.033
 8255SOL    HW236797   7.037   5.053   0.907
 8256SOL     OW36798   7.253   5.438   0.572
 8256SOL    HW136799   7.212   5.415   0.484
 8256SOL    HW236800   7.235   5.364   0.637
 8257SOL     OW36801   6.184   4.453   0.270
 8257SOL    HW136802   6.208   4.522   0.202
 8257SOL    HW236803   6.106   4.486   0.324
 8258SOL     OW36804   6.867   4.069   0.944
 8258SOL    HW136805   6.781   4.019   0.931
 8258SOL    HW236806   6.929   4.015   1.000
 8259SOL     OW36807   7.162   5.386   0.307
 8259SOL    HW136808   7.251   5.432   0.310
 8259SOL    HW236809   7.141   5.362   0.212
 8260SOL     OW36810   6.393   4.329   1.465
 8260SOL    HW136811   6.346   4.326   1.554
 8260SOL    HW236812   6.342   4.274   1.399
 8261SOL     OW36813   6.980   4.193   1.674
 8261SOL    HW136814   6.960   4.236   1.762
 8261SOL    HW236815   7.058   4.131   1.683
 8262SOL     OW36816   6.577   4.134   1.242
 8262SOL    HW136817   6.500   4.168   1.296
 8262SOL    HW236818   6.543   4.083   1.163
 8263SOL     OW36819   6.627   4.425   0.429
 8263SOL    HW136820   6.653   4.421   0.525
 8263SOL    HW236821   6.542   4.374   0.415
 8264SOL     OW36822   5.662   4.535   0.789
 8264SOL    HW136823   5.761   4.523   0.798
 8264SOL    HW236824   5.638   4.630   0.810
 8265SOL     OW36825   6.451   4.072   0.195
 8265SOL    HW136826   6.510   4.135   0.146
 8265SOL    HW236827   6.470   3.978   0.166
 8266SOL     OW36828   6.948   4.868   0.545
 8266SOL    HW136829   7.031   4.839   0.497
 8266SOL    HW236830   6.899   4.935   0.489
 8267SOL     OW36831   6.136   3.920   0.885
 8267SOL    HW136832   6.131   3.915   0.985
 8267SOL    HW236833   6.138   4.016   0.856
 8268SOL     OW36834   6.594   5.180   0.477
 8268SOL    HW136835   6.548   5.252   0.425
 8268SOL    HW236836   6.590   5.200   0.575
 8269SOL     OW36837   5.937   5.525   0.853
 8269SOL    HW136838   5.987   5.439   0.859
 8269SOL    HW236839   6.002   5.602   0.850
 8270SOL     OW36840   7.381   4.790   0.873
 8270SOL    HW136841   7.319   4.775   0.797
 8270SOL    HW236842   7.329   4.801   0.958
 8271SOL     OW36843   6.813   5.274   1.506
 8271SOL    HW136844   6.819   5.197   1.570
 8271SOL    HW236845   6.761   5.248   1.426
 8272SOL     OW36846   5.907   4.667   0.242
 8272SOL    HW136847   5.989   4.706   0.200
 8272SOL    HW236848   5.880   4.585   0.193
 8273SOL     OW36849   7.044   4.459   0.728
 8273SOL    HW136850   7.039   4.394   0.803
 8273SOL    HW236851   7.124   4.518   0.741
 8274SOL     OW36852   6.697   5.500   0.237
 8274SOL    HW136853   6.637   5.438   0.287
 8274SOL    HW236854   6.728   5.456   0.152
 8275SOL     OW36855   5.788   4.009   1.498
 8275SOL    HW136856   5.708   4.069   1.485
 8275SOL    HW236857   5.778   3.960   1.584
 8276SOL     OW36858   7.218   5.101   0.081
 8276SOL    HW136859   7.186   5.195   0.071
 8276SOL    HW236860   7.142   5.038   0.069
 8277SOL     OW36861   6.050   5.467   0.323
 8277SOL    HW136862   6.083   5.506   0.409
 8277SOL    HW236863   6.126   5.460   0.258
 8278SOL     OW36864   6.986   3.831   0.426
 8278SOL    HW136865   6.962   3.794   0.336
 8278SOL    HW236866   7.085   3.847   0.430
 8279SOL     OW36867   5.835   5.509   1.241
 8279SOL    HW136868   5.892   5.444   1.291
 8279SOL    HW236869   5.819   5.476   1.148
 8280SOL     OW36870   6.526   5.422   0.904
 8280SOL    HW136871   6.606   5.365   0.925
 8280SOL    HW236872   6.477   5.382   0.827
 8281SOL     OW36873   5.968   4.424   0.480
 8281SOL    HW136874   6.013   4.334   0.477
 8281SOL    HW236875   5.874   4.413   0.513
 8282SOL     OW36876   7.133   3.946   1.729
 8282SOL    HW136877   7.128   3.983   1.821
 8282SOL    HW236878   7.061   3.877   1.717
 8283SOL     OW36879   6.200   3.846   0.117
 8283SOL    HW136880   6.298   3.824   0.124
 8283SOL    HW236881   6.169   3.829   0.024
 8284SOL     OW36882   6.474   5.238   1.195
 8284SOL    HW136883   6.451   5.213   1.101
 8284SOL    HW236884   6.535   5.169   1.234
 8285SOL     OW36885   6.937   4.314   1.433
 8285SOL    HW136886   6.965   4.271   1.518
 8285SOL    HW236887   6.962   4.410   1.434
 8286SOL     OW36888   6.389   5.126   0.924
 8286SOL    HW136889   6.479   5.140   0.882
 8286SOL    HW236890   6.318   5.128   0.853
 8287SOL     OW36891   6.508   4.227   0.899
 8287SOL    HW136892   6.483   4.218   0.803
 8287SOL    HW236893   6.556   4.145   0.930
 8288SOL     OW36894   6.125   3.788   0.512
 8288SOL    HW136895   6.044   3.789   0.570
 8288SOL    HW236896   6.128   3.871   0.457
 8289SOL     OW36897   7.020   4.912   0.041
 8289SOL    HW136898   7.052   4.836   0.098
 8289SOL    HW236899   6.928   4.939   0.071
 8290SOL     OW36900   5.883   3.759   0.171
 8290SOL    HW136901   5.932   3.843   0.150
 8290SOL    HW236902   5.945   3.694   0.216
 8291SOL     OW36903   6.521   3.960   0.480
 8291SOL    HW136904   6.473   4.001   0.402
 8291SOL    HW236905   6.620   3.958   0.461
 8292SOL     OW36906   6.662   4.407   1.464
 8292SOL    HW136907   6.582   4.346   1.467
 8292SOL    HW236908   6.743   4.354   1.440
 8293SOL     OW36909   6.813   5.294   0.793
 8293SOL    HW136910   6.834   5.368   0.728
 8293SOL    HW236911   6.881   5.294   0.866
 8294SOL     OW36912   6.045   4.876   0.741
 8294SOL    HW136913   5.974   4.849   0.806
 8294SOL    HW236914   6.019   4.848   0.648
 8295SOL     OW36915   6.857   5.521   0.591
 8295SOL    HW136916   6.901   5.585   0.527
 8295SOL    HW236917   6.807   5.573   0.661
 8296SOL     OW36918   6.618   4.273   0.016
 8296SOL    HW136919   6.577   4.355  -0.023
 8296SOL    HW236920   6.682   4.299   0.089
 8297SOL     OW36921   5.664   4.280   1.386
 8297SOL    HW136922   5.756   4.279   1.345
 8297SOL    HW236923   5.658   4.354   1.453
 8298SOL     OW36924   6.147   3.946   1.147
 8298SOL    HW136925   6.185   3.862   1.184
 8298SOL    HW236926   6.059   3.965   1.191
 8299SOL     OW36927   6.452   4.178   0.642
 8299SOL    HW136928   6.420   4.250   0.580
 8299SOL    HW236929   6.476   4.097   0.589
 8300SOL     OW36930   6.603   3.763   0.753
 8300SOL    HW136931   6.531   3.768   0.684
 8300SOL    HW236932   6.579   3.694   0.822
 8301SOL     OW36933   7.015   4.897   0.867
 8301SOL    HW136934   6.960   4.813   0.860
 8301SOL    HW236935   7.041   4.926   0.775
 8302SOL     OW36936   7.052   4.314   0.992
 8302SOL    HW136937   7.022   4.219   0.999
 8302SOL    HW236938   7.125   4.330   1.058
 8303SOL     OW36939   7.443   4.557   0.377
 8303SOL    HW136940   7.485   4.493   0.441
 8303SOL    HW236941   7.405   4.506   0.299
 8304SOL     OW36942   6.074   5.109   0.174
 8304SOL    HW136943   5.987   5.094   0.221
 8304SOL    HW236944   6.057   5.135   0.079
 8305SOL     OW36945   7.250   5.004   0.657
 8305SOL    HW136946   7.349   5.012   0.671
 8305SOL    HW236947   7.205   5.088   0.688
 8306SOL     OW36948   6.976   4.299   0.078
 8306SOL    HW136949   6.922   4.278   0.159
 8306SOL    HW236950   7.067   4.258   0.087
 8307SOL     OW36951   6.113   3.980   0.328
 8307SOL    HW136952   6.140   3.921   0.253
 8307SOL    HW236953   6.113   4.075   0.297
 8308SOL     OW36954   7.340   4.947   1.588
 8308SOL    HW136955   7.431   4.908   1.575
 8308SOL    HW236956   7.348   5.043   1.612
 8309SOL     OW36957   7.178   5.353   1.625
 8309SOL    HW136958   7.205   5.387   1.535
 8309SOL    HW236959   7.257   5.315   1.671
 8310SOL     OW36960   6.697   4.919   1.100
 8310SOL    HW136961   6.657   4.963   1.181
 8310SOL    HW236962   6.656   4.956   1.017
 8311SOL     OW36963   7.224   4.823   1.079
 8311SOL    HW136964   7.229   4.904   1.138
 8311SOL    HW236965   7.138   4.825   1.028
 8312SOL     OW36966   6.501   3.813   1.402
 8312SOL    HW136967   6.526   3.793   1.307
 8312SOL    HW236968   6.573   3.869   1.444
 8313SOL     OW36969   6.291   4.774   0.368
 8313SOL    HW136970   6.277   4.781   0.467
 8313SOL    HW236971   6.375   4.723   0.350
 8314SOL     OW36972   5.996   4.537   1.251
 8314SOL    HW136973   6.082   4.549   1.301
 8314SOL    HW236974   5.954   4.450   1.278
 8315SOL     OW36975   6.860   4.110   1.262
 8315SOL    HW136976   6.881   4.184   1.326
 8315SOL    HW236977   6.771   4.127   1.219
 8316SOL     OW36978   5.650   5.288   1.331
 8316SOL    HW136979   5.604   5.370   1.297
 8316SOL    HW236980   5.748   5.307   1.340
 8317SOL     OW36981   5.953   4.824   0.501
 8317SOL    HW136982   5.946   4.907   0.445
 8317SOL    HW236983   5.957   4.744   0.441
 8318SOL     OW36984   6.152   4.261   0.865
 8318SOL    HW136985   6.164   4.327   0.791
 8318SOL    HW236986   6.198   4.295   0.948
 8319SOL     OW36987   6.838   5.072   0.388
 8319SOL    HW136988   6.888   5.149   0.428
 8319SOL    HW236989   6.743   5.074   0.420
 8320SOL     OW36990   6.858   5.169   1.142
 8320SOL    HW136991   6.905   5.182   1.229
 8320SOL    HW236992   6.792   5.095   1.151
 8321SOL     OW36993   7.168   4.363   0.472
 8321SOL    HW136994   7.137   4.424   0.545
 8321SOL    HW236995   7.218   4.415   0.403
 8322SOL     OW36996   5.940   5.234   1.329
 8322SOL    HW136997   5.919   5.190   1.242
 8322SOL    HW236998   6.037   5.260   1.332
 8323SOL     OW36999   5.988   4.475   1.598
 8323SOL    HW137000   6.056   4.530   1.551
 8323SOL    HW237001   6.028   4.387   1.625
 8324SOL     OW37002   6.159   4.594   1.029
 8324SOL    HW137003   6.203   4.683   1.020
 8324SOL    HW237004   6.096   4.594   1.106
 8325SOL     OW37005   6.946   4.586   1.045
 8325SOL    HW137006   6.871   4.586   0.979
 8325SOL    HW237007   6.983   4.494   1.054
 8326SOL     OW37008   6.795   4.249   0.275
 8326SOL    HW137009   6.808   4.165   0.329
 8326SOL    HW237010   6.766   4.323   0.335
 8327SOL     OW37011   5.893   3.937   1.231
 8327SOL    HW137012   5.870   3.974   1.321
 8327SOL    HW237013   5.863   3.842   1.225
 8328SOL     OW37014   5.623   5.034   1.282
 8328SOL    HW137015   5.676   4.985   1.350
 8328SOL    HW237016   5.645   5.132   1.287
 8329SOL     OW37017   6.318   4.358   1.064
 8329SOL    HW137018   6.377   4.332   0.988
 8329SOL    HW237019   6.290   4.454   1.053
 8330SOL     OW37020   5.893   3.787   0.618
 8330SOL    HW137021   5.882   3.881   0.651
 8330SOL    HW237022   5.888   3.724   0.695
 8331SOL     OW37023   7.208   4.091   0.374
 8331SOL    HW137024   7.210   4.015   0.438
 8331SOL    HW237025   7.160   4.168   0.414
 8332SOL     OW37026   6.609   4.490   0.966
 8332SOL    HW137027   6.624   4.511   1.062
 8332SOL    HW237028   6.579   4.395   0.957
 8333SOL     OW37029   7.445   5.242   1.605
 8333SOL    HW137030   7.459   5.269   1.510
 8333SOL    HW237031   7.528   5.264   1.658
 8334SOL     OW37032   7.126   3.998   0.125
 8334SOL    HW137033   7.065   3.923   0.148
 8334SOL    HW237034   7.148   4.050   0.208
 8335SOL     OW37035   6.889   4.562   0.042
 8335SOL    HW137036   6.923   4.469   0.057
 8335SOL    HW237037   6.907   4.589  -0.053
 8336SOL     OW37038   6.654   5.057   0.849
 8336SOL    HW137039   6.661   4.973   0.794
 8336SOL    HW237040   6.716   5.126   0.813
 8337SOL     OW37041   5.905   4.534   0.949
 8337SOL    HW137042   5.998   4.570   0.954
 8337SOL    HW237043   5.899   4.449   1.001
 8338SOL     OW37044   5.925   4.233   1.006
 8338SOL    HW137045   5.873   4.150   0.989
 8338SOL    HW237046   6.002   4.238   0.942
 8339SOL     OW37047   6.724   4.104   1.678
 8339SOL    HW137048   6.679   4.167   1.742
 8339SOL    HW237049   6.817   4.135   1.661
 8340SOL     OW37050   6.746   3.931   1.477
 8340SOL    HW137051   6.746   3.995   1.554
 8340SOL    HW237052   6.774   3.979   1.394
 8341SOL     OW37053   5.594   5.050   0.200
 8341SOL    HW137054   5.501   5.071   0.169
 8341SOL    HW237055   5.604   4.951   0.213
 8342SOL     OW37056   5.674   5.525   0.927
 8342SOL    HW137057   5.632   5.439   0.900
 8342SOL    HW237058   5.768   5.528   0.893
 8343SOL     OW37059   6.090   5.292   0.910
 8343SOL    HW137060   6.156   5.366   0.919
 8343SOL    HW237061   6.134   5.213   0.868
 8344SOL     OW37062   6.588   4.520   1.238
 8344SOL    HW137063   6.629   4.488   1.324
 8344SOL    HW237064   6.492   4.493   1.235
 8345SOL     OW37065   5.626   4.268   1.114
 8345SOL    HW137066   5.711   4.235   1.073
 8345SOL    HW237067   5.639   4.283   1.212
 8346SOL     OW37068   5.775   4.244   1.722
 8346SOL    HW137069   5.834   4.204   1.652
 8346SOL    HW237070   5.717   4.315   1.681
 8347SOL     OW37071   6.955   4.674   1.660
 8347SOL    HW137072   6.994   4.763   1.680
 8347SOL    HW237073   6.965   4.654   1.563
 8348SOL     OW37074   6.401   4.296   0.325
 8348SOL    HW137075   6.408   4.207   0.279
 8348SOL    HW237076   6.307   4.330   0.317
 8349SOL     OW37077   7.243   4.328   1.206
 8349SOL    HW137078   7.205   4.259   1.268
 8349SOL    HW237079   7.325   4.292   1.162
 8350SOL     OW37080   6.257   4.188   1.269
 8350SOL    HW137081   6.223   4.099   1.239
 8350SOL    HW237082   6.283   4.242   1.189
 8351SOL     OW37083   6.059   4.224   0.191
 8351SOL    HW137084   6.120   4.304   0.195
 8351SOL    HW237085   5.964   4.255   0.198
 8352SOL     OW37086   5.745   4.861   1.466
 8352SOL    HW137087   5.767   4.800   1.542
 8352SOL    HW237088   5.755   4.812   1.380
 8353SOL     OW37089   6.933   4.783   1.234
 8353SOL    HW137090   6.957   4.720   1.160
 8353SOL    HW237091   6.843   4.823   1.216
 8354SOL     OW37092   6.888   4.579   0.309
 8354SOL    HW137093   6.802   4.548   0.351
 8354SOL    HW237094   6.884   4.565   0.210
 8355SOL     OW37095   7.345   5.471   1.154
 8355SOL    HW137096   7.406   5.501   1.081
 8355SOL    HW237097   7.307   5.382   1.132
 8356SOL     OW37098   6.838   5.455   1.128
 8356SOL    HW137099   6.922   5.460   1.074
 8356SOL    HW237100   6.815   5.359   1.146
 8357SOL     OW37101   5.669   4.982   1.022
 8357SOL    HW137102   5.664   4.981   1.122
 8357SOL    HW237103   5.586   4.941   0.984
 8358SOL     OW37104   6.274   5.386   1.716
 8358SOL    HW137105   6.218   5.467   1.725
 8358SOL    HW237106   6.326   5.390   1.630
 8359SOL     OW37107   6.489   3.810   0.133
 8359SOL    HW137108   6.540   3.811   0.047
 8359SOL    HW237109   6.545   3.768   0.204
 8360SOL     OW37110   7.312   3.859   0.523
 8360SOL    HW137111   7.385   3.842   0.456
 8360SOL    HW237112   7.281   3.772   0.561
 8361SOL     OW37113   6.974   5.297   0.477
 8361SOL    HW137114   7.041   5.309   0.403
 8361SOL    HW237115   6.934   5.386   0.500
 8362SOL     OW37116   6.866   4.651   0.672
 8362SOL    HW137117   6.926   4.570   0.674
 8362SOL    HW237118   6.906   4.720   0.612
 8363SOL     OW37119   6.258   5.340   0.154
 8363SOL    HW137120   6.267   5.350   0.055
 8363SOL    HW237121   6.218   5.251   0.175
 8364SOL     OW37122   7.236   5.444   1.394
 8364SOL    HW137123   7.289   5.454   1.310
 8364SOL    HW237124   7.209   5.534   1.428
 8365SOL     OW37125   7.427   3.899   0.963
 8365SOL    HW137126   7.466   3.814   0.927
 8365SOL    HW237127   7.329   3.901   0.944
 8366SOL     OW37128   5.849   4.050   0.720
 8366SOL    HW137129   5.770   4.101   0.686
 8366SOL    HW237130   5.840   4.035   0.818
 8367SOL     OW37131   6.780   5.336   0.031
 8367SOL    HW137132   6.786   5.243   0.068
 8367SOL    HW237133   6.721   5.336  -0.049
 8368SOL     OW37134   6.408   4.726   1.372
 8368SOL    HW137135   6.448   4.725   1.280
 8368SOL    HW237136   6.418   4.818   1.412
 8369SOL     OW37137   6.502   4.634   0.291
 8369SOL    HW137138   6.565   4.672   0.223
 8369SOL    HW237139   6.542   4.551   0.330
 8370SOL     OW37140   7.090   5.331   0.044
 8370SOL    HW137141   6.998   5.368   0.051
 8370SOL    HW237142   7.128   5.351  -0.046
 8371SOL     OW37143   7.200   5.016   1.289
 8371SOL    HW137144   7.260   5.019   1.369
 8371SOL    HW237145   7.125   5.080   1.302
 8372SOL     OW37146   6.625   4.822   0.696
 8372SOL    HW137147   6.555   4.775   0.750
 8372SOL    HW237148   6.684   4.754   0.653
 8373SOL     OW37149   6.600   3.960   0.971
 8373SOL    HW137150   6.592   3.924   0.878
 8373SOL    HW237151   6.598   3.884   1.036
 8374SOL     OW37152   6.176   5.211   0.491
 8374SOL    HW137153   6.218   5.153   0.421
 8374SOL    HW237154   6.132   5.290   0.447
 8375SOL     OW37155   7.295   4.109   1.381
 8375SOL    HW137156   7.368   4.178   1.385
 8375SOL    HW237157   7.323   4.034   1.322
 8376SOL     OW37158   5.841   5.072   0.290
 8376SOL    HW137159   5.745   5.073   0.263
 8376SOL    HW237160   5.853   5.125   0.374
 8377SOL     OW37161   6.258   3.927   1.489
 8377SOL    HW137162   6.348   3.911   1.449
 8377SOL    HW237163   6.266   3.932   1.588
 8378SOL     OW37164   5.661   4.069   0.033
 8378SOL    HW137165   5.569   4.041   0.004
 8378SOL    HW237166   5.692   4.146  -0.023
 8379SOL     OW37167   5.658   3.890   0.318
 8379SOL    HW137168   5.641   3.973   0.264
 8379SOL    HW237169   5.748   3.853   0.296
 8380SOL     OW37170   6.769   5.059   0.119
 8380SOL    HW137171   6.670   5.048   0.121
 8380SOL    HW237172   6.803   5.074   0.212
 8381SOL     OW37173   6.199   4.566   1.431
 8381SOL    HW137174   6.255   4.647   1.414
 8381SOL    HW237175   6.258   4.486   1.434
 8382SOL     OW37176   7.079   5.491   0.959
 8382SOL    HW137177   7.112   5.555   0.890
 8382SOL    HW237178   7.145   5.485   1.034
 8383SOL     OW37179   6.302   4.289   1.708
 8383SOL    HW137180   6.321   4.354   1.782
 8383SOL    HW237181   6.362   4.209   1.717
 8384SOL     OW37182   7.036   4.944   1.633
 8384SOL    HW137183   7.027   4.934   1.732
 8384SOL    HW237184   7.132   4.937   1.607
 8385SOL     OW37185   5.976   5.465   1.560
 8385SOL    HW137186   5.885   5.506   1.558
 8385SOL    HW237187   5.969   5.371   1.592
 8386SOL     OW37188   7.260   4.607   1.254
 8386SOL    HW137189   7.233   4.518   1.217
 8386SOL    HW237190   7.261   4.675   1.181
 8387SOL     OW37191   6.811   4.049   0.449
 8387SOL    HW137192   6.876   3.975   0.438
 8387SOL    HW237193   6.831   4.099   0.533
 8388SOL     OW37194   6.180   4.469   0.652
 8388SOL    HW137195   6.230   4.554   0.633
 8388SOL    HW237196   6.092   4.471   0.604
 8389SOL     OW37197   7.363   4.066   1.642
 8389SOL    HW137198   7.346   4.097   1.548
 8389SOL    HW237199   7.279   4.029   1.680
 8390SOL     OW37200   6.445   5.098   0.016
 8390SOL    HW137201   6.399   5.113   0.104
 8390SOL    HW237202   6.489   5.183  -0.014
 8391SOL     OW37203   6.247   5.514   0.953
 8391SOL    HW137204   6.201   5.602   0.940
 8391SOL    HW237205   6.346   5.526   0.946
 8392SOL     OW37206   6.445   4.680   0.861
 8392SOL    HW137207   6.499   4.611   0.909
 8392SOL    HW237208   6.413   4.749   0.927
 8393SOL     OW37209   6.669   4.708   0.087
 8393SOL    HW137210   6.646   4.761   0.005
 8393SOL    HW237211   6.750   4.652   0.068
 8394SOL     OW37212   7.447   5.293   0.851
 8394SOL    HW137213   7.376   5.281   0.781
 8394SOL    HW237214   7.448   5.214   0.911
 8395SOL     OW37215   5.807   5.038   1.844
 8395SOL    HW137216   5.742   4.965   1.823
 8395SOL    HW237217   5.811   5.052   1.942
 8396SOL     OW37218   5.665   4.964   0.653
 8396SOL    HW137219   5.664   4.917   0.741
 8396SOL    HW237220   5.747   4.936   0.602
 8397SOL     OW37221   7.410   3.916   1.227
 8397SOL    HW137222   7.406   3.826   1.271
 8397SOL    HW237223   7.413   3.905   1.128
 8398SOL     OW37224   6.014   4.148   0.520
 8398SOL    HW137225   6.044   4.076   0.458
 8398SOL    HW237226   5.975   4.108   0.603
 8399SOL     OW37227   7.291   5.211   1.104
 8399SOL    HW137228   7.198   5.186   1.077
 8399SOL    HW237229   7.317   5.161   1.186
 8400SOL     OW37230   5.903   4.271   1.280
 8400SOL    HW137231   5.941   4.212   1.352
 8400SOL    HW237232   5.943   4.245   1.192
 8401SOL     OW37233   6.398   5.310   0.687
 8401SOL    HW137234   6.430   5.320   0.593
 8401SOL    HW237235   6.319   5.248   0.689
 8402SOL     OW37236   7.010   3.938   1.112
 8402SOL    HW137237   7.062   3.873   1.167
 8402SOL    HW237238   6.961   4.001   1.173
 8403SOL     OW37239   6.587   3.758   1.154
 8403SOL    HW137240   6.524   3.686   1.123
 8403SOL    HW237241   6.680   3.722   1.154
 8404SOL     OW37242   6.356   5.054   0.301
 8404SOL    HW137243   6.310   4.967   0.318
 8404SOL    HW237244   6.447   5.051   0.342
 8405SOL     OW37245   6.204   5.291   1.284
 8405SOL    HW137246   6.199   5.373   1.341
 8405SOL    HW237247   6.293   5.288   1.239
 8406SOL     OW37248   6.938   3.776   0.168
 8406SOL    HW137249   6.973   3.735   0.084
 8406SOL    HW237250   6.848   3.738   0.188
 8407SOL     OW37251   6.886   4.177   0.691
 8407SOL    HW137252   6.827   4.257   0.695
 8407SOL    HW237253   6.901   4.142   0.784
 8408SOL     OW37254   7.179   3.945   0.882
 8408SOL    HW137255   7.095   3.944   0.936
 8408SOL    HW237256   7.181   4.028   0.826
 8409SOL     OW37257   5.625   4.801   0.300
 8409SOL    HW137258   5.724   4.790   0.291
 8409SOL    HW237259   5.585   4.715   0.332
 8410SOL     OW37260   6.461   5.370   0.337
 8410SOL    HW137261   6.384   5.335   0.283
 8410SOL    HW237262   6.429   5.441   0.399
 8411SOL     OW37263   6.155   4.999   3.027
 8411SOL    HW137264   6.062   4.992   2.990
 8411SOL    HW237265   6.166   5.088   3.071
 8412SOL     OW37266   7.341   4.331   2.093
 8412SOL    HW137267   7.329   4.318   1.994
 8412SOL    HW237268   7.311   4.250   2.142
 8413SOL     OW37269   6.271   4.736   2.527
 8413SOL    HW137270   6.340   4.720   2.597
 8413SOL    HW237271   6.198   4.793   2.565
 8414SOL     OW37272   7.046   5.229   3.201
 8414SOL    HW137273   7.070   5.323   3.227
 8414SOL    HW237274   7.030   5.175   3.283
 8415SOL     OW37275   6.024   4.116   3.361
 8415SOL    HW137276   6.106   4.060   3.370
 8415SOL    HW237277   5.943   4.058   3.365
 8416SOL     OW37278   7.189   4.171   2.599
 8416SOL    HW137279   7.115   4.217   2.549
 8416SOL    HW237280   7.240   4.239   2.652
 8417SOL     OW37281   6.713   5.065   3.552
 8417SOL    HW137282   6.760   5.065   3.640
 8417SOL    HW237283   6.665   4.978   3.541
 8418SOL     OW37284   5.826   4.815   2.748
 8418SOL    HW137285   5.840   4.731   2.800
 8418SOL    HW237286   5.771   4.879   2.803
 8419SOL     OW37287   7.428   5.491   2.221
 8419SOL    HW137288   7.482   5.462   2.301
 8419SOL    HW237289   7.458   5.581   2.192
 8420SOL     OW37290   7.275   4.646   2.474
 8420SOL    HW137291   7.370   4.617   2.482
 8420SOL    HW237292   7.267   4.711   2.399
 8421SOL     OW37293   6.879   4.952   3.285
 8421SOL    HW137294   6.916   4.879   3.227
 8421SOL    HW237295   6.931   4.957   3.370
 8422SOL     OW37296   6.773   5.516   3.478
 8422SOL    HW137297   6.797   5.576   3.402
 8422SOL    HW237298   6.780   5.421   3.448
 8423SOL     OW37299   7.052   5.141   2.815
 8423SOL    HW137300   6.993   5.147   2.895
 8423SOL    HW237301   7.037   5.053   2.769
 8424SOL     OW37302   5.937   5.525   2.715
 8424SOL    HW137303   5.987   5.439   2.721
 8424SOL    HW237304   6.002   5.602   2.712
 8425SOL     OW37305   6.813   5.274   3.368
 8425SOL    HW137306   6.819   5.197   3.432
 8425SOL    HW237307   6.761   5.248   3.288
 8426SOL     OW37308   7.218   5.101   1.943
 8426SOL    HW137309   7.186   5.195   1.933
 8426SOL    HW237310   7.142   5.038   1.931
 8427SOL     OW37311   5.835   5.509   3.103
 8427SOL    HW137312   5.892   5.444   3.153
 8427SOL    HW237313   5.819   5.476   3.010
 8428SOL     OW37314   6.526   5.422   2.766
 8428SOL    HW137315   6.606   5.365   2.787
 8428SOL    HW237316   6.477   5.382   2.689
 8429SOL     OW37317   6.389   5.126   2.786
 8429SOL    HW137318   6.479   5.140   2.744
 8429SOL    HW237319   6.318   5.128   2.715
 8430SOL     OW37320   6.508   4.227   2.761
 8430SOL    HW137321   6.483   4.218   2.665
 8430SOL    HW237322   6.556   4.145   2.792
 8431SOL     OW37323   6.662   4.407   3.326
 8431SOL    HW137324   6.582   4.346   3.329
 8431SOL    HW237325   6.743   4.354   3.302
 8432SOL     OW37326   6.045   4.876   2.603
 8432SOL    HW137327   5.974   4.849   2.668
 8432SOL    HW237328   6.019   4.848   2.510
 8433SOL     OW37329   6.857   5.521   2.453
 8433SOL    HW137330   6.901   5.585   2.389
 8433SOL    HW237331   6.807   5.573   2.523
 8434SOL     OW37332   6.618   4.273   1.878
 8434SOL    HW137333   6.577   4.355   1.839
 8434SOL    HW237334   6.682   4.299   1.951
 8435SOL     OW37335   6.147   3.946   3.009
 8435SOL    HW137336   6.185   3.862   3.046
 8435SOL    HW237337   6.059   3.965   3.053
 8436SOL     OW37338   6.452   4.178   2.504
 8436SOL    HW137339   6.420   4.250   2.442
 8436SOL    HW237340   6.476   4.097   2.451
 8437SOL     OW37341   6.603   3.763   2.615
 8437SOL    HW137342   6.531   3.768   2.546
 8437SOL    HW237343   6.579   3.694   2.684
 8438SOL     OW37344   6.074   5.109   2.036
 8438SOL    HW137345   5.987   5.094   2.083
 8438SOL    HW237346   6.057   5.135   1.941
 8439SOL     OW37347   6.976   4.299   1.940
 8439SOL    HW137348   6.922   4.278   2.021
 8439SOL    HW237349   7.067   4.258   1.949
 8440SOL     OW37350   6.501   3.813   3.264
 8440SOL    HW137351   6.526   3.793   3.169
 8440SOL    HW237352   6.573   3.869   3.306
 8441SOL     OW37353   6.858   5.169   3.004
 8441SOL    HW137354   6.905   5.182   3.091
 8441SOL    HW237355   6.792   5.095   3.013
 8442SOL     OW37356   5.940   5.234   3.191
 8442SOL    HW137357   5.919   5.190   3.104
 8442SOL    HW237358   6.037   5.260   3.194
 8443SOL     OW37359   7.173   4.503   3.532
 8443SOL    HW137360   7.081   4.541   3.527
 8443SOL    HW237361   7.233   4.550   3.467
 8444SOL     OW37362   6.599   3.829   3.632
 8444SOL    HW137363   6.605   3.914   3.580
 8444SOL    HW237364   6.631   3.753   3.575
 8445SOL     OW37365   6.795   4.249   2.137
 8445SOL    HW137366   6.808   4.165   2.191
 8445SOL    HW237367   6.766   4.323   2.197
 8446SOL     OW37368   5.936   4.622   3.666
 8446SOL    HW137369   6.012   4.666   3.714
 8446SOL    HW237370   5.971   4.575   3.584
 8447SOL     OW37371   7.126   3.998   1.987
 8447SOL    HW137372   7.065   3.923   2.010
 8447SOL    HW237373   7.148   4.050   2.070
 8448SOL     OW37374   5.594   5.050   2.062
 8448SOL    HW137375   5.501   5.071   2.031
 8448SOL    HW237376   5.604   4.951   2.075
 8449SOL     OW37377   5.775   4.244   3.584
 8449SOL    HW137378   5.834   4.204   3.514
 8449SOL    HW237379   5.717   4.315   3.543
 8450SOL     OW37380   6.955   4.674   3.522
 8450SOL    HW137381   6.994   4.763   3.542
 8450SOL    HW237382   6.965   4.654   3.425
 8451SOL     OW37383   6.257   4.188   3.131
 8451SOL    HW137384   6.223   4.099   3.101
 8451SOL    HW237385   6.283   4.242   3.051
 8452SOL     OW37386   6.516   5.402   3.327
 8452SOL    HW137387   6.492   5.384   3.232
 8452SOL    HW237388   6.546   5.496   3.337
 8453SOL     OW37389   6.838   5.455   2.990
 8453SOL    HW137390   6.922   5.460   2.936
 8453SOL    HW237391   6.815   5.359   3.008
 8454SOL     OW37392   5.669   4.982   2.884
 8454SOL    HW137393   5.664   4.981   2.984
 8454SOL    HW237394   5.586   4.941   2.846
 8455SOL     OW37395   6.274   5.386   3.578
 8455SOL    HW137396   6.218   5.467   3.587
 8455SOL    HW237397   6.326   5.390   3.492
 8456SOL     OW37398   6.258   5.340   2.016
 8456SOL    HW137399   6.267   5.350   1.917
 8456SOL    HW237400   6.218   5.251   2.037
 8457SOL     OW37401   6.408   4.726   3.234
 8457SOL    HW137402   6.448   4.725   3.142
 8457SOL    HW237403   6.418   4.818   3.274
 8458SOL     OW37404   6.502   4.634   2.153
 8458SOL    HW137405   6.565   4.672   2.085
 8458SOL    HW237406   6.542   4.551   2.192
 8459SOL     OW37407   7.090   5.331   1.906
 8459SOL    HW137408   6.998   5.368   1.913
 8459SOL    HW237409   7.128   5.351   1.816
 8460SOL     OW37410   6.600   3.960   2.833
 8460SOL    HW137411   6.592   3.924   2.740
 8460SOL    HW237412   6.598   3.884   2.898
 8461SOL     OW37413   5.841   5.072   2.152
 8461SOL    HW137414   5.745   5.073   2.125
 8461SOL    HW237415   5.853   5.125   2.236
 8462SOL     OW37416   7.026   4.580   3.260
 8462SOL    HW137417   6.969   4.632   3.197
 8462SOL    HW237418   7.122   4.592   3.236
 8463SOL     OW37419   6.445   5.098   1.878
 8463SOL    HW137420   6.399   5.113   1.966
 8463SOL    HW237421   6.489   5.183   1.848
 8464SOL     OW37422   6.669   4.708   1.949
 8464SOL    HW137423   6.646   4.761   1.867
 8464SOL    HW237424   6.750   4.652   1.930
 8465SOL     OW37425   7.447   5.293   2.713
 8465SOL    HW137426   7.376   5.281   2.643
 8465SOL    HW237427   7.448   5.214   2.773
 8466SOL     OW37428   5.807   5.038   3.706
 8466SOL    HW137429   5.742   4.965   3.685
 8466SOL    HW237430   5.811   5.052   3.804
 8467SOL     OW37431   6.014   4.148   2.382
 8467SOL    HW137432   6.044   4.076   2.320
 8467SOL    HW237433   5.975   4.108   2.465
 8468SOL     OW37434   6.587   3.758   3.016
 8468SOL    HW137435   6.524   3.686   2.985
 8468SOL    HW237436   6.680   3.722   3.016
 8469SOL     OW37437   6.204   5.291   3.146
 8469SOL    HW137438   6.199   5.373   3.203
 8469SOL    HW237439   6.293   5.288   3.101
 8470SOL     OW37440   6.938   3.776   2.030
 8470SOL    HW137441   6.973   3.735   1.946
 8470SOL    HW237442   6.848   3.738   2.050
 8471SOL     OW37443   5.625   4.801   2.162
 8471SOL    HW137444   5.724   4.790   2.153
 8471SOL    HW237445   5.585   4.715   2.194
 8472SOL     OW37446   6.461   5.370   2.199
 8472SOL    HW137447   6.384   5.335   2.145
 8472SOL    HW237448   6.429   5.441   2.261
 8473SOL     OW37449   5.816   4.352   3.837
 8473SOL    HW137450   5.723   4.350   3.874
 8473SOL    HW237451   5.817   4.313   3.745
 8474SOL     OW37452   5.811   3.999   4.720
 8474SOL    HW137453   5.846   3.982   4.812
 8474SOL    HW237454   5.723   3.954   4.708
 8475SOL     OW37455   7.341   4.331   3.955
 8475SOL    HW137456   7.329   4.318   3.856
 8475SOL    HW237457   7.311   4.250   4.004
 8476SOL     OW37458   6.271   4.736   4.389
 8476SOL    HW137459   6.340   4.720   4.459
 8476SOL    HW237460   6.198   4.793   4.427
 8477SOL     OW37461   7.046   5.229   5.063
 8477SOL    HW137462   7.070   5.323   5.089
 8477SOL    HW237463   7.030   5.175   5.145
 8478SOL     OW37464   6.024   4.116   5.223
 8478SOL    HW137465   6.106   4.060   5.232
 8478SOL    HW237466   5.943   4.058   5.227
 8479SOL     OW37467   7.189   4.171   4.461
 8479SOL    HW137468   7.115   4.217   4.411
 8479SOL    HW237469   7.240   4.239   4.514
 8480SOL     OW37470   5.816   5.158   4.262
 8480SOL    HW137471   5.790   5.254   4.262
 8480SOL    HW237472   5.745   5.104   4.307
 8481SOL     OW37473   5.826   4.815   4.610
 8481SOL    HW137474   5.840   4.731   4.662
 8481SOL    HW237475   5.771   4.879   4.665
 8482SOL     OW37476   6.192   4.688   3.847
 8482SOL    HW137477   6.199   4.772   3.793
 8482SOL    HW237478   6.238   4.701   3.935
 8483SOL     OW37479   7.275   4.646   4.336
 8483SOL    HW137480   7.370   4.617   4.344
 8483SOL    HW237481   7.267   4.711   4.261
 8484SOL     OW37482   7.227   4.832   4.156
 8484SOL    HW137483   7.313   4.834   4.104
 8484SOL    HW237484   7.241   4.879   4.244
 8485SOL     OW37485   6.199   5.089   4.450
 8485SOL    HW137486   6.150   5.002   4.459
 8485SOL    HW237487   6.176   5.132   4.363
 8486SOL     OW37488   7.052   5.141   4.677
 8486SOL    HW137489   6.993   5.147   4.757
 8486SOL    HW237490   7.037   5.053   4.631
 8487SOL     OW37491   7.253   5.438   4.296
 8487SOL    HW137492   7.212   5.415   4.208
 8487SOL    HW237493   7.235   5.364   4.361
 8488SOL     OW37494   6.184   4.453   3.994
 8488SOL    HW137495   6.208   4.522   3.926
 8488SOL    HW237496   6.106   4.486   4.048
 8489SOL     OW37497   6.867   4.069   4.668
 8489SOL    HW137498   6.781   4.019   4.655
 8489SOL    HW237499   6.929   4.015   4.724
 8490SOL     OW37500   7.162   5.386   4.031
 8490SOL    HW137501   7.251   5.432   4.034
 8490SOL    HW237502   7.141   5.362   3.936
 8491SOL     OW37503   6.393   4.329   5.189
 8491SOL    HW137504   6.346   4.326   5.278
 8491SOL    HW237505   6.342   4.274   5.123
 8492SOL     OW37506   6.559   4.614   5.296
 8492SOL    HW137507   6.605   4.530   5.267
 8492SOL    HW237508   6.503   4.648   5.221
 8493SOL     OW37509   6.577   4.134   4.966
 8493SOL    HW137510   6.500   4.168   5.020
 8493SOL    HW237511   6.543   4.083   4.887
 8494SOL     OW37512   6.627   4.425   4.153
 8494SOL    HW137513   6.653   4.421   4.249
 8494SOL    HW237514   6.542   4.374   4.139
 8495SOL     OW37515   5.716   5.545   5.295
 8495SOL    HW137516   5.706   5.530   5.394
 8495SOL    HW237517   5.630   5.581   5.259
 8496SOL     OW37518   6.813   5.274   5.230
 8496SOL    HW137519   6.819   5.197   5.294
 8496SOL    HW237520   6.761   5.248   5.150
 8497SOL     OW37521   5.907   4.667   3.966
 8497SOL    HW137522   5.989   4.706   3.924
 8497SOL    HW237523   5.880   4.585   3.917
 8498SOL     OW37524   7.044   4.459   4.452
 8498SOL    HW137525   7.039   4.394   4.527
 8498SOL    HW237526   7.124   4.518   4.465
 8499SOL     OW37527   6.047   4.990   5.451
 8499SOL    HW137528   5.997   4.991   5.365
 8499SOL    HW237529   5.984   4.972   5.527
 8500SOL     OW37530   6.986   3.831   4.150
 8500SOL    HW137531   6.962   3.794   4.060
 8500SOL    HW237532   7.085   3.847   4.154
 8501SOL     OW37533   5.835   5.509   4.965
 8501SOL    HW137534   5.892   5.444   5.015
 8501SOL    HW237535   5.819   5.476   4.872
 8502SOL     OW37536   5.968   4.424   4.204
 8502SOL    HW137537   6.013   4.334   4.201
 8502SOL    HW237538   5.874   4.413   4.237
 8503SOL     OW37539   6.200   3.846   3.841
 8503SOL    HW137540   6.298   3.824   3.848
 8503SOL    HW237541   6.169   3.829   3.748
 8504SOL     OW37542   6.474   5.238   4.919
 8504SOL    HW137543   6.451   5.213   4.825
 8504SOL    HW237544   6.535   5.169   4.958
 8505SOL     OW37545   6.389   5.126   4.648
 8505SOL    HW137546   6.479   5.140   4.606
 8505SOL    HW237547   6.318   5.128   4.577
 8506SOL     OW37548   6.508   4.227   4.623
 8506SOL    HW137549   6.483   4.218   4.527
 8506SOL    HW237550   6.556   4.145   4.654
 8507SOL     OW37551   6.045   4.876   4.465
 8507SOL    HW137552   5.974   4.849   4.530
 8507SOL    HW237553   6.019   4.848   4.372
 8508SOL     OW37554   6.618   4.273   3.740
 8508SOL    HW137555   6.577   4.355   3.701
 8508SOL    HW237556   6.682   4.299   3.813
 8509SOL     OW37557   6.603   3.763   4.477
 8509SOL    HW137558   6.531   3.768   4.408
 8509SOL    HW237559   6.579   3.694   4.546
 8510SOL     OW37560   6.074   5.109   3.898
 8510SOL    HW137561   5.987   5.094   3.945
 8510SOL    HW237562   6.057   5.135   3.803
 8511SOL     OW37563   6.113   3.980   4.052
 8511SOL    HW137564   6.140   3.921   3.977
 8511SOL    HW237565   6.113   4.075   4.021
 8512SOL     OW37566   7.340   4.947   5.312
 8512SOL    HW137567   7.431   4.908   5.299
 8512SOL    HW237568   7.348   5.043   5.336
 8513SOL     OW37569   7.178   5.353   5.349
 8513SOL    HW137570   7.205   5.387   5.259
 8513SOL    HW237571   7.257   5.315   5.395
 8514SOL     OW37572   6.501   3.813   5.126
 8514SOL    HW137573   6.526   3.793   5.031
 8514SOL    HW237574   6.573   3.869   5.168
 8515SOL     OW37575   6.291   4.774   4.092
 8515SOL    HW137576   6.277   4.781   4.191
 8515SOL    HW237577   6.375   4.723   4.074
 8516SOL     OW37578   6.860   4.110   4.986
 8516SOL    HW137579   6.881   4.184   5.050
 8516SOL    HW237580   6.771   4.127   4.943
 8517SOL     OW37581   6.152   4.261   4.589
 8517SOL    HW137582   6.164   4.327   4.515
 8517SOL    HW237583   6.198   4.295   4.672
 8518SOL     OW37584   5.988   4.475   5.322
 8518SOL    HW137585   6.056   4.530   5.275
 8518SOL    HW237586   6.028   4.387   5.349
 8519SOL     OW37587   6.946   4.586   4.769
 8519SOL    HW137588   6.871   4.586   4.703
 8519SOL    HW237589   6.983   4.494   4.778
 8520SOL     OW37590   5.893   3.937   4.955
 8520SOL    HW137591   5.870   3.974   5.045
 8520SOL    HW237592   5.863   3.842   4.949
 8521SOL     OW37593   6.318   4.358   4.788
 8521SOL    HW137594   6.377   4.332   4.712
 8521SOL    HW237595   6.290   4.454   4.777
 8522SOL     OW37596   7.314   4.659   5.578
 8522SOL    HW137597   7.268   4.652   5.489
 8522SOL    HW237598   7.252   4.703   5.644
 8523SOL     OW37599   5.893   3.787   4.342
 8523SOL    HW137600   5.882   3.881   4.375
 8523SOL    HW237601   5.888   3.724   4.419
 8524SOL     OW37602   7.208   4.091   4.098
 8524SOL    HW137603   7.210   4.015   4.162
 8524SOL    HW237604   7.160   4.168   4.138
 8525SOL     OW37605   7.445   5.242   5.329
 8525SOL    HW137606   7.459   5.269   5.234
 8525SOL    HW237607   7.528   5.264   5.382
 8526SOL     OW37608   7.126   3.998   3.849
 8526SOL    HW137609   7.065   3.923   3.872
 8526SOL    HW237610   7.148   4.050   3.932
 8527SOL     OW37611   6.724   4.104   5.402
 8527SOL    HW137612   6.679   4.167   5.466
 8527SOL    HW237613   6.817   4.135   5.385
 8528SOL     OW37614   6.746   3.931   5.201
 8528SOL    HW137615   6.746   3.995   5.278
 8528SOL    HW237616   6.774   3.979   5.118
 8529SOL     OW37617   5.674   5.525   4.651
 8529SOL    HW137618   5.632   5.439   4.624
 8529SOL    HW237619   5.768   5.528   4.617
 8530SOL     OW37620   6.401   4.296   4.049
 8530SOL    HW137621   6.408   4.207   4.003
 8530SOL    HW237622   6.307   4.330   4.041
 8531SOL     OW37623   5.838   5.288   5.468
 8531SOL    HW137624   5.808   5.345   5.544
 8531SOL    HW237625   5.831   5.191   5.494
 8532SOL     OW37626   6.838   5.455   4.852
 8532SOL    HW137627   6.922   5.460   4.798
 8532SOL    HW237628   6.815   5.359   4.870
 8533SOL     OW37629   5.669   4.982   4.746
 8533SOL    HW137630   5.664   4.981   4.846
 8533SOL    HW237631   5.586   4.941   4.708
 8534SOL     OW37632   6.274   5.386   5.440
 8534SOL    HW137633   6.218   5.467   5.449
 8534SOL    HW237634   6.326   5.390   5.354
 8535SOL     OW37635   7.312   3.859   4.247
 8535SOL    HW137636   7.385   3.842   4.180
 8535SOL    HW237637   7.281   3.772   4.285
 8536SOL     OW37638   6.258   5.340   3.878
 8536SOL    HW137639   6.267   5.350   3.779
 8536SOL    HW237640   6.218   5.251   3.899
 8537SOL     OW37641   7.090   5.331   3.768
 8537SOL    HW137642   6.998   5.368   3.775
 8537SOL    HW237643   7.128   5.351   3.678
 8538SOL     OW37644   5.958   5.012   5.214
 8538SOL    HW137645   5.945   5.105   5.180
 8538SOL    HW237646   5.874   4.960   5.201
 8539SOL     OW37647   7.200   5.016   5.013
 8539SOL    HW137648   7.260   5.019   5.093
 8539SOL    HW237649   7.125   5.080   5.026
 8540SOL     OW37650   6.625   4.822   4.420
 8540SOL    HW137651   6.555   4.775   4.474
 8540SOL    HW237652   6.684   4.754   4.377
 8541SOL     OW37653   5.661   4.069   3.757
 8541SOL    HW137654   5.569   4.041   3.728
 8541SOL    HW237655   5.692   4.146   3.701
 8542SOL     OW37656   5.658   3.890   4.042
 8542SOL    HW137657   5.641   3.973   3.988
 8542SOL    HW237658   5.748   3.853   4.020
 8543SOL     OW37659   6.769   5.059   3.843
 8543SOL    HW137660   6.670   5.048   3.845
 8543SOL    HW237661   6.803   5.074   3.936
 8544SOL     OW37662   6.302   4.289   5.432
 8544SOL    HW137663   6.321   4.354   5.506
 8544SOL    HW237664   6.362   4.209   5.441
 8545SOL     OW37665   7.036   4.944   5.357
 8545SOL    HW137666   7.027   4.934   5.456
 8545SOL    HW237667   7.132   4.937   5.331
 8546SOL     OW37668   5.976   5.465   5.284
 8546SOL    HW137669   5.885   5.506   5.282
 8546SOL    HW237670   5.969   5.371   5.316
 8547SOL     OW37671   7.260   4.607   4.978
 8547SOL    HW137672   7.233   4.518   4.941
 8547SOL    HW237673   7.261   4.675   4.905
 8548SOL     OW37674   6.811   4.049   4.173
 8548SOL    HW137675   6.876   3.975   4.162
 8548SOL    HW237676   6.831   4.099   4.257
 8549SOL     OW37677   7.363   4.066   5.366
 8549SOL    HW137678   7.346   4.097   5.272
 8549SOL    HW237679   7.279   4.029   5.404
 8550SOL     OW37680   6.445   5.098   3.740
 8550SOL    HW137681   6.399   5.113   3.828
 8550SOL    HW237682   6.489   5.183   3.710
 8551SOL     OW37683   6.445   4.680   4.585
 8551SOL    HW137684   6.499   4.611   4.633
 8551SOL    HW237685   6.413   4.749   4.651
 8552SOL     OW37686   5.665   4.964   4.377
 8552SOL    HW137687   5.664   4.917   4.465
 8552SOL    HW237688   5.747   4.936   4.326
 8553SOL     OW37689   6.938   3.776   3.892
 8553SOL    HW137690   6.973   3.735   3.808
 8553SOL    HW237691   6.848   3.738   3.912
 8554SOL     OW37692   6.886   4.177   4.415
 8554SOL    HW137693   6.827   4.257   4.419
 8554SOL    HW237694   6.901   4.142   4.508
 8555SOL     OW37695   7.179   3.945   4.606
 8555SOL    HW137696   7.095   3.944   4.660
 8555SOL    HW237697   7.181   4.028   4.550
 8556SOL     OW37698   6.155   4.999   6.751
 8556SOL    HW137699   6.062   4.992   6.714
 8556SOL    HW237700   6.166   5.088   6.795
 8557SOL     OW37701   7.141   5.235   6.289
 8557SOL    HW137702   7.084   5.219   6.370
 8557SOL    HW237703   7.082   5.245   6.209
 8558SOL     OW37704   6.721   4.427   6.303
 8558SOL    HW137705   6.778   4.505   6.278
 8558SOL    HW237706   6.661   4.453   6.379
 8559SOL     OW37707   6.354   4.868   6.609
 8559SOL    HW137708   6.276   4.885   6.669
 8559SOL    HW237709   6.388   4.955   6.573
 8560SOL     OW37710   6.436   4.522   7.409
 8560SOL    HW137711   6.432   4.598   7.474
 8560SOL    HW237712   6.458   4.558   7.318
 8561SOL     OW37713   6.271   4.736   6.251
 8561SOL    HW137714   6.340   4.720   6.321
 8561SOL    HW237715   6.198   4.793   6.289
 8562SOL     OW37716   6.272   4.885   7.389
 8562SOL    HW137717   6.332   4.964   7.403
 8562SOL    HW237718   6.186   4.916   7.348
 8563SOL     OW37719   5.921   5.159   6.647
 8563SOL    HW137720   5.843   5.128   6.594
 8563SOL    HW237721   5.979   5.217   6.590
 8564SOL     OW37722   7.046   5.229   6.925
 8564SOL    HW137723   7.070   5.323   6.951
 8564SOL    HW237724   7.030   5.175   7.007
 8565SOL     OW37725   6.024   4.116   7.085
 8565SOL    HW137726   6.106   4.060   7.094
 8565SOL    HW237727   5.943   4.058   7.089
 8566SOL     OW37728   7.189   4.171   6.323
 8566SOL    HW137729   7.115   4.217   6.273
 8566SOL    HW237730   7.240   4.239   6.376
 8567SOL     OW37731   5.817   5.437   6.069
 8567SOL    HW137732   5.851   5.514   6.123
 8567SOL    HW237733   5.861   5.437   5.979
 8568SOL     OW37734   6.713   5.065   7.276
 8568SOL    HW137735   6.760   5.065   7.364
 8568SOL    HW237736   6.665   4.978   7.265
 8569SOL     OW37737   5.816   5.158   6.124
 8569SOL    HW137738   5.790   5.254   6.124
 8569SOL    HW237739   5.745   5.104   6.169
 8570SOL     OW37740   5.826   4.815   6.472
 8570SOL    HW137741   5.840   4.731   6.524
 8570SOL    HW237742   5.771   4.879   6.527
 8571SOL     OW37743   6.206   5.510   7.025
 8571SOL    HW137744   6.114   5.493   7.060
 8571SOL    HW237745   6.234   5.602   7.051
 8572SOL     OW37746   7.180   3.838   7.066
 8572SOL    HW137747   7.162   3.905   6.994
 8572SOL    HW237748   7.177   3.884   7.155
 8573SOL     OW37749   5.708   4.367   6.149
 8573SOL    HW137750   5.663   4.279   6.166
 8573SOL    HW237751   5.707   4.421   6.233
 8574SOL     OW37752   7.428   5.491   5.945
 8574SOL    HW137753   7.482   5.462   6.025
 8574SOL    HW237754   7.458   5.581   5.916
 8575SOL     OW37755   7.275   4.646   6.198
 8575SOL    HW137756   7.370   4.617   6.206
 8575SOL    HW237757   7.267   4.711   6.123
 8576SOL     OW37758   7.227   4.832   6.018
 8576SOL    HW137759   7.313   4.834   5.966
 8576SOL    HW237760   7.241   4.879   6.106
 8577SOL     OW37761   5.699   4.461   7.183
 8577SOL    HW137762   5.787   4.448   7.228
 8577SOL    HW237763   5.686   4.558   7.161
 8578SOL     OW37764   6.199   5.089   6.312
 8578SOL    HW137765   6.150   5.002   6.321
 8578SOL    HW237766   6.176   5.132   6.225
 8579SOL     OW37767   6.879   4.952   7.009
 8579SOL    HW137768   6.916   4.879   6.951
 8579SOL    HW237769   6.931   4.957   7.094
 8580SOL     OW37770   5.783   4.700   6.850
 8580SOL    HW137771   5.872   4.655   6.836
 8580SOL    HW237772   5.710   4.635   6.831
 8581SOL     OW37773   7.111   4.723   5.776
 8581SOL    HW137774   7.048   4.647   5.789
 8581SOL    HW237775   7.159   4.741   5.862
 8582SOL     OW37776   6.773   5.516   7.202
 8582SOL    HW137777   6.797   5.576   7.126
 8582SOL    HW237778   6.780   5.421   7.172
 8583SOL     OW37779   5.903   3.975   7.387
 8583SOL    HW137780   5.974   4.046   7.393
 8583SOL    HW237781   5.815   4.014   7.415
 8584SOL     OW37782   7.052   5.141   6.539
 8584SOL    HW137783   6.993   5.147   6.619
 8584SOL    HW237784   7.037   5.053   6.493
 8585SOL     OW37785   7.253   5.438   6.158
 8585SOL    HW137786   7.212   5.415   6.070
 8585SOL    HW237787   7.235   5.364   6.223
 8586SOL     OW37788   6.184   4.453   5.856
 8586SOL    HW137789   6.208   4.522   5.788
 8586SOL    HW237790   6.106   4.486   5.910
 8587SOL     OW37791   6.867   4.069   6.530
 8587SOL    HW137792   6.781   4.019   6.517
 8587SOL    HW237793   6.929   4.015   6.586
 8588SOL     OW37794   7.162   5.386   5.893
 8588SOL    HW137795   7.251   5.432   5.896
 8588SOL    HW237796   7.141   5.362   5.798
 8589SOL     OW37797   6.393   4.329   7.051
 8589SOL    HW137798   6.346   4.326   7.140
 8589SOL    HW237799   6.342   4.274   6.985
 8590SOL     OW37800   6.559   4.614   7.158
 8590SOL    HW137801   6.605   4.530   7.129
 8590SOL    HW237802   6.503   4.648   7.083
 8591SOL     OW37803   6.577   4.134   6.828
 8591SOL    HW137804   6.500   4.168   6.882
 8591SOL    HW237805   6.543   4.083   6.749
 8592SOL     OW37806   6.627   4.425   6.015
 8592SOL    HW137807   6.653   4.421   6.111
 8592SOL    HW237808   6.542   4.374   6.001
 8593SOL     OW37809   5.662   4.535   6.375
 8593SOL    HW137810   5.761   4.523   6.384
 8593SOL    HW237811   5.638   4.630   6.396
 8594SOL     OW37812   5.716   5.545   7.157
 8594SOL    HW137813   5.706   5.530   7.256
 8594SOL    HW237814   5.630   5.581   7.121
 8595SOL     OW37815   6.451   4.072   5.781
 8595SOL    HW137816   6.510   4.135   5.732
 8595SOL    HW237817   6.470   3.978   5.752
 8596SOL     OW37818   6.948   4.868   6.131
 8596SOL    HW137819   7.031   4.839   6.083
 8596SOL    HW237820   6.899   4.935   6.075
 8597SOL     OW37821   6.136   3.920   6.471
 8597SOL    HW137822   6.131   3.915   6.571
 8597SOL    HW237823   6.138   4.016   6.442
 8598SOL     OW37824   6.594   5.180   6.063
 8598SOL    HW137825   6.548   5.252   6.011
 8598SOL    HW237826   6.590   5.200   6.161
 8599SOL     OW37827   5.937   5.525   6.439
 8599SOL    HW137828   5.987   5.439   6.445
 8599SOL    HW237829   6.002   5.602   6.436
 8600SOL     OW37830   7.381   4.790   6.459
 8600SOL    HW137831   7.319   4.775   6.383
 8600SOL    HW237832   7.329   4.801   6.544
 8601SOL     OW37833   6.813   5.274   7.092
 8601SOL    HW137834   6.819   5.197   7.156
 8601SOL    HW237835   6.761   5.248   7.012
 8602SOL     OW37836   5.907   4.667   5.828
 8602SOL    HW137837   5.989   4.706   5.786
 8602SOL    HW237838   5.880   4.585   5.779
 8603SOL     OW37839   7.044   4.459   6.314
 8603SOL    HW137840   7.039   4.394   6.389
 8603SOL    HW237841   7.124   4.518   6.327
 8604SOL     OW37842   6.047   4.990   7.313
 8604SOL    HW137843   5.997   4.991   7.227
 8604SOL    HW237844   5.984   4.972   7.389
 8605SOL     OW37845   6.697   5.500   5.823
 8605SOL    HW137846   6.637   5.438   5.873
 8605SOL    HW237847   6.728   5.456   5.738
 8606SOL     OW37848   5.788   4.009   7.084
 8606SOL    HW137849   5.708   4.069   7.071
 8606SOL    HW237850   5.778   3.960   7.170
 8607SOL     OW37851   7.218   5.101   5.667
 8607SOL    HW137852   7.186   5.195   5.657
 8607SOL    HW237853   7.142   5.038   5.655
 8608SOL     OW37854   6.050   5.467   5.909
 8608SOL    HW137855   6.083   5.506   5.995
 8608SOL    HW237856   6.126   5.460   5.844
 8609SOL     OW37857   5.835   5.509   6.827
 8609SOL    HW137858   5.892   5.444   6.877
 8609SOL    HW237859   5.819   5.476   6.734
 8610SOL     OW37860   6.526   5.422   6.490
 8610SOL    HW137861   6.606   5.365   6.511
 8610SOL    HW237862   6.477   5.382   6.413
 8611SOL     OW37863   5.968   4.424   6.066
 8611SOL    HW137864   6.013   4.334   6.063
 8611SOL    HW237865   5.874   4.413   6.099
 8612SOL     OW37866   6.367   3.988   7.335
 8612SOL    HW137867   6.434   3.927   7.378
 8612SOL    HW237868   6.294   4.007   7.400
 8613SOL     OW37869   6.474   5.238   6.781
 8613SOL    HW137870   6.451   5.213   6.687
 8613SOL    HW237871   6.535   5.169   6.820
 8614SOL     OW37872   6.937   4.314   7.019
 8614SOL    HW137873   6.965   4.271   7.104
 8614SOL    HW237874   6.962   4.410   7.020
 8615SOL     OW37875   6.389   5.126   6.510
 8615SOL    HW137876   6.479   5.140   6.468
 8615SOL    HW237877   6.318   5.128   6.439
 8616SOL     OW37878   6.508   4.227   6.485
 8616SOL    HW137879   6.483   4.218   6.389
 8616SOL    HW237880   6.556   4.145   6.516
 8617SOL     OW37881   7.020   4.912   5.627
 8617SOL    HW137882   7.052   4.836   5.684
 8617SOL    HW237883   6.928   4.939   5.657
 8618SOL     OW37884   5.883   3.759   5.757
 8618SOL    HW137885   5.932   3.843   5.736
 8618SOL    HW237886   5.945   3.694   5.802
 8619SOL     OW37887   6.521   3.960   6.066
 8619SOL    HW137888   6.473   4.001   5.988
 8619SOL    HW237889   6.620   3.958   6.047
 8620SOL     OW37890   6.662   4.407   7.050
 8620SOL    HW137891   6.582   4.346   7.053
 8620SOL    HW237892   6.743   4.354   7.026
 8621SOL     OW37893   6.813   5.294   6.379
 8621SOL    HW137894   6.834   5.368   6.314
 8621SOL    HW237895   6.881   5.294   6.452
 8622SOL     OW37896   6.045   4.876   6.327
 8622SOL    HW137897   5.974   4.849   6.392
 8622SOL    HW237898   6.019   4.848   6.234
 8623SOL     OW37899   6.857   5.521   6.177
 8623SOL    HW137900   6.901   5.585   6.113
 8623SOL    HW237901   6.807   5.573   6.247
 8624SOL     OW37902   5.664   4.280   6.972
 8624SOL    HW137903   5.756   4.279   6.931
 8624SOL    HW237904   5.658   4.354   7.039
 8625SOL     OW37905   6.147   3.946   6.733
 8625SOL    HW137906   6.185   3.862   6.770
 8625SOL    HW237907   6.059   3.965   6.777
 8626SOL     OW37908   6.452   4.178   6.228
 8626SOL    HW137909   6.420   4.250   6.166
 8626SOL    HW237910   6.476   4.097   6.175
 8627SOL     OW37911   6.603   3.763   6.339
 8627SOL    HW137912   6.531   3.768   6.270
 8627SOL    HW237913   6.579   3.694   6.408
 8628SOL     OW37914   7.015   4.897   6.453
 8628SOL    HW137915   6.960   4.813   6.446
 8628SOL    HW237916   7.041   4.926   6.361
 8629SOL     OW37917   7.052   4.314   6.578
 8629SOL    HW137918   7.022   4.219   6.585
 8629SOL    HW237919   7.125   4.330   6.644
 8630SOL     OW37920   7.250   5.004   6.243
 8630SOL    HW137921   7.349   5.012   6.257
 8630SOL    HW237922   7.205   5.088   6.274
 8631SOL     OW37923   6.976   4.299   5.664
 8631SOL    HW137924   6.922   4.278   5.745
 8631SOL    HW237925   7.067   4.258   5.673
 8632SOL     OW37926   6.113   3.980   5.914
 8632SOL    HW137927   6.140   3.921   5.839
 8632SOL    HW237928   6.113   4.075   5.883
 8633SOL     OW37929   7.340   4.947   7.174
 8633SOL    HW137930   7.431   4.908   7.161
 8633SOL    HW237931   7.348   5.043   7.198
 8634SOL     OW37932   6.650   5.071   6.926
 8634SOL    HW137933   6.570   5.048   6.981
 8634SOL    HW237934   6.733   5.045   6.975
 8635SOL     OW37935   7.178   5.353   7.211
 8635SOL    HW137936   7.205   5.387   7.121
 8635SOL    HW237937   7.257   5.315   7.257
 8636SOL     OW37938   6.697   4.919   6.686
 8636SOL    HW137939   6.657   4.963   6.767
 8636SOL    HW237940   6.656   4.956   6.603
 8637SOL     OW37941   7.224   4.823   6.665
 8637SOL    HW137942   7.229   4.904   6.724
 8637SOL    HW237943   7.138   4.825   6.614
 8638SOL     OW37944   6.501   3.813   6.988
 8638SOL    HW137945   6.526   3.793   6.893
 8638SOL    HW237946   6.573   3.869   7.030
 8639SOL     OW37947   6.566   4.840   7.305
 8639SOL    HW137948   6.467   4.846   7.315
 8639SOL    HW237949   6.589   4.760   7.249
 8640SOL     OW37950   6.291   4.774   5.954
 8640SOL    HW137951   6.277   4.781   6.053
 8640SOL    HW237952   6.375   4.723   5.936
 8641SOL     OW37953   5.996   4.537   6.837
 8641SOL    HW137954   6.082   4.549   6.887
 8641SOL    HW237955   5.954   4.450   6.864
 8642SOL     OW37956   6.860   4.110   6.848
 8642SOL    HW137957   6.881   4.184   6.912
 8642SOL    HW237958   6.771   4.127   6.805
 8643SOL     OW37959   5.650   5.288   6.917
 8643SOL    HW137960   5.604   5.370   6.883
 8643SOL    HW237961   5.748   5.307   6.926
 8644SOL     OW37962   6.152   4.261   6.451
 8644SOL    HW137963   6.164   4.327   6.377
 8644SOL    HW237964   6.198   4.295   6.534
 8645SOL     OW37965   6.838   5.072   5.974
 8645SOL    HW137966   6.888   5.149   6.014
 8645SOL    HW237967   6.743   5.074   6.006
 8646SOL     OW37968   6.858   5.169   6.728
 8646SOL    HW137969   6.905   5.182   6.815
 8646SOL    HW237970   6.792   5.095   6.737
 8647SOL     OW37971   7.168   4.363   6.058
 8647SOL    HW137972   7.137   4.424   6.131
 8647SOL    HW237973   7.218   4.415   5.989
 8648SOL     OW37974   5.940   5.234   6.915
 8648SOL    HW137975   5.919   5.190   6.828
 8648SOL    HW237976   6.037   5.260   6.918
 8649SOL     OW37977   5.988   4.475   7.184
 8649SOL    HW137978   6.056   4.530   7.137
 8649SOL    HW237979   6.028   4.387   7.211
 8650SOL     OW37980   7.173   4.503   7.256
 8650SOL    HW137981   7.081   4.541   7.251
 8650SOL    HW237982   7.233   4.550   7.191
 8651SOL     OW37983   6.159   4.594   6.615
 8651SOL    HW137984   6.203   4.683   6.606
 8651SOL    HW237985   6.096   4.594   6.692
 8652SOL     OW37986   6.946   4.586   6.631
 8652SOL    HW137987   6.871   4.586   6.565
 8652SOL    HW237988   6.983   4.494   6.640
 8653SOL     OW37989   5.893   3.937   6.817
 8653SOL    HW137990   5.870   3.974   6.907
 8653SOL    HW237991   5.863   3.842   6.811
 8654SOL     OW37992   5.623   5.034   6.868
 8654SOL    HW137993   5.676   4.985   6.936
 8654SOL    HW237994   5.645   5.132   6.873
 8655SOL     OW37995   6.318   4.358   6.650
 8655SOL    HW137996   6.377   4.332   6.574
 8655SOL    HW237997   6.290   4.454   6.639
 8656SOL     OW37998   7.314   4.659   7.440
 8656SOL    HW137999   7.268   4.652   7.351
 8656SOL    HW238000   7.252   4.703   7.506
 8657SOL     OW38001   6.609   4.490   6.552
 8657SOL    HW138002   6.624   4.511   6.648
 8657SOL    HW238003   6.579   4.395   6.543
 8658SOL     OW38004   6.566   5.297   7.286
 8658SOL    HW138005   6.546   5.341   7.198
 8658SOL    HW238006   6.605   5.206   7.270
 8659SOL     OW38007   7.445   5.242   7.191
 8659SOL    HW138008   7.459   5.269   7.096
 8659SOL    HW238009   7.528   5.264   7.244
 8660SOL     OW38010   5.936   4.622   7.390
 8660SOL    HW138011   6.012   4.666   7.438
 8660SOL    HW238012   5.971   4.575   7.308
 8661SOL     OW38013   7.126   3.998   5.711
 8661SOL    HW138014   7.065   3.923   5.734
 8661SOL    HW238015   7.148   4.050   5.794
 8662SOL     OW38016   6.889   4.562   5.628
 8662SOL    HW138017   6.923   4.469   5.643
 8662SOL    HW238018   6.907   4.589   5.533
 8663SOL     OW38019   6.654   5.057   6.435
 8663SOL    HW138020   6.661   4.973   6.380
 8663SOL    HW238021   6.716   5.126   6.399
 8664SOL     OW38022   5.905   4.534   6.535
 8664SOL    HW138023   5.998   4.570   6.540
 8664SOL    HW238024   5.899   4.449   6.587
 8665SOL     OW38025   6.724   4.104   7.264
 8665SOL    HW138026   6.679   4.167   7.328
 8665SOL    HW238027   6.817   4.135   7.247
 8666SOL     OW38028   6.746   3.931   7.063
 8666SOL    HW138029   6.746   3.995   7.140
 8666SOL    HW238030   6.774   3.979   6.980
 8667SOL     OW38031   5.674   5.525   6.513
 8667SOL    HW138032   5.632   5.439   6.486
 8667SOL    HW238033   5.768   5.528   6.479
 8668SOL     OW38034   6.090   5.292   6.496
 8668SOL    HW138035   6.156   5.366   6.505
 8668SOL    HW238036   6.134   5.213   6.454
 8669SOL     OW38037   6.588   4.520   6.824
 8669SOL    HW138038   6.629   4.488   6.910
 8669SOL    HW238039   6.492   4.493   6.821
 8670SOL     OW38040   5.626   4.268   6.700
 8670SOL    HW138041   5.711   4.235   6.659
 8670SOL    HW238042   5.639   4.283   6.798
 8671SOL     OW38043   6.401   4.296   5.911
 8671SOL    HW138044   6.408   4.207   5.865
 8671SOL    HW238045   6.307   4.330   5.903
 8672SOL     OW38046   7.243   4.328   6.792
 8672SOL    HW138047   7.205   4.259   6.854
 8672SOL    HW238048   7.325   4.292   6.748
 8673SOL     OW38049   5.838   5.288   7.330
 8673SOL    HW138050   5.808   5.345   7.406
 8673SOL    HW238051   5.831   5.191   7.356
 8674SOL     OW38052   6.257   4.188   6.855
 8674SOL    HW138053   6.223   4.099   6.825
 8674SOL    HW238054   6.283   4.242   6.775
 8675SOL     OW38055   6.516   5.402   7.051
 8675SOL    HW138056   6.492   5.384   6.956
 8675SOL    HW238057   6.546   5.496   7.061
 8676SOL     OW38058   5.745   4.861   7.052
 8676SOL    HW138059   5.767   4.800   7.128
 8676SOL    HW238060   5.755   4.812   6.966
 8677SOL     OW38061   6.933   4.783   6.820
 8677SOL    HW138062   6.957   4.720   6.746
 8677SOL    HW238063   6.843   4.823   6.802
 8678SOL     OW38064   6.888   4.579   5.895
 8678SOL    HW138065   6.802   4.548   5.937
 8678SOL    HW238066   6.884   4.565   5.796
 8679SOL     OW38067   7.345   5.471   6.740
 8679SOL    HW138068   7.406   5.501   6.667
 8679SOL    HW238069   7.307   5.382   6.718
 8680SOL     OW38070   6.838   5.455   6.714
 8680SOL    HW138071   6.922   5.460   6.660
 8680SOL    HW238072   6.815   5.359   6.732
 8681SOL     OW38073   5.669   4.982   6.608
 8681SOL    HW138074   5.664   4.981   6.708
 8681SOL    HW238075   5.586   4.941   6.570
 8682SOL     OW38076   6.274   5.386   7.302
 8682SOL    HW138077   6.218   5.467   7.311
 8682SOL    HW238078   6.326   5.390   7.216
 8683SOL     OW38079   7.312   3.859   6.109
 8683SOL    HW138080   7.385   3.842   6.042
 8683SOL    HW238081   7.281   3.772   6.147
 8684SOL     OW38082   6.974   5.297   6.063
 8684SOL    HW138083   7.041   5.309   5.989
 8684SOL    HW238084   6.934   5.386   6.086
 8685SOL     OW38085   6.866   4.651   6.258
 8685SOL    HW138086   6.926   4.570   6.260
 8685SOL    HW238087   6.906   4.720   6.198
 8686SOL     OW38088   6.416   4.997   7.008
 8686SOL    HW138089   6.411   5.030   7.103
 8686SOL    HW238090   6.330   5.016   6.962
 8687SOL     OW38091   6.258   5.340   5.740
 8687SOL    HW138092   6.267   5.350   5.641
 8687SOL    HW238093   6.218   5.251   5.761
 8688SOL     OW38094   7.236   5.444   6.980
 8688SOL    HW138095   7.289   5.454   6.896
 8688SOL    HW238096   7.209   5.534   7.014
 8689SOL     OW38097   7.427   3.899   6.549
 8689SOL    HW138098   7.466   3.814   6.513
 8689SOL    HW238099   7.329   3.901   6.530
 8690SOL     OW38100   6.780   5.336   5.617
 8690SOL    HW138101   6.786   5.243   5.654
 8690SOL    HW238102   6.721   5.336   5.537
 8691SOL     OW38103   6.408   4.726   6.958
 8691SOL    HW138104   6.448   4.725   6.866
 8691SOL    HW238105   6.418   4.818   6.998
 8692SOL     OW38106   6.502   4.634   5.877
 8692SOL    HW138107   6.565   4.672   5.809
 8692SOL    HW238108   6.542   4.551   5.916
 8693SOL     OW38109   7.090   5.331   5.630
 8693SOL    HW138110   6.998   5.368   5.637
 8693SOL    HW238111   7.128   5.351   5.540
 8694SOL     OW38112   5.958   5.012   7.076
 8694SOL    HW138113   5.945   5.105   7.042
 8694SOL    HW238114   5.874   4.960   7.063
 8695SOL     OW38115   7.200   5.016   6.875
 8695SOL    HW138116   7.260   5.019   6.955
 8695SOL    HW238117   7.125   5.080   6.888
 8696SOL     OW38118   6.625   4.822   6.282
 8696SOL    HW138119   6.555   4.775   6.336
 8696SOL    HW238120   6.684   4.754   6.239
 8697SOL     OW38121   6.600   3.960   6.557
 8697SOL    HW138122   6.592   3.924   6.464
 8697SOL    HW238123   6.598   3.884   6.622
 8698SOL     OW38124   6.176   5.211   6.077
 8698SOL    HW138125   6.218   5.153   6.007
 8698SOL    HW238126   6.132   5.290   6.033
 8699SOL     OW38127   7.295   4.109   6.967
 8699SOL    HW138128   7.368   4.178   6.971
 8699SOL    HW238129   7.323   4.034   6.908
 8700SOL     OW38130   5.691   4.737   7.312
 8700SOL    HW138131   5.614   4.704   7.366
 8700SOL    HW238132   5.776   4.707   7.354
 8701SOL     OW38133   6.258   3.927   7.075
 8701SOL    HW138134   6.348   3.911   7.035
 8701SOL    HW238135   6.266   3.932   7.174
 8702SOL     OW38136   7.026   4.580   6.984
 8702SOL    HW138137   6.969   4.632   6.921
 8702SOL    HW238138   7.122   4.592   6.960
 8703SOL     OW38139   6.769   5.059   5.705
 8703SOL    HW138140   6.670   5.048   5.707
 8703SOL    HW238141   6.803   5.074   5.798
 8704SOL     OW38142   6.199   4.566   7.017
 8704SOL    HW138143   6.255   4.647   7.000
 8704SOL    HW238144   6.258   4.486   7.020
 8705SOL     OW38145   7.079   5.491   6.545
 8705SOL    HW138146   7.112   5.555   6.476
 8705SOL    HW238147   7.145   5.485   6.620
 8706SOL     OW38148   6.302   4.289   7.294
 8706SOL    HW138149   6.321   4.354   7.368
 8706SOL    HW238150   6.362   4.209   7.303
 8707SOL     OW38151   5.976   5.465   7.146
 8707SOL    HW138152   5.885   5.506   7.144
 8707SOL    HW238153   5.969   5.371   7.178
 8708SOL     OW38154   7.260   4.607   6.840
 8708SOL    HW138155   7.233   4.518   6.803
 8708SOL    HW238156   7.261   4.675   6.767
 8709SOL     OW38157   6.180   4.469   6.238
 8709SOL    HW138158   6.230   4.554   6.219
 8709SOL    HW238159   6.092   4.471   6.190
 8710SOL     OW38160   7.363   4.066   7.228
 8710SOL    HW138161   7.346   4.097   7.134
 8710SOL    HW238162   7.279   4.029   7.266
 8711SOL     OW38163   7.316   4.658   7.103
 8711SOL    HW138164   7.354   4.749   7.118
 8711SOL    HW238165   7.308   4.641   7.004
 8712SOL     OW38166   6.247   5.514   6.539
 8712SOL    HW138167   6.201   5.602   6.526
 8712SOL    HW238168   6.346   5.526   6.532
 8713SOL     OW38169   6.445   4.680   6.447
 8713SOL    HW138170   6.499   4.611   6.495
 8713SOL    HW238171   6.413   4.749   6.513
 8714SOL     OW38172   7.447   5.293   6.437
 8714SOL    HW138173   7.376   5.281   6.367
 8714SOL    HW238174   7.448   5.214   6.497
 8715SOL     OW38175   5.807   5.038   7.430
 8715SOL    HW138176   5.742   4.965   7.409
 8715SOL    HW238177   5.811   5.052   7.528
 8716SOL     OW38178   5.665   4.964   6.239
 8716SOL    HW138179   5.664   4.917   6.327
 8716SOL    HW238180   5.747   4.936   6.188
 8717SOL     OW38181   6.258   5.115   7.210
 8717SOL    HW138182   6.180   5.065   7.248
 8717SOL    HW238183   6.255   5.210   7.241
 8718SOL     OW38184   7.410   3.916   6.813
 8718SOL    HW138185   7.406   3.826   6.857
 8718SOL    HW238186   7.413   3.905   6.714
 8719SOL     OW38187   6.014   4.148   6.106
 8719SOL    HW138188   6.044   4.076   6.044
 8719SOL    HW238189   5.975   4.108   6.189
 8720SOL     OW38190   7.291   5.211   6.690
 8720SOL    HW138191   7.198   5.186   6.663
 8720SOL    HW238192   7.317   5.161   6.772
 8721SOL     OW38193   5.903   4.271   6.866
 8721SOL    HW138194   5.941   4.212   6.938
 8721SOL    HW238195   5.943   4.245   6.778
 8722SOL     OW38196   6.398   5.310   6.273
 8722SOL    HW138197   6.430   5.320   6.179
 8722SOL    HW238198   6.319   5.248   6.275
 8723SOL     OW38199   7.010   3.938   6.698
 8723SOL    HW138200   7.062   3.873   6.753
 8723SOL    HW238201   6.961   4.001   6.759
 8724SOL     OW38202   6.587   3.758   6.740
 8724SOL    HW138203   6.524   3.686   6.709
 8724SOL    HW238204   6.680   3.722   6.740
 8725SOL     OW38205   6.356   5.054   5.887
 8725SOL    HW138206   6.310   4.967   5.904
 8725SOL    HW238207   6.447   5.051   5.928
 8726SOL     OW38208   6.204   5.291   6.870
 8726SOL    HW138209   6.199   5.373   6.927
 8726SOL    HW238210   6.293   5.288   6.825
 8727SOL     OW38211   7.179   3.945   6.468
 8727SOL    HW138212   7.095   3.944   6.522
 8727SOL    HW238213   7.181   4.028   6.412
 8728SOL     OW38214   6.461   5.370   5.923
 8728SOL    HW138215   6.384   5.335   5.869
 8728SOL    HW238216   6.429   5.441   5.985
 8729SOL     OW38217   5.816   6.214   0.113
 8729SOL    HW138218   5.723   6.212   0.150
 8729SOL    HW238219   5.817   6.175   0.021
 8730SOL     OW38220   5.811   5.861   0.996
 8730SOL    HW138221   5.846   5.844   1.088
 8730SOL    HW238222   5.723   5.816   0.984
 8731SOL     OW38223   5.605   5.954   0.647
 8731SOL    HW138224   5.523   5.997   0.686
 8731SOL    HW238225   5.577   5.881   0.584
 8732SOL     OW38226   6.155   6.861   1.165
 8732SOL    HW138227   6.062   6.854   1.128
 8732SOL    HW238228   6.166   6.950   1.209
 8733SOL     OW38229   7.141   7.097   0.703
 8733SOL    HW138230   7.084   7.081   0.784
 8733SOL    HW238231   7.082   7.107   0.623
 8734SOL     OW38232   6.721   6.289   0.717
 8734SOL    HW138233   6.778   6.367   0.692
 8734SOL    HW238234   6.661   6.315   0.793
 8735SOL     OW38235   7.341   6.193   0.231
 8735SOL    HW138236   7.329   6.180   0.132
 8735SOL    HW238237   7.311   6.112   0.280
 8736SOL     OW38238   6.354   6.730   1.023
 8736SOL    HW138239   6.276   6.747   1.083
 8736SOL    HW238240   6.388   6.817   0.987
 8737SOL     OW38241   6.436   6.384   1.823
 8737SOL    HW138242   6.432   6.460   1.888
 8737SOL    HW238243   6.458   6.420   1.732
 8738SOL     OW38244   6.271   6.598   0.665
 8738SOL    HW138245   6.340   6.582   0.735
 8738SOL    HW238246   6.198   6.655   0.703
 8739SOL     OW38247   6.272   6.747   1.803
 8739SOL    HW138248   6.332   6.826   1.817
 8739SOL    HW238249   6.186   6.778   1.762
 8740SOL     OW38250   5.921   7.021   1.061
 8740SOL    HW138251   5.843   6.990   1.008
 8740SOL    HW238252   5.979   7.079   1.004
 8741SOL     OW38253   7.046   7.091   1.339
 8741SOL    HW138254   7.070   7.185   1.365
 8741SOL    HW238255   7.030   7.037   1.421
 8742SOL     OW38256   6.024   5.978   1.499
 8742SOL    HW138257   6.106   5.922   1.508
 8742SOL    HW238258   5.943   5.920   1.503
 8743SOL     OW38259   7.189   6.033   0.737
 8743SOL    HW138260   7.115   6.079   0.687
 8743SOL    HW238261   7.240   6.101   0.790
 8744SOL     OW38262   5.817   7.299   0.483
 8744SOL    HW138263   5.851   7.376   0.537
 8744SOL    HW238264   5.861   7.299   0.393
 8745SOL     OW38265   5.816   7.020   0.538
 8745SOL    HW138266   5.790   7.116   0.538
 8745SOL    HW238267   5.745   6.966   0.583
 8746SOL     OW38268   5.826   6.677   0.886
 8746SOL    HW138269   5.840   6.593   0.938
 8746SOL    HW238270   5.771   6.741   0.941
 8747SOL     OW38271   6.206   7.372   1.439
 8747SOL    HW138272   6.114   7.355   1.474
 8747SOL    HW238273   6.234   7.464   1.465
 8748SOL     OW38274   6.192   6.550   0.123
 8748SOL    HW138275   6.199   6.634   0.069
 8748SOL    HW238276   6.238   6.563   0.211
 8749SOL     OW38277   7.180   5.700   1.480
 8749SOL    HW138278   7.162   5.767   1.408
 8749SOL    HW238279   7.177   5.746   1.569
 8750SOL     OW38280   5.708   6.229   0.563
 8750SOL    HW138281   5.663   6.141   0.580
 8750SOL    HW238282   5.707   6.283   0.647
 8751SOL     OW38283   7.428   7.353   0.359
 8751SOL    HW138284   7.482   7.324   0.439
 8751SOL    HW238285   7.458   7.443   0.330
 8752SOL     OW38286   5.613   7.182   0.117
 8752SOL    HW138287   5.594   7.086   0.138
 8752SOL    HW238288   5.580   7.240   0.192
 8753SOL     OW38289   7.275   6.508   0.612
 8753SOL    HW138290   7.370   6.479   0.620
 8753SOL    HW238291   7.267   6.573   0.537
 8754SOL     OW38292   7.227   6.694   0.432
 8754SOL    HW138293   7.313   6.696   0.380
 8754SOL    HW238294   7.241   6.741   0.520
 8755SOL     OW38295   5.699   6.323   1.597
 8755SOL    HW138296   5.787   6.310   1.642
 8755SOL    HW238297   5.686   6.420   1.575
 8756SOL     OW38298   6.199   6.951   0.726
 8756SOL    HW138299   6.150   6.864   0.735
 8756SOL    HW238300   6.176   6.994   0.639
 8757SOL     OW38301   6.395   5.590   0.502
 8757SOL    HW138302   6.435   5.681   0.493
 8757SOL    HW238303   6.295   5.598   0.508
 8758SOL     OW38304   5.783   6.562   1.264
 8758SOL    HW138305   5.872   6.517   1.250
 8758SOL    HW238306   5.710   6.497   1.245
 8759SOL     OW38307   7.111   6.585   0.190
 8759SOL    HW138308   7.048   6.509   0.203
 8759SOL    HW238309   7.159   6.603   0.276
 8760SOL     OW38310   6.773   7.378   1.616
 8760SOL    HW138311   6.797   7.438   1.540
 8760SOL    HW238312   6.780   7.283   1.586
 8761SOL     OW38313   7.052   7.003   0.953
 8761SOL    HW138314   6.993   7.009   1.033
 8761SOL    HW238315   7.037   6.915   0.907
 8762SOL     OW38316   7.253   7.300   0.572
 8762SOL    HW138317   7.212   7.277   0.484
 8762SOL    HW238318   7.235   7.226   0.637
 8763SOL     OW38319   6.184   6.315   0.270
 8763SOL    HW138320   6.208   6.384   0.202
 8763SOL    HW238321   6.106   6.348   0.324
 8764SOL     OW38322   6.867   5.931   0.944
 8764SOL    HW138323   6.781   5.881   0.931
 8764SOL    HW238324   6.929   5.877   1.000
 8765SOL     OW38325   7.162   7.248   0.307
 8765SOL    HW138326   7.251   7.294   0.310
 8765SOL    HW238327   7.141   7.224   0.212
 8766SOL     OW38328   6.393   6.191   1.465
 8766SOL    HW138329   6.346   6.188   1.554
 8766SOL    HW238330   6.342   6.136   1.399
 8767SOL     OW38331   6.980   6.055   1.674
 8767SOL    HW138332   6.960   6.098   1.762
 8767SOL    HW238333   7.058   5.993   1.683
 8768SOL     OW38334   6.559   6.476   1.572
 8768SOL    HW138335   6.605   6.392   1.543
 8768SOL    HW238336   6.503   6.510   1.497
 8769SOL     OW38337   6.577   5.996   1.242
 8769SOL    HW138338   6.500   6.030   1.296
 8769SOL    HW238339   6.543   5.945   1.163
 8770SOL     OW38340   6.627   6.287   0.429
 8770SOL    HW138341   6.653   6.283   0.525
 8770SOL    HW238342   6.542   6.236   0.415
 8771SOL     OW38343   5.662   6.397   0.789
 8771SOL    HW138344   5.761   6.385   0.798
 8771SOL    HW238345   5.638   6.492   0.810
 8772SOL     OW38346   6.451   5.934   0.195
 8772SOL    HW138347   6.510   5.997   0.146
 8772SOL    HW238348   6.470   5.840   0.166
 8773SOL     OW38349   7.305   6.171   1.831
 8773SOL    HW138350   7.279   6.260   1.795
 8773SOL    HW238351   7.303   6.103   1.758
 8774SOL     OW38352   6.948   6.730   0.545
 8774SOL    HW138353   7.031   6.701   0.497
 8774SOL    HW238354   6.899   6.797   0.489
 8775SOL     OW38355   6.136   5.782   0.885
 8775SOL    HW138356   6.131   5.777   0.985
 8775SOL    HW238357   6.138   5.878   0.856
 8776SOL     OW38358   6.594   7.042   0.477
 8776SOL    HW138359   6.548   7.114   0.425
 8776SOL    HW238360   6.590   7.062   0.575
 8777SOL     OW38361   5.937   7.387   0.853
 8777SOL    HW138362   5.987   7.301   0.859
 8777SOL    HW238363   6.002   7.464   0.850
 8778SOL     OW38364   7.381   6.652   0.873
 8778SOL    HW138365   7.319   6.637   0.797
 8778SOL    HW238366   7.329   6.663   0.958
 8779SOL     OW38367   6.813   7.136   1.506
 8779SOL    HW138368   6.819   7.059   1.570
 8779SOL    HW238369   6.761   7.110   1.426
 8780SOL     OW38370   5.907   6.529   0.242
 8780SOL    HW138371   5.989   6.568   0.200
 8780SOL    HW238372   5.880   6.447   0.193
 8781SOL     OW38373   7.044   6.321   0.728
 8781SOL    HW138374   7.039   6.256   0.803
 8781SOL    HW238375   7.124   6.380   0.741
 8782SOL     OW38376   6.047   6.852   1.727
 8782SOL    HW138377   5.997   6.853   1.641
 8782SOL    HW238378   5.984   6.834   1.803
 8783SOL     OW38379   6.697   7.362   0.237
 8783SOL    HW138380   6.637   7.300   0.287
 8783SOL    HW238381   6.728   7.318   0.152
 8784SOL     OW38382   5.788   5.871   1.498
 8784SOL    HW138383   5.708   5.931   1.485
 8784SOL    HW238384   5.778   5.822   1.584
 8785SOL     OW38385   7.218   6.963   0.081
 8785SOL    HW138386   7.186   7.057   0.071
 8785SOL    HW238387   7.142   6.900   0.069
 8786SOL     OW38388   6.050   7.329   0.323
 8786SOL    HW138389   6.083   7.368   0.409
 8786SOL    HW238390   6.126   7.322   0.258
 8787SOL     OW38391   6.986   5.693   0.426
 8787SOL    HW138392   6.962   5.656   0.336
 8787SOL    HW238393   7.085   5.709   0.430
 8788SOL     OW38394   5.835   7.371   1.241
 8788SOL    HW138395   5.892   7.306   1.291
 8788SOL    HW238396   5.819   7.338   1.148
 8789SOL     OW38397   6.526   7.284   0.904
 8789SOL    HW138398   6.606   7.227   0.925
 8789SOL    HW238399   6.477   7.244   0.827
 8790SOL     OW38400   5.968   6.286   0.480
 8790SOL    HW138401   6.013   6.196   0.477
 8790SOL    HW238402   5.874   6.275   0.513
 8791SOL     OW38403   7.133   5.808   1.729
 8791SOL    HW138404   7.128   5.845   1.821
 8791SOL    HW238405   7.061   5.739   1.717
 8792SOL     OW38406   6.200   5.708   0.117
 8792SOL    HW138407   6.298   5.686   0.124
 8792SOL    HW238408   6.169   5.691   0.024
 8793SOL     OW38409   6.474   7.100   1.195
 8793SOL    HW138410   6.451   7.075   1.101
 8793SOL    HW238411   6.535   7.031   1.234
 8794SOL     OW38412   6.937   6.176   1.433
 8794SOL    HW138413   6.965   6.133   1.518
 8794SOL    HW238414   6.962   6.272   1.434
 8795SOL     OW38415   6.389   6.988   0.924
 8795SOL    HW138416   6.479   7.002   0.882
 8795SOL    HW238417   6.318   6.990   0.853
 8796SOL     OW38418   6.508   6.089   0.899
 8796SOL    HW138419   6.483   6.080   0.803
 8796SOL    HW238420   6.556   6.007   0.930
 8797SOL     OW38421   6.125   5.650   0.512
 8797SOL    HW138422   6.044   5.651   0.570
 8797SOL    HW238423   6.128   5.733   0.457
 8798SOL     OW38424   7.020   6.774   0.041
 8798SOL    HW138425   7.052   6.698   0.098
 8798SOL    HW238426   6.928   6.801   0.071
 8799SOL     OW38427   5.883   5.621   0.171
 8799SOL    HW138428   5.932   5.705   0.150
 8799SOL    HW238429   5.945   5.556   0.216
 8800SOL     OW38430   6.521   5.822   0.480
 8800SOL    HW138431   6.473   5.863   0.402
 8800SOL    HW238432   6.620   5.820   0.461
 8801SOL     OW38433   6.662   6.269   1.464
 8801SOL    HW138434   6.582   6.208   1.467
 8801SOL    HW238435   6.743   6.216   1.440
 8802SOL     OW38436   6.813   7.156   0.793
 8802SOL    HW138437   6.834   7.230   0.728
 8802SOL    HW238438   6.881   7.156   0.866
 8803SOL     OW38439   6.045   6.738   0.741
 8803SOL    HW138440   5.974   6.711   0.806
 8803SOL    HW238441   6.019   6.710   0.648
 8804SOL     OW38442   6.857   7.383   0.591
 8804SOL    HW138443   6.901   7.447   0.527
 8804SOL    HW238444   6.807   7.435   0.661
 8805SOL     OW38445   6.618   6.135   0.016
 8805SOL    HW138446   6.577   6.217  -0.023
 8805SOL    HW238447   6.682   6.161   0.089
 8806SOL     OW38448   5.664   6.142   1.386
 8806SOL    HW138449   5.756   6.141   1.345
 8806SOL    HW238450   5.658   6.216   1.453
 8807SOL     OW38451   6.147   5.808   1.147
 8807SOL    HW138452   6.185   5.724   1.184
 8807SOL    HW238453   6.059   5.827   1.191
 8808SOL     OW38454   6.452   6.040   0.642
 8808SOL    HW138455   6.420   6.112   0.580
 8808SOL    HW238456   6.476   5.959   0.589
 8809SOL     OW38457   6.603   5.625   0.753
 8809SOL    HW138458   6.531   5.630   0.684
 8809SOL    HW238459   6.579   5.556   0.822
 8810SOL     OW38460   7.015   6.759   0.867
 8810SOL    HW138461   6.960   6.675   0.860
 8810SOL    HW238462   7.041   6.788   0.775
 8811SOL     OW38463   7.052   6.176   0.992
 8811SOL    HW138464   7.022   6.081   0.999
 8811SOL    HW238465   7.125   6.192   1.058
 8812SOL     OW38466   7.443   6.419   0.377
 8812SOL    HW138467   7.485   6.355   0.441
 8812SOL    HW238468   7.405   6.368   0.299
 8813SOL     OW38469   6.074   6.971   0.174
 8813SOL    HW138470   5.987   6.956   0.221
 8813SOL    HW238471   6.057   6.997   0.079
 8814SOL     OW38472   7.250   6.866   0.657
 8814SOL    HW138473   7.349   6.874   0.671
 8814SOL    HW238474   7.205   6.950   0.688
 8815SOL     OW38475   6.976   6.161   0.078
 8815SOL    HW138476   6.922   6.140   0.159
 8815SOL    HW238477   7.067   6.120   0.087
 8816SOL     OW38478   6.113   5.842   0.328
 8816SOL    HW138479   6.140   5.783   0.253
 8816SOL    HW238480   6.113   5.937   0.297
 8817SOL     OW38481   7.340   6.809   1.588
 8817SOL    HW138482   7.431   6.770   1.575
 8817SOL    HW238483   7.348   6.905   1.612
 8818SOL     OW38484   6.650   6.933   1.340
 8818SOL    HW138485   6.570   6.910   1.395
 8818SOL    HW238486   6.733   6.907   1.389
 8819SOL     OW38487   6.697   6.781   1.100
 8819SOL    HW138488   6.657   6.825   1.181
 8819SOL    HW238489   6.656   6.818   1.017
 8820SOL     OW38490   7.224   6.685   1.079
 8820SOL    HW138491   7.229   6.766   1.138
 8820SOL    HW238492   7.138   6.687   1.028
 8821SOL     OW38493   6.566   6.702   1.719
 8821SOL    HW138494   6.467   6.708   1.729
 8821SOL    HW238495   6.589   6.622   1.663
 8822SOL     OW38496   6.291   6.636   0.368
 8822SOL    HW138497   6.277   6.643   0.467
 8822SOL    HW238498   6.375   6.585   0.350
 8823SOL     OW38499   5.996   6.399   1.251
 8823SOL    HW138500   6.082   6.411   1.301
 8823SOL    HW238501   5.954   6.312   1.278
 8824SOL     OW38502   6.860   5.972   1.262
 8824SOL    HW138503   6.881   6.046   1.326
 8824SOL    HW238504   6.771   5.989   1.219
 8825SOL     OW38505   5.650   7.150   1.331
 8825SOL    HW138506   5.604   7.232   1.297
 8825SOL    HW238507   5.748   7.169   1.340
 8826SOL     OW38508   5.953   6.686   0.501
 8826SOL    HW138509   5.946   6.769   0.445
 8826SOL    HW238510   5.957   6.606   0.441
 8827SOL     OW38511   6.152   6.123   0.865
 8827SOL    HW138512   6.164   6.189   0.791
 8827SOL    HW238513   6.198   6.157   0.948
 8828SOL     OW38514   6.838   6.934   0.388
 8828SOL    HW138515   6.888   7.011   0.428
 8828SOL    HW238516   6.743   6.936   0.420
 8829SOL     OW38517   6.858   7.031   1.142
 8829SOL    HW138518   6.905   7.044   1.229
 8829SOL    HW238519   6.792   6.957   1.151
 8830SOL     OW38520   7.168   6.225   0.472
 8830SOL    HW138521   7.137   6.286   0.545
 8830SOL    HW238522   7.218   6.277   0.403
 8831SOL     OW38523   5.940   7.096   1.329
 8831SOL    HW138524   5.919   7.052   1.242
 8831SOL    HW238525   6.037   7.122   1.332
 8832SOL     OW38526   5.988   6.337   1.598
 8832SOL    HW138527   6.056   6.392   1.551
 8832SOL    HW238528   6.028   6.249   1.625
 8833SOL     OW38529   7.173   6.365   1.670
 8833SOL    HW138530   7.081   6.403   1.665
 8833SOL    HW238531   7.233   6.412   1.605
 8834SOL     OW38532   6.090   5.636   1.740
 8834SOL    HW138533   6.048   5.579   1.670
 8834SOL    HW238534   6.024   5.705   1.772
 8835SOL     OW38535   6.159   6.456   1.029
 8835SOL    HW138536   6.203   6.545   1.020
 8835SOL    HW238537   6.096   6.456   1.106
 8836SOL     OW38538   6.946   6.448   1.045
 8836SOL    HW138539   6.871   6.448   0.979
 8836SOL    HW238540   6.983   6.356   1.054
 8837SOL     OW38541   6.795   6.111   0.275
 8837SOL    HW138542   6.808   6.027   0.329
 8837SOL    HW238543   6.766   6.185   0.335
 8838SOL     OW38544   5.893   5.799   1.231
 8838SOL    HW138545   5.870   5.836   1.321
 8838SOL    HW238546   5.863   5.704   1.225
 8839SOL     OW38547   5.623   6.896   1.282
 8839SOL    HW138548   5.676   6.847   1.350
 8839SOL    HW238549   5.645   6.994   1.287
 8840SOL     OW38550   6.318   6.220   1.064
 8840SOL    HW138551   6.377   6.194   0.988
 8840SOL    HW238552   6.290   6.316   1.053
 8841SOL     OW38553   7.314   6.521   1.854
 8841SOL    HW138554   7.268   6.514   1.765
 8841SOL    HW238555   7.252   6.565   1.920
 8842SOL     OW38556   5.893   5.649   0.618
 8842SOL    HW138557   5.882   5.743   0.651
 8842SOL    HW238558   5.888   5.586   0.695
 8843SOL     OW38559   7.208   5.953   0.374
 8843SOL    HW138560   7.210   5.877   0.438
 8843SOL    HW238561   7.160   6.030   0.414
 8844SOL     OW38562   6.609   6.352   0.966
 8844SOL    HW138563   6.624   6.373   1.062
 8844SOL    HW238564   6.579   6.257   0.957
 8845SOL     OW38565   5.936   6.484   1.804
 8845SOL    HW138566   6.012   6.528   1.852
 8845SOL    HW238567   5.971   6.437   1.722
 8846SOL     OW38568   7.126   5.860   0.125
 8846SOL    HW138569   7.065   5.785   0.148
 8846SOL    HW238570   7.148   5.912   0.208
 8847SOL     OW38571   6.889   6.424   0.042
 8847SOL    HW138572   6.923   6.331   0.057
 8847SOL    HW238573   6.907   6.451  -0.053
 8848SOL     OW38574   6.654   6.919   0.849
 8848SOL    HW138575   6.661   6.835   0.794
 8848SOL    HW238576   6.716   6.988   0.813
 8849SOL     OW38577   5.905   6.396   0.949
 8849SOL    HW138578   5.998   6.432   0.954
 8849SOL    HW238579   5.899   6.311   1.001
 8850SOL     OW38580   5.925   6.095   1.006
 8850SOL    HW138581   5.873   6.012   0.989
 8850SOL    HW238582   6.002   6.100   0.942
 8851SOL     OW38583   5.594   6.912   0.200
 8851SOL    HW138584   5.501   6.933   0.169
 8851SOL    HW238585   5.604   6.813   0.213
 8852SOL     OW38586   5.674   7.387   0.927
 8852SOL    HW138587   5.632   7.301   0.900
 8852SOL    HW238588   5.768   7.390   0.893
 8853SOL     OW38589   6.090   7.154   0.910
 8853SOL    HW138590   6.156   7.228   0.919
 8853SOL    HW238591   6.134   7.075   0.868
 8854SOL     OW38592   6.588   6.382   1.238
 8854SOL    HW138593   6.629   6.350   1.324
 8854SOL    HW238594   6.492   6.355   1.235
 8855SOL     OW38595   5.626   6.130   1.114
 8855SOL    HW138596   5.711   6.097   1.073
 8855SOL    HW238597   5.639   6.145   1.212
 8856SOL     OW38598   5.775   6.106   1.722
 8856SOL    HW138599   5.834   6.066   1.652
 8856SOL    HW238600   5.717   6.177   1.681
 8857SOL     OW38601   6.401   6.158   0.325
 8857SOL    HW138602   6.408   6.069   0.279
 8857SOL    HW238603   6.307   6.192   0.317
 8858SOL     OW38604   7.243   6.190   1.206
 8858SOL    HW138605   7.205   6.121   1.268
 8858SOL    HW238606   7.325   6.154   1.162
 8859SOL     OW38607   6.257   6.050   1.269
 8859SOL    HW138608   6.223   5.961   1.239
 8859SOL    HW238609   6.283   6.104   1.189
 8860SOL     OW38610   6.516   7.264   1.465
 8860SOL    HW138611   6.492   7.246   1.370
 8860SOL    HW238612   6.546   7.358   1.475
 8861SOL     OW38613   6.059   6.086   0.191
 8861SOL    HW138614   6.120   6.166   0.195
 8861SOL    HW238615   5.964   6.117   0.198
 8862SOL     OW38616   5.745   6.723   1.466
 8862SOL    HW138617   5.767   6.662   1.542
 8862SOL    HW238618   5.755   6.674   1.380
 8863SOL     OW38619   6.933   6.645   1.234
 8863SOL    HW138620   6.957   6.582   1.160
 8863SOL    HW238621   6.843   6.685   1.216
 8864SOL     OW38622   6.888   6.441   0.309
 8864SOL    HW138623   6.802   6.410   0.351
 8864SOL    HW238624   6.884   6.427   0.210
 8865SOL     OW38625   7.345   7.333   1.154
 8865SOL    HW138626   7.406   7.363   1.081
 8865SOL    HW238627   7.307   7.244   1.132
 8866SOL     OW38628   6.838   7.317   1.128
 8866SOL    HW138629   6.922   7.322   1.074
 8866SOL    HW238630   6.815   7.221   1.146
 8867SOL     OW38631   5.669   6.844   1.022
 8867SOL    HW138632   5.664   6.843   1.122
 8867SOL    HW238633   5.586   6.803   0.984
 8868SOL     OW38634   6.274   7.248   1.716
 8868SOL    HW138635   6.218   7.329   1.725
 8868SOL    HW238636   6.326   7.252   1.630
 8869SOL     OW38637   6.489   5.672   0.133
 8869SOL    HW138638   6.540   5.673   0.047
 8869SOL    HW238639   6.545   5.630   0.204
 8870SOL     OW38640   7.312   5.721   0.523
 8870SOL    HW138641   7.385   5.704   0.456
 8870SOL    HW238642   7.281   5.634   0.561
 8871SOL     OW38643   6.974   7.159   0.477
 8871SOL    HW138644   7.041   7.171   0.403
 8871SOL    HW238645   6.934   7.248   0.500
 8872SOL     OW38646   6.866   6.513   0.672
 8872SOL    HW138647   6.926   6.432   0.674
 8872SOL    HW238648   6.906   6.582   0.612
 8873SOL     OW38649   6.416   6.859   1.422
 8873SOL    HW138650   6.411   6.892   1.517
 8873SOL    HW238651   6.330   6.878   1.376
 8874SOL     OW38652   6.258   7.202   0.154
 8874SOL    HW138653   6.267   7.212   0.055
 8874SOL    HW238654   6.218   7.113   0.175
 8875SOL     OW38655   7.236   7.306   1.394
 8875SOL    HW138656   7.289   7.316   1.310
 8875SOL    HW238657   7.209   7.396   1.428
 8876SOL     OW38658   7.427   5.761   0.963
 8876SOL    HW138659   7.466   5.676   0.927
 8876SOL    HW238660   7.329   5.763   0.944
 8877SOL     OW38661   5.849   5.912   0.720
 8877SOL    HW138662   5.770   5.963   0.686
 8877SOL    HW238663   5.840   5.897   0.818
 8878SOL     OW38664   6.780   7.198   0.031
 8878SOL    HW138665   6.786   7.105   0.068
 8878SOL    HW238666   6.721   7.198  -0.049
 8879SOL     OW38667   6.408   6.588   1.372
 8879SOL    HW138668   6.448   6.587   1.280
 8879SOL    HW238669   6.418   6.680   1.412
 8880SOL     OW38670   6.502   6.496   0.291
 8880SOL    HW138671   6.565   6.534   0.223
 8880SOL    HW238672   6.542   6.413   0.330
 8881SOL     OW38673   7.090   7.193   0.044
 8881SOL    HW138674   6.998   7.230   0.051
 8881SOL    HW238675   7.128   7.213  -0.046
 8882SOL     OW38676   5.958   6.874   1.490
 8882SOL    HW138677   5.945   6.967   1.456
 8882SOL    HW238678   5.874   6.822   1.477
 8883SOL     OW38679   7.200   6.878   1.289
 8883SOL    HW138680   7.260   6.881   1.369
 8883SOL    HW238681   7.125   6.942   1.302
 8884SOL     OW38682   6.625   6.684   0.696
 8884SOL    HW138683   6.555   6.637   0.750
 8884SOL    HW238684   6.684   6.616   0.653
 8885SOL     OW38685   6.600   5.822   0.971
 8885SOL    HW138686   6.592   5.786   0.878
 8885SOL    HW238687   6.598   5.746   1.036
 8886SOL     OW38688   6.176   7.073   0.491
 8886SOL    HW138689   6.218   7.015   0.421
 8886SOL    HW238690   6.132   7.152   0.447
 8887SOL     OW38691   7.295   5.971   1.381
 8887SOL    HW138692   7.368   6.040   1.385
 8887SOL    HW238693   7.323   5.896   1.322
 8888SOL     OW38694   5.841   6.934   0.290
 8888SOL    HW138695   5.745   6.935   0.263
 8888SOL    HW238696   5.853   6.987   0.374
 8889SOL     OW38697   5.691   6.599   1.726
 8889SOL    HW138698   5.614   6.566   1.780
 8889SOL    HW238699   5.776   6.569   1.768
 8890SOL     OW38700   6.258   5.789   1.489
 8890SOL    HW138701   6.348   5.773   1.449
 8890SOL    HW238702   6.266   5.794   1.588
 8891SOL     OW38703   5.661   5.931   0.033
 8891SOL    HW138704   5.569   5.903   0.004
 8891SOL    HW238705   5.692   6.008  -0.023
 8892SOL     OW38706   7.026   6.442   1.398
 8892SOL    HW138707   6.969   6.494   1.335
 8892SOL    HW238708   7.122   6.454   1.374
 8893SOL     OW38709   5.658   5.752   0.318
 8893SOL    HW138710   5.641   5.835   0.264
 8893SOL    HW238711   5.748   5.715   0.296
 8894SOL     OW38712   6.769   6.921   0.119
 8894SOL    HW138713   6.670   6.910   0.121
 8894SOL    HW238714   6.803   6.936   0.212
 8895SOL     OW38715   6.199   6.428   1.431
 8895SOL    HW138716   6.255   6.509   1.414
 8895SOL    HW238717   6.258   6.348   1.434
 8896SOL     OW38718   7.079   7.353   0.959
 8896SOL    HW138719   7.112   7.417   0.890
 8896SOL    HW238720   7.145   7.347   1.034
 8897SOL     OW38721   7.260   6.469   1.254
 8897SOL    HW138722   7.233   6.380   1.217
 8897SOL    HW238723   7.261   6.537   1.181
 8898SOL     OW38724   6.811   5.911   0.449
 8898SOL    HW138725   6.876   5.837   0.438
 8898SOL    HW238726   6.831   5.961   0.533
 8899SOL     OW38727   6.180   6.331   0.652
 8899SOL    HW138728   6.230   6.416   0.633
 8899SOL    HW238729   6.092   6.333   0.604
 8900SOL     OW38730   7.363   5.928   1.642
 8900SOL    HW138731   7.346   5.959   1.548
 8900SOL    HW238732   7.279   5.891   1.680
 8901SOL     OW38733   7.316   6.520   1.517
 8901SOL    HW138734   7.354   6.611   1.532
 8901SOL    HW238735   7.308   6.503   1.418
 8902SOL     OW38736   6.445   6.960   0.016
 8902SOL    HW138737   6.399   6.975   0.104
 8902SOL    HW238738   6.489   7.045  -0.014
 8903SOL     OW38739   6.247   7.376   0.953
 8903SOL    HW138740   6.201   7.464   0.940
 8903SOL    HW238741   6.346   7.388   0.946
 8904SOL     OW38742   6.445   6.542   0.861
 8904SOL    HW138743   6.499   6.473   0.909
 8904SOL    HW238744   6.413   6.611   0.927
 8905SOL     OW38745   6.669   6.570   0.087
 8905SOL    HW138746   6.646   6.623   0.005
 8905SOL    HW238747   6.750   6.514   0.068
 8906SOL     OW38748   7.447   7.155   0.851
 8906SOL    HW138749   7.376   7.143   0.781
 8906SOL    HW238750   7.448   7.076   0.911
 8907SOL     OW38751   5.665   6.826   0.653
 8907SOL    HW138752   5.664   6.779   0.741
 8907SOL    HW238753   5.747   6.798   0.602
 8908SOL     OW38754   6.258   6.977   1.624
 8908SOL    HW138755   6.180   6.927   1.662
 8908SOL    HW238756   6.255   7.072   1.655
 8909SOL     OW38757   7.410   5.778   1.227
 8909SOL    HW138758   7.406   5.688   1.271
 8909SOL    HW238759   7.413   5.767   1.128
 8910SOL     OW38760   6.014   6.010   0.520
 8910SOL    HW138761   6.044   5.938   0.458
 8910SOL    HW238762   5.975   5.970   0.603
 8911SOL     OW38763   7.291   7.073   1.104
 8911SOL    HW138764   7.198   7.048   1.077
 8911SOL    HW238765   7.317   7.023   1.186
 8912SOL     OW38766   5.903   6.133   1.280
 8912SOL    HW138767   5.941   6.074   1.352
 8912SOL    HW238768   5.943   6.107   1.192
 8913SOL     OW38769   6.398   7.172   0.687
 8913SOL    HW138770   6.430   7.182   0.593
 8913SOL    HW238771   6.319   7.110   0.689
 8914SOL     OW38772   7.010   5.800   1.112
 8914SOL    HW138773   7.062   5.735   1.167
 8914SOL    HW238774   6.961   5.863   1.173
 8915SOL     OW38775   6.587   5.620   1.154
 8915SOL    HW138776   6.524   5.548   1.123
 8915SOL    HW238777   6.680   5.584   1.154
 8916SOL     OW38778   6.356   6.916   0.301
 8916SOL    HW138779   6.310   6.829   0.318
 8916SOL    HW238780   6.447   6.913   0.342
 8917SOL     OW38781   6.204   7.153   1.284
 8917SOL    HW138782   6.199   7.235   1.341
 8917SOL    HW238783   6.293   7.150   1.239
 8918SOL     OW38784   6.938   5.638   0.168
 8918SOL    HW138785   6.973   5.597   0.084
 8918SOL    HW238786   6.848   5.600   0.188
 8919SOL     OW38787   6.886   6.039   0.691
 8919SOL    HW138788   6.827   6.119   0.695
 8919SOL    HW238789   6.901   6.004   0.784
 8920SOL     OW38790   7.179   5.807   0.882
 8920SOL    HW138791   7.095   5.806   0.936
 8920SOL    HW238792   7.181   5.890   0.826
 8921SOL     OW38793   5.625   6.663   0.300
 8921SOL    HW138794   5.724   6.652   0.291
 8921SOL    HW238795   5.585   6.577   0.332
 8922SOL     OW38796   6.461   7.232   0.337
 8922SOL    HW138797   6.384   7.197   0.283
 8922SOL    HW238798   6.429   7.303   0.399
 8923SOL     OW38799   5.816   6.214   1.975
 8923SOL    HW138800   5.723   6.212   2.012
 8923SOL    HW238801   5.817   6.175   1.883
 8924SOL     OW38802   5.811   5.861   2.858
 8924SOL    HW138803   5.846   5.844   2.950
 8924SOL    HW238804   5.723   5.816   2.846
 8925SOL     OW38805   7.141   7.097   2.565
 8925SOL    HW138806   7.084   7.081   2.646
 8925SOL    HW238807   7.082   7.107   2.485
 8926SOL     OW38808   7.341   6.193   2.093
 8926SOL    HW138809   7.329   6.180   1.994
 8926SOL    HW238810   7.311   6.112   2.142
 8927SOL     OW38811   6.271   6.598   2.527
 8927SOL    HW138812   6.340   6.582   2.597
 8927SOL    HW238813   6.198   6.655   2.565
 8928SOL     OW38814   6.272   6.747   3.665
 8928SOL    HW138815   6.332   6.826   3.679
 8928SOL    HW238816   6.186   6.778   3.624
 8929SOL     OW38817   7.046   7.091   3.201
 8929SOL    HW138818   7.070   7.185   3.227
 8929SOL    HW238819   7.030   7.037   3.283
 8930SOL     OW38820   7.189   6.033   2.599
 8930SOL    HW138821   7.115   6.079   2.549
 8930SOL    HW238822   7.240   6.101   2.652
 8931SOL     OW38823   5.817   7.299   2.345
 8931SOL    HW138824   5.851   7.376   2.399
 8931SOL    HW238825   5.861   7.299   2.255
 8932SOL     OW38826   6.713   6.927   3.552
 8932SOL    HW138827   6.760   6.927   3.640
 8932SOL    HW238828   6.665   6.840   3.541
 8933SOL     OW38829   7.227   6.694   2.294
 8933SOL    HW138830   7.313   6.696   2.242
 8933SOL    HW238831   7.241   6.741   2.382
 8934SOL     OW38832   5.699   6.323   3.459
 8934SOL    HW138833   5.787   6.310   3.504
 8934SOL    HW238834   5.686   6.420   3.437
 8935SOL     OW38835   6.879   6.814   3.285
 8935SOL    HW138836   6.916   6.741   3.227
 8935SOL    HW238837   6.931   6.819   3.370
 8936SOL     OW38838   7.111   6.585   2.052
 8936SOL    HW138839   7.048   6.509   2.065
 8936SOL    HW238840   7.159   6.603   2.138
 8937SOL     OW38841   7.253   7.300   2.434
 8937SOL    HW138842   7.212   7.277   2.346
 8937SOL    HW238843   7.235   7.226   2.499
 8938SOL     OW38844   6.393   6.191   3.327
 8938SOL    HW138845   6.346   6.188   3.416
 8938SOL    HW238846   6.342   6.136   3.261
 8939SOL     OW38847   6.980   6.055   3.536
 8939SOL    HW138848   6.960   6.098   3.624
 8939SOL    HW238849   7.058   5.993   3.545
 8940SOL     OW38850   6.577   5.996   3.104
 8940SOL    HW138851   6.500   6.030   3.158
 8940SOL    HW238852   6.543   5.945   3.025
 8941SOL     OW38853   5.716   7.407   3.433
 8941SOL    HW138854   5.706   7.392   3.532
 8941SOL    HW238855   5.630   7.443   3.397
 8942SOL     OW38856   7.305   6.171   3.693
 8942SOL    HW138857   7.279   6.260   3.657
 8942SOL    HW238858   7.303   6.103   3.620
 8943SOL     OW38859   5.937   7.387   2.715
 8943SOL    HW138860   5.987   7.301   2.721
 8943SOL    HW238861   6.002   7.464   2.712
 8944SOL     OW38862   6.047   6.852   3.589
 8944SOL    HW138863   5.997   6.853   3.503
 8944SOL    HW238864   5.984   6.834   3.665
 8945SOL     OW38865   6.697   7.362   2.099
 8945SOL    HW138866   6.637   7.300   2.149
 8945SOL    HW238867   6.728   7.318   2.014
 8946SOL     OW38868   5.788   5.871   3.360
 8946SOL    HW138869   5.708   5.931   3.347
 8946SOL    HW238870   5.778   5.822   3.446
 8947SOL     OW38871   6.050   7.329   2.185
 8947SOL    HW138872   6.083   7.368   2.271
 8947SOL    HW238873   6.126   7.322   2.120
 8948SOL     OW38874   6.986   5.693   2.288
 8948SOL    HW138875   6.962   5.656   2.198
 8948SOL    HW238876   7.085   5.709   2.292
 8949SOL     OW38877   5.835   7.371   3.103
 8949SOL    HW138878   5.892   7.306   3.153
 8949SOL    HW238879   5.819   7.338   3.010
 8950SOL     OW38880   6.200   5.708   1.979
 8950SOL    HW138881   6.298   5.686   1.986
 8950SOL    HW238882   6.169   5.691   1.886
 8951SOL     OW38883   6.367   5.850   3.611
 8951SOL    HW138884   6.434   5.789   3.654
 8951SOL    HW238885   6.294   5.869   3.676
 8952SOL     OW38886   6.474   7.100   3.057
 8952SOL    HW138887   6.451   7.075   2.963
 8952SOL    HW238888   6.535   7.031   3.096
 8953SOL     OW38889   6.125   5.650   2.374
 8953SOL    HW138890   6.044   5.651   2.432
 8953SOL    HW238891   6.128   5.733   2.319
 8954SOL     OW38892   5.883   5.621   2.033
 8954SOL    HW138893   5.932   5.705   2.012
 8954SOL    HW238894   5.945   5.556   2.078
 8955SOL     OW38895   6.662   6.269   3.326
 8955SOL    HW138896   6.582   6.208   3.329
 8955SOL    HW238897   6.743   6.216   3.302
 8956SOL     OW38898   6.813   7.156   2.655
 8956SOL    HW138899   6.834   7.230   2.590
 8956SOL    HW238900   6.881   7.156   2.728
 8957SOL     OW38901   6.857   7.383   2.453
 8957SOL    HW138902   6.901   7.447   2.389
 8957SOL    HW238903   6.807   7.435   2.523
 8958SOL     OW38904   6.147   5.808   3.009
 8958SOL    HW138905   6.185   5.724   3.046
 8958SOL    HW238906   6.059   5.827   3.053
 8959SOL     OW38907   6.452   6.040   2.504
 8959SOL    HW138908   6.420   6.112   2.442
 8959SOL    HW238909   6.476   5.959   2.451
 8960SOL     OW38910   7.250   6.866   2.519
 8960SOL    HW138911   7.349   6.874   2.533
 8960SOL    HW238912   7.205   6.950   2.550
 8961SOL     OW38913   6.976   6.161   1.940
 8961SOL    HW138914   6.922   6.140   2.021
 8961SOL    HW238915   7.067   6.120   1.949
 8962SOL     OW38916   6.113   5.842   2.190
 8962SOL    HW138917   6.140   5.783   2.115
 8962SOL    HW238918   6.113   5.937   2.159
 8963SOL     OW38919   6.650   6.933   3.202
 8963SOL    HW138920   6.570   6.910   3.257
 8963SOL    HW238921   6.733   6.907   3.251
 8964SOL     OW38922   7.178   7.215   3.487
 8964SOL    HW138923   7.205   7.249   3.397
 8964SOL    HW238924   7.257   7.177   3.533
 8965SOL     OW38925   6.697   6.781   2.962
 8965SOL    HW138926   6.657   6.825   3.043
 8965SOL    HW238927   6.656   6.818   2.879
 8966SOL     OW38928   5.953   6.686   2.363
 8966SOL    HW138929   5.946   6.769   2.307
 8966SOL    HW238930   5.957   6.606   2.303
 8967SOL     OW38931   6.858   7.031   3.004
 8967SOL    HW138932   6.905   7.044   3.091
 8967SOL    HW238933   6.792   6.957   3.013
 8968SOL     OW38934   7.168   6.225   2.334
 8968SOL    HW138935   7.137   6.286   2.407
 8968SOL    HW238936   7.218   6.277   2.265
 8969SOL     OW38937   7.173   6.365   3.532
 8969SOL    HW138938   7.081   6.403   3.527
 8969SOL    HW238939   7.233   6.412   3.467
 8970SOL     OW38940   6.318   6.220   2.926
 8970SOL    HW138941   6.377   6.194   2.850
 8970SOL    HW238942   6.290   6.316   2.915
 8971SOL     OW38943   7.314   6.521   3.716
 8971SOL    HW138944   7.268   6.514   3.627
 8971SOL    HW238945   7.252   6.565   3.782
 8972SOL     OW38946   7.208   5.953   2.236
 8972SOL    HW138947   7.210   5.877   2.300
 8972SOL    HW238948   7.160   6.030   2.276
 8973SOL     OW38949   6.566   7.159   3.562
 8973SOL    HW138950   6.546   7.203   3.474
 8973SOL    HW238951   6.605   7.068   3.546
 8974SOL     OW38952   7.445   7.104   3.467
 8974SOL    HW138953   7.459   7.131   3.372
 8974SOL    HW238954   7.528   7.126   3.520
 8975SOL     OW38955   7.126   5.860   1.987
 8975SOL    HW138956   7.065   5.785   2.010
 8975SOL    HW238957   7.148   5.912   2.070
 8976SOL     OW38958   6.889   6.424   1.904
 8976SOL    HW138959   6.923   6.331   1.919
 8976SOL    HW238960   6.907   6.451   1.809
 8977SOL     OW38961   5.905   6.396   2.811
 8977SOL    HW138962   5.998   6.432   2.816
 8977SOL    HW238963   5.899   6.311   2.863
 8978SOL     OW38964   6.955   6.536   3.522
 8978SOL    HW138965   6.994   6.625   3.542
 8978SOL    HW238966   6.965   6.516   3.425
 8979SOL     OW38967   7.243   6.190   3.068
 8979SOL    HW138968   7.205   6.121   3.130
 8979SOL    HW238969   7.325   6.154   3.024
 8980SOL     OW38970   6.257   6.050   3.131
 8980SOL    HW138971   6.223   5.961   3.101
 8980SOL    HW238972   6.283   6.104   3.051
 8981SOL     OW38973   6.516   7.264   3.327
 8981SOL    HW138974   6.492   7.246   3.232
 8981SOL    HW238975   6.546   7.358   3.337
 8982SOL     OW38976   6.059   6.086   2.053
 8982SOL    HW138977   6.120   6.166   2.057
 8982SOL    HW238978   5.964   6.117   2.060
 8983SOL     OW38979   5.745   6.723   3.328
 8983SOL    HW138980   5.767   6.662   3.404
 8983SOL    HW238981   5.755   6.674   3.242
 8984SOL     OW38982   6.933   6.645   3.096
 8984SOL    HW138983   6.957   6.582   3.022
 8984SOL    HW238984   6.843   6.685   3.078
 8985SOL     OW38985   5.716   7.380   3.713
 8985SOL    HW138986   5.675   7.306   3.766
 8985SOL    HW238987   5.780   7.431   3.771
 8986SOL     OW38988   7.236   7.306   3.256
 8986SOL    HW138989   7.289   7.316   3.172
 8986SOL    HW238990   7.209   7.396   3.290
 8987SOL     OW38991   5.849   5.912   2.582
 8987SOL    HW138992   5.770   5.963   2.548
 8987SOL    HW238993   5.840   5.897   2.680
 8988SOL     OW38994   6.625   6.684   2.558
 8988SOL    HW138995   6.555   6.637   2.612
 8988SOL    HW238996   6.684   6.616   2.515
 8989SOL     OW38997   5.691   6.599   3.588
 8989SOL    HW138998   5.614   6.566   3.642
 8989SOL    HW238999   5.776   6.569   3.630
 8990SOL     OW39000   7.026   6.442   3.260
 8990SOL    HW139001   6.969   6.494   3.197
 8990SOL    HW239002   7.122   6.454   3.236
 8991SOL     OW39003   6.199   6.428   3.293
 8991SOL    HW139004   6.255   6.509   3.276
 8991SOL    HW239005   6.258   6.348   3.296
 8992SOL     OW39006   7.079   7.353   2.821
 8992SOL    HW139007   7.112   7.417   2.752
 8992SOL    HW239008   7.145   7.347   2.896
 8993SOL     OW39009   5.976   7.327   3.422
 8993SOL    HW139010   5.885   7.368   3.420
 8993SOL    HW239011   5.969   7.233   3.454
 8994SOL     OW39012   6.669   6.570   1.949
 8994SOL    HW139013   6.646   6.623   1.867
 8994SOL    HW239014   6.750   6.514   1.930
 8995SOL     OW39015   5.665   6.826   2.515
 8995SOL    HW139016   5.664   6.779   2.603
 8995SOL    HW239017   5.747   6.798   2.464
 8996SOL     OW39018   6.014   6.010   2.382
 8996SOL    HW139019   6.044   5.938   2.320
 8996SOL    HW239020   5.975   5.970   2.465
 8997SOL     OW39021   7.010   5.800   2.974
 8997SOL    HW139022   7.062   5.735   3.029
 8997SOL    HW239023   6.961   5.863   3.035
 8998SOL     OW39024   6.587   5.620   3.016
 8998SOL    HW139025   6.524   5.548   2.985
 8998SOL    HW239026   6.680   5.584   3.016
 8999SOL     OW39027   6.938   5.638   2.030
 8999SOL    HW139028   6.973   5.597   1.946
 8999SOL    HW239029   6.848   5.600   2.050
 9000SOL     OW39030   7.179   5.807   2.744
 9000SOL    HW139031   7.095   5.806   2.798
 9000SOL    HW239032   7.181   5.890   2.688
 9001SOL     OW39033   5.605   5.954   4.371
 9001SOL    HW139034   5.523   5.997   4.410
 9001SOL    HW239035   5.577   5.881   4.308
 9002SOL     OW39036   6.272   6.747   5.527
 9002SOL    HW139037   6.332   6.826   5.541
 9002SOL    HW239038   6.186   6.778   5.486
 9003SOL     OW39039   6.713   6.927   5.414
 9003SOL    HW139040   6.760   6.927   5.502
 9003SOL    HW239041   6.665   6.840   5.403
 9004SOL     OW39042   5.826   6.677   4.610
 9004SOL    HW139043   5.840   6.593   4.662
 9004SOL    HW239044   5.771   6.741   4.665
 9005SOL     OW39045   6.206   7.372   5.163
 9005SOL    HW139046   6.114   7.355   5.198
 9005SOL    HW239047   6.234   7.464   5.189
 9006SOL     OW39048   7.428   7.353   4.083
 9006SOL    HW139049   7.482   7.324   4.163
 9006SOL    HW239050   7.458   7.443   4.054
 9007SOL     OW39051   5.613   7.182   3.841
 9007SOL    HW139052   5.594   7.086   3.862
 9007SOL    HW239053   5.580   7.240   3.916
 9008SOL     OW39054   7.275   6.508   4.336
 9008SOL    HW139055   7.370   6.479   4.344
 9008SOL    HW239056   7.267   6.573   4.261
 9009SOL     OW39057   6.879   6.814   5.147
 9009SOL    HW139058   6.916   6.741   5.089
 9009SOL    HW239059   6.931   6.819   5.232
 9010SOL     OW39060   6.395   5.590   4.226
 9010SOL    HW139061   6.435   5.681   4.217
 9010SOL    HW239062   6.295   5.598   4.232
 9011SOL     OW39063   7.111   6.585   3.914
 9011SOL    HW139064   7.048   6.509   3.927
 9011SOL    HW239065   7.159   6.603   4.000
 9012SOL     OW39066   6.184   6.315   3.994
 9012SOL    HW139067   6.208   6.384   3.926
 9012SOL    HW239068   6.106   6.348   4.048
 9013SOL     OW39069   6.980   6.055   5.398
 9013SOL    HW139070   6.960   6.098   5.486
 9013SOL    HW239071   7.058   5.993   5.407
 9014SOL     OW39072   5.662   6.397   4.513
 9014SOL    HW139073   5.761   6.385   4.522
 9014SOL    HW239074   5.638   6.492   4.534
 9015SOL     OW39075   7.305   6.171   5.555
 9015SOL    HW139076   7.279   6.260   5.519
 9015SOL    HW239077   7.303   6.103   5.482
 9016SOL     OW39078   7.044   6.321   4.452
 9016SOL    HW139079   7.039   6.256   4.527
 9016SOL    HW239080   7.124   6.380   4.465
 9017SOL     OW39081   5.788   5.871   5.222
 9017SOL    HW139082   5.708   5.931   5.209
 9017SOL    HW239083   5.778   5.822   5.308
 9018SOL     OW39084   7.218   6.963   3.805
 9018SOL    HW139085   7.186   7.057   3.795
 9018SOL    HW239086   7.142   6.900   3.793
 9019SOL     OW39087   6.050   7.329   4.047
 9019SOL    HW139088   6.083   7.368   4.133
 9019SOL    HW239089   6.126   7.322   3.982
 9020SOL     OW39090   5.968   6.286   4.204
 9020SOL    HW139091   6.013   6.196   4.201
 9020SOL    HW239092   5.874   6.275   4.237
 9021SOL     OW39093   7.133   5.808   5.453
 9021SOL    HW139094   7.128   5.845   5.545
 9021SOL    HW239095   7.061   5.739   5.441
 9022SOL     OW39096   6.937   6.176   5.157
 9022SOL    HW139097   6.965   6.133   5.242
 9022SOL    HW239098   6.962   6.272   5.158
 9023SOL     OW39099   6.389   6.988   4.648
 9023SOL    HW139100   6.479   7.002   4.606
 9023SOL    HW239101   6.318   6.990   4.577
 9024SOL     OW39102   6.662   6.269   5.188
 9024SOL    HW139103   6.582   6.208   5.191
 9024SOL    HW239104   6.743   6.216   5.164
 9025SOL     OW39105   6.813   7.156   4.517
 9025SOL    HW139106   6.834   7.230   4.452
 9025SOL    HW239107   6.881   7.156   4.590
 9026SOL     OW39108   6.045   6.738   4.465
 9026SOL    HW139109   5.974   6.711   4.530
 9026SOL    HW239110   6.019   6.710   4.372
 9027SOL     OW39111   6.147   5.808   4.871
 9027SOL    HW139112   6.185   5.724   4.908
 9027SOL    HW239113   6.059   5.827   4.915
 9028SOL     OW39114   6.603   5.625   4.477
 9028SOL    HW139115   6.531   5.630   4.408
 9028SOL    HW239116   6.579   5.556   4.546
 9029SOL     OW39117   6.976   6.161   3.802
 9029SOL    HW139118   6.922   6.140   3.883
 9029SOL    HW239119   7.067   6.120   3.811
 9030SOL     OW39120   6.113   5.842   4.052
 9030SOL    HW139121   6.140   5.783   3.977
 9030SOL    HW239122   6.113   5.937   4.021
 9031SOL     OW39123   6.501   5.675   5.126
 9031SOL    HW139124   6.526   5.655   5.031
 9031SOL    HW239125   6.573   5.731   5.168
 9032SOL     OW39126   5.996   6.399   4.975
 9032SOL    HW139127   6.082   6.411   5.025
 9032SOL    HW239128   5.954   6.312   5.002
 9033SOL     OW39129   5.953   6.686   4.225
 9033SOL    HW139130   5.946   6.769   4.169
 9033SOL    HW239131   5.957   6.606   4.165
 9034SOL     OW39132   6.152   6.123   4.589
 9034SOL    HW139133   6.164   6.189   4.515
 9034SOL    HW239134   6.198   6.157   4.672
 9035SOL     OW39135   6.838   6.934   4.112
 9035SOL    HW139136   6.888   7.011   4.152
 9035SOL    HW239137   6.743   6.936   4.144
 9036SOL     OW39138   7.173   6.365   5.394
 9036SOL    HW139139   7.081   6.403   5.389
 9036SOL    HW239140   7.233   6.412   5.329
 9037SOL     OW39141   6.090   5.636   5.464
 9037SOL    HW139142   6.048   5.579   5.394
 9037SOL    HW239143   6.024   5.705   5.496
 9038SOL     OW39144   6.795   6.111   3.999
 9038SOL    HW139145   6.808   6.027   4.053
 9038SOL    HW239146   6.766   6.185   4.059
 9039SOL     OW39147   6.318   6.220   4.788
 9039SOL    HW139148   6.377   6.194   4.712
 9039SOL    HW239149   6.290   6.316   4.777
 9040SOL     OW39150   7.314   6.521   5.578
 9040SOL    HW139151   7.268   6.514   5.489
 9040SOL    HW239152   7.252   6.565   5.644
 9041SOL     OW39153   5.893   5.649   4.342
 9041SOL    HW139154   5.882   5.743   4.375
 9041SOL    HW239155   5.888   5.586   4.419
 9042SOL     OW39156   6.566   7.159   5.424
 9042SOL    HW139157   6.546   7.203   5.336
 9042SOL    HW239158   6.605   7.068   5.408
 9043SOL     OW39159   5.936   6.484   5.528
 9043SOL    HW139160   6.012   6.528   5.576
 9043SOL    HW239161   5.971   6.437   5.446
 9044SOL     OW39162   5.775   6.106   5.446
 9044SOL    HW139163   5.834   6.066   5.376
 9044SOL    HW239164   5.717   6.177   5.405
 9045SOL     OW39165   6.059   6.086   3.915
 9045SOL    HW139166   6.120   6.166   3.919
 9045SOL    HW239167   5.964   6.117   3.922
 9046SOL     OW39168   6.933   6.645   4.958
 9046SOL    HW139169   6.957   6.582   4.884
 9046SOL    HW239170   6.843   6.685   4.940
 9047SOL     OW39171   7.345   7.333   4.878
 9047SOL    HW139172   7.406   7.363   4.805
 9047SOL    HW239173   7.307   7.244   4.856
 9048SOL     OW39174   6.838   7.317   4.852
 9048SOL    HW139175   6.922   7.322   4.798
 9048SOL    HW239176   6.815   7.221   4.870
 9049SOL     OW39177   7.312   5.721   4.247
 9049SOL    HW139178   7.385   5.704   4.180
 9049SOL    HW239179   7.281   5.634   4.285
 9050SOL     OW39180   6.974   7.159   4.201
 9050SOL    HW139181   7.041   7.171   4.127
 9050SOL    HW239182   6.934   7.248   4.224
 9051SOL     OW39183   5.716   7.380   5.575
 9051SOL    HW139184   5.675   7.306   5.628
 9051SOL    HW239185   5.780   7.431   5.633
 9052SOL     OW39186   6.502   6.496   4.015
 9052SOL    HW139187   6.565   6.534   3.947
 9052SOL    HW239188   6.542   6.413   4.054
 9053SOL     OW39189   7.090   7.193   3.768
 9053SOL    HW139190   6.998   7.230   3.775
 9053SOL    HW239191   7.128   7.213   3.678
 9054SOL     OW39192   6.625   6.684   4.420
 9054SOL    HW139193   6.555   6.637   4.474
 9054SOL    HW239194   6.684   6.616   4.377
 9055SOL     OW39195   6.600   5.822   4.695
 9055SOL    HW139196   6.592   5.786   4.602
 9055SOL    HW239197   6.598   5.746   4.760
 9056SOL     OW39198   7.295   5.971   5.105
 9056SOL    HW139199   7.368   6.040   5.109
 9056SOL    HW239200   7.323   5.896   5.046
 9057SOL     OW39201   7.026   6.442   5.122
 9057SOL    HW139202   6.969   6.494   5.059
 9057SOL    HW239203   7.122   6.454   5.098
 9058SOL     OW39204   6.199   6.428   5.155
 9058SOL    HW139205   6.255   6.509   5.138
 9058SOL    HW239206   6.258   6.348   5.158
 9059SOL     OW39207   7.363   5.928   5.366
 9059SOL    HW139208   7.346   5.959   5.272
 9059SOL    HW239209   7.279   5.891   5.404
 9060SOL     OW39210   7.316   6.520   5.241
 9060SOL    HW139211   7.354   6.611   5.256
 9060SOL    HW239212   7.308   6.503   5.142
 9061SOL     OW39213   7.410   5.778   4.951
 9061SOL    HW139214   7.406   5.688   4.995
 9061SOL    HW239215   7.413   5.767   4.852
 9062SOL     OW39216   6.014   6.010   4.244
 9062SOL    HW139217   6.044   5.938   4.182
 9062SOL    HW239218   5.975   5.970   4.327
 9063SOL     OW39219   5.903   6.133   5.004
 9063SOL    HW139220   5.941   6.074   5.076
 9063SOL    HW239221   5.943   6.107   4.916
 9064SOL     OW39222   6.587   5.620   4.878
 9064SOL    HW139223   6.524   5.548   4.847
 9064SOL    HW239224   6.680   5.584   4.878
 9065SOL     OW39225   6.204   7.153   5.008
 9065SOL    HW139226   6.199   7.235   5.065
 9065SOL    HW239227   6.293   7.150   4.963
 9066SOL     OW39228   6.886   6.039   4.415
 9066SOL    HW139229   6.827   6.119   4.419
 9066SOL    HW239230   6.901   6.004   4.508
 9067SOL     OW39231   5.816   6.214   5.699
 9067SOL    HW139232   5.723   6.212   5.736
 9067SOL    HW239233   5.817   6.175   5.607
 9068SOL     OW39234   5.811   5.861   6.582
 9068SOL    HW139235   5.846   5.844   6.674
 9068SOL    HW239236   5.723   5.816   6.570
 9069SOL     OW39237   5.605   5.954   6.233
 9069SOL    HW139238   5.523   5.997   6.272
 9069SOL    HW239239   5.577   5.881   6.170
 9070SOL     OW39240   6.155   6.861   6.751
 9070SOL    HW139241   6.062   6.854   6.714
 9070SOL    HW239242   6.166   6.950   6.795
 9071SOL     OW39243   7.141   7.097   6.289
 9071SOL    HW139244   7.084   7.081   6.370
 9071SOL    HW239245   7.082   7.107   6.209
 9072SOL     OW39246   6.721   6.289   6.303
 9072SOL    HW139247   6.778   6.367   6.278
 9072SOL    HW239248   6.661   6.315   6.379
 9073SOL     OW39249   7.341   6.193   5.817
 9073SOL    HW139250   7.329   6.180   5.718
 9073SOL    HW239251   7.311   6.112   5.866
 9074SOL     OW39252   6.354   6.730   6.609
 9074SOL    HW139253   6.276   6.747   6.669
 9074SOL    HW239254   6.388   6.817   6.573
 9075SOL     OW39255   6.436   6.384   7.409
 9075SOL    HW139256   6.432   6.460   7.474
 9075SOL    HW239257   6.458   6.420   7.318
 9076SOL     OW39258   6.271   6.598   6.251
 9076SOL    HW139259   6.340   6.582   6.321
 9076SOL    HW239260   6.198   6.655   6.289
 9077SOL     OW39261   6.272   6.747   7.389
 9077SOL    HW139262   6.332   6.826   7.403
 9077SOL    HW239263   6.186   6.778   7.348
 9078SOL     OW39264   5.921   7.021   6.647
 9078SOL    HW139265   5.843   6.990   6.594
 9078SOL    HW239266   5.979   7.079   6.590
 9079SOL     OW39267   7.046   7.091   6.925
 9079SOL    HW139268   7.070   7.185   6.951
 9079SOL    HW239269   7.030   7.037   7.007
 9080SOL     OW39270   6.024   5.978   7.085
 9080SOL    HW139271   6.106   5.922   7.094
 9080SOL    HW239272   5.943   5.920   7.089
 9081SOL     OW39273   7.189   6.033   6.323
 9081SOL    HW139274   7.115   6.079   6.273
 9081SOL    HW239275   7.240   6.101   6.376
 9082SOL     OW39276   5.817   7.299   6.069
 9082SOL    HW139277   5.851   7.376   6.123
 9082SOL    HW239278   5.861   7.299   5.979
 9083SOL     OW39279   6.713   6.927   7.276
 9083SOL    HW139280   6.760   6.927   7.364
 9083SOL    HW239281   6.665   6.840   7.265
 9084SOL     OW39282   5.816   7.020   6.124
 9084SOL    HW139283   5.790   7.116   6.124
 9084SOL    HW239284   5.745   6.966   6.169
 9085SOL     OW39285   5.826   6.677   6.472
 9085SOL    HW139286   5.840   6.593   6.524
 9085SOL    HW239287   5.771   6.741   6.527
 9086SOL     OW39288   6.206   7.372   7.025
 9086SOL    HW139289   6.114   7.355   7.060
 9086SOL    HW239290   6.234   7.464   7.051
 9087SOL     OW39291   6.192   6.550   5.709
 9087SOL    HW139292   6.199   6.634   5.655
 9087SOL    HW239293   6.238   6.563   5.797
 9088SOL     OW39294   7.180   5.700   7.066
 9088SOL    HW139295   7.162   5.767   6.994
 9088SOL    HW239296   7.177   5.746   7.155
 9089SOL     OW39297   5.708   6.229   6.149
 9089SOL    HW139298   5.663   6.141   6.166
 9089SOL    HW239299   5.707   6.283   6.233
 9090SOL     OW39300   7.428   7.353   5.945
 9090SOL    HW139301   7.482   7.324   6.025
 9090SOL    HW239302   7.458   7.443   5.916
 9091SOL     OW39303   5.613   7.182   5.703
 9091SOL    HW139304   5.594   7.086   5.724
 9091SOL    HW239305   5.580   7.240   5.778
 9092SOL     OW39306   7.275   6.508   6.198
 9092SOL    HW139307   7.370   6.479   6.206
 9092SOL    HW239308   7.267   6.573   6.123
 9093SOL     OW39309   7.227   6.694   6.018
 9093SOL    HW139310   7.313   6.696   5.966
 9093SOL    HW239311   7.241   6.741   6.106
 9094SOL     OW39312   5.699   6.323   7.183
 9094SOL    HW139313   5.787   6.310   7.228
 9094SOL    HW239314   5.686   6.420   7.161
 9095SOL     OW39315   6.199   6.951   6.312
 9095SOL    HW139316   6.150   6.864   6.321
 9095SOL    HW239317   6.176   6.994   6.225
 9096SOL     OW39318   6.879   6.814   7.009
 9096SOL    HW139319   6.916   6.741   6.951
 9096SOL    HW239320   6.931   6.819   7.094
 9097SOL     OW39321   6.395   5.590   6.088
 9097SOL    HW139322   6.435   5.681   6.079
 9097SOL    HW239323   6.295   5.598   6.094
 9098SOL     OW39324   5.783   6.562   6.850
 9098SOL    HW139325   5.872   6.517   6.836
 9098SOL    HW239326   5.710   6.497   6.831
 9099SOL     OW39327   7.111   6.585   5.776
 9099SOL    HW139328   7.048   6.509   5.789
 9099SOL    HW239329   7.159   6.603   5.862
 9100SOL     OW39330   6.773   7.378   7.202
 9100SOL    HW139331   6.797   7.438   7.126
 9100SOL    HW239332   6.780   7.283   7.172
 9101SOL     OW39333   5.903   5.837   7.387
 9101SOL    HW139334   5.974   5.908   7.393
 9101SOL    HW239335   5.815   5.876   7.415
 9102SOL     OW39336   7.052   7.003   6.539
 9102SOL    HW139337   6.993   7.009   6.619
 9102SOL    HW239338   7.037   6.915   6.493
 9103SOL     OW39339   7.253   7.300   6.158
 9103SOL    HW139340   7.212   7.277   6.070
 9103SOL    HW239341   7.235   7.226   6.223
 9104SOL     OW39342   6.184   6.315   5.856
 9104SOL    HW139343   6.208   6.384   5.788
 9104SOL    HW239344   6.106   6.348   5.910
 9105SOL     OW39345   6.867   5.931   6.530
 9105SOL    HW139346   6.781   5.881   6.517
 9105SOL    HW239347   6.929   5.877   6.586
 9106SOL     OW39348   6.393   6.191   7.051
 9106SOL    HW139349   6.346   6.188   7.140
 9106SOL    HW239350   6.342   6.136   6.985
 9107SOL     OW39351   6.559   6.476   7.158
 9107SOL    HW139352   6.605   6.392   7.129
 9107SOL    HW239353   6.503   6.510   7.083
 9108SOL     OW39354   6.577   5.996   6.828
 9108SOL    HW139355   6.500   6.030   6.882
 9108SOL    HW239356   6.543   5.945   6.749
 9109SOL     OW39357   6.627   6.287   6.015
 9109SOL    HW139358   6.653   6.283   6.111
 9109SOL    HW239359   6.542   6.236   6.001
 9110SOL     OW39360   5.662   6.397   6.375
 9110SOL    HW139361   5.761   6.385   6.384
 9110SOL    HW239362   5.638   6.492   6.396
 9111SOL     OW39363   5.716   7.407   7.157
 9111SOL    HW139364   5.706   7.392   7.256
 9111SOL    HW239365   5.630   7.443   7.121
 9112SOL     OW39366   6.451   5.934   5.781
 9112SOL    HW139367   6.510   5.997   5.732
 9112SOL    HW239368   6.470   5.840   5.752
 9113SOL     OW39369   6.948   6.730   6.131
 9113SOL    HW139370   7.031   6.701   6.083
 9113SOL    HW239371   6.899   6.797   6.075
 9114SOL     OW39372   6.136   5.782   6.471
 9114SOL    HW139373   6.131   5.777   6.571
 9114SOL    HW239374   6.138   5.878   6.442
 9115SOL     OW39375   6.594   7.042   6.063
 9115SOL    HW139376   6.548   7.114   6.011
 9115SOL    HW239377   6.590   7.062   6.161
 9116SOL     OW39378   5.937   7.387   6.439
 9116SOL    HW139379   5.987   7.301   6.445
 9116SOL    HW239380   6.002   7.464   6.436
 9117SOL     OW39381   7.381   6.652   6.459
 9117SOL    HW139382   7.319   6.637   6.383
 9117SOL    HW239383   7.329   6.663   6.544
 9118SOL     OW39384   6.813   7.136   7.092
 9118SOL    HW139385   6.819   7.059   7.156
 9118SOL    HW239386   6.761   7.110   7.012
 9119SOL     OW39387   5.907   6.529   5.828
 9119SOL    HW139388   5.989   6.568   5.786
 9119SOL    HW239389   5.880   6.447   5.779
 9120SOL     OW39390   7.044   6.321   6.314
 9120SOL    HW139391   7.039   6.256   6.389
 9120SOL    HW239392   7.124   6.380   6.327
 9121SOL     OW39393   6.047   6.852   7.313
 9121SOL    HW139394   5.997   6.853   7.227
 9121SOL    HW239395   5.984   6.834   7.389
 9122SOL     OW39396   6.697   7.362   5.823
 9122SOL    HW139397   6.637   7.300   5.873
 9122SOL    HW239398   6.728   7.318   5.738
 9123SOL     OW39399   5.788   5.871   7.084
 9123SOL    HW139400   5.708   5.931   7.071
 9123SOL    HW239401   5.778   5.822   7.170
 9124SOL     OW39402   6.050   7.329   5.909
 9124SOL    HW139403   6.083   7.368   5.995
 9124SOL    HW239404   6.126   7.322   5.844
 9125SOL     OW39405   6.986   5.693   6.012
 9125SOL    HW139406   6.962   5.656   5.922
 9125SOL    HW239407   7.085   5.709   6.016
 9126SOL     OW39408   5.835   7.371   6.827
 9126SOL    HW139409   5.892   7.306   6.877
 9126SOL    HW239410   5.819   7.338   6.734
 9127SOL     OW39411   6.526   7.284   6.490
 9127SOL    HW139412   6.606   7.227   6.511
 9127SOL    HW239413   6.477   7.244   6.413
 9128SOL     OW39414   5.968   6.286   6.066
 9128SOL    HW139415   6.013   6.196   6.063
 9128SOL    HW239416   5.874   6.275   6.099
 9129SOL     OW39417   6.200   5.708   5.703
 9129SOL    HW139418   6.298   5.686   5.710
 9129SOL    HW239419   6.169   5.691   5.610
 9130SOL     OW39420   6.367   5.850   7.335
 9130SOL    HW139421   6.434   5.789   7.378
 9130SOL    HW239422   6.294   5.869   7.400
 9131SOL     OW39423   6.474   7.100   6.781
 9131SOL    HW139424   6.451   7.075   6.687
 9131SOL    HW239425   6.535   7.031   6.820
 9132SOL     OW39426   6.937   6.176   7.019
 9132SOL    HW139427   6.965   6.133   7.104
 9132SOL    HW239428   6.962   6.272   7.020
 9133SOL     OW39429   6.389   6.988   6.510
 9133SOL    HW139430   6.479   7.002   6.468
 9133SOL    HW239431   6.318   6.990   6.439
 9134SOL     OW39432   6.508   6.089   6.485
 9134SOL    HW139433   6.483   6.080   6.389
 9134SOL    HW239434   6.556   6.007   6.516
 9135SOL     OW39435   6.125   5.650   6.098
 9135SOL    HW139436   6.044   5.651   6.156
 9135SOL    HW239437   6.128   5.733   6.043
 9136SOL     OW39438   7.020   6.774   5.627
 9136SOL    HW139439   7.052   6.698   5.684
 9136SOL    HW239440   6.928   6.801   5.657
 9137SOL     OW39441   6.521   5.822   6.066
 9137SOL    HW139442   6.473   5.863   5.988
 9137SOL    HW239443   6.620   5.820   6.047
 9138SOL     OW39444   6.662   6.269   7.050
 9138SOL    HW139445   6.582   6.208   7.053
 9138SOL    HW239446   6.743   6.216   7.026
 9139SOL     OW39447   6.813   7.156   6.379
 9139SOL    HW139448   6.834   7.230   6.314
 9139SOL    HW239449   6.881   7.156   6.452
 9140SOL     OW39450   6.045   6.738   6.327
 9140SOL    HW139451   5.974   6.711   6.392
 9140SOL    HW239452   6.019   6.710   6.234
 9141SOL     OW39453   6.857   7.383   6.177
 9141SOL    HW139454   6.901   7.447   6.113
 9141SOL    HW239455   6.807   7.435   6.247
 9142SOL     OW39456   6.618   6.135   5.602
 9142SOL    HW139457   6.577   6.217   5.563
 9142SOL    HW239458   6.682   6.161   5.675
 9143SOL     OW39459   5.664   6.142   6.972
 9143SOL    HW139460   5.756   6.141   6.931
 9143SOL    HW239461   5.658   6.216   7.039
 9144SOL     OW39462   6.147   5.808   6.733
 9144SOL    HW139463   6.185   5.724   6.770
 9144SOL    HW239464   6.059   5.827   6.777
 9145SOL     OW39465   6.452   6.040   6.228
 9145SOL    HW139466   6.420   6.112   6.166
 9145SOL    HW239467   6.476   5.959   6.175
 9146SOL     OW39468   6.603   5.625   6.339
 9146SOL    HW139469   6.531   5.630   6.270
 9146SOL    HW239470   6.579   5.556   6.408
 9147SOL     OW39471   7.015   6.759   6.453
 9147SOL    HW139472   6.960   6.675   6.446
 9147SOL    HW239473   7.041   6.788   6.361
 9148SOL     OW39474   7.052   6.176   6.578
 9148SOL    HW139475   7.022   6.081   6.585
 9148SOL    HW239476   7.125   6.192   6.644
 9149SOL     OW39477   7.443   6.419   5.963
 9149SOL    HW139478   7.485   6.355   6.027
 9149SOL    HW239479   7.405   6.368   5.885
 9150SOL     OW39480   6.074   6.971   5.760
 9150SOL    HW139481   5.987   6.956   5.807
 9150SOL    HW239482   6.057   6.997   5.665
 9151SOL     OW39483   7.250   6.866   6.243
 9151SOL    HW139484   7.349   6.874   6.257
 9151SOL    HW239485   7.205   6.950   6.274
 9152SOL     OW39486   6.976   6.161   5.664
 9152SOL    HW139487   6.922   6.140   5.745
 9152SOL    HW239488   7.067   6.120   5.673
 9153SOL     OW39489   6.113   5.842   5.914
 9153SOL    HW139490   6.140   5.783   5.839
 9153SOL    HW239491   6.113   5.937   5.883
 9154SOL     OW39492   7.340   6.809   7.174
 9154SOL    HW139493   7.431   6.770   7.161
 9154SOL    HW239494   7.348   6.905   7.198
 9155SOL     OW39495   6.650   6.933   6.926
 9155SOL    HW139496   6.570   6.910   6.981
 9155SOL    HW239497   6.733   6.907   6.975
 9156SOL     OW39498   7.178   7.215   7.211
 9156SOL    HW139499   7.205   7.249   7.121
 9156SOL    HW239500   7.257   7.177   7.257
 9157SOL     OW39501   6.697   6.781   6.686
 9157SOL    HW139502   6.657   6.825   6.767
 9157SOL    HW239503   6.656   6.818   6.603
 9158SOL     OW39504   7.224   6.685   6.665
 9158SOL    HW139505   7.229   6.766   6.724
 9158SOL    HW239506   7.138   6.687   6.614
 9159SOL     OW39507   6.501   5.675   6.988
 9159SOL    HW139508   6.526   5.655   6.893
 9159SOL    HW239509   6.573   5.731   7.030
 9160SOL     OW39510   6.566   6.702   7.305
 9160SOL    HW139511   6.467   6.708   7.315
 9160SOL    HW239512   6.589   6.622   7.249
 9161SOL     OW39513   6.291   6.636   5.954
 9161SOL    HW139514   6.277   6.643   6.053
 9161SOL    HW239515   6.375   6.585   5.936
 9162SOL     OW39516   5.996   6.399   6.837
 9162SOL    HW139517   6.082   6.411   6.887
 9162SOL    HW239518   5.954   6.312   6.864
 9163SOL     OW39519   6.860   5.972   6.848
 9163SOL    HW139520   6.881   6.046   6.912
 9163SOL    HW239521   6.771   5.989   6.805
 9164SOL     OW39522   5.650   7.150   6.917
 9164SOL    HW139523   5.604   7.232   6.883
 9164SOL    HW239524   5.748   7.169   6.926
 9165SOL     OW39525   5.953   6.686   6.087
 9165SOL    HW139526   5.946   6.769   6.031
 9165SOL    HW239527   5.957   6.606   6.027
 9166SOL     OW39528   6.152   6.123   6.451
 9166SOL    HW139529   6.164   6.189   6.377
 9166SOL    HW239530   6.198   6.157   6.534
 9167SOL     OW39531   6.838   6.934   5.974
 9167SOL    HW139532   6.888   7.011   6.014
 9167SOL    HW239533   6.743   6.936   6.006
 9168SOL     OW39534   6.858   7.031   6.728
 9168SOL    HW139535   6.905   7.044   6.815
 9168SOL    HW239536   6.792   6.957   6.737
 9169SOL     OW39537   7.168   6.225   6.058
 9169SOL    HW139538   7.137   6.286   6.131
 9169SOL    HW239539   7.218   6.277   5.989
 9170SOL     OW39540   5.940   7.096   6.915
 9170SOL    HW139541   5.919   7.052   6.828
 9170SOL    HW239542   6.037   7.122   6.918
 9171SOL     OW39543   5.988   6.337   7.184
 9171SOL    HW139544   6.056   6.392   7.137
 9171SOL    HW239545   6.028   6.249   7.211
 9172SOL     OW39546   7.173   6.365   7.256
 9172SOL    HW139547   7.081   6.403   7.251
 9172SOL    HW239548   7.233   6.412   7.191
 9173SOL     OW39549   6.159   6.456   6.615
 9173SOL    HW139550   6.203   6.545   6.606
 9173SOL    HW239551   6.096   6.456   6.692
 9174SOL     OW39552   6.946   6.448   6.631
 9174SOL    HW139553   6.871   6.448   6.565
 9174SOL    HW239554   6.983   6.356   6.640
 9175SOL     OW39555   6.795   6.111   5.861
 9175SOL    HW139556   6.808   6.027   5.915
 9175SOL    HW239557   6.766   6.185   5.921
 9176SOL     OW39558   5.893   5.799   6.817
 9176SOL    HW139559   5.870   5.836   6.907
 9176SOL    HW239560   5.863   5.704   6.811
 9177SOL     OW39561   5.623   6.896   6.868
 9177SOL    HW139562   5.676   6.847   6.936
 9177SOL    HW239563   5.645   6.994   6.873
 9178SOL     OW39564   6.318   6.220   6.650
 9178SOL    HW139565   6.377   6.194   6.574
 9178SOL    HW239566   6.290   6.316   6.639
 9179SOL     OW39567   7.314   6.521   7.440
 9179SOL    HW139568   7.268   6.514   7.351
 9179SOL    HW239569   7.252   6.565   7.506
 9180SOL     OW39570   5.893   5.649   6.204
 9180SOL    HW139571   5.882   5.743   6.237
 9180SOL    HW239572   5.888   5.586   6.281
 9181SOL     OW39573   7.208   5.953   5.960
 9181SOL    HW139574   7.210   5.877   6.024
 9181SOL    HW239575   7.160   6.030   6.000
 9182SOL     OW39576   6.609   6.352   6.552
 9182SOL    HW139577   6.624   6.373   6.648
 9182SOL    HW239578   6.579   6.257   6.543
 9183SOL     OW39579   6.566   7.159   7.286
 9183SOL    HW139580   6.546   7.203   7.198
 9183SOL    HW239581   6.605   7.068   7.270
 9184SOL     OW39582   7.445   7.104   7.191
 9184SOL    HW139583   7.459   7.131   7.096
 9184SOL    HW239584   7.528   7.126   7.244
 9185SOL     OW39585   5.936   6.484   7.390
 9185SOL    HW139586   6.012   6.528   7.438
 9185SOL    HW239587   5.971   6.437   7.308
 9186SOL     OW39588   7.126   5.860   5.711
 9186SOL    HW139589   7.065   5.785   5.734
 9186SOL    HW239590   7.148   5.912   5.794
 9187SOL     OW39591   6.654   6.919   6.435
 9187SOL    HW139592   6.661   6.835   6.380
 9187SOL    HW239593   6.716   6.988   6.399
 9188SOL     OW39594   5.905   6.396   6.535
 9188SOL    HW139595   5.998   6.432   6.540
 9188SOL    HW239596   5.899   6.311   6.587
 9189SOL     OW39597   5.925   6.095   6.592
 9189SOL    HW139598   5.873   6.012   6.575
 9189SOL    HW239599   6.002   6.100   6.528
 9190SOL     OW39600   6.724   5.966   7.264
 9190SOL    HW139601   6.679   6.029   7.328
 9190SOL    HW239602   6.817   5.997   7.247
 9191SOL     OW39603   6.746   5.793   7.063
 9191SOL    HW139604   6.746   5.857   7.140
 9191SOL    HW239605   6.774   5.841   6.980
 9192SOL     OW39606   5.674   7.387   6.513
 9192SOL    HW139607   5.632   7.301   6.486
 9192SOL    HW239608   5.768   7.390   6.479
 9193SOL     OW39609   6.090   7.154   6.496
 9193SOL    HW139610   6.156   7.228   6.505
 9193SOL    HW239611   6.134   7.075   6.454
 9194SOL     OW39612   6.588   6.382   6.824
 9194SOL    HW139613   6.629   6.350   6.910
 9194SOL    HW239614   6.492   6.355   6.821
 9195SOL     OW39615   5.626   6.130   6.700
 9195SOL    HW139616   5.711   6.097   6.659
 9195SOL    HW239617   5.639   6.145   6.798
 9196SOL     OW39618   6.401   6.158   5.911
 9196SOL    HW139619   6.408   6.069   5.865
 9196SOL    HW239620   6.307   6.192   5.903
 9197SOL     OW39621   7.243   6.190   6.792
 9197SOL    HW139622   7.205   6.121   6.854
 9197SOL    HW239623   7.325   6.154   6.748
 9198SOL     OW39624   5.838   7.150   7.330
 9198SOL    HW139625   5.808   7.207   7.406
 9198SOL    HW239626   5.831   7.053   7.356
 9199SOL     OW39627   6.257   6.050   6.855
 9199SOL    HW139628   6.223   5.961   6.825
 9199SOL    HW239629   6.283   6.104   6.775
 9200SOL     OW39630   6.516   7.264   7.051
 9200SOL    HW139631   6.492   7.246   6.956
 9200SOL    HW239632   6.546   7.358   7.061
 9201SOL     OW39633   6.059   6.086   5.777
 9201SOL    HW139634   6.120   6.166   5.781
 9201SOL    HW239635   5.964   6.117   5.784
 9202SOL     OW39636   5.745   6.723   7.052
 9202SOL    HW139637   5.767   6.662   7.128
 9202SOL    HW239638   5.755   6.674   6.966
 9203SOL     OW39639   6.933   6.645   6.820
 9203SOL    HW139640   6.957   6.582   6.746
 9203SOL    HW239641   6.843   6.685   6.802
 9204SOL     OW39642   6.888   6.441   5.895
 9204SOL    HW139643   6.802   6.410   5.937
 9204SOL    HW239644   6.884   6.427   5.796
 9205SOL     OW39645   7.345   7.333   6.740
 9205SOL    HW139646   7.406   7.363   6.667
 9205SOL    HW239647   7.307   7.244   6.718
 9206SOL     OW39648   6.838   7.317   6.714
 9206SOL    HW139649   6.922   7.322   6.660
 9206SOL    HW239650   6.815   7.221   6.732
 9207SOL     OW39651   5.669   6.844   6.608
 9207SOL    HW139652   5.664   6.843   6.708
 9207SOL    HW239653   5.586   6.803   6.570
 9208SOL     OW39654   6.274   7.248   7.302
 9208SOL    HW139655   6.218   7.329   7.311
 9208SOL    HW239656   6.326   7.252   7.216
 9209SOL     OW39657   7.312   5.721   6.109
 9209SOL    HW139658   7.385   5.704   6.042
 9209SOL    HW239659   7.281   5.634   6.147
 9210SOL     OW39660   6.974   7.159   6.063
 9210SOL    HW139661   7.041   7.171   5.989
 9210SOL    HW239662   6.934   7.248   6.086
 9211SOL     OW39663   6.866   6.513   6.258
 9211SOL    HW139664   6.926   6.432   6.260
 9211SOL    HW239665   6.906   6.582   6.198
 9212SOL     OW39666   6.416   6.859   7.008
 9212SOL    HW139667   6.411   6.892   7.103
 9212SOL    HW239668   6.330   6.878   6.962
 9213SOL     OW39669   6.258   7.202   5.740
 9213SOL    HW139670   6.267   7.212   5.641
 9213SOL    HW239671   6.218   7.113   5.761
 9214SOL     OW39672   7.236   7.306   6.980
 9214SOL    HW139673   7.289   7.316   6.896
 9214SOL    HW239674   7.209   7.396   7.014
 9215SOL     OW39675   7.427   5.761   6.549
 9215SOL    HW139676   7.466   5.676   6.513
 9215SOL    HW239677   7.329   5.763   6.530
 9216SOL     OW39678   5.849   5.912   6.306
 9216SOL    HW139679   5.770   5.963   6.272
 9216SOL    HW239680   5.840   5.897   6.404
 9217SOL     OW39681   6.780   7.198   5.617
 9217SOL    HW139682   6.786   7.105   5.654
 9217SOL    HW239683   6.721   7.198   5.537
 9218SOL     OW39684   6.408   6.588   6.958
 9218SOL    HW139685   6.448   6.587   6.866
 9218SOL    HW239686   6.418   6.680   6.998
 9219SOL     OW39687   6.502   6.496   5.877
 9219SOL    HW139688   6.565   6.534   5.809
 9219SOL    HW239689   6.542   6.413   5.916
 9220SOL     OW39690   5.958   6.874   7.076
 9220SOL    HW139691   5.945   6.967   7.042
 9220SOL    HW239692   5.874   6.822   7.063
 9221SOL     OW39693   7.200   6.878   6.875
 9221SOL    HW139694   7.260   6.881   6.955
 9221SOL    HW239695   7.125   6.942   6.888
 9222SOL     OW39696   6.625   6.684   6.282
 9222SOL    HW139697   6.555   6.637   6.336
 9222SOL    HW239698   6.684   6.616   6.239
 9223SOL     OW39699   6.600   5.822   6.557
 9223SOL    HW139700   6.592   5.786   6.464
 9223SOL    HW239701   6.598   5.746   6.622
 9224SOL     OW39702   6.176   7.073   6.077
 9224SOL    HW139703   6.218   7.015   6.007
 9224SOL    HW239704   6.132   7.152   6.033
 9225SOL     OW39705   7.295   5.971   6.967
 9225SOL    HW139706   7.368   6.040   6.971
 9225SOL    HW239707   7.323   5.896   6.908
 9226SOL     OW39708   5.841   6.934   5.876
 9226SOL    HW139709   5.745   6.935   5.849
 9226SOL    HW239710   5.853   6.987   5.960
 9227SOL     OW39711   5.691   6.599   7.312
 9227SOL    HW139712   5.614   6.566   7.366
 9227SOL    HW239713   5.776   6.569   7.354
 9228SOL     OW39714   6.258   5.789   7.075
 9228SOL    HW139715   6.348   5.773   7.035
 9228SOL    HW239716   6.266   5.794   7.174
 9229SOL     OW39717   7.026   6.442   6.984
 9229SOL    HW139718   6.969   6.494   6.921
 9229SOL    HW239719   7.122   6.454   6.960
 9230SOL     OW39720   6.769   6.921   5.705
 9230SOL    HW139721   6.670   6.910   5.707
 9230SOL    HW239722   6.803   6.936   5.798
 9231SOL     OW39723   6.199   6.428   7.017
 9231SOL    HW139724   6.255   6.509   7.000
 9231SOL    HW239725   6.258   6.348   7.020
 9232SOL     OW39726   7.079   7.353   6.545
 9232SOL    HW139727   7.112   7.417   6.476
 9232SOL    HW239728   7.145   7.347   6.620
 9233SOL     OW39729   6.302   6.151   7.294
 9233SOL    HW139730   6.321   6.216   7.368
 9233SOL    HW239731   6.362   6.071   7.303
 9234SOL     OW39732   5.976   7.327   7.146
 9234SOL    HW139733   5.885   7.368   7.144
 9234SOL    HW239734   5.969   7.233   7.178
 9235SOL     OW39735   7.260   6.469   6.840
 9235SOL    HW139736   7.233   6.380   6.803
 9235SOL    HW239737   7.261   6.537   6.767
 9236SOL     OW39738   6.811   5.911   6.035
 9236SOL    HW139739   6.876   5.837   6.024
 9236SOL    HW239740   6.831   5.961   6.119
 9237SOL     OW39741   6.180   6.331   6.238
 9237SOL    HW139742   6.230   6.416   6.219
 9237SOL    HW239743   6.092   6.333   6.190
 9238SOL     OW39744   7.363   5.928   7.228
 9238SOL    HW139745   7.346   5.959   7.134
 9238SOL    HW239746   7.279   5.891   7.266
 9239SOL     OW39747   7.316   6.520   7.103
 9239SOL    HW139748   7.354   6.611   7.118
 9239SOL    HW239749   7.308   6.503   7.004
 9240SOL     OW39750   6.445   6.960   5.602
 9240SOL    HW139751   6.399   6.975   5.690
 9240SOL    HW239752   6.489   7.045   5.572
 9241SOL     OW39753   6.247   7.376   6.539
 9241SOL    HW139754   6.201   7.464   6.526
 9241SOL    HW239755   6.346   7.388   6.532
 9242SOL     OW39756   6.445   6.542   6.447
 9242SOL    HW139757   6.499   6.473   6.495
 9242SOL    HW239758   6.413   6.611   6.513
 9243SOL     OW39759   7.447   7.155   6.437
 9243SOL    HW139760   7.376   7.143   6.367
 9243SOL    HW239761   7.448   7.076   6.497
 9244SOL     OW39762   5.807   6.900   7.430
 9244SOL    HW139763   5.742   6.827   7.409
 9244SOL    HW239764   5.811   6.914   7.528
 9245SOL     OW39765   5.665   6.826   6.239
 9245SOL    HW139766   5.664   6.779   6.327
 9245SOL    HW239767   5.747   6.798   6.188
 9246SOL     OW39768   6.258   6.977   7.210
 9246SOL    HW139769   6.180   6.927   7.248
 9246SOL    HW239770   6.255   7.072   7.241
 9247SOL     OW39771   7.410   5.778   6.813
 9247SOL    HW139772   7.406   5.688   6.857
 9247SOL    HW239773   7.413   5.767   6.714
 9248SOL     OW39774   6.014   6.010   6.106
 9248SOL    HW139775   6.044   5.938   6.044
 9248SOL    HW239776   5.975   5.970   6.189
 9249SOL     OW39777   7.291   7.073   6.690
 9249SOL    HW139778   7.198   7.048   6.663
 9249SOL    HW239779   7.317   7.023   6.772
 9250SOL     OW39780   5.903   6.133   6.866
 9250SOL    HW139781   5.941   6.074   6.938
 9250SOL    HW239782   5.943   6.107   6.778
 9251SOL     OW39783   6.398   7.172   6.273
 9251SOL    HW139784   6.430   7.182   6.179
 9251SOL    HW239785   6.319   7.110   6.275
 9252SOL     OW39786   7.010   5.800   6.698
 9252SOL    HW139787   7.062   5.735   6.753
 9252SOL    HW239788   6.961   5.863   6.759
 9253SOL     OW39789   6.587   5.620   6.740
 9253SOL    HW139790   6.524   5.548   6.709
 9253SOL    HW239791   6.680   5.584   6.740
 9254SOL     OW39792   6.356   6.916   5.887
 9254SOL    HW139793   6.310   6.829   5.904
 9254SOL    HW239794   6.447   6.913   5.928
 9255SOL     OW39795   6.204   7.153   6.870
 9255SOL    HW139796   6.199   7.235   6.927
 9255SOL    HW239797   6.293   7.150   6.825
 9256SOL     OW39798   6.938   5.638   5.754
 9256SOL    HW139799   6.973   5.597   5.670
 9256SOL    HW239800   6.848   5.600   5.774
 9257SOL     OW39801   6.886   6.039   6.277
 9257SOL    HW139802   6.827   6.119   6.281
 9257SOL    HW239803   6.901   6.004   6.370
 9258SOL     OW39804   7.179   5.807   6.468
 9258SOL    HW139805   7.095   5.806   6.522
 9258SOL    HW239806   7.181   5.890   6.412
 9259SOL     OW39807   5.625   6.663   5.886
 9259SOL    HW139808   5.724   6.652   5.877
 9259SOL    HW239809   5.585   6.577   5.918
 9260SOL     OW39810   6.461   7.232   5.923
 9260SOL    HW139811   6.384   7.197   5.869
 9260SOL    HW239812   6.429   7.303   5.985
 9261SOL     OW39813   5.816   8.076   0.113
 9261SOL    HW139814   5.723   8.074   0.150
 9261SOL    HW239815   5.817   8.037   0.021
 9262SOL     OW39816   5.811   7.723   0.996
 9262SOL    HW139817   5.846   7.706   1.088
 9262SOL    HW239818   5.723   7.678   0.984
 9263SOL     OW39819   5.605   7.816   0.647
 9263SOL    HW139820   5.523   7.859   0.686
 9263SOL    HW239821   5.577   7.743   0.584
 9264SOL     OW39822   6.721   8.151   0.717
 9264SOL    HW139823   6.778   8.229   0.692
 9264SOL    HW239824   6.661   8.177   0.793
 9265SOL     OW39825   7.341   8.055   0.231
 9265SOL    HW139826   7.329   8.042   0.132
 9265SOL    HW239827   7.311   7.974   0.280
 9266SOL     OW39828   6.354   8.592   1.023
 9266SOL    HW139829   6.276   8.609   1.083
 9266SOL    HW239830   6.388   8.679   0.987
 9267SOL     OW39831   6.436   8.246   1.823
 9267SOL    HW139832   6.432   8.322   1.888
 9267SOL    HW239833   6.458   8.282   1.732
 9268SOL     OW39834   6.271   8.460   0.665
 9268SOL    HW139835   6.340   8.444   0.735
 9268SOL    HW239836   6.198   8.517   0.703
 9269SOL     OW39837   6.024   7.840   1.499
 9269SOL    HW139838   6.106   7.784   1.508
 9269SOL    HW239839   5.943   7.782   1.503
 9270SOL     OW39840   7.189   7.895   0.737
 9270SOL    HW139841   7.115   7.941   0.687
 9270SOL    HW239842   7.240   7.963   0.790
 9271SOL     OW39843   5.826   8.539   0.886
 9271SOL    HW139844   5.840   8.455   0.938
 9271SOL    HW239845   5.771   8.603   0.941
 9272SOL     OW39846   7.180   7.562   1.480
 9272SOL    HW139847   7.162   7.629   1.408
 9272SOL    HW239848   7.177   7.608   1.569
 9273SOL     OW39849   5.708   8.091   0.563
 9273SOL    HW139850   5.663   8.003   0.580
 9273SOL    HW239851   5.707   8.145   0.647
 9274SOL     OW39852   5.699   8.185   1.597
 9274SOL    HW139853   5.787   8.172   1.642
 9274SOL    HW239854   5.686   8.282   1.575
 9275SOL     OW39855   6.395   7.452   0.502
 9275SOL    HW139856   6.435   7.543   0.493
 9275SOL    HW239857   6.295   7.460   0.508
 9276SOL     OW39858   5.783   8.424   1.264
 9276SOL    HW139859   5.872   8.379   1.250
 9276SOL    HW239860   5.710   8.359   1.245
 9277SOL     OW39861   7.111   8.447   0.190
 9277SOL    HW139862   7.048   8.371   0.203
 9277SOL    HW239863   7.159   8.465   0.276
 9278SOL     OW39864   5.903   7.699   1.801
 9278SOL    HW139865   5.974   7.770   1.807
 9278SOL    HW239866   5.815   7.738   1.829
 9279SOL     OW39867   6.184   8.177   0.270
 9279SOL    HW139868   6.208   8.246   0.202
 9279SOL    HW239869   6.106   8.210   0.324
 9280SOL     OW39870   6.867   7.793   0.944
 9280SOL    HW139871   6.781   7.743   0.931
 9280SOL    HW239872   6.929   7.739   1.000
 9281SOL     OW39873   6.393   8.053   1.465
 9281SOL    HW139874   6.346   8.050   1.554
 9281SOL    HW239875   6.342   7.998   1.399
 9282SOL     OW39876   6.559   8.338   1.572
 9282SOL    HW139877   6.605   8.254   1.543
 9282SOL    HW239878   6.503   8.372   1.497
 9283SOL     OW39879   6.577   7.858   1.242
 9283SOL    HW139880   6.500   7.892   1.296
 9283SOL    HW239881   6.543   7.807   1.163
 9284SOL     OW39882   6.627   8.149   0.429
 9284SOL    HW139883   6.653   8.145   0.525
 9284SOL    HW239884   6.542   8.098   0.415
 9285SOL     OW39885   5.662   8.259   0.789
 9285SOL    HW139886   5.761   8.247   0.798
 9285SOL    HW239887   5.638   8.354   0.810
 9286SOL     OW39888   6.451   7.796   0.195
 9286SOL    HW139889   6.510   7.859   0.146
 9286SOL    HW239890   6.470   7.702   0.166
 9287SOL     OW39891   6.136   7.644   0.885
 9287SOL    HW139892   6.131   7.639   0.985
 9287SOL    HW239893   6.138   7.740   0.856
 9288SOL     OW39894   7.044   8.183   0.728
 9288SOL    HW139895   7.039   8.118   0.803
 9288SOL    HW239896   7.124   8.242   0.741
 9289SOL     OW39897   5.788   7.733   1.498
 9289SOL    HW139898   5.708   7.793   1.485
 9289SOL    HW239899   5.778   7.684   1.584
 9290SOL     OW39900   6.986   7.555   0.426
 9290SOL    HW139901   6.962   7.518   0.336
 9290SOL    HW239902   7.085   7.571   0.430
 9291SOL     OW39903   5.968   8.148   0.480
 9291SOL    HW139904   6.013   8.058   0.477
 9291SOL    HW239905   5.874   8.137   0.513
 9292SOL     OW39906   7.133   7.670   1.729
 9292SOL    HW139907   7.128   7.707   1.821
 9292SOL    HW239908   7.061   7.601   1.717
 9293SOL     OW39909   6.200   7.570   0.117
 9293SOL    HW139910   6.298   7.548   0.124
 9293SOL    HW239911   6.169   7.553   0.024
 9294SOL     OW39912   6.367   7.712   1.749
 9294SOL    HW139913   6.434   7.651   1.792
 9294SOL    HW239914   6.294   7.731   1.814
 9295SOL     OW39915   6.937   8.038   1.433
 9295SOL    HW139916   6.965   7.995   1.518
 9295SOL    HW239917   6.962   8.134   1.434
 9296SOL     OW39918   6.508   7.951   0.899
 9296SOL    HW139919   6.483   7.942   0.803
 9296SOL    HW239920   6.556   7.869   0.930
 9297SOL     OW39921   6.125   7.512   0.512
 9297SOL    HW139922   6.044   7.513   0.570
 9297SOL    HW239923   6.128   7.595   0.457
 9298SOL     OW39924   5.883   7.483   0.171
 9298SOL    HW139925   5.932   7.567   0.150
 9298SOL    HW239926   5.945   7.418   0.216
 9299SOL     OW39927   6.521   7.684   0.480
 9299SOL    HW139928   6.473   7.725   0.402
 9299SOL    HW239929   6.620   7.682   0.461
 9300SOL     OW39930   6.662   8.131   1.464
 9300SOL    HW139931   6.582   8.070   1.467
 9300SOL    HW239932   6.743   8.078   1.440
 9301SOL     OW39933   6.618   7.997   0.016
 9301SOL    HW139934   6.577   8.079  -0.023
 9301SOL    HW239935   6.682   8.023   0.089
 9302SOL     OW39936   5.664   8.004   1.386
 9302SOL    HW139937   5.756   8.003   1.345
 9302SOL    HW239938   5.658   8.078   1.453
 9303SOL     OW39939   6.147   7.670   1.147
 9303SOL    HW139940   6.185   7.586   1.184
 9303SOL    HW239941   6.059   7.689   1.191
 9304SOL     OW39942   6.452   7.902   0.642
 9304SOL    HW139943   6.420   7.974   0.580
 9304SOL    HW239944   6.476   7.821   0.589
 9305SOL     OW39945   6.603   7.487   0.753
 9305SOL    HW139946   6.531   7.492   0.684
 9305SOL    HW239947   6.579   7.418   0.822
 9306SOL     OW39948   7.052   8.038   0.992
 9306SOL    HW139949   7.022   7.943   0.999
 9306SOL    HW239950   7.125   8.054   1.058
 9307SOL     OW39951   7.443   8.281   0.377
 9307SOL    HW139952   7.485   8.217   0.441
 9307SOL    HW239953   7.405   8.230   0.299
 9308SOL     OW39954   6.976   8.023   0.078
 9308SOL    HW139955   6.922   8.002   0.159
 9308SOL    HW239956   7.067   7.982   0.087
 9309SOL     OW39957   6.113   7.704   0.328
 9309SOL    HW139958   6.140   7.645   0.253
 9309SOL    HW239959   6.113   7.799   0.297
 9310SOL     OW39960   7.224   8.547   1.079
 9310SOL    HW139961   7.229   8.628   1.138
 9310SOL    HW239962   7.138   8.549   1.028
 9311SOL     OW39963   6.501   7.537   1.402
 9311SOL    HW139964   6.526   7.517   1.307
 9311SOL    HW239965   6.573   7.593   1.444
 9312SOL     OW39966   5.996   8.261   1.251
 9312SOL    HW139967   6.082   8.273   1.301
 9312SOL    HW239968   5.954   8.174   1.278
 9313SOL     OW39969   6.860   7.834   1.262
 9313SOL    HW139970   6.881   7.908   1.326
 9313SOL    HW239971   6.771   7.851   1.219
 9314SOL     OW39972   6.152   7.985   0.865
 9314SOL    HW139973   6.164   8.051   0.791
 9314SOL    HW239974   6.198   8.019   0.948
 9315SOL     OW39975   7.168   8.087   0.472
 9315SOL    HW139976   7.137   8.148   0.545
 9315SOL    HW239977   7.218   8.139   0.403
 9316SOL     OW39978   5.988   8.199   1.598
 9316SOL    HW139979   6.056   8.254   1.551
 9316SOL    HW239980   6.028   8.111   1.625
 9317SOL     OW39981   6.599   7.553   1.770
 9317SOL    HW139982   6.605   7.638   1.718
 9317SOL    HW239983   6.631   7.477   1.713
 9318SOL     OW39984   6.090   7.498   1.740
 9318SOL    HW139985   6.048   7.441   1.670
 9318SOL    HW239986   6.024   7.567   1.772
 9319SOL     OW39987   6.159   8.318   1.029
 9319SOL    HW139988   6.203   8.407   1.020
 9319SOL    HW239989   6.096   8.318   1.106
 9320SOL     OW39990   6.946   8.310   1.045
 9320SOL    HW139991   6.871   8.310   0.979
 9320SOL    HW239992   6.983   8.218   1.054
 9321SOL     OW39993   6.795   7.973   0.275
 9321SOL    HW139994   6.808   7.889   0.329
 9321SOL    HW239995   6.766   8.047   0.335
 9322SOL     OW39996   5.893   7.661   1.231
 9322SOL    HW139997   5.870   7.698   1.321
 9322SOL    HW239998   5.863   7.566   1.225
 9323SOL     OW39999   6.318   8.082   1.064
 9323SOL    HW140000   6.377   8.056   0.988
 9323SOL    HW240001   6.290   8.178   1.053
 9324SOL     OW40002   7.314   8.383   1.854
 9324SOL    HW140003   7.268   8.376   1.765
 9324SOL    HW240004   7.252   8.427   1.920
 9325SOL     OW40005   5.893   7.511   0.618
 9325SOL    HW140006   5.882   7.605   0.651
 9325SOL    HW240007   5.888   7.448   0.695
 9326SOL     OW40008   7.208   7.815   0.374
 9326SOL    HW140009   7.210   7.739   0.438
 9326SOL    HW240010   7.160   7.892   0.414
 9327SOL     OW40011   6.609   8.214   0.966
 9327SOL    HW140012   6.624   8.235   1.062
 9327SOL    HW240013   6.579   8.119   0.957
 9328SOL     OW40014   5.936   8.346   1.804
 9328SOL    HW140015   6.012   8.390   1.852
 9328SOL    HW240016   5.971   8.299   1.722
 9329SOL     OW40017   7.126   7.722   0.125
 9329SOL    HW140018   7.065   7.647   0.148
 9329SOL    HW240019   7.148   7.774   0.208
 9330SOL     OW40020   6.889   8.286   0.042
 9330SOL    HW140021   6.923   8.193   0.057
 9330SOL    HW240022   6.907   8.313  -0.053
 9331SOL     OW40023   5.905   8.258   0.949
 9331SOL    HW140024   5.998   8.294   0.954
 9331SOL    HW240025   5.899   8.173   1.001
 9332SOL     OW40026   5.925   7.957   1.006
 9332SOL    HW140027   5.873   7.874   0.989
 9332SOL    HW240028   6.002   7.962   0.942
 9333SOL     OW40029   6.724   7.828   1.678
 9333SOL    HW140030   6.679   7.891   1.742
 9333SOL    HW240031   6.817   7.859   1.661
 9334SOL     OW40032   6.746   7.655   1.477
 9334SOL    HW140033   6.746   7.719   1.554
 9334SOL    HW240034   6.774   7.703   1.394
 9335SOL     OW40035   6.588   8.244   1.238
 9335SOL    HW140036   6.629   8.212   1.324
 9335SOL    HW240037   6.492   8.217   1.235
 9336SOL     OW40038   5.626   7.992   1.114
 9336SOL    HW140039   5.711   7.959   1.073
 9336SOL    HW240040   5.639   8.007   1.212
 9337SOL     OW40041   5.775   7.968   1.722
 9337SOL    HW140042   5.834   7.928   1.652
 9337SOL    HW240043   5.717   8.039   1.681
 9338SOL     OW40044   6.401   8.020   0.325
 9338SOL    HW140045   6.408   7.931   0.279
 9338SOL    HW240046   6.307   8.054   0.317
 9339SOL     OW40047   7.243   8.052   1.206
 9339SOL    HW140048   7.205   7.983   1.268
 9339SOL    HW240049   7.325   8.016   1.162
 9340SOL     OW40050   6.257   7.912   1.269
 9340SOL    HW140051   6.223   7.823   1.239
 9340SOL    HW240052   6.283   7.966   1.189
 9341SOL     OW40053   6.059   7.948   0.191
 9341SOL    HW140054   6.120   8.028   0.195
 9341SOL    HW240055   5.964   7.979   0.198
 9342SOL     OW40056   5.745   8.585   1.466
 9342SOL    HW140057   5.767   8.524   1.542
 9342SOL    HW240058   5.755   8.536   1.380
 9343SOL     OW40059   6.933   8.507   1.234
 9343SOL    HW140060   6.957   8.444   1.160
 9343SOL    HW240061   6.843   8.547   1.216
 9344SOL     OW40062   6.888   8.303   0.309
 9344SOL    HW140063   6.802   8.272   0.351
 9344SOL    HW240064   6.884   8.289   0.210
 9345SOL     OW40065   6.489   7.534   0.133
 9345SOL    HW140066   6.540   7.535   0.047
 9345SOL    HW240067   6.545   7.492   0.204
 9346SOL     OW40068   7.312   7.583   0.523
 9346SOL    HW140069   7.385   7.566   0.456
 9346SOL    HW240070   7.281   7.496   0.561
 9347SOL     OW40071   6.866   8.375   0.672
 9347SOL    HW140072   6.926   8.294   0.674
 9347SOL    HW240073   6.906   8.444   0.612
 9348SOL     OW40074   7.427   7.623   0.963
 9348SOL    HW140075   7.466   7.538   0.927
 9348SOL    HW240076   7.329   7.625   0.944
 9349SOL     OW40077   5.849   7.774   0.720
 9349SOL    HW140078   5.770   7.825   0.686
 9349SOL    HW240079   5.840   7.759   0.818
 9350SOL     OW40080   6.502   8.358   0.291
 9350SOL    HW140081   6.565   8.396   0.223
 9350SOL    HW240082   6.542   8.275   0.330
 9351SOL     OW40083   6.600   7.684   0.971
 9351SOL    HW140084   6.592   7.648   0.878
 9351SOL    HW240085   6.598   7.608   1.036
 9352SOL     OW40086   7.295   7.833   1.381
 9352SOL    HW140087   7.368   7.902   1.385
 9352SOL    HW240088   7.323   7.758   1.322
 9353SOL     OW40089   5.691   8.461   1.726
 9353SOL    HW140090   5.614   8.428   1.780
 9353SOL    HW240091   5.776   8.431   1.768
 9354SOL     OW40092   6.258   7.651   1.489
 9354SOL    HW140093   6.348   7.635   1.449
 9354SOL    HW240094   6.266   7.656   1.588
 9355SOL     OW40095   5.661   7.793   0.033
 9355SOL    HW140096   5.569   7.765   0.004
 9355SOL    HW240097   5.692   7.870  -0.023
 9356SOL     OW40098   7.026   8.304   1.398
 9356SOL    HW140099   6.969   8.356   1.335
 9356SOL    HW240100   7.122   8.316   1.374
 9357SOL     OW40101   5.658   7.614   0.318
 9357SOL    HW140102   5.641   7.697   0.264
 9357SOL    HW240103   5.748   7.577   0.296
 9358SOL     OW40104   6.199   8.290   1.431
 9358SOL    HW140105   6.255   8.371   1.414
 9358SOL    HW240106   6.258   8.210   1.434
 9359SOL     OW40107   6.302   8.013   1.708
 9359SOL    HW140108   6.321   8.078   1.782
 9359SOL    HW240109   6.362   7.933   1.717
 9360SOL     OW40110   7.260   8.331   1.254
 9360SOL    HW140111   7.233   8.242   1.217
 9360SOL    HW240112   7.261   8.399   1.181
 9361SOL     OW40113   6.811   7.773   0.449
 9361SOL    HW140114   6.876   7.699   0.438
 9361SOL    HW240115   6.831   7.823   0.533
 9362SOL     OW40116   6.180   8.193   0.652
 9362SOL    HW140117   6.230   8.278   0.633
 9362SOL    HW240118   6.092   8.195   0.604
 9363SOL     OW40119   7.363   7.790   1.642
 9363SOL    HW140120   7.346   7.821   1.548
 9363SOL    HW240121   7.279   7.753   1.680
 9364SOL     OW40122   7.316   8.382   1.517
 9364SOL    HW140123   7.354   8.473   1.532
 9364SOL    HW240124   7.308   8.365   1.418
 9365SOL     OW40125   6.669   8.432   0.087
 9365SOL    HW140126   6.646   8.485   0.005
 9365SOL    HW240127   6.750   8.376   0.068
 9366SOL     OW40128   7.410   7.640   1.227
 9366SOL    HW140129   7.406   7.550   1.271
 9366SOL    HW240130   7.413   7.629   1.128
 9367SOL     OW40131   6.014   7.872   0.520
 9367SOL    HW140132   6.044   7.800   0.458
 9367SOL    HW240133   5.975   7.832   0.603
 9368SOL     OW40134   5.903   7.995   1.280
 9368SOL    HW140135   5.941   7.936   1.352
 9368SOL    HW240136   5.943   7.969   1.192
 9369SOL     OW40137   7.010   7.662   1.112
 9369SOL    HW140138   7.062   7.597   1.167
 9369SOL    HW240139   6.961   7.725   1.173
 9370SOL     OW40140   6.587   7.482   1.154
 9370SOL    HW140141   6.524   7.410   1.123
 9370SOL    HW240142   6.680   7.446   1.154
 9371SOL     OW40143   6.938   7.500   0.168
 9371SOL    HW140144   6.973   7.459   0.084
 9371SOL    HW240145   6.848   7.462   0.188
 9372SOL     OW40146   6.886   7.901   0.691
 9372SOL    HW140147   6.827   7.981   0.695
 9372SOL    HW240148   6.901   7.866   0.784
 9373SOL     OW40149   7.179   7.669   0.882
 9373SOL    HW140150   7.095   7.668   0.936
 9373SOL    HW240151   7.181   7.752   0.826
 9374SOL     OW40152   5.816   8.076   1.975
 9374SOL    HW140153   5.723   8.074   2.012
 9374SOL    HW240154   5.817   8.037   1.883
 9375SOL     OW40155   7.189   7.895   2.599
 9375SOL    HW140156   7.115   7.941   2.549
 9375SOL    HW240157   7.240   7.963   2.652
 9376SOL     OW40158   7.180   7.562   3.342
 9376SOL    HW140159   7.162   7.629   3.270
 9376SOL    HW240160   7.177   7.608   3.431
 9377SOL     OW40161   5.708   8.091   2.425
 9377SOL    HW140162   5.663   8.003   2.442
 9377SOL    HW240163   5.707   8.145   2.509
 9378SOL     OW40164   6.980   7.917   3.536
 9378SOL    HW140165   6.960   7.960   3.624
 9378SOL    HW240166   7.058   7.855   3.545
 9379SOL     OW40167   6.559   8.338   3.434
 9379SOL    HW140168   6.605   8.254   3.405
 9379SOL    HW240169   6.503   8.372   3.359
 9380SOL     OW40170   5.662   8.259   2.651
 9380SOL    HW140171   5.761   8.247   2.660
 9380SOL    HW240172   5.638   8.354   2.672
 9381SOL     OW40173   6.451   7.796   2.057
 9381SOL    HW140174   6.510   7.859   2.008
 9381SOL    HW240175   6.470   7.702   2.028
 9382SOL     OW40176   6.200   7.570   1.979
 9382SOL    HW140177   6.298   7.548   1.986
 9382SOL    HW240178   6.169   7.553   1.886
 9383SOL     OW40179   6.937   8.038   3.295
 9383SOL    HW140180   6.965   7.995   3.380
 9383SOL    HW240181   6.962   8.134   3.296
 9384SOL     OW40182   5.883   7.483   2.033
 9384SOL    HW140183   5.932   7.567   2.012
 9384SOL    HW240184   5.945   7.418   2.078
 9385SOL     OW40185   6.521   7.684   2.342
 9385SOL    HW140186   6.473   7.725   2.264
 9385SOL    HW240187   6.620   7.682   2.323
 9386SOL     OW40188   6.618   7.997   1.878
 9386SOL    HW140189   6.577   8.079   1.839
 9386SOL    HW240190   6.682   8.023   1.951
 9387SOL     OW40191   6.603   7.487   2.615
 9387SOL    HW140192   6.531   7.492   2.546
 9387SOL    HW240193   6.579   7.418   2.684
 9388SOL     OW40194   6.501   7.537   3.264
 9388SOL    HW140195   6.526   7.517   3.169
 9388SOL    HW240196   6.573   7.593   3.306
 9389SOL     OW40197   5.996   8.261   3.113
 9389SOL    HW140198   6.082   8.273   3.163
 9389SOL    HW240199   5.954   8.174   3.140
 9390SOL     OW40200   6.599   7.553   3.632
 9390SOL    HW140201   6.605   7.638   3.580
 9390SOL    HW240202   6.631   7.477   3.575
 9391SOL     OW40203   6.090   7.498   3.602
 9391SOL    HW140204   6.048   7.441   3.532
 9391SOL    HW240205   6.024   7.567   3.634
 9392SOL     OW40206   6.159   8.318   2.891
 9392SOL    HW140207   6.203   8.407   2.882
 9392SOL    HW240208   6.096   8.318   2.968
 9393SOL     OW40209   7.126   7.722   1.987
 9393SOL    HW140210   7.065   7.647   2.010
 9393SOL    HW240211   7.148   7.774   2.070
 9394SOL     OW40212   5.905   8.258   2.811
 9394SOL    HW140213   5.998   8.294   2.816
 9394SOL    HW240214   5.899   8.173   2.863
 9395SOL     OW40215   6.724   7.828   3.540
 9395SOL    HW140216   6.679   7.891   3.604
 9395SOL    HW240217   6.817   7.859   3.523
 9396SOL     OW40218   6.588   8.244   3.100
 9396SOL    HW140219   6.629   8.212   3.186
 9396SOL    HW240220   6.492   8.217   3.097
 9397SOL     OW40221   5.775   7.968   3.584
 9397SOL    HW140222   5.834   7.928   3.514
 9397SOL    HW240223   5.717   8.039   3.543
 9398SOL     OW40224   5.745   8.585   3.328
 9398SOL    HW140225   5.767   8.524   3.404
 9398SOL    HW240226   5.755   8.536   3.242
 9399SOL     OW40227   6.600   7.684   2.833
 9399SOL    HW140228   6.592   7.648   2.740
 9399SOL    HW240229   6.598   7.608   2.898
 9400SOL     OW40230   7.295   7.833   3.243
 9400SOL    HW140231   7.368   7.902   3.247
 9400SOL    HW240232   7.323   7.758   3.184
 9401SOL     OW40233   6.258   7.651   3.351
 9401SOL    HW140234   6.348   7.635   3.311
 9401SOL    HW240235   6.266   7.656   3.450
 9402SOL     OW40236   5.661   7.793   1.895
 9402SOL    HW140237   5.569   7.765   1.866
 9402SOL    HW240238   5.692   7.870   1.839
 9403SOL     OW40239   6.180   8.193   2.514
 9403SOL    HW140240   6.230   8.278   2.495
 9403SOL    HW240241   6.092   8.195   2.466
 9404SOL     OW40242   7.316   8.382   3.379
 9404SOL    HW140243   7.354   8.473   3.394
 9404SOL    HW240244   7.308   8.365   3.280
 9405SOL     OW40245   6.669   8.432   1.949
 9405SOL    HW140246   6.646   8.485   1.867
 9405SOL    HW240247   6.750   8.376   1.930
 9406SOL     OW40248   6.014   7.872   2.382
 9406SOL    HW140249   6.044   7.800   2.320
 9406SOL    HW240250   5.975   7.832   2.465
 9407SOL     OW40251   6.587   7.482   3.016
 9407SOL    HW140252   6.524   7.410   2.985
 9407SOL    HW240253   6.680   7.446   3.016
 9408SOL     OW40254   6.938   7.500   2.030
 9408SOL    HW140255   6.973   7.459   1.946
 9408SOL    HW240256   6.848   7.462   2.050
 9409SOL     OW40257   6.886   7.901   2.553
 9409SOL    HW140258   6.827   7.981   2.557
 9409SOL    HW240259   6.901   7.866   2.646
 9410SOL     OW40260   5.816   8.076   3.837
 9410SOL    HW140261   5.723   8.074   3.874
 9410SOL    HW240262   5.817   8.037   3.745
 9411SOL     OW40263   5.811   7.723   4.720
 9411SOL    HW140264   5.846   7.706   4.812
 9411SOL    HW240265   5.723   7.678   4.708
 9412SOL     OW40266   6.721   8.151   4.441
 9412SOL    HW140267   6.778   8.229   4.416
 9412SOL    HW240268   6.661   8.177   4.517
 9413SOL     OW40269   7.189   7.895   4.461
 9413SOL    HW140270   7.115   7.941   4.411
 9413SOL    HW240271   7.240   7.963   4.514
 9414SOL     OW40272   7.180   7.562   5.204
 9414SOL    HW140273   7.162   7.629   5.132
 9414SOL    HW240274   7.177   7.608   5.293
 9415SOL     OW40275   6.867   7.793   4.668
 9415SOL    HW140276   6.781   7.743   4.655
 9415SOL    HW240277   6.929   7.739   4.724
 9416SOL     OW40278   6.627   8.149   4.153
 9416SOL    HW140279   6.653   8.145   4.249
 9416SOL    HW240280   6.542   8.098   4.139
 9417SOL     OW40281   6.451   7.796   3.919
 9417SOL    HW140282   6.510   7.859   3.870
 9417SOL    HW240283   6.470   7.702   3.890
 9418SOL     OW40284   7.305   8.033   5.555
 9418SOL    HW140285   7.279   8.122   5.519
 9418SOL    HW240286   7.303   7.965   5.482
 9419SOL     OW40287   6.136   7.644   4.609
 9419SOL    HW140288   6.131   7.639   4.709
 9419SOL    HW240289   6.138   7.740   4.580
 9420SOL     OW40290   6.986   7.555   4.150
 9420SOL    HW140291   6.962   7.518   4.060
 9420SOL    HW240292   7.085   7.571   4.154
 9421SOL     OW40293   5.968   8.148   4.204
 9421SOL    HW140294   6.013   8.058   4.201
 9421SOL    HW240295   5.874   8.137   4.237
 9422SOL     OW40296   7.133   7.670   5.453
 9422SOL    HW140297   7.128   7.707   5.545
 9422SOL    HW240298   7.061   7.601   5.441
 9423SOL     OW40299   6.200   7.570   3.841
 9423SOL    HW140300   6.298   7.548   3.848
 9423SOL    HW240301   6.169   7.553   3.748
 9424SOL     OW40302   6.367   7.712   5.473
 9424SOL    HW140303   6.434   7.651   5.516
 9424SOL    HW240304   6.294   7.731   5.538
 9425SOL     OW40305   6.662   8.131   5.188
 9425SOL    HW140306   6.582   8.070   5.191
 9425SOL    HW240307   6.743   8.078   5.164
 9426SOL     OW40308   6.618   7.997   3.740
 9426SOL    HW140309   6.577   8.079   3.701
 9426SOL    HW240310   6.682   8.023   3.813
 9427SOL     OW40311   7.443   8.281   4.101
 9427SOL    HW140312   7.485   8.217   4.165
 9427SOL    HW240313   7.405   8.230   4.023
 9428SOL     OW40314   6.113   7.704   4.052
 9428SOL    HW140315   6.140   7.645   3.977
 9428SOL    HW240316   6.113   7.799   4.021
 9429SOL     OW40317   7.168   8.087   4.196
 9429SOL    HW140318   7.137   8.148   4.269
 9429SOL    HW240319   7.218   8.139   4.127
 9430SOL     OW40320   6.599   7.553   5.494
 9430SOL    HW140321   6.605   7.638   5.442
 9430SOL    HW240322   6.631   7.477   5.437
 9431SOL     OW40323   6.090   7.498   5.464
 9431SOL    HW140324   6.048   7.441   5.394
 9431SOL    HW240325   6.024   7.567   5.496
 9432SOL     OW40326   6.946   8.310   4.769
 9432SOL    HW140327   6.871   8.310   4.703
 9432SOL    HW240328   6.983   8.218   4.778
 9433SOL     OW40329   7.314   8.383   5.578
 9433SOL    HW140330   7.268   8.376   5.489
 9433SOL    HW240331   7.252   8.427   5.644
 9434SOL     OW40332   5.893   7.511   4.342
 9434SOL    HW140333   5.882   7.605   4.375
 9434SOL    HW240334   5.888   7.448   4.419
 9435SOL     OW40335   7.208   7.815   4.098
 9435SOL    HW140336   7.210   7.739   4.162
 9435SOL    HW240337   7.160   7.892   4.138
 9436SOL     OW40338   5.936   8.346   5.528
 9436SOL    HW140339   6.012   8.390   5.576
 9436SOL    HW240340   5.971   8.299   5.446
 9437SOL     OW40341   7.126   7.722   3.849
 9437SOL    HW140342   7.065   7.647   3.872
 9437SOL    HW240343   7.148   7.774   3.932
 9438SOL     OW40344   6.888   8.303   4.033
 9438SOL    HW140345   6.802   8.272   4.075
 9438SOL    HW240346   6.884   8.289   3.934
 9439SOL     OW40347   7.312   7.583   4.247
 9439SOL    HW140348   7.385   7.566   4.180
 9439SOL    HW240349   7.281   7.496   4.285
 9440SOL     OW40350   7.427   7.623   4.687
 9440SOL    HW140351   7.466   7.538   4.651
 9440SOL    HW240352   7.329   7.625   4.668
 9441SOL     OW40353   6.258   7.651   5.213
 9441SOL    HW140354   6.348   7.635   5.173
 9441SOL    HW240355   6.266   7.656   5.312
 9442SOL     OW40356   5.661   7.793   3.757
 9442SOL    HW140357   5.569   7.765   3.728
 9442SOL    HW240358   5.692   7.870   3.701
 9443SOL     OW40359   5.658   7.614   4.042
 9443SOL    HW140360   5.641   7.697   3.988
 9443SOL    HW240361   5.748   7.577   4.020
 9444SOL     OW40362   6.302   8.013   5.432
 9444SOL    HW140363   6.321   8.078   5.506
 9444SOL    HW240364   6.362   7.933   5.441
 9445SOL     OW40365   6.180   8.193   4.376
 9445SOL    HW140366   6.230   8.278   4.357
 9445SOL    HW240367   6.092   8.195   4.328
 9446SOL     OW40368   7.363   7.790   5.366
 9446SOL    HW140369   7.346   7.821   5.272
 9446SOL    HW240370   7.279   7.753   5.404
 9447SOL     OW40371   7.316   8.382   5.241
 9447SOL    HW140372   7.354   8.473   5.256
 9447SOL    HW240373   7.308   8.365   5.142
 9448SOL     OW40374   7.410   7.640   4.951
 9448SOL    HW140375   7.406   7.550   4.995
 9448SOL    HW240376   7.413   7.629   4.852
 9449SOL     OW40377   5.816   8.076   5.699
 9449SOL    HW140378   5.723   8.074   5.736
 9449SOL    HW240379   5.817   8.037   5.607
 9450SOL     OW40380   5.811   7.723   6.582
 9450SOL    HW140381   5.846   7.706   6.674
 9450SOL    HW240382   5.723   7.678   6.570
 9451SOL     OW40383   5.605   7.816   6.233
 9451SOL    HW140384   5.523   7.859   6.272
 9451SOL    HW240385   5.577   7.743   6.170
 9452SOL     OW40386   6.721   8.151   6.303
 9452SOL    HW140387   6.778   8.229   6.278
 9452SOL    HW240388   6.661   8.177   6.379
 9453SOL     OW40389   7.341   8.055   5.817
 9453SOL    HW140390   7.329   8.042   5.718
 9453SOL    HW240391   7.311   7.974   5.866
 9454SOL     OW40392   6.354   8.592   6.609
 9454SOL    HW140393   6.276   8.609   6.669
 9454SOL    HW240394   6.388   8.679   6.573
 9455SOL     OW40395   6.436   8.246   7.409
 9455SOL    HW140396   6.432   8.322   7.474
 9455SOL    HW240397   6.458   8.282   7.318
 9456SOL     OW40398   6.271   8.460   6.251
 9456SOL    HW140399   6.340   8.444   6.321
 9456SOL    HW240400   6.198   8.517   6.289
 9457SOL     OW40401   6.024   7.840   7.085
 9457SOL    HW140402   6.106   7.784   7.094
 9457SOL    HW240403   5.943   7.782   7.089
 9458SOL     OW40404   7.189   7.895   6.323
 9458SOL    HW140405   7.115   7.941   6.273
 9458SOL    HW240406   7.240   7.963   6.376
 9459SOL     OW40407   5.826   8.539   6.472
 9459SOL    HW140408   5.840   8.455   6.524
 9459SOL    HW240409   5.771   8.603   6.527
 9460SOL     OW40410   7.180   7.562   7.066
 9460SOL    HW140411   7.162   7.629   6.994
 9460SOL    HW240412   7.177   7.608   7.155
 9461SOL     OW40413   5.708   8.091   6.149
 9461SOL    HW140414   5.663   8.003   6.166
 9461SOL    HW240415   5.707   8.145   6.233
 9462SOL     OW40416   5.699   8.185   7.183
 9462SOL    HW140417   5.787   8.172   7.228
 9462SOL    HW240418   5.686   8.282   7.161
 9463SOL     OW40419   6.395   7.452   6.088
 9463SOL    HW140420   6.435   7.543   6.079
 9463SOL    HW240421   6.295   7.460   6.094
 9464SOL     OW40422   5.783   8.424   6.850
 9464SOL    HW140423   5.872   8.379   6.836
 9464SOL    HW240424   5.710   8.359   6.831
 9465SOL     OW40425   7.111   8.447   5.776
 9465SOL    HW140426   7.048   8.371   5.789
 9465SOL    HW240427   7.159   8.465   5.862
 9466SOL     OW40428   5.903   7.699   7.387
 9466SOL    HW140429   5.974   7.770   7.393
 9466SOL    HW240430   5.815   7.738   7.415
 9467SOL     OW40431   6.184   8.177   5.856
 9467SOL    HW140432   6.208   8.246   5.788
 9467SOL    HW240433   6.106   8.210   5.910
 9468SOL     OW40434   6.867   7.793   6.530
 9468SOL    HW140435   6.781   7.743   6.517
 9468SOL    HW240436   6.929   7.739   6.586
 9469SOL     OW40437   6.393   8.053   7.051
 9469SOL    HW140438   6.346   8.050   7.140
 9469SOL    HW240439   6.342   7.998   6.985
 9470SOL     OW40440   6.559   8.338   7.158
 9470SOL    HW140441   6.605   8.254   7.129
 9470SOL    HW240442   6.503   8.372   7.083
 9471SOL     OW40443   6.577   7.858   6.828
 9471SOL    HW140444   6.500   7.892   6.882
 9471SOL    HW240445   6.543   7.807   6.749
 9472SOL     OW40446   6.627   8.149   6.015
 9472SOL    HW140447   6.653   8.145   6.111
 9472SOL    HW240448   6.542   8.098   6.001
 9473SOL     OW40449   5.662   8.259   6.375
 9473SOL    HW140450   5.761   8.247   6.384
 9473SOL    HW240451   5.638   8.354   6.396
 9474SOL     OW40452   6.136   7.644   6.471
 9474SOL    HW140453   6.131   7.639   6.571
 9474SOL    HW240454   6.138   7.740   6.442
 9475SOL     OW40455   7.044   8.183   6.314
 9475SOL    HW140456   7.039   8.118   6.389
 9475SOL    HW240457   7.124   8.242   6.327
 9476SOL     OW40458   5.788   7.733   7.084
 9476SOL    HW140459   5.708   7.793   7.071
 9476SOL    HW240460   5.778   7.684   7.170
 9477SOL     OW40461   6.986   7.555   6.012
 9477SOL    HW140462   6.962   7.518   5.922
 9477SOL    HW240463   7.085   7.571   6.016
 9478SOL     OW40464   5.968   8.148   6.066
 9478SOL    HW140465   6.013   8.058   6.063
 9478SOL    HW240466   5.874   8.137   6.099
 9479SOL     OW40467   6.367   7.712   7.335
 9479SOL    HW140468   6.434   7.651   7.378
 9479SOL    HW240469   6.294   7.731   7.400
 9480SOL     OW40470   6.937   8.038   7.019
 9480SOL    HW140471   6.965   7.995   7.104
 9480SOL    HW240472   6.962   8.134   7.020
 9481SOL     OW40473   6.508   7.951   6.485
 9481SOL    HW140474   6.483   7.942   6.389
 9481SOL    HW240475   6.556   7.869   6.516
 9482SOL     OW40476   6.125   7.512   6.098
 9482SOL    HW140477   6.044   7.513   6.156
 9482SOL    HW240478   6.128   7.595   6.043
 9483SOL     OW40479   5.883   7.483   5.757
 9483SOL    HW140480   5.932   7.567   5.736
 9483SOL    HW240481   5.945   7.418   5.802
 9484SOL     OW40482   6.662   8.131   7.050
 9484SOL    HW140483   6.582   8.070   7.053
 9484SOL    HW240484   6.743   8.078   7.026
 9485SOL     OW40485   5.664   8.004   6.972
 9485SOL    HW140486   5.756   8.003   6.931
 9485SOL    HW240487   5.658   8.078   7.039
 9486SOL     OW40488   6.147   7.670   6.733
 9486SOL    HW140489   6.185   7.586   6.770
 9486SOL    HW240490   6.059   7.689   6.777
 9487SOL     OW40491   6.452   7.902   6.228
 9487SOL    HW140492   6.420   7.974   6.166
 9487SOL    HW240493   6.476   7.821   6.175
 9488SOL     OW40494   6.603   7.487   6.339
 9488SOL    HW140495   6.531   7.492   6.270
 9488SOL    HW240496   6.579   7.418   6.408
 9489SOL     OW40497   7.052   8.038   6.578
 9489SOL    HW140498   7.022   7.943   6.585
 9489SOL    HW240499   7.125   8.054   6.644
 9490SOL     OW40500   7.443   8.281   5.963
 9490SOL    HW140501   7.485   8.217   6.027
 9490SOL    HW240502   7.405   8.230   5.885
 9491SOL     OW40503   6.113   7.704   5.914
 9491SOL    HW140504   6.140   7.645   5.839
 9491SOL    HW240505   6.113   7.799   5.883
 9492SOL     OW40506   7.224   8.547   6.665
 9492SOL    HW140507   7.229   8.628   6.724
 9492SOL    HW240508   7.138   8.549   6.614
 9493SOL     OW40509   6.501   7.537   6.988
 9493SOL    HW140510   6.526   7.517   6.893
 9493SOL    HW240511   6.573   7.593   7.030
 9494SOL     OW40512   5.996   8.261   6.837
 9494SOL    HW140513   6.082   8.273   6.887
 9494SOL    HW240514   5.954   8.174   6.864
 9495SOL     OW40515   6.860   7.834   6.848
 9495SOL    HW140516   6.881   7.908   6.912
 9495SOL    HW240517   6.771   7.851   6.805
 9496SOL     OW40518   6.152   7.985   6.451
 9496SOL    HW140519   6.164   8.051   6.377
 9496SOL    HW240520   6.198   8.019   6.534
 9497SOL     OW40521   7.168   8.087   6.058
 9497SOL    HW140522   7.137   8.148   6.131
 9497SOL    HW240523   7.218   8.139   5.989
 9498SOL     OW40524   5.988   8.199   7.184
 9498SOL    HW140525   6.056   8.254   7.137
 9498SOL    HW240526   6.028   8.111   7.211
 9499SOL     OW40527   7.173   8.227   7.256
 9499SOL    HW140528   7.081   8.265   7.251
 9499SOL    HW240529   7.233   8.274   7.191
 9500SOL     OW40530   6.159   8.318   6.615
 9500SOL    HW140531   6.203   8.407   6.606
 9500SOL    HW240532   6.096   8.318   6.692
 9501SOL     OW40533   6.946   8.310   6.631
 9501SOL    HW140534   6.871   8.310   6.565
 9501SOL    HW240535   6.983   8.218   6.640
 9502SOL     OW40536   5.893   7.661   6.817
 9502SOL    HW140537   5.870   7.698   6.907
 9502SOL    HW240538   5.863   7.566   6.811
 9503SOL     OW40539   6.318   8.082   6.650
 9503SOL    HW140540   6.377   8.056   6.574
 9503SOL    HW240541   6.290   8.178   6.639
 9504SOL     OW40542   7.314   8.383   7.440
 9504SOL    HW140543   7.268   8.376   7.351
 9504SOL    HW240544   7.252   8.427   7.506
 9505SOL     OW40545   5.893   7.511   6.204
 9505SOL    HW140546   5.882   7.605   6.237
 9505SOL    HW240547   5.888   7.448   6.281
 9506SOL     OW40548   7.208   7.815   5.960
 9506SOL    HW140549   7.210   7.739   6.024
 9506SOL    HW240550   7.160   7.892   6.000
 9507SOL     OW40551   6.609   8.214   6.552
 9507SOL    HW140552   6.624   8.235   6.648
 9507SOL    HW240553   6.579   8.119   6.543
 9508SOL     OW40554   5.936   8.346   7.390
 9508SOL    HW140555   6.012   8.390   7.438
 9508SOL    HW240556   5.971   8.299   7.308
 9509SOL     OW40557   7.126   7.722   5.711
 9509SOL    HW140558   7.065   7.647   5.734
 9509SOL    HW240559   7.148   7.774   5.794
 9510SOL     OW40560   6.889   8.286   5.628
 9510SOL    HW140561   6.923   8.193   5.643
 9510SOL    HW240562   6.907   8.313   5.533
 9511SOL     OW40563   5.905   8.258   6.535
 9511SOL    HW140564   5.998   8.294   6.540
 9511SOL    HW240565   5.899   8.173   6.587
 9512SOL     OW40566   5.925   7.957   6.592
 9512SOL    HW140567   5.873   7.874   6.575
 9512SOL    HW240568   6.002   7.962   6.528
 9513SOL     OW40569   6.724   7.828   7.264
 9513SOL    HW140570   6.679   7.891   7.328
 9513SOL    HW240571   6.817   7.859   7.247
 9514SOL     OW40572   6.746   7.655   7.063
 9514SOL    HW140573   6.746   7.719   7.140
 9514SOL    HW240574   6.774   7.703   6.980
 9515SOL     OW40575   6.588   8.244   6.824
 9515SOL    HW140576   6.629   8.212   6.910
 9515SOL    HW240577   6.492   8.217   6.821
 9516SOL     OW40578   5.626   7.992   6.700
 9516SOL    HW140579   5.711   7.959   6.659
 9516SOL    HW240580   5.639   8.007   6.798
 9517SOL     OW40581   6.401   8.020   5.911
 9517SOL    HW140582   6.408   7.931   5.865
 9517SOL    HW240583   6.307   8.054   5.903
 9518SOL     OW40584   7.243   8.052   6.792
 9518SOL    HW140585   7.205   7.983   6.854
 9518SOL    HW240586   7.325   8.016   6.748
 9519SOL     OW40587   6.257   7.912   6.855
 9519SOL    HW140588   6.223   7.823   6.825
 9519SOL    HW240589   6.283   7.966   6.775
 9520SOL     OW40590   6.059   7.948   5.777
 9520SOL    HW140591   6.120   8.028   5.781
 9520SOL    HW240592   5.964   7.979   5.784
 9521SOL     OW40593   5.745   8.585   7.052
 9521SOL    HW140594   5.767   8.524   7.128
 9521SOL    HW240595   5.755   8.536   6.966
 9522SOL     OW40596   6.933   8.507   6.820
 9522SOL    HW140597   6.957   8.444   6.746
 9522SOL    HW240598   6.843   8.547   6.802
 9523SOL     OW40599   6.888   8.303   5.895
 9523SOL    HW140600   6.802   8.272   5.937
 9523SOL    HW240601   6.884   8.289   5.796
 9524SOL     OW40602   7.312   7.583   6.109
 9524SOL    HW140603   7.385   7.566   6.042
 9524SOL    HW240604   7.281   7.496   6.147
 9525SOL     OW40605   6.866   8.375   6.258
 9525SOL    HW140606   6.926   8.294   6.260
 9525SOL    HW240607   6.906   8.444   6.198
 9526SOL     OW40608   7.427   7.623   6.549
 9526SOL    HW140609   7.466   7.538   6.513
 9526SOL    HW240610   7.329   7.625   6.530
 9527SOL     OW40611   5.849   7.774   6.306
 9527SOL    HW140612   5.770   7.825   6.272
 9527SOL    HW240613   5.840   7.759   6.404
 9528SOL     OW40614   6.502   8.358   5.877
 9528SOL    HW140615   6.565   8.396   5.809
 9528SOL    HW240616   6.542   8.275   5.916
 9529SOL     OW40617   6.600   7.684   6.557
 9529SOL    HW140618   6.592   7.648   6.464
 9529SOL    HW240619   6.598   7.608   6.622
 9530SOL     OW40620   7.295   7.833   6.967
 9530SOL    HW140621   7.368   7.902   6.971
 9530SOL    HW240622   7.323   7.758   6.908
 9531SOL     OW40623   5.691   8.461   7.312
 9531SOL    HW140624   5.614   8.428   7.366
 9531SOL    HW240625   5.776   8.431   7.354
 9532SOL     OW40626   6.258   7.651   7.075
 9532SOL    HW140627   6.348   7.635   7.035
 9532SOL    HW240628   6.266   7.656   7.174
 9533SOL     OW40629   7.026   8.304   6.984
 9533SOL    HW140630   6.969   8.356   6.921
 9533SOL    HW240631   7.122   8.316   6.960
 9534SOL     OW40632   6.199   8.290   7.017
 9534SOL    HW140633   6.255   8.371   7.000
 9534SOL    HW240634   6.258   8.210   7.020
 9535SOL     OW40635   6.302   8.013   7.294
 9535SOL    HW140636   6.321   8.078   7.368
 9535SOL    HW240637   6.362   7.933   7.303
 9536SOL     OW40638   7.260   8.331   6.840
 9536SOL    HW140639   7.233   8.242   6.803
 9536SOL    HW240640   7.261   8.399   6.767
 9537SOL     OW40641   6.811   7.773   6.035
 9537SOL    HW140642   6.876   7.699   6.024
 9537SOL    HW240643   6.831   7.823   6.119
 9538SOL     OW40644   6.180   8.193   6.238
 9538SOL    HW140645   6.230   8.278   6.219
 9538SOL    HW240646   6.092   8.195   6.190
 9539SOL     OW40647   7.363   7.790   7.228
 9539SOL    HW140648   7.346   7.821   7.134
 9539SOL    HW240649   7.279   7.753   7.266
 9540SOL     OW40650   7.316   8.382   7.103
 9540SOL    HW140651   7.354   8.473   7.118
 9540SOL    HW240652   7.308   8.365   7.004
 9541SOL     OW40653   6.669   8.432   5.673
 9541SOL    HW140654   6.646   8.485   5.591
 9541SOL    HW240655   6.750   8.376   5.654
 9542SOL     OW40656   7.410   7.640   6.813
 9542SOL    HW140657   7.406   7.550   6.857
 9542SOL    HW240658   7.413   7.629   6.714
 9543SOL     OW40659   6.014   7.872   6.106
 9543SOL    HW140660   6.044   7.800   6.044
 9543SOL    HW240661   5.975   7.832   6.189
 9544SOL     OW40662   5.903   7.995   6.866
 9544SOL    HW140663   5.941   7.936   6.938
 9544SOL    HW240664   5.943   7.969   6.778
 9545SOL     OW40665   7.010   7.662   6.698
 9545SOL    HW140666   7.062   7.597   6.753
 9545SOL    HW240667   6.961   7.725   6.759
 9546SOL     OW40668   6.587   7.482   6.740
 9546SOL    HW140669   6.524   7.410   6.709
 9546SOL    HW240670   6.680   7.446   6.740
 9547SOL     OW40671   6.938   7.500   5.754
 9547SOL    HW140672   6.973   7.459   5.670
 9547SOL    HW240673   6.848   7.462   5.774
 9548SOL     OW40674   6.886   7.901   6.277
 9548SOL    HW140675   6.827   7.981   6.281
 9548SOL    HW240676   6.901   7.866   6.370
 9549SOL     OW40677   7.179   7.669   6.468
 9549SOL    HW140678   7.095   7.668   6.522
 9549SOL    HW240679   7.181   7.752   6.412
 9550SOL     OW40680   7.678   0.628   0.113
 9550SOL    HW140681   7.585   0.626   0.150
 9550SOL    HW240682   7.679   0.589   0.021
 9551SOL     OW40683   7.673   0.275   0.996
 9551SOL    HW140684   7.708   0.258   1.088
 9551SOL    HW240685   7.585   0.230   0.984
 9552SOL     OW40686   7.467   0.368   0.647
 9552SOL    HW140687   7.385   0.411   0.686
 9552SOL    HW240688   7.439   0.295   0.584
 9553SOL     OW40689   8.017   1.275   1.165
 9553SOL    HW140690   7.924   1.268   1.128
 9553SOL    HW240691   8.028   1.364   1.209
 9554SOL     OW40692   9.003   1.511   0.703
 9554SOL    HW140693   8.946   1.495   0.784
 9554SOL    HW240694   8.944   1.521   0.623
 9555SOL     OW40695   8.583   0.703   0.717
 9555SOL    HW140696   8.640   0.781   0.692
 9555SOL    HW240697   8.523   0.729   0.793
 9556SOL     OW40698   9.203   0.607   0.231
 9556SOL    HW140699   9.191   0.594   0.132
 9556SOL    HW240700   9.173   0.526   0.280
 9557SOL     OW40701   8.216   1.144   1.023
 9557SOL    HW140702   8.138   1.161   1.083
 9557SOL    HW240703   8.250   1.231   0.987
 9558SOL     OW40704   8.298   0.798   1.823
 9558SOL    HW140705   8.294   0.874   1.888
 9558SOL    HW240706   8.320   0.834   1.732
 9559SOL     OW40707   8.133   1.012   0.665
 9559SOL    HW140708   8.202   0.996   0.735
 9559SOL    HW240709   8.060   1.069   0.703
 9560SOL     OW40710   8.134   1.161   1.803
 9560SOL    HW140711   8.194   1.240   1.817
 9560SOL    HW240712   8.048   1.192   1.762
 9561SOL     OW40713   7.783   1.435   1.061
 9561SOL    HW140714   7.705   1.404   1.008
 9561SOL    HW240715   7.841   1.493   1.004
 9562SOL     OW40716   7.886   0.392   1.499
 9562SOL    HW140717   7.968   0.336   1.508
 9562SOL    HW240718   7.805   0.334   1.503
 9563SOL     OW40719   9.051   0.447   0.737
 9563SOL    HW140720   8.977   0.493   0.687
 9563SOL    HW240721   9.102   0.515   0.790
 9564SOL     OW40722   7.679   1.713   0.483
 9564SOL    HW140723   7.713   1.790   0.537
 9564SOL    HW240724   7.723   1.713   0.393
 9565SOL     OW40725   7.678   1.434   0.538
 9565SOL    HW140726   7.652   1.530   0.538
 9565SOL    HW240727   7.607   1.380   0.583
 9566SOL     OW40728   7.688   1.091   0.886
 9566SOL    HW140729   7.702   1.007   0.938
 9566SOL    HW240730   7.633   1.155   0.941
 9567SOL     OW40731   8.068   1.786   1.439
 9567SOL    HW140732   7.976   1.769   1.474
 9567SOL    HW240733   8.096   1.878   1.465
 9568SOL     OW40734   8.054   0.964   0.123
 9568SOL    HW140735   8.061   1.048   0.069
 9568SOL    HW240736   8.100   0.977   0.211
 9569SOL     OW40737   7.570   0.643   0.563
 9569SOL    HW140738   7.525   0.555   0.580
 9569SOL    HW240739   7.569   0.697   0.647
 9570SOL     OW40740   9.290   1.767   0.359
 9570SOL    HW140741   9.344   1.738   0.439
 9570SOL    HW240742   9.320   1.857   0.330
 9571SOL     OW40743   7.475   1.596   0.117
 9571SOL    HW140744   7.456   1.500   0.138
 9571SOL    HW240745   7.442   1.654   0.192
 9572SOL     OW40746   9.137   0.922   0.612
 9572SOL    HW140747   9.232   0.893   0.620
 9572SOL    HW240748   9.129   0.987   0.537
 9573SOL     OW40749   9.089   1.108   0.432
 9573SOL    HW140750   9.175   1.110   0.380
 9573SOL    HW240751   9.103   1.155   0.520
 9574SOL     OW40752   8.061   1.365   0.726
 9574SOL    HW140753   8.012   1.278   0.735
 9574SOL    HW240754   8.038   1.408   0.639
 9575SOL     OW40755   8.257   0.004   0.502
 9575SOL    HW140756   8.297   0.095   0.493
 9575SOL    HW240757   8.157   0.012   0.508
 9576SOL     OW40758   8.973   0.999   0.190
 9576SOL    HW140759   8.910   0.923   0.203
 9576SOL    HW240760   9.021   1.017   0.276
 9577SOL     OW40761   9.115   1.714   0.572
 9577SOL    HW140762   9.074   1.691   0.484
 9577SOL    HW240763   9.097   1.640   0.637
 9578SOL     OW40764   8.046   0.729   0.270
 9578SOL    HW140765   8.070   0.798   0.202
 9578SOL    HW240766   7.968   0.762   0.324
 9579SOL     OW40767   8.729   0.345   0.944
 9579SOL    HW140768   8.643   0.295   0.931
 9579SOL    HW240769   8.791   0.291   1.000
 9580SOL     OW40770   9.024   1.662   0.307
 9580SOL    HW140771   9.113   1.708   0.310
 9580SOL    HW240772   9.003   1.638   0.212
 9581SOL     OW40773   8.842   0.469   1.674
 9581SOL    HW140774   8.822   0.512   1.762
 9581SOL    HW240775   8.920   0.407   1.683
 9582SOL     OW40776   8.421   0.890   1.572
 9582SOL    HW140777   8.467   0.806   1.543
 9582SOL    HW240778   8.365   0.924   1.497
 9583SOL     OW40779   8.489   0.701   0.429
 9583SOL    HW140780   8.515   0.697   0.525
 9583SOL    HW240781   8.404   0.650   0.415
 9584SOL     OW40782   7.524   0.811   0.789
 9584SOL    HW140783   7.623   0.799   0.798
 9584SOL    HW240784   7.500   0.906   0.810
 9585SOL     OW40785   8.313   0.348   0.195
 9585SOL    HW140786   8.372   0.411   0.146
 9585SOL    HW240787   8.332   0.254   0.166
 9586SOL     OW40788   8.810   1.144   0.545
 9586SOL    HW140789   8.893   1.115   0.497
 9586SOL    HW240790   8.761   1.211   0.489
 9587SOL     OW40791   7.998   0.196   0.885
 9587SOL    HW140792   7.993   0.191   0.985
 9587SOL    HW240793   8.000   0.292   0.856
 9588SOL     OW40794   8.456   1.456   0.477
 9588SOL    HW140795   8.410   1.528   0.425
 9588SOL    HW240796   8.452   1.476   0.575
 9589SOL     OW40797   7.799   1.801   0.853
 9589SOL    HW140798   7.849   1.715   0.859
 9589SOL    HW240799   7.864   1.878   0.850
 9590SOL     OW40800   7.769   0.943   0.242
 9590SOL    HW140801   7.851   0.982   0.200
 9590SOL    HW240802   7.742   0.861   0.193
 9591SOL     OW40803   8.906   0.735   0.728
 9591SOL    HW140804   8.901   0.670   0.803
 9591SOL    HW240805   8.986   0.794   0.741
 9592SOL     OW40806   7.909   1.266   1.727
 9592SOL    HW140807   7.859   1.267   1.641
 9592SOL    HW240808   7.846   1.248   1.803
 9593SOL     OW40809   8.559   1.776   0.237
 9593SOL    HW140810   8.499   1.714   0.287
 9593SOL    HW240811   8.590   1.732   0.152
 9594SOL     OW40812   7.650   0.285   1.498
 9594SOL    HW140813   7.570   0.345   1.485
 9594SOL    HW240814   7.640   0.236   1.584
 9595SOL     OW40815   9.080   1.377   0.081
 9595SOL    HW140816   9.048   1.471   0.071
 9595SOL    HW240817   9.004   1.314   0.069
 9596SOL     OW40818   7.912   1.743   0.323
 9596SOL    HW140819   7.945   1.782   0.409
 9596SOL    HW240820   7.988   1.736   0.258
 9597SOL     OW40821   8.848   0.107   0.426
 9597SOL    HW140822   8.824   0.070   0.336
 9597SOL    HW240823   8.947   0.123   0.430
 9598SOL     OW40824   8.388   1.698   0.904
 9598SOL    HW140825   8.468   1.641   0.925
 9598SOL    HW240826   8.339   1.658   0.827
 9599SOL     OW40827   7.830   0.700   0.480
 9599SOL    HW140828   7.875   0.610   0.477
 9599SOL    HW240829   7.736   0.689   0.513
 9600SOL     OW40830   8.062   0.122   0.117
 9600SOL    HW140831   8.160   0.100   0.124
 9600SOL    HW240832   8.031   0.105   0.024
 9601SOL     OW40833   8.336   1.514   1.195
 9601SOL    HW140834   8.313   1.489   1.101
 9601SOL    HW240835   8.397   1.445   1.234
 9602SOL     OW40836   8.251   1.402   0.924
 9602SOL    HW140837   8.341   1.416   0.882
 9602SOL    HW240838   8.180   1.404   0.853
 9603SOL     OW40839   7.987   0.064   0.512
 9603SOL    HW140840   7.906   0.065   0.570
 9603SOL    HW240841   7.990   0.147   0.457
 9604SOL     OW40842   8.882   1.188   0.041
 9604SOL    HW140843   8.914   1.112   0.098
 9604SOL    HW240844   8.790   1.215   0.071
 9605SOL     OW40845   7.745   0.035   0.171
 9605SOL    HW140846   7.794   0.119   0.150
 9605SOL    HW240847   7.807  -0.030   0.216
 9606SOL     OW40848   8.383   0.236   0.480
 9606SOL    HW140849   8.335   0.277   0.402
 9606SOL    HW240850   8.482   0.234   0.461
 9607SOL     OW40851   8.524   0.683   1.464
 9607SOL    HW140852   8.444   0.622   1.467
 9607SOL    HW240853   8.605   0.630   1.440
 9608SOL     OW40854   8.675   1.570   0.793
 9608SOL    HW140855   8.696   1.644   0.728
 9608SOL    HW240856   8.743   1.570   0.866
 9609SOL     OW40857   7.907   1.152   0.741
 9609SOL    HW140858   7.836   1.125   0.806
 9609SOL    HW240859   7.881   1.124   0.648
 9610SOL     OW40860   8.719   1.797   0.591
 9610SOL    HW140861   8.763   1.861   0.527
 9610SOL    HW240862   8.669   1.849   0.661
 9611SOL     OW40863   8.480   0.549   0.016
 9611SOL    HW140864   8.439   0.631  -0.023
 9611SOL    HW240865   8.544   0.575   0.089
 9612SOL     OW40866   8.314   0.454   0.642
 9612SOL    HW140867   8.282   0.526   0.580
 9612SOL    HW240868   8.338   0.373   0.589
 9613SOL     OW40869   8.465   0.039   0.753
 9613SOL    HW140870   8.393   0.044   0.684
 9613SOL    HW240871   8.441  -0.030   0.822
 9614SOL     OW40872   8.914   0.590   0.992
 9614SOL    HW140873   8.884   0.495   0.999
 9614SOL    HW240874   8.987   0.606   1.058
 9615SOL     OW40875   9.305   0.833   0.377
 9615SOL    HW140876   9.347   0.769   0.441
 9615SOL    HW240877   9.267   0.782   0.299
 9616SOL     OW40878   7.936   1.385   0.174
 9616SOL    HW140879   7.849   1.370   0.221
 9616SOL    HW240880   7.919   1.411   0.079
 9617SOL     OW40881   9.112   1.280   0.657
 9617SOL    HW140882   9.211   1.288   0.671
 9617SOL    HW240883   9.067   1.364   0.688
 9618SOL     OW40884   8.838   0.575   0.078
 9618SOL    HW140885   8.784   0.554   0.159
 9618SOL    HW240886   8.929   0.534   0.087
 9619SOL     OW40887   7.975   0.256   0.328
 9619SOL    HW140888   8.002   0.197   0.253
 9619SOL    HW240889   7.975   0.351   0.297
 9620SOL     OW40890   9.040   1.629   1.625
 9620SOL    HW140891   9.067   1.663   1.535
 9620SOL    HW240892   9.119   1.591   1.671
 9621SOL     OW40893   8.559   1.195   1.100
 9621SOL    HW140894   8.519   1.239   1.181
 9621SOL    HW240895   8.518   1.232   1.017
 9622SOL     OW40896   8.428   1.116   1.719
 9622SOL    HW140897   8.329   1.122   1.729
 9622SOL    HW240898   8.451   1.036   1.663
 9623SOL     OW40899   8.153   1.050   0.368
 9623SOL    HW140900   8.139   1.057   0.467
 9623SOL    HW240901   8.237   0.999   0.350
 9624SOL     OW40902   8.722   0.386   1.262
 9624SOL    HW140903   8.743   0.460   1.326
 9624SOL    HW240904   8.633   0.403   1.219
 9625SOL     OW40905   7.512   1.564   1.331
 9625SOL    HW140906   7.466   1.646   1.297
 9625SOL    HW240907   7.610   1.583   1.340
 9626SOL     OW40908   7.815   1.100   0.501
 9626SOL    HW140909   7.808   1.183   0.445
 9626SOL    HW240910   7.819   1.020   0.441
 9627SOL     OW40911   8.014   0.537   0.865
 9627SOL    HW140912   8.026   0.603   0.791
 9627SOL    HW240913   8.060   0.571   0.948
 9628SOL     OW40914   8.700   1.348   0.388
 9628SOL    HW140915   8.750   1.425   0.428
 9628SOL    HW240916   8.605   1.350   0.420
 9629SOL     OW40917   8.720   1.445   1.142
 9629SOL    HW140918   8.767   1.458   1.229
 9629SOL    HW240919   8.654   1.371   1.151
 9630SOL     OW40920   9.030   0.639   0.472
 9630SOL    HW140921   8.999   0.700   0.545
 9630SOL    HW240922   9.080   0.691   0.403
 9631SOL     OW40923   7.802   1.510   1.329
 9631SOL    HW140924   7.781   1.466   1.242
 9631SOL    HW240925   7.899   1.536   1.332
 9632SOL     OW40926   8.021   0.870   1.029
 9632SOL    HW140927   8.065   0.959   1.020
 9632SOL    HW240928   7.958   0.870   1.106
 9633SOL     OW40929   8.808   0.862   1.045
 9633SOL    HW140930   8.733   0.862   0.979
 9633SOL    HW240931   8.845   0.770   1.054
 9634SOL     OW40932   8.657   0.525   0.275
 9634SOL    HW140933   8.670   0.441   0.329
 9634SOL    HW240934   8.628   0.599   0.335
 9635SOL     OW40935   7.485   1.310   1.282
 9635SOL    HW140936   7.538   1.261   1.350
 9635SOL    HW240937   7.507   1.408   1.287
 9636SOL     OW40938   8.180   0.634   1.064
 9636SOL    HW140939   8.239   0.608   0.988
 9636SOL    HW240940   8.152   0.730   1.053
 9637SOL     OW40941   7.755   0.063   0.618
 9637SOL    HW140942   7.744   0.157   0.651
 9637SOL    HW240943   7.750   0.000   0.695
 9638SOL     OW40944   9.070   0.367   0.374
 9638SOL    HW140945   9.072   0.291   0.438
 9638SOL    HW240946   9.022   0.444   0.414
 9639SOL     OW40947   9.307   1.518   1.605
 9639SOL    HW140948   9.321   1.545   1.510
 9639SOL    HW240949   9.390   1.540   1.658
 9640SOL     OW40950   8.988   0.274   0.125
 9640SOL    HW140951   8.927   0.199   0.148
 9640SOL    HW240952   9.010   0.326   0.208
 9641SOL     OW40953   8.751   0.838   0.042
 9641SOL    HW140954   8.785   0.745   0.057
 9641SOL    HW240955   8.769   0.865  -0.053
 9642SOL     OW40956   8.516   1.333   0.849
 9642SOL    HW140957   8.523   1.249   0.794
 9642SOL    HW240958   8.578   1.402   0.813
 9643SOL     OW40959   7.767   0.810   0.949
 9643SOL    HW140960   7.860   0.846   0.954
 9643SOL    HW240961   7.761   0.725   1.001
 9644SOL     OW40962   7.787   0.509   1.006
 9644SOL    HW140963   7.735   0.426   0.989
 9644SOL    HW240964   7.864   0.514   0.942
 9645SOL     OW40965   8.608   0.207   1.477
 9645SOL    HW140966   8.608   0.271   1.554
 9645SOL    HW240967   8.636   0.255   1.394
 9646SOL     OW40968   7.456   1.326   0.200
 9646SOL    HW140969   7.363   1.347   0.169
 9646SOL    HW240970   7.466   1.227   0.213
 9647SOL     OW40971   7.536   1.801   0.927
 9647SOL    HW140972   7.494   1.715   0.900
 9647SOL    HW240973   7.630   1.804   0.893
 9648SOL     OW40974   7.952   1.568   0.910
 9648SOL    HW140975   8.018   1.642   0.919
 9648SOL    HW240976   7.996   1.489   0.868
 9649SOL     OW40977   8.450   0.796   1.238
 9649SOL    HW140978   8.491   0.764   1.324
 9649SOL    HW240979   8.354   0.769   1.235
 9650SOL     OW40980   7.488   0.544   1.114
 9650SOL    HW140981   7.573   0.511   1.073
 9650SOL    HW240982   7.501   0.559   1.212
 9651SOL     OW40983   8.263   0.572   0.325
 9651SOL    HW140984   8.270   0.483   0.279
 9651SOL    HW240985   8.169   0.606   0.317
 9652SOL     OW40986   7.700   1.564   1.744
 9652SOL    HW140987   7.670   1.621   1.820
 9652SOL    HW240988   7.693   1.467   1.770
 9653SOL     OW40989   7.921   0.500   0.191
 9653SOL    HW140990   7.982   0.580   0.195
 9653SOL    HW240991   7.826   0.531   0.198
 9654SOL     OW40992   8.750   0.855   0.309
 9654SOL    HW140993   8.664   0.824   0.351
 9654SOL    HW240994   8.746   0.841   0.210
 9655SOL     OW40995   9.207   1.747   1.154
 9655SOL    HW140996   9.268   1.777   1.081
 9655SOL    HW240997   9.169   1.658   1.132
 9656SOL     OW40998   7.531   1.258   1.022
 9656SOL    HW140999   7.526   1.257   1.122
 9656SOL    HW241000   7.448   1.217   0.984
 9657SOL     OW41001   8.351   0.086   0.133
 9657SOL    HW141002   8.402   0.087   0.047
 9657SOL    HW241003   8.407   0.044   0.204
 9658SOL     OW41004   9.174   0.135   0.523
 9658SOL    HW141005   9.247   0.118   0.456
 9658SOL    HW241006   9.143   0.048   0.561
 9659SOL     OW41007   8.836   1.573   0.477
 9659SOL    HW141008   8.903   1.585   0.403
 9659SOL    HW241009   8.796   1.662   0.500
 9660SOL     OW41010   8.728   0.927   0.672
 9660SOL    HW141011   8.788   0.846   0.674
 9660SOL    HW241012   8.768   0.996   0.612
 9661SOL     OW41013   8.278   1.273   1.422
 9661SOL    HW141014   8.273   1.306   1.517
 9661SOL    HW241015   8.192   1.292   1.376
 9662SOL     OW41016   8.120   1.616   0.154
 9662SOL    HW141017   8.129   1.626   0.055
 9662SOL    HW241018   8.080   1.527   0.175
 9663SOL     OW41019   9.098   1.720   1.394
 9663SOL    HW141020   9.151   1.730   1.310
 9663SOL    HW241021   9.071   1.810   1.428
 9664SOL     OW41022   9.289   0.175   0.963
 9664SOL    HW141023   9.328   0.090   0.927
 9664SOL    HW241024   9.191   0.177   0.944
 9665SOL     OW41025   7.711   0.326   0.720
 9665SOL    HW141026   7.632   0.377   0.686
 9665SOL    HW241027   7.702   0.311   0.818
 9666SOL     OW41028   8.642   1.612   0.031
 9666SOL    HW141029   8.648   1.519   0.068
 9666SOL    HW241030   8.583   1.612  -0.049
 9667SOL     OW41031   8.270   1.002   1.372
 9667SOL    HW141032   8.310   1.001   1.280
 9667SOL    HW241033   8.280   1.094   1.412
 9668SOL     OW41034   8.364   0.910   0.291
 9668SOL    HW141035   8.427   0.948   0.223
 9668SOL    HW241036   8.404   0.827   0.330
 9669SOL     OW41037   8.952   1.607   0.044
 9669SOL    HW141038   8.860   1.644   0.051
 9669SOL    HW241039   8.990   1.627  -0.046
 9670SOL     OW41040   9.062   1.292   1.289
 9670SOL    HW141041   9.122   1.295   1.369
 9670SOL    HW241042   8.987   1.356   1.302
 9671SOL     OW41043   8.487   1.098   0.696
 9671SOL    HW141044   8.417   1.051   0.750
 9671SOL    HW241045   8.546   1.030   0.653
 9672SOL     OW41046   8.038   1.487   0.491
 9672SOL    HW141047   8.080   1.429   0.421
 9672SOL    HW241048   7.994   1.566   0.447
 9673SOL     OW41049   7.703   1.348   0.290
 9673SOL    HW141050   7.607   1.349   0.263
 9673SOL    HW241051   7.715   1.401   0.374
 9674SOL     OW41052   7.523   0.345   0.033
 9674SOL    HW141053   7.431   0.317   0.004
 9674SOL    HW241054   7.554   0.422  -0.023
 9675SOL     OW41055   7.520   0.166   0.318
 9675SOL    HW141056   7.503   0.249   0.264
 9675SOL    HW241057   7.610   0.129   0.296
 9676SOL     OW41058   8.631   1.335   0.119
 9676SOL    HW141059   8.532   1.324   0.121
 9676SOL    HW241060   8.665   1.350   0.212
 9677SOL     OW41061   8.941   1.767   0.959
 9677SOL    HW141062   8.974   1.831   0.890
 9677SOL    HW241063   9.007   1.761   1.034
 9678SOL     OW41064   8.673   0.325   0.449
 9678SOL    HW141065   8.738   0.251   0.438
 9678SOL    HW241066   8.693   0.375   0.533
 9679SOL     OW41067   8.042   0.745   0.652
 9679SOL    HW141068   8.092   0.830   0.633
 9679SOL    HW241069   7.954   0.747   0.604
 9680SOL     OW41070   8.307   1.374   0.016
 9680SOL    HW141071   8.261   1.389   0.104
 9680SOL    HW241072   8.351   1.459  -0.014
 9681SOL     OW41073   8.109   1.790   0.953
 9681SOL    HW141074   8.063   1.878   0.940
 9681SOL    HW241075   8.208   1.802   0.946
 9682SOL     OW41076   8.307   0.956   0.861
 9682SOL    HW141077   8.361   0.887   0.909
 9682SOL    HW241078   8.275   1.025   0.927
 9683SOL     OW41079   8.531   0.984   0.087
 9683SOL    HW141080   8.508   1.037   0.005
 9683SOL    HW241081   8.612   0.928   0.068
 9684SOL     OW41082   9.309   1.569   0.851
 9684SOL    HW141083   9.238   1.557   0.781
 9684SOL    HW241084   9.310   1.490   0.911
 9685SOL     OW41085   7.527   1.240   0.653
 9685SOL    HW141086   7.526   1.193   0.741
 9685SOL    HW241087   7.609   1.212   0.602
 9686SOL     OW41088   9.272   0.192   1.227
 9686SOL    HW141089   9.268   0.102   1.271
 9686SOL    HW241090   9.275   0.181   1.128
 9687SOL     OW41091   7.876   0.424   0.520
 9687SOL    HW141092   7.906   0.352   0.458
 9687SOL    HW241093   7.837   0.384   0.603
 9688SOL     OW41094   9.153   1.487   1.104
 9688SOL    HW141095   9.060   1.462   1.077
 9688SOL    HW241096   9.179   1.437   1.186
 9689SOL     OW41097   7.765   0.547   1.280
 9689SOL    HW141098   7.803   0.488   1.352
 9689SOL    HW241099   7.805   0.521   1.192
 9690SOL     OW41100   8.260   1.586   0.687
 9690SOL    HW141101   8.292   1.596   0.593
 9690SOL    HW241102   8.181   1.524   0.689
 9691SOL     OW41103   8.872   0.214   1.112
 9691SOL    HW141104   8.924   0.149   1.167
 9691SOL    HW241105   8.823   0.277   1.173
 9692SOL     OW41106   8.449   0.034   1.154
 9692SOL    HW141107   8.386  -0.038   1.123
 9692SOL    HW241108   8.542  -0.002   1.154
 9693SOL     OW41109   8.218   1.330   0.301
 9693SOL    HW141110   8.172   1.243   0.318
 9693SOL    HW241111   8.309   1.327   0.342
 9694SOL     OW41112   8.066   1.567   1.284
 9694SOL    HW141113   8.061   1.649   1.341
 9694SOL    HW241114   8.155   1.564   1.239
 9695SOL     OW41115   8.800   0.052   0.168
 9695SOL    HW141116   8.835   0.011   0.084
 9695SOL    HW241117   8.710   0.014   0.188
 9696SOL     OW41118   8.748   0.453   0.691
 9696SOL    HW141119   8.689   0.533   0.695
 9696SOL    HW241120   8.763   0.418   0.784
 9697SOL     OW41121   9.041   0.221   0.882
 9697SOL    HW141122   8.957   0.220   0.936
 9697SOL    HW241123   9.043   0.304   0.826
 9698SOL     OW41124   7.487   1.077   0.300
 9698SOL    HW141125   7.586   1.066   0.291
 9698SOL    HW241126   7.447   0.991   0.332
 9699SOL     OW41127   8.323   1.646   0.337
 9699SOL    HW141128   8.246   1.611   0.283
 9699SOL    HW241129   8.291   1.717   0.399
 9700SOL     OW41130   7.673   0.275   2.858
 9700SOL    HW141131   7.708   0.258   2.950
 9700SOL    HW241132   7.585   0.230   2.846
 9701SOL     OW41133   9.003   1.511   2.565
 9701SOL    HW141134   8.946   1.495   2.646
 9701SOL    HW241135   8.944   1.521   2.485
 9702SOL     OW41136   8.298   0.798   3.685
 9702SOL    HW141137   8.294   0.874   3.750
 9702SOL    HW241138   8.320   0.834   3.594
 9703SOL     OW41139   8.134   1.161   3.665
 9703SOL    HW141140   8.194   1.240   3.679
 9703SOL    HW241141   8.048   1.192   3.624
 9704SOL     OW41142   7.679   1.713   2.345
 9704SOL    HW141143   7.713   1.790   2.399
 9704SOL    HW241144   7.723   1.713   2.255
 9705SOL     OW41145   7.688   1.091   2.748
 9705SOL    HW141146   7.702   1.007   2.800
 9705SOL    HW241147   7.633   1.155   2.803
 9706SOL     OW41148   7.570   0.643   2.425
 9706SOL    HW141149   7.525   0.555   2.442
 9706SOL    HW241150   7.569   0.697   2.509
 9707SOL     OW41151   8.741   1.228   3.285
 9707SOL    HW141152   8.778   1.155   3.227
 9707SOL    HW241153   8.793   1.233   3.370
 9708SOL     OW41154   8.046   0.729   2.132
 9708SOL    HW141155   8.070   0.798   2.064
 9708SOL    HW241156   7.968   0.762   2.186
 9709SOL     OW41157   8.729   0.345   2.806
 9709SOL    HW141158   8.643   0.295   2.793
 9709SOL    HW241159   8.791   0.291   2.862
 9710SOL     OW41160   8.255   0.605   3.327
 9710SOL    HW141161   8.208   0.602   3.416
 9710SOL    HW241162   8.204   0.550   3.261
 9711SOL     OW41163   8.421   0.890   3.434
 9711SOL    HW141164   8.467   0.806   3.405
 9711SOL    HW241165   8.365   0.924   3.359
 9712SOL     OW41166   8.439   0.410   3.104
 9712SOL    HW141167   8.362   0.444   3.158
 9712SOL    HW241168   8.405   0.359   3.025
 9713SOL     OW41169   7.524   0.811   2.651
 9713SOL    HW141170   7.623   0.799   2.660
 9713SOL    HW241171   7.500   0.906   2.672
 9714SOL     OW41172   7.998   0.196   2.747
 9714SOL    HW141173   7.993   0.191   2.847
 9714SOL    HW241174   8.000   0.292   2.718
 9715SOL     OW41175   8.675   1.550   3.368
 9715SOL    HW141176   8.681   1.473   3.432
 9715SOL    HW241177   8.623   1.524   3.288
 9716SOL     OW41178   8.906   0.735   2.590
 9716SOL    HW141179   8.901   0.670   2.665
 9716SOL    HW241180   8.986   0.794   2.603
 9717SOL     OW41181   7.909   1.266   3.589
 9717SOL    HW141182   7.859   1.267   3.503
 9717SOL    HW241183   7.846   1.248   3.665
 9718SOL     OW41184   9.080   1.377   1.943
 9718SOL    HW141185   9.048   1.471   1.933
 9718SOL    HW241186   9.004   1.314   1.931
 9719SOL     OW41187   8.995   0.222   3.591
 9719SOL    HW141188   8.990   0.259   3.683
 9719SOL    HW241189   8.923   0.153   3.579
 9720SOL     OW41190   8.062   0.122   1.979
 9720SOL    HW141191   8.160   0.100   1.986
 9720SOL    HW241192   8.031   0.105   1.886
 9721SOL     OW41193   8.370   0.503   2.761
 9721SOL    HW141194   8.345   0.494   2.665
 9721SOL    HW241195   8.418   0.421   2.792
 9722SOL     OW41196   8.383   0.236   2.342
 9722SOL    HW141197   8.335   0.277   2.264
 9722SOL    HW241198   8.482   0.234   2.323
 9723SOL     OW41199   8.524   0.683   3.326
 9723SOL    HW141200   8.444   0.622   3.329
 9723SOL    HW241201   8.605   0.630   3.302
 9724SOL     OW41202   8.719   1.797   2.453
 9724SOL    HW141203   8.763   1.861   2.389
 9724SOL    HW241204   8.669   1.849   2.523
 9725SOL     OW41205   8.480   0.549   1.878
 9725SOL    HW141206   8.439   0.631   1.839
 9725SOL    HW241207   8.544   0.575   1.951
 9726SOL     OW41208   7.526   0.556   3.248
 9726SOL    HW141209   7.618   0.555   3.207
 9726SOL    HW241210   7.520   0.630   3.315
 9727SOL     OW41211   9.305   0.833   2.239
 9727SOL    HW141212   9.347   0.769   2.303
 9727SOL    HW241213   9.267   0.782   2.161
 9728SOL     OW41214   8.838   0.575   1.940
 9728SOL    HW141215   8.784   0.554   2.021
 9728SOL    HW241216   8.929   0.534   1.949
 9729SOL     OW41217   7.975   0.256   2.190
 9729SOL    HW141218   8.002   0.197   2.115
 9729SOL    HW241219   7.975   0.351   2.159
 9730SOL     OW41220   9.086   1.099   2.941
 9730SOL    HW141221   9.091   1.180   3.000
 9730SOL    HW241222   9.000   1.101   2.890
 9731SOL     OW41223   8.363   0.089   3.264
 9731SOL    HW141224   8.388   0.069   3.169
 9731SOL    HW241225   8.435   0.145   3.306
 9732SOL     OW41226   8.700   1.348   2.250
 9732SOL    HW141227   8.750   1.425   2.290
 9732SOL    HW241228   8.605   1.350   2.282
 9733SOL     OW41229   8.720   1.445   3.004
 9733SOL    HW141230   8.767   1.458   3.091
 9733SOL    HW241231   8.654   1.371   3.013
 9734SOL     OW41232   7.850   0.751   3.460
 9734SOL    HW141233   7.918   0.806   3.413
 9734SOL    HW241234   7.890   0.663   3.487
 9735SOL     OW41235   9.176   0.935   3.716
 9735SOL    HW141236   9.130   0.928   3.627
 9735SOL    HW241237   9.114   0.979   3.782
 9736SOL     OW41238   9.307   1.518   3.467
 9736SOL    HW141239   9.321   1.545   3.372
 9736SOL    HW241240   9.390   1.540   3.520
 9737SOL     OW41241   7.767   0.810   2.811
 9737SOL    HW141242   7.860   0.846   2.816
 9737SOL    HW241243   7.761   0.725   2.863
 9738SOL     OW41244   7.637   0.520   3.584
 9738SOL    HW141245   7.696   0.480   3.514
 9738SOL    HW241246   7.579   0.591   3.543
 9739SOL     OW41247   9.105   0.604   3.068
 9739SOL    HW141248   9.067   0.535   3.130
 9739SOL    HW241249   9.187   0.568   3.024
 9740SOL     OW41250   7.700   1.564   3.606
 9740SOL    HW141251   7.670   1.621   3.682
 9740SOL    HW241252   7.693   1.467   3.632
 9741SOL     OW41253   8.119   0.464   3.131
 9741SOL    HW141254   8.085   0.375   3.101
 9741SOL    HW241255   8.145   0.518   3.051
 9742SOL     OW41256   8.750   0.855   2.171
 9742SOL    HW141257   8.664   0.824   2.213
 9742SOL    HW241258   8.746   0.841   2.072
 9743SOL     OW41259   9.207   1.747   3.016
 9743SOL    HW141260   9.268   1.777   2.943
 9743SOL    HW241261   9.169   1.658   2.994
 9744SOL     OW41262   8.136   1.662   3.578
 9744SOL    HW141263   8.080   1.743   3.587
 9744SOL    HW241264   8.188   1.666   3.492
 9745SOL     OW41265   8.120   1.616   2.016
 9745SOL    HW141266   8.129   1.626   1.917
 9745SOL    HW241267   8.080   1.527   2.037
 9746SOL     OW41268   8.462   0.236   2.833
 9746SOL    HW141269   8.454   0.200   2.740
 9746SOL    HW241270   8.460   0.160   2.898
 9747SOL     OW41271   8.038   1.487   2.353
 9747SOL    HW141272   8.080   1.429   2.283
 9747SOL    HW241273   7.994   1.566   2.309
 9748SOL     OW41274   9.157   0.385   3.243
 9748SOL    HW141275   9.230   0.454   3.247
 9748SOL    HW241276   9.185   0.310   3.184
 9749SOL     OW41277   7.553   1.013   3.588
 9749SOL    HW141278   7.476   0.980   3.642
 9749SOL    HW241279   7.638   0.983   3.630
 9750SOL     OW41280   7.520   0.166   2.180
 9750SOL    HW141281   7.503   0.249   2.126
 9750SOL    HW241282   7.610   0.129   2.158
 9751SOL     OW41283   8.164   0.565   3.570
 9751SOL    HW141284   8.183   0.630   3.644
 9751SOL    HW241285   8.224   0.485   3.579
 9752SOL     OW41286   8.898   1.220   3.495
 9752SOL    HW141287   8.889   1.210   3.594
 9752SOL    HW241288   8.994   1.213   3.469
 9753SOL     OW41289   7.838   1.741   3.422
 9753SOL    HW141290   7.747   1.782   3.420
 9753SOL    HW241291   7.831   1.647   3.454
 9754SOL     OW41292   9.122   0.883   3.116
 9754SOL    HW141293   9.095   0.794   3.079
 9754SOL    HW241294   9.123   0.951   3.043
 9755SOL     OW41295   8.307   1.374   1.878
 9755SOL    HW141296   8.261   1.389   1.966
 9755SOL    HW241297   8.351   1.459   1.848
 9756SOL     OW41298   7.669   1.314   3.706
 9756SOL    HW141299   7.604   1.241   3.685
 9756SOL    HW241300   7.673   1.328   3.804
 9757SOL     OW41301   7.527   1.240   2.515
 9757SOL    HW141302   7.526   1.193   2.603
 9757SOL    HW241303   7.609   1.212   2.464
 9758SOL     OW41304   8.120   1.391   3.486
 9758SOL    HW141305   8.042   1.341   3.524
 9758SOL    HW241306   8.117   1.486   3.517
 9759SOL     OW41307   7.765   0.547   3.142
 9759SOL    HW141308   7.803   0.488   3.214
 9759SOL    HW241309   7.805   0.521   3.054
 9760SOL     OW41310   8.872   0.214   2.974
 9760SOL    HW141311   8.924   0.149   3.029
 9760SOL    HW241312   8.823   0.277   3.035
 9761SOL     OW41313   8.800   0.052   2.030
 9761SOL    HW141314   8.835   0.011   1.946
 9761SOL    HW241315   8.710   0.014   2.050
 9762SOL     OW41316   7.467   0.368   4.371
 9762SOL    HW141317   7.385   0.411   4.410
 9762SOL    HW241318   7.439   0.295   4.308
 9763SOL     OW41319   8.017   1.275   4.889
 9763SOL    HW141320   7.924   1.268   4.852
 9763SOL    HW241321   8.028   1.364   4.933
 9764SOL     OW41322   8.583   0.703   4.441
 9764SOL    HW141323   8.640   0.781   4.416
 9764SOL    HW241324   8.523   0.729   4.517
 9765SOL     OW41325   9.203   0.607   3.955
 9765SOL    HW141326   9.191   0.594   3.856
 9765SOL    HW241327   9.173   0.526   4.004
 9766SOL     OW41328   8.216   1.144   4.747
 9766SOL    HW141329   8.138   1.161   4.807
 9766SOL    HW241330   8.250   1.231   4.711
 9767SOL     OW41331   8.298   0.798   5.547
 9767SOL    HW141332   8.294   0.874   5.612
 9767SOL    HW241333   8.320   0.834   5.456
 9768SOL     OW41334   8.133   1.012   4.389
 9768SOL    HW141335   8.202   0.996   4.459
 9768SOL    HW241336   8.060   1.069   4.427
 9769SOL     OW41337   8.134   1.161   5.527
 9769SOL    HW141338   8.194   1.240   5.541
 9769SOL    HW241339   8.048   1.192   5.486
 9770SOL     OW41340   7.679   1.713   4.207
 9770SOL    HW141341   7.713   1.790   4.261
 9770SOL    HW241342   7.723   1.713   4.117
 9771SOL     OW41343   7.688   1.091   4.610
 9771SOL    HW141344   7.702   1.007   4.662
 9771SOL    HW241345   7.633   1.155   4.665
 9772SOL     OW41346   8.068   1.786   5.163
 9772SOL    HW141347   7.976   1.769   5.198
 9772SOL    HW241348   8.096   1.878   5.189
 9773SOL     OW41349   8.054   0.964   3.847
 9773SOL    HW141350   8.061   1.048   3.793
 9773SOL    HW241351   8.100   0.977   3.935
 9774SOL     OW41352   7.570   0.643   4.287
 9774SOL    HW141353   7.525   0.555   4.304
 9774SOL    HW241354   7.569   0.697   4.371
 9775SOL     OW41355   7.475   1.596   3.841
 9775SOL    HW141356   7.456   1.500   3.862
 9775SOL    HW241357   7.442   1.654   3.916
 9776SOL     OW41358   9.137   0.922   4.336
 9776SOL    HW141359   9.232   0.893   4.344
 9776SOL    HW241360   9.129   0.987   4.261
 9777SOL     OW41361   9.089   1.108   4.156
 9777SOL    HW141362   9.175   1.110   4.104
 9777SOL    HW241363   9.103   1.155   4.244
 9778SOL     OW41364   7.561   0.737   5.321
 9778SOL    HW141365   7.649   0.724   5.366
 9778SOL    HW241366   7.548   0.834   5.299
 9779SOL     OW41367   8.061   1.365   4.450
 9779SOL    HW141368   8.012   1.278   4.459
 9779SOL    HW241369   8.038   1.408   4.363
 9780SOL     OW41370   8.741   1.228   5.147
 9780SOL    HW141371   8.778   1.155   5.089
 9780SOL    HW241372   8.793   1.233   5.232
 9781SOL     OW41373   7.645   0.976   4.988
 9781SOL    HW141374   7.734   0.931   4.974
 9781SOL    HW241375   7.572   0.911   4.969
 9782SOL     OW41376   8.914   1.417   4.677
 9782SOL    HW141377   8.855   1.423   4.757
 9782SOL    HW241378   8.899   1.329   4.631
 9783SOL     OW41379   9.115   1.714   4.296
 9783SOL    HW141380   9.074   1.691   4.208
 9783SOL    HW241381   9.097   1.640   4.361
 9784SOL     OW41382   9.024   1.662   4.031
 9784SOL    HW141383   9.113   1.708   4.034
 9784SOL    HW241384   9.003   1.638   3.936
 9785SOL     OW41385   7.524   0.811   4.513
 9785SOL    HW141386   7.623   0.799   4.522
 9785SOL    HW241387   7.500   0.906   4.534
 9786SOL     OW41388   8.313   0.348   3.919
 9786SOL    HW141389   8.372   0.411   3.870
 9786SOL    HW241390   8.332   0.254   3.890
 9787SOL     OW41391   7.998   0.196   4.609
 9787SOL    HW141392   7.993   0.191   4.709
 9787SOL    HW241393   8.000   0.292   4.580
 9788SOL     OW41394   7.912   1.743   4.047
 9788SOL    HW141395   7.945   1.782   4.133
 9788SOL    HW241396   7.988   1.736   3.982
 9789SOL     OW41397   8.388   1.698   4.628
 9789SOL    HW141398   8.468   1.641   4.649
 9789SOL    HW241399   8.339   1.658   4.551
 9790SOL     OW41400   7.830   0.700   4.204
 9790SOL    HW141401   7.875   0.610   4.201
 9790SOL    HW241402   7.736   0.689   4.237
 9791SOL     OW41403   8.995   0.222   5.453
 9791SOL    HW141404   8.990   0.259   5.545
 9791SOL    HW241405   8.923   0.153   5.441
 9792SOL     OW41406   8.251   1.402   4.648
 9792SOL    HW141407   8.341   1.416   4.606
 9792SOL    HW241408   8.180   1.404   4.577
 9793SOL     OW41409   7.907   1.152   4.465
 9793SOL    HW141410   7.836   1.125   4.530
 9793SOL    HW241411   7.881   1.124   4.372
 9794SOL     OW41412   7.936   1.385   3.898
 9794SOL    HW141413   7.849   1.370   3.945
 9794SOL    HW241414   7.919   1.411   3.803
 9795SOL     OW41415   8.838   0.575   3.802
 9795SOL    HW141416   8.784   0.554   3.883
 9795SOL    HW241417   8.929   0.534   3.811
 9796SOL     OW41418   9.086   1.099   4.803
 9796SOL    HW141419   9.091   1.180   4.862
 9796SOL    HW241420   9.000   1.101   4.752
 9797SOL     OW41421   8.428   1.116   5.443
 9797SOL    HW141422   8.329   1.122   5.453
 9797SOL    HW241423   8.451   1.036   5.387
 9798SOL     OW41424   8.153   1.050   4.092
 9798SOL    HW141425   8.139   1.057   4.191
 9798SOL    HW241426   8.237   0.999   4.074
 9799SOL     OW41427   7.858   0.813   4.975
 9799SOL    HW141428   7.944   0.825   5.025
 9799SOL    HW241429   7.816   0.726   5.002
 9800SOL     OW41430   7.512   1.564   5.055
 9800SOL    HW141431   7.466   1.646   5.021
 9800SOL    HW241432   7.610   1.583   5.064
 9801SOL     OW41433   8.700   1.348   4.112
 9801SOL    HW141434   8.750   1.425   4.152
 9801SOL    HW241435   8.605   1.350   4.144
 9802SOL     OW41436   8.720   1.445   4.866
 9802SOL    HW141437   8.767   1.458   4.953
 9802SOL    HW241438   8.654   1.371   4.875
 9803SOL     OW41439   9.030   0.639   4.196
 9803SOL    HW141440   8.999   0.700   4.269
 9803SOL    HW241441   9.080   0.691   4.127
 9804SOL     OW41442   7.850   0.751   5.322
 9804SOL    HW141443   7.918   0.806   5.275
 9804SOL    HW241444   7.890   0.663   5.349
 9805SOL     OW41445   7.952   0.050   5.464
 9805SOL    HW141446   7.910  -0.007   5.394
 9805SOL    HW241447   7.886   0.119   5.496
 9806SOL     OW41448   8.808   0.862   4.769
 9806SOL    HW141449   8.733   0.862   4.703
 9806SOL    HW241450   8.845   0.770   4.778
 9807SOL     OW41451   8.751   0.838   3.766
 9807SOL    HW141452   8.785   0.745   3.781
 9807SOL    HW241453   8.769   0.865   3.671
 9808SOL     OW41454   7.787   0.509   4.730
 9808SOL    HW141455   7.735   0.426   4.713
 9808SOL    HW241456   7.864   0.514   4.666
 9809SOL     OW41457   7.456   1.326   3.924
 9809SOL    HW141458   7.363   1.347   3.893
 9809SOL    HW241459   7.466   1.227   3.937
 9810SOL     OW41460   7.637   0.520   5.446
 9810SOL    HW141461   7.696   0.480   5.376
 9810SOL    HW241462   7.579   0.591   5.405
 9811SOL     OW41463   8.817   0.950   5.384
 9811SOL    HW141464   8.856   1.039   5.404
 9811SOL    HW241465   8.827   0.930   5.287
 9812SOL     OW41466   7.700   1.564   5.468
 9812SOL    HW141467   7.670   1.621   5.544
 9812SOL    HW241468   7.693   1.467   5.494
 9813SOL     OW41469   8.378   1.678   5.189
 9813SOL    HW141470   8.354   1.660   5.094
 9813SOL    HW241471   8.408   1.772   5.199
 9814SOL     OW41472   8.750   0.855   4.033
 9814SOL    HW141473   8.664   0.824   4.075
 9814SOL    HW241474   8.746   0.841   3.934
 9815SOL     OW41475   9.174   0.135   4.247
 9815SOL    HW141476   9.247   0.118   4.180
 9815SOL    HW241477   9.143   0.048   4.285
 9816SOL     OW41478   7.578   1.794   5.575
 9816SOL    HW141479   7.537   1.720   5.628
 9816SOL    HW241480   7.642   1.845   5.633
 9817SOL     OW41481   8.120   1.616   3.878
 9817SOL    HW141482   8.129   1.626   3.779
 9817SOL    HW241483   8.080   1.527   3.899
 9818SOL     OW41484   8.642   1.612   3.755
 9818SOL    HW141485   8.648   1.519   3.792
 9818SOL    HW241486   8.583   1.612   3.675
 9819SOL     OW41487   7.703   1.348   4.014
 9819SOL    HW141488   7.607   1.349   3.987
 9819SOL    HW241489   7.715   1.401   4.098
 9820SOL     OW41490   8.631   1.335   3.843
 9820SOL    HW141491   8.532   1.324   3.845
 9820SOL    HW241492   8.665   1.350   3.936
 9821SOL     OW41493   8.061   0.842   5.155
 9821SOL    HW141494   8.117   0.923   5.138
 9821SOL    HW241495   8.120   0.762   5.158
 9822SOL     OW41496   8.898   1.220   5.357
 9822SOL    HW141497   8.889   1.210   5.456
 9822SOL    HW241498   8.994   1.213   5.331
 9823SOL     OW41499   7.838   1.741   5.284
 9823SOL    HW141500   7.747   1.782   5.282
 9823SOL    HW241501   7.831   1.647   5.316
 9824SOL     OW41502   8.307   1.374   3.740
 9824SOL    HW141503   8.261   1.389   3.828
 9824SOL    HW241504   8.351   1.459   3.710
 9825SOL     OW41505   9.309   1.569   4.575
 9825SOL    HW141506   9.238   1.557   4.505
 9825SOL    HW241507   9.310   1.490   4.635
 9826SOL     OW41508   7.669   1.314   5.568
 9826SOL    HW141509   7.604   1.241   5.547
 9826SOL    HW241510   7.673   1.328   5.666
 9827SOL     OW41511   7.876   0.424   4.244
 9827SOL    HW141512   7.906   0.352   4.182
 9827SOL    HW241513   7.837   0.384   4.327
 9828SOL     OW41514   7.765   0.547   5.004
 9828SOL    HW141515   7.803   0.488   5.076
 9828SOL    HW241516   7.805   0.521   4.916
 9829SOL     OW41517   8.872   0.214   4.836
 9829SOL    HW141518   8.924   0.149   4.891
 9829SOL    HW241519   8.823   0.277   4.897
 9830SOL     OW41520   8.218   1.330   4.025
 9830SOL    HW141521   8.172   1.243   4.042
 9830SOL    HW241522   8.309   1.327   4.066
 9831SOL     OW41523   7.673   0.275   6.582
 9831SOL    HW141524   7.708   0.258   6.674
 9831SOL    HW241525   7.585   0.230   6.570
 9832SOL     OW41526   7.467   0.368   6.233
 9832SOL    HW141527   7.385   0.411   6.272
 9832SOL    HW241528   7.439   0.295   6.170
 9833SOL     OW41529   8.017   1.275   6.751
 9833SOL    HW141530   7.924   1.268   6.714
 9833SOL    HW241531   8.028   1.364   6.795
 9834SOL     OW41532   9.003   1.511   6.289
 9834SOL    HW141533   8.946   1.495   6.370
 9834SOL    HW241534   8.944   1.521   6.209
 9835SOL     OW41535   8.583   0.703   6.303
 9835SOL    HW141536   8.640   0.781   6.278
 9835SOL    HW241537   8.523   0.729   6.379
 9836SOL     OW41538   8.216   1.144   6.609
 9836SOL    HW141539   8.138   1.161   6.669
 9836SOL    HW241540   8.250   1.231   6.573
 9837SOL     OW41541   8.298   0.798   7.409
 9837SOL    HW141542   8.294   0.874   7.474
 9837SOL    HW241543   8.320   0.834   7.318
 9838SOL     OW41544   8.133   1.012   6.251
 9838SOL    HW141545   8.202   0.996   6.321
 9838SOL    HW241546   8.060   1.069   6.289
 9839SOL     OW41547   8.134   1.161   7.389
 9839SOL    HW141548   8.194   1.240   7.403
 9839SOL    HW241549   8.048   1.192   7.348
 9840SOL     OW41550   7.783   1.435   6.647
 9840SOL    HW141551   7.705   1.404   6.594
 9840SOL    HW241552   7.841   1.493   6.590
 9841SOL     OW41553   8.908   1.505   6.925
 9841SOL    HW141554   8.932   1.599   6.951
 9841SOL    HW241555   8.892   1.451   7.007
 9842SOL     OW41556   7.886   0.392   7.085
 9842SOL    HW141557   7.968   0.336   7.094
 9842SOL    HW241558   7.805   0.334   7.089
 9843SOL     OW41559   9.051   0.447   6.323
 9843SOL    HW141560   8.977   0.493   6.273
 9843SOL    HW241561   9.102   0.515   6.376
 9844SOL     OW41562   8.575   1.341   7.276
 9844SOL    HW141563   8.622   1.341   7.364
 9844SOL    HW241564   8.527   1.254   7.265
 9845SOL     OW41565   7.688   1.091   6.472
 9845SOL    HW141566   7.702   1.007   6.524
 9845SOL    HW241567   7.633   1.155   6.527
 9846SOL     OW41568   8.068   1.786   7.025
 9846SOL    HW141569   7.976   1.769   7.060
 9846SOL    HW241570   8.096   1.878   7.051
 9847SOL     OW41571   8.054   0.964   5.709
 9847SOL    HW141572   8.061   1.048   5.655
 9847SOL    HW241573   8.100   0.977   5.797
 9848SOL     OW41574   9.042   0.114   7.066
 9848SOL    HW141575   9.024   0.181   6.994
 9848SOL    HW241576   9.039   0.160   7.155
 9849SOL     OW41577   7.570   0.643   6.149
 9849SOL    HW141578   7.525   0.555   6.166
 9849SOL    HW241579   7.569   0.697   6.233
 9850SOL     OW41580   9.290   1.767   5.945
 9850SOL    HW141581   9.344   1.738   6.025
 9850SOL    HW241582   9.320   1.857   5.916
 9851SOL     OW41583   9.137   0.922   6.198
 9851SOL    HW141584   9.232   0.893   6.206
 9851SOL    HW241585   9.129   0.987   6.123
 9852SOL     OW41586   9.089   1.108   6.018
 9852SOL    HW141587   9.175   1.110   5.966
 9852SOL    HW241588   9.103   1.155   6.106
 9853SOL     OW41589   7.561   0.737   7.183
 9853SOL    HW141590   7.649   0.724   7.228
 9853SOL    HW241591   7.548   0.834   7.161
 9854SOL     OW41592   8.061   1.365   6.312
 9854SOL    HW141593   8.012   1.278   6.321
 9854SOL    HW241594   8.038   1.408   6.225
 9855SOL     OW41595   8.741   1.228   7.009
 9855SOL    HW141596   8.778   1.155   6.951
 9855SOL    HW241597   8.793   1.233   7.094
 9856SOL     OW41598   8.257   0.004   6.088
 9856SOL    HW141599   8.297   0.095   6.079
 9856SOL    HW241600   8.157   0.012   6.094
 9857SOL     OW41601   7.645   0.976   6.850
 9857SOL    HW141602   7.734   0.931   6.836
 9857SOL    HW241603   7.572   0.911   6.831
 9858SOL     OW41604   8.973   0.999   5.776
 9858SOL    HW141605   8.910   0.923   5.789
 9858SOL    HW241606   9.021   1.017   5.862
 9859SOL     OW41607   8.635   1.792   7.202
 9859SOL    HW141608   8.659   1.852   7.126
 9859SOL    HW241609   8.642   1.697   7.172
 9860SOL     OW41610   7.765   0.251   7.387
 9860SOL    HW141611   7.836   0.322   7.393
 9860SOL    HW241612   7.677   0.290   7.415
 9861SOL     OW41613   8.914   1.417   6.539
 9861SOL    HW141614   8.855   1.423   6.619
 9861SOL    HW241615   8.899   1.329   6.493
 9862SOL     OW41616   9.115   1.714   6.158
 9862SOL    HW141617   9.074   1.691   6.070
 9862SOL    HW241618   9.097   1.640   6.223
 9863SOL     OW41619   8.046   0.729   5.856
 9863SOL    HW141620   8.070   0.798   5.788
 9863SOL    HW241621   7.968   0.762   5.910
 9864SOL     OW41622   8.729   0.345   6.530
 9864SOL    HW141623   8.643   0.295   6.517
 9864SOL    HW241624   8.791   0.291   6.586
 9865SOL     OW41625   9.024   1.662   5.893
 9865SOL    HW141626   9.113   1.708   5.896
 9865SOL    HW241627   9.003   1.638   5.798
 9866SOL     OW41628   8.255   0.605   7.051
 9866SOL    HW141629   8.208   0.602   7.140
 9866SOL    HW241630   8.204   0.550   6.985
 9867SOL     OW41631   8.421   0.890   7.158
 9867SOL    HW141632   8.467   0.806   7.129
 9867SOL    HW241633   8.365   0.924   7.083
 9868SOL     OW41634   8.439   0.410   6.828
 9868SOL    HW141635   8.362   0.444   6.882
 9868SOL    HW241636   8.405   0.359   6.749
 9869SOL     OW41637   8.489   0.701   6.015
 9869SOL    HW141638   8.515   0.697   6.111
 9869SOL    HW241639   8.404   0.650   6.001
 9870SOL     OW41640   7.524   0.811   6.375
 9870SOL    HW141641   7.623   0.799   6.384
 9870SOL    HW241642   7.500   0.906   6.396
 9871SOL     OW41643   7.578   1.821   7.157
 9871SOL    HW141644   7.568   1.806   7.256
 9871SOL    HW241645   7.492   1.857   7.121
 9872SOL     OW41646   8.313   0.348   5.781
 9872SOL    HW141647   8.372   0.411   5.732
 9872SOL    HW241648   8.332   0.254   5.752
 9873SOL     OW41649   8.810   1.144   6.131
 9873SOL    HW141650   8.893   1.115   6.083
 9873SOL    HW241651   8.761   1.211   6.075
 9874SOL     OW41652   7.998   0.196   6.471
 9874SOL    HW141653   7.993   0.191   6.571
 9874SOL    HW241654   8.000   0.292   6.442
 9875SOL     OW41655   8.456   1.456   6.063
 9875SOL    HW141656   8.410   1.528   6.011
 9875SOL    HW241657   8.452   1.476   6.161
 9876SOL     OW41658   7.799   1.801   6.439
 9876SOL    HW141659   7.849   1.715   6.445
 9876SOL    HW241660   7.864   1.878   6.436
 9877SOL     OW41661   9.243   1.066   6.459
 9877SOL    HW141662   9.181   1.051   6.383
 9877SOL    HW241663   9.191   1.077   6.544
 9878SOL     OW41664   8.675   1.550   7.092
 9878SOL    HW141665   8.681   1.473   7.156
 9878SOL    HW241666   8.623   1.524   7.012
 9879SOL     OW41667   7.769   0.943   5.828
 9879SOL    HW141668   7.851   0.982   5.786
 9879SOL    HW241669   7.742   0.861   5.779
 9880SOL     OW41670   8.906   0.735   6.314
 9880SOL    HW141671   8.901   0.670   6.389
 9880SOL    HW241672   8.986   0.794   6.327
 9881SOL     OW41673   7.909   1.266   7.313
 9881SOL    HW141674   7.859   1.267   7.227
 9881SOL    HW241675   7.846   1.248   7.389
 9882SOL     OW41676   7.650   0.285   7.084
 9882SOL    HW141677   7.570   0.345   7.071
 9882SOL    HW241678   7.640   0.236   7.170
 9883SOL     OW41679   8.848   0.107   6.012
 9883SOL    HW141680   8.824   0.070   5.922
 9883SOL    HW241681   8.947   0.123   6.016
 9884SOL     OW41682   7.697   1.785   6.827
 9884SOL    HW141683   7.754   1.720   6.877
 9884SOL    HW241684   7.681   1.752   6.734
 9885SOL     OW41685   8.388   1.698   6.490
 9885SOL    HW141686   8.468   1.641   6.511
 9885SOL    HW241687   8.339   1.658   6.413
 9886SOL     OW41688   7.830   0.700   6.066
 9886SOL    HW141689   7.875   0.610   6.063
 9886SOL    HW241690   7.736   0.689   6.099
 9887SOL     OW41691   8.229   0.264   7.335
 9887SOL    HW141692   8.296   0.203   7.378
 9887SOL    HW241693   8.156   0.283   7.400
 9888SOL     OW41694   8.336   1.514   6.781
 9888SOL    HW141695   8.313   1.489   6.687
 9888SOL    HW241696   8.397   1.445   6.820
 9889SOL     OW41697   8.799   0.590   7.019
 9889SOL    HW141698   8.827   0.547   7.104
 9889SOL    HW241699   8.824   0.686   7.020
 9890SOL     OW41700   8.251   1.402   6.510
 9890SOL    HW141701   8.341   1.416   6.468
 9890SOL    HW241702   8.180   1.404   6.439
 9891SOL     OW41703   8.370   0.503   6.485
 9891SOL    HW141704   8.345   0.494   6.389
 9891SOL    HW241705   8.418   0.421   6.516
 9892SOL     OW41706   7.987   0.064   6.098
 9892SOL    HW141707   7.906   0.065   6.156
 9892SOL    HW241708   7.990   0.147   6.043
 9893SOL     OW41709   7.745   0.035   5.757
 9893SOL    HW141710   7.794   0.119   5.736
 9893SOL    HW241711   7.807  -0.030   5.802
 9894SOL     OW41712   8.383   0.236   6.066
 9894SOL    HW141713   8.335   0.277   5.988
 9894SOL    HW241714   8.482   0.234   6.047
 9895SOL     OW41715   8.524   0.683   7.050
 9895SOL    HW141716   8.444   0.622   7.053
 9895SOL    HW241717   8.605   0.630   7.026
 9896SOL     OW41718   8.675   1.570   6.379
 9896SOL    HW141719   8.696   1.644   6.314
 9896SOL    HW241720   8.743   1.570   6.452
 9897SOL     OW41721   7.907   1.152   6.327
 9897SOL    HW141722   7.836   1.125   6.392
 9897SOL    HW241723   7.881   1.124   6.234
 9898SOL     OW41724   8.719   1.797   6.177
 9898SOL    HW141725   8.763   1.861   6.113
 9898SOL    HW241726   8.669   1.849   6.247
 9899SOL     OW41727   8.480   0.549   5.602
 9899SOL    HW141728   8.439   0.631   5.563
 9899SOL    HW241729   8.544   0.575   5.675
 9900SOL     OW41730   7.526   0.556   6.972
 9900SOL    HW141731   7.618   0.555   6.931
 9900SOL    HW241732   7.520   0.630   7.039
 9901SOL     OW41733   8.009   0.222   6.733
 9901SOL    HW141734   8.047   0.138   6.770
 9901SOL    HW241735   7.921   0.241   6.777
 9902SOL     OW41736   8.314   0.454   6.228
 9902SOL    HW141737   8.282   0.526   6.166
 9902SOL    HW241738   8.338   0.373   6.175
 9903SOL     OW41739   8.465   0.039   6.339
 9903SOL    HW141740   8.393   0.044   6.270
 9903SOL    HW241741   8.441  -0.030   6.408
 9904SOL     OW41742   8.877   1.173   6.453
 9904SOL    HW141743   8.822   1.089   6.446
 9904SOL    HW241744   8.903   1.202   6.361
 9905SOL     OW41745   8.914   0.590   6.578
 9905SOL    HW141746   8.884   0.495   6.585
 9905SOL    HW241747   8.987   0.606   6.644
 9906SOL     OW41748   9.305   0.833   5.963
 9906SOL    HW141749   9.347   0.769   6.027
 9906SOL    HW241750   9.267   0.782   5.885
 9907SOL     OW41751   7.936   1.385   5.760
 9907SOL    HW141752   7.849   1.370   5.807
 9907SOL    HW241753   7.919   1.411   5.665
 9908SOL     OW41754   9.112   1.280   6.243
 9908SOL    HW141755   9.211   1.288   6.257
 9908SOL    HW241756   9.067   1.364   6.274
 9909SOL     OW41757   7.975   0.256   5.914
 9909SOL    HW141758   8.002   0.197   5.839
 9909SOL    HW241759   7.975   0.351   5.883
 9910SOL     OW41760   9.202   1.223   7.174
 9910SOL    HW141761   9.293   1.184   7.161
 9910SOL    HW241762   9.210   1.319   7.198
 9911SOL     OW41763   8.512   1.347   6.926
 9911SOL    HW141764   8.432   1.324   6.981
 9911SOL    HW241765   8.595   1.321   6.975
 9912SOL     OW41766   9.040   1.629   7.211
 9912SOL    HW141767   9.067   1.663   7.121
 9912SOL    HW241768   9.119   1.591   7.257
 9913SOL     OW41769   8.559   1.195   6.686
 9913SOL    HW141770   8.519   1.239   6.767
 9913SOL    HW241771   8.518   1.232   6.603
 9914SOL     OW41772   9.086   1.099   6.665
 9914SOL    HW141773   9.091   1.180   6.724
 9914SOL    HW241774   9.000   1.101   6.614
 9915SOL     OW41775   8.363   0.089   6.988
 9915SOL    HW141776   8.388   0.069   6.893
 9915SOL    HW241777   8.435   0.145   7.030
 9916SOL     OW41778   8.428   1.116   7.305
 9916SOL    HW141779   8.329   1.122   7.315
 9916SOL    HW241780   8.451   1.036   7.249
 9917SOL     OW41781   8.153   1.050   5.954
 9917SOL    HW141782   8.139   1.057   6.053
 9917SOL    HW241783   8.237   0.999   5.936
 9918SOL     OW41784   7.858   0.813   6.837
 9918SOL    HW141785   7.944   0.825   6.887
 9918SOL    HW241786   7.816   0.726   6.864
 9919SOL     OW41787   8.722   0.386   6.848
 9919SOL    HW141788   8.743   0.460   6.912
 9919SOL    HW241789   8.633   0.403   6.805
 9920SOL     OW41790   7.512   1.564   6.917
 9920SOL    HW141791   7.466   1.646   6.883
 9920SOL    HW241792   7.610   1.583   6.926
 9921SOL     OW41793   7.815   1.100   6.087
 9921SOL    HW141794   7.808   1.183   6.031
 9921SOL    HW241795   7.819   1.020   6.027
 9922SOL     OW41796   8.014   0.537   6.451
 9922SOL    HW141797   8.026   0.603   6.377
 9922SOL    HW241798   8.060   0.571   6.534
 9923SOL     OW41799   8.700   1.348   5.974
 9923SOL    HW141800   8.750   1.425   6.014
 9923SOL    HW241801   8.605   1.350   6.006
 9924SOL     OW41802   8.720   1.445   6.728
 9924SOL    HW141803   8.767   1.458   6.815
 9924SOL    HW241804   8.654   1.371   6.737
 9925SOL     OW41805   9.030   0.639   6.058
 9925SOL    HW141806   8.999   0.700   6.131
 9925SOL    HW241807   9.080   0.691   5.989
 9926SOL     OW41808   7.802   1.510   6.915
 9926SOL    HW141809   7.781   1.466   6.828
 9926SOL    HW241810   7.899   1.536   6.918
 9927SOL     OW41811   7.850   0.751   7.184
 9927SOL    HW141812   7.918   0.806   7.137
 9927SOL    HW241813   7.890   0.663   7.211
 9928SOL     OW41814   9.035   0.779   7.256
 9928SOL    HW141815   8.943   0.817   7.251
 9928SOL    HW241816   9.095   0.826   7.191
 9929SOL     OW41817   8.021   0.870   6.615
 9929SOL    HW141818   8.065   0.959   6.606
 9929SOL    HW241819   7.958   0.870   6.692
 9930SOL     OW41820   8.808   0.862   6.631
 9930SOL    HW141821   8.733   0.862   6.565
 9930SOL    HW241822   8.845   0.770   6.640
 9931SOL     OW41823   8.657   0.525   5.861
 9931SOL    HW141824   8.670   0.441   5.915
 9931SOL    HW241825   8.628   0.599   5.921
 9932SOL     OW41826   7.755   0.213   6.817
 9932SOL    HW141827   7.732   0.250   6.907
 9932SOL    HW241828   7.725   0.118   6.811
 9933SOL     OW41829   7.485   1.310   6.868
 9933SOL    HW141830   7.538   1.261   6.936
 9933SOL    HW241831   7.507   1.408   6.873
 9934SOL     OW41832   8.180   0.634   6.650
 9934SOL    HW141833   8.239   0.608   6.574
 9934SOL    HW241834   8.152   0.730   6.639
 9935SOL     OW41835   9.176   0.935   7.440
 9935SOL    HW141836   9.130   0.928   7.351
 9935SOL    HW241837   9.114   0.979   7.506
 9936SOL     OW41838   7.755   0.063   6.204
 9936SOL    HW141839   7.744   0.157   6.237
 9936SOL    HW241840   7.750   0.000   6.281
 9937SOL     OW41841   9.070   0.367   5.960
 9937SOL    HW141842   9.072   0.291   6.024
 9937SOL    HW241843   9.022   0.444   6.000
 9938SOL     OW41844   8.471   0.766   6.552
 9938SOL    HW141845   8.486   0.787   6.648
 9938SOL    HW241846   8.441   0.671   6.543
 9939SOL     OW41847   8.428   1.573   7.286
 9939SOL    HW141848   8.408   1.617   7.198
 9939SOL    HW241849   8.467   1.482   7.270
 9940SOL     OW41850   9.307   1.518   7.191
 9940SOL    HW141851   9.321   1.545   7.096
 9940SOL    HW241852   9.390   1.540   7.244
 9941SOL     OW41853   7.798   0.898   7.390
 9941SOL    HW141854   7.874   0.942   7.438
 9941SOL    HW241855   7.833   0.851   7.308
 9942SOL     OW41856   8.516   1.333   6.435
 9942SOL    HW141857   8.523   1.249   6.380
 9942SOL    HW241858   8.578   1.402   6.399
 9943SOL     OW41859   7.767   0.810   6.535
 9943SOL    HW141860   7.860   0.846   6.540
 9943SOL    HW241861   7.761   0.725   6.587
 9944SOL     OW41862   7.787   0.509   6.592
 9944SOL    HW141863   7.735   0.426   6.575
 9944SOL    HW241864   7.864   0.514   6.528
 9945SOL     OW41865   8.586   0.380   7.264
 9945SOL    HW141866   8.541   0.443   7.328
 9945SOL    HW241867   8.679   0.411   7.247
 9946SOL     OW41868   8.608   0.207   7.063
 9946SOL    HW141869   8.608   0.271   7.140
 9946SOL    HW241870   8.636   0.255   6.980
 9947SOL     OW41871   7.456   1.326   5.786
 9947SOL    HW141872   7.363   1.347   5.755
 9947SOL    HW241873   7.466   1.227   5.799
 9948SOL     OW41874   7.536   1.801   6.513
 9948SOL    HW141875   7.494   1.715   6.486
 9948SOL    HW241876   7.630   1.804   6.479
 9949SOL     OW41877   7.952   1.568   6.496
 9949SOL    HW141878   8.018   1.642   6.505
 9949SOL    HW241879   7.996   1.489   6.454
 9950SOL     OW41880   8.450   0.796   6.824
 9950SOL    HW141881   8.491   0.764   6.910
 9950SOL    HW241882   8.354   0.769   6.821
 9951SOL     OW41883   7.488   0.544   6.700
 9951SOL    HW141884   7.573   0.511   6.659
 9951SOL    HW241885   7.501   0.559   6.798
 9952SOL     OW41886   8.263   0.572   5.911
 9952SOL    HW141887   8.270   0.483   5.865
 9952SOL    HW241888   8.169   0.606   5.903
 9953SOL     OW41889   9.105   0.604   6.792
 9953SOL    HW141890   9.067   0.535   6.854
 9953SOL    HW241891   9.187   0.568   6.748
 9954SOL     OW41892   7.700   1.564   7.330
 9954SOL    HW141893   7.670   1.621   7.406
 9954SOL    HW241894   7.693   1.467   7.356
 9955SOL     OW41895   8.119   0.464   6.855
 9955SOL    HW141896   8.085   0.375   6.825
 9955SOL    HW241897   8.145   0.518   6.775
 9956SOL     OW41898   8.378   1.678   7.051
 9956SOL    HW141899   8.354   1.660   6.956
 9956SOL    HW241900   8.408   1.772   7.061
 9957SOL     OW41901   7.921   0.500   5.777
 9957SOL    HW141902   7.982   0.580   5.781
 9957SOL    HW241903   7.826   0.531   5.784
 9958SOL     OW41904   7.607   1.137   7.052
 9958SOL    HW141905   7.629   1.076   7.128
 9958SOL    HW241906   7.617   1.088   6.966
 9959SOL     OW41907   8.795   1.059   6.820
 9959SOL    HW141908   8.819   0.996   6.746
 9959SOL    HW241909   8.705   1.099   6.802
 9960SOL     OW41910   8.750   0.855   5.895
 9960SOL    HW141911   8.664   0.824   5.937
 9960SOL    HW241912   8.746   0.841   5.796
 9961SOL     OW41913   9.207   1.747   6.740
 9961SOL    HW141914   9.268   1.777   6.667
 9961SOL    HW241915   9.169   1.658   6.718
 9962SOL     OW41916   8.700   1.731   6.714
 9962SOL    HW141917   8.784   1.736   6.660
 9962SOL    HW241918   8.677   1.635   6.732
 9963SOL     OW41919   7.531   1.258   6.608
 9963SOL    HW141920   7.526   1.257   6.708
 9963SOL    HW241921   7.448   1.217   6.570
 9964SOL     OW41922   8.136   1.662   7.302
 9964SOL    HW141923   8.080   1.743   7.311
 9964SOL    HW241924   8.188   1.666   7.216
 9965SOL     OW41925   9.174   0.135   6.109
 9965SOL    HW141926   9.247   0.118   6.042
 9965SOL    HW241927   9.143   0.048   6.147
 9966SOL     OW41928   8.836   1.573   6.063
 9966SOL    HW141929   8.903   1.585   5.989
 9966SOL    HW241930   8.796   1.662   6.086
 9967SOL     OW41931   8.728   0.927   6.258
 9967SOL    HW141932   8.788   0.846   6.260
 9967SOL    HW241933   8.768   0.996   6.198
 9968SOL     OW41934   8.278   1.273   7.008
 9968SOL    HW141935   8.273   1.306   7.103
 9968SOL    HW241936   8.192   1.292   6.962
 9969SOL     OW41937   8.120   1.616   5.740
 9969SOL    HW141938   8.129   1.626   5.641
 9969SOL    HW241939   8.080   1.527   5.761
 9970SOL     OW41940   9.098   1.720   6.980
 9970SOL    HW141941   9.151   1.730   6.896
 9970SOL    HW241942   9.071   1.810   7.014
 9971SOL     OW41943   9.289   0.175   6.549
 9971SOL    HW141944   9.328   0.090   6.513
 9971SOL    HW241945   9.191   0.177   6.530
 9972SOL     OW41946   7.711   0.326   6.306
 9972SOL    HW141947   7.632   0.377   6.272
 9972SOL    HW241948   7.702   0.311   6.404
 9973SOL     OW41949   8.270   1.002   6.958
 9973SOL    HW141950   8.310   1.001   6.866
 9973SOL    HW241951   8.280   1.094   6.998
 9974SOL     OW41952   8.364   0.910   5.877
 9974SOL    HW141953   8.427   0.948   5.809
 9974SOL    HW241954   8.404   0.827   5.916
 9975SOL     OW41955   7.820   1.288   7.076
 9975SOL    HW141956   7.807   1.381   7.042
 9975SOL    HW241957   7.736   1.236   7.063
 9976SOL     OW41958   9.062   1.292   6.875
 9976SOL    HW141959   9.122   1.295   6.955
 9976SOL    HW241960   8.987   1.356   6.888
 9977SOL     OW41961   8.487   1.098   6.282
 9977SOL    HW141962   8.417   1.051   6.336
 9977SOL    HW241963   8.546   1.030   6.239
 9978SOL     OW41964   8.462   0.236   6.557
 9978SOL    HW141965   8.454   0.200   6.464
 9978SOL    HW241966   8.460   0.160   6.622
 9979SOL     OW41967   9.157   0.385   6.967
 9979SOL    HW141968   9.230   0.454   6.971
 9979SOL    HW241969   9.185   0.310   6.908
 9980SOL     OW41970   7.553   1.013   7.312
 9980SOL    HW141971   7.476   0.980   7.366
 9980SOL    HW241972   7.638   0.983   7.354
 9981SOL     OW41973   8.120   0.203   7.075
 9981SOL    HW141974   8.210   0.187   7.035
 9981SOL    HW241975   8.128   0.208   7.174
 9982SOL     OW41976   8.888   0.856   6.984
 9982SOL    HW141977   8.831   0.908   6.921
 9982SOL    HW241978   8.984   0.868   6.960
 9983SOL     OW41979   7.520   0.166   5.904
 9983SOL    HW141980   7.503   0.249   5.850
 9983SOL    HW241981   7.610   0.129   5.882
 9984SOL     OW41982   8.061   0.842   7.017
 9984SOL    HW141983   8.117   0.923   7.000
 9984SOL    HW241984   8.120   0.762   7.020
 9985SOL     OW41985   8.941   1.767   6.545
 9985SOL    HW141986   8.974   1.831   6.476
 9985SOL    HW241987   9.007   1.761   6.620
 9986SOL     OW41988   8.164   0.565   7.294
 9986SOL    HW141989   8.183   0.630   7.368
 9986SOL    HW241990   8.224   0.485   7.303
 9987SOL     OW41991   7.838   1.741   7.146
 9987SOL    HW141992   7.747   1.782   7.144
 9987SOL    HW241993   7.831   1.647   7.178
 9988SOL     OW41994   9.122   0.883   6.840
 9988SOL    HW141995   9.095   0.794   6.803
 9988SOL    HW241996   9.123   0.951   6.767
 9989SOL     OW41997   8.673   0.325   6.035
 9989SOL    HW141998   8.738   0.251   6.024
 9989SOL    HW241999   8.693   0.375   6.119
 9990SOL     OW42000   8.042   0.745   6.238
 9990SOL    HW142001   8.092   0.830   6.219
 9990SOL    HW242002   7.954   0.747   6.190
 9991SOL     OW42003   9.225   0.342   7.228
 9991SOL    HW142004   9.208   0.373   7.134
 9991SOL    HW242005   9.141   0.305   7.266
 9992SOL     OW42006   9.178   0.934   7.103
 9992SOL    HW142007   9.216   1.025   7.118
 9992SOL    HW242008   9.170   0.917   7.004
 9993SOL     OW42009   8.307   1.374   5.602
 9993SOL    HW142010   8.261   1.389   5.690
 9993SOL    HW242011   8.351   1.459   5.572
 9994SOL     OW42012   8.109   1.790   6.539
 9994SOL    HW142013   8.063   1.878   6.526
 9994SOL    HW242014   8.208   1.802   6.532
 9995SOL     OW42015   8.307   0.956   6.447
 9995SOL    HW142016   8.361   0.887   6.495
 9995SOL    HW242017   8.275   1.025   6.513
 9996SOL     OW42018   9.309   1.569   6.437
 9996SOL    HW142019   9.238   1.557   6.367
 9996SOL    HW242020   9.310   1.490   6.497
 9997SOL     OW42021   7.669   1.314   7.430
 9997SOL    HW142022   7.604   1.241   7.409
 9997SOL    HW242023   7.673   1.328   7.528
 9998SOL     OW42024   7.527   1.240   6.239
 9998SOL    HW142025   7.526   1.193   6.327
 9998SOL    HW242026   7.609   1.212   6.188
 9999SOL     OW42027   8.120   1.391   7.210
 9999SOL    HW142028   8.042   1.341   7.248
 9999SOL    HW242029   8.117   1.486   7.241
10000SOL     OW42030   9.272   0.192   6.813
10000SOL    HW142031   9.268   0.102   6.857
10000SOL    HW242032   9.275   0.181   6.714
10001SOL     OW42033   7.876   0.424   6.106
10001SOL    HW142034   7.906   0.352   6.044
10001SOL    HW242035   7.837   0.384   6.189
10002SOL     OW42036   9.153   1.487   6.690
10002SOL    HW142037   9.060   1.462   6.663
10002SOL    HW242038   9.179   1.437   6.772
10003SOL     OW42039   7.765   0.547   6.866
10003SOL    HW142040   7.803   0.488   6.938
10003SOL    HW242041   7.805   0.521   6.778
10004SOL     OW42042   8.260   1.586   6.273
10004SOL    HW142043   8.292   1.596   6.179
10004SOL    HW242044   8.181   1.524   6.275
10005SOL     OW42045   8.872   0.214   6.698
10005SOL    HW142046   8.924   0.149   6.753
10005SOL    HW242047   8.823   0.277   6.759
10006SOL     OW42048   8.449   0.034   6.740
10006SOL    HW142049   8.386  -0.038   6.709
10006SOL    HW242050   8.542  -0.002   6.740
10007SOL     OW42051   8.218   1.330   5.887
10007SOL    HW142052   8.172   1.243   5.904
10007SOL    HW242053   8.309   1.327   5.928
10008SOL     OW42054   8.066   1.567   6.870
10008SOL    HW142055   8.061   1.649   6.927
10008SOL    HW242056   8.155   1.564   6.825
10009SOL     OW42057   8.748   0.453   6.277
10009SOL    HW142058   8.689   0.533   6.281
10009SOL    HW242059   8.763   0.418   6.370
10010SOL     OW42060   9.041   0.221   6.468
10010SOL    HW142061   8.957   0.220   6.522
10010SOL    HW242062   9.043   0.304   6.412
10011SOL     OW42063   7.487   1.077   5.886
10011SOL    HW142064   7.586   1.066   5.877
10011SOL    HW242065   7.447   0.991   5.918
10012SOL     OW42066   8.323   1.646   5.923
10012SOL    HW142067   8.246   1.611   5.869
10012SOL    HW242068   8.291   1.717   5.985
10013SOL     OW42069   7.678   2.490   0.113
10013SOL    HW142070   7.585   2.488   0.150
10013SOL    HW242071   7.679   2.451   0.021
10014SOL     OW42072   7.673   2.137   0.996
10014SOL    HW142073   7.708   2.120   1.088
10014SOL    HW242074   7.585   2.092   0.984
10015SOL     OW42075   7.467   2.230   0.647
10015SOL    HW142076   7.385   2.273   0.686
10015SOL    HW242077   7.439   2.157   0.584
10016SOL     OW42078   8.017   3.137   1.165
10016SOL    HW142079   7.924   3.130   1.128
10016SOL    HW242080   8.028   3.226   1.209
10017SOL     OW42081   9.003   3.373   0.703
10017SOL    HW142082   8.946   3.357   0.784
10017SOL    HW242083   8.944   3.383   0.623
10018SOL     OW42084   8.583   2.565   0.717
10018SOL    HW142085   8.640   2.643   0.692
10018SOL    HW242086   8.523   2.591   0.793
10019SOL     OW42087   9.203   2.469   0.231
10019SOL    HW142088   9.191   2.456   0.132
10019SOL    HW242089   9.173   2.388   0.280
10020SOL     OW42090   8.216   3.006   1.023
10020SOL    HW142091   8.138   3.023   1.083
10020SOL    HW242092   8.250   3.093   0.987
10021SOL     OW42093   8.298   2.660   1.823
10021SOL    HW142094   8.294   2.736   1.888
10021SOL    HW242095   8.320   2.696   1.732
10022SOL     OW42096   8.133   2.874   0.665
10022SOL    HW142097   8.202   2.858   0.735
10022SOL    HW242098   8.060   2.931   0.703
10023SOL     OW42099   7.783   3.297   1.061
10023SOL    HW142100   7.705   3.266   1.008
10023SOL    HW242101   7.841   3.355   1.004
10024SOL     OW42102   8.908   3.367   1.339
10024SOL    HW142103   8.932   3.461   1.365
10024SOL    HW242104   8.892   3.313   1.421
10025SOL     OW42105   7.886   2.254   1.499
10025SOL    HW142106   7.968   2.198   1.508
10025SOL    HW242107   7.805   2.196   1.503
10026SOL     OW42108   9.051   2.309   0.737
10026SOL    HW142109   8.977   2.355   0.687
10026SOL    HW242110   9.102   2.377   0.790
10027SOL     OW42111   7.679   3.575   0.483
10027SOL    HW142112   7.713   3.652   0.537
10027SOL    HW242113   7.723   3.575   0.393
10028SOL     OW42114   7.678   3.296   0.538
10028SOL    HW142115   7.652   3.392   0.538
10028SOL    HW242116   7.607   3.242   0.583
10029SOL     OW42117   7.688   2.953   0.886
10029SOL    HW142118   7.702   2.869   0.938
10029SOL    HW242119   7.633   3.017   0.941
10030SOL     OW42120   8.068   3.648   1.439
10030SOL    HW142121   7.976   3.631   1.474
10030SOL    HW242122   8.096   3.740   1.465
10031SOL     OW42123   8.054   2.826   0.123
10031SOL    HW142124   8.061   2.910   0.069
10031SOL    HW242125   8.100   2.839   0.211
10032SOL     OW42126   7.570   2.505   0.563
10032SOL    HW142127   7.525   2.417   0.580
10032SOL    HW242128   7.569   2.559   0.647
10033SOL     OW42129   9.290   3.629   0.359
10033SOL    HW142130   9.344   3.600   0.439
10033SOL    HW242131   9.320   3.719   0.330
10034SOL     OW42132   7.475   3.458   0.117
10034SOL    HW142133   7.456   3.362   0.138
10034SOL    HW242134   7.442   3.516   0.192
10035SOL     OW42135   9.137   2.784   0.612
10035SOL    HW142136   9.232   2.755   0.620
10035SOL    HW242137   9.129   2.849   0.537
10036SOL     OW42138   9.089   2.970   0.432
10036SOL    HW142139   9.175   2.972   0.380
10036SOL    HW242140   9.103   3.017   0.520
10037SOL     OW42141   7.561   2.599   1.597
10037SOL    HW142142   7.649   2.586   1.642
10037SOL    HW242143   7.548   2.696   1.575
10038SOL     OW42144   8.061   3.227   0.726
10038SOL    HW142145   8.012   3.140   0.735
10038SOL    HW242146   8.038   3.270   0.639
10039SOL     OW42147   8.257   1.866   0.502
10039SOL    HW142148   8.297   1.957   0.493
10039SOL    HW242149   8.157   1.874   0.508
10040SOL     OW42150   7.645   2.838   1.264
10040SOL    HW142151   7.734   2.793   1.250
10040SOL    HW242152   7.572   2.773   1.245
10041SOL     OW42153   8.973   2.861   0.190
10041SOL    HW142154   8.910   2.785   0.203
10041SOL    HW242155   9.021   2.879   0.276
10042SOL     OW42156   8.914   3.279   0.953
10042SOL    HW142157   8.855   3.285   1.033
10042SOL    HW242158   8.899   3.191   0.907
10043SOL     OW42159   9.115   3.576   0.572
10043SOL    HW142160   9.074   3.553   0.484
10043SOL    HW242161   9.097   3.502   0.637
10044SOL     OW42162   8.046   2.591   0.270
10044SOL    HW142163   8.070   2.660   0.202
10044SOL    HW242164   7.968   2.624   0.324
10045SOL     OW42165   8.729   2.207   0.944
10045SOL    HW142166   8.643   2.157   0.931
10045SOL    HW242167   8.791   2.153   1.000
10046SOL     OW42168   9.024   3.524   0.307
10046SOL    HW142169   9.113   3.570   0.310
10046SOL    HW242170   9.003   3.500   0.212
10047SOL     OW42171   8.255   2.467   1.465
10047SOL    HW142172   8.208   2.464   1.554
10047SOL    HW242173   8.204   2.412   1.399
10048SOL     OW42174   8.842   2.331   1.674
10048SOL    HW142175   8.822   2.374   1.762
10048SOL    HW242176   8.920   2.269   1.683
10049SOL     OW42177   8.421   2.752   1.572
10049SOL    HW142178   8.467   2.668   1.543
10049SOL    HW242179   8.365   2.786   1.497
10050SOL     OW42180   8.439   2.272   1.242
10050SOL    HW142181   8.362   2.306   1.296
10050SOL    HW242182   8.405   2.221   1.163
10051SOL     OW42183   8.489   2.563   0.429
10051SOL    HW142184   8.515   2.559   0.525
10051SOL    HW242185   8.404   2.512   0.415
10052SOL     OW42186   7.524   2.673   0.789
10052SOL    HW142187   7.623   2.661   0.798
10052SOL    HW242188   7.500   2.768   0.810
10053SOL     OW42189   7.578   3.683   1.571
10053SOL    HW142190   7.568   3.668   1.670
10053SOL    HW242191   7.492   3.719   1.535
10054SOL     OW42192   8.313   2.210   0.195
10054SOL    HW142193   8.372   2.273   0.146
10054SOL    HW242194   8.332   2.116   0.166
10055SOL     OW42195   8.810   3.006   0.545
10055SOL    HW142196   8.893   2.977   0.497
10055SOL    HW242197   8.761   3.073   0.489
10056SOL     OW42198   7.998   2.058   0.885
10056SOL    HW142199   7.993   2.053   0.985
10056SOL    HW242200   8.000   2.154   0.856
10057SOL     OW42201   8.456   3.318   0.477
10057SOL    HW142202   8.410   3.390   0.425
10057SOL    HW242203   8.452   3.338   0.575
10058SOL     OW42204   7.799   3.663   0.853
10058SOL    HW142205   7.849   3.577   0.859
10058SOL    HW242206   7.864   3.740   0.850
10059SOL     OW42207   9.243   2.928   0.873
10059SOL    HW142208   9.181   2.913   0.797
10059SOL    HW242209   9.191   2.939   0.958
10060SOL     OW42210   8.675   3.412   1.506
10060SOL    HW142211   8.681   3.335   1.570
10060SOL    HW242212   8.623   3.386   1.426
10061SOL     OW42213   7.769   2.805   0.242
10061SOL    HW142214   7.851   2.844   0.200
10061SOL    HW242215   7.742   2.723   0.193
10062SOL     OW42216   8.906   2.597   0.728
10062SOL    HW142217   8.901   2.532   0.803
10062SOL    HW242218   8.986   2.656   0.741
10063SOL     OW42219   7.909   3.128   1.727
10063SOL    HW142220   7.859   3.129   1.641
10063SOL    HW242221   7.846   3.110   1.803
10064SOL     OW42222   8.559   3.638   0.237
10064SOL    HW142223   8.499   3.576   0.287
10064SOL    HW242224   8.590   3.594   0.152
10065SOL     OW42225   9.080   3.239   0.081
10065SOL    HW142226   9.048   3.333   0.071
10065SOL    HW242227   9.004   3.176   0.069
10066SOL     OW42228   7.912   3.605   0.323
10066SOL    HW142229   7.945   3.644   0.409
10066SOL    HW242230   7.988   3.598   0.258
10067SOL     OW42231   8.848   1.969   0.426
10067SOL    HW142232   8.824   1.932   0.336
10067SOL    HW242233   8.947   1.985   0.430
10068SOL     OW42234   7.697   3.647   1.241
10068SOL    HW142235   7.754   3.582   1.291
10068SOL    HW242236   7.681   3.614   1.148
10069SOL     OW42237   8.388   3.560   0.904
10069SOL    HW142238   8.468   3.503   0.925
10069SOL    HW242239   8.339   3.520   0.827
10070SOL     OW42240   7.830   2.562   0.480
10070SOL    HW142241   7.875   2.472   0.477
10070SOL    HW242242   7.736   2.551   0.513
10071SOL     OW42243   8.062   1.984   0.117
10071SOL    HW142244   8.160   1.962   0.124
10071SOL    HW242245   8.031   1.967   0.024
10072SOL     OW42246   8.229   2.126   1.749
10072SOL    HW142247   8.296   2.065   1.792
10072SOL    HW242248   8.156   2.145   1.814
10073SOL     OW42249   8.336   3.376   1.195
10073SOL    HW142250   8.313   3.351   1.101
10073SOL    HW242251   8.397   3.307   1.234
10074SOL     OW42252   8.799   2.452   1.433
10074SOL    HW142253   8.827   2.409   1.518
10074SOL    HW242254   8.824   2.548   1.434
10075SOL     OW42255   8.251   3.264   0.924
10075SOL    HW142256   8.341   3.278   0.882
10075SOL    HW242257   8.180   3.266   0.853
10076SOL     OW42258   8.370   2.365   0.899
10076SOL    HW142259   8.345   2.356   0.803
10076SOL    HW242260   8.418   2.283   0.930
10077SOL     OW42261   7.987   1.926   0.512
10077SOL    HW142262   7.906   1.927   0.570
10077SOL    HW242263   7.990   2.009   0.457
10078SOL     OW42264   8.882   3.050   0.041
10078SOL    HW142265   8.914   2.974   0.098
10078SOL    HW242266   8.790   3.077   0.071
10079SOL     OW42267   7.745   1.897   0.171
10079SOL    HW142268   7.794   1.981   0.150
10079SOL    HW242269   7.807   1.832   0.216
10080SOL     OW42270   8.383   2.098   0.480
10080SOL    HW142271   8.335   2.139   0.402
10080SOL    HW242272   8.482   2.096   0.461
10081SOL     OW42273   8.524   2.545   1.464
10081SOL    HW142274   8.444   2.484   1.467
10081SOL    HW242275   8.605   2.492   1.440
10082SOL     OW42276   8.675   3.432   0.793
10082SOL    HW142277   8.696   3.506   0.728
10082SOL    HW242278   8.743   3.432   0.866
10083SOL     OW42279   7.907   3.014   0.741
10083SOL    HW142280   7.836   2.987   0.806
10083SOL    HW242281   7.881   2.986   0.648
10084SOL     OW42282   8.719   3.659   0.591
10084SOL    HW142283   8.763   3.723   0.527
10084SOL    HW242284   8.669   3.711   0.661
10085SOL     OW42285   8.480   2.411   0.016
10085SOL    HW142286   8.439   2.493  -0.023
10085SOL    HW242287   8.544   2.437   0.089
10086SOL     OW42288   7.526   2.418   1.386
10086SOL    HW142289   7.618   2.417   1.345
10086SOL    HW242290   7.520   2.492   1.453
10087SOL     OW42291   8.009   2.084   1.147
10087SOL    HW142292   8.047   2.000   1.184
10087SOL    HW242293   7.921   2.103   1.191
10088SOL     OW42294   8.314   2.316   0.642
10088SOL    HW142295   8.282   2.388   0.580
10088SOL    HW242296   8.338   2.235   0.589
10089SOL     OW42297   8.465   1.901   0.753
10089SOL    HW142298   8.393   1.906   0.684
10089SOL    HW242299   8.441   1.832   0.822
10090SOL     OW42300   8.877   3.035   0.867
10090SOL    HW142301   8.822   2.951   0.860
10090SOL    HW242302   8.903   3.064   0.775
10091SOL     OW42303   8.914   2.452   0.992
10091SOL    HW142304   8.884   2.357   0.999
10091SOL    HW242305   8.987   2.468   1.058
10092SOL     OW42306   9.305   2.695   0.377
10092SOL    HW142307   9.347   2.631   0.441
10092SOL    HW242308   9.267   2.644   0.299
10093SOL     OW42309   7.936   3.247   0.174
10093SOL    HW142310   7.849   3.232   0.221
10093SOL    HW242311   7.919   3.273   0.079
10094SOL     OW42312   9.112   3.142   0.657
10094SOL    HW142313   9.211   3.150   0.671
10094SOL    HW242314   9.067   3.226   0.688
10095SOL     OW42315   8.838   2.437   0.078
10095SOL    HW142316   8.784   2.416   0.159
10095SOL    HW242317   8.929   2.396   0.087
10096SOL     OW42318   7.975   2.118   0.328
10096SOL    HW142319   8.002   2.059   0.253
10096SOL    HW242320   7.975   2.213   0.297
10097SOL     OW42321   9.202   3.085   1.588
10097SOL    HW142322   9.293   3.046   1.575
10097SOL    HW242323   9.210   3.181   1.612
10098SOL     OW42324   8.512   3.209   1.340
10098SOL    HW142325   8.432   3.186   1.395
10098SOL    HW242326   8.595   3.183   1.389
10099SOL     OW42327   9.040   3.491   1.625
10099SOL    HW142328   9.067   3.525   1.535
10099SOL    HW242329   9.119   3.453   1.671
10100SOL     OW42330   8.559   3.057   1.100
10100SOL    HW142331   8.519   3.101   1.181
10100SOL    HW242332   8.518   3.094   1.017
10101SOL     OW42333   9.086   2.961   1.079
10101SOL    HW142334   9.091   3.042   1.138
10101SOL    HW242335   9.000   2.963   1.028
10102SOL     OW42336   8.153   2.912   0.368
10102SOL    HW142337   8.139   2.919   0.467
10102SOL    HW242338   8.237   2.861   0.350
10103SOL     OW42339   7.858   2.675   1.251
10103SOL    HW142340   7.944   2.687   1.301
10103SOL    HW242341   7.816   2.588   1.278
10104SOL     OW42342   8.722   2.248   1.262
10104SOL    HW142343   8.743   2.322   1.326
10104SOL    HW242344   8.633   2.265   1.219
10105SOL     OW42345   7.512   3.426   1.331
10105SOL    HW142346   7.466   3.508   1.297
10105SOL    HW242347   7.610   3.445   1.340
10106SOL     OW42348   7.815   2.962   0.501
10106SOL    HW142349   7.808   3.045   0.445
10106SOL    HW242350   7.819   2.882   0.441
10107SOL     OW42351   8.014   2.399   0.865
10107SOL    HW142352   8.026   2.465   0.791
10107SOL    HW242353   8.060   2.433   0.948
10108SOL     OW42354   8.700   3.210   0.388
10108SOL    HW142355   8.750   3.287   0.428
10108SOL    HW242356   8.605   3.212   0.420
10109SOL     OW42357   8.720   3.307   1.142
10109SOL    HW142358   8.767   3.320   1.229
10109SOL    HW242359   8.654   3.233   1.151
10110SOL     OW42360   9.030   2.501   0.472
10110SOL    HW142361   8.999   2.562   0.545
10110SOL    HW242362   9.080   2.553   0.403
10111SOL     OW42363   7.802   3.372   1.329
10111SOL    HW142364   7.781   3.328   1.242
10111SOL    HW242365   7.899   3.398   1.332
10112SOL     OW42366   8.461   1.967   1.770
10112SOL    HW142367   8.467   2.052   1.718
10112SOL    HW242368   8.493   1.891   1.713
10113SOL     OW42369   7.952   1.912   1.740
10113SOL    HW142370   7.910   1.855   1.670
10113SOL    HW242371   7.886   1.981   1.772
10114SOL     OW42372   8.021   2.732   1.029
10114SOL    HW142373   8.065   2.821   1.020
10114SOL    HW242374   7.958   2.732   1.106
10115SOL     OW42375   8.808   2.724   1.045
10115SOL    HW142376   8.733   2.724   0.979
10115SOL    HW242377   8.845   2.632   1.054
10116SOL     OW42378   8.657   2.387   0.275
10116SOL    HW142379   8.670   2.303   0.329
10116SOL    HW242380   8.628   2.461   0.335
10117SOL     OW42381   7.485   3.172   1.282
10117SOL    HW142382   7.538   3.123   1.350
10117SOL    HW242383   7.507   3.270   1.287
10118SOL     OW42384   8.180   2.496   1.064
10118SOL    HW142385   8.239   2.470   0.988
10118SOL    HW242386   8.152   2.592   1.053
10119SOL     OW42387   7.755   1.925   0.618
10119SOL    HW142388   7.744   2.019   0.651
10119SOL    HW242389   7.750   1.862   0.695
10120SOL     OW42390   9.070   2.229   0.374
10120SOL    HW142391   9.072   2.153   0.438
10120SOL    HW242392   9.022   2.306   0.414
10121SOL     OW42393   8.471   2.628   0.966
10121SOL    HW142394   8.486   2.649   1.062
10121SOL    HW242395   8.441   2.533   0.957
10122SOL     OW42396   9.307   3.380   1.605
10122SOL    HW142397   9.321   3.407   1.510
10122SOL    HW242398   9.390   3.402   1.658
10123SOL     OW42399   8.988   2.136   0.125
10123SOL    HW142400   8.927   2.061   0.148
10123SOL    HW242401   9.010   2.188   0.208
10124SOL     OW42402   8.751   2.700   0.042
10124SOL    HW142403   8.785   2.607   0.057
10124SOL    HW242404   8.769   2.727  -0.053
10125SOL     OW42405   8.516   3.195   0.849
10125SOL    HW142406   8.523   3.111   0.794
10125SOL    HW242407   8.578   3.264   0.813
10126SOL     OW42408   7.767   2.672   0.949
10126SOL    HW142409   7.860   2.708   0.954
10126SOL    HW242410   7.761   2.587   1.001
10127SOL     OW42411   7.787   2.371   1.006
10127SOL    HW142412   7.735   2.288   0.989
10127SOL    HW242413   7.864   2.376   0.942
10128SOL     OW42414   8.586   2.242   1.678
10128SOL    HW142415   8.541   2.305   1.742
10128SOL    HW242416   8.679   2.273   1.661
10129SOL     OW42417   8.608   2.069   1.477
10129SOL    HW142418   8.608   2.133   1.554
10129SOL    HW242419   8.636   2.117   1.394
10130SOL     OW42420   7.456   3.188   0.200
10130SOL    HW142421   7.363   3.209   0.169
10130SOL    HW242422   7.466   3.089   0.213
10131SOL     OW42423   7.536   3.663   0.927
10131SOL    HW142424   7.494   3.577   0.900
10131SOL    HW242425   7.630   3.666   0.893
10132SOL     OW42426   7.952   3.430   0.910
10132SOL    HW142427   8.018   3.504   0.919
10132SOL    HW242428   7.996   3.351   0.868
10133SOL     OW42429   8.450   2.658   1.238
10133SOL    HW142430   8.491   2.626   1.324
10133SOL    HW242431   8.354   2.631   1.235
10134SOL     OW42432   7.488   2.406   1.114
10134SOL    HW142433   7.573   2.373   1.073
10134SOL    HW242434   7.501   2.421   1.212
10135SOL     OW42435   8.263   2.434   0.325
10135SOL    HW142436   8.270   2.345   0.279
10135SOL    HW242437   8.169   2.468   0.317
10136SOL     OW42438   9.105   2.466   1.206
10136SOL    HW142439   9.067   2.397   1.268
10136SOL    HW242440   9.187   2.430   1.162
10137SOL     OW42441   7.700   3.426   1.744
10137SOL    HW142442   7.670   3.483   1.820
10137SOL    HW242443   7.693   3.329   1.770
10138SOL     OW42444   8.119   2.326   1.269
10138SOL    HW142445   8.085   2.237   1.239
10138SOL    HW242446   8.145   2.380   1.189
10139SOL     OW42447   8.378   3.540   1.465
10139SOL    HW142448   8.354   3.522   1.370
10139SOL    HW242449   8.408   3.634   1.475
10140SOL     OW42450   7.921   2.362   0.191
10140SOL    HW142451   7.982   2.442   0.195
10140SOL    HW242452   7.826   2.393   0.198
10141SOL     OW42453   7.607   2.999   1.466
10141SOL    HW142454   7.629   2.938   1.542
10141SOL    HW242455   7.617   2.950   1.380
10142SOL     OW42456   8.795   2.921   1.234
10142SOL    HW142457   8.819   2.858   1.160
10142SOL    HW242458   8.705   2.961   1.216
10143SOL     OW42459   8.750   2.717   0.309
10143SOL    HW142460   8.664   2.686   0.351
10143SOL    HW242461   8.746   2.703   0.210
10144SOL     OW42462   9.207   3.609   1.154
10144SOL    HW142463   9.268   3.639   1.081
10144SOL    HW242464   9.169   3.520   1.132
10145SOL     OW42465   8.700   3.593   1.128
10145SOL    HW142466   8.784   3.598   1.074
10145SOL    HW242467   8.677   3.497   1.146
10146SOL     OW42468   7.531   3.120   1.022
10146SOL    HW142469   7.526   3.119   1.122
10146SOL    HW242470   7.448   3.079   0.984
10147SOL     OW42471   8.136   3.524   1.716
10147SOL    HW142472   8.080   3.605   1.725
10147SOL    HW242473   8.188   3.528   1.630
10148SOL     OW42474   8.351   1.948   0.133
10148SOL    HW142475   8.402   1.949   0.047
10148SOL    HW242476   8.407   1.906   0.204
10149SOL     OW42477   9.174   1.997   0.523
10149SOL    HW142478   9.247   1.980   0.456
10149SOL    HW242479   9.143   1.910   0.561
10150SOL     OW42480   8.836   3.435   0.477
10150SOL    HW142481   8.903   3.447   0.403
10150SOL    HW242482   8.796   3.524   0.500
10151SOL     OW42483   8.728   2.789   0.672
10151SOL    HW142484   8.788   2.708   0.674
10151SOL    HW242485   8.768   2.858   0.612
10152SOL     OW42486   8.120   3.478   0.154
10152SOL    HW142487   8.129   3.488   0.055
10152SOL    HW242488   8.080   3.389   0.175
10153SOL     OW42489   9.289   2.037   0.963
10153SOL    HW142490   9.328   1.952   0.927
10153SOL    HW242491   9.191   2.039   0.944
10154SOL     OW42492   7.711   2.188   0.720
10154SOL    HW142493   7.632   2.239   0.686
10154SOL    HW242494   7.702   2.173   0.818
10155SOL     OW42495   8.642   3.474   0.031
10155SOL    HW142496   8.648   3.381   0.068
10155SOL    HW242497   8.583   3.474  -0.049
10156SOL     OW42498   8.270   2.864   1.372
10156SOL    HW142499   8.310   2.863   1.280
10156SOL    HW242500   8.280   2.956   1.412
10157SOL     OW42501   8.364   2.772   0.291
10157SOL    HW142502   8.427   2.810   0.223
10157SOL    HW242503   8.404   2.689   0.330
10158SOL     OW42504   8.952   3.469   0.044
10158SOL    HW142505   8.860   3.506   0.051
10158SOL    HW242506   8.990   3.489  -0.046
10159SOL     OW42507   7.820   3.150   1.490
10159SOL    HW142508   7.807   3.243   1.456
10159SOL    HW242509   7.736   3.098   1.477
10160SOL     OW42510   9.062   3.154   1.289
10160SOL    HW142511   9.122   3.157   1.369
10160SOL    HW242512   8.987   3.218   1.302
10161SOL     OW42513   8.487   2.960   0.696
10161SOL    HW142514   8.417   2.913   0.750
10161SOL    HW242515   8.546   2.892   0.653
10162SOL     OW42516   8.462   2.098   0.971
10162SOL    HW142517   8.454   2.062   0.878
10162SOL    HW242518   8.460   2.022   1.036
10163SOL     OW42519   8.038   3.349   0.491
10163SOL    HW142520   8.080   3.291   0.421
10163SOL    HW242521   7.994   3.428   0.447
10164SOL     OW42522   9.157   2.247   1.381
10164SOL    HW142523   9.230   2.316   1.385
10164SOL    HW242524   9.185   2.172   1.322
10165SOL     OW42525   7.703   3.210   0.290
10165SOL    HW142526   7.607   3.211   0.263
10165SOL    HW242527   7.715   3.263   0.374
10166SOL     OW42528   7.553   2.875   1.726
10166SOL    HW142529   7.476   2.842   1.780
10166SOL    HW242530   7.638   2.845   1.768
10167SOL     OW42531   8.120   2.065   1.489
10167SOL    HW142532   8.210   2.049   1.449
10167SOL    HW242533   8.128   2.070   1.588
10168SOL     OW42534   7.523   2.207   0.033
10168SOL    HW142535   7.431   2.179   0.004
10168SOL    HW242536   7.554   2.284  -0.023
10169SOL     OW42537   8.888   2.718   1.398
10169SOL    HW142538   8.831   2.770   1.335
10169SOL    HW242539   8.984   2.730   1.374
10170SOL     OW42540   7.520   2.028   0.318
10170SOL    HW142541   7.503   2.111   0.264
10170SOL    HW242542   7.610   1.991   0.296
10171SOL     OW42543   8.631   3.197   0.119
10171SOL    HW142544   8.532   3.186   0.121
10171SOL    HW242545   8.665   3.212   0.212
10172SOL     OW42546   8.061   2.704   1.431
10172SOL    HW142547   8.117   2.785   1.414
10172SOL    HW242548   8.120   2.624   1.434
10173SOL     OW42549   8.941   3.629   0.959
10173SOL    HW142550   8.974   3.693   0.890
10173SOL    HW242551   9.007   3.623   1.034
10174SOL     OW42552   8.164   2.427   1.708
10174SOL    HW142553   8.183   2.492   1.782
10174SOL    HW242554   8.224   2.347   1.717
10175SOL     OW42555   7.838   3.603   1.560
10175SOL    HW142556   7.747   3.644   1.558
10175SOL    HW242557   7.831   3.509   1.592
10176SOL     OW42558   9.122   2.745   1.254
10176SOL    HW142559   9.095   2.656   1.217
10176SOL    HW242560   9.123   2.813   1.181
10177SOL     OW42561   8.673   2.187   0.449
10177SOL    HW142562   8.738   2.113   0.438
10177SOL    HW242563   8.693   2.237   0.533
10178SOL     OW42564   8.042   2.607   0.652
10178SOL    HW142565   8.092   2.692   0.633
10178SOL    HW242566   7.954   2.609   0.604
10179SOL     OW42567   9.178   2.796   1.517
10179SOL    HW142568   9.216   2.887   1.532
10179SOL    HW242569   9.170   2.779   1.418
10180SOL     OW42570   8.307   3.236   0.016
10180SOL    HW142571   8.261   3.251   0.104
10180SOL    HW242572   8.351   3.321  -0.014
10181SOL     OW42573   8.109   3.652   0.953
10181SOL    HW142574   8.063   3.740   0.940
10181SOL    HW242575   8.208   3.664   0.946
10182SOL     OW42576   8.307   2.818   0.861
10182SOL    HW142577   8.361   2.749   0.909
10182SOL    HW242578   8.275   2.887   0.927
10183SOL     OW42579   8.531   2.846   0.087
10183SOL    HW142580   8.508   2.899   0.005
10183SOL    HW242581   8.612   2.790   0.068
10184SOL     OW42582   9.309   3.431   0.851
10184SOL    HW142583   9.238   3.419   0.781
10184SOL    HW242584   9.310   3.352   0.911
10185SOL     OW42585   7.527   3.102   0.653
10185SOL    HW142586   7.526   3.055   0.741
10185SOL    HW242587   7.609   3.074   0.602
10186SOL     OW42588   8.120   3.253   1.624
10186SOL    HW142589   8.042   3.203   1.662
10186SOL    HW242590   8.117   3.348   1.655
10187SOL     OW42591   9.272   2.054   1.227
10187SOL    HW142592   9.268   1.964   1.271
10187SOL    HW242593   9.275   2.043   1.128
10188SOL     OW42594   7.876   2.286   0.520
10188SOL    HW142595   7.906   2.214   0.458
10188SOL    HW242596   7.837   2.246   0.603
10189SOL     OW42597   9.153   3.349   1.104
10189SOL    HW142598   9.060   3.324   1.077
10189SOL    HW242599   9.179   3.299   1.186
10190SOL     OW42600   7.765   2.409   1.280
10190SOL    HW142601   7.803   2.350   1.352
10190SOL    HW242602   7.805   2.383   1.192
10191SOL     OW42603   8.260   3.448   0.687
10191SOL    HW142604   8.292   3.458   0.593
10191SOL    HW242605   8.181   3.386   0.689
10192SOL     OW42606   8.872   2.076   1.112
10192SOL    HW142607   8.924   2.011   1.167
10192SOL    HW242608   8.823   2.139   1.173
10193SOL     OW42609   8.218   3.192   0.301
10193SOL    HW142610   8.172   3.105   0.318
10193SOL    HW242611   8.309   3.189   0.342
10194SOL     OW42612   8.066   3.429   1.284
10194SOL    HW142613   8.061   3.511   1.341
10194SOL    HW242614   8.155   3.426   1.239
10195SOL     OW42615   8.800   1.914   0.168
10195SOL    HW142616   8.835   1.873   0.084
10195SOL    HW242617   8.710   1.876   0.188
10196SOL     OW42618   8.748   2.315   0.691
10196SOL    HW142619   8.689   2.395   0.695
10196SOL    HW242620   8.763   2.280   0.784
10197SOL     OW42621   9.041   2.083   0.882
10197SOL    HW142622   8.957   2.082   0.936
10197SOL    HW242623   9.043   2.166   0.826
10198SOL     OW42624   7.487   2.939   0.300
10198SOL    HW142625   7.586   2.928   0.291
10198SOL    HW242626   7.447   2.853   0.332
10199SOL     OW42627   8.323   3.508   0.337
10199SOL    HW142628   8.246   3.473   0.283
10199SOL    HW242629   8.291   3.579   0.399
10200SOL     OW42630   7.678   2.490   1.975
10200SOL    HW142631   7.585   2.488   2.012
10200SOL    HW242632   7.679   2.451   1.883
10201SOL     OW42633   8.017   3.137   3.027
10201SOL    HW142634   7.924   3.130   2.990
10201SOL    HW242635   8.028   3.226   3.071
10202SOL     OW42636   8.908   3.367   3.201
10202SOL    HW142637   8.932   3.461   3.227
10202SOL    HW242638   8.892   3.313   3.283
10203SOL     OW42639   7.886   2.254   3.361
10203SOL    HW142640   7.968   2.198   3.370
10203SOL    HW242641   7.805   2.196   3.365
10204SOL     OW42642   9.051   2.309   2.599
10204SOL    HW142643   8.977   2.355   2.549
10204SOL    HW242644   9.102   2.377   2.652
10205SOL     OW42645   7.679   3.575   2.345
10205SOL    HW142646   7.713   3.652   2.399
10205SOL    HW242647   7.723   3.575   2.255
10206SOL     OW42648   8.575   3.203   3.552
10206SOL    HW142649   8.622   3.203   3.640
10206SOL    HW242650   8.527   3.116   3.541
10207SOL     OW42651   9.290   3.629   2.221
10207SOL    HW142652   9.344   3.600   2.301
10207SOL    HW242653   9.320   3.719   2.192
10208SOL     OW42654   9.137   2.784   2.474
10208SOL    HW142655   9.232   2.755   2.482
10208SOL    HW242656   9.129   2.849   2.399
10209SOL     OW42657   9.115   3.576   2.434
10209SOL    HW142658   9.074   3.553   2.346
10209SOL    HW242659   9.097   3.502   2.499
10210SOL     OW42660   8.842   2.331   3.536
10210SOL    HW142661   8.822   2.374   3.624
10210SOL    HW242662   8.920   2.269   3.545
10211SOL     OW42663   7.998   2.058   2.747
10211SOL    HW142664   7.993   2.053   2.847
10211SOL    HW242665   8.000   2.154   2.718
10212SOL     OW42666   8.675   3.412   3.368
10212SOL    HW142667   8.681   3.335   3.432
10212SOL    HW242668   8.623   3.386   3.288
10213SOL     OW42669   7.909   3.128   3.589
10213SOL    HW142670   7.859   3.129   3.503
10213SOL    HW242671   7.846   3.110   3.665
10214SOL     OW42672   7.650   2.147   3.360
10214SOL    HW142673   7.570   2.207   3.347
10214SOL    HW242674   7.640   2.098   3.446
10215SOL     OW42675   7.912   3.605   2.185
10215SOL    HW142676   7.945   3.644   2.271
10215SOL    HW242677   7.988   3.598   2.120
10216SOL     OW42678   7.697   3.647   3.103
10216SOL    HW142679   7.754   3.582   3.153
10216SOL    HW242680   7.681   3.614   3.010
10217SOL     OW42681   8.388   3.560   2.766
10217SOL    HW142682   8.468   3.503   2.787
10217SOL    HW242683   8.339   3.520   2.689
10218SOL     OW42684   7.830   2.562   2.342
10218SOL    HW142685   7.875   2.472   2.339
10218SOL    HW242686   7.736   2.551   2.375
10219SOL     OW42687   8.995   2.084   3.591
10219SOL    HW142688   8.990   2.121   3.683
10219SOL    HW242689   8.923   2.015   3.579
10220SOL     OW42690   8.062   1.984   1.979
10220SOL    HW142691   8.160   1.962   1.986
10220SOL    HW242692   8.031   1.967   1.886
10221SOL     OW42693   8.229   2.126   3.611
10221SOL    HW142694   8.296   2.065   3.654
10221SOL    HW242695   8.156   2.145   3.676
10222SOL     OW42696   8.370   2.365   2.761
10222SOL    HW142697   8.345   2.356   2.665
10222SOL    HW242698   8.418   2.283   2.792
10223SOL     OW42699   8.524   2.545   3.326
10223SOL    HW142700   8.444   2.484   3.329
10223SOL    HW242701   8.605   2.492   3.302
10224SOL     OW42702   8.719   3.659   2.453
10224SOL    HW142703   8.763   3.723   2.389
10224SOL    HW242704   8.669   3.711   2.523
10225SOL     OW42705   8.877   3.035   2.729
10225SOL    HW142706   8.822   2.951   2.722
10225SOL    HW242707   8.903   3.064   2.637
10226SOL     OW42708   8.838   2.437   1.940
10226SOL    HW142709   8.784   2.416   2.021
10226SOL    HW242710   8.929   2.396   1.949
10227SOL     OW42711   7.975   2.118   2.190
10227SOL    HW142712   8.002   2.059   2.115
10227SOL    HW242713   7.975   2.213   2.159
10228SOL     OW42714   8.363   1.951   3.264
10228SOL    HW142715   8.388   1.931   3.169
10228SOL    HW242716   8.435   2.007   3.306
10229SOL     OW42717   8.428   2.978   3.581
10229SOL    HW142718   8.329   2.984   3.591
10229SOL    HW242719   8.451   2.898   3.525
10230SOL     OW42720   8.720   3.307   3.004
10230SOL    HW142721   8.767   3.320   3.091
10230SOL    HW242722   8.654   3.233   3.013
10231SOL     OW42723   9.176   2.797   3.716
10231SOL    HW142724   9.130   2.790   3.627
10231SOL    HW242725   9.114   2.841   3.782
10232SOL     OW42726   8.428   3.435   3.562
10232SOL    HW142727   8.408   3.479   3.474
10232SOL    HW242728   8.467   3.344   3.546
10233SOL     OW42729   8.751   2.700   1.904
10233SOL    HW142730   8.785   2.607   1.919
10233SOL    HW242731   8.769   2.727   1.809
10234SOL     OW42732   7.767   2.672   2.811
10234SOL    HW142733   7.860   2.708   2.816
10234SOL    HW242734   7.761   2.587   2.863
10235SOL     OW42735   8.817   2.812   3.522
10235SOL    HW142736   8.856   2.901   3.542
10235SOL    HW242737   8.827   2.792   3.425
10236SOL     OW42738   9.105   2.466   3.068
10236SOL    HW142739   9.067   2.397   3.130
10236SOL    HW242740   9.187   2.430   3.024
10237SOL     OW42741   7.700   3.426   3.606
10237SOL    HW142742   7.670   3.483   3.682
10237SOL    HW242743   7.693   3.329   3.632
10238SOL     OW42744   8.119   2.326   3.131
10238SOL    HW142745   8.085   2.237   3.101
10238SOL    HW242746   8.145   2.380   3.051
10239SOL     OW42747   9.207   3.609   3.016
10239SOL    HW142748   9.268   3.639   2.943
10239SOL    HW242749   9.169   3.520   2.994
10240SOL     OW42750   9.174   1.997   2.385
10240SOL    HW142751   9.247   1.980   2.318
10240SOL    HW242752   9.143   1.910   2.423
10241SOL     OW42753   8.120   3.478   2.016
10241SOL    HW142754   8.129   3.488   1.917
10241SOL    HW242755   8.080   3.389   2.037
10242SOL     OW42756   8.952   3.469   1.906
10242SOL    HW142757   8.860   3.506   1.913
10242SOL    HW242758   8.990   3.489   1.816
10243SOL     OW42759   7.820   3.150   3.352
10243SOL    HW142760   7.807   3.243   3.318
10243SOL    HW242761   7.736   3.098   3.339
10244SOL     OW42762   9.062   3.154   3.151
10244SOL    HW142763   9.122   3.157   3.231
10244SOL    HW242764   8.987   3.218   3.164
10245SOL     OW42765   8.487   2.960   2.558
10245SOL    HW142766   8.417   2.913   2.612
10245SOL    HW242767   8.546   2.892   2.515
10246SOL     OW42768   8.898   3.082   3.495
10246SOL    HW142769   8.889   3.072   3.594
10246SOL    HW242770   8.994   3.075   3.469
10247SOL     OW42771   8.042   2.607   2.514
10247SOL    HW142772   8.092   2.692   2.495
10247SOL    HW242773   7.954   2.609   2.466
10248SOL     OW42774   9.225   2.204   3.504
10248SOL    HW142775   9.208   2.235   3.410
10248SOL    HW242776   9.141   2.167   3.542
10249SOL     OW42777   9.178   2.796   3.379
10249SOL    HW142778   9.216   2.887   3.394
10249SOL    HW242779   9.170   2.779   3.280
10250SOL     OW42780   8.307   3.236   1.878
10250SOL    HW142781   8.261   3.251   1.966
10250SOL    HW242782   8.351   3.321   1.848
10251SOL     OW42783   8.531   2.846   1.949
10251SOL    HW142784   8.508   2.899   1.867
10251SOL    HW242785   8.612   2.790   1.930
10252SOL     OW42786   7.527   3.102   2.515
10252SOL    HW142787   7.526   3.055   2.603
10252SOL    HW242788   7.609   3.074   2.464
10253SOL     OW42789   9.153   3.349   2.966
10253SOL    HW142790   9.060   3.324   2.939
10253SOL    HW242791   9.179   3.299   3.048
10254SOL     OW42792   8.872   2.076   2.974
10254SOL    HW142793   8.924   2.011   3.029
10254SOL    HW242794   8.823   2.139   3.035
10255SOL     OW42795   8.218   3.192   2.163
10255SOL    HW142796   8.172   3.105   2.180
10255SOL    HW242797   8.309   3.189   2.204
10256SOL     OW42798   8.748   2.315   2.553
10256SOL    HW142799   8.689   2.395   2.557
10256SOL    HW242800   8.763   2.280   2.646
10257SOL     OW42801   9.041   2.083   2.744
10257SOL    HW142802   8.957   2.082   2.798
10257SOL    HW242803   9.043   2.166   2.688
10258SOL     OW42804   7.467   2.230   4.371
10258SOL    HW142805   7.385   2.273   4.410
10258SOL    HW242806   7.439   2.157   4.308
10259SOL     OW42807   8.583   2.565   4.441
10259SOL    HW142808   8.640   2.643   4.416
10259SOL    HW242809   8.523   2.591   4.517
10260SOL     OW42810   9.203   2.469   3.955
10260SOL    HW142811   9.191   2.456   3.856
10260SOL    HW242812   9.173   2.388   4.004
10261SOL     OW42813   8.216   3.006   4.747
10261SOL    HW142814   8.138   3.023   4.807
10261SOL    HW242815   8.250   3.093   4.711
10262SOL     OW42816   8.134   3.023   5.527
10262SOL    HW142817   8.194   3.102   5.541
10262SOL    HW242818   8.048   3.054   5.486
10263SOL     OW42819   9.051   2.309   4.461
10263SOL    HW142820   8.977   2.355   4.411
10263SOL    HW242821   9.102   2.377   4.514
10264SOL     OW42822   8.575   3.203   5.414
10264SOL    HW142823   8.622   3.203   5.502
10264SOL    HW242824   8.527   3.116   5.403
10265SOL     OW42825   9.290   3.629   4.083
10265SOL    HW142826   9.344   3.600   4.163
10265SOL    HW242827   9.320   3.719   4.054
10266SOL     OW42828   9.137   2.784   4.336
10266SOL    HW142829   9.232   2.755   4.344
10266SOL    HW242830   9.129   2.849   4.261
10267SOL     OW42831   9.089   2.970   4.156
10267SOL    HW142832   9.175   2.972   4.104
10267SOL    HW242833   9.103   3.017   4.244
10268SOL     OW42834   7.561   2.599   5.321
10268SOL    HW142835   7.649   2.586   5.366
10268SOL    HW242836   7.548   2.696   5.299
10269SOL     OW42837   8.741   3.090   5.147
10269SOL    HW142838   8.778   3.017   5.089
10269SOL    HW242839   8.793   3.095   5.232
10270SOL     OW42840   8.257   1.866   4.226
10270SOL    HW142841   8.297   1.957   4.217
10270SOL    HW242842   8.157   1.874   4.232
10271SOL     OW42843   8.914   3.279   4.677
10271SOL    HW142844   8.855   3.285   4.757
10271SOL    HW242845   8.899   3.191   4.631
10272SOL     OW42846   8.046   2.591   3.994
10272SOL    HW142847   8.070   2.660   3.926
10272SOL    HW242848   7.968   2.624   4.048
10273SOL     OW42849   8.729   2.207   4.668
10273SOL    HW142850   8.643   2.157   4.655
10273SOL    HW242851   8.791   2.153   4.724
10274SOL     OW42852   9.024   3.524   4.031
10274SOL    HW142853   9.113   3.570   4.034
10274SOL    HW242854   9.003   3.500   3.936
10275SOL     OW42855   8.489   2.563   4.153
10275SOL    HW142856   8.515   2.559   4.249
10275SOL    HW242857   8.404   2.512   4.139
10276SOL     OW42858   7.998   2.058   4.609
10276SOL    HW142859   7.993   2.053   4.709
10276SOL    HW242860   8.000   2.154   4.580
10277SOL     OW42861   8.456   3.318   4.201
10277SOL    HW142862   8.410   3.390   4.149
10277SOL    HW242863   8.452   3.338   4.299
10278SOL     OW42864   8.675   3.412   5.230
10278SOL    HW142865   8.681   3.335   5.294
10278SOL    HW242866   8.623   3.386   5.150
10279SOL     OW42867   7.909   3.128   5.451
10279SOL    HW142868   7.859   3.129   5.365
10279SOL    HW242869   7.846   3.110   5.527
10280SOL     OW42870   8.559   3.638   3.961
10280SOL    HW142871   8.499   3.576   4.011
10280SOL    HW242872   8.590   3.594   3.876
10281SOL     OW42873   7.912   3.605   4.047
10281SOL    HW142874   7.945   3.644   4.133
10281SOL    HW242875   7.988   3.598   3.982
10282SOL     OW42876   8.995   2.084   5.453
10282SOL    HW142877   8.990   2.121   5.545
10282SOL    HW242878   8.923   2.015   5.441
10283SOL     OW42879   8.799   2.452   5.157
10283SOL    HW142880   8.827   2.409   5.242
10283SOL    HW242881   8.824   2.548   5.158
10284SOL     OW42882   8.882   3.050   3.765
10284SOL    HW142883   8.914   2.974   3.822
10284SOL    HW242884   8.790   3.077   3.795
10285SOL     OW42885   7.745   1.897   3.895
10285SOL    HW142886   7.794   1.981   3.874
10285SOL    HW242887   7.807   1.832   3.940
10286SOL     OW42888   8.383   2.098   4.204
10286SOL    HW142889   8.335   2.139   4.126
10286SOL    HW242890   8.482   2.096   4.185
10287SOL     OW42891   8.719   3.659   4.315
10287SOL    HW142892   8.763   3.723   4.251
10287SOL    HW242893   8.669   3.711   4.385
10288SOL     OW42894   8.314   2.316   4.366
10288SOL    HW142895   8.282   2.388   4.304
10288SOL    HW242896   8.338   2.235   4.313
10289SOL     OW42897   9.112   3.142   4.381
10289SOL    HW142898   9.211   3.150   4.395
10289SOL    HW242899   9.067   3.226   4.412
10290SOL     OW42900   8.838   2.437   3.802
10290SOL    HW142901   8.784   2.416   3.883
10290SOL    HW242902   8.929   2.396   3.811
10291SOL     OW42903   8.512   3.209   5.064
10291SOL    HW142904   8.432   3.186   5.119
10291SOL    HW242905   8.595   3.183   5.113
10292SOL     OW42906   9.040   3.491   5.349
10292SOL    HW142907   9.067   3.525   5.259
10292SOL    HW242908   9.119   3.453   5.395
10293SOL     OW42909   7.858   2.675   4.975
10293SOL    HW142910   7.944   2.687   5.025
10293SOL    HW242911   7.816   2.588   5.002
10294SOL     OW42912   7.815   2.962   4.225
10294SOL    HW142913   7.808   3.045   4.169
10294SOL    HW242914   7.819   2.882   4.165
10295SOL     OW42915   8.014   2.399   4.589
10295SOL    HW142916   8.026   2.465   4.515
10295SOL    HW242917   8.060   2.433   4.672
10296SOL     OW42918   8.700   3.210   4.112
10296SOL    HW142919   8.750   3.287   4.152
10296SOL    HW242920   8.605   3.212   4.144
10297SOL     OW42921   8.720   3.307   4.866
10297SOL    HW142922   8.767   3.320   4.953
10297SOL    HW242923   8.654   3.233   4.875
10298SOL     OW42924   9.030   2.501   4.196
10298SOL    HW142925   8.999   2.562   4.269
10298SOL    HW242926   9.080   2.553   4.127
10299SOL     OW42927   8.808   2.724   4.769
10299SOL    HW142928   8.733   2.724   4.703
10299SOL    HW242929   8.845   2.632   4.778
10300SOL     OW42930   8.988   2.136   3.849
10300SOL    HW142931   8.927   2.061   3.872
10300SOL    HW242932   9.010   2.188   3.932
10301SOL     OW42933   8.751   2.700   3.766
10301SOL    HW142934   8.785   2.607   3.781
10301SOL    HW242935   8.769   2.727   3.671
10302SOL     OW42936   8.817   2.812   5.384
10302SOL    HW142937   8.856   2.901   5.404
10302SOL    HW242938   8.827   2.792   5.287
10303SOL     OW42939   8.263   2.434   4.049
10303SOL    HW142940   8.270   2.345   4.003
10303SOL    HW242941   8.169   2.468   4.041
10304SOL     OW42942   9.105   2.466   4.930
10304SOL    HW142943   9.067   2.397   4.992
10304SOL    HW242944   9.187   2.430   4.886
10305SOL     OW42945   7.921   2.362   3.915
10305SOL    HW142946   7.982   2.442   3.919
10305SOL    HW242947   7.826   2.393   3.922
10306SOL     OW42948   8.795   2.921   4.958
10306SOL    HW142949   8.819   2.858   4.884
10306SOL    HW242950   8.705   2.961   4.940
10307SOL     OW42951   8.750   2.717   4.033
10307SOL    HW142952   8.664   2.686   4.075
10307SOL    HW242953   8.746   2.703   3.934
10308SOL     OW42954   8.836   3.435   4.201
10308SOL    HW142955   8.903   3.447   4.127
10308SOL    HW242956   8.796   3.524   4.224
10309SOL     OW42957   8.728   2.789   4.396
10309SOL    HW142958   8.788   2.708   4.398
10309SOL    HW242959   8.768   2.858   4.336
10310SOL     OW42960   7.711   2.188   4.444
10310SOL    HW142961   7.632   2.239   4.410
10310SOL    HW242962   7.702   2.173   4.542
10311SOL     OW42963   8.270   2.864   5.096
10311SOL    HW142964   8.310   2.863   5.004
10311SOL    HW242965   8.280   2.956   5.136
10312SOL     OW42966   8.952   3.469   3.768
10312SOL    HW142967   8.860   3.506   3.775
10312SOL    HW242968   8.990   3.489   3.678
10313SOL     OW42969   9.062   3.154   5.013
10313SOL    HW142970   9.122   3.157   5.093
10313SOL    HW242971   8.987   3.218   5.026
10314SOL     OW42972   7.553   2.875   5.450
10314SOL    HW142973   7.476   2.842   5.504
10314SOL    HW242974   7.638   2.845   5.492
10315SOL     OW42975   7.520   2.028   4.042
10315SOL    HW142976   7.503   2.111   3.988
10315SOL    HW242977   7.610   1.991   4.020
10316SOL     OW42978   8.164   2.427   5.432
10316SOL    HW142979   8.183   2.492   5.506
10316SOL    HW242980   8.224   2.347   5.441
10317SOL     OW42981   9.122   2.745   4.978
10317SOL    HW142982   9.095   2.656   4.941
10317SOL    HW242983   9.123   2.813   4.905
10318SOL     OW42984   8.673   2.187   4.173
10318SOL    HW142985   8.738   2.113   4.162
10318SOL    HW242986   8.693   2.237   4.257
10319SOL     OW42987   9.225   2.204   5.366
10319SOL    HW142988   9.208   2.235   5.272
10319SOL    HW242989   9.141   2.167   5.404
10320SOL     OW42990   9.178   2.796   5.241
10320SOL    HW142991   9.216   2.887   5.256
10320SOL    HW242992   9.170   2.779   5.142
10321SOL     OW42993   8.307   2.818   4.585
10321SOL    HW142994   8.361   2.749   4.633
10321SOL    HW242995   8.275   2.887   4.651
10322SOL     OW42996   9.309   3.431   4.575
10322SOL    HW142997   9.238   3.419   4.505
10322SOL    HW242998   9.310   3.352   4.635
10323SOL     OW42999   7.527   3.102   4.377
10323SOL    HW143000   7.526   3.055   4.465
10323SOL    HW243001   7.609   3.074   4.326
10324SOL     OW43002   8.872   2.076   4.836
10324SOL    HW143003   8.924   2.011   4.891
10324SOL    HW243004   8.823   2.139   4.897
10325SOL     OW43005   8.218   3.192   4.025
10325SOL    HW143006   8.172   3.105   4.042
10325SOL    HW243007   8.309   3.189   4.066
10326SOL     OW43008   8.066   3.429   5.008
10326SOL    HW143009   8.061   3.511   5.065
10326SOL    HW243010   8.155   3.426   4.963
10327SOL     OW43011   8.748   2.315   4.415
10327SOL    HW143012   8.689   2.395   4.419
10327SOL    HW243013   8.763   2.280   4.508
10328SOL     OW43014   9.041   2.083   4.606
10328SOL    HW143015   8.957   2.082   4.660
10328SOL    HW243016   9.043   2.166   4.550
10329SOL     OW43017   7.678   2.490   5.699
10329SOL    HW143018   7.585   2.488   5.736
10329SOL    HW243019   7.679   2.451   5.607
10330SOL     OW43020   7.673   2.137   6.582
10330SOL    HW143021   7.708   2.120   6.674
10330SOL    HW243022   7.585   2.092   6.570
10331SOL     OW43023   7.467   2.230   6.233
10331SOL    HW143024   7.385   2.273   6.272
10331SOL    HW243025   7.439   2.157   6.170
10332SOL     OW43026   8.017   3.137   6.751
10332SOL    HW143027   7.924   3.130   6.714
10332SOL    HW243028   8.028   3.226   6.795
10333SOL     OW43029   9.003   3.373   6.289
10333SOL    HW143030   8.946   3.357   6.370
10333SOL    HW243031   8.944   3.383   6.209
10334SOL     OW43032   8.583   2.565   6.303
10334SOL    HW143033   8.640   2.643   6.278
10334SOL    HW243034   8.523   2.591   6.379
10335SOL     OW43035   8.216   3.006   6.609
10335SOL    HW143036   8.138   3.023   6.669
10335SOL    HW243037   8.250   3.093   6.573
10336SOL     OW43038   8.298   2.660   7.409
10336SOL    HW143039   8.294   2.736   7.474
10336SOL    HW243040   8.320   2.696   7.318
10337SOL     OW43041   8.134   3.023   7.389
10337SOL    HW143042   8.194   3.102   7.403
10337SOL    HW243043   8.048   3.054   7.348
10338SOL     OW43044   7.783   3.297   6.647
10338SOL    HW143045   7.705   3.266   6.594
10338SOL    HW243046   7.841   3.355   6.590
10339SOL     OW43047   8.908   3.367   6.925
10339SOL    HW143048   8.932   3.461   6.951
10339SOL    HW243049   8.892   3.313   7.007
10340SOL     OW43050   7.886   2.254   7.085
10340SOL    HW143051   7.968   2.198   7.094
10340SOL    HW243052   7.805   2.196   7.089
10341SOL     OW43053   9.051   2.309   6.323
10341SOL    HW143054   8.977   2.355   6.273
10341SOL    HW243055   9.102   2.377   6.376
10342SOL     OW43056   8.575   3.203   7.276
10342SOL    HW143057   8.622   3.203   7.364
10342SOL    HW243058   8.527   3.116   7.265
10343SOL     OW43059   7.688   2.953   6.472
10343SOL    HW143060   7.702   2.869   6.524
10343SOL    HW243061   7.633   3.017   6.527
10344SOL     OW43062   8.068   3.648   7.025
10344SOL    HW143063   7.976   3.631   7.060
10344SOL    HW243064   8.096   3.740   7.051
10345SOL     OW43065   9.042   1.976   7.066
10345SOL    HW143066   9.024   2.043   6.994
10345SOL    HW243067   9.039   2.022   7.155
10346SOL     OW43068   7.570   2.505   6.149
10346SOL    HW143069   7.525   2.417   6.166
10346SOL    HW243070   7.569   2.559   6.233
10347SOL     OW43071   9.137   2.784   6.198
10347SOL    HW143072   9.232   2.755   6.206
10347SOL    HW243073   9.129   2.849   6.123
10348SOL     OW43074   9.089   2.970   6.018
10348SOL    HW143075   9.175   2.972   5.966
10348SOL    HW243076   9.103   3.017   6.106
10349SOL     OW43077   7.561   2.599   7.183
10349SOL    HW143078   7.649   2.586   7.228
10349SOL    HW243079   7.548   2.696   7.161
10350SOL     OW43080   8.741   3.090   7.009
10350SOL    HW143081   8.778   3.017   6.951
10350SOL    HW243082   8.793   3.095   7.094
10351SOL     OW43083   8.257   1.866   6.088
10351SOL    HW143084   8.297   1.957   6.079
10351SOL    HW243085   8.157   1.874   6.094
10352SOL     OW43086   7.645   2.838   6.850
10352SOL    HW143087   7.734   2.793   6.836
10352SOL    HW243088   7.572   2.773   6.831
10353SOL     OW43089   8.973   2.861   5.776
10353SOL    HW143090   8.910   2.785   5.789
10353SOL    HW243091   9.021   2.879   5.862
10354SOL     OW43092   8.635   3.654   7.202
10354SOL    HW143093   8.659   3.714   7.126
10354SOL    HW243094   8.642   3.559   7.172
10355SOL     OW43095   7.765   2.113   7.387
10355SOL    HW143096   7.836   2.184   7.393
10355SOL    HW243097   7.677   2.152   7.415
10356SOL     OW43098   8.914   3.279   6.539
10356SOL    HW143099   8.855   3.285   6.619
10356SOL    HW243100   8.899   3.191   6.493
10357SOL     OW43101   9.115   3.576   6.158
10357SOL    HW143102   9.074   3.553   6.070
10357SOL    HW243103   9.097   3.502   6.223
10358SOL     OW43104   8.729   2.207   6.530
10358SOL    HW143105   8.643   2.157   6.517
10358SOL    HW243106   8.791   2.153   6.586
10359SOL     OW43107   9.024   3.524   5.893
10359SOL    HW143108   9.113   3.570   5.896
10359SOL    HW243109   9.003   3.500   5.798
10360SOL     OW43110   8.255   2.467   7.051
10360SOL    HW143111   8.208   2.464   7.140
10360SOL    HW243112   8.204   2.412   6.985
10361SOL     OW43113   8.421   2.752   7.158
10361SOL    HW143114   8.467   2.668   7.129
10361SOL    HW243115   8.365   2.786   7.083
10362SOL     OW43116   8.439   2.272   6.828
10362SOL    HW143117   8.362   2.306   6.882
10362SOL    HW243118   8.405   2.221   6.749
10363SOL     OW43119   7.524   2.673   6.375
10363SOL    HW143120   7.623   2.661   6.384
10363SOL    HW243121   7.500   2.768   6.396
10364SOL     OW43122   7.578   3.683   7.157
10364SOL    HW143123   7.568   3.668   7.256
10364SOL    HW243124   7.492   3.719   7.121
10365SOL     OW43125   8.313   2.210   5.781
10365SOL    HW143126   8.372   2.273   5.732
10365SOL    HW243127   8.332   2.116   5.752
10366SOL     OW43128   8.810   3.006   6.131
10366SOL    HW143129   8.893   2.977   6.083
10366SOL    HW243130   8.761   3.073   6.075
10367SOL     OW43131   7.998   2.058   6.471
10367SOL    HW143132   7.993   2.053   6.571
10367SOL    HW243133   8.000   2.154   6.442
10368SOL     OW43134   8.456   3.318   6.063
10368SOL    HW143135   8.410   3.390   6.011
10368SOL    HW243136   8.452   3.338   6.161
10369SOL     OW43137   7.799   3.663   6.439
10369SOL    HW143138   7.849   3.577   6.445
10369SOL    HW243139   7.864   3.740   6.436
10370SOL     OW43140   9.243   2.928   6.459
10370SOL    HW143141   9.181   2.913   6.383
10370SOL    HW243142   9.191   2.939   6.544
10371SOL     OW43143   8.675   3.412   7.092
10371SOL    HW143144   8.681   3.335   7.156
10371SOL    HW243145   8.623   3.386   7.012
10372SOL     OW43146   8.906   2.597   6.314
10372SOL    HW143147   8.901   2.532   6.389
10372SOL    HW243148   8.986   2.656   6.327
10373SOL     OW43149   7.909   3.128   7.313
10373SOL    HW143150   7.859   3.129   7.227
10373SOL    HW243151   7.846   3.110   7.389
10374SOL     OW43152   7.650   2.147   7.084
10374SOL    HW143153   7.570   2.207   7.071
10374SOL    HW243154   7.640   2.098   7.170
10375SOL     OW43155   7.697   3.647   6.827
10375SOL    HW143156   7.754   3.582   6.877
10375SOL    HW243157   7.681   3.614   6.734
10376SOL     OW43158   8.388   3.560   6.490
10376SOL    HW143159   8.468   3.503   6.511
10376SOL    HW243160   8.339   3.520   6.413
10377SOL     OW43161   7.830   2.562   6.066
10377SOL    HW143162   7.875   2.472   6.063
10377SOL    HW243163   7.736   2.551   6.099
10378SOL     OW43164   8.229   2.126   7.335
10378SOL    HW143165   8.296   2.065   7.378
10378SOL    HW243166   8.156   2.145   7.400
10379SOL     OW43167   8.336   3.376   6.781
10379SOL    HW143168   8.313   3.351   6.687
10379SOL    HW243169   8.397   3.307   6.820
10380SOL     OW43170   8.799   2.452   7.019
10380SOL    HW143171   8.827   2.409   7.104
10380SOL    HW243172   8.824   2.548   7.020
10381SOL     OW43173   8.251   3.264   6.510
10381SOL    HW143174   8.341   3.278   6.468
10381SOL    HW243175   8.180   3.266   6.439
10382SOL     OW43176   8.370   2.365   6.485
10382SOL    HW143177   8.345   2.356   6.389
10382SOL    HW243178   8.418   2.283   6.516
10383SOL     OW43179   8.882   3.050   5.627
10383SOL    HW143180   8.914   2.974   5.684
10383SOL    HW243181   8.790   3.077   5.657
10384SOL     OW43182   8.383   2.098   6.066
10384SOL    HW143183   8.335   2.139   5.988
10384SOL    HW243184   8.482   2.096   6.047
10385SOL     OW43185   8.524   2.545   7.050
10385SOL    HW143186   8.444   2.484   7.053
10385SOL    HW243187   8.605   2.492   7.026
10386SOL     OW43188   8.675   3.432   6.379
10386SOL    HW143189   8.696   3.506   6.314
10386SOL    HW243190   8.743   3.432   6.452
10387SOL     OW43191   8.719   3.659   6.177
10387SOL    HW143192   8.763   3.723   6.113
10387SOL    HW243193   8.669   3.711   6.247
10388SOL     OW43194   8.480   2.411   5.602
10388SOL    HW143195   8.439   2.493   5.563
10388SOL    HW243196   8.544   2.437   5.675
10389SOL     OW43197   7.526   2.418   6.972
10389SOL    HW143198   7.618   2.417   6.931
10389SOL    HW243199   7.520   2.492   7.039
10390SOL     OW43200   8.009   2.084   6.733
10390SOL    HW143201   8.047   2.000   6.770
10390SOL    HW243202   7.921   2.103   6.777
10391SOL     OW43203   8.314   2.316   6.228
10391SOL    HW143204   8.282   2.388   6.166
10391SOL    HW243205   8.338   2.235   6.175
10392SOL     OW43206   8.465   1.901   6.339
10392SOL    HW143207   8.393   1.906   6.270
10392SOL    HW243208   8.441   1.832   6.408
10393SOL     OW43209   8.877   3.035   6.453
10393SOL    HW143210   8.822   2.951   6.446
10393SOL    HW243211   8.903   3.064   6.361
10394SOL     OW43212   8.914   2.452   6.578
10394SOL    HW143213   8.884   2.357   6.585
10394SOL    HW243214   8.987   2.468   6.644
10395SOL     OW43215   9.305   2.695   5.963
10395SOL    HW143216   9.347   2.631   6.027
10395SOL    HW243217   9.267   2.644   5.885
10396SOL     OW43218   9.112   3.142   6.243
10396SOL    HW143219   9.211   3.150   6.257
10396SOL    HW243220   9.067   3.226   6.274
10397SOL     OW43221   9.202   3.085   7.174
10397SOL    HW143222   9.293   3.046   7.161
10397SOL    HW243223   9.210   3.181   7.198
10398SOL     OW43224   8.512   3.209   6.926
10398SOL    HW143225   8.432   3.186   6.981
10398SOL    HW243226   8.595   3.183   6.975
10399SOL     OW43227   9.040   3.491   7.211
10399SOL    HW143228   9.067   3.525   7.121
10399SOL    HW243229   9.119   3.453   7.257
10400SOL     OW43230   8.559   3.057   6.686
10400SOL    HW143231   8.519   3.101   6.767
10400SOL    HW243232   8.518   3.094   6.603
10401SOL     OW43233   9.086   2.961   6.665
10401SOL    HW143234   9.091   3.042   6.724
10401SOL    HW243235   9.000   2.963   6.614
10402SOL     OW43236   8.363   1.951   6.988
10402SOL    HW143237   8.388   1.931   6.893
10402SOL    HW243238   8.435   2.007   7.030
10403SOL     OW43239   8.428   2.978   7.305
10403SOL    HW143240   8.329   2.984   7.315
10403SOL    HW243241   8.451   2.898   7.249
10404SOL     OW43242   7.858   2.675   6.837
10404SOL    HW143243   7.944   2.687   6.887
10404SOL    HW243244   7.816   2.588   6.864
10405SOL     OW43245   8.722   2.248   6.848
10405SOL    HW143246   8.743   2.322   6.912
10405SOL    HW243247   8.633   2.265   6.805
10406SOL     OW43248   7.512   3.426   6.917
10406SOL    HW143249   7.466   3.508   6.883
10406SOL    HW243250   7.610   3.445   6.926
10407SOL     OW43251   7.815   2.962   6.087
10407SOL    HW143252   7.808   3.045   6.031
10407SOL    HW243253   7.819   2.882   6.027
10408SOL     OW43254   8.014   2.399   6.451
10408SOL    HW143255   8.026   2.465   6.377
10408SOL    HW243256   8.060   2.433   6.534
10409SOL     OW43257   8.700   3.210   5.974
10409SOL    HW143258   8.750   3.287   6.014
10409SOL    HW243259   8.605   3.212   6.006
10410SOL     OW43260   8.720   3.307   6.728
10410SOL    HW143261   8.767   3.320   6.815
10410SOL    HW243262   8.654   3.233   6.737
10411SOL     OW43263   9.030   2.501   6.058
10411SOL    HW143264   8.999   2.562   6.131
10411SOL    HW243265   9.080   2.553   5.989
10412SOL     OW43266   7.802   3.372   6.915
10412SOL    HW143267   7.781   3.328   6.828
10412SOL    HW243268   7.899   3.398   6.918
10413SOL     OW43269   7.850   2.613   7.184
10413SOL    HW143270   7.918   2.668   7.137
10413SOL    HW243271   7.890   2.525   7.211
10414SOL     OW43272   9.035   2.641   7.256
10414SOL    HW143273   8.943   2.679   7.251
10414SOL    HW243274   9.095   2.688   7.191
10415SOL     OW43275   8.021   2.732   6.615
10415SOL    HW143276   8.065   2.821   6.606
10415SOL    HW243277   7.958   2.732   6.692
10416SOL     OW43278   8.808   2.724   6.631
10416SOL    HW143279   8.733   2.724   6.565
10416SOL    HW243280   8.845   2.632   6.640
10417SOL     OW43281   7.755   2.075   6.817
10417SOL    HW143282   7.732   2.112   6.907
10417SOL    HW243283   7.725   1.980   6.811
10418SOL     OW43284   7.485   3.172   6.868
10418SOL    HW143285   7.538   3.123   6.936
10418SOL    HW243286   7.507   3.270   6.873
10419SOL     OW43287   8.180   2.496   6.650
10419SOL    HW143288   8.239   2.470   6.574
10419SOL    HW243289   8.152   2.592   6.639
10420SOL     OW43290   9.176   2.797   7.440
10420SOL    HW143291   9.130   2.790   7.351
10420SOL    HW243292   9.114   2.841   7.506
10421SOL     OW43293   9.070   2.229   5.960
10421SOL    HW143294   9.072   2.153   6.024
10421SOL    HW243295   9.022   2.306   6.000
10422SOL     OW43296   8.471   2.628   6.552
10422SOL    HW143297   8.486   2.649   6.648
10422SOL    HW243298   8.441   2.533   6.543
10423SOL     OW43299   8.428   3.435   7.286
10423SOL    HW143300   8.408   3.479   7.198
10423SOL    HW243301   8.467   3.344   7.270
10424SOL     OW43302   9.307   3.380   7.191
10424SOL    HW143303   9.321   3.407   7.096
10424SOL    HW243304   9.390   3.402   7.244
10425SOL     OW43305   7.798   2.760   7.390
10425SOL    HW143306   7.874   2.804   7.438
10425SOL    HW243307   7.833   2.713   7.308
10426SOL     OW43308   8.516   3.195   6.435
10426SOL    HW143309   8.523   3.111   6.380
10426SOL    HW243310   8.578   3.264   6.399
10427SOL     OW43311   7.767   2.672   6.535
10427SOL    HW143312   7.860   2.708   6.540
10427SOL    HW243313   7.761   2.587   6.587
10428SOL     OW43314   7.787   2.371   6.592
10428SOL    HW143315   7.735   2.288   6.575
10428SOL    HW243316   7.864   2.376   6.528
10429SOL     OW43317   8.586   2.242   7.264
10429SOL    HW143318   8.541   2.305   7.328
10429SOL    HW243319   8.679   2.273   7.247
10430SOL     OW43320   8.608   2.069   7.063
10430SOL    HW143321   8.608   2.133   7.140
10430SOL    HW243322   8.636   2.117   6.980
10431SOL     OW43323   7.456   3.188   5.786
10431SOL    HW143324   7.363   3.209   5.755
10431SOL    HW243325   7.466   3.089   5.799
10432SOL     OW43326   7.536   3.663   6.513
10432SOL    HW143327   7.494   3.577   6.486
10432SOL    HW243328   7.630   3.666   6.479
10433SOL     OW43329   7.952   3.430   6.496
10433SOL    HW143330   8.018   3.504   6.505
10433SOL    HW243331   7.996   3.351   6.454
10434SOL     OW43332   8.450   2.658   6.824
10434SOL    HW143333   8.491   2.626   6.910
10434SOL    HW243334   8.354   2.631   6.821
10435SOL     OW43335   7.488   2.406   6.700
10435SOL    HW143336   7.573   2.373   6.659
10435SOL    HW243337   7.501   2.421   6.798
10436SOL     OW43338   8.263   2.434   5.911
10436SOL    HW143339   8.270   2.345   5.865
10436SOL    HW243340   8.169   2.468   5.903
10437SOL     OW43341   9.105   2.466   6.792
10437SOL    HW143342   9.067   2.397   6.854
10437SOL    HW243343   9.187   2.430   6.748
10438SOL     OW43344   7.700   3.426   7.330
10438SOL    HW143345   7.670   3.483   7.406
10438SOL    HW243346   7.693   3.329   7.356
10439SOL     OW43347   8.119   2.326   6.855
10439SOL    HW143348   8.085   2.237   6.825
10439SOL    HW243349   8.145   2.380   6.775
10440SOL     OW43350   8.378   3.540   7.051
10440SOL    HW143351   8.354   3.522   6.956
10440SOL    HW243352   8.408   3.634   7.061
10441SOL     OW43353   7.921   2.362   5.777
10441SOL    HW143354   7.982   2.442   5.781
10441SOL    HW243355   7.826   2.393   5.784
10442SOL     OW43356   7.607   2.999   7.052
10442SOL    HW143357   7.629   2.938   7.128
10442SOL    HW243358   7.617   2.950   6.966
10443SOL     OW43359   8.795   2.921   6.820
10443SOL    HW143360   8.819   2.858   6.746
10443SOL    HW243361   8.705   2.961   6.802
10444SOL     OW43362   9.207   3.609   6.740
10444SOL    HW143363   9.268   3.639   6.667
10444SOL    HW243364   9.169   3.520   6.718
10445SOL     OW43365   8.700   3.593   6.714
10445SOL    HW143366   8.784   3.598   6.660
10445SOL    HW243367   8.677   3.497   6.732
10446SOL     OW43368   7.531   3.120   6.608
10446SOL    HW143369   7.526   3.119   6.708
10446SOL    HW243370   7.448   3.079   6.570
10447SOL     OW43371   8.136   3.524   7.302
10447SOL    HW143372   8.080   3.605   7.311
10447SOL    HW243373   8.188   3.528   7.216
10448SOL     OW43374   9.174   1.997   6.109
10448SOL    HW143375   9.247   1.980   6.042
10448SOL    HW243376   9.143   1.910   6.147
10449SOL     OW43377   8.836   3.435   6.063
10449SOL    HW143378   8.903   3.447   5.989
10449SOL    HW243379   8.796   3.524   6.086
10450SOL     OW43380   8.728   2.789   6.258
10450SOL    HW143381   8.788   2.708   6.260
10450SOL    HW243382   8.768   2.858   6.198
10451SOL     OW43383   8.278   3.135   7.008
10451SOL    HW143384   8.273   3.168   7.103
10451SOL    HW243385   8.192   3.154   6.962
10452SOL     OW43386   9.098   3.582   6.980
10452SOL    HW143387   9.151   3.592   6.896
10452SOL    HW243388   9.071   3.672   7.014
10453SOL     OW43389   9.289   2.037   6.549
10453SOL    HW143390   9.328   1.952   6.513
10453SOL    HW243391   9.191   2.039   6.530
10454SOL     OW43392   7.711   2.188   6.306
10454SOL    HW143393   7.632   2.239   6.272
10454SOL    HW243394   7.702   2.173   6.404
10455SOL     OW43395   8.270   2.864   6.958
10455SOL    HW143396   8.310   2.863   6.866
10455SOL    HW243397   8.280   2.956   6.998
10456SOL     OW43398   7.820   3.150   7.076
10456SOL    HW143399   7.807   3.243   7.042
10456SOL    HW243400   7.736   3.098   7.063
10457SOL     OW43401   9.062   3.154   6.875
10457SOL    HW143402   9.122   3.157   6.955
10457SOL    HW243403   8.987   3.218   6.888
10458SOL     OW43404   8.487   2.960   6.282
10458SOL    HW143405   8.417   2.913   6.336
10458SOL    HW243406   8.546   2.892   6.239
10459SOL     OW43407   8.462   2.098   6.557
10459SOL    HW143408   8.454   2.062   6.464
10459SOL    HW243409   8.460   2.022   6.622
10460SOL     OW43410   9.157   2.247   6.967
10460SOL    HW143411   9.230   2.316   6.971
10460SOL    HW243412   9.185   2.172   6.908
10461SOL     OW43413   7.703   3.210   5.876
10461SOL    HW143414   7.607   3.211   5.849
10461SOL    HW243415   7.715   3.263   5.960
10462SOL     OW43416   7.553   2.875   7.312
10462SOL    HW143417   7.476   2.842   7.366
10462SOL    HW243418   7.638   2.845   7.354
10463SOL     OW43419   8.120   2.065   7.075
10463SOL    HW143420   8.210   2.049   7.035
10463SOL    HW243421   8.128   2.070   7.174
10464SOL     OW43422   8.888   2.718   6.984
10464SOL    HW143423   8.831   2.770   6.921
10464SOL    HW243424   8.984   2.730   6.960
10465SOL     OW43425   8.631   3.197   5.705
10465SOL    HW143426   8.532   3.186   5.707
10465SOL    HW243427   8.665   3.212   5.798
10466SOL     OW43428   8.061   2.704   7.017
10466SOL    HW143429   8.117   2.785   7.000
10466SOL    HW243430   8.120   2.624   7.020
10467SOL     OW43431   8.941   3.629   6.545
10467SOL    HW143432   8.974   3.693   6.476
10467SOL    HW243433   9.007   3.623   6.620
10468SOL     OW43434   8.164   2.427   7.294
10468SOL    HW143435   8.183   2.492   7.368
10468SOL    HW243436   8.224   2.347   7.303
10469SOL     OW43437   7.838   3.603   7.146
10469SOL    HW143438   7.747   3.644   7.144
10469SOL    HW243439   7.831   3.509   7.178
10470SOL     OW43440   9.122   2.745   6.840
10470SOL    HW143441   9.095   2.656   6.803
10470SOL    HW243442   9.123   2.813   6.767
10471SOL     OW43443   8.673   2.187   6.035
10471SOL    HW143444   8.738   2.113   6.024
10471SOL    HW243445   8.693   2.237   6.119
10472SOL     OW43446   8.042   2.607   6.238
10472SOL    HW143447   8.092   2.692   6.219
10472SOL    HW243448   7.954   2.609   6.190
10473SOL     OW43449   9.225   2.204   7.228
10473SOL    HW143450   9.208   2.235   7.134
10473SOL    HW243451   9.141   2.167   7.266
10474SOL     OW43452   9.178   2.796   7.103
10474SOL    HW143453   9.216   2.887   7.118
10474SOL    HW243454   9.170   2.779   7.004
10475SOL     OW43455   8.307   3.236   5.602
10475SOL    HW143456   8.261   3.251   5.690
10475SOL    HW243457   8.351   3.321   5.572
10476SOL     OW43458   8.109   3.652   6.539
10476SOL    HW143459   8.063   3.740   6.526
10476SOL    HW243460   8.208   3.664   6.532
10477SOL     OW43461   8.307   2.818   6.447
10477SOL    HW143462   8.361   2.749   6.495
10477SOL    HW243463   8.275   2.887   6.513
10478SOL     OW43464   8.531   2.846   5.673
10478SOL    HW143465   8.508   2.899   5.591
10478SOL    HW243466   8.612   2.790   5.654
10479SOL     OW43467   9.309   3.431   6.437
10479SOL    HW143468   9.238   3.419   6.367
10479SOL    HW243469   9.310   3.352   6.497
10480SOL     OW43470   7.669   3.176   7.430
10480SOL    HW143471   7.604   3.103   7.409
10480SOL    HW243472   7.673   3.190   7.528
10481SOL     OW43473   7.527   3.102   6.239
10481SOL    HW143474   7.526   3.055   6.327
10481SOL    HW243475   7.609   3.074   6.188
10482SOL     OW43476   8.120   3.253   7.210
10482SOL    HW143477   8.042   3.203   7.248
10482SOL    HW243478   8.117   3.348   7.241
10483SOL     OW43479   9.272   2.054   6.813
10483SOL    HW143480   9.268   1.964   6.857
10483SOL    HW243481   9.275   2.043   6.714
10484SOL     OW43482   7.876   2.286   6.106
10484SOL    HW143483   7.906   2.214   6.044
10484SOL    HW243484   7.837   2.246   6.189
10485SOL     OW43485   9.153   3.349   6.690
10485SOL    HW143486   9.060   3.324   6.663
10485SOL    HW243487   9.179   3.299   6.772
10486SOL     OW43488   7.765   2.409   6.866
10486SOL    HW143489   7.803   2.350   6.938
10486SOL    HW243490   7.805   2.383   6.778
10487SOL     OW43491   8.872   2.076   6.698
10487SOL    HW143492   8.924   2.011   6.753
10487SOL    HW243493   8.823   2.139   6.759
10488SOL     OW43494   8.449   1.896   6.740
10488SOL    HW143495   8.386   1.824   6.709
10488SOL    HW243496   8.542   1.860   6.740
10489SOL     OW43497   8.218   3.192   5.887
10489SOL    HW143498   8.172   3.105   5.904
10489SOL    HW243499   8.309   3.189   5.928
10490SOL     OW43500   8.066   3.429   6.870
10490SOL    HW143501   8.061   3.511   6.927
10490SOL    HW243502   8.155   3.426   6.825
10491SOL     OW43503   8.748   2.315   6.277
10491SOL    HW143504   8.689   2.395   6.281
10491SOL    HW243505   8.763   2.280   6.370
10492SOL     OW43506   9.041   2.083   6.468
10492SOL    HW143507   8.957   2.082   6.522
10492SOL    HW243508   9.043   2.166   6.412
10493SOL     OW43509   7.487   2.939   5.886
10493SOL    HW143510   7.586   2.928   5.877
10493SOL    HW243511   7.447   2.853   5.918
10494SOL     OW43512   7.678   4.352   0.113
10494SOL    HW143513   7.585   4.350   0.150
10494SOL    HW243514   7.679   4.313   0.021
10495SOL     OW43515   7.673   3.999   0.996
10495SOL    HW143516   7.708   3.982   1.088
10495SOL    HW243517   7.585   3.954   0.984
10496SOL     OW43518   7.467   4.092   0.647
10496SOL    HW143519   7.385   4.135   0.686
10496SOL    HW243520   7.439   4.019   0.584
10497SOL     OW43521   9.003   5.235   0.703
10497SOL    HW143522   8.946   5.219   0.784
10497SOL    HW243523   8.944   5.245   0.623
10498SOL     OW43524   8.583   4.427   0.717
10498SOL    HW143525   8.640   4.505   0.692
10498SOL    HW243526   8.523   4.453   0.793
10499SOL     OW43527   9.203   4.331   0.231
10499SOL    HW143528   9.191   4.318   0.132
10499SOL    HW243529   9.173   4.250   0.280
10500SOL     OW43530   8.216   4.868   1.023
10500SOL    HW143531   8.138   4.885   1.083
10500SOL    HW243532   8.250   4.955   0.987
10501SOL     OW43533   8.133   4.736   0.665
10501SOL    HW143534   8.202   4.720   0.735
10501SOL    HW243535   8.060   4.793   0.703
10502SOL     OW43536   8.134   4.885   1.803
10502SOL    HW143537   8.194   4.964   1.817
10502SOL    HW243538   8.048   4.916   1.762
10503SOL     OW43539   7.783   5.159   1.061
10503SOL    HW143540   7.705   5.128   1.008
10503SOL    HW243541   7.841   5.217   1.004
10504SOL     OW43542   8.908   5.229   1.339
10504SOL    HW143543   8.932   5.323   1.365
10504SOL    HW243544   8.892   5.175   1.421
10505SOL     OW43545   7.886   4.116   1.499
10505SOL    HW143546   7.968   4.060   1.508
10505SOL    HW243547   7.805   4.058   1.503
10506SOL     OW43548   9.051   4.171   0.737
10506SOL    HW143549   8.977   4.217   0.687
10506SOL    HW243550   9.102   4.239   0.790
10507SOL     OW43551   7.679   5.437   0.483
10507SOL    HW143552   7.713   5.514   0.537
10507SOL    HW243553   7.723   5.437   0.393
10508SOL     OW43554   7.678   5.158   0.538
10508SOL    HW143555   7.652   5.254   0.538
10508SOL    HW243556   7.607   5.104   0.583
10509SOL     OW43557   7.688   4.815   0.886
10509SOL    HW143558   7.702   4.731   0.938
10509SOL    HW243559   7.633   4.879   0.941
10510SOL     OW43560   8.054   4.688   0.123
10510SOL    HW143561   8.061   4.772   0.069
10510SOL    HW243562   8.100   4.701   0.211
10511SOL     OW43563   7.570   4.367   0.563
10511SOL    HW143564   7.525   4.279   0.580
10511SOL    HW243565   7.569   4.421   0.647
10512SOL     OW43566   9.290   5.491   0.359
10512SOL    HW143567   9.344   5.462   0.439
10512SOL    HW243568   9.320   5.581   0.330
10513SOL     OW43569   7.475   5.320   0.117
10513SOL    HW143570   7.456   5.224   0.138
10513SOL    HW243571   7.442   5.378   0.192
10514SOL     OW43572   9.137   4.646   0.612
10514SOL    HW143573   9.232   4.617   0.620
10514SOL    HW243574   9.129   4.711   0.537
10515SOL     OW43575   9.089   4.832   0.432
10515SOL    HW143576   9.175   4.834   0.380
10515SOL    HW243577   9.103   4.879   0.520
10516SOL     OW43578   8.061   5.089   0.726
10516SOL    HW143579   8.012   5.002   0.735
10516SOL    HW243580   8.038   5.132   0.639
10517SOL     OW43581   8.257   3.728   0.502
10517SOL    HW143582   8.297   3.819   0.493
10517SOL    HW243583   8.157   3.736   0.508
10518SOL     OW43584   8.973   4.723   0.190
10518SOL    HW143585   8.910   4.647   0.203
10518SOL    HW243586   9.021   4.741   0.276
10519SOL     OW43587   8.914   5.141   0.953
10519SOL    HW143588   8.855   5.147   1.033
10519SOL    HW243589   8.899   5.053   0.907
10520SOL     OW43590   9.115   5.438   0.572
10520SOL    HW143591   9.074   5.415   0.484
10520SOL    HW243592   9.097   5.364   0.637
10521SOL     OW43593   8.046   4.453   0.270
10521SOL    HW143594   8.070   4.522   0.202
10521SOL    HW243595   7.968   4.486   0.324
10522SOL     OW43596   8.729   4.069   0.944
10522SOL    HW143597   8.643   4.019   0.931
10522SOL    HW243598   8.791   4.015   1.000
10523SOL     OW43599   9.024   5.386   0.307
10523SOL    HW143600   9.113   5.432   0.310
10523SOL    HW243601   9.003   5.362   0.212
10524SOL     OW43602   8.255   4.329   1.465
10524SOL    HW143603   8.208   4.326   1.554
10524SOL    HW243604   8.204   4.274   1.399
10525SOL     OW43605   8.421   4.614   1.572
10525SOL    HW143606   8.467   4.530   1.543
10525SOL    HW243607   8.365   4.648   1.497
10526SOL     OW43608   8.439   4.134   1.242
10526SOL    HW143609   8.362   4.168   1.296
10526SOL    HW243610   8.405   4.083   1.163
10527SOL     OW43611   8.489   4.425   0.429
10527SOL    HW143612   8.515   4.421   0.525
10527SOL    HW243613   8.404   4.374   0.415
10528SOL     OW43614   7.524   4.535   0.789
10528SOL    HW143615   7.623   4.523   0.798
10528SOL    HW243616   7.500   4.630   0.810
10529SOL     OW43617   8.313   4.072   0.195
10529SOL    HW143618   8.372   4.135   0.146
10529SOL    HW243619   8.332   3.978   0.166
10530SOL     OW43620   9.167   4.309   1.831
10530SOL    HW143621   9.141   4.398   1.795
10530SOL    HW243622   9.165   4.241   1.758
10531SOL     OW43623   8.810   4.868   0.545
10531SOL    HW143624   8.893   4.839   0.497
10531SOL    HW243625   8.761   4.935   0.489
10532SOL     OW43626   7.998   3.920   0.885
10532SOL    HW143627   7.993   3.915   0.985
10532SOL    HW243628   8.000   4.016   0.856
10533SOL     OW43629   8.456   5.180   0.477
10533SOL    HW143630   8.410   5.252   0.425
10533SOL    HW243631   8.452   5.200   0.575
10534SOL     OW43632   9.243   4.790   0.873
10534SOL    HW143633   9.181   4.775   0.797
10534SOL    HW243634   9.191   4.801   0.958
10535SOL     OW43635   7.769   4.667   0.242
10535SOL    HW143636   7.851   4.706   0.200
10535SOL    HW243637   7.742   4.585   0.193
10536SOL     OW43638   8.906   4.459   0.728
10536SOL    HW143639   8.901   4.394   0.803
10536SOL    HW243640   8.986   4.518   0.741
10537SOL     OW43641   8.559   5.500   0.237
10537SOL    HW143642   8.499   5.438   0.287
10537SOL    HW243643   8.590   5.456   0.152
10538SOL     OW43644   7.650   4.009   1.498
10538SOL    HW143645   7.570   4.069   1.485
10538SOL    HW243646   7.640   3.960   1.584
10539SOL     OW43647   9.080   5.101   0.081
10539SOL    HW143648   9.048   5.195   0.071
10539SOL    HW243649   9.004   5.038   0.069
10540SOL     OW43650   7.912   5.467   0.323
10540SOL    HW143651   7.945   5.506   0.409
10540SOL    HW243652   7.988   5.460   0.258
10541SOL     OW43653   8.848   3.831   0.426
10541SOL    HW143654   8.824   3.794   0.336
10541SOL    HW243655   8.947   3.847   0.430
10542SOL     OW43656   8.388   5.422   0.904
10542SOL    HW143657   8.468   5.365   0.925
10542SOL    HW243658   8.339   5.382   0.827
10543SOL     OW43659   7.830   4.424   0.480
10543SOL    HW143660   7.875   4.334   0.477
10543SOL    HW243661   7.736   4.413   0.513
10544SOL     OW43662   8.062   3.846   0.117
10544SOL    HW143663   8.160   3.824   0.124
10544SOL    HW243664   8.031   3.829   0.024
10545SOL     OW43665   8.251   5.126   0.924
10545SOL    HW143666   8.341   5.140   0.882
10545SOL    HW243667   8.180   5.128   0.853
10546SOL     OW43668   8.370   4.227   0.899
10546SOL    HW143669   8.345   4.218   0.803
10546SOL    HW243670   8.418   4.145   0.930
10547SOL     OW43671   7.987   3.788   0.512
10547SOL    HW143672   7.906   3.789   0.570
10547SOL    HW243673   7.990   3.871   0.457
10548SOL     OW43674   8.882   4.912   0.041
10548SOL    HW143675   8.914   4.836   0.098
10548SOL    HW243676   8.790   4.939   0.071
10549SOL     OW43677   7.745   3.759   0.171
10549SOL    HW143678   7.794   3.843   0.150
10549SOL    HW243679   7.807   3.694   0.216
10550SOL     OW43680   8.383   3.960   0.480
10550SOL    HW143681   8.335   4.001   0.402
10550SOL    HW243682   8.482   3.958   0.461
10551SOL     OW43683   8.524   4.407   1.464
10551SOL    HW143684   8.444   4.346   1.467
10551SOL    HW243685   8.605   4.354   1.440
10552SOL     OW43686   8.675   5.294   0.793
10552SOL    HW143687   8.696   5.368   0.728
10552SOL    HW243688   8.743   5.294   0.866
10553SOL     OW43689   7.907   4.876   0.741
10553SOL    HW143690   7.836   4.849   0.806
10553SOL    HW243691   7.881   4.848   0.648
10554SOL     OW43692   8.719   5.521   0.591
10554SOL    HW143693   8.763   5.585   0.527
10554SOL    HW243694   8.669   5.573   0.661
10555SOL     OW43695   8.480   4.273   0.016
10555SOL    HW143696   8.439   4.355  -0.023
10555SOL    HW243697   8.544   4.299   0.089
10556SOL     OW43698   8.009   3.946   1.147
10556SOL    HW143699   8.047   3.862   1.184
10556SOL    HW243700   7.921   3.965   1.191
10557SOL     OW43701   8.314   4.178   0.642
10557SOL    HW143702   8.282   4.250   0.580
10557SOL    HW243703   8.338   4.097   0.589
10558SOL     OW43704   8.465   3.763   0.753
10558SOL    HW143705   8.393   3.768   0.684
10558SOL    HW243706   8.441   3.694   0.822
10559SOL     OW43707   8.877   4.897   0.867
10559SOL    HW143708   8.822   4.813   0.860
10559SOL    HW243709   8.903   4.926   0.775
10560SOL     OW43710   8.914   4.314   0.992
10560SOL    HW143711   8.884   4.219   0.999
10560SOL    HW243712   8.987   4.330   1.058
10561SOL     OW43713   9.305   4.557   0.377
10561SOL    HW143714   9.347   4.493   0.441
10561SOL    HW243715   9.267   4.506   0.299
10562SOL     OW43716   7.936   5.109   0.174
10562SOL    HW143717   7.849   5.094   0.221
10562SOL    HW243718   7.919   5.135   0.079
10563SOL     OW43719   9.112   5.004   0.657
10563SOL    HW143720   9.211   5.012   0.671
10563SOL    HW243721   9.067   5.088   0.688
10564SOL     OW43722   8.838   4.299   0.078
10564SOL    HW143723   8.784   4.278   0.159
10564SOL    HW243724   8.929   4.258   0.087
10565SOL     OW43725   7.975   3.980   0.328
10565SOL    HW143726   8.002   3.921   0.253
10565SOL    HW243727   7.975   4.075   0.297
10566SOL     OW43728   9.040   5.353   1.625
10566SOL    HW143729   9.067   5.387   1.535
10566SOL    HW243730   9.119   5.315   1.671
10567SOL     OW43731   8.559   4.919   1.100
10567SOL    HW143732   8.519   4.963   1.181
10567SOL    HW243733   8.518   4.956   1.017
10568SOL     OW43734   8.363   3.813   1.402
10568SOL    HW143735   8.388   3.793   1.307
10568SOL    HW243736   8.435   3.869   1.444
10569SOL     OW43737   8.428   4.840   1.719
10569SOL    HW143738   8.329   4.846   1.729
10569SOL    HW243739   8.451   4.760   1.663
10570SOL     OW43740   8.153   4.774   0.368
10570SOL    HW143741   8.139   4.781   0.467
10570SOL    HW243742   8.237   4.723   0.350
10571SOL     OW43743   7.512   5.288   1.331
10571SOL    HW143744   7.466   5.370   1.297
10571SOL    HW243745   7.610   5.307   1.340
10572SOL     OW43746   7.815   4.824   0.501
10572SOL    HW143747   7.808   4.907   0.445
10572SOL    HW243748   7.819   4.744   0.441
10573SOL     OW43749   8.014   4.261   0.865
10573SOL    HW143750   8.026   4.327   0.791
10573SOL    HW243751   8.060   4.295   0.948
10574SOL     OW43752   8.700   5.072   0.388
10574SOL    HW143753   8.750   5.149   0.428
10574SOL    HW243754   8.605   5.074   0.420
10575SOL     OW43755   9.030   4.363   0.472
10575SOL    HW143756   8.999   4.424   0.545
10575SOL    HW243757   9.080   4.415   0.403
10576SOL     OW43758   7.952   3.774   1.740
10576SOL    HW143759   7.910   3.717   1.670
10576SOL    HW243760   7.886   3.843   1.772
10577SOL     OW43761   8.021   4.594   1.029
10577SOL    HW143762   8.065   4.683   1.020
10577SOL    HW243763   7.958   4.594   1.106
10578SOL     OW43764   8.808   4.586   1.045
10578SOL    HW143765   8.733   4.586   0.979
10578SOL    HW243766   8.845   4.494   1.054
10579SOL     OW43767   8.657   4.249   0.275
10579SOL    HW143768   8.670   4.165   0.329
10579SOL    HW243769   8.628   4.323   0.335
10580SOL     OW43770   7.755   3.937   1.231
10580SOL    HW143771   7.732   3.974   1.321
10580SOL    HW243772   7.725   3.842   1.225
10581SOL     OW43773   7.485   5.034   1.282
10581SOL    HW143774   7.538   4.985   1.350
10581SOL    HW243775   7.507   5.132   1.287
10582SOL     OW43776   8.180   4.358   1.064
10582SOL    HW143777   8.239   4.332   0.988
10582SOL    HW243778   8.152   4.454   1.053
10583SOL     OW43779   7.755   3.787   0.618
10583SOL    HW143780   7.744   3.881   0.651
10583SOL    HW243781   7.750   3.724   0.695
10584SOL     OW43782   9.070   4.091   0.374
10584SOL    HW143783   9.072   4.015   0.438
10584SOL    HW243784   9.022   4.168   0.414
10585SOL     OW43785   8.471   4.490   0.966
10585SOL    HW143786   8.486   4.511   1.062
10585SOL    HW243787   8.441   4.395   0.957
10586SOL     OW43788   8.428   5.297   1.700
10586SOL    HW143789   8.408   5.341   1.612
10586SOL    HW243790   8.467   5.206   1.684
10587SOL     OW43791   9.307   5.242   1.605
10587SOL    HW143792   9.321   5.269   1.510
10587SOL    HW243793   9.390   5.264   1.658
10588SOL     OW43794   8.988   3.998   0.125
10588SOL    HW143795   8.927   3.923   0.148
10588SOL    HW243796   9.010   4.050   0.208
10589SOL     OW43797   8.751   4.562   0.042
10589SOL    HW143798   8.785   4.469   0.057
10589SOL    HW243799   8.769   4.589  -0.053
10590SOL     OW43800   8.516   5.057   0.849
10590SOL    HW143801   8.523   4.973   0.794
10590SOL    HW243802   8.578   5.126   0.813
10591SOL     OW43803   7.767   4.534   0.949
10591SOL    HW143804   7.860   4.570   0.954
10591SOL    HW243805   7.761   4.449   1.001
10592SOL     OW43806   7.787   4.233   1.006
10592SOL    HW143807   7.735   4.150   0.989
10592SOL    HW243808   7.864   4.238   0.942
10593SOL     OW43809   7.456   5.050   0.200
10593SOL    HW143810   7.363   5.071   0.169
10593SOL    HW243811   7.466   4.951   0.213
10594SOL     OW43812   7.536   5.525   0.927
10594SOL    HW143813   7.494   5.439   0.900
10594SOL    HW243814   7.630   5.528   0.893
10595SOL     OW43815   7.952   5.292   0.910
10595SOL    HW143816   8.018   5.366   0.919
10595SOL    HW243817   7.996   5.213   0.868
10596SOL     OW43818   8.450   4.520   1.238
10596SOL    HW143819   8.491   4.488   1.324
10596SOL    HW243820   8.354   4.493   1.235
10597SOL     OW43821   7.637   4.244   1.722
10597SOL    HW143822   7.696   4.204   1.652
10597SOL    HW243823   7.579   4.315   1.681
10598SOL     OW43824   8.817   4.674   1.660
10598SOL    HW143825   8.856   4.763   1.680
10598SOL    HW243826   8.827   4.654   1.563
10599SOL     OW43827   8.263   4.296   0.325
10599SOL    HW143828   8.270   4.207   0.279
10599SOL    HW243829   8.169   4.330   0.317
10600SOL     OW43830   9.105   4.328   1.206
10600SOL    HW143831   9.067   4.259   1.268
10600SOL    HW243832   9.187   4.292   1.162
10601SOL     OW43833   8.119   4.188   1.269
10601SOL    HW143834   8.085   4.099   1.239
10601SOL    HW243835   8.145   4.242   1.189
10602SOL     OW43836   7.921   4.224   0.191
10602SOL    HW143837   7.982   4.304   0.195
10602SOL    HW243838   7.826   4.255   0.198
10603SOL     OW43839   7.607   4.861   1.466
10603SOL    HW143840   7.629   4.800   1.542
10603SOL    HW243841   7.617   4.812   1.380
10604SOL     OW43842   8.795   4.783   1.234
10604SOL    HW143843   8.819   4.720   1.160
10604SOL    HW243844   8.705   4.823   1.216
10605SOL     OW43845   8.750   4.579   0.309
10605SOL    HW143846   8.664   4.548   0.351
10605SOL    HW243847   8.746   4.565   0.210
10606SOL     OW43848   9.207   5.471   1.154
10606SOL    HW143849   9.268   5.501   1.081
10606SOL    HW243850   9.169   5.382   1.132
10607SOL     OW43851   8.700   5.455   1.128
10607SOL    HW143852   8.784   5.460   1.074
10607SOL    HW243853   8.677   5.359   1.146
10608SOL     OW43854   7.531   4.982   1.022
10608SOL    HW143855   7.526   4.981   1.122
10608SOL    HW243856   7.448   4.941   0.984
10609SOL     OW43857   8.351   3.810   0.133
10609SOL    HW143858   8.402   3.811   0.047
10609SOL    HW243859   8.407   3.768   0.204
10610SOL     OW43860   9.174   3.859   0.523
10610SOL    HW143861   9.247   3.842   0.456
10610SOL    HW243862   9.143   3.772   0.561
10611SOL     OW43863   8.836   5.297   0.477
10611SOL    HW143864   8.903   5.309   0.403
10611SOL    HW243865   8.796   5.386   0.500
10612SOL     OW43866   8.728   4.651   0.672
10612SOL    HW143867   8.788   4.570   0.674
10612SOL    HW243868   8.768   4.720   0.612
10613SOL     OW43869   8.120   5.340   0.154
10613SOL    HW143870   8.129   5.350   0.055
10613SOL    HW243871   8.080   5.251   0.175
10614SOL     OW43872   9.098   5.444   1.394
10614SOL    HW143873   9.151   5.454   1.310
10614SOL    HW243874   9.071   5.534   1.428
10615SOL     OW43875   9.289   3.899   0.963
10615SOL    HW143876   9.328   3.814   0.927
10615SOL    HW243877   9.191   3.901   0.944
10616SOL     OW43878   7.711   4.050   0.720
10616SOL    HW143879   7.632   4.101   0.686
10616SOL    HW243880   7.702   4.035   0.818
10617SOL     OW43881   8.642   5.336   0.031
10617SOL    HW143882   8.648   5.243   0.068
10617SOL    HW243883   8.583   5.336  -0.049
10618SOL     OW43884   8.364   4.634   0.291
10618SOL    HW143885   8.427   4.672   0.223
10618SOL    HW243886   8.404   4.551   0.330
10619SOL     OW43887   8.952   5.331   0.044
10619SOL    HW143888   8.860   5.368   0.051
10619SOL    HW243889   8.990   5.351  -0.046
10620SOL     OW43890   8.487   4.822   0.696
10620SOL    HW143891   8.417   4.775   0.750
10620SOL    HW243892   8.546   4.754   0.653
10621SOL     OW43893   8.462   3.960   0.971
10621SOL    HW143894   8.454   3.924   0.878
10621SOL    HW243895   8.460   3.884   1.036
10622SOL     OW43896   8.038   5.211   0.491
10622SOL    HW143897   8.080   5.153   0.421
10622SOL    HW243898   7.994   5.290   0.447
10623SOL     OW43899   9.157   4.109   1.381
10623SOL    HW143900   9.230   4.178   1.385
10623SOL    HW243901   9.185   4.034   1.322
10624SOL     OW43902   7.703   5.072   0.290
10624SOL    HW143903   7.607   5.073   0.263
10624SOL    HW243904   7.715   5.125   0.374
10625SOL     OW43905   8.120   3.927   1.489
10625SOL    HW143906   8.210   3.911   1.449
10625SOL    HW243907   8.128   3.932   1.588
10626SOL     OW43908   7.523   4.069   0.033
10626SOL    HW143909   7.431   4.041   0.004
10626SOL    HW243910   7.554   4.146  -0.023
10627SOL     OW43911   7.520   3.890   0.318
10627SOL    HW143912   7.503   3.973   0.264
10627SOL    HW243913   7.610   3.853   0.296
10628SOL     OW43914   8.631   5.059   0.119
10628SOL    HW143915   8.532   5.048   0.121
10628SOL    HW243916   8.665   5.074   0.212
10629SOL     OW43917   8.061   4.566   1.431
10629SOL    HW143918   8.117   4.647   1.414
10629SOL    HW243919   8.120   4.486   1.434
10630SOL     OW43920   8.941   5.491   0.959
10630SOL    HW143921   8.974   5.555   0.890
10630SOL    HW243922   9.007   5.485   1.034
10631SOL     OW43923   8.673   4.049   0.449
10631SOL    HW143924   8.738   3.975   0.438
10631SOL    HW243925   8.693   4.099   0.533
10632SOL     OW43926   8.042   4.469   0.652
10632SOL    HW143927   8.092   4.554   0.633
10632SOL    HW243928   7.954   4.471   0.604
10633SOL     OW43929   9.225   4.066   1.642
10633SOL    HW143930   9.208   4.097   1.548
10633SOL    HW243931   9.141   4.029   1.680
10634SOL     OW43932   8.307   5.098   0.016
10634SOL    HW143933   8.261   5.113   0.104
10634SOL    HW243934   8.351   5.183  -0.014
10635SOL     OW43935   8.109   5.514   0.953
10635SOL    HW143936   8.063   5.602   0.940
10635SOL    HW243937   8.208   5.526   0.946
10636SOL     OW43938   8.307   4.680   0.861
10636SOL    HW143939   8.361   4.611   0.909
10636SOL    HW243940   8.275   4.749   0.927
10637SOL     OW43941   8.531   4.708   0.087
10637SOL    HW143942   8.508   4.761   0.005
10637SOL    HW243943   8.612   4.652   0.068
10638SOL     OW43944   9.309   5.293   0.851
10638SOL    HW143945   9.238   5.281   0.781
10638SOL    HW243946   9.310   5.214   0.911
10639SOL     OW43947   7.669   5.038   1.844
10639SOL    HW143948   7.604   4.965   1.823
10639SOL    HW243949   7.673   5.052   1.942
10640SOL     OW43950   7.527   4.964   0.653
10640SOL    HW143951   7.526   4.917   0.741
10640SOL    HW243952   7.609   4.936   0.602
10641SOL     OW43953   9.272   3.916   1.227
10641SOL    HW143954   9.268   3.826   1.271
10641SOL    HW243955   9.275   3.905   1.128
10642SOL     OW43956   7.876   4.148   0.520
10642SOL    HW143957   7.906   4.076   0.458
10642SOL    HW243958   7.837   4.108   0.603
10643SOL     OW43959   9.153   5.211   1.104
10643SOL    HW143960   9.060   5.186   1.077
10643SOL    HW243961   9.179   5.161   1.186
10644SOL     OW43962   8.260   5.310   0.687
10644SOL    HW143963   8.292   5.320   0.593
10644SOL    HW243964   8.181   5.248   0.689
10645SOL     OW43965   8.872   3.938   1.112
10645SOL    HW143966   8.924   3.873   1.167
10645SOL    HW243967   8.823   4.001   1.173
10646SOL     OW43968   8.449   3.758   1.154
10646SOL    HW143969   8.386   3.686   1.123
10646SOL    HW243970   8.542   3.722   1.154
10647SOL     OW43971   8.218   5.054   0.301
10647SOL    HW143972   8.172   4.967   0.318
10647SOL    HW243973   8.309   5.051   0.342
10648SOL     OW43974   8.066   5.291   1.284
10648SOL    HW143975   8.061   5.373   1.341
10648SOL    HW243976   8.155   5.288   1.239
10649SOL     OW43977   8.800   3.776   0.168
10649SOL    HW143978   8.835   3.735   0.084
10649SOL    HW243979   8.710   3.738   0.188
10650SOL     OW43980   8.748   4.177   0.691
10650SOL    HW143981   8.689   4.257   0.695
10650SOL    HW243982   8.763   4.142   0.784
10651SOL     OW43983   9.041   3.945   0.882
10651SOL    HW143984   8.957   3.944   0.936
10651SOL    HW243985   9.043   4.028   0.826
10652SOL     OW43986   7.487   4.801   0.300
10652SOL    HW143987   7.586   4.790   0.291
10652SOL    HW243988   7.447   4.715   0.332
10653SOL     OW43989   8.323   5.370   0.337
10653SOL    HW143990   8.246   5.335   0.283
10653SOL    HW243991   8.291   5.441   0.399
10654SOL     OW43992   7.467   4.092   2.509
10654SOL    HW143993   7.385   4.135   2.548
10654SOL    HW243994   7.439   4.019   2.446
10655SOL     OW43995   8.017   4.999   3.027
10655SOL    HW143996   7.924   4.992   2.990
10655SOL    HW243997   8.028   5.088   3.071
10656SOL     OW43998   9.003   5.235   2.565
10656SOL    HW143999   8.946   5.219   2.646
10656SOL    HW244000   8.944   5.245   2.485
10657SOL     OW44001   8.134   4.885   3.665
10657SOL    HW144002   8.194   4.964   3.679
10657SOL    HW244003   8.048   4.916   3.624
10658SOL     OW44004   8.908   5.229   3.201
10658SOL    HW144005   8.932   5.323   3.227
10658SOL    HW244006   8.892   5.175   3.283
10659SOL     OW44007   9.051   4.171   2.599
10659SOL    HW144008   8.977   4.217   2.549
10659SOL    HW244009   9.102   4.239   2.652
10660SOL     OW44010   7.679   5.437   2.345
10660SOL    HW144011   7.713   5.514   2.399
10660SOL    HW244012   7.723   5.437   2.255
10661SOL     OW44013   8.575   5.065   3.552
10661SOL    HW144014   8.622   5.065   3.640
10661SOL    HW244015   8.527   4.978   3.541
10662SOL     OW44016   7.678   5.158   2.400
10662SOL    HW144017   7.652   5.254   2.400
10662SOL    HW244018   7.607   5.104   2.445
10663SOL     OW44019   9.137   4.646   2.474
10663SOL    HW144020   9.232   4.617   2.482
10663SOL    HW244021   9.129   4.711   2.399
10664SOL     OW44022   7.561   4.461   3.459
10664SOL    HW144023   7.649   4.448   3.504
10664SOL    HW244024   7.548   4.558   3.437
10665SOL     OW44025   8.741   4.952   3.285
10665SOL    HW144026   8.778   4.879   3.227
10665SOL    HW244027   8.793   4.957   3.370
10666SOL     OW44028   8.842   4.193   3.536
10666SOL    HW144029   8.822   4.236   3.624
10666SOL    HW244030   8.920   4.131   3.545
10667SOL     OW44031   8.489   4.425   2.291
10667SOL    HW144032   8.515   4.421   2.387
10667SOL    HW244033   8.404   4.374   2.277
10668SOL     OW44034   7.524   4.535   2.651
10668SOL    HW144035   7.623   4.523   2.660
10668SOL    HW244036   7.500   4.630   2.672
10669SOL     OW44037   7.578   5.545   3.433
10669SOL    HW144038   7.568   5.530   3.532
10669SOL    HW244039   7.492   5.581   3.397
10670SOL     OW44040   9.243   4.790   2.735
10670SOL    HW144041   9.181   4.775   2.659
10670SOL    HW244042   9.191   4.801   2.820
10671SOL     OW44043   8.906   4.459   2.590
10671SOL    HW144044   8.901   4.394   2.665
10671SOL    HW244045   8.986   4.518   2.603
10672SOL     OW44046   7.697   5.509   3.103
10672SOL    HW144047   7.754   5.444   3.153
10672SOL    HW244048   7.681   5.476   3.010
10673SOL     OW44049   8.995   3.946   3.591
10673SOL    HW144050   8.990   3.983   3.683
10673SOL    HW244051   8.923   3.877   3.579
10674SOL     OW44052   8.062   3.846   1.979
10674SOL    HW144053   8.160   3.824   1.986
10674SOL    HW244054   8.031   3.829   1.886
10675SOL     OW44055   7.987   3.788   2.374
10675SOL    HW144056   7.906   3.789   2.432
10675SOL    HW244057   7.990   3.871   2.319
10676SOL     OW44058   7.745   3.759   2.033
10676SOL    HW144059   7.794   3.843   2.012
10676SOL    HW244060   7.807   3.694   2.078
10677SOL     OW44061   8.719   5.521   2.453
10677SOL    HW144062   8.763   5.585   2.389
10677SOL    HW244063   8.669   5.573   2.523
10678SOL     OW44064   7.975   3.980   2.190
10678SOL    HW144065   8.002   3.921   2.115
10678SOL    HW244066   7.975   4.075   2.159
10679SOL     OW44067   9.202   4.947   3.450
10679SOL    HW144068   9.293   4.908   3.437
10679SOL    HW244069   9.210   5.043   3.474
10680SOL     OW44070   9.040   5.353   3.487
10680SOL    HW144071   9.067   5.387   3.397
10680SOL    HW244072   9.119   5.315   3.533
10681SOL     OW44073   8.559   4.919   2.962
10681SOL    HW144074   8.519   4.963   3.043
10681SOL    HW244075   8.518   4.956   2.879
10682SOL     OW44076   8.428   4.840   3.581
10682SOL    HW144077   8.329   4.846   3.591
10682SOL    HW244078   8.451   4.760   3.525
10683SOL     OW44079   8.014   4.261   2.727
10683SOL    HW144080   8.026   4.327   2.653
10683SOL    HW244081   8.060   4.295   2.810
10684SOL     OW44082   8.700   5.072   2.250
10684SOL    HW144083   8.750   5.149   2.290
10684SOL    HW244084   8.605   5.074   2.282
10685SOL     OW44085   9.030   4.363   2.334
10685SOL    HW144086   8.999   4.424   2.407
10685SOL    HW244087   9.080   4.415   2.265
10686SOL     OW44088   8.021   4.594   2.891
10686SOL    HW144089   8.065   4.683   2.882
10686SOL    HW244090   7.958   4.594   2.968
10687SOL     OW44091   8.428   5.297   3.562
10687SOL    HW144092   8.408   5.341   3.474
10687SOL    HW244093   8.467   5.206   3.546
10688SOL     OW44094   7.798   4.622   3.666
10688SOL    HW144095   7.874   4.666   3.714
10688SOL    HW244096   7.833   4.575   3.584
10689SOL     OW44097   7.787   4.233   2.868
10689SOL    HW144098   7.735   4.150   2.851
10689SOL    HW244099   7.864   4.238   2.804
10690SOL     OW44100   8.586   4.104   3.540
10690SOL    HW144101   8.541   4.167   3.604
10690SOL    HW244102   8.679   4.135   3.523
10691SOL     OW44103   8.817   4.674   3.522
10691SOL    HW144104   8.856   4.763   3.542
10691SOL    HW244105   8.827   4.654   3.425
10692SOL     OW44106   8.263   4.296   2.187
10692SOL    HW144107   8.270   4.207   2.141
10692SOL    HW244108   8.169   4.330   2.179
10693SOL     OW44109   7.921   4.224   2.053
10693SOL    HW144110   7.982   4.304   2.057
10693SOL    HW244111   7.826   4.255   2.060
10694SOL     OW44112   8.750   4.579   2.171
10694SOL    HW144113   8.664   4.548   2.213
10694SOL    HW244114   8.746   4.565   2.072
10695SOL     OW44115   7.711   4.050   2.582
10695SOL    HW144116   7.632   4.101   2.548
10695SOL    HW244117   7.702   4.035   2.680
10696SOL     OW44118   8.642   5.336   1.893
10696SOL    HW144119   8.648   5.243   1.930
10696SOL    HW244120   8.583   5.336   1.813
10697SOL     OW44121   8.487   4.822   2.558
10697SOL    HW144122   8.417   4.775   2.612
10697SOL    HW244123   8.546   4.754   2.515
10698SOL     OW44124   8.462   3.960   2.833
10698SOL    HW144125   8.454   3.924   2.740
10698SOL    HW244126   8.460   3.884   2.898
10699SOL     OW44127   7.553   4.737   3.588
10699SOL    HW144128   7.476   4.704   3.642
10699SOL    HW244129   7.638   4.707   3.630
10700SOL     OW44130   8.120   3.927   3.351
10700SOL    HW144131   8.210   3.911   3.311
10700SOL    HW244132   8.128   3.932   3.450
10701SOL     OW44133   7.523   4.069   1.895
10701SOL    HW144134   7.431   4.041   1.866
10701SOL    HW244135   7.554   4.146   1.839
10702SOL     OW44136   8.888   4.580   3.260
10702SOL    HW144137   8.831   4.632   3.197
10702SOL    HW244138   8.984   4.592   3.236
10703SOL     OW44139   7.520   3.890   2.180
10703SOL    HW144140   7.503   3.973   2.126
10703SOL    HW244141   7.610   3.853   2.158
10704SOL     OW44142   8.631   5.059   1.981
10704SOL    HW144143   8.532   5.048   1.983
10704SOL    HW244144   8.665   5.074   2.074
10705SOL     OW44145   8.164   4.289   3.570
10705SOL    HW144146   8.183   4.354   3.644
10705SOL    HW244147   8.224   4.209   3.579
10706SOL     OW44148   7.838   5.465   3.422
10706SOL    HW144149   7.747   5.506   3.420
10706SOL    HW244150   7.831   5.371   3.454
10707SOL     OW44151   9.178   4.658   3.379
10707SOL    HW144152   9.216   4.749   3.394
10707SOL    HW244153   9.170   4.641   3.280
10708SOL     OW44154   7.669   5.038   3.706
10708SOL    HW144155   7.604   4.965   3.685
10708SOL    HW244156   7.673   5.052   3.804
10709SOL     OW44157   8.120   5.115   3.486
10709SOL    HW144158   8.042   5.065   3.524
10709SOL    HW244159   8.117   5.210   3.517
10710SOL     OW44160   7.876   4.148   2.382
10710SOL    HW144161   7.906   4.076   2.320
10710SOL    HW244162   7.837   4.108   2.465
10711SOL     OW44163   9.153   5.211   2.966
10711SOL    HW144164   9.060   5.186   2.939
10711SOL    HW244165   9.179   5.161   3.048
10712SOL     OW44166   7.487   4.801   2.162
10712SOL    HW144167   7.586   4.790   2.153
10712SOL    HW244168   7.447   4.715   2.194
10713SOL     OW44169   7.678   4.352   3.837
10713SOL    HW144170   7.585   4.350   3.874
10713SOL    HW244171   7.679   4.313   3.745
10714SOL     OW44172   7.678   5.158   4.262
10714SOL    HW144173   7.652   5.254   4.262
10714SOL    HW244174   7.607   5.104   4.307
10715SOL     OW44175   9.042   3.838   5.204
10715SOL    HW144176   9.024   3.905   5.132
10715SOL    HW244177   9.039   3.884   5.293
10716SOL     OW44178   7.570   4.367   4.287
10716SOL    HW144179   7.525   4.279   4.304
10716SOL    HW244180   7.569   4.421   4.371
10717SOL     OW44181   9.089   4.832   4.156
10717SOL    HW144182   9.175   4.834   4.104
10717SOL    HW244183   9.103   4.879   4.244
10718SOL     OW44184   8.741   4.952   5.147
10718SOL    HW144185   8.778   4.879   5.089
10718SOL    HW244186   8.793   4.957   5.232
10719SOL     OW44187   9.115   5.438   4.296
10719SOL    HW144188   9.074   5.415   4.208
10719SOL    HW244189   9.097   5.364   4.361
10720SOL     OW44190   8.729   4.069   4.668
10720SOL    HW144191   8.643   4.019   4.655
10720SOL    HW244192   8.791   4.015   4.724
10721SOL     OW44193   9.024   5.386   4.031
10721SOL    HW144194   9.113   5.432   4.034
10721SOL    HW244195   9.003   5.362   3.936
10722SOL     OW44196   8.255   4.329   5.189
10722SOL    HW144197   8.208   4.326   5.278
10722SOL    HW244198   8.204   4.274   5.123
10723SOL     OW44199   7.578   5.545   5.295
10723SOL    HW144200   7.568   5.530   5.394
10723SOL    HW244201   7.492   5.581   5.259
10724SOL     OW44202   8.810   4.868   4.269
10724SOL    HW144203   8.893   4.839   4.221
10724SOL    HW244204   8.761   4.935   4.213
10725SOL     OW44205   8.675   5.274   5.230
10725SOL    HW144206   8.681   5.197   5.294
10725SOL    HW244207   8.623   5.248   5.150
10726SOL     OW44208   7.697   5.509   4.965
10726SOL    HW144209   7.754   5.444   5.015
10726SOL    HW244210   7.681   5.476   4.872
10727SOL     OW44211   8.229   3.988   5.473
10727SOL    HW144212   8.296   3.927   5.516
10727SOL    HW244213   8.156   4.007   5.538
10728SOL     OW44214   8.336   5.238   4.919
10728SOL    HW144215   8.313   5.213   4.825
10728SOL    HW244216   8.397   5.169   4.958
10729SOL     OW44217   7.987   3.788   4.236
10729SOL    HW144218   7.906   3.789   4.294
10729SOL    HW244219   7.990   3.871   4.181
10730SOL     OW44220   8.675   5.294   4.517
10730SOL    HW144221   8.696   5.368   4.452
10730SOL    HW244222   8.743   5.294   4.590
10731SOL     OW44223   8.314   4.178   4.366
10731SOL    HW144224   8.282   4.250   4.304
10731SOL    HW244225   8.338   4.097   4.313
10732SOL     OW44226   7.936   5.109   3.898
10732SOL    HW144227   7.849   5.094   3.945
10732SOL    HW244228   7.919   5.135   3.803
10733SOL     OW44229   7.975   3.980   4.052
10733SOL    HW144230   8.002   3.921   3.977
10733SOL    HW244231   7.975   4.075   4.021
10734SOL     OW44232   9.202   4.947   5.312
10734SOL    HW144233   9.293   4.908   5.299
10734SOL    HW244234   9.210   5.043   5.336
10735SOL     OW44235   9.040   5.353   5.349
10735SOL    HW144236   9.067   5.387   5.259
10735SOL    HW244237   9.119   5.315   5.395
10736SOL     OW44238   8.559   4.919   4.824
10736SOL    HW144239   8.519   4.963   4.905
10736SOL    HW244240   8.518   4.956   4.741
10737SOL     OW44241   8.428   4.840   5.443
10737SOL    HW144242   8.329   4.846   5.453
10737SOL    HW244243   8.451   4.760   5.387
10738SOL     OW44244   8.153   4.774   4.092
10738SOL    HW144245   8.139   4.781   4.191
10738SOL    HW244246   8.237   4.723   4.074
10739SOL     OW44247   7.858   4.537   4.975
10739SOL    HW144248   7.944   4.549   5.025
10739SOL    HW244249   7.816   4.450   5.002
10740SOL     OW44250   7.512   5.288   5.055
10740SOL    HW144251   7.466   5.370   5.021
10740SOL    HW244252   7.610   5.307   5.064
10741SOL     OW44253   7.850   4.475   5.322
10741SOL    HW144254   7.918   4.530   5.275
10741SOL    HW244255   7.890   4.387   5.349
10742SOL     OW44256   8.461   3.829   5.494
10742SOL    HW144257   8.467   3.914   5.442
10742SOL    HW244258   8.493   3.753   5.437
10743SOL     OW44259   8.021   4.594   4.753
10743SOL    HW144260   8.065   4.683   4.744
10743SOL    HW244261   7.958   4.594   4.830
10744SOL     OW44262   7.485   5.034   5.006
10744SOL    HW144263   7.538   4.985   5.074
10744SOL    HW244264   7.507   5.132   5.011
10745SOL     OW44265   8.180   4.358   4.788
10745SOL    HW144266   8.239   4.332   4.712
10745SOL    HW244267   8.152   4.454   4.777
10746SOL     OW44268   9.176   4.659   5.578
10746SOL    HW144269   9.130   4.652   5.489
10746SOL    HW244270   9.114   4.703   5.644
10747SOL     OW44271   7.755   3.787   4.342
10747SOL    HW144272   7.744   3.881   4.375
10747SOL    HW244273   7.750   3.724   4.419
10748SOL     OW44274   8.988   3.998   3.849
10748SOL    HW144275   8.927   3.923   3.872
10748SOL    HW244276   9.010   4.050   3.932
10749SOL     OW44277   8.751   4.562   3.766
10749SOL    HW144278   8.785   4.469   3.781
10749SOL    HW244279   8.769   4.589   3.671
10750SOL     OW44280   7.767   4.534   4.673
10750SOL    HW144281   7.860   4.570   4.678
10750SOL    HW244282   7.761   4.449   4.725
10751SOL     OW44283   8.586   4.104   5.402
10751SOL    HW144284   8.541   4.167   5.466
10751SOL    HW244285   8.679   4.135   5.385
10752SOL     OW44286   7.536   5.525   4.651
10752SOL    HW144287   7.494   5.439   4.624
10752SOL    HW244288   7.630   5.528   4.617
10753SOL     OW44289   7.488   4.268   4.838
10753SOL    HW144290   7.573   4.235   4.797
10753SOL    HW244291   7.501   4.283   4.936
10754SOL     OW44292   8.817   4.674   5.384
10754SOL    HW144293   8.856   4.763   5.404
10754SOL    HW244294   8.827   4.654   5.287
10755SOL     OW44295   8.263   4.296   4.049
10755SOL    HW144296   8.270   4.207   4.003
10755SOL    HW244297   8.169   4.330   4.041
10756SOL     OW44298   7.700   5.288   5.468
10756SOL    HW144299   7.670   5.345   5.544
10756SOL    HW244300   7.693   5.191   5.494
10757SOL     OW44301   8.119   4.188   4.993
10757SOL    HW144302   8.085   4.099   4.963
10757SOL    HW244303   8.145   4.242   4.913
10758SOL     OW44304   8.795   4.783   4.958
10758SOL    HW144305   8.819   4.720   4.884
10758SOL    HW244306   8.705   4.823   4.940
10759SOL     OW44307   8.750   4.579   4.033
10759SOL    HW144308   8.664   4.548   4.075
10759SOL    HW244309   8.746   4.565   3.934
10760SOL     OW44310   7.531   4.982   4.746
10760SOL    HW144311   7.526   4.981   4.846
10760SOL    HW244312   7.448   4.941   4.708
10761SOL     OW44313   8.136   5.386   5.440
10761SOL    HW144314   8.080   5.467   5.449
10761SOL    HW244315   8.188   5.390   5.354
10762SOL     OW44316   8.836   5.297   4.201
10762SOL    HW144317   8.903   5.309   4.127
10762SOL    HW244318   8.796   5.386   4.224
10763SOL     OW44319   7.578   5.518   5.575
10763SOL    HW144320   7.537   5.444   5.628
10763SOL    HW244321   7.642   5.569   5.633
10764SOL     OW44322   8.728   4.651   4.396
10764SOL    HW144323   8.788   4.570   4.398
10764SOL    HW244324   8.768   4.720   4.336
10765SOL     OW44325   8.278   4.997   5.146
10765SOL    HW144326   8.273   5.030   5.241
10765SOL    HW244327   8.192   5.016   5.100
10766SOL     OW44328   8.120   5.340   3.878
10766SOL    HW144329   8.129   5.350   3.779
10766SOL    HW244330   8.080   5.251   3.899
10767SOL     OW44331   7.711   4.050   4.444
10767SOL    HW144332   7.632   4.101   4.410
10767SOL    HW244333   7.702   4.035   4.542
10768SOL     OW44334   8.642   5.336   3.755
10768SOL    HW144335   8.648   5.243   3.792
10768SOL    HW244336   8.583   5.336   3.675
10769SOL     OW44337   8.270   4.726   5.096
10769SOL    HW144338   8.310   4.725   5.004
10769SOL    HW244339   8.280   4.818   5.136
10770SOL     OW44340   8.364   4.634   4.015
10770SOL    HW144341   8.427   4.672   3.947
10770SOL    HW244342   8.404   4.551   4.054
10771SOL     OW44343   7.703   5.072   4.014
10771SOL    HW144344   7.607   5.073   3.987
10771SOL    HW244345   7.715   5.125   4.098
10772SOL     OW44346   7.523   4.069   3.757
10772SOL    HW144347   7.431   4.041   3.728
10772SOL    HW244348   7.554   4.146   3.701
10773SOL     OW44349   8.631   5.059   3.843
10773SOL    HW144350   8.532   5.048   3.845
10773SOL    HW244351   8.665   5.074   3.936
10774SOL     OW44352   8.898   4.944   5.357
10774SOL    HW144353   8.889   4.934   5.456
10774SOL    HW244354   8.994   4.937   5.331
10775SOL     OW44355   7.838   5.465   5.284
10775SOL    HW144356   7.747   5.506   5.282
10775SOL    HW244357   7.831   5.371   5.316
10776SOL     OW44358   9.178   4.658   5.241
10776SOL    HW144359   9.216   4.749   5.256
10776SOL    HW244360   9.170   4.641   5.142
10777SOL     OW44361   8.307   5.098   3.740
10777SOL    HW144362   8.261   5.113   3.828
10777SOL    HW244363   8.351   5.183   3.710
10778SOL     OW44364   8.307   4.680   4.585
10778SOL    HW144365   8.361   4.611   4.633
10778SOL    HW244366   8.275   4.749   4.651
10779SOL     OW44367   8.531   4.708   3.811
10779SOL    HW144368   8.508   4.761   3.729
10779SOL    HW244369   8.612   4.652   3.792
10780SOL     OW44370   9.309   5.293   4.575
10780SOL    HW144371   9.238   5.281   4.505
10780SOL    HW244372   9.310   5.214   4.635
10781SOL     OW44373   8.260   5.310   4.411
10781SOL    HW144374   8.292   5.320   4.317
10781SOL    HW244375   8.181   5.248   4.413
10782SOL     OW44376   8.449   3.758   4.878
10782SOL    HW144377   8.386   3.686   4.847
10782SOL    HW244378   8.542   3.722   4.878
10783SOL     OW44379   9.041   3.945   4.606
10783SOL    HW144380   8.957   3.944   4.660
10783SOL    HW244381   9.043   4.028   4.550
10784SOL     OW44382   8.323   5.370   4.061
10784SOL    HW144383   8.246   5.335   4.007
10784SOL    HW244384   8.291   5.441   4.123
10785SOL     OW44385   7.673   3.999   6.582
10785SOL    HW144386   7.708   3.982   6.674
10785SOL    HW244387   7.585   3.954   6.570
10786SOL     OW44388   7.467   4.092   6.233
10786SOL    HW144389   7.385   4.135   6.272
10786SOL    HW244390   7.439   4.019   6.170
10787SOL     OW44391   8.017   4.999   6.751
10787SOL    HW144392   7.924   4.992   6.714
10787SOL    HW244393   8.028   5.088   6.795
10788SOL     OW44394   9.003   5.235   6.289
10788SOL    HW144395   8.946   5.219   6.370
10788SOL    HW244396   8.944   5.245   6.209
10789SOL     OW44397   8.583   4.427   6.303
10789SOL    HW144398   8.640   4.505   6.278
10789SOL    HW244399   8.523   4.453   6.379
10790SOL     OW44400   8.216   4.868   6.609
10790SOL    HW144401   8.138   4.885   6.669
10790SOL    HW244402   8.250   4.955   6.573
10791SOL     OW44403   8.298   4.522   7.409
10791SOL    HW144404   8.294   4.598   7.474
10791SOL    HW244405   8.320   4.558   7.318
10792SOL     OW44406   8.133   4.736   6.251
10792SOL    HW144407   8.202   4.720   6.321
10792SOL    HW244408   8.060   4.793   6.289
10793SOL     OW44409   8.134   4.885   7.389
10793SOL    HW144410   8.194   4.964   7.403
10793SOL    HW244411   8.048   4.916   7.348
10794SOL     OW44412   7.783   5.159   6.647
10794SOL    HW144413   7.705   5.128   6.594
10794SOL    HW244414   7.841   5.217   6.590
10795SOL     OW44415   8.908   5.229   6.925
10795SOL    HW144416   8.932   5.323   6.951
10795SOL    HW244417   8.892   5.175   7.007
10796SOL     OW44418   7.886   4.116   7.085
10796SOL    HW144419   7.968   4.060   7.094
10796SOL    HW244420   7.805   4.058   7.089
10797SOL     OW44421   9.051   4.171   6.323
10797SOL    HW144422   8.977   4.217   6.273
10797SOL    HW244423   9.102   4.239   6.376
10798SOL     OW44424   7.679   5.437   6.069
10798SOL    HW144425   7.713   5.514   6.123
10798SOL    HW244426   7.723   5.437   5.979
10799SOL     OW44427   8.575   5.065   7.276
10799SOL    HW144428   8.622   5.065   7.364
10799SOL    HW244429   8.527   4.978   7.265
10800SOL     OW44430   7.688   4.815   6.472
10800SOL    HW144431   7.702   4.731   6.524
10800SOL    HW244432   7.633   4.879   6.527
10801SOL     OW44433   8.068   5.510   7.025
10801SOL    HW144434   7.976   5.493   7.060
10801SOL    HW244435   8.096   5.602   7.051
10802SOL     OW44436   8.054   4.688   5.709
10802SOL    HW144437   8.061   4.772   5.655
10802SOL    HW244438   8.100   4.701   5.797
10803SOL     OW44439   9.042   3.838   7.066
10803SOL    HW144440   9.024   3.905   6.994
10803SOL    HW244441   9.039   3.884   7.155
10804SOL     OW44442   7.570   4.367   6.149
10804SOL    HW144443   7.525   4.279   6.166
10804SOL    HW244444   7.569   4.421   6.233
10805SOL     OW44445   9.290   5.491   5.945
10805SOL    HW144446   9.344   5.462   6.025
10805SOL    HW244447   9.320   5.581   5.916
10806SOL     OW44448   7.475   5.320   5.703
10806SOL    HW144449   7.456   5.224   5.724
10806SOL    HW244450   7.442   5.378   5.778
10807SOL     OW44451   9.137   4.646   6.198
10807SOL    HW144452   9.232   4.617   6.206
10807SOL    HW244453   9.129   4.711   6.123
10808SOL     OW44454   9.089   4.832   6.018
10808SOL    HW144455   9.175   4.834   5.966
10808SOL    HW244456   9.103   4.879   6.106
10809SOL     OW44457   7.561   4.461   7.183
10809SOL    HW144458   7.649   4.448   7.228
10809SOL    HW244459   7.548   4.558   7.161
10810SOL     OW44460   8.061   5.089   6.312
10810SOL    HW144461   8.012   5.002   6.321
10810SOL    HW244462   8.038   5.132   6.225
10811SOL     OW44463   8.741   4.952   7.009
10811SOL    HW144464   8.778   4.879   6.951
10811SOL    HW244465   8.793   4.957   7.094
10812SOL     OW44466   8.257   3.728   6.088
10812SOL    HW144467   8.297   3.819   6.079
10812SOL    HW244468   8.157   3.736   6.094
10813SOL     OW44469   7.645   4.700   6.850
10813SOL    HW144470   7.734   4.655   6.836
10813SOL    HW244471   7.572   4.635   6.831
10814SOL     OW44472   8.635   5.516   7.202
10814SOL    HW144473   8.659   5.576   7.126
10814SOL    HW244474   8.642   5.421   7.172
10815SOL     OW44475   7.765   3.975   7.387
10815SOL    HW144476   7.836   4.046   7.393
10815SOL    HW244477   7.677   4.014   7.415
10816SOL     OW44478   8.914   5.141   6.539
10816SOL    HW144479   8.855   5.147   6.619
10816SOL    HW244480   8.899   5.053   6.493
10817SOL     OW44481   9.115   5.438   6.158
10817SOL    HW144482   9.074   5.415   6.070
10817SOL    HW244483   9.097   5.364   6.223
10818SOL     OW44484   8.729   4.069   6.530
10818SOL    HW144485   8.643   4.019   6.517
10818SOL    HW244486   8.791   4.015   6.586
10819SOL     OW44487   8.255   4.329   7.051
10819SOL    HW144488   8.208   4.326   7.140
10819SOL    HW244489   8.204   4.274   6.985
10820SOL     OW44490   8.421   4.614   7.158
10820SOL    HW144491   8.467   4.530   7.129
10820SOL    HW244492   8.365   4.648   7.083
10821SOL     OW44493   8.439   4.134   6.828
10821SOL    HW144494   8.362   4.168   6.882
10821SOL    HW244495   8.405   4.083   6.749
10822SOL     OW44496   8.489   4.425   6.015
10822SOL    HW144497   8.515   4.421   6.111
10822SOL    HW244498   8.404   4.374   6.001
10823SOL     OW44499   7.524   4.535   6.375
10823SOL    HW144500   7.623   4.523   6.384
10823SOL    HW244501   7.500   4.630   6.396
10824SOL     OW44502   7.578   5.545   7.157
10824SOL    HW144503   7.568   5.530   7.256
10824SOL    HW244504   7.492   5.581   7.121
10825SOL     OW44505   8.313   4.072   5.781
10825SOL    HW144506   8.372   4.135   5.732
10825SOL    HW244507   8.332   3.978   5.752
10826SOL     OW44508   8.810   4.868   6.131
10826SOL    HW144509   8.893   4.839   6.083
10826SOL    HW244510   8.761   4.935   6.075
10827SOL     OW44511   7.998   3.920   6.471
10827SOL    HW144512   7.993   3.915   6.571
10827SOL    HW244513   8.000   4.016   6.442
10828SOL     OW44514   8.456   5.180   6.063
10828SOL    HW144515   8.410   5.252   6.011
10828SOL    HW244516   8.452   5.200   6.161
10829SOL     OW44517   7.799   5.525   6.439
10829SOL    HW144518   7.849   5.439   6.445
10829SOL    HW244519   7.864   5.602   6.436
10830SOL     OW44520   9.243   4.790   6.459
10830SOL    HW144521   9.181   4.775   6.383
10830SOL    HW244522   9.191   4.801   6.544
10831SOL     OW44523   8.675   5.274   7.092
10831SOL    HW144524   8.681   5.197   7.156
10831SOL    HW244525   8.623   5.248   7.012
10832SOL     OW44526   7.769   4.667   5.828
10832SOL    HW144527   7.851   4.706   5.786
10832SOL    HW244528   7.742   4.585   5.779
10833SOL     OW44529   8.906   4.459   6.314
10833SOL    HW144530   8.901   4.394   6.389
10833SOL    HW244531   8.986   4.518   6.327
10834SOL     OW44532   7.909   4.990   7.313
10834SOL    HW144533   7.859   4.991   7.227
10834SOL    HW244534   7.846   4.972   7.389
10835SOL     OW44535   8.559   5.500   5.823
10835SOL    HW144536   8.499   5.438   5.873
10835SOL    HW244537   8.590   5.456   5.738
10836SOL     OW44538   7.650   4.009   7.084
10836SOL    HW144539   7.570   4.069   7.071
10836SOL    HW244540   7.640   3.960   7.170
10837SOL     OW44541   9.080   5.101   5.667
10837SOL    HW144542   9.048   5.195   5.657
10837SOL    HW244543   9.004   5.038   5.655
10838SOL     OW44544   7.912   5.467   5.909
10838SOL    HW144545   7.945   5.506   5.995
10838SOL    HW244546   7.988   5.460   5.844
10839SOL     OW44547   8.848   3.831   6.012
10839SOL    HW144548   8.824   3.794   5.922
10839SOL    HW244549   8.947   3.847   6.016
10840SOL     OW44550   7.697   5.509   6.827
10840SOL    HW144551   7.754   5.444   6.877
10840SOL    HW244552   7.681   5.476   6.734
10841SOL     OW44553   8.388   5.422   6.490
10841SOL    HW144554   8.468   5.365   6.511
10841SOL    HW244555   8.339   5.382   6.413
10842SOL     OW44556   8.229   3.988   7.335
10842SOL    HW144557   8.296   3.927   7.378
10842SOL    HW244558   8.156   4.007   7.400
10843SOL     OW44559   8.336   5.238   6.781
10843SOL    HW144560   8.313   5.213   6.687
10843SOL    HW244561   8.397   5.169   6.820
10844SOL     OW44562   8.799   4.314   7.019
10844SOL    HW144563   8.827   4.271   7.104
10844SOL    HW244564   8.824   4.410   7.020
10845SOL     OW44565   8.251   5.126   6.510
10845SOL    HW144566   8.341   5.140   6.468
10845SOL    HW244567   8.180   5.128   6.439
10846SOL     OW44568   8.370   4.227   6.485
10846SOL    HW144569   8.345   4.218   6.389
10846SOL    HW244570   8.418   4.145   6.516
10847SOL     OW44571   7.987   3.788   6.098
10847SOL    HW144572   7.906   3.789   6.156
10847SOL    HW244573   7.990   3.871   6.043
10848SOL     OW44574   8.383   3.960   6.066
10848SOL    HW144575   8.335   4.001   5.988
10848SOL    HW244576   8.482   3.958   6.047
10849SOL     OW44577   8.524   4.407   7.050
10849SOL    HW144578   8.444   4.346   7.053
10849SOL    HW244579   8.605   4.354   7.026
10850SOL     OW44580   8.675   5.294   6.379
10850SOL    HW144581   8.696   5.368   6.314
10850SOL    HW244582   8.743   5.294   6.452
10851SOL     OW44583   7.907   4.876   6.327
10851SOL    HW144584   7.836   4.849   6.392
10851SOL    HW244585   7.881   4.848   6.234
10852SOL     OW44586   8.719   5.521   6.177
10852SOL    HW144587   8.763   5.585   6.113
10852SOL    HW244588   8.669   5.573   6.247
10853SOL     OW44589   7.526   4.280   6.972
10853SOL    HW144590   7.618   4.279   6.931
10853SOL    HW244591   7.520   4.354   7.039
10854SOL     OW44592   8.009   3.946   6.733
10854SOL    HW144593   8.047   3.862   6.770
10854SOL    HW244594   7.921   3.965   6.777
10855SOL     OW44595   8.314   4.178   6.228
10855SOL    HW144596   8.282   4.250   6.166
10855SOL    HW244597   8.338   4.097   6.175
10856SOL     OW44598   8.465   3.763   6.339
10856SOL    HW144599   8.393   3.768   6.270
10856SOL    HW244600   8.441   3.694   6.408
10857SOL     OW44601   8.877   4.897   6.453
10857SOL    HW144602   8.822   4.813   6.446
10857SOL    HW244603   8.903   4.926   6.361
10858SOL     OW44604   8.914   4.314   6.578
10858SOL    HW144605   8.884   4.219   6.585
10858SOL    HW244606   8.987   4.330   6.644
10859SOL     OW44607   9.305   4.557   5.963
10859SOL    HW144608   9.347   4.493   6.027
10859SOL    HW244609   9.267   4.506   5.885
10860SOL     OW44610   7.936   5.109   5.760
10860SOL    HW144611   7.849   5.094   5.807
10860SOL    HW244612   7.919   5.135   5.665
10861SOL     OW44613   9.112   5.004   6.243
10861SOL    HW144614   9.211   5.012   6.257
10861SOL    HW244615   9.067   5.088   6.274
10862SOL     OW44616   7.975   3.980   5.914
10862SOL    HW144617   8.002   3.921   5.839
10862SOL    HW244618   7.975   4.075   5.883
10863SOL     OW44619   9.202   4.947   7.174
10863SOL    HW144620   9.293   4.908   7.161
10863SOL    HW244621   9.210   5.043   7.198
10864SOL     OW44622   8.512   5.071   6.926
10864SOL    HW144623   8.432   5.048   6.981
10864SOL    HW244624   8.595   5.045   6.975
10865SOL     OW44625   9.040   5.353   7.211
10865SOL    HW144626   9.067   5.387   7.121
10865SOL    HW244627   9.119   5.315   7.257
10866SOL     OW44628   8.559   4.919   6.686
10866SOL    HW144629   8.519   4.963   6.767
10866SOL    HW244630   8.518   4.956   6.603
10867SOL     OW44631   9.086   4.823   6.665
10867SOL    HW144632   9.091   4.904   6.724
10867SOL    HW244633   9.000   4.825   6.614
10868SOL     OW44634   8.363   3.813   6.988
10868SOL    HW144635   8.388   3.793   6.893
10868SOL    HW244636   8.435   3.869   7.030
10869SOL     OW44637   8.428   4.840   7.305
10869SOL    HW144638   8.329   4.846   7.315
10869SOL    HW244639   8.451   4.760   7.249
10870SOL     OW44640   8.153   4.774   5.954
10870SOL    HW144641   8.139   4.781   6.053
10870SOL    HW244642   8.237   4.723   5.936
10871SOL     OW44643   7.858   4.537   6.837
10871SOL    HW144644   7.944   4.549   6.887
10871SOL    HW244645   7.816   4.450   6.864
10872SOL     OW44646   8.722   4.110   6.848
10872SOL    HW144647   8.743   4.184   6.912
10872SOL    HW244648   8.633   4.127   6.805
10873SOL     OW44649   7.512   5.288   6.917
10873SOL    HW144650   7.466   5.370   6.883
10873SOL    HW244651   7.610   5.307   6.926
10874SOL     OW44652   7.815   4.824   6.087
10874SOL    HW144653   7.808   4.907   6.031
10874SOL    HW244654   7.819   4.744   6.027
10875SOL     OW44655   8.014   4.261   6.451
10875SOL    HW144656   8.026   4.327   6.377
10875SOL    HW244657   8.060   4.295   6.534
10876SOL     OW44658   8.700   5.072   5.974
10876SOL    HW144659   8.750   5.149   6.014
10876SOL    HW244660   8.605   5.074   6.006
10877SOL     OW44661   8.720   5.169   6.728
10877SOL    HW144662   8.767   5.182   6.815
10877SOL    HW244663   8.654   5.095   6.737
10878SOL     OW44664   9.030   4.363   6.058
10878SOL    HW144665   8.999   4.424   6.131
10878SOL    HW244666   9.080   4.415   5.989
10879SOL     OW44667   7.802   5.234   6.915
10879SOL    HW144668   7.781   5.190   6.828
10879SOL    HW244669   7.899   5.260   6.918
10880SOL     OW44670   7.850   4.475   7.184
10880SOL    HW144671   7.918   4.530   7.137
10880SOL    HW244672   7.890   4.387   7.211
10881SOL     OW44673   9.035   4.503   7.256
10881SOL    HW144674   8.943   4.541   7.251
10881SOL    HW244675   9.095   4.550   7.191
10882SOL     OW44676   8.021   4.594   6.615
10882SOL    HW144677   8.065   4.683   6.606
10882SOL    HW244678   7.958   4.594   6.692
10883SOL     OW44679   8.808   4.586   6.631
10883SOL    HW144680   8.733   4.586   6.565
10883SOL    HW244681   8.845   4.494   6.640
10884SOL     OW44682   7.755   3.937   6.817
10884SOL    HW144683   7.732   3.974   6.907
10884SOL    HW244684   7.725   3.842   6.811
10885SOL     OW44685   7.485   5.034   6.868
10885SOL    HW144686   7.538   4.985   6.936
10885SOL    HW244687   7.507   5.132   6.873
10886SOL     OW44688   8.180   4.358   6.650
10886SOL    HW144689   8.239   4.332   6.574
10886SOL    HW244690   8.152   4.454   6.639
10887SOL     OW44691   9.176   4.659   7.440
10887SOL    HW144692   9.130   4.652   7.351
10887SOL    HW244693   9.114   4.703   7.506
10888SOL     OW44694   7.755   3.787   6.204
10888SOL    HW144695   7.744   3.881   6.237
10888SOL    HW244696   7.750   3.724   6.281
10889SOL     OW44697   9.070   4.091   5.960
10889SOL    HW144698   9.072   4.015   6.024
10889SOL    HW244699   9.022   4.168   6.000
10890SOL     OW44700   8.471   4.490   6.552
10890SOL    HW144701   8.486   4.511   6.648
10890SOL    HW244702   8.441   4.395   6.543
10891SOL     OW44703   8.428   5.297   7.286
10891SOL    HW144704   8.408   5.341   7.198
10891SOL    HW244705   8.467   5.206   7.270
10892SOL     OW44706   9.307   5.242   7.191
10892SOL    HW144707   9.321   5.269   7.096
10892SOL    HW244708   9.390   5.264   7.244
10893SOL     OW44709   7.798   4.622   7.390
10893SOL    HW144710   7.874   4.666   7.438
10893SOL    HW244711   7.833   4.575   7.308
10894SOL     OW44712   8.516   5.057   6.435
10894SOL    HW144713   8.523   4.973   6.380
10894SOL    HW244714   8.578   5.126   6.399
10895SOL     OW44715   7.767   4.534   6.535
10895SOL    HW144716   7.860   4.570   6.540
10895SOL    HW244717   7.761   4.449   6.587
10896SOL     OW44718   7.787   4.233   6.592
10896SOL    HW144719   7.735   4.150   6.575
10896SOL    HW244720   7.864   4.238   6.528
10897SOL     OW44721   8.586   4.104   7.264
10897SOL    HW144722   8.541   4.167   7.328
10897SOL    HW244723   8.679   4.135   7.247
10898SOL     OW44724   8.608   3.931   7.063
10898SOL    HW144725   8.608   3.995   7.140
10898SOL    HW244726   8.636   3.979   6.980
10899SOL     OW44727   7.536   5.525   6.513
10899SOL    HW144728   7.494   5.439   6.486
10899SOL    HW244729   7.630   5.528   6.479
10900SOL     OW44730   7.952   5.292   6.496
10900SOL    HW144731   8.018   5.366   6.505
10900SOL    HW244732   7.996   5.213   6.454
10901SOL     OW44733   8.450   4.520   6.824
10901SOL    HW144734   8.491   4.488   6.910
10901SOL    HW244735   8.354   4.493   6.821
10902SOL     OW44736   7.488   4.268   6.700
10902SOL    HW144737   7.573   4.235   6.659
10902SOL    HW244738   7.501   4.283   6.798
10903SOL     OW44739   8.263   4.296   5.911
10903SOL    HW144740   8.270   4.207   5.865
10903SOL    HW244741   8.169   4.330   5.903
10904SOL     OW44742   9.105   4.328   6.792
10904SOL    HW144743   9.067   4.259   6.854
10904SOL    HW244744   9.187   4.292   6.748
10905SOL     OW44745   7.700   5.288   7.330
10905SOL    HW144746   7.670   5.345   7.406
10905SOL    HW244747   7.693   5.191   7.356
10906SOL     OW44748   8.119   4.188   6.855
10906SOL    HW144749   8.085   4.099   6.825
10906SOL    HW244750   8.145   4.242   6.775
10907SOL     OW44751   8.378   5.402   7.051
10907SOL    HW144752   8.354   5.384   6.956
10907SOL    HW244753   8.408   5.496   7.061
10908SOL     OW44754   7.607   4.861   7.052
10908SOL    HW144755   7.629   4.800   7.128
10908SOL    HW244756   7.617   4.812   6.966
10909SOL     OW44757   8.795   4.783   6.820
10909SOL    HW144758   8.819   4.720   6.746
10909SOL    HW244759   8.705   4.823   6.802
10910SOL     OW44760   9.207   5.471   6.740
10910SOL    HW144761   9.268   5.501   6.667
10910SOL    HW244762   9.169   5.382   6.718
10911SOL     OW44763   8.700   5.455   6.714
10911SOL    HW144764   8.784   5.460   6.660
10911SOL    HW244765   8.677   5.359   6.732
10912SOL     OW44766   7.531   4.982   6.608
10912SOL    HW144767   7.526   4.981   6.708
10912SOL    HW244768   7.448   4.941   6.570
10913SOL     OW44769   8.136   5.386   7.302
10913SOL    HW144770   8.080   5.467   7.311
10913SOL    HW244771   8.188   5.390   7.216
10914SOL     OW44772   8.836   5.297   6.063
10914SOL    HW144773   8.903   5.309   5.989
10914SOL    HW244774   8.796   5.386   6.086
10915SOL     OW44775   8.728   4.651   6.258
10915SOL    HW144776   8.788   4.570   6.260
10915SOL    HW244777   8.768   4.720   6.198
10916SOL     OW44778   8.278   4.997   7.008
10916SOL    HW144779   8.273   5.030   7.103
10916SOL    HW244780   8.192   5.016   6.962
10917SOL     OW44781   9.098   5.444   6.980
10917SOL    HW144782   9.151   5.454   6.896
10917SOL    HW244783   9.071   5.534   7.014
10918SOL     OW44784   9.289   3.899   6.549
10918SOL    HW144785   9.328   3.814   6.513
10918SOL    HW244786   9.191   3.901   6.530
10919SOL     OW44787   7.711   4.050   6.306
10919SOL    HW144788   7.632   4.101   6.272
10919SOL    HW244789   7.702   4.035   6.404
10920SOL     OW44790   8.642   5.336   5.617
10920SOL    HW144791   8.648   5.243   5.654
10920SOL    HW244792   8.583   5.336   5.537
10921SOL     OW44793   8.270   4.726   6.958
10921SOL    HW144794   8.310   4.725   6.866
10921SOL    HW244795   8.280   4.818   6.998
10922SOL     OW44796   8.364   4.634   5.877
10922SOL    HW144797   8.427   4.672   5.809
10922SOL    HW244798   8.404   4.551   5.916
10923SOL     OW44799   8.952   5.331   5.630
10923SOL    HW144800   8.860   5.368   5.637
10923SOL    HW244801   8.990   5.351   5.540
10924SOL     OW44802   7.820   5.012   7.076
10924SOL    HW144803   7.807   5.105   7.042
10924SOL    HW244804   7.736   4.960   7.063
10925SOL     OW44805   9.062   5.016   6.875
10925SOL    HW144806   9.122   5.019   6.955
10925SOL    HW244807   8.987   5.080   6.888
10926SOL     OW44808   8.487   4.822   6.282
10926SOL    HW144809   8.417   4.775   6.336
10926SOL    HW244810   8.546   4.754   6.239
10927SOL     OW44811   8.462   3.960   6.557
10927SOL    HW144812   8.454   3.924   6.464
10927SOL    HW244813   8.460   3.884   6.622
10928SOL     OW44814   8.038   5.211   6.077
10928SOL    HW144815   8.080   5.153   6.007
10928SOL    HW244816   7.994   5.290   6.033
10929SOL     OW44817   9.157   4.109   6.967
10929SOL    HW144818   9.230   4.178   6.971
10929SOL    HW244819   9.185   4.034   6.908
10930SOL     OW44820   7.553   4.737   7.312
10930SOL    HW144821   7.476   4.704   7.366
10930SOL    HW244822   7.638   4.707   7.354
10931SOL     OW44823   8.120   3.927   7.075
10931SOL    HW144824   8.210   3.911   7.035
10931SOL    HW244825   8.128   3.932   7.174
10932SOL     OW44826   8.888   4.580   6.984
10932SOL    HW144827   8.831   4.632   6.921
10932SOL    HW244828   8.984   4.592   6.960
10933SOL     OW44829   8.631   5.059   5.705
10933SOL    HW144830   8.532   5.048   5.707
10933SOL    HW244831   8.665   5.074   5.798
10934SOL     OW44832   8.061   4.566   7.017
10934SOL    HW144833   8.117   4.647   7.000
10934SOL    HW244834   8.120   4.486   7.020
10935SOL     OW44835   8.941   5.491   6.545
10935SOL    HW144836   8.974   5.555   6.476
10935SOL    HW244837   9.007   5.485   6.620
10936SOL     OW44838   8.164   4.289   7.294
10936SOL    HW144839   8.183   4.354   7.368
10936SOL    HW244840   8.224   4.209   7.303
10937SOL     OW44841   7.838   5.465   7.146
10937SOL    HW144842   7.747   5.506   7.144
10937SOL    HW244843   7.831   5.371   7.178
10938SOL     OW44844   9.122   4.607   6.840
10938SOL    HW144845   9.095   4.518   6.803
10938SOL    HW244846   9.123   4.675   6.767
10939SOL     OW44847   8.673   4.049   6.035
10939SOL    HW144848   8.738   3.975   6.024
10939SOL    HW244849   8.693   4.099   6.119
10940SOL     OW44850   8.042   4.469   6.238
10940SOL    HW144851   8.092   4.554   6.219
10940SOL    HW244852   7.954   4.471   6.190
10941SOL     OW44853   9.225   4.066   7.228
10941SOL    HW144854   9.208   4.097   7.134
10941SOL    HW244855   9.141   4.029   7.266
10942SOL     OW44856   9.178   4.658   7.103
10942SOL    HW144857   9.216   4.749   7.118
10942SOL    HW244858   9.170   4.641   7.004
10943SOL     OW44859   8.307   5.098   5.602
10943SOL    HW144860   8.261   5.113   5.690
10943SOL    HW244861   8.351   5.183   5.572
10944SOL     OW44862   8.109   5.514   6.539
10944SOL    HW144863   8.063   5.602   6.526
10944SOL    HW244864   8.208   5.526   6.532
10945SOL     OW44865   8.307   4.680   6.447
10945SOL    HW144866   8.361   4.611   6.495
10945SOL    HW244867   8.275   4.749   6.513
10946SOL     OW44868   9.309   5.293   6.437
10946SOL    HW144869   9.238   5.281   6.367
10946SOL    HW244870   9.310   5.214   6.497
10947SOL     OW44871   7.669   5.038   7.430
10947SOL    HW144872   7.604   4.965   7.409
10947SOL    HW244873   7.673   5.052   7.528
10948SOL     OW44874   7.527   4.964   6.239
10948SOL    HW144875   7.526   4.917   6.327
10948SOL    HW244876   7.609   4.936   6.188
10949SOL     OW44877   8.120   5.115   7.210
10949SOL    HW144878   8.042   5.065   7.248
10949SOL    HW244879   8.117   5.210   7.241
10950SOL     OW44880   9.272   3.916   6.813
10950SOL    HW144881   9.268   3.826   6.857
10950SOL    HW244882   9.275   3.905   6.714
10951SOL     OW44883   7.876   4.148   6.106
10951SOL    HW144884   7.906   4.076   6.044
10951SOL    HW244885   7.837   4.108   6.189
10952SOL     OW44886   9.153   5.211   6.690
10952SOL    HW144887   9.060   5.186   6.663
10952SOL    HW244888   9.179   5.161   6.772
10953SOL     OW44889   7.765   4.271   6.866
10953SOL    HW144890   7.803   4.212   6.938
10953SOL    HW244891   7.805   4.245   6.778
10954SOL     OW44892   8.260   5.310   6.273
10954SOL    HW144893   8.292   5.320   6.179
10954SOL    HW244894   8.181   5.248   6.275
10955SOL     OW44895   8.872   3.938   6.698
10955SOL    HW144896   8.924   3.873   6.753
10955SOL    HW244897   8.823   4.001   6.759
10956SOL     OW44898   8.449   3.758   6.740
10956SOL    HW144899   8.386   3.686   6.709
10956SOL    HW244900   8.542   3.722   6.740
10957SOL     OW44901   8.218   5.054   5.887
10957SOL    HW144902   8.172   4.967   5.904
10957SOL    HW244903   8.309   5.051   5.928
10958SOL     OW44904   8.066   5.291   6.870
10958SOL    HW144905   8.061   5.373   6.927
10958SOL    HW244906   8.155   5.288   6.825
10959SOL     OW44907   8.800   3.776   5.754
10959SOL    HW144908   8.835   3.735   5.670
10959SOL    HW244909   8.710   3.738   5.774
10960SOL     OW44910   8.748   4.177   6.277
10960SOL    HW144911   8.689   4.257   6.281
10960SOL    HW244912   8.763   4.142   6.370
10961SOL     OW44913   9.041   3.945   6.468
10961SOL    HW144914   8.957   3.944   6.522
10961SOL    HW244915   9.043   4.028   6.412
10962SOL     OW44916   7.487   4.801   5.886
10962SOL    HW144917   7.586   4.790   5.877
10962SOL    HW244918   7.447   4.715   5.918
10963SOL     OW44919   8.323   5.370   5.923
10963SOL    HW144920   8.246   5.335   5.869
10963SOL    HW244921   8.291   5.441   5.985
10964SOL     OW44922   7.678   6.214   0.113
10964SOL    HW144923   7.585   6.212   0.150
10964SOL    HW244924   7.679   6.175   0.021
10965SOL     OW44925   7.673   5.861   0.996
10965SOL    HW144926   7.708   5.844   1.088
10965SOL    HW244927   7.585   5.816   0.984
10966SOL     OW44928   7.467   5.954   0.647
10966SOL    HW144929   7.385   5.997   0.686
10966SOL    HW244930   7.439   5.881   0.584
10967SOL     OW44931   8.017   6.861   1.165
10967SOL    HW144932   7.924   6.854   1.128
10967SOL    HW244933   8.028   6.950   1.209
10968SOL     OW44934   9.003   7.097   0.703
10968SOL    HW144935   8.946   7.081   0.784
10968SOL    HW244936   8.944   7.107   0.623
10969SOL     OW44937   8.583   6.289   0.717
10969SOL    HW144938   8.640   6.367   0.692
10969SOL    HW244939   8.523   6.315   0.793
10970SOL     OW44940   9.203   6.193   0.231
10970SOL    HW144941   9.191   6.180   0.132
10970SOL    HW244942   9.173   6.112   0.280
10971SOL     OW44943   8.216   6.730   1.023
10971SOL    HW144944   8.138   6.747   1.083
10971SOL    HW244945   8.250   6.817   0.987
10972SOL     OW44946   8.298   6.384   1.823
10972SOL    HW144947   8.294   6.460   1.888
10972SOL    HW244948   8.320   6.420   1.732
10973SOL     OW44949   8.133   6.598   0.665
10973SOL    HW144950   8.202   6.582   0.735
10973SOL    HW244951   8.060   6.655   0.703
10974SOL     OW44952   8.134   6.747   1.803
10974SOL    HW144953   8.194   6.826   1.817
10974SOL    HW244954   8.048   6.778   1.762
10975SOL     OW44955   7.783   7.021   1.061
10975SOL    HW144956   7.705   6.990   1.008
10975SOL    HW244957   7.841   7.079   1.004
10976SOL     OW44958   8.908   7.091   1.339
10976SOL    HW144959   8.932   7.185   1.365
10976SOL    HW244960   8.892   7.037   1.421
10977SOL     OW44961   7.679   7.299   0.483
10977SOL    HW144962   7.713   7.376   0.537
10977SOL    HW244963   7.723   7.299   0.393
10978SOL     OW44964   8.575   6.927   1.690
10978SOL    HW144965   8.622   6.927   1.778
10978SOL    HW244966   8.527   6.840   1.679
10979SOL     OW44967   7.678   7.020   0.538
10979SOL    HW144968   7.652   7.116   0.538
10979SOL    HW244969   7.607   6.966   0.583
10980SOL     OW44970   7.688   6.677   0.886
10980SOL    HW144971   7.702   6.593   0.938
10980SOL    HW244972   7.633   6.741   0.941
10981SOL     OW44973   8.068   7.372   1.439
10981SOL    HW144974   7.976   7.355   1.474
10981SOL    HW244975   8.096   7.464   1.465
10982SOL     OW44976   8.054   6.550   0.123
10982SOL    HW144977   8.061   6.634   0.069
10982SOL    HW244978   8.100   6.563   0.211
10983SOL     OW44979   7.570   6.229   0.563
10983SOL    HW144980   7.525   6.141   0.580
10983SOL    HW244981   7.569   6.283   0.647
10984SOL     OW44982   9.290   7.353   0.359
10984SOL    HW144983   9.344   7.324   0.439
10984SOL    HW244984   9.320   7.443   0.330
10985SOL     OW44985   7.475   7.182   0.117
10985SOL    HW144986   7.456   7.086   0.138
10985SOL    HW244987   7.442   7.240   0.192
10986SOL     OW44988   9.137   6.508   0.612
10986SOL    HW144989   9.232   6.479   0.620
10986SOL    HW244990   9.129   6.573   0.537
10987SOL     OW44991   9.089   6.694   0.432
10987SOL    HW144992   9.175   6.696   0.380
10987SOL    HW244993   9.103   6.741   0.520
10988SOL     OW44994   8.061   6.951   0.726
10988SOL    HW144995   8.012   6.864   0.735
10988SOL    HW244996   8.038   6.994   0.639
10989SOL     OW44997   8.257   5.590   0.502
10989SOL    HW144998   8.297   5.681   0.493
10989SOL    HW244999   8.157   5.598   0.508
10990SOL     OW45000   7.645   6.562   1.264
10990SOL    HW145001   7.734   6.517   1.250
10990SOL    HW245002   7.572   6.497   1.245
10991SOL     OW45003   8.973   6.585   0.190
10991SOL    HW145004   8.910   6.509   0.203
10991SOL    HW245005   9.021   6.603   0.276
10992SOL     OW45006   8.635   7.378   1.616
10992SOL    HW145007   8.659   7.438   1.540
10992SOL    HW245008   8.642   7.283   1.586
10993SOL     OW45009   8.914   7.003   0.953
10993SOL    HW145010   8.855   7.009   1.033
10993SOL    HW245011   8.899   6.915   0.907
10994SOL     OW45012   9.115   7.300   0.572
10994SOL    HW145013   9.074   7.277   0.484
10994SOL    HW245014   9.097   7.226   0.637
10995SOL     OW45015   8.046   6.315   0.270
10995SOL    HW145016   8.070   6.384   0.202
10995SOL    HW245017   7.968   6.348   0.324
10996SOL     OW45018   8.729   5.931   0.944
10996SOL    HW145019   8.643   5.881   0.931
10996SOL    HW245020   8.791   5.877   1.000
10997SOL     OW45021   9.024   7.248   0.307
10997SOL    HW145022   9.113   7.294   0.310
10997SOL    HW245023   9.003   7.224   0.212
10998SOL     OW45024   8.255   6.191   1.465
10998SOL    HW145025   8.208   6.188   1.554
10998SOL    HW245026   8.204   6.136   1.399
10999SOL     OW45027   8.421   6.476   1.572
10999SOL    HW145028   8.467   6.392   1.543
10999SOL    HW245029   8.365   6.510   1.497
11000SOL     OW45030   8.439   5.996   1.242
11000SOL    HW145031   8.362   6.030   1.296
11000SOL    HW245032   8.405   5.945   1.163
11001SOL     OW45033   8.489   6.287   0.429
11001SOL    HW145034   8.515   6.283   0.525
11001SOL    HW245035   8.404   6.236   0.415
11002SOL     OW45036   7.524   6.397   0.789
11002SOL    HW145037   7.623   6.385   0.798
11002SOL    HW245038   7.500   6.492   0.810
11003SOL     OW45039   7.578   7.407   1.571
11003SOL    HW145040   7.568   7.392   1.670
11003SOL    HW245041   7.492   7.443   1.535
11004SOL     OW45042   8.313   5.934   0.195
11004SOL    HW145043   8.372   5.997   0.146
11004SOL    HW245044   8.332   5.840   0.166
11005SOL     OW45045   8.810   6.730   0.545
11005SOL    HW145046   8.893   6.701   0.497
11005SOL    HW245047   8.761   6.797   0.489
11006SOL     OW45048   7.998   5.782   0.885
11006SOL    HW145049   7.993   5.777   0.985
11006SOL    HW245050   8.000   5.878   0.856
11007SOL     OW45051   8.456   7.042   0.477
11007SOL    HW145052   8.410   7.114   0.425
11007SOL    HW245053   8.452   7.062   0.575
11008SOL     OW45054   7.799   7.387   0.853
11008SOL    HW145055   7.849   7.301   0.859
11008SOL    HW245056   7.864   7.464   0.850
11009SOL     OW45057   9.243   6.652   0.873
11009SOL    HW145058   9.181   6.637   0.797
11009SOL    HW245059   9.191   6.663   0.958
11010SOL     OW45060   7.769   6.529   0.242
11010SOL    HW145061   7.851   6.568   0.200
11010SOL    HW245062   7.742   6.447   0.193
11011SOL     OW45063   8.906   6.321   0.728
11011SOL    HW145064   8.901   6.256   0.803
11011SOL    HW245065   8.986   6.380   0.741
11012SOL     OW45066   8.559   7.362   0.237
11012SOL    HW145067   8.499   7.300   0.287
11012SOL    HW245068   8.590   7.318   0.152
11013SOL     OW45069   7.650   5.871   1.498
11013SOL    HW145070   7.570   5.931   1.485
11013SOL    HW245071   7.640   5.822   1.584
11014SOL     OW45072   9.080   6.963   0.081
11014SOL    HW145073   9.048   7.057   0.071
11014SOL    HW245074   9.004   6.900   0.069
11015SOL     OW45075   7.912   7.329   0.323
11015SOL    HW145076   7.945   7.368   0.409
11015SOL    HW245077   7.988   7.322   0.258
11016SOL     OW45078   8.848   5.693   0.426
11016SOL    HW145079   8.824   5.656   0.336
11016SOL    HW245080   8.947   5.709   0.430
11017SOL     OW45081   7.697   7.371   1.241
11017SOL    HW145082   7.754   7.306   1.291
11017SOL    HW245083   7.681   7.338   1.148
11018SOL     OW45084   8.388   7.284   0.904
11018SOL    HW145085   8.468   7.227   0.925
11018SOL    HW245086   8.339   7.244   0.827
11019SOL     OW45087   7.830   6.286   0.480
11019SOL    HW145088   7.875   6.196   0.477
11019SOL    HW245089   7.736   6.275   0.513
11020SOL     OW45090   8.995   5.808   1.729
11020SOL    HW145091   8.990   5.845   1.821
11020SOL    HW245092   8.923   5.739   1.717
11021SOL     OW45093   8.062   5.708   0.117
11021SOL    HW145094   8.160   5.686   0.124
11021SOL    HW245095   8.031   5.691   0.024
11022SOL     OW45096   8.336   7.100   1.195
11022SOL    HW145097   8.313   7.075   1.101
11022SOL    HW245098   8.397   7.031   1.234
11023SOL     OW45099   8.251   6.988   0.924
11023SOL    HW145100   8.341   7.002   0.882
11023SOL    HW245101   8.180   6.990   0.853
11024SOL     OW45102   8.370   6.089   0.899
11024SOL    HW145103   8.345   6.080   0.803
11024SOL    HW245104   8.418   6.007   0.930
11025SOL     OW45105   7.987   5.650   0.512
11025SOL    HW145106   7.906   5.651   0.570
11025SOL    HW245107   7.990   5.733   0.457
11026SOL     OW45108   8.882   6.774   0.041
11026SOL    HW145109   8.914   6.698   0.098
11026SOL    HW245110   8.790   6.801   0.071
11027SOL     OW45111   7.745   5.621   0.171
11027SOL    HW145112   7.794   5.705   0.150
11027SOL    HW245113   7.807   5.556   0.216
11028SOL     OW45114   8.383   5.822   0.480
11028SOL    HW145115   8.335   5.863   0.402
11028SOL    HW245116   8.482   5.820   0.461
11029SOL     OW45117   8.675   7.156   0.793
11029SOL    HW145118   8.696   7.230   0.728
11029SOL    HW245119   8.743   7.156   0.866
11030SOL     OW45120   7.907   6.738   0.741
11030SOL    HW145121   7.836   6.711   0.806
11030SOL    HW245122   7.881   6.710   0.648
11031SOL     OW45123   8.719   7.383   0.591
11031SOL    HW145124   8.763   7.447   0.527
11031SOL    HW245125   8.669   7.435   0.661
11032SOL     OW45126   8.480   6.135   0.016
11032SOL    HW145127   8.439   6.217  -0.023
11032SOL    HW245128   8.544   6.161   0.089
11033SOL     OW45129   7.526   6.142   1.386
11033SOL    HW145130   7.618   6.141   1.345
11033SOL    HW245131   7.520   6.216   1.453
11034SOL     OW45132   8.314   6.040   0.642
11034SOL    HW145133   8.282   6.112   0.580
11034SOL    HW245134   8.338   5.959   0.589
11035SOL     OW45135   8.465   5.625   0.753
11035SOL    HW145136   8.393   5.630   0.684
11035SOL    HW245137   8.441   5.556   0.822
11036SOL     OW45138   8.877   6.759   0.867
11036SOL    HW145139   8.822   6.675   0.860
11036SOL    HW245140   8.903   6.788   0.775
11037SOL     OW45141   9.305   6.419   0.377
11037SOL    HW145142   9.347   6.355   0.441
11037SOL    HW245143   9.267   6.368   0.299
11038SOL     OW45144   7.936   6.971   0.174
11038SOL    HW145145   7.849   6.956   0.221
11038SOL    HW245146   7.919   6.997   0.079
11039SOL     OW45147   9.112   6.866   0.657
11039SOL    HW145148   9.211   6.874   0.671
11039SOL    HW245149   9.067   6.950   0.688
11040SOL     OW45150   8.838   6.161   0.078
11040SOL    HW145151   8.784   6.140   0.159
11040SOL    HW245152   8.929   6.120   0.087
11041SOL     OW45153   7.975   5.842   0.328
11041SOL    HW145154   8.002   5.783   0.253
11041SOL    HW245155   7.975   5.937   0.297
11042SOL     OW45156   9.202   6.809   1.588
11042SOL    HW145157   9.293   6.770   1.575
11042SOL    HW245158   9.210   6.905   1.612
11043SOL     OW45159   9.040   7.215   1.625
11043SOL    HW145160   9.067   7.249   1.535
11043SOL    HW245161   9.119   7.177   1.671
11044SOL     OW45162   8.559   6.781   1.100
11044SOL    HW145163   8.519   6.825   1.181
11044SOL    HW245164   8.518   6.818   1.017
11045SOL     OW45165   9.086   6.685   1.079
11045SOL    HW145166   9.091   6.766   1.138
11045SOL    HW245167   9.000   6.687   1.028
11046SOL     OW45168   8.428   6.702   1.719
11046SOL    HW145169   8.329   6.708   1.729
11046SOL    HW245170   8.451   6.622   1.663
11047SOL     OW45171   8.153   6.636   0.368
11047SOL    HW145172   8.139   6.643   0.467
11047SOL    HW245173   8.237   6.585   0.350
11048SOL     OW45174   7.858   6.399   1.251
11048SOL    HW145175   7.944   6.411   1.301
11048SOL    HW245176   7.816   6.312   1.278
11049SOL     OW45177   8.722   5.972   1.262
11049SOL    HW145178   8.743   6.046   1.326
11049SOL    HW245179   8.633   5.989   1.219
11050SOL     OW45180   7.512   7.150   1.331
11050SOL    HW145181   7.466   7.232   1.297
11050SOL    HW245182   7.610   7.169   1.340
11051SOL     OW45183   7.815   6.686   0.501
11051SOL    HW145184   7.808   6.769   0.445
11051SOL    HW245185   7.819   6.606   0.441
11052SOL     OW45186   8.014   6.123   0.865
11052SOL    HW145187   8.026   6.189   0.791
11052SOL    HW245188   8.060   6.157   0.948
11053SOL     OW45189   8.700   6.934   0.388
11053SOL    HW145190   8.750   7.011   0.428
11053SOL    HW245191   8.605   6.936   0.420
11054SOL     OW45192   8.720   7.031   1.142
11054SOL    HW145193   8.767   7.044   1.229
11054SOL    HW245194   8.654   6.957   1.151
11055SOL     OW45195   9.030   6.225   0.472
11055SOL    HW145196   8.999   6.286   0.545
11055SOL    HW245197   9.080   6.277   0.403
11056SOL     OW45198   7.802   7.096   1.329
11056SOL    HW145199   7.781   7.052   1.242
11056SOL    HW245200   7.899   7.122   1.332
11057SOL     OW45201   8.021   6.456   1.029
11057SOL    HW145202   8.065   6.545   1.020
11057SOL    HW245203   7.958   6.456   1.106
11058SOL     OW45204   8.657   6.111   0.275
11058SOL    HW145205   8.670   6.027   0.329
11058SOL    HW245206   8.628   6.185   0.335
11059SOL     OW45207   7.485   6.896   1.282
11059SOL    HW145208   7.538   6.847   1.350
11059SOL    HW245209   7.507   6.994   1.287
11060SOL     OW45210   8.180   6.220   1.064
11060SOL    HW145211   8.239   6.194   0.988
11060SOL    HW245212   8.152   6.316   1.053
11061SOL     OW45213   9.176   6.521   1.854
11061SOL    HW145214   9.130   6.514   1.765
11061SOL    HW245215   9.114   6.565   1.920
11062SOL     OW45216   7.755   5.649   0.618
11062SOL    HW145217   7.744   5.743   0.651
11062SOL    HW245218   7.750   5.586   0.695
11063SOL     OW45219   9.070   5.953   0.374
11063SOL    HW145220   9.072   5.877   0.438
11063SOL    HW245221   9.022   6.030   0.414
11064SOL     OW45222   8.471   6.352   0.966
11064SOL    HW145223   8.486   6.373   1.062
11064SOL    HW245224   8.441   6.257   0.957
11065SOL     OW45225   9.307   7.104   1.605
11065SOL    HW145226   9.321   7.131   1.510
11065SOL    HW245227   9.390   7.126   1.658
11066SOL     OW45228   8.988   5.860   0.125
11066SOL    HW145229   8.927   5.785   0.148
11066SOL    HW245230   9.010   5.912   0.208
11067SOL     OW45231   8.751   6.424   0.042
11067SOL    HW145232   8.785   6.331   0.057
11067SOL    HW245233   8.769   6.451  -0.053
11068SOL     OW45234   8.516   6.919   0.849
11068SOL    HW145235   8.523   6.835   0.794
11068SOL    HW245236   8.578   6.988   0.813
11069SOL     OW45237   7.767   6.396   0.949
11069SOL    HW145238   7.860   6.432   0.954
11069SOL    HW245239   7.761   6.311   1.001
11070SOL     OW45240   7.787   6.095   1.006
11070SOL    HW145241   7.735   6.012   0.989
11070SOL    HW245242   7.864   6.100   0.942
11071SOL     OW45243   7.456   6.912   0.200
11071SOL    HW145244   7.363   6.933   0.169
11071SOL    HW245245   7.466   6.813   0.213
11072SOL     OW45246   7.536   7.387   0.927
11072SOL    HW145247   7.494   7.301   0.900
11072SOL    HW245248   7.630   7.390   0.893
11073SOL     OW45249   7.952   7.154   0.910
11073SOL    HW145250   8.018   7.228   0.919
11073SOL    HW245251   7.996   7.075   0.868
11074SOL     OW45252   8.450   6.382   1.238
11074SOL    HW145253   8.491   6.350   1.324
11074SOL    HW245254   8.354   6.355   1.235
11075SOL     OW45255   7.488   6.130   1.114
11075SOL    HW145256   7.573   6.097   1.073
11075SOL    HW245257   7.501   6.145   1.212
11076SOL     OW45258   7.637   6.106   1.722
11076SOL    HW145259   7.696   6.066   1.652
11076SOL    HW245260   7.579   6.177   1.681
11077SOL     OW45261   8.263   6.158   0.325
11077SOL    HW145262   8.270   6.069   0.279
11077SOL    HW245263   8.169   6.192   0.317
11078SOL     OW45264   7.700   7.150   1.744
11078SOL    HW145265   7.670   7.207   1.820
11078SOL    HW245266   7.693   7.053   1.770
11079SOL     OW45267   8.119   6.050   1.269
11079SOL    HW145268   8.085   5.961   1.239
11079SOL    HW245269   8.145   6.104   1.189
11080SOL     OW45270   7.921   6.086   0.191
11080SOL    HW145271   7.982   6.166   0.195
11080SOL    HW245272   7.826   6.117   0.198
11081SOL     OW45273   7.607   6.723   1.466
11081SOL    HW145274   7.629   6.662   1.542
11081SOL    HW245275   7.617   6.674   1.380
11082SOL     OW45276   8.795   6.645   1.234
11082SOL    HW145277   8.819   6.582   1.160
11082SOL    HW245278   8.705   6.685   1.216
11083SOL     OW45279   8.750   6.441   0.309
11083SOL    HW145280   8.664   6.410   0.351
11083SOL    HW245281   8.746   6.427   0.210
11084SOL     OW45282   9.207   7.333   1.154
11084SOL    HW145283   9.268   7.363   1.081
11084SOL    HW245284   9.169   7.244   1.132
11085SOL     OW45285   8.700   7.317   1.128
11085SOL    HW145286   8.784   7.322   1.074
11085SOL    HW245287   8.677   7.221   1.146
11086SOL     OW45288   7.531   6.844   1.022
11086SOL    HW145289   7.526   6.843   1.122
11086SOL    HW245290   7.448   6.803   0.984
11087SOL     OW45291   8.351   5.672   0.133
11087SOL    HW145292   8.402   5.673   0.047
11087SOL    HW245293   8.407   5.630   0.204
11088SOL     OW45294   9.174   5.721   0.523
11088SOL    HW145295   9.247   5.704   0.456
11088SOL    HW245296   9.143   5.634   0.561
11089SOL     OW45297   8.836   7.159   0.477
11089SOL    HW145298   8.903   7.171   0.403
11089SOL    HW245299   8.796   7.248   0.500
11090SOL     OW45300   7.578   7.380   1.851
11090SOL    HW145301   7.537   7.306   1.904
11090SOL    HW245302   7.642   7.431   1.909
11091SOL     OW45303   8.728   6.513   0.672
11091SOL    HW145304   8.788   6.432   0.674
11091SOL    HW245305   8.768   6.582   0.612
11092SOL     OW45306   8.278   6.859   1.422
11092SOL    HW145307   8.273   6.892   1.517
11092SOL    HW245308   8.192   6.878   1.376
11093SOL     OW45309   8.120   7.202   0.154
11093SOL    HW145310   8.129   7.212   0.055
11093SOL    HW245311   8.080   7.113   0.175
11094SOL     OW45312   9.098   7.306   1.394
11094SOL    HW145313   9.151   7.316   1.310
11094SOL    HW245314   9.071   7.396   1.428
11095SOL     OW45315   9.289   5.761   0.963
11095SOL    HW145316   9.328   5.676   0.927
11095SOL    HW245317   9.191   5.763   0.944
11096SOL     OW45318   7.711   5.912   0.720
11096SOL    HW145319   7.632   5.963   0.686
11096SOL    HW245320   7.702   5.897   0.818
11097SOL     OW45321   8.642   7.198   0.031
11097SOL    HW145322   8.648   7.105   0.068
11097SOL    HW245323   8.583   7.198  -0.049
11098SOL     OW45324   8.270   6.588   1.372
11098SOL    HW145325   8.310   6.587   1.280
11098SOL    HW245326   8.280   6.680   1.412
11099SOL     OW45327   8.364   6.496   0.291
11099SOL    HW145328   8.427   6.534   0.223
11099SOL    HW245329   8.404   6.413   0.330
11100SOL     OW45330   8.952   7.193   0.044
11100SOL    HW145331   8.860   7.230   0.051
11100SOL    HW245332   8.990   7.213  -0.046
11101SOL     OW45333   9.062   6.878   1.289
11101SOL    HW145334   9.122   6.881   1.369
11101SOL    HW245335   8.987   6.942   1.302
11102SOL     OW45336   8.487   6.684   0.696
11102SOL    HW145337   8.417   6.637   0.750
11102SOL    HW245338   8.546   6.616   0.653
11103SOL     OW45339   8.462   5.822   0.971
11103SOL    HW145340   8.454   5.786   0.878
11103SOL    HW245341   8.460   5.746   1.036
11104SOL     OW45342   8.038   7.073   0.491
11104SOL    HW145343   8.080   7.015   0.421
11104SOL    HW245344   7.994   7.152   0.447
11105SOL     OW45345   7.703   6.934   0.290
11105SOL    HW145346   7.607   6.935   0.263
11105SOL    HW245347   7.715   6.987   0.374
11106SOL     OW45348   7.523   5.931   0.033
11106SOL    HW145349   7.431   5.903   0.004
11106SOL    HW245350   7.554   6.008  -0.023
11107SOL     OW45351   8.888   6.442   1.398
11107SOL    HW145352   8.831   6.494   1.335
11107SOL    HW245353   8.984   6.454   1.374
11108SOL     OW45354   7.520   5.752   0.318
11108SOL    HW145355   7.503   5.835   0.264
11108SOL    HW245356   7.610   5.715   0.296
11109SOL     OW45357   8.631   6.921   0.119
11109SOL    HW145358   8.532   6.910   0.121
11109SOL    HW245359   8.665   6.936   0.212
11110SOL     OW45360   8.061   6.428   1.431
11110SOL    HW145361   8.117   6.509   1.414
11110SOL    HW245362   8.120   6.348   1.434
11111SOL     OW45363   8.941   7.353   0.959
11111SOL    HW145364   8.974   7.417   0.890
11111SOL    HW245365   9.007   7.347   1.034
11112SOL     OW45366   7.838   7.327   1.560
11112SOL    HW145367   7.747   7.368   1.558
11112SOL    HW245368   7.831   7.233   1.592
11113SOL     OW45369   8.673   5.911   0.449
11113SOL    HW145370   8.738   5.837   0.438
11113SOL    HW245371   8.693   5.961   0.533
11114SOL     OW45372   8.042   6.331   0.652
11114SOL    HW145373   8.092   6.416   0.633
11114SOL    HW245374   7.954   6.333   0.604
11115SOL     OW45375   8.307   6.960   0.016
11115SOL    HW145376   8.261   6.975   0.104
11115SOL    HW245377   8.351   7.045  -0.014
11116SOL     OW45378   8.109   7.376   0.953
11116SOL    HW145379   8.063   7.464   0.940
11116SOL    HW245380   8.208   7.388   0.946
11117SOL     OW45381   8.307   6.542   0.861
11117SOL    HW145382   8.361   6.473   0.909
11117SOL    HW245383   8.275   6.611   0.927
11118SOL     OW45384   8.531   6.570   0.087
11118SOL    HW145385   8.508   6.623   0.005
11118SOL    HW245386   8.612   6.514   0.068
11119SOL     OW45387   9.309   7.155   0.851
11119SOL    HW145388   9.238   7.143   0.781
11119SOL    HW245389   9.310   7.076   0.911
11120SOL     OW45390   7.527   6.826   0.653
11120SOL    HW145391   7.526   6.779   0.741
11120SOL    HW245392   7.609   6.798   0.602
11121SOL     OW45393   8.120   6.977   1.624
11121SOL    HW145394   8.042   6.927   1.662
11121SOL    HW245395   8.117   7.072   1.655
11122SOL     OW45396   9.272   5.778   1.227
11122SOL    HW145397   9.268   5.688   1.271
11122SOL    HW245398   9.275   5.767   1.128
11123SOL     OW45399   7.876   6.010   0.520
11123SOL    HW145400   7.906   5.938   0.458
11123SOL    HW245401   7.837   5.970   0.603
11124SOL     OW45402   9.153   7.073   1.104
11124SOL    HW145403   9.060   7.048   1.077
11124SOL    HW245404   9.179   7.023   1.186
11125SOL     OW45405   7.765   6.133   1.280
11125SOL    HW145406   7.803   6.074   1.352
11125SOL    HW245407   7.805   6.107   1.192
11126SOL     OW45408   8.260   7.172   0.687
11126SOL    HW145409   8.292   7.182   0.593
11126SOL    HW245410   8.181   7.110   0.689
11127SOL     OW45411   8.872   5.800   1.112
11127SOL    HW145412   8.924   5.735   1.167
11127SOL    HW245413   8.823   5.863   1.173
11128SOL     OW45414   8.218   6.916   0.301
11128SOL    HW145415   8.172   6.829   0.318
11128SOL    HW245416   8.309   6.913   0.342
11129SOL     OW45417   8.066   7.153   1.284
11129SOL    HW145418   8.061   7.235   1.341
11129SOL    HW245419   8.155   7.150   1.239
11130SOL     OW45420   8.800   5.638   0.168
11130SOL    HW145421   8.835   5.597   0.084
11130SOL    HW245422   8.710   5.600   0.188
11131SOL     OW45423   8.748   6.039   0.691
11131SOL    HW145424   8.689   6.119   0.695
11131SOL    HW245425   8.763   6.004   0.784
11132SOL     OW45426   9.041   5.807   0.882
11132SOL    HW145427   8.957   5.806   0.936
11132SOL    HW245428   9.043   5.890   0.826
11133SOL     OW45429   7.487   6.663   0.300
11133SOL    HW145430   7.586   6.652   0.291
11133SOL    HW245431   7.447   6.577   0.332
11134SOL     OW45432   8.323   7.232   0.337
11134SOL    HW145433   8.246   7.197   0.283
11134SOL    HW245434   8.291   7.303   0.399
11135SOL     OW45435   8.583   6.289   2.579
11135SOL    HW145436   8.640   6.367   2.554
11135SOL    HW245437   8.523   6.315   2.655
11136SOL     OW45438   8.216   6.730   2.885
11136SOL    HW145439   8.138   6.747   2.945
11136SOL    HW245440   8.250   6.817   2.849
11137SOL     OW45441   8.298   6.384   3.685
11137SOL    HW145442   8.294   6.460   3.750
11137SOL    HW245443   8.320   6.420   3.594
11138SOL     OW45444   7.886   5.978   3.361
11138SOL    HW145445   7.968   5.922   3.370
11138SOL    HW245446   7.805   5.920   3.365
11139SOL     OW45447   7.688   6.677   2.748
11139SOL    HW145448   7.702   6.593   2.800
11139SOL    HW245449   7.633   6.741   2.803
11140SOL     OW45450   8.635   7.378   3.478
11140SOL    HW145451   8.659   7.438   3.402
11140SOL    HW245452   8.642   7.283   3.448
11141SOL     OW45453   9.024   7.248   2.169
11141SOL    HW145454   9.113   7.294   2.172
11141SOL    HW245455   9.003   7.224   2.074
11142SOL     OW45456   8.842   6.055   3.536
11142SOL    HW145457   8.822   6.098   3.624
11142SOL    HW245458   8.920   5.993   3.545
11143SOL     OW45459   8.421   6.476   3.434
11143SOL    HW145460   8.467   6.392   3.405
11143SOL    HW245461   8.365   6.510   3.359
11144SOL     OW45462   8.489   6.287   2.291
11144SOL    HW145463   8.515   6.283   2.387
11144SOL    HW245464   8.404   6.236   2.277
11145SOL     OW45465   8.313   5.934   2.057
11145SOL    HW145466   8.372   5.997   2.008
11145SOL    HW245467   8.332   5.840   2.028
11146SOL     OW45468   7.998   5.782   2.747
11146SOL    HW145469   7.993   5.777   2.847
11146SOL    HW245470   8.000   5.878   2.718
11147SOL     OW45471   8.456   7.042   2.339
11147SOL    HW145472   8.410   7.114   2.287
11147SOL    HW245473   8.452   7.062   2.437
11148SOL     OW45474   8.675   7.136   3.368
11148SOL    HW145475   8.681   7.059   3.432
11148SOL    HW245476   8.623   7.110   3.288
11149SOL     OW45477   8.906   6.321   2.590
11149SOL    HW145478   8.901   6.256   2.665
11149SOL    HW245479   8.986   6.380   2.603
11150SOL     OW45480   7.650   5.871   3.360
11150SOL    HW145481   7.570   5.931   3.347
11150SOL    HW245482   7.640   5.822   3.446
11151SOL     OW45483   9.080   6.963   1.943
11151SOL    HW145484   9.048   7.057   1.933
11151SOL    HW245485   9.004   6.900   1.931
11152SOL     OW45486   8.848   5.693   2.288
11152SOL    HW145487   8.824   5.656   2.198
11152SOL    HW245488   8.947   5.709   2.292
11153SOL     OW45489   8.388   7.284   2.766
11153SOL    HW145490   8.468   7.227   2.787
11153SOL    HW245491   8.339   7.244   2.689
11154SOL     OW45492   8.995   5.808   3.591
11154SOL    HW145493   8.990   5.845   3.683
11154SOL    HW245494   8.923   5.739   3.579
11155SOL     OW45495   8.229   5.850   3.611
11155SOL    HW145496   8.296   5.789   3.654
11155SOL    HW245497   8.156   5.869   3.676
11156SOL     OW45498   8.799   6.176   3.295
11156SOL    HW145499   8.827   6.133   3.380
11156SOL    HW245500   8.824   6.272   3.296
11157SOL     OW45501   7.526   6.142   3.248
11157SOL    HW145502   7.618   6.141   3.207
11157SOL    HW245503   7.520   6.216   3.315
11158SOL     OW45504   8.009   5.808   3.009
11158SOL    HW145505   8.047   5.724   3.046
11158SOL    HW245506   7.921   5.827   3.053
11159SOL     OW45507   8.465   5.625   2.615
11159SOL    HW145508   8.393   5.630   2.546
11159SOL    HW245509   8.441   5.556   2.684
11160SOL     OW45510   8.559   6.781   2.962
11160SOL    HW145511   8.519   6.825   3.043
11160SOL    HW245512   8.518   6.818   2.879
11161SOL     OW45513   8.363   5.675   3.264
11161SOL    HW145514   8.388   5.655   3.169
11161SOL    HW245515   8.435   5.731   3.306
11162SOL     OW45516   7.815   6.686   2.363
11162SOL    HW145517   7.808   6.769   2.307
11162SOL    HW245518   7.819   6.606   2.303
11163SOL     OW45519   8.014   6.123   2.727
11163SOL    HW145520   8.026   6.189   2.653
11163SOL    HW245521   8.060   6.157   2.810
11164SOL     OW45522   8.021   6.456   2.891
11164SOL    HW145523   8.065   6.545   2.882
11164SOL    HW245524   7.958   6.456   2.968
11165SOL     OW45525   7.485   6.896   3.144
11165SOL    HW145526   7.538   6.847   3.212
11165SOL    HW245527   7.507   6.994   3.149
11166SOL     OW45528   9.307   7.104   3.467
11166SOL    HW145529   9.321   7.131   3.372
11166SOL    HW245530   9.390   7.126   3.520
11167SOL     OW45531   8.988   5.860   1.987
11167SOL    HW145532   8.927   5.785   2.010
11167SOL    HW245533   9.010   5.912   2.070
11168SOL     OW45534   8.751   6.424   1.904
11168SOL    HW145535   8.785   6.331   1.919
11168SOL    HW245536   8.769   6.451   1.809
11169SOL     OW45537   8.608   5.793   3.339
11169SOL    HW145538   8.608   5.857   3.416
11169SOL    HW245539   8.636   5.841   3.256
11170SOL     OW45540   7.536   7.387   2.789
11170SOL    HW145541   7.494   7.301   2.762
11170SOL    HW245542   7.630   7.390   2.755
11171SOL     OW45543   8.450   6.382   3.100
11171SOL    HW145544   8.491   6.350   3.186
11171SOL    HW245545   8.354   6.355   3.097
11172SOL     OW45546   7.637   6.106   3.584
11172SOL    HW145547   7.696   6.066   3.514
11172SOL    HW245548   7.579   6.177   3.543
11173SOL     OW45549   8.263   6.158   2.187
11173SOL    HW145550   8.270   6.069   2.141
11173SOL    HW245551   8.169   6.192   2.179
11174SOL     OW45552   9.105   6.190   3.068
11174SOL    HW145553   9.067   6.121   3.130
11174SOL    HW245554   9.187   6.154   3.024
11175SOL     OW45555   7.700   7.150   3.606
11175SOL    HW145556   7.670   7.207   3.682
11175SOL    HW245557   7.693   7.053   3.632
11176SOL     OW45558   8.119   6.050   3.131
11176SOL    HW145559   8.085   5.961   3.101
11176SOL    HW245560   8.145   6.104   3.051
11177SOL     OW45561   7.531   6.844   2.884
11177SOL    HW145562   7.526   6.843   2.984
11177SOL    HW245563   7.448   6.803   2.846
11178SOL     OW45564   7.578   7.380   3.713
11178SOL    HW145565   7.537   7.306   3.766
11178SOL    HW245566   7.642   7.431   3.771
11179SOL     OW45567   7.711   5.912   2.582
11179SOL    HW145568   7.632   5.963   2.548
11179SOL    HW245569   7.702   5.897   2.680
11180SOL     OW45570   8.642   7.198   1.893
11180SOL    HW145571   8.648   7.105   1.930
11180SOL    HW245572   8.583   7.198   1.813
11181SOL     OW45573   8.952   7.193   1.906
11181SOL    HW145574   8.860   7.230   1.913
11181SOL    HW245575   8.990   7.213   1.816
11182SOL     OW45576   7.553   6.599   3.588
11182SOL    HW145577   7.476   6.566   3.642
11182SOL    HW245578   7.638   6.569   3.630
11183SOL     OW45579   8.120   5.789   3.351
11183SOL    HW145580   8.210   5.773   3.311
11183SOL    HW245581   8.128   5.794   3.450
11184SOL     OW45582   8.631   6.921   1.981
11184SOL    HW145583   8.532   6.910   1.983
11184SOL    HW245584   8.665   6.936   2.074
11185SOL     OW45585   8.061   6.428   3.293
11185SOL    HW145586   8.117   6.509   3.276
11185SOL    HW245587   8.120   6.348   3.296
11186SOL     OW45588   8.941   7.353   2.821
11186SOL    HW145589   8.974   7.417   2.752
11186SOL    HW245590   9.007   7.347   2.896
11187SOL     OW45591   8.898   6.806   3.495
11187SOL    HW145592   8.889   6.796   3.594
11187SOL    HW245593   8.994   6.799   3.469
11188SOL     OW45594   8.307   6.960   1.878
11188SOL    HW145595   8.261   6.975   1.966
11188SOL    HW245596   8.351   7.045   1.848
11189SOL     OW45597   8.531   6.570   1.949
11189SOL    HW145598   8.508   6.623   1.867
11189SOL    HW245599   8.612   6.514   1.930
11190SOL     OW45600   9.309   7.155   2.713
11190SOL    HW145601   9.238   7.143   2.643
11190SOL    HW245602   9.310   7.076   2.773
11191SOL     OW45603   7.669   6.900   3.706
11191SOL    HW145604   7.604   6.827   3.685
11191SOL    HW245605   7.673   6.914   3.804
11192SOL     OW45606   9.272   5.778   3.089
11192SOL    HW145607   9.268   5.688   3.133
11192SOL    HW245608   9.275   5.767   2.990
11193SOL     OW45609   8.260   7.172   2.549
11193SOL    HW145610   8.292   7.182   2.455
11193SOL    HW245611   8.181   7.110   2.551
11194SOL     OW45612   8.872   5.800   2.974
11194SOL    HW145613   8.924   5.735   3.029
11194SOL    HW245614   8.823   5.863   3.035
11195SOL     OW45615   7.487   6.663   2.162
11195SOL    HW145616   7.586   6.652   2.153
11195SOL    HW245617   7.447   6.577   2.194
11196SOL     OW45618   7.678   6.214   3.837
11196SOL    HW145619   7.585   6.212   3.874
11196SOL    HW245620   7.679   6.175   3.745
11197SOL     OW45621   8.216   6.730   4.747
11197SOL    HW145622   8.138   6.747   4.807
11197SOL    HW245623   8.250   6.817   4.711
11198SOL     OW45624   8.133   6.598   4.389
11198SOL    HW145625   8.202   6.582   4.459
11198SOL    HW245626   8.060   6.655   4.427
11199SOL     OW45627   8.134   6.747   5.527
11199SOL    HW145628   8.194   6.826   5.541
11199SOL    HW245629   8.048   6.778   5.486
11200SOL     OW45630   7.783   7.021   4.785
11200SOL    HW145631   7.705   6.990   4.732
11200SOL    HW245632   7.841   7.079   4.728
11201SOL     OW45633   8.908   7.091   5.063
11201SOL    HW145634   8.932   7.185   5.089
11201SOL    HW245635   8.892   7.037   5.145
11202SOL     OW45636   8.575   6.927   5.414
11202SOL    HW145637   8.622   6.927   5.502
11202SOL    HW245638   8.527   6.840   5.403
11203SOL     OW45639   7.688   6.677   4.610
11203SOL    HW145640   7.702   6.593   4.662
11203SOL    HW245641   7.633   6.741   4.665
11204SOL     OW45642   7.475   7.182   3.841
11204SOL    HW145643   7.456   7.086   3.862
11204SOL    HW245644   7.442   7.240   3.916
11205SOL     OW45645   7.561   6.323   5.321
11205SOL    HW145646   7.649   6.310   5.366
11205SOL    HW245647   7.548   6.420   5.299
11206SOL     OW45648   7.645   6.562   4.988
11206SOL    HW145649   7.734   6.517   4.974
11206SOL    HW245650   7.572   6.497   4.969
11207SOL     OW45651   8.635   7.378   5.340
11207SOL    HW145652   8.659   7.438   5.264
11207SOL    HW245653   8.642   7.283   5.310
11208SOL     OW45654   7.765   5.837   5.525
11208SOL    HW145655   7.836   5.908   5.531
11208SOL    HW245656   7.677   5.876   5.553
11209SOL     OW45657   8.729   5.931   4.668
11209SOL    HW145658   8.643   5.881   4.655
11209SOL    HW245659   8.791   5.877   4.724
11210SOL     OW45660   8.255   6.191   5.189
11210SOL    HW145661   8.208   6.188   5.278
11210SOL    HW245662   8.204   6.136   5.123
11211SOL     OW45663   8.842   6.055   5.398
11211SOL    HW145664   8.822   6.098   5.486
11211SOL    HW245665   8.920   5.993   5.407
11212SOL     OW45666   8.421   6.476   5.296
11212SOL    HW145667   8.467   6.392   5.267
11212SOL    HW245668   8.365   6.510   5.221
11213SOL     OW45669   8.489   6.287   4.153
11213SOL    HW145670   8.515   6.283   4.249
11213SOL    HW245671   8.404   6.236   4.139
11214SOL     OW45672   7.578   7.407   5.295
11214SOL    HW145673   7.568   7.392   5.394
11214SOL    HW245674   7.492   7.443   5.259
11215SOL     OW45675   8.313   5.934   3.919
11215SOL    HW145676   8.372   5.997   3.870
11215SOL    HW245677   8.332   5.840   3.890
11216SOL     OW45678   9.167   6.171   5.555
11216SOL    HW145679   9.141   6.260   5.519
11216SOL    HW245680   9.165   6.103   5.482
11217SOL     OW45681   9.243   6.652   4.597
11217SOL    HW145682   9.181   6.637   4.521
11217SOL    HW245683   9.191   6.663   4.682
11218SOL     OW45684   8.675   7.136   5.230
11218SOL    HW145685   8.681   7.059   5.294
11218SOL    HW245686   8.623   7.110   5.150
11219SOL     OW45687   7.769   6.529   3.966
11219SOL    HW145688   7.851   6.568   3.924
11219SOL    HW245689   7.742   6.447   3.917
11220SOL     OW45690   8.906   6.321   4.452
11220SOL    HW145691   8.901   6.256   4.527
11220SOL    HW245692   8.986   6.380   4.465
11221SOL     OW45693   8.848   5.693   4.150
11221SOL    HW145694   8.824   5.656   4.060
11221SOL    HW245695   8.947   5.709   4.154
11222SOL     OW45696   7.697   7.371   4.965
11222SOL    HW145697   7.754   7.306   5.015
11222SOL    HW245698   7.681   7.338   4.872
11223SOL     OW45699   8.336   7.100   4.919
11223SOL    HW145700   8.313   7.075   4.825
11223SOL    HW245701   8.397   7.031   4.958
11224SOL     OW45702   8.799   6.176   5.157
11224SOL    HW145703   8.827   6.133   5.242
11224SOL    HW245704   8.824   6.272   5.158
11225SOL     OW45705   8.882   6.774   3.765
11225SOL    HW145706   8.914   6.698   3.822
11225SOL    HW245707   8.790   6.801   3.795
11226SOL     OW45708   7.745   5.621   3.895
11226SOL    HW145709   7.794   5.705   3.874
11226SOL    HW245710   7.807   5.556   3.940
11227SOL     OW45711   8.383   5.822   4.204
11227SOL    HW145712   8.335   5.863   4.126
11227SOL    HW245713   8.482   5.820   4.185
11228SOL     OW45714   8.524   6.269   5.188
11228SOL    HW145715   8.444   6.208   5.191
11228SOL    HW245716   8.605   6.216   5.164
11229SOL     OW45717   8.719   7.383   4.315
11229SOL    HW145718   8.763   7.447   4.251
11229SOL    HW245719   8.669   7.435   4.385
11230SOL     OW45720   8.465   5.625   4.477
11230SOL    HW145721   8.393   5.630   4.408
11230SOL    HW245722   8.441   5.556   4.546
11231SOL     OW45723   8.914   6.176   4.716
11231SOL    HW145724   8.884   6.081   4.723
11231SOL    HW245725   8.987   6.192   4.782
11232SOL     OW45726   8.838   6.161   3.802
11232SOL    HW145727   8.784   6.140   3.883
11232SOL    HW245728   8.929   6.120   3.811
11233SOL     OW45729   7.975   5.842   4.052
11233SOL    HW145730   8.002   5.783   3.977
11233SOL    HW245731   7.975   5.937   4.021
11234SOL     OW45732   8.512   6.933   5.064
11234SOL    HW145733   8.432   6.910   5.119
11234SOL    HW245734   8.595   6.907   5.113
11235SOL     OW45735   9.040   7.215   5.349
11235SOL    HW145736   9.067   7.249   5.259
11235SOL    HW245737   9.119   7.177   5.395
11236SOL     OW45738   8.559   6.781   4.824
11236SOL    HW145739   8.519   6.825   4.905
11236SOL    HW245740   8.518   6.818   4.741
11237SOL     OW45741   8.428   6.702   5.443
11237SOL    HW145742   8.329   6.708   5.453
11237SOL    HW245743   8.451   6.622   5.387
11238SOL     OW45744   8.720   7.031   4.866
11238SOL    HW145745   8.767   7.044   4.953
11238SOL    HW245746   8.654   6.957   4.875
11239SOL     OW45747   9.035   6.365   5.394
11239SOL    HW145748   8.943   6.403   5.389
11239SOL    HW245749   9.095   6.412   5.329
11240SOL     OW45750   7.952   5.636   5.464
11240SOL    HW145751   7.910   5.579   5.394
11240SOL    HW245752   7.886   5.705   5.496
11241SOL     OW45753   9.176   6.521   5.578
11241SOL    HW145754   9.130   6.514   5.489
11241SOL    HW245755   9.114   6.565   5.644
11242SOL     OW45756   8.428   7.159   5.424
11242SOL    HW145757   8.408   7.203   5.336
11242SOL    HW245758   8.467   7.068   5.408
11243SOL     OW45759   9.307   7.104   5.329
11243SOL    HW145760   9.321   7.131   5.234
11243SOL    HW245761   9.390   7.126   5.382
11244SOL     OW45762   8.751   6.424   3.766
11244SOL    HW145763   8.785   6.331   3.781
11244SOL    HW245764   8.769   6.451   3.671
11245SOL     OW45765   8.586   5.966   5.402
11245SOL    HW145766   8.541   6.029   5.466
11245SOL    HW245767   8.679   5.997   5.385
11246SOL     OW45768   7.637   6.106   5.446
11246SOL    HW145769   7.696   6.066   5.376
11246SOL    HW245770   7.579   6.177   5.405
11247SOL     OW45771   8.817   6.536   5.384
11247SOL    HW145772   8.856   6.625   5.404
11247SOL    HW245773   8.827   6.516   5.287
11248SOL     OW45774   8.795   6.645   4.958
11248SOL    HW145775   8.819   6.582   4.884
11248SOL    HW245776   8.705   6.685   4.940
11249SOL     OW45777   8.136   7.248   5.440
11249SOL    HW145778   8.080   7.329   5.449
11249SOL    HW245779   8.188   7.252   5.354
11250SOL     OW45780   8.836   7.159   4.201
11250SOL    HW145781   8.903   7.171   4.127
11250SOL    HW245782   8.796   7.248   4.224
11251SOL     OW45783   7.578   7.380   5.575
11251SOL    HW145784   7.537   7.306   5.628
11251SOL    HW245785   7.642   7.431   5.633
11252SOL     OW45786   8.278   6.859   5.146
11252SOL    HW145787   8.273   6.892   5.241
11252SOL    HW245788   8.192   6.878   5.100
11253SOL     OW45789   9.289   5.761   4.687
11253SOL    HW145790   9.328   5.676   4.651
11253SOL    HW245791   9.191   5.763   4.668
11254SOL     OW45792   8.270   6.588   5.096
11254SOL    HW145793   8.310   6.587   5.004
11254SOL    HW245794   8.280   6.680   5.136
11255SOL     OW45795   8.364   6.496   4.015
11255SOL    HW145796   8.427   6.534   3.947
11255SOL    HW245797   8.404   6.413   4.054
11256SOL     OW45798   8.487   6.684   4.420
11256SOL    HW145799   8.417   6.637   4.474
11256SOL    HW245800   8.546   6.616   4.377
11257SOL     OW45801   7.523   5.931   3.757
11257SOL    HW145802   7.431   5.903   3.728
11257SOL    HW245803   7.554   6.008   3.701
11258SOL     OW45804   7.520   5.752   4.042
11258SOL    HW145805   7.503   5.835   3.988
11258SOL    HW245806   7.610   5.715   4.020
11259SOL     OW45807   8.631   6.921   3.843
11259SOL    HW145808   8.532   6.910   3.845
11259SOL    HW245809   8.665   6.936   3.936
11260SOL     OW45810   9.225   5.928   5.366
11260SOL    HW145811   9.208   5.959   5.272
11260SOL    HW245812   9.141   5.891   5.404
11261SOL     OW45813   9.178   6.520   5.241
11261SOL    HW145814   9.216   6.611   5.256
11261SOL    HW245815   9.170   6.503   5.142
11262SOL     OW45816   8.307   6.960   3.740
11262SOL    HW145817   8.261   6.975   3.828
11262SOL    HW245818   8.351   7.045   3.710
11263SOL     OW45819   8.109   7.376   4.677
11263SOL    HW145820   8.063   7.464   4.664
11263SOL    HW245821   8.208   7.388   4.670
11264SOL     OW45822   8.120   6.977   5.348
11264SOL    HW145823   8.042   6.927   5.386
11264SOL    HW245824   8.117   7.072   5.379
11265SOL     OW45825   8.260   7.172   4.411
11265SOL    HW145826   8.292   7.182   4.317
11265SOL    HW245827   8.181   7.110   4.413
11266SOL     OW45828   8.872   5.800   4.836
11266SOL    HW145829   8.924   5.735   4.891
11266SOL    HW245830   8.823   5.863   4.897
11267SOL     OW45831   8.449   5.620   4.878
11267SOL    HW145832   8.386   5.548   4.847
11267SOL    HW245833   8.542   5.584   4.878
11268SOL     OW45834   8.218   6.916   4.025
11268SOL    HW145835   8.172   6.829   4.042
11268SOL    HW245836   8.309   6.913   4.066
11269SOL     OW45837   8.066   7.153   5.008
11269SOL    HW145838   8.061   7.235   5.065
11269SOL    HW245839   8.155   7.150   4.963
11270SOL     OW45840   8.800   5.638   3.892
11270SOL    HW145841   8.835   5.597   3.808
11270SOL    HW245842   8.710   5.600   3.912
11271SOL     OW45843   8.748   6.039   4.415
11271SOL    HW145844   8.689   6.119   4.419
11271SOL    HW245845   8.763   6.004   4.508
11272SOL     OW45846   7.678   6.214   5.699
11272SOL    HW145847   7.585   6.212   5.736
11272SOL    HW245848   7.679   6.175   5.607
11273SOL     OW45849   7.673   5.861   6.582
11273SOL    HW145850   7.708   5.844   6.674
11273SOL    HW245851   7.585   5.816   6.570
11274SOL     OW45852   7.467   5.954   6.233
11274SOL    HW145853   7.385   5.997   6.272
11274SOL    HW245854   7.439   5.881   6.170
11275SOL     OW45855   8.017   6.861   6.751
11275SOL    HW145856   7.924   6.854   6.714
11275SOL    HW245857   8.028   6.950   6.795
11276SOL     OW45858   9.003   7.097   6.289
11276SOL    HW145859   8.946   7.081   6.370
11276SOL    HW245860   8.944   7.107   6.209
11277SOL     OW45861   8.583   6.289   6.303
11277SOL    HW145862   8.640   6.367   6.278
11277SOL    HW245863   8.523   6.315   6.379
11278SOL     OW45864   9.203   6.193   5.817
11278SOL    HW145865   9.191   6.180   5.718
11278SOL    HW245866   9.173   6.112   5.866
11279SOL     OW45867   8.216   6.730   6.609
11279SOL    HW145868   8.138   6.747   6.669
11279SOL    HW245869   8.250   6.817   6.573
11280SOL     OW45870   8.298   6.384   7.409
11280SOL    HW145871   8.294   6.460   7.474
11280SOL    HW245872   8.320   6.420   7.318
11281SOL     OW45873   8.133   6.598   6.251
11281SOL    HW145874   8.202   6.582   6.321
11281SOL    HW245875   8.060   6.655   6.289
11282SOL     OW45876   8.134   6.747   7.389
11282SOL    HW145877   8.194   6.826   7.403
11282SOL    HW245878   8.048   6.778   7.348
11283SOL     OW45879   7.783   7.021   6.647
11283SOL    HW145880   7.705   6.990   6.594
11283SOL    HW245881   7.841   7.079   6.590
11284SOL     OW45882   8.908   7.091   6.925
11284SOL    HW145883   8.932   7.185   6.951
11284SOL    HW245884   8.892   7.037   7.007
11285SOL     OW45885   7.886   5.978   7.085
11285SOL    HW145886   7.968   5.922   7.094
11285SOL    HW245887   7.805   5.920   7.089
11286SOL     OW45888   9.051   6.033   6.323
11286SOL    HW145889   8.977   6.079   6.273
11286SOL    HW245890   9.102   6.101   6.376
11287SOL     OW45891   7.679   7.299   6.069
11287SOL    HW145892   7.713   7.376   6.123
11287SOL    HW245893   7.723   7.299   5.979
11288SOL     OW45894   8.575   6.927   7.276
11288SOL    HW145895   8.622   6.927   7.364
11288SOL    HW245896   8.527   6.840   7.265
11289SOL     OW45897   7.678   7.020   6.124
11289SOL    HW145898   7.652   7.116   6.124
11289SOL    HW245899   7.607   6.966   6.169
11290SOL     OW45900   7.688   6.677   6.472
11290SOL    HW145901   7.702   6.593   6.524
11290SOL    HW245902   7.633   6.741   6.527
11291SOL     OW45903   8.068   7.372   7.025
11291SOL    HW145904   7.976   7.355   7.060
11291SOL    HW245905   8.096   7.464   7.051
11292SOL     OW45906   8.054   6.550   5.709
11292SOL    HW145907   8.061   6.634   5.655
11292SOL    HW245908   8.100   6.563   5.797
11293SOL     OW45909   9.042   5.700   7.066
11293SOL    HW145910   9.024   5.767   6.994
11293SOL    HW245911   9.039   5.746   7.155
11294SOL     OW45912   7.570   6.229   6.149
11294SOL    HW145913   7.525   6.141   6.166
11294SOL    HW245914   7.569   6.283   6.233
11295SOL     OW45915   9.290   7.353   5.945
11295SOL    HW145916   9.344   7.324   6.025
11295SOL    HW245917   9.320   7.443   5.916
11296SOL     OW45918   9.137   6.508   6.198
11296SOL    HW145919   9.232   6.479   6.206
11296SOL    HW245920   9.129   6.573   6.123
11297SOL     OW45921   9.089   6.694   6.018
11297SOL    HW145922   9.175   6.696   5.966
11297SOL    HW245923   9.103   6.741   6.106
11298SOL     OW45924   7.561   6.323   7.183
11298SOL    HW145925   7.649   6.310   7.228
11298SOL    HW245926   7.548   6.420   7.161
11299SOL     OW45927   8.061   6.951   6.312
11299SOL    HW145928   8.012   6.864   6.321
11299SOL    HW245929   8.038   6.994   6.225
11300SOL     OW45930   8.741   6.814   7.009
11300SOL    HW145931   8.778   6.741   6.951
11300SOL    HW245932   8.793   6.819   7.094
11301SOL     OW45933   8.257   5.590   6.088
11301SOL    HW145934   8.297   5.681   6.079
11301SOL    HW245935   8.157   5.598   6.094
11302SOL     OW45936   7.645   6.562   6.850
11302SOL    HW145937   7.734   6.517   6.836
11302SOL    HW245938   7.572   6.497   6.831
11303SOL     OW45939   8.973   6.585   5.776
11303SOL    HW145940   8.910   6.509   5.789
11303SOL    HW245941   9.021   6.603   5.862
11304SOL     OW45942   8.635   7.378   7.202
11304SOL    HW145943   8.659   7.438   7.126
11304SOL    HW245944   8.642   7.283   7.172
11305SOL     OW45945   7.765   5.837   7.387
11305SOL    HW145946   7.836   5.908   7.393
11305SOL    HW245947   7.677   5.876   7.415
11306SOL     OW45948   8.914   7.003   6.539
11306SOL    HW145949   8.855   7.009   6.619
11306SOL    HW245950   8.899   6.915   6.493
11307SOL     OW45951   9.115   7.300   6.158
11307SOL    HW145952   9.074   7.277   6.070
11307SOL    HW245953   9.097   7.226   6.223
11308SOL     OW45954   8.046   6.315   5.856
11308SOL    HW145955   8.070   6.384   5.788
11308SOL    HW245956   7.968   6.348   5.910
11309SOL     OW45957   8.729   5.931   6.530
11309SOL    HW145958   8.643   5.881   6.517
11309SOL    HW245959   8.791   5.877   6.586
11310SOL     OW45960   9.024   7.248   5.893
11310SOL    HW145961   9.113   7.294   5.896
11310SOL    HW245962   9.003   7.224   5.798
11311SOL     OW45963   8.255   6.191   7.051
11311SOL    HW145964   8.208   6.188   7.140
11311SOL    HW245965   8.204   6.136   6.985
11312SOL     OW45966   8.421   6.476   7.158
11312SOL    HW145967   8.467   6.392   7.129
11312SOL    HW245968   8.365   6.510   7.083
11313SOL     OW45969   8.439   5.996   6.828
11313SOL    HW145970   8.362   6.030   6.882
11313SOL    HW245971   8.405   5.945   6.749
11314SOL     OW45972   8.489   6.287   6.015
11314SOL    HW145973   8.515   6.283   6.111
11314SOL    HW245974   8.404   6.236   6.001
11315SOL     OW45975   7.524   6.397   6.375
11315SOL    HW145976   7.623   6.385   6.384
11315SOL    HW245977   7.500   6.492   6.396
11316SOL     OW45978   7.578   7.407   7.157
11316SOL    HW145979   7.568   7.392   7.256
11316SOL    HW245980   7.492   7.443   7.121
11317SOL     OW45981   8.313   5.934   5.781
11317SOL    HW145982   8.372   5.997   5.732
11317SOL    HW245983   8.332   5.840   5.752
11318SOL     OW45984   8.810   6.730   6.131
11318SOL    HW145985   8.893   6.701   6.083
11318SOL    HW245986   8.761   6.797   6.075
11319SOL     OW45987   7.998   5.782   6.471
11319SOL    HW145988   7.993   5.777   6.571
11319SOL    HW245989   8.000   5.878   6.442
11320SOL     OW45990   8.456   7.042   6.063
11320SOL    HW145991   8.410   7.114   6.011
11320SOL    HW245992   8.452   7.062   6.161
11321SOL     OW45993   7.799   7.387   6.439
11321SOL    HW145994   7.849   7.301   6.445
11321SOL    HW245995   7.864   7.464   6.436
11322SOL     OW45996   9.243   6.652   6.459
11322SOL    HW145997   9.181   6.637   6.383
11322SOL    HW245998   9.191   6.663   6.544
11323SOL     OW45999   8.675   7.136   7.092
11323SOL    HW146000   8.681   7.059   7.156
11323SOL    HW246001   8.623   7.110   7.012
11324SOL     OW46002   8.906   6.321   6.314
11324SOL    HW146003   8.901   6.256   6.389
11324SOL    HW246004   8.986   6.380   6.327
11325SOL     OW46005   7.909   6.852   7.313
11325SOL    HW146006   7.859   6.853   7.227
11325SOL    HW246007   7.846   6.834   7.389
11326SOL     OW46008   8.559   7.362   5.823
11326SOL    HW146009   8.499   7.300   5.873
11326SOL    HW246010   8.590   7.318   5.738
11327SOL     OW46011   7.650   5.871   7.084
11327SOL    HW146012   7.570   5.931   7.071
11327SOL    HW246013   7.640   5.822   7.170
11328SOL     OW46014   9.080   6.963   5.667
11328SOL    HW146015   9.048   7.057   5.657
11328SOL    HW246016   9.004   6.900   5.655
11329SOL     OW46017   7.912   7.329   5.909
11329SOL    HW146018   7.945   7.368   5.995
11329SOL    HW246019   7.988   7.322   5.844
11330SOL     OW46020   8.848   5.693   6.012
11330SOL    HW146021   8.824   5.656   5.922
11330SOL    HW246022   8.947   5.709   6.016
11331SOL     OW46023   7.697   7.371   6.827
11331SOL    HW146024   7.754   7.306   6.877
11331SOL    HW246025   7.681   7.338   6.734
11332SOL     OW46026   8.388   7.284   6.490
11332SOL    HW146027   8.468   7.227   6.511
11332SOL    HW246028   8.339   7.244   6.413
11333SOL     OW46029   7.830   6.286   6.066
11333SOL    HW146030   7.875   6.196   6.063
11333SOL    HW246031   7.736   6.275   6.099
11334SOL     OW46032   8.229   5.850   7.335
11334SOL    HW146033   8.296   5.789   7.378
11334SOL    HW246034   8.156   5.869   7.400
11335SOL     OW46035   8.336   7.100   6.781
11335SOL    HW146036   8.313   7.075   6.687
11335SOL    HW246037   8.397   7.031   6.820
11336SOL     OW46038   8.799   6.176   7.019
11336SOL    HW146039   8.827   6.133   7.104
11336SOL    HW246040   8.824   6.272   7.020
11337SOL     OW46041   8.251   6.988   6.510
11337SOL    HW146042   8.341   7.002   6.468
11337SOL    HW246043   8.180   6.990   6.439
11338SOL     OW46044   8.370   6.089   6.485
11338SOL    HW146045   8.345   6.080   6.389
11338SOL    HW246046   8.418   6.007   6.516
11339SOL     OW46047   7.987   5.650   6.098
11339SOL    HW146048   7.906   5.651   6.156
11339SOL    HW246049   7.990   5.733   6.043
11340SOL     OW46050   8.882   6.774   5.627
11340SOL    HW146051   8.914   6.698   5.684
11340SOL    HW246052   8.790   6.801   5.657
11341SOL     OW46053   7.745   5.621   5.757
11341SOL    HW146054   7.794   5.705   5.736
11341SOL    HW246055   7.807   5.556   5.802
11342SOL     OW46056   8.383   5.822   6.066
11342SOL    HW146057   8.335   5.863   5.988
11342SOL    HW246058   8.482   5.820   6.047
11343SOL     OW46059   8.524   6.269   7.050
11343SOL    HW146060   8.444   6.208   7.053
11343SOL    HW246061   8.605   6.216   7.026
11344SOL     OW46062   8.675   7.156   6.379
11344SOL    HW146063   8.696   7.230   6.314
11344SOL    HW246064   8.743   7.156   6.452
11345SOL     OW46065   7.907   6.738   6.327
11345SOL    HW146066   7.836   6.711   6.392
11345SOL    HW246067   7.881   6.710   6.234
11346SOL     OW46068   8.719   7.383   6.177
11346SOL    HW146069   8.763   7.447   6.113
11346SOL    HW246070   8.669   7.435   6.247
11347SOL     OW46071   7.526   6.142   6.972
11347SOL    HW146072   7.618   6.141   6.931
11347SOL    HW246073   7.520   6.216   7.039
11348SOL     OW46074   8.009   5.808   6.733
11348SOL    HW146075   8.047   5.724   6.770
11348SOL    HW246076   7.921   5.827   6.777
11349SOL     OW46077   8.314   6.040   6.228
11349SOL    HW146078   8.282   6.112   6.166
11349SOL    HW246079   8.338   5.959   6.175
11350SOL     OW46080   8.465   5.625   6.339
11350SOL    HW146081   8.393   5.630   6.270
11350SOL    HW246082   8.441   5.556   6.408
11351SOL     OW46083   8.877   6.759   6.453
11351SOL    HW146084   8.822   6.675   6.446
11351SOL    HW246085   8.903   6.788   6.361
11352SOL     OW46086   8.914   6.176   6.578
11352SOL    HW146087   8.884   6.081   6.585
11352SOL    HW246088   8.987   6.192   6.644
11353SOL     OW46089   9.305   6.419   5.963
11353SOL    HW146090   9.347   6.355   6.027
11353SOL    HW246091   9.267   6.368   5.885
11354SOL     OW46092   7.936   6.971   5.760
11354SOL    HW146093   7.849   6.956   5.807
11354SOL    HW246094   7.919   6.997   5.665
11355SOL     OW46095   9.112   6.866   6.243
11355SOL    HW146096   9.211   6.874   6.257
11355SOL    HW246097   9.067   6.950   6.274
11356SOL     OW46098   8.838   6.161   5.664
11356SOL    HW146099   8.784   6.140   5.745
11356SOL    HW246100   8.929   6.120   5.673
11357SOL     OW46101   7.975   5.842   5.914
11357SOL    HW146102   8.002   5.783   5.839
11357SOL    HW246103   7.975   5.937   5.883
11358SOL     OW46104   9.202   6.809   7.174
11358SOL    HW146105   9.293   6.770   7.161
11358SOL    HW246106   9.210   6.905   7.198
11359SOL     OW46107   8.512   6.933   6.926
11359SOL    HW146108   8.432   6.910   6.981
11359SOL    HW246109   8.595   6.907   6.975
11360SOL     OW46110   9.040   7.215   7.211
11360SOL    HW146111   9.067   7.249   7.121
11360SOL    HW246112   9.119   7.177   7.257
11361SOL     OW46113   8.559   6.781   6.686
11361SOL    HW146114   8.519   6.825   6.767
11361SOL    HW246115   8.518   6.818   6.603
11362SOL     OW46116   9.086   6.685   6.665
11362SOL    HW146117   9.091   6.766   6.724
11362SOL    HW246118   9.000   6.687   6.614
11363SOL     OW46119   8.363   5.675   6.988
11363SOL    HW146120   8.388   5.655   6.893
11363SOL    HW246121   8.435   5.731   7.030
11364SOL     OW46122   8.428   6.702   7.305
11364SOL    HW146123   8.329   6.708   7.315
11364SOL    HW246124   8.451   6.622   7.249
11365SOL     OW46125   8.153   6.636   5.954
11365SOL    HW146126   8.139   6.643   6.053
11365SOL    HW246127   8.237   6.585   5.936
11366SOL     OW46128   7.858   6.399   6.837
11366SOL    HW146129   7.944   6.411   6.887
11366SOL    HW246130   7.816   6.312   6.864
11367SOL     OW46131   8.722   5.972   6.848
11367SOL    HW146132   8.743   6.046   6.912
11367SOL    HW246133   8.633   5.989   6.805
11368SOL     OW46134   7.512   7.150   6.917
11368SOL    HW146135   7.466   7.232   6.883
11368SOL    HW246136   7.610   7.169   6.926
11369SOL     OW46137   7.815   6.686   6.087
11369SOL    HW146138   7.808   6.769   6.031
11369SOL    HW246139   7.819   6.606   6.027
11370SOL     OW46140   8.014   6.123   6.451
11370SOL    HW146141   8.026   6.189   6.377
11370SOL    HW246142   8.060   6.157   6.534
11371SOL     OW46143   8.700   6.934   5.974
11371SOL    HW146144   8.750   7.011   6.014
11371SOL    HW246145   8.605   6.936   6.006
11372SOL     OW46146   8.720   7.031   6.728
11372SOL    HW146147   8.767   7.044   6.815
11372SOL    HW246148   8.654   6.957   6.737
11373SOL     OW46149   9.030   6.225   6.058
11373SOL    HW146150   8.999   6.286   6.131
11373SOL    HW246151   9.080   6.277   5.989
11374SOL     OW46152   7.802   7.096   6.915
11374SOL    HW146153   7.781   7.052   6.828
11374SOL    HW246154   7.899   7.122   6.918
11375SOL     OW46155   7.850   6.337   7.184
11375SOL    HW146156   7.918   6.392   7.137
11375SOL    HW246157   7.890   6.249   7.211
11376SOL     OW46158   9.035   6.365   7.256
11376SOL    HW146159   8.943   6.403   7.251
11376SOL    HW246160   9.095   6.412   7.191
11377SOL     OW46161   8.021   6.456   6.615
11377SOL    HW146162   8.065   6.545   6.606
11377SOL    HW246163   7.958   6.456   6.692
11378SOL     OW46164   8.808   6.448   6.631
11378SOL    HW146165   8.733   6.448   6.565
11378SOL    HW246166   8.845   6.356   6.640
11379SOL     OW46167   8.657   6.111   5.861
11379SOL    HW146168   8.670   6.027   5.915
11379SOL    HW246169   8.628   6.185   5.921
11380SOL     OW46170   7.755   5.799   6.817
11380SOL    HW146171   7.732   5.836   6.907
11380SOL    HW246172   7.725   5.704   6.811
11381SOL     OW46173   7.485   6.896   6.868
11381SOL    HW146174   7.538   6.847   6.936
11381SOL    HW246175   7.507   6.994   6.873
11382SOL     OW46176   8.180   6.220   6.650
11382SOL    HW146177   8.239   6.194   6.574
11382SOL    HW246178   8.152   6.316   6.639
11383SOL     OW46179   9.176   6.521   7.440
11383SOL    HW146180   9.130   6.514   7.351
11383SOL    HW246181   9.114   6.565   7.506
11384SOL     OW46182   7.755   5.649   6.204
11384SOL    HW146183   7.744   5.743   6.237
11384SOL    HW246184   7.750   5.586   6.281
11385SOL     OW46185   9.070   5.953   5.960
11385SOL    HW146186   9.072   5.877   6.024
11385SOL    HW246187   9.022   6.030   6.000
11386SOL     OW46188   8.471   6.352   6.552
11386SOL    HW146189   8.486   6.373   6.648
11386SOL    HW246190   8.441   6.257   6.543
11387SOL     OW46191   8.428   7.159   7.286
11387SOL    HW146192   8.408   7.203   7.198
11387SOL    HW246193   8.467   7.068   7.270
11388SOL     OW46194   9.307   7.104   7.191
11388SOL    HW146195   9.321   7.131   7.096
11388SOL    HW246196   9.390   7.126   7.244
11389SOL     OW46197   7.798   6.484   7.390
11389SOL    HW146198   7.874   6.528   7.438
11389SOL    HW246199   7.833   6.437   7.308
11390SOL     OW46200   8.988   5.860   5.711
11390SOL    HW146201   8.927   5.785   5.734
11390SOL    HW246202   9.010   5.912   5.794
11391SOL     OW46203   8.751   6.424   5.628
11391SOL    HW146204   8.785   6.331   5.643
11391SOL    HW246205   8.769   6.451   5.533
11392SOL     OW46206   8.516   6.919   6.435
11392SOL    HW146207   8.523   6.835   6.380
11392SOL    HW246208   8.578   6.988   6.399
11393SOL     OW46209   7.767   6.396   6.535
11393SOL    HW146210   7.860   6.432   6.540
11393SOL    HW246211   7.761   6.311   6.587
11394SOL     OW46212   7.787   6.095   6.592
11394SOL    HW146213   7.735   6.012   6.575
11394SOL    HW246214   7.864   6.100   6.528
11395SOL     OW46215   8.586   5.966   7.264
11395SOL    HW146216   8.541   6.029   7.328
11395SOL    HW246217   8.679   5.997   7.247
11396SOL     OW46218   8.608   5.793   7.063
11396SOL    HW146219   8.608   5.857   7.140
11396SOL    HW246220   8.636   5.841   6.980
11397SOL     OW46221   7.536   7.387   6.513
11397SOL    HW146222   7.494   7.301   6.486
11397SOL    HW246223   7.630   7.390   6.479
11398SOL     OW46224   7.952   7.154   6.496
11398SOL    HW146225   8.018   7.228   6.505
11398SOL    HW246226   7.996   7.075   6.454
11399SOL     OW46227   8.450   6.382   6.824
11399SOL    HW146228   8.491   6.350   6.910
11399SOL    HW246229   8.354   6.355   6.821
11400SOL     OW46230   7.488   6.130   6.700
11400SOL    HW146231   7.573   6.097   6.659
11400SOL    HW246232   7.501   6.145   6.798
11401SOL     OW46233   8.263   6.158   5.911
11401SOL    HW146234   8.270   6.069   5.865
11401SOL    HW246235   8.169   6.192   5.903
11402SOL     OW46236   9.105   6.190   6.792
11402SOL    HW146237   9.067   6.121   6.854
11402SOL    HW246238   9.187   6.154   6.748
11403SOL     OW46239   7.700   7.150   7.330
11403SOL    HW146240   7.670   7.207   7.406
11403SOL    HW246241   7.693   7.053   7.356
11404SOL     OW46242   8.119   6.050   6.855
11404SOL    HW146243   8.085   5.961   6.825
11404SOL    HW246244   8.145   6.104   6.775
11405SOL     OW46245   8.378   7.264   7.051
11405SOL    HW146246   8.354   7.246   6.956
11405SOL    HW246247   8.408   7.358   7.061
11406SOL     OW46248   7.921   6.086   5.777
11406SOL    HW146249   7.982   6.166   5.781
11406SOL    HW246250   7.826   6.117   5.784
11407SOL     OW46251   7.607   6.723   7.052
11407SOL    HW146252   7.629   6.662   7.128
11407SOL    HW246253   7.617   6.674   6.966
11408SOL     OW46254   8.795   6.645   6.820
11408SOL    HW146255   8.819   6.582   6.746
11408SOL    HW246256   8.705   6.685   6.802
11409SOL     OW46257   8.750   6.441   5.895
11409SOL    HW146258   8.664   6.410   5.937
11409SOL    HW246259   8.746   6.427   5.796
11410SOL     OW46260   9.207   7.333   6.740
11410SOL    HW146261   9.268   7.363   6.667
11410SOL    HW246262   9.169   7.244   6.718
11411SOL     OW46263   8.700   7.317   6.714
11411SOL    HW146264   8.784   7.322   6.660
11411SOL    HW246265   8.677   7.221   6.732
11412SOL     OW46266   7.531   6.844   6.608
11412SOL    HW146267   7.526   6.843   6.708
11412SOL    HW246268   7.448   6.803   6.570
11413SOL     OW46269   8.136   7.248   7.302
11413SOL    HW146270   8.080   7.329   7.311
11413SOL    HW246271   8.188   7.252   7.216
11414SOL     OW46272   9.174   5.721   6.109
11414SOL    HW146273   9.247   5.704   6.042
11414SOL    HW246274   9.143   5.634   6.147
11415SOL     OW46275   8.836   7.159   6.063
11415SOL    HW146276   8.903   7.171   5.989
11415SOL    HW246277   8.796   7.248   6.086
11416SOL     OW46278   8.728   6.513   6.258
11416SOL    HW146279   8.788   6.432   6.260
11416SOL    HW246280   8.768   6.582   6.198
11417SOL     OW46281   8.278   6.859   7.008
11417SOL    HW146282   8.273   6.892   7.103
11417SOL    HW246283   8.192   6.878   6.962
11418SOL     OW46284   8.120   7.202   5.740
11418SOL    HW146285   8.129   7.212   5.641
11418SOL    HW246286   8.080   7.113   5.761
11419SOL     OW46287   9.098   7.306   6.980
11419SOL    HW146288   9.151   7.316   6.896
11419SOL    HW246289   9.071   7.396   7.014
11420SOL     OW46290   9.289   5.761   6.549
11420SOL    HW146291   9.328   5.676   6.513
11420SOL    HW246292   9.191   5.763   6.530
11421SOL     OW46293   7.711   5.912   6.306
11421SOL    HW146294   7.632   5.963   6.272
11421SOL    HW246295   7.702   5.897   6.404
11422SOL     OW46296   8.642   7.198   5.617
11422SOL    HW146297   8.648   7.105   5.654
11422SOL    HW246298   8.583   7.198   5.537
11423SOL     OW46299   8.270   6.588   6.958
11423SOL    HW146300   8.310   6.587   6.866
11423SOL    HW246301   8.280   6.680   6.998
11424SOL     OW46302   8.364   6.496   5.877
11424SOL    HW146303   8.427   6.534   5.809
11424SOL    HW246304   8.404   6.413   5.916
11425SOL     OW46305   8.952   7.193   5.630
11425SOL    HW146306   8.860   7.230   5.637
11425SOL    HW246307   8.990   7.213   5.540
11426SOL     OW46308   7.820   6.874   7.076
11426SOL    HW146309   7.807   6.967   7.042
11426SOL    HW246310   7.736   6.822   7.063
11427SOL     OW46311   9.062   6.878   6.875
11427SOL    HW146312   9.122   6.881   6.955
11427SOL    HW246313   8.987   6.942   6.888
11428SOL     OW46314   8.487   6.684   6.282
11428SOL    HW146315   8.417   6.637   6.336
11428SOL    HW246316   8.546   6.616   6.239
11429SOL     OW46317   8.462   5.822   6.557
11429SOL    HW146318   8.454   5.786   6.464
11429SOL    HW246319   8.460   5.746   6.622
11430SOL     OW46320   8.038   7.073   6.077
11430SOL    HW146321   8.080   7.015   6.007
11430SOL    HW246322   7.994   7.152   6.033
11431SOL     OW46323   9.157   5.971   6.967
11431SOL    HW146324   9.230   6.040   6.971
11431SOL    HW246325   9.185   5.896   6.908
11432SOL     OW46326   7.703   6.934   5.876
11432SOL    HW146327   7.607   6.935   5.849
11432SOL    HW246328   7.715   6.987   5.960
11433SOL     OW46329   7.553   6.599   7.312
11433SOL    HW146330   7.476   6.566   7.366
11433SOL    HW246331   7.638   6.569   7.354
11434SOL     OW46332   8.120   5.789   7.075
11434SOL    HW146333   8.210   5.773   7.035
11434SOL    HW246334   8.128   5.794   7.174
11435SOL     OW46335   7.523   5.931   5.619
11435SOL    HW146336   7.431   5.903   5.590
11435SOL    HW246337   7.554   6.008   5.563
11436SOL     OW46338   8.888   6.442   6.984
11436SOL    HW146339   8.831   6.494   6.921
11436SOL    HW246340   8.984   6.454   6.960
11437SOL     OW46341   7.520   5.752   5.904
11437SOL    HW146342   7.503   5.835   5.850
11437SOL    HW246343   7.610   5.715   5.882
11438SOL     OW46344   8.631   6.921   5.705
11438SOL    HW146345   8.532   6.910   5.707
11438SOL    HW246346   8.665   6.936   5.798
11439SOL     OW46347   8.061   6.428   7.017
11439SOL    HW146348   8.117   6.509   7.000
11439SOL    HW246349   8.120   6.348   7.020
11440SOL     OW46350   8.941   7.353   6.545
11440SOL    HW146351   8.974   7.417   6.476
11440SOL    HW246352   9.007   7.347   6.620
11441SOL     OW46353   8.164   6.151   7.294
11441SOL    HW146354   8.183   6.216   7.368
11441SOL    HW246355   8.224   6.071   7.303
11442SOL     OW46356   7.838   7.327   7.146
11442SOL    HW146357   7.747   7.368   7.144
11442SOL    HW246358   7.831   7.233   7.178
11443SOL     OW46359   9.122   6.469   6.840
11443SOL    HW146360   9.095   6.380   6.803
11443SOL    HW246361   9.123   6.537   6.767
11444SOL     OW46362   8.673   5.911   6.035
11444SOL    HW146363   8.738   5.837   6.024
11444SOL    HW246364   8.693   5.961   6.119
11445SOL     OW46365   8.042   6.331   6.238
11445SOL    HW146366   8.092   6.416   6.219
11445SOL    HW246367   7.954   6.333   6.190
11446SOL     OW46368   9.225   5.928   7.228
11446SOL    HW146369   9.208   5.959   7.134
11446SOL    HW246370   9.141   5.891   7.266
11447SOL     OW46371   9.178   6.520   7.103
11447SOL    HW146372   9.216   6.611   7.118
11447SOL    HW246373   9.170   6.503   7.004
11448SOL     OW46374   8.307   6.960   5.602
11448SOL    HW146375   8.261   6.975   5.690
11448SOL    HW246376   8.351   7.045   5.572
11449SOL     OW46377   8.109   7.376   6.539
11449SOL    HW146378   8.063   7.464   6.526
11449SOL    HW246379   8.208   7.388   6.532
11450SOL     OW46380   8.307   6.542   6.447
11450SOL    HW146381   8.361   6.473   6.495
11450SOL    HW246382   8.275   6.611   6.513
11451SOL     OW46383   9.309   7.155   6.437
11451SOL    HW146384   9.238   7.143   6.367
11451SOL    HW246385   9.310   7.076   6.497
11452SOL     OW46386   7.669   6.900   7.430
11452SOL    HW146387   7.604   6.827   7.409
11452SOL    HW246388   7.673   6.914   7.528
11453SOL     OW46389   7.527   6.826   6.239
11453SOL    HW146390   7.526   6.779   6.327
11453SOL    HW246391   7.609   6.798   6.188
11454SOL     OW46392   8.120   6.977   7.210
11454SOL    HW146393   8.042   6.927   7.248
11454SOL    HW246394   8.117   7.072   7.241
11455SOL     OW46395   9.272   5.778   6.813
11455SOL    HW146396   9.268   5.688   6.857
11455SOL    HW246397   9.275   5.767   6.714
11456SOL     OW46398   7.876   6.010   6.106
11456SOL    HW146399   7.906   5.938   6.044
11456SOL    HW246400   7.837   5.970   6.189
11457SOL     OW46401   9.153   7.073   6.690
11457SOL    HW146402   9.060   7.048   6.663
11457SOL    HW246403   9.179   7.023   6.772
11458SOL     OW46404   7.765   6.133   6.866
11458SOL    HW146405   7.803   6.074   6.938
11458SOL    HW246406   7.805   6.107   6.778
11459SOL     OW46407   8.260   7.172   6.273
11459SOL    HW146408   8.292   7.182   6.179
11459SOL    HW246409   8.181   7.110   6.275
11460SOL     OW46410   8.872   5.800   6.698
11460SOL    HW146411   8.924   5.735   6.753
11460SOL    HW246412   8.823   5.863   6.759
11461SOL     OW46413   8.449   5.620   6.740
11461SOL    HW146414   8.386   5.548   6.709
11461SOL    HW246415   8.542   5.584   6.740
11462SOL     OW46416   8.218   6.916   5.887
11462SOL    HW146417   8.172   6.829   5.904
11462SOL    HW246418   8.309   6.913   5.928
11463SOL     OW46419   8.066   7.153   6.870
11463SOL    HW146420   8.061   7.235   6.927
11463SOL    HW246421   8.155   7.150   6.825
11464SOL     OW46422   8.800   5.638   5.754
11464SOL    HW146423   8.835   5.597   5.670
11464SOL    HW246424   8.710   5.600   5.774
11465SOL     OW46425   8.748   6.039   6.277
11465SOL    HW146426   8.689   6.119   6.281
11465SOL    HW246427   8.763   6.004   6.370
11466SOL     OW46428   9.041   5.807   6.468
11466SOL    HW146429   8.957   5.806   6.522
11466SOL    HW246430   9.043   5.890   6.412
11467SOL     OW46431   7.487   6.663   5.886
11467SOL    HW146432   7.586   6.652   5.877
11467SOL    HW246433   7.447   6.577   5.918
11468SOL     OW46434   8.323   7.232   5.923
11468SOL    HW146435   8.246   7.197   5.869
11468SOL    HW246436   8.291   7.303   5.985
11469SOL     OW46437   7.678   8.076   0.113
11469SOL    HW146438   7.585   8.074   0.150
11469SOL    HW246439   7.679   8.037   0.021
11470SOL     OW46440   7.673   7.723   0.996
11470SOL    HW146441   7.708   7.706   1.088
11470SOL    HW246442   7.585   7.678   0.984
11471SOL     OW46443   7.467   7.816   0.647
11471SOL    HW146444   7.385   7.859   0.686
11471SOL    HW246445   7.439   7.743   0.584
11472SOL     OW46446   8.583   8.151   0.717
11472SOL    HW146447   8.640   8.229   0.692
11472SOL    HW246448   8.523   8.177   0.793
11473SOL     OW46449   9.203   8.055   0.231
11473SOL    HW146450   9.191   8.042   0.132
11473SOL    HW246451   9.173   7.974   0.280
11474SOL     OW46452   8.216   8.592   1.023
11474SOL    HW146453   8.138   8.609   1.083
11474SOL    HW246454   8.250   8.679   0.987
11475SOL     OW46455   8.133   8.460   0.665
11475SOL    HW146456   8.202   8.444   0.735
11475SOL    HW246457   8.060   8.517   0.703
11476SOL     OW46458   7.886   7.840   1.499
11476SOL    HW146459   7.968   7.784   1.508
11476SOL    HW246460   7.805   7.782   1.503
11477SOL     OW46461   9.051   7.895   0.737
11477SOL    HW146462   8.977   7.941   0.687
11477SOL    HW246463   9.102   7.963   0.790
11478SOL     OW46464   7.688   8.539   0.886
11478SOL    HW146465   7.702   8.455   0.938
11478SOL    HW246466   7.633   8.603   0.941
11479SOL     OW46467   9.042   7.562   1.480
11479SOL    HW146468   9.024   7.629   1.408
11479SOL    HW246469   9.039   7.608   1.569
11480SOL     OW46470   7.570   8.091   0.563
11480SOL    HW146471   7.525   8.003   0.580
11480SOL    HW246472   7.569   8.145   0.647
11481SOL     OW46473   8.257   7.452   0.502
11481SOL    HW146474   8.297   7.543   0.493
11481SOL    HW246475   8.157   7.460   0.508
11482SOL     OW46476   8.973   8.447   0.190
11482SOL    HW146477   8.910   8.371   0.203
11482SOL    HW246478   9.021   8.465   0.276
11483SOL     OW46479   8.046   8.177   0.270
11483SOL    HW146480   8.070   8.246   0.202
11483SOL    HW246481   7.968   8.210   0.324
11484SOL     OW46482   8.729   7.793   0.944
11484SOL    HW146483   8.643   7.743   0.931
11484SOL    HW246484   8.791   7.739   1.000
11485SOL     OW46485   8.255   8.053   1.465
11485SOL    HW146486   8.208   8.050   1.554
11485SOL    HW246487   8.204   7.998   1.399
11486SOL     OW46488   8.842   7.917   1.674
11486SOL    HW146489   8.822   7.960   1.762
11486SOL    HW246490   8.920   7.855   1.683
11487SOL     OW46491   8.421   8.338   1.572
11487SOL    HW146492   8.467   8.254   1.543
11487SOL    HW246493   8.365   8.372   1.497
11488SOL     OW46494   8.439   7.858   1.242
11488SOL    HW146495   8.362   7.892   1.296
11488SOL    HW246496   8.405   7.807   1.163
11489SOL     OW46497   8.489   8.149   0.429
11489SOL    HW146498   8.515   8.145   0.525
11489SOL    HW246499   8.404   8.098   0.415
11490SOL     OW46500   7.524   8.259   0.789
11490SOL    HW146501   7.623   8.247   0.798
11490SOL    HW246502   7.500   8.354   0.810
11491SOL     OW46503   8.313   7.796   0.195
11491SOL    HW146504   8.372   7.859   0.146
11491SOL    HW246505   8.332   7.702   0.166
11492SOL     OW46506   7.998   7.644   0.885
11492SOL    HW146507   7.993   7.639   0.985
11492SOL    HW246508   8.000   7.740   0.856
11493SOL     OW46509   8.906   8.183   0.728
11493SOL    HW146510   8.901   8.118   0.803
11493SOL    HW246511   8.986   8.242   0.741
11494SOL     OW46512   8.848   7.555   0.426
11494SOL    HW146513   8.824   7.518   0.336
11494SOL    HW246514   8.947   7.571   0.430
11495SOL     OW46515   7.830   8.148   0.480
11495SOL    HW146516   7.875   8.058   0.477
11495SOL    HW246517   7.736   8.137   0.513
11496SOL     OW46518   8.995   7.670   1.729
11496SOL    HW146519   8.990   7.707   1.821
11496SOL    HW246520   8.923   7.601   1.717
11497SOL     OW46521   8.062   7.570   0.117
11497SOL    HW146522   8.160   7.548   0.124
11497SOL    HW246523   8.031   7.553   0.024
11498SOL     OW46524   8.370   7.951   0.899
11498SOL    HW146525   8.345   7.942   0.803
11498SOL    HW246526   8.418   7.869   0.930
11499SOL     OW46527   7.987   7.512   0.512
11499SOL    HW146528   7.906   7.513   0.570
11499SOL    HW246529   7.990   7.595   0.457
11500SOL     OW46530   7.745   7.483   0.171
11500SOL    HW146531   7.794   7.567   0.150
11500SOL    HW246532   7.807   7.418   0.216
11501SOL     OW46533   8.383   7.684   0.480
11501SOL    HW146534   8.335   7.725   0.402
11501SOL    HW246535   8.482   7.682   0.461
11502SOL     OW46536   8.524   8.131   1.464
11502SOL    HW146537   8.444   8.070   1.467
11502SOL    HW246538   8.605   8.078   1.440
11503SOL     OW46539   8.480   7.997   0.016
11503SOL    HW146540   8.439   8.079  -0.023
11503SOL    HW246541   8.544   8.023   0.089
11504SOL     OW46542   7.526   8.004   1.386
11504SOL    HW146543   7.618   8.003   1.345
11504SOL    HW246544   7.520   8.078   1.453
11505SOL     OW46545   8.009   7.670   1.147
11505SOL    HW146546   8.047   7.586   1.184
11505SOL    HW246547   7.921   7.689   1.191
11506SOL     OW46548   8.314   7.902   0.642
11506SOL    HW146549   8.282   7.974   0.580
11506SOL    HW246550   8.338   7.821   0.589
11507SOL     OW46551   8.465   7.487   0.753
11507SOL    HW146552   8.393   7.492   0.684
11507SOL    HW246553   8.441   7.418   0.822
11508SOL     OW46554   8.914   8.038   0.992
11508SOL    HW146555   8.884   7.943   0.999
11508SOL    HW246556   8.987   8.054   1.058
11509SOL     OW46557   9.305   8.281   0.377
11509SOL    HW146558   9.347   8.217   0.441
11509SOL    HW246559   9.267   8.230   0.299
11510SOL     OW46560   8.838   8.023   0.078
11510SOL    HW146561   8.784   8.002   0.159
11510SOL    HW246562   8.929   7.982   0.087
11511SOL     OW46563   7.975   7.704   0.328
11511SOL    HW146564   8.002   7.645   0.253
11511SOL    HW246565   7.975   7.799   0.297
11512SOL     OW46566   9.086   8.547   1.079
11512SOL    HW146567   9.091   8.628   1.138
11512SOL    HW246568   9.000   8.549   1.028
11513SOL     OW46569   8.363   7.537   1.402
11513SOL    HW146570   8.388   7.517   1.307
11513SOL    HW246571   8.435   7.593   1.444
11514SOL     OW46572   8.722   7.834   1.262
11514SOL    HW146573   8.743   7.908   1.326
11514SOL    HW246574   8.633   7.851   1.219
11515SOL     OW46575   8.014   7.985   0.865
11515SOL    HW146576   8.026   8.051   0.791
11515SOL    HW246577   8.060   8.019   0.948
11516SOL     OW46578   9.030   8.087   0.472
11516SOL    HW146579   8.999   8.148   0.545
11516SOL    HW246580   9.080   8.139   0.403
11517SOL     OW46581   7.850   8.199   1.598
11517SOL    HW146582   7.918   8.254   1.551
11517SOL    HW246583   7.890   8.111   1.625
11518SOL     OW46584   9.035   8.227   1.670
11518SOL    HW146585   8.943   8.265   1.665
11518SOL    HW246586   9.095   8.274   1.605
11519SOL     OW46587   8.021   8.318   1.029
11519SOL    HW146588   8.065   8.407   1.020
11519SOL    HW246589   7.958   8.318   1.106
11520SOL     OW46590   8.808   8.310   1.045
11520SOL    HW146591   8.733   8.310   0.979
11520SOL    HW246592   8.845   8.218   1.054
11521SOL     OW46593   8.657   7.973   0.275
11521SOL    HW146594   8.670   7.889   0.329
11521SOL    HW246595   8.628   8.047   0.335
11522SOL     OW46596   7.755   7.661   1.231
11522SOL    HW146597   7.732   7.698   1.321
11522SOL    HW246598   7.725   7.566   1.225
11523SOL     OW46599   8.180   8.082   1.064
11523SOL    HW146600   8.239   8.056   0.988
11523SOL    HW246601   8.152   8.178   1.053
11524SOL     OW46602   7.755   7.511   0.618
11524SOL    HW146603   7.744   7.605   0.651
11524SOL    HW246604   7.750   7.448   0.695
11525SOL     OW46605   9.070   7.815   0.374
11525SOL    HW146606   9.072   7.739   0.438
11525SOL    HW246607   9.022   7.892   0.414
11526SOL     OW46608   8.471   8.214   0.966
11526SOL    HW146609   8.486   8.235   1.062
11526SOL    HW246610   8.441   8.119   0.957
11527SOL     OW46611   8.988   7.722   0.125
11527SOL    HW146612   8.927   7.647   0.148
11527SOL    HW246613   9.010   7.774   0.208
11528SOL     OW46614   8.751   8.286   0.042
11528SOL    HW146615   8.785   8.193   0.057
11528SOL    HW246616   8.769   8.313  -0.053
11529SOL     OW46617   7.767   8.258   0.949
11529SOL    HW146618   7.860   8.294   0.954
11529SOL    HW246619   7.761   8.173   1.001
11530SOL     OW46620   7.787   7.957   1.006
11530SOL    HW146621   7.735   7.874   0.989
11530SOL    HW246622   7.864   7.962   0.942
11531SOL     OW46623   8.586   7.828   1.678
11531SOL    HW146624   8.541   7.891   1.742
11531SOL    HW246625   8.679   7.859   1.661
11532SOL     OW46626   8.608   7.655   1.477
11532SOL    HW146627   8.608   7.719   1.554
11532SOL    HW246628   8.636   7.703   1.394
11533SOL     OW46629   8.450   8.244   1.238
11533SOL    HW146630   8.491   8.212   1.324
11533SOL    HW246631   8.354   8.217   1.235
11534SOL     OW46632   7.488   7.992   1.114
11534SOL    HW146633   7.573   7.959   1.073
11534SOL    HW246634   7.501   8.007   1.212
11535SOL     OW46635   8.263   8.020   0.325
11535SOL    HW146636   8.270   7.931   0.279
11535SOL    HW246637   8.169   8.054   0.317
11536SOL     OW46638   9.105   8.052   1.206
11536SOL    HW146639   9.067   7.983   1.268
11536SOL    HW246640   9.187   8.016   1.162
11537SOL     OW46641   8.119   7.912   1.269
11537SOL    HW146642   8.085   7.823   1.239
11537SOL    HW246643   8.145   7.966   1.189
11538SOL     OW46644   7.921   7.948   0.191
11538SOL    HW146645   7.982   8.028   0.195
11538SOL    HW246646   7.826   7.979   0.198
11539SOL     OW46647   7.607   8.585   1.466
11539SOL    HW146648   7.629   8.524   1.542
11539SOL    HW246649   7.617   8.536   1.380
11540SOL     OW46650   8.750   8.303   0.309
11540SOL    HW146651   8.664   8.272   0.351
11540SOL    HW246652   8.746   8.289   0.210
11541SOL     OW46653   8.351   7.534   0.133
11541SOL    HW146654   8.402   7.535   0.047
11541SOL    HW246655   8.407   7.492   0.204
11542SOL     OW46656   9.174   7.583   0.523
11542SOL    HW146657   9.247   7.566   0.456
11542SOL    HW246658   9.143   7.496   0.561
11543SOL     OW46659   8.728   8.375   0.672
11543SOL    HW146660   8.788   8.294   0.674
11543SOL    HW246661   8.768   8.444   0.612
11544SOL     OW46662   9.289   7.623   0.963
11544SOL    HW146663   9.328   7.538   0.927
11544SOL    HW246664   9.191   7.625   0.944
11545SOL     OW46665   7.711   7.774   0.720
11545SOL    HW146666   7.632   7.825   0.686
11545SOL    HW246667   7.702   7.759   0.818
11546SOL     OW46668   8.364   8.358   0.291
11546SOL    HW146669   8.427   8.396   0.223
11546SOL    HW246670   8.404   8.275   0.330
11547SOL     OW46671   8.462   7.684   0.971
11547SOL    HW146672   8.454   7.648   0.878
11547SOL    HW246673   8.460   7.608   1.036
11548SOL     OW46674   9.157   7.833   1.381
11548SOL    HW146675   9.230   7.902   1.385
11548SOL    HW246676   9.185   7.758   1.322
11549SOL     OW46677   8.120   7.651   1.489
11549SOL    HW146678   8.210   7.635   1.449
11549SOL    HW246679   8.128   7.656   1.588
11550SOL     OW46680   7.523   7.793   0.033
11550SOL    HW146681   7.431   7.765   0.004
11550SOL    HW246682   7.554   7.870  -0.023
11551SOL     OW46683   7.520   7.614   0.318
11551SOL    HW146684   7.503   7.697   0.264
11551SOL    HW246685   7.610   7.577   0.296
11552SOL     OW46686   8.061   8.290   1.431
11552SOL    HW146687   8.117   8.371   1.414
11552SOL    HW246688   8.120   8.210   1.434
11553SOL     OW46689   8.164   8.013   1.708
11553SOL    HW146690   8.183   8.078   1.782
11553SOL    HW246691   8.224   7.933   1.717
11554SOL     OW46692   9.122   8.331   1.254
11554SOL    HW146693   9.095   8.242   1.217
11554SOL    HW246694   9.123   8.399   1.181
11555SOL     OW46695   8.673   7.773   0.449
11555SOL    HW146696   8.738   7.699   0.438
11555SOL    HW246697   8.693   7.823   0.533
11556SOL     OW46698   8.042   8.193   0.652
11556SOL    HW146699   8.092   8.278   0.633
11556SOL    HW246700   7.954   8.195   0.604
11557SOL     OW46701   9.178   8.382   1.517
11557SOL    HW146702   9.216   8.473   1.532
11557SOL    HW246703   9.170   8.365   1.418
11558SOL     OW46704   8.531   8.432   0.087
11558SOL    HW146705   8.508   8.485   0.005
11558SOL    HW246706   8.612   8.376   0.068
11559SOL     OW46707   9.272   7.640   1.227
11559SOL    HW146708   9.268   7.550   1.271
11559SOL    HW246709   9.275   7.629   1.128
11560SOL     OW46710   7.876   7.872   0.520
11560SOL    HW146711   7.906   7.800   0.458
11560SOL    HW246712   7.837   7.832   0.603
11561SOL     OW46713   7.765   7.995   1.280
11561SOL    HW146714   7.803   7.936   1.352
11561SOL    HW246715   7.805   7.969   1.192
11562SOL     OW46716   8.872   7.662   1.112
11562SOL    HW146717   8.924   7.597   1.167
11562SOL    HW246718   8.823   7.725   1.173
11563SOL     OW46719   8.449   7.482   1.154
11563SOL    HW146720   8.386   7.410   1.123
11563SOL    HW246721   8.542   7.446   1.154
11564SOL     OW46722   8.800   7.500   0.168
11564SOL    HW146723   8.835   7.459   0.084
11564SOL    HW246724   8.710   7.462   0.188
11565SOL     OW46725   8.748   7.901   0.691
11565SOL    HW146726   8.689   7.981   0.695
11565SOL    HW246727   8.763   7.866   0.784
11566SOL     OW46728   9.041   7.669   0.882
11566SOL    HW146729   8.957   7.668   0.936
11566SOL    HW246730   9.043   7.752   0.826
11567SOL     OW46731   8.298   8.246   3.685
11567SOL    HW146732   8.294   8.322   3.750
11567SOL    HW246733   8.320   8.282   3.594
11568SOL     OW46734   8.133   8.460   2.527
11568SOL    HW146735   8.202   8.444   2.597
11568SOL    HW246736   8.060   8.517   2.565
11569SOL     OW46737   7.561   8.185   3.459
11569SOL    HW146738   7.649   8.172   3.504
11569SOL    HW246739   7.548   8.282   3.437
11570SOL     OW46740   8.257   7.452   2.364
11570SOL    HW146741   8.297   7.543   2.355
11570SOL    HW246742   8.157   7.460   2.370
11571SOL     OW46743   8.255   8.053   3.327
11571SOL    HW146744   8.208   8.050   3.416
11571SOL    HW246745   8.204   7.998   3.261
11572SOL     OW46746   8.421   8.338   3.434
11572SOL    HW146747   8.467   8.254   3.405
11572SOL    HW246748   8.365   8.372   3.359
11573SOL     OW46749   7.998   7.644   2.747
11573SOL    HW146750   7.993   7.639   2.847
11573SOL    HW246751   8.000   7.740   2.718
11574SOL     OW46752   8.906   8.183   2.590
11574SOL    HW146753   8.901   8.118   2.665
11574SOL    HW246754   8.986   8.242   2.603
11575SOL     OW46755   7.650   7.733   3.360
11575SOL    HW146756   7.570   7.793   3.347
11575SOL    HW246757   7.640   7.684   3.446
11576SOL     OW46758   7.830   8.148   2.342
11576SOL    HW146759   7.875   8.058   2.339
11576SOL    HW246760   7.736   8.137   2.375
11577SOL     OW46761   8.370   7.951   2.761
11577SOL    HW146762   8.345   7.942   2.665
11577SOL    HW246763   8.418   7.869   2.792
11578SOL     OW46764   7.745   7.483   2.033
11578SOL    HW146765   7.794   7.567   2.012
11578SOL    HW246766   7.807   7.418   2.078
11579SOL     OW46767   7.526   8.004   3.248
11579SOL    HW146768   7.618   8.003   3.207
11579SOL    HW246769   7.520   8.078   3.315
11580SOL     OW46770   8.009   7.670   3.009
11580SOL    HW146771   8.047   7.586   3.046
11580SOL    HW246772   7.921   7.689   3.053
11581SOL     OW46773   8.465   7.487   2.615
11581SOL    HW146774   8.393   7.492   2.546
11581SOL    HW246775   8.441   7.418   2.684
11582SOL     OW46776   9.305   8.281   2.239
11582SOL    HW146777   9.347   8.217   2.303
11582SOL    HW246778   9.267   8.230   2.161
11583SOL     OW46779   8.838   8.023   1.940
11583SOL    HW146780   8.784   8.002   2.021
11583SOL    HW246781   8.929   7.982   1.949
11584SOL     OW46782   7.858   8.261   3.113
11584SOL    HW146783   7.944   8.273   3.163
11584SOL    HW246784   7.816   8.174   3.140
11585SOL     OW46785   9.030   8.087   2.334
11585SOL    HW146786   8.999   8.148   2.407
11585SOL    HW246787   9.080   8.139   2.265
11586SOL     OW46788   7.850   8.199   3.460
11586SOL    HW146789   7.918   8.254   3.413
11586SOL    HW246790   7.890   8.111   3.487
11587SOL     OW46791   9.035   8.227   3.532
11587SOL    HW146792   8.943   8.265   3.527
11587SOL    HW246793   9.095   8.274   3.467
11588SOL     OW46794   8.461   7.553   3.632
11588SOL    HW146795   8.467   7.638   3.580
11588SOL    HW246796   8.493   7.477   3.575
11589SOL     OW46797   8.021   8.318   2.891
11589SOL    HW146798   8.065   8.407   2.882
11589SOL    HW246799   7.958   8.318   2.968
11590SOL     OW46800   9.176   8.383   3.716
11590SOL    HW146801   9.130   8.376   3.627
11590SOL    HW246802   9.114   8.427   3.782
11591SOL     OW46803   7.798   8.346   3.666
11591SOL    HW146804   7.874   8.390   3.714
11591SOL    HW246805   7.833   8.299   3.584
11592SOL     OW46806   8.608   7.655   3.339
11592SOL    HW146807   8.608   7.719   3.416
11592SOL    HW246808   8.636   7.703   3.256
11593SOL     OW46809   8.450   8.244   3.100
11593SOL    HW146810   8.491   8.212   3.186
11593SOL    HW246811   8.354   8.217   3.097
11594SOL     OW46812   7.488   7.992   2.976
11594SOL    HW146813   7.573   7.959   2.935
11594SOL    HW246814   7.501   8.007   3.074
11595SOL     OW46815   8.263   8.020   2.187
11595SOL    HW146816   8.270   7.931   2.141
11595SOL    HW246817   8.169   8.054   2.179
11596SOL     OW46818   8.119   7.912   3.131
11596SOL    HW146819   8.085   7.823   3.101
11596SOL    HW246820   8.145   7.966   3.051
11597SOL     OW46821   9.174   7.583   2.385
11597SOL    HW146822   9.247   7.566   2.318
11597SOL    HW246823   9.143   7.496   2.423
11598SOL     OW46824   7.520   7.614   2.180
11598SOL    HW146825   7.503   7.697   2.126
11598SOL    HW246826   7.610   7.577   2.158
11599SOL     OW46827   8.061   8.290   3.293
11599SOL    HW146828   8.117   8.371   3.276
11599SOL    HW246829   8.120   8.210   3.296
11600SOL     OW46830   8.164   8.013   3.570
11600SOL    HW146831   8.183   8.078   3.644
11600SOL    HW246832   8.224   7.933   3.579
11601SOL     OW46833   9.122   8.331   3.116
11601SOL    HW146834   9.095   8.242   3.079
11601SOL    HW246835   9.123   8.399   3.043
11602SOL     OW46836   9.178   8.382   3.379
11602SOL    HW146837   9.216   8.473   3.394
11602SOL    HW246838   9.170   8.365   3.280
11603SOL     OW46839   7.876   7.872   2.382
11603SOL    HW146840   7.906   7.800   2.320
11603SOL    HW246841   7.837   7.832   2.465
11604SOL     OW46842   9.041   7.669   2.744
11604SOL    HW146843   8.957   7.668   2.798
11604SOL    HW246844   9.043   7.752   2.688
11605SOL     OW46845   7.467   7.816   4.371
11605SOL    HW146846   7.385   7.859   4.410
11605SOL    HW246847   7.439   7.743   4.308
11606SOL     OW46848   8.298   8.246   5.547
11606SOL    HW146849   8.294   8.322   5.612
11606SOL    HW246850   8.320   8.282   5.456
11607SOL     OW46851   9.042   7.562   5.204
11607SOL    HW146852   9.024   7.629   5.132
11607SOL    HW246853   9.039   7.608   5.293
11608SOL     OW46854   7.645   8.424   4.988
11608SOL    HW146855   7.734   8.379   4.974
11608SOL    HW246856   7.572   8.359   4.969
11609SOL     OW46857   8.973   8.447   3.914
11609SOL    HW146858   8.910   8.371   3.927
11609SOL    HW246859   9.021   8.465   4.000
11610SOL     OW46860   7.765   7.699   5.525
11610SOL    HW146861   7.836   7.770   5.531
11610SOL    HW246862   7.677   7.738   5.553
11611SOL     OW46863   8.046   8.177   3.994
11611SOL    HW146864   8.070   8.246   3.926
11611SOL    HW246865   7.968   8.210   4.048
11612SOL     OW46866   8.421   8.338   5.296
11612SOL    HW146867   8.467   8.254   5.267
11612SOL    HW246868   8.365   8.372   5.221
11613SOL     OW46869   8.439   7.858   4.966
11613SOL    HW146870   8.362   7.892   5.020
11613SOL    HW246871   8.405   7.807   4.887
11614SOL     OW46872   8.229   7.712   5.473
11614SOL    HW146873   8.296   7.651   5.516
11614SOL    HW246874   8.156   7.731   5.538
11615SOL     OW46875   8.799   8.038   5.157
11615SOL    HW146876   8.827   7.995   5.242
11615SOL    HW246877   8.824   8.134   5.158
11616SOL     OW46878   8.370   7.951   4.623
11616SOL    HW146879   8.345   7.942   4.527
11616SOL    HW246880   8.418   7.869   4.654
11617SOL     OW46881   7.987   7.512   4.236
11617SOL    HW146882   7.906   7.513   4.294
11617SOL    HW246883   7.990   7.595   4.181
11618SOL     OW46884   9.305   8.281   4.101
11618SOL    HW146885   9.347   8.217   4.165
11618SOL    HW246886   9.267   8.230   4.023
11619SOL     OW46887   7.975   7.704   4.052
11619SOL    HW146888   8.002   7.645   3.977
11619SOL    HW246889   7.975   7.799   4.021
11620SOL     OW46890   8.722   7.834   4.986
11620SOL    HW146891   8.743   7.908   5.050
11620SOL    HW246892   8.633   7.851   4.943
11621SOL     OW46893   8.461   7.553   5.494
11621SOL    HW146894   8.467   7.638   5.442
11621SOL    HW246895   8.493   7.477   5.437
11622SOL     OW46896   7.952   7.498   5.464
11622SOL    HW146897   7.910   7.441   5.394
11622SOL    HW246898   7.886   7.567   5.496
11623SOL     OW46899   8.180   8.082   4.788
11623SOL    HW146900   8.239   8.056   4.712
11623SOL    HW246901   8.152   8.178   4.777
11624SOL     OW46902   9.176   8.383   5.578
11624SOL    HW146903   9.130   8.376   5.489
11624SOL    HW246904   9.114   8.427   5.644
11625SOL     OW46905   9.070   7.815   4.098
11625SOL    HW146906   9.072   7.739   4.162
11625SOL    HW246907   9.022   7.892   4.138
11626SOL     OW46908   8.471   8.214   4.690
11626SOL    HW146909   8.486   8.235   4.786
11626SOL    HW246910   8.441   8.119   4.681
11627SOL     OW46911   7.798   8.346   5.528
11627SOL    HW146912   7.874   8.390   5.576
11627SOL    HW246913   7.833   8.299   5.446
11628SOL     OW46914   8.586   7.828   5.402
11628SOL    HW146915   8.541   7.891   5.466
11628SOL    HW246916   8.679   7.859   5.385
11629SOL     OW46917   7.921   7.948   3.915
11629SOL    HW146918   7.982   8.028   3.919
11629SOL    HW246919   7.826   7.979   3.922
11630SOL     OW46920   7.711   7.774   4.444
11630SOL    HW146921   7.632   7.825   4.410
11630SOL    HW246922   7.702   7.759   4.542
11631SOL     OW46923   8.462   7.684   4.695
11631SOL    HW146924   8.454   7.648   4.602
11631SOL    HW246925   8.460   7.608   4.760
11632SOL     OW46926   7.553   8.461   5.450
11632SOL    HW146927   7.476   8.428   5.504
11632SOL    HW246928   7.638   8.431   5.492
11633SOL     OW46929   8.120   7.651   5.213
11633SOL    HW146930   8.210   7.635   5.173
11633SOL    HW246931   8.128   7.656   5.312
11634SOL     OW46932   8.042   8.193   4.376
11634SOL    HW146933   8.092   8.278   4.357
11634SOL    HW246934   7.954   8.195   4.328
11635SOL     OW46935   8.531   8.432   3.811
11635SOL    HW146936   8.508   8.485   3.729
11635SOL    HW246937   8.612   8.376   3.792
11636SOL     OW46938   9.272   7.640   4.951
11636SOL    HW146939   9.268   7.550   4.995
11636SOL    HW246940   9.275   7.629   4.852
11637SOL     OW46941   7.673   7.723   6.582
11637SOL    HW146942   7.708   7.706   6.674
11637SOL    HW246943   7.585   7.678   6.570
11638SOL     OW46944   7.467   7.816   6.233
11638SOL    HW146945   7.385   7.859   6.272
11638SOL    HW246946   7.439   7.743   6.170
11639SOL     OW46947   8.583   8.151   6.303
11639SOL    HW146948   8.640   8.229   6.278
11639SOL    HW246949   8.523   8.177   6.379
11640SOL     OW46950   9.203   8.055   5.817
11640SOL    HW146951   9.191   8.042   5.718
11640SOL    HW246952   9.173   7.974   5.866
11641SOL     OW46953   8.216   8.592   6.609
11641SOL    HW146954   8.138   8.609   6.669
11641SOL    HW246955   8.250   8.679   6.573
11642SOL     OW46956   8.298   8.246   7.409
11642SOL    HW146957   8.294   8.322   7.474
11642SOL    HW246958   8.320   8.282   7.318
11643SOL     OW46959   8.133   8.460   6.251
11643SOL    HW146960   8.202   8.444   6.321
11643SOL    HW246961   8.060   8.517   6.289
11644SOL     OW46962   7.886   7.840   7.085
11644SOL    HW146963   7.968   7.784   7.094
11644SOL    HW246964   7.805   7.782   7.089
11645SOL     OW46965   9.051   7.895   6.323
11645SOL    HW146966   8.977   7.941   6.273
11645SOL    HW246967   9.102   7.963   6.376
11646SOL     OW46968   7.688   8.539   6.472
11646SOL    HW146969   7.702   8.455   6.524
11646SOL    HW246970   7.633   8.603   6.527
11647SOL     OW46971   9.042   7.562   7.066
11647SOL    HW146972   9.024   7.629   6.994
11647SOL    HW246973   9.039   7.608   7.155
11648SOL     OW46974   7.570   8.091   6.149
11648SOL    HW146975   7.525   8.003   6.166
11648SOL    HW246976   7.569   8.145   6.233
11649SOL     OW46977   7.561   8.185   7.183
11649SOL    HW146978   7.649   8.172   7.228
11649SOL    HW246979   7.548   8.282   7.161
11650SOL     OW46980   8.257   7.452   6.088
11650SOL    HW146981   8.297   7.543   6.079
11650SOL    HW246982   8.157   7.460   6.094
11651SOL     OW46983   7.645   8.424   6.850
11651SOL    HW146984   7.734   8.379   6.836
11651SOL    HW246985   7.572   8.359   6.831
11652SOL     OW46986   8.973   8.447   5.776
11652SOL    HW146987   8.910   8.371   5.789
11652SOL    HW246988   9.021   8.465   5.862
11653SOL     OW46989   7.765   7.699   7.387
11653SOL    HW146990   7.836   7.770   7.393
11653SOL    HW246991   7.677   7.738   7.415
11654SOL     OW46992   8.046   8.177   5.856
11654SOL    HW146993   8.070   8.246   5.788
11654SOL    HW246994   7.968   8.210   5.910
11655SOL     OW46995   8.729   7.793   6.530
11655SOL    HW146996   8.643   7.743   6.517
11655SOL    HW246997   8.791   7.739   6.586
11656SOL     OW46998   8.255   8.053   7.051
11656SOL    HW146999   8.208   8.050   7.140
11656SOL    HW247000   8.204   7.998   6.985
11657SOL     OW47001   8.421   8.338   7.158
11657SOL    HW147002   8.467   8.254   7.129
11657SOL    HW247003   8.365   8.372   7.083
11658SOL     OW47004   8.439   7.858   6.828
11658SOL    HW147005   8.362   7.892   6.882
11658SOL    HW247006   8.405   7.807   6.749
11659SOL     OW47007   8.489   8.149   6.015
11659SOL    HW147008   8.515   8.145   6.111
11659SOL    HW247009   8.404   8.098   6.001
11660SOL     OW47010   7.524   8.259   6.375
11660SOL    HW147011   7.623   8.247   6.384
11660SOL    HW247012   7.500   8.354   6.396
11661SOL     OW47013   8.313   7.796   5.781
11661SOL    HW147014   8.372   7.859   5.732
11661SOL    HW247015   8.332   7.702   5.752
11662SOL     OW47016   7.998   7.644   6.471
11662SOL    HW147017   7.993   7.639   6.571
11662SOL    HW247018   8.000   7.740   6.442
11663SOL     OW47019   8.906   8.183   6.314
11663SOL    HW147020   8.901   8.118   6.389
11663SOL    HW247021   8.986   8.242   6.327
11664SOL     OW47022   7.650   7.733   7.084
11664SOL    HW147023   7.570   7.793   7.071
11664SOL    HW247024   7.640   7.684   7.170
11665SOL     OW47025   8.848   7.555   6.012
11665SOL    HW147026   8.824   7.518   5.922
11665SOL    HW247027   8.947   7.571   6.016
11666SOL     OW47028   7.830   8.148   6.066
11666SOL    HW147029   7.875   8.058   6.063
11666SOL    HW247030   7.736   8.137   6.099
11667SOL     OW47031   8.062   7.570   5.703
11667SOL    HW147032   8.160   7.548   5.710
11667SOL    HW247033   8.031   7.553   5.610
11668SOL     OW47034   8.229   7.712   7.335
11668SOL    HW147035   8.296   7.651   7.378
11668SOL    HW247036   8.156   7.731   7.400
11669SOL     OW47037   8.799   8.038   7.019
11669SOL    HW147038   8.827   7.995   7.104
11669SOL    HW247039   8.824   8.134   7.020
11670SOL     OW47040   8.370   7.951   6.485
11670SOL    HW147041   8.345   7.942   6.389
11670SOL    HW247042   8.418   7.869   6.516
11671SOL     OW47043   7.987   7.512   6.098
11671SOL    HW147044   7.906   7.513   6.156
11671SOL    HW247045   7.990   7.595   6.043
11672SOL     OW47046   7.745   7.483   5.757
11672SOL    HW147047   7.794   7.567   5.736
11672SOL    HW247048   7.807   7.418   5.802
11673SOL     OW47049   8.383   7.684   6.066
11673SOL    HW147050   8.335   7.725   5.988
11673SOL    HW247051   8.482   7.682   6.047
11674SOL     OW47052   8.524   8.131   7.050
11674SOL    HW147053   8.444   8.070   7.053
11674SOL    HW247054   8.605   8.078   7.026
11675SOL     OW47055   8.480   7.997   5.602
11675SOL    HW147056   8.439   8.079   5.563
11675SOL    HW247057   8.544   8.023   5.675
11676SOL     OW47058   7.526   8.004   6.972
11676SOL    HW147059   7.618   8.003   6.931
11676SOL    HW247060   7.520   8.078   7.039
11677SOL     OW47061   8.009   7.670   6.733
11677SOL    HW147062   8.047   7.586   6.770
11677SOL    HW247063   7.921   7.689   6.777
11678SOL     OW47064   8.314   7.902   6.228
11678SOL    HW147065   8.282   7.974   6.166
11678SOL    HW247066   8.338   7.821   6.175
11679SOL     OW47067   8.465   7.487   6.339
11679SOL    HW147068   8.393   7.492   6.270
11679SOL    HW247069   8.441   7.418   6.408
11680SOL     OW47070   8.914   8.038   6.578
11680SOL    HW147071   8.884   7.943   6.585
11680SOL    HW247072   8.987   8.054   6.644
11681SOL     OW47073   9.305   8.281   5.963
11681SOL    HW147074   9.347   8.217   6.027
11681SOL    HW247075   9.267   8.230   5.885
11682SOL     OW47076   7.975   7.704   5.914
11682SOL    HW147077   8.002   7.645   5.839
11682SOL    HW247078   7.975   7.799   5.883
11683SOL     OW47079   9.086   8.547   6.665
11683SOL    HW147080   9.091   8.628   6.724
11683SOL    HW247081   9.000   8.549   6.614
11684SOL     OW47082   8.363   7.537   6.988
11684SOL    HW147083   8.388   7.517   6.893
11684SOL    HW247084   8.435   7.593   7.030
11685SOL     OW47085   7.858   8.261   6.837
11685SOL    HW147086   7.944   8.273   6.887
11685SOL    HW247087   7.816   8.174   6.864
11686SOL     OW47088   8.722   7.834   6.848
11686SOL    HW147089   8.743   7.908   6.912
11686SOL    HW247090   8.633   7.851   6.805
11687SOL     OW47091   8.014   7.985   6.451
11687SOL    HW147092   8.026   8.051   6.377
11687SOL    HW247093   8.060   8.019   6.534
11688SOL     OW47094   9.030   8.087   6.058
11688SOL    HW147095   8.999   8.148   6.131
11688SOL    HW247096   9.080   8.139   5.989
11689SOL     OW47097   7.850   8.199   7.184
11689SOL    HW147098   7.918   8.254   7.137
11689SOL    HW247099   7.890   8.111   7.211
11690SOL     OW47100   9.035   8.227   7.256
11690SOL    HW147101   8.943   8.265   7.251
11690SOL    HW247102   9.095   8.274   7.191
11691SOL     OW47103   8.021   8.318   6.615
11691SOL    HW147104   8.065   8.407   6.606
11691SOL    HW247105   7.958   8.318   6.692
11692SOL     OW47106   8.808   8.310   6.631
11692SOL    HW147107   8.733   8.310   6.565
11692SOL    HW247108   8.845   8.218   6.640
11693SOL     OW47109   8.657   7.973   5.861
11693SOL    HW147110   8.670   7.889   5.915
11693SOL    HW247111   8.628   8.047   5.921
11694SOL     OW47112   7.755   7.661   6.817
11694SOL    HW147113   7.732   7.698   6.907
11694SOL    HW247114   7.725   7.566   6.811
11695SOL     OW47115   8.180   8.082   6.650
11695SOL    HW147116   8.239   8.056   6.574
11695SOL    HW247117   8.152   8.178   6.639
11696SOL     OW47118   9.176   8.383   7.440
11696SOL    HW147119   9.130   8.376   7.351
11696SOL    HW247120   9.114   8.427   7.506
11697SOL     OW47121   7.755   7.511   6.204
11697SOL    HW147122   7.744   7.605   6.237
11697SOL    HW247123   7.750   7.448   6.281
11698SOL     OW47124   9.070   7.815   5.960
11698SOL    HW147125   9.072   7.739   6.024
11698SOL    HW247126   9.022   7.892   6.000
11699SOL     OW47127   8.471   8.214   6.552
11699SOL    HW147128   8.486   8.235   6.648
11699SOL    HW247129   8.441   8.119   6.543
11700SOL     OW47130   7.798   8.346   7.390
11700SOL    HW147131   7.874   8.390   7.438
11700SOL    HW247132   7.833   8.299   7.308
11701SOL     OW47133   7.767   8.258   6.535
11701SOL    HW147134   7.860   8.294   6.540
11701SOL    HW247135   7.761   8.173   6.587
11702SOL     OW47136   7.787   7.957   6.592
11702SOL    HW147137   7.735   7.874   6.575
11702SOL    HW247138   7.864   7.962   6.528
11703SOL     OW47139   8.586   7.828   7.264
11703SOL    HW147140   8.541   7.891   7.328
11703SOL    HW247141   8.679   7.859   7.247
11704SOL     OW47142   8.608   7.655   7.063
11704SOL    HW147143   8.608   7.719   7.140
11704SOL    HW247144   8.636   7.703   6.980
11705SOL     OW47145   8.450   8.244   6.824
11705SOL    HW147146   8.491   8.212   6.910
11705SOL    HW247147   8.354   8.217   6.821
11706SOL     OW47148   7.488   7.992   6.700
11706SOL    HW147149   7.573   7.959   6.659
11706SOL    HW247150   7.501   8.007   6.798
11707SOL     OW47151   8.263   8.020   5.911
11707SOL    HW147152   8.270   7.931   5.865
11707SOL    HW247153   8.169   8.054   5.903
11708SOL     OW47154   9.105   8.052   6.792
11708SOL    HW147155   9.067   7.983   6.854
11708SOL    HW247156   9.187   8.016   6.748
11709SOL     OW47157   8.119   7.912   6.855
11709SOL    HW147158   8.085   7.823   6.825
11709SOL    HW247159   8.145   7.966   6.775
11710SOL     OW47160   7.607   8.585   7.052
11710SOL    HW147161   7.629   8.524   7.128
11710SOL    HW247162   7.617   8.536   6.966
11711SOL     OW47163   8.795   8.507   6.820
11711SOL    HW147164   8.819   8.444   6.746
11711SOL    HW247165   8.705   8.547   6.802
11712SOL     OW47166   8.750   8.303   5.895
11712SOL    HW147167   8.664   8.272   5.937
11712SOL    HW247168   8.746   8.289   5.796
11713SOL     OW47169   9.174   7.583   6.109
11713SOL    HW147170   9.247   7.566   6.042
11713SOL    HW247171   9.143   7.496   6.147
11714SOL     OW47172   8.728   8.375   6.258
11714SOL    HW147173   8.788   8.294   6.260
11714SOL    HW247174   8.768   8.444   6.198
11715SOL     OW47175   9.289   7.623   6.549
11715SOL    HW147176   9.328   7.538   6.513
11715SOL    HW247177   9.191   7.625   6.530
11716SOL     OW47178   7.711   7.774   6.306
11716SOL    HW147179   7.632   7.825   6.272
11716SOL    HW247180   7.702   7.759   6.404
11717SOL     OW47181   8.364   8.358   5.877
11717SOL    HW147182   8.427   8.396   5.809
11717SOL    HW247183   8.404   8.275   5.916
11718SOL     OW47184   8.462   7.684   6.557
11718SOL    HW147185   8.454   7.648   6.464
11718SOL    HW247186   8.460   7.608   6.622
11719SOL     OW47187   9.157   7.833   6.967
11719SOL    HW147188   9.230   7.902   6.971
11719SOL    HW247189   9.185   7.758   6.908
11720SOL     OW47190   7.553   8.461   7.312
11720SOL    HW147191   7.476   8.428   7.366
11720SOL    HW247192   7.638   8.431   7.354
11721SOL     OW47193   8.120   7.651   7.075
11721SOL    HW147194   8.210   7.635   7.035
11721SOL    HW247195   8.128   7.656   7.174
11722SOL     OW47196   7.523   7.793   5.619
11722SOL    HW147197   7.431   7.765   5.590
11722SOL    HW247198   7.554   7.870   5.563
11723SOL     OW47199   8.888   8.304   6.984
11723SOL    HW147200   8.831   8.356   6.921
11723SOL    HW247201   8.984   8.316   6.960
11724SOL     OW47202   7.520   7.614   5.904
11724SOL    HW147203   7.503   7.697   5.850
11724SOL    HW247204   7.610   7.577   5.882
11725SOL     OW47205   8.061   8.290   7.017
11725SOL    HW147206   8.117   8.371   7.000
11725SOL    HW247207   8.120   8.210   7.020
11726SOL     OW47208   8.164   8.013   7.294
11726SOL    HW147209   8.183   8.078   7.368
11726SOL    HW247210   8.224   7.933   7.303
11727SOL     OW47211   9.122   8.331   6.840
11727SOL    HW147212   9.095   8.242   6.803
11727SOL    HW247213   9.123   8.399   6.767
11728SOL     OW47214   8.673   7.773   6.035
11728SOL    HW147215   8.738   7.699   6.024
11728SOL    HW247216   8.693   7.823   6.119
11729SOL     OW47217   8.042   8.193   6.238
11729SOL    HW147218   8.092   8.278   6.219
11729SOL    HW247219   7.954   8.195   6.190
11730SOL     OW47220   9.225   7.790   7.228
11730SOL    HW147221   9.208   7.821   7.134
11730SOL    HW247222   9.141   7.753   7.266
11731SOL     OW47223   9.178   8.382   7.103
11731SOL    HW147224   9.216   8.473   7.118
11731SOL    HW247225   9.170   8.365   7.004
11732SOL     OW47226   8.531   8.432   5.673
11732SOL    HW147227   8.508   8.485   5.591
11732SOL    HW247228   8.612   8.376   5.654
11733SOL     OW47229   9.272   7.640   6.813
11733SOL    HW147230   9.268   7.550   6.857
11733SOL    HW247231   9.275   7.629   6.714
11734SOL     OW47232   7.876   7.872   6.106
11734SOL    HW147233   7.906   7.800   6.044
11734SOL    HW247234   7.837   7.832   6.189
11735SOL     OW47235   7.765   7.995   6.866
11735SOL    HW147236   7.803   7.936   6.938
11735SOL    HW247237   7.805   7.969   6.778
11736SOL     OW47238   8.872   7.662   6.698
11736SOL    HW147239   8.924   7.597   6.753
11736SOL    HW247240   8.823   7.725   6.759
11737SOL     OW47241   8.449   7.482   6.740
11737SOL    HW147242   8.386   7.410   6.709
11737SOL    HW247243   8.542   7.446   6.740
11738SOL     OW47244   8.800   7.500   5.754
11738SOL    HW147245   8.835   7.459   5.670
11738SOL    HW247246   8.710   7.462   5.774
11739SOL     OW47247   8.748   7.901   6.277
11739SOL    HW147248   8.689   7.981   6.281
11739SOL    HW247249   8.763   7.866   6.370
11740SOL     OW47250   9.041   7.669   6.468
11740SOL    HW147251   8.957   7.668   6.522
11740SOL    HW247252   9.043   7.752   6.412
11741SOL     OW47253   9.541   1.713   0.483
11741SOL    HW147254   9.575   1.790   0.537
11741SOL    HW247255   9.585   1.713   0.393
11742SOL     OW47256   9.432   0.643   0.563
11742SOL    HW147257   9.387   0.555   0.580
11742SOL    HW247258   9.431   0.697   0.647
11743SOL     OW47259   9.337   1.596   0.117
11743SOL    HW147260   9.318   1.500   0.138
11743SOL    HW247261   9.304   1.654   0.192
11744SOL     OW47262   9.617   0.063   0.618
11744SOL    HW147263   9.606   0.157   0.651
11744SOL    HW247264   9.612   0.000   0.695
11745SOL     OW47265   9.541   1.713   2.345
11745SOL    HW147266   9.575   1.790   2.399
11745SOL    HW247267   9.585   1.713   2.255
11746SOL     OW47268   9.337   1.596   1.979
11746SOL    HW147269   9.318   1.500   2.000
11746SOL    HW247270   9.304   1.654   2.054
11747SOL     OW47271   9.617   0.063   2.480
11747SOL    HW147272   9.606   0.157   2.513
11747SOL    HW247273   9.612   0.000   2.557
11748SOL     OW47274   9.562   1.564   3.606
11748SOL    HW147275   9.532   1.621   3.682
11748SOL    HW247276   9.555   1.467   3.632
11749SOL     OW47277   9.469   1.137   3.328
11749SOL    HW147278   9.491   1.076   3.404
11749SOL    HW247279   9.479   1.088   3.242
11750SOL     OW47280   9.617   0.063   4.342
11750SOL    HW147281   9.606   0.157   4.375
11750SOL    HW247282   9.612   0.000   4.419
11751SOL     OW47283   9.541   1.713   6.069
11751SOL    HW147284   9.575   1.790   6.123
11751SOL    HW247285   9.585   1.713   5.979
11752SOL     OW47286   9.432   0.643   6.149
11752SOL    HW147287   9.387   0.555   6.166
11752SOL    HW247288   9.431   0.697   6.233
11753SOL     OW47289   9.337   1.596   5.703
11753SOL    HW147290   9.318   1.500   5.724
11753SOL    HW247291   9.304   1.654   5.778
11754SOL     OW47292   9.617   0.063   6.204
11754SOL    HW147293   9.606   0.157   6.237
11754SOL    HW247294   9.612   0.000   6.281
11755SOL     OW47295   9.499   0.520   7.308
11755SOL    HW147296   9.558   0.480   7.238
11755SOL    HW247297   9.441   0.591   7.267
11756SOL     OW47298   9.469   1.137   7.052
11756SOL    HW147299   9.491   1.076   7.128
11756SOL    HW247300   9.479   1.088   6.966
11757SOL     OW47301   9.541   3.575   0.483
11757SOL    HW147302   9.575   3.652   0.537
11757SOL    HW247303   9.585   3.575   0.393
11758SOL     OW47304   9.432   2.505   0.563
11758SOL    HW147305   9.387   2.417   0.580
11758SOL    HW247306   9.431   2.559   0.647
11759SOL     OW47307   9.337   3.458   0.117
11759SOL    HW147308   9.318   3.362   0.138
11759SOL    HW247309   9.304   3.516   0.192
11760SOL     OW47310   9.617   2.075   1.231
11760SOL    HW147311   9.594   2.112   1.321
11760SOL    HW247312   9.587   1.980   1.225
11761SOL     OW47313   9.617   1.925   0.618
11761SOL    HW147314   9.606   2.019   0.651
11761SOL    HW247315   9.612   1.862   0.695
11762SOL     OW47316   9.541   3.575   2.345
11762SOL    HW147317   9.575   3.652   2.399
11762SOL    HW247318   9.585   3.575   2.255
11763SOL     OW47319   9.432   2.505   2.425
11763SOL    HW147320   9.387   2.417   2.442
11763SOL    HW247321   9.431   2.559   2.509
11764SOL     OW47322   9.337   3.458   1.979
11764SOL    HW147323   9.318   3.362   2.000
11764SOL    HW247324   9.304   3.516   2.054
11765SOL     OW47325   9.562   3.426   3.606
11765SOL    HW147326   9.532   3.483   3.682
11765SOL    HW247327   9.555   3.329   3.632
11766SOL     OW47328   9.469   2.999   3.328
11766SOL    HW147329   9.491   2.938   3.404
11766SOL    HW247330   9.479   2.950   3.242
11767SOL     OW47331   9.337   3.458   3.841
11767SOL    HW147332   9.318   3.362   3.862
11767SOL    HW247333   9.304   3.516   3.916
11768SOL     OW47334   9.617   1.925   4.342
11768SOL    HW147335   9.606   2.019   4.375
11768SOL    HW247336   9.612   1.862   4.419
11769SOL     OW47337   9.432   2.505   6.149
11769SOL    HW147338   9.387   2.417   6.166
11769SOL    HW247339   9.431   2.559   6.233
11770SOL     OW47340   9.337   3.458   5.703
11770SOL    HW147341   9.318   3.362   5.724
11770SOL    HW247342   9.304   3.516   5.778
11771SOL     OW47343   9.617   2.075   6.817
11771SOL    HW147344   9.594   2.112   6.907
11771SOL    HW247345   9.587   1.980   6.811
11772SOL     OW47346   9.617   1.925   6.204
11772SOL    HW147347   9.606   2.019   6.237
11772SOL    HW247348   9.612   1.862   6.281
11773SOL     OW47349   9.499   2.382   7.308
11773SOL    HW147350   9.558   2.342   7.238
11773SOL    HW247351   9.441   2.453   7.267
11774SOL     OW47352   9.469   2.999   7.052
11774SOL    HW147353   9.491   2.938   7.128
11774SOL    HW247354   9.479   2.950   6.966
11775SOL     OW47355   9.541   5.437   0.483
11775SOL    HW147356   9.575   5.514   0.537
11775SOL    HW247357   9.585   5.437   0.393
11776SOL     OW47358   9.432   4.367   0.563
11776SOL    HW147359   9.387   4.279   0.580
11776SOL    HW247360   9.431   4.421   0.647
11777SOL     OW47361   9.337   5.320   0.117
11777SOL    HW147362   9.318   5.224   0.138
11777SOL    HW247363   9.304   5.378   0.192
11778SOL     OW47364   9.617   3.937   1.231
11778SOL    HW147365   9.594   3.974   1.321
11778SOL    HW247366   9.587   3.842   1.225
11779SOL     OW47367   9.617   3.787   0.618
11779SOL    HW147368   9.606   3.881   0.651
11779SOL    HW247369   9.612   3.724   0.695
11780SOL     OW47370   9.469   4.861   1.466
11780SOL    HW147371   9.491   4.800   1.542
11780SOL    HW247372   9.479   4.812   1.380
11781SOL     OW47373   9.541   5.437   2.345
11781SOL    HW147374   9.575   5.514   2.399
11781SOL    HW247375   9.585   5.437   2.255
11782SOL     OW47376   9.617   3.937   3.093
11782SOL    HW147377   9.594   3.974   3.183
11782SOL    HW247378   9.587   3.842   3.087
11783SOL     OW47379   9.469   4.861   3.328
11783SOL    HW147380   9.491   4.800   3.404
11783SOL    HW247381   9.479   4.812   3.242
11784SOL     OW47382   9.337   5.320   3.841
11784SOL    HW147383   9.318   5.224   3.862
11784SOL    HW247384   9.304   5.378   3.916
11785SOL     OW47385   9.617   3.937   4.955
11785SOL    HW147386   9.594   3.974   5.045
11785SOL    HW247387   9.587   3.842   4.949
11786SOL     OW47388   9.469   4.861   5.190
11786SOL    HW147389   9.491   4.800   5.266
11786SOL    HW247390   9.479   4.812   5.104
11787SOL     OW47391   9.541   5.437   6.069
11787SOL    HW147392   9.575   5.514   6.123
11787SOL    HW247393   9.585   5.437   5.979
11788SOL     OW47394   9.432   4.367   6.149
11788SOL    HW147395   9.387   4.279   6.166
11788SOL    HW247396   9.431   4.421   6.233
11789SOL     OW47397   9.617   3.937   6.817
11789SOL    HW147398   9.594   3.974   6.907
11789SOL    HW247399   9.587   3.842   6.811
11790SOL     OW47400   9.499   4.244   7.308
11790SOL    HW147401   9.558   4.204   7.238
11790SOL    HW247402   9.441   4.315   7.267
11791SOL     OW47403   9.469   4.861   7.052
11791SOL    HW147404   9.491   4.800   7.128
11791SOL    HW247405   9.479   4.812   6.966
11792SOL     OW47406   9.541   7.299   0.483
11792SOL    HW147407   9.575   7.376   0.537
11792SOL    HW247408   9.585   7.299   0.393
11793SOL     OW47409   9.337   7.182   0.117
11793SOL    HW147410   9.318   7.086   0.138
11793SOL    HW247411   9.304   7.240   0.192
11794SOL     OW47412   9.617   5.799   1.231
11794SOL    HW147413   9.594   5.836   1.321
11794SOL    HW247414   9.587   5.704   1.225
11795SOL     OW47415   9.617   5.649   0.618
11795SOL    HW147416   9.606   5.743   0.651
11795SOL    HW247417   9.612   5.586   0.695
11796SOL     OW47418   9.562   7.150   1.744
11796SOL    HW147419   9.532   7.207   1.820
11796SOL    HW247420   9.555   7.053   1.770
11797SOL     OW47421   9.541   7.299   2.345
11797SOL    HW147422   9.575   7.376   2.399
11797SOL    HW247423   9.585   7.299   2.255
11798SOL     OW47424   9.617   5.649   2.480
11798SOL    HW147425   9.606   5.743   2.513
11798SOL    HW247426   9.612   5.586   2.557
11799SOL     OW47427   9.617   5.799   4.955
11799SOL    HW147428   9.594   5.836   5.045
11799SOL    HW247429   9.587   5.704   4.949
11800SOL     OW47430   9.562   7.150   5.468
11800SOL    HW147431   9.532   7.207   5.544
11800SOL    HW247432   9.555   7.053   5.494
11801SOL     OW47433   9.469   6.723   5.190
11801SOL    HW147434   9.491   6.662   5.266
11801SOL    HW247435   9.479   6.674   5.104
11802SOL     OW47436   9.541   7.299   6.069
11802SOL    HW147437   9.575   7.376   6.123
11802SOL    HW247438   9.585   7.299   5.979
11803SOL     OW47439   9.432   6.229   6.149
11803SOL    HW147440   9.387   6.141   6.166
11803SOL    HW247441   9.431   6.283   6.233
11804SOL     OW47442   9.337   7.182   5.703
11804SOL    HW147443   9.318   7.086   5.724
11804SOL    HW247444   9.304   7.240   5.778
11805SOL     OW47445   9.617   5.799   6.817
11805SOL    HW147446   9.594   5.836   6.907
11805SOL    HW247447   9.587   5.704   6.811
11806SOL     OW47448   9.617   5.649   6.204
11806SOL    HW147449   9.606   5.743   6.237
11806SOL    HW247450   9.612   5.586   6.281
11807SOL     OW47451   9.499   6.106   7.308
11807SOL    HW147452   9.558   6.066   7.238
11807SOL    HW247453   9.441   6.177   7.267
11808SOL     OW47454   9.469   6.723   7.052
11808SOL    HW147455   9.491   6.662   7.128
11808SOL    HW247456   9.479   6.674   6.966
11809SOL     OW47457   9.432   8.091   0.563
11809SOL    HW147458   9.387   8.003   0.580
11809SOL    HW247459   9.431   8.145   0.647
11810SOL     OW47460   9.617   7.661   1.231
11810SOL    HW147461   9.594   7.698   1.321
11810SOL    HW247462   9.587   7.566   1.225
11811SOL     OW47463   9.617   7.511   0.618
11811SOL    HW147464   9.606   7.605   0.651
11811SOL    HW247465   9.612   7.448   0.695
11812SOL     OW47466   9.318   8.774   0.200
11812SOL    HW147467   9.225   8.795   0.169
11812SOL    HW247468   9.328   8.675   0.213
11813SOL     OW47469   9.469   8.585   1.466
11813SOL    HW147470   9.491   8.524   1.542
11813SOL    HW247471   9.479   8.536   1.380
11814SOL     OW47472   9.349   8.525   0.300
11814SOL    HW147473   9.448   8.514   0.291
11814SOL    HW247474   9.309   8.439   0.332
11815SOL     OW47475   9.432   8.091   2.425
11815SOL    HW147476   9.387   8.003   2.442
11815SOL    HW247477   9.431   8.145   2.509
11816SOL     OW47478   9.617   7.661   3.093
11816SOL    HW147479   9.594   7.698   3.183
11816SOL    HW247480   9.587   7.566   3.087
11817SOL     OW47481   9.432   8.091   4.287
11817SOL    HW147482   9.387   8.003   4.304
11817SOL    HW247483   9.431   8.145   4.371
11818SOL     OW47484   9.469   8.585   5.190
11818SOL    HW147485   9.491   8.524   5.266
11818SOL    HW247486   9.479   8.536   5.104
11819SOL     OW47487   9.432   8.091   6.149
11819SOL    HW147488   9.387   8.003   6.166
11819SOL    HW247489   9.431   8.145   6.233
11820SOL     OW47490   9.617   7.661   6.817
11820SOL    HW147491   9.594   7.698   6.907
11820SOL    HW247492   9.587   7.566   6.811
11821SOL     OW47493   9.617   7.511   6.204
11821SOL    HW147494   9.606   7.605   6.237
11821SOL    HW247495   9.612   7.448   6.281
11822SOL     OW47496   9.499   7.968   7.308
11822SOL    HW147497   9.558   7.928   7.238
11822SOL    HW247498   9.441   8.039   7.267
11823SOL     OW47499   9.469   8.585   7.052
11823SOL    HW147500   9.491   8.524   7.128
11823SOL    HW247501   9.479   8.536   6.966
11824SOL     OW47502   9.349   8.525   5.886
11824SOL    HW147503   9.448   8.514   5.877
11824SOL    HW247504   9.309   8.439   5.918
   9.48825   8.49895   7.40874
