256-Lipid DPPC Bilayer in water
39342
    1DPPC    C1    1   5.861   5.488   5.858
    1DPPC    C2    2   5.873   5.646   5.693
    1DPPC    C3    3   5.735   5.466   5.641
    1DPPC    N4    4   5.779   5.551   5.753
    1DPPC    C5    5   5.672   5.624   5.822
    1DPPC    C6    6   5.583   5.722   5.747
    1DPPC    O7    7   5.638   5.849   5.712
    1DPPC    P8    8   5.515   5.952   5.705
    1DPPC    O9    9   5.600   6.072   5.695
    1DPPC   O10   10   5.442   5.913   5.828
    1DPPC   O11   11   5.432   5.925   5.569
    1DPPC   C12   12   5.458   6.036   5.483
    1DPPC   C13   13   5.414   6.014   5.338
    1DPPC   O14   14   5.279   6.054   5.310
    1DPPC   C15   15   5.261   6.186   5.286
    1DPPC   O16   16   5.348   6.261   5.331
    1DPPC   C17   17   5.125   6.234   5.236
    1DPPC   C18   18   5.129   6.352   5.139
    1DPPC   C19   19   5.014   6.361   5.039
    1DPPC   C20   20   5.016   6.484   4.947
    1DPPC   C21   21   5.131   6.468   4.847
    1DPPC   C22   22   5.126   6.570   4.733
    1DPPC   C23   23   5.236   6.517   4.640
    1DPPC   C24   24   5.228   6.599   4.512
    1DPPC   C25   25   5.310   6.520   4.409
    1DPPC   C26   26   5.294   6.596   4.277
    1DPPC   C27   27   5.353   6.527   4.154
    1DPPC   C28   28   5.320   6.604   4.025
    1DPPC   C29   29   5.378   6.535   3.902
    1DPPC   C30   30   5.328   6.585   3.767
    1DPPC   C31   31   5.355   6.736   3.758
    1DPPC   C32   32   5.461   5.874   5.296
    1DPPC   O33   33   5.555   5.883   5.190
    1DPPC   C34   34   5.644   5.780   5.177
    1DPPC   O35   35   5.644   5.697   5.268
    1DPPC   C36   36   5.735   5.778   5.054
    1DPPC   C37   37   5.717   5.645   4.981
    1DPPC   C38   38   5.804   5.634   4.856
    1DPPC   C39   39   5.948   5.632   4.909
    1DPPC   C40   40   6.054   5.627   4.799
    1DPPC   C41   41   6.047   5.502   4.712
    1DPPC   C42   42   6.100   5.540   4.573
    1DPPC   C43   43   6.085   5.416   4.485
    1DPPC   C44   44   6.140   5.445   4.345
    1DPPC   C45   45   6.117   5.336   4.240
    1DPPC   C46   46   6.158   5.400   4.107
    1DPPC   C47   47   6.070   5.516   4.059
    1DPPC   C48   48   6.134   5.583   3.937
    1DPPC   C49   49   6.043   5.683   3.865
    1DPPC   C50   50   6.018   5.793   3.969
    2DPPC    C1   51   3.525   0.767   2.005
    2DPPC    C2   52   3.681   0.875   1.876
    2DPPC    C3   53   3.476   0.981   1.932
    2DPPC    N4   54   3.586   0.900   1.986
    2DPPC    C5   55   3.635   0.951   2.114
    2DPPC    C6   56   3.699   1.090   2.114
    2DPPC    O7   57   3.720   1.138   2.247
    2DPPC    P8   58   3.814   1.268   2.254
    2DPPC    O9   59   3.750   1.358   2.156
    2DPPC   O10   60   3.957   1.233   2.269
    2DPPC   O11   61   3.763   1.308   2.402
    2DPPC   C12   62   3.833   1.236   2.505
    2DPPC   C13   63   3.815   1.274   2.652
    2DPPC   O14   64   3.920   1.210   2.727
    2DPPC   C15   65   4.044   1.258   2.701
    2DPPC   O16   66   4.059   1.376   2.670
    2DPPC   C17   67   4.158   1.176   2.761
    2DPPC   C18   68   4.125   1.110   2.895
    2DPPC   C19   69   4.226   1.000   2.927
    2DPPC   C20   70   4.204   0.939   3.066
    2DPPC   C21   71   4.326   0.849   3.084
    2DPPC   C22   72   4.302   0.772   3.214
    2DPPC   C23   73   4.257   0.860   3.331
    2DPPC   C24   74   4.233   0.759   3.444
    2DPPC   C25   75   4.205   0.839   3.571
    2DPPC   C26   76   4.102   0.765   3.656
    2DPPC   C27   77   4.047   0.868   3.756
    2DPPC   C28   78   3.966   0.787   3.857
    2DPPC   C29   79   3.959   0.879   3.979
    2DPPC   C30   80   3.879   0.810   4.089
    2DPPC   C31   81   3.735   0.796   4.039
    2DPPC   C32   82   3.671   1.237   2.686
    2DPPC   O33   83   3.646   1.277   2.821
    2DPPC   C34   84   3.519   1.256   2.865
    2DPPC   O35   85   3.425   1.237   2.788
    2DPPC   C36   86   3.490   1.295   3.010
    2DPPC   C37   87   3.358   1.244   3.069
    2DPPC   C38   88   3.348   1.287   3.215
    2DPPC   C39   89   3.476   1.246   3.288
    2DPPC   C40   90   3.469   1.331   3.415
    2DPPC   C41   91   3.467   1.480   3.380
    2DPPC   C42   92   3.503   1.579   3.491
    2DPPC   C43   93   3.460   1.721   3.454
    2DPPC   C44   94   3.308   1.725   3.435
    2DPPC   C45   95   3.259   1.869   3.419
    2DPPC   C46   96   3.123   1.870   3.349
    2DPPC   C47   97   3.088   2.012   3.305
    2DPPC   C48   98   2.962   1.984   3.224
    2DPPC   C49   99   2.837   1.927   3.291
    2DPPC   C50  100   2.735   1.887   3.184
    3DPPC    C1  101   6.493   4.410   5.454
    3DPPC    C2  102   6.517   4.420   5.694
    3DPPC    C3  103   6.587   4.237   5.576
    3DPPC    N4  104   6.582   4.384   5.568
    3DPPC    C5  105   6.703   4.463   5.541
    3DPPC    C6  106   6.704   4.608   5.589
    3DPPC    O7  107   6.616   4.698   5.522
    3DPPC    P8  108   6.629   4.847   5.583
    3DPPC    O9  109   6.678   4.829   5.721
    3DPPC   O10  110   6.512   4.929   5.542
    3DPPC   O11  111   6.763   4.890   5.504
    3DPPC   C12  112   6.719   4.914   5.370
    3DPPC   C13  113   6.831   4.963   5.277
    3DPPC   O14  114   6.777   5.006   5.151
    3DPPC   C15  115   6.842   5.088   5.064
    3DPPC   O16  116   6.926   5.163   5.114
    3DPPC   C17  117   6.778   5.110   4.927
    3DPPC   C18  118   6.864   5.095   4.802
    3DPPC   C19  119   6.799   5.074   4.665
    3DPPC   C20  120   6.879   5.147   4.557
    3DPPC   C21  121   6.850   5.073   4.426
    3DPPC   C22  122   6.917   5.138   4.305
    3DPPC   C23  123   6.882   5.055   4.182
    3DPPC   C24  124   6.929   4.910   4.199
    3DPPC   C25  125   6.876   4.825   4.084
    3DPPC   C26  126   6.942   4.688   4.068
    3DPPC   C27  127   6.885   4.598   3.958
    3DPPC   C28  128   6.930   4.452   3.968
    3DPPC   C29  129   6.890   4.395   4.104
    3DPPC   C30  130   6.939   4.252   4.125
    3DPPC   C31  131   6.862   4.169   4.022
    3DPPC   C32  132   6.926   4.843   5.280
    3DPPC   O33  133   6.869   4.740   5.198
    3DPPC   C34  134   6.941   4.627   5.179
    3DPPC   O35  135   7.055   4.624   5.226
    3DPPC   C36  136   6.904   4.520   5.076
    3DPPC   C37  137   6.803   4.427   5.142
    3DPPC   C38  138   6.764   4.308   5.053
    3DPPC   C39  139   6.718   4.368   4.920
    3DPPC   C40  140   6.703   4.257   4.815
    3DPPC   C41  141   6.699   4.309   4.671
    3DPPC   C42  142   6.828   4.386   4.643
    3DPPC   C43  143   6.850   4.434   4.499
    3DPPC   C44  144   6.905   4.575   4.477
    3DPPC   C45  145   7.056   4.581   4.502
    3DPPC   C46  146   7.110   4.723   4.515
    3DPPC   C47  147   7.251   4.730   4.573
    3DPPC   C48  148   7.254   4.685   4.719
    3DPPC   C49  149   7.215   4.800   4.813
    3DPPC   C50  150   7.218   4.758   4.960
    4DPPC    C1  151   8.584   4.002   1.991
    4DPPC    C2  152   8.492   4.130   1.847
    4DPPC    C3  153   8.399   3.904   1.851
    4DPPC    N4  154   8.451   4.016   1.931
    4DPPC    C5  155   8.355   4.060   2.034
    4DPPC    C6  156   8.217   4.095   1.978
    4DPPC    O7  157   8.196   4.200   1.883
    4DPPC    P8  158   8.044   4.195   1.829
    4DPPC    O9  159   7.994   4.056   1.840
    4DPPC   O10  160   8.037   4.276   1.706
    4DPPC   O11  161   7.958   4.271   1.941
    4DPPC   C12  162   8.021   4.399   1.958
    4DPPC   C13  163   7.935   4.513   1.903
    4DPPC   O14  164   7.992   4.642   1.933
    4DPPC   C15  165   7.923   4.752   1.894
    4DPPC   O16  166   7.838   4.739   1.805
    4DPPC   C17  167   7.979   4.885   1.942
    4DPPC   C18  168   7.896   4.940   2.058
    4DPPC   C19  169   7.871   4.842   2.173
    4DPPC   C20  170   7.998   4.818   2.255
    4DPPC   C21  171   7.953   4.743   2.381
    4DPPC   C22  172   7.874   4.853   2.453
    4DPPC   C23  173   7.817   4.794   2.582
    4DPPC   C24  174   7.751   4.905   2.664
    4DPPC   C25  175   7.673   4.848   2.782
    4DPPC   C26  176   7.550   4.776   2.725
    4DPPC   C27  177   7.464   4.710   2.833
    4DPPC   C28  178   7.394   4.812   2.923
    4DPPC   C29  179   7.327   4.724   3.029
    4DPPC   C30  180   7.228   4.821   3.093
    4DPPC   C31  181   7.109   4.735   3.135
    4DPPC   C32  182   7.796   4.481   1.960
    4DPPC   O33  183   7.782   4.503   2.100
    4DPPC   C34  184   7.671   4.446   2.153
    4DPPC   O35  185   7.619   4.346   2.103
    4DPPC   C36  186   7.630   4.493   2.292
    4DPPC   C37  187   7.577   4.372   2.370
    4DPPC   C38  188   7.593   4.375   2.522
    4DPPC   C39  189   7.548   4.235   2.564
    4DPPC   C40  190   7.558   4.211   2.715
    4DPPC   C41  191   7.478   4.297   2.814
    4DPPC   C42  192   7.498   4.250   2.958
    4DPPC   C43  193   7.400   4.332   3.042
    4DPPC   C44  194   7.406   4.286   3.187
    4DPPC   C45  195   7.374   4.137   3.202
    4DPPC   C46  196   7.357   4.099   3.349
    4DPPC   C47  197   7.467   4.141   3.447
    4DPPC   C48  198   7.467   4.080   3.587
    4DPPC   C49  199   7.326   4.087   3.646
    4DPPC   C50  200   7.331   4.110   3.797
    5DPPC    C1  201   8.717   4.684   5.851
    5DPPC    C2  202   8.894   4.839   5.865
    5DPPC    C3  203   8.875   4.670   6.023
    5DPPC    N4  204   8.861   4.697   5.879
    5DPPC    C5  205   8.946   4.612   5.794
    5DPPC    C6  206   8.893   4.472   5.764
    5DPPC    O7  207   8.877   4.384   5.875
    5DPPC    P8  208   8.803   4.249   5.829
    5DPPC    O9  209   8.765   4.145   5.927
    5DPPC   O10  210   8.830   4.215   5.687
    5DPPC   O11  211   8.667   4.335   5.825
    5DPPC   C12  212   8.582   4.245   5.752
    5DPPC   C13  213   8.451   4.302   5.700
    5DPPC   O14  214   8.371   4.195   5.647
    5DPPC   C15  215   8.242   4.212   5.607
    5DPPC   O16  216   8.191   4.323   5.592
    5DPPC   C17  217   8.170   4.087   5.556
    5DPPC   C18  218   8.204   4.066   5.408
    5DPPC   C19  219   8.131   3.942   5.355
    5DPPC   C20  220   8.168   3.917   5.209
    5DPPC   C21  221   8.315   3.874   5.213
    5DPPC   C22  222   8.365   3.861   5.069
    5DPPC   C23  223   8.356   3.999   5.004
    5DPPC   C24  224   8.351   3.987   4.851
    5DPPC   C25  225   8.495   3.957   4.807
    5DPPC   C26  226   8.481   3.964   4.655
    5DPPC   C27  227   8.608   3.919   4.583
    5DPPC   C28  228   8.576   3.917   4.433
    5DPPC   C29  229   8.690   3.848   4.358
    5DPPC   C30  230   8.651   3.825   4.212
    5DPPC   C31  231   8.736   3.719   4.140
    5DPPC   C32  232   8.501   4.416   5.610
    5DPPC   O33  233   8.565   4.368   5.492
    5DPPC   C34  234   8.648   4.454   5.428
    5DPPC   O35  235   8.696   4.544   5.497
    5DPPC   C36  236   8.709   4.413   5.294
    5DPPC   C37  237   8.858   4.432   5.268
    5DPPC   C38  238   8.897   4.399   5.123
    5DPPC   C39  239   9.049   4.394   5.106
    5DPPC   C40  240   9.101   4.330   4.978
    5DPPC   C41  241   9.072   4.180   4.971
    5DPPC   C42  242   9.175   4.115   4.880
    5DPPC   C43  243   9.179   4.178   4.740
    5DPPC   C44  244   9.073   4.118   4.647
    5DPPC   C45  245   9.073   4.212   4.526
    5DPPC   C46  246   8.950   4.177   4.443
    5DPPC   C47  247   8.966   4.240   4.304
    5DPPC   C48  248   8.961   4.125   4.202
    5DPPC   C49  249   8.944   4.186   4.063
    5DPPC   C50  250   8.940   4.087   3.946
    6DPPC    C1  251   6.251   0.553   5.776
    6DPPC    C2  252   6.255   0.736   5.636
    6DPPC    C3  253   6.446   0.603   5.642
    6DPPC    N4  254   6.299   0.597   5.644
    6DPPC    C5  255   6.257   0.518   5.528
    6DPPC    C6  256   6.223   0.371   5.553
    6DPPC    O7  257   6.342   0.302   5.591
    6DPPC    P8  258   6.303   0.147   5.614
    6DPPC    O9  259   6.229   0.091   5.499
    6DPPC   O10  260   6.236   0.160   5.746
    6DPPC   O11  261   6.445   0.074   5.632
    6DPPC   C12  262   6.474   0.005   5.510
    6DPPC   C13  263   6.614  -0.057   5.512
    6DPPC   O14  264   6.707   0.007   5.424
    6DPPC   C15  265   6.839   0.011   5.455
    6DPPC   O16  266   6.885  -0.027   5.563
    6DPPC   C17  267   6.916   0.109   5.365
    6DPPC   C18  268   7.068   0.092   5.368
    6DPPC   C19  269   7.132   0.178   5.260
    6DPPC   C20  270   7.283   0.187   5.283
    6DPPC   C21  271   7.361   0.262   5.175
    6DPPC   C22  272   7.470   0.349   5.238
    6DPPC   C23  273   7.519   0.450   5.134
    6DPPC   C24  274   7.567   0.387   5.003
    6DPPC   C25  275   7.602   0.507   4.915
    6DPPC   C26  276   7.648   0.470   4.773
    6DPPC   C27  277   7.704   0.589   4.694
    6DPPC   C28  278   7.839   0.631   4.751
    6DPPC   C29  279   7.910   0.748   4.683
    6DPPC   C30  280   8.038   0.770   4.764
    6DPPC   C31  281   8.008   0.836   4.899
    6DPPC   C32  282   6.588  -0.208   5.501
    6DPPC   O33  283   6.513  -0.229   5.381
    6DPPC   C34  284   6.497  -0.359   5.343
    6DPPC   O35  285   6.538  -0.446   5.419
    6DPPC   C36  286   6.413  -0.393   5.220
    6DPPC   C37  287   6.453  -0.340   5.082
    6DPPC   C38  288   6.353  -0.402   4.984
    6DPPC   C39  289   6.379  -0.372   4.837
    6DPPC   C40  290   6.263  -0.405   4.743
    6DPPC   C41  291   6.307  -0.457   4.606
    6DPPC   C42  292   6.395  -0.582   4.600
    6DPPC   C43  293   6.524  -0.559   4.522
    6DPPC   C44  294   6.553  -0.671   4.422
    6DPPC   C45  295   6.654  -0.636   4.313
    6DPPC   C46  296   6.684  -0.771   4.248
    6DPPC   C47  297   6.816  -0.766   4.170
    6DPPC   C48  298   6.815  -0.671   4.050
    6DPPC   C49  299   6.961  -0.651   4.008
    6DPPC   C50  300   6.956  -0.547   3.896
    7DPPC    C1  301   2.983   1.500   5.804
    7DPPC    C2  302   2.791   1.458   5.934
    7DPPC    C3  303   2.805   1.442   5.682
    7DPPC    N4  304   2.865   1.414   5.814
    7DPPC    C5  305   2.910   1.275   5.823
    7DPPC    C6  306   2.806   1.169   5.862
    7DPPC    O7  307   2.726   1.149   5.745
    7DPPC    P8  308   2.603   1.055   5.788
    7DPPC    O9  309   2.513   1.160   5.842
    7DPPC   O10  310   2.668   0.954   5.874
    7DPPC   O11  311   2.581   1.007   5.636
    7DPPC   C12  312   2.531   1.108   5.549
    7DPPC   C13  313   2.541   1.056   5.405
    7DPPC   O14  314   2.432   0.977   5.358
    7DPPC   C15  315   2.310   1.031   5.330
    7DPPC   O16  316   2.268   1.134   5.381
    7DPPC   C17  317   2.210   0.935   5.264
    7DPPC   C18  318   2.258   0.930   5.119
    7DPPC   C19  319   2.199   0.815   5.037
    7DPPC   C20  320   2.050   0.848   5.030
    7DPPC   C21  321   1.976   0.760   4.929
    7DPPC   C22  322   2.044   0.761   4.792
    7DPPC   C23  323   2.054   0.894   4.717
    7DPPC   C24  324   2.124   0.886   4.581
    7DPPC   C25  325   2.141   1.025   4.518
    7DPPC   C26  326   2.003   1.076   4.475
    7DPPC   C27  327   2.013   1.196   4.380
    7DPPC   C28  328   2.092   1.166   4.253
    7DPPC   C29  329   2.018   1.060   4.170
    7DPPC   C30  330   2.099   1.054   4.041
    7DPPC   C31  331   2.068   1.173   3.951
    7DPPC   C32  332   2.678   0.987   5.398
    7DPPC   O33  333   2.774   1.092   5.413
    7DPPC   C34  334   2.902   1.047   5.408
    7DPPC   O35  335   2.940   0.930   5.419
    7DPPC   C36  336   3.011   1.155   5.406
    7DPPC   C37  337   2.995   1.247   5.285
    7DPPC   C38  338   3.096   1.361   5.288
    7DPPC   C39  339   3.079   1.446   5.161
    7DPPC   C40  340   2.937   1.501   5.167
    7DPPC   C41  341   2.903   1.556   5.028
    7DPPC   C42  342   2.916   1.448   4.921
    7DPPC   C43  343   2.885   1.473   4.773
    7DPPC   C44  344   2.893   1.349   4.683
    7DPPC   C45  345   2.854   1.392   4.541
    7DPPC   C46  346   2.877   1.280   4.440
    7DPPC   C47  347   2.834   1.327   4.301
    7DPPC   C48  348   2.858   1.230   4.184
    7DPPC   C49  349   2.822   1.284   4.046
    7DPPC   C50  350   2.826   1.175   3.938
    8DPPC    C1  351   8.534   5.777   4.916
    8DPPC    C2  352   8.723   5.714   5.052
    8DPPC    C3  353   8.575   5.894   5.109
    8DPPC    N4  354   8.583   5.758   5.053
    8DPPC    C5  355   8.492   5.672   5.130
    8DPPC    C6  356   8.501   5.626   5.275
    8DPPC    O7  357   8.620   5.553   5.309
    8DPPC    P8  358   8.605   5.498   5.459
    8DPPC    O9  359   8.546   5.606   5.543
    8DPPC   O10  360   8.726   5.423   5.501
    8DPPC   O11  361   8.483   5.396   5.440
    8DPPC   C12  362   8.520   5.309   5.333
    8DPPC   C13  363   8.428   5.194   5.292
    8DPPC   O14  364   8.489   5.095   5.208
    8DPPC   C15  365   8.533   4.978   5.260
    8DPPC   O16  366   8.555   4.959   5.380
    8DPPC   C17  367   8.564   4.877   5.150
    8DPPC   C18  368   8.444   4.826   5.069
    8DPPC   C19  369   8.367   4.933   4.991
    8DPPC   C20  370   8.292   4.865   4.876
    8DPPC   C21  371   8.146   4.842   4.914
    8DPPC   C22  372   8.074   4.815   4.782
    8DPPC   C23  373   8.113   4.922   4.680
    8DPPC   C24  374   8.041   4.906   4.547
    8DPPC   C25  375   8.077   5.029   4.463
    8DPPC   C26  376   8.025   5.024   4.320
    8DPPC   C27  377   8.074   5.146   4.242
    8DPPC   C28  378   8.225   5.139   4.221
    8DPPC   C29  379   8.263   5.025   4.126
    8DPPC   C30  380   8.402   5.029   4.062
    8DPPC   C31  381   8.455   4.891   4.026
    8DPPC   C32  382   8.302   5.253   5.228
    8DPPC   O33  383   8.307   5.367   5.141
    8DPPC   C34  384   8.185   5.407   5.098
    8DPPC   O35  385   8.077   5.377   5.148
    8DPPC   C36  386   8.193   5.496   4.974
    8DPPC   C37  387   8.263   5.437   4.851
    8DPPC   C38  388   8.295   5.531   4.735
    8DPPC   C39  389   8.193   5.494   4.627
    8DPPC   C40  390   8.244   5.558   4.498
    8DPPC   C41  391   8.147   5.526   4.383
    8DPPC   C42  392   8.214   5.585   4.258
    8DPPC   C43  393   8.130   5.567   4.132
    8DPPC   C44  394   8.198   5.632   4.011
    8DPPC   C45  395   8.117   5.583   3.892
    8DPPC   C46  396   8.067   5.439   3.905
    8DPPC   C47  397   8.023   5.376   3.772
    8DPPC   C48  398   7.950   5.246   3.805
    8DPPC   C49  399   7.923   5.165   3.678
    8DPPC   C50  400   7.895   5.018   3.708
    9DPPC    C1  401   3.202   2.903   6.343
    9DPPC    C2  402   3.066   2.742   6.471
    9DPPC    C3  403   2.995   2.965   6.434
    9DPPC    N4  404   3.067   2.852   6.374
    9DPPC    C5  405   3.002   2.799   6.253
    9DPPC    C6  406   2.943   2.903   6.159
    9DPPC    O7  407   3.033   2.960   6.064
    9DPPC    P8  408   2.947   3.007   5.936
    9DPPC    O9  409   3.018   3.127   5.890
    9DPPC   O10  410   2.808   3.014   5.987
    9DPPC   O11  411   2.949   2.877   5.841
    9DPPC   C12  412   3.072   2.902   5.772
    9DPPC   C13  413   3.134   2.767   5.732
    9DPPC   O14  414   3.260   2.785   5.668
    9DPPC   C15  415   3.345   2.679   5.663
    9DPPC   O16  416   3.356   2.608   5.763
    9DPPC   C17  417   3.458   2.693   5.561
    9DPPC   C18  418   3.422   2.653   5.418
    9DPPC   C19  419   3.545   2.644   5.328
    9DPPC   C20  420   3.508   2.641   5.180
    9DPPC   C21  421   3.630   2.615   5.091
    9DPPC   C22  422   3.604   2.586   4.943
    9DPPC   C23  423   3.737   2.577   4.868
    9DPPC   C24  424   3.729   2.500   4.736
    9DPPC   C25  425   3.867   2.487   4.672
    9DPPC   C26  426   3.847   2.369   4.577
    9DPPC   C27  427   3.964   2.360   4.479
    9DPPC   C28  428   3.950   2.244   4.380
    9DPPC   C29  429   4.079   2.247   4.297
    9DPPC   C30  430   4.206   2.209   4.373
    9DPPC   C31  431   4.310   2.190   4.262
    9DPPC   C32  432   3.025   2.706   5.644
    9DPPC   O33  433   2.999   2.782   5.525
    9DPPC   C34  434   2.903   2.738   5.440
    9DPPC   O35  435   2.817   2.651   5.459
    9DPPC   C36  436   2.914   2.816   5.309
    9DPPC   C37  437   2.897   2.720   5.191
    9DPPC   C38  438   2.904   2.800   5.061
    9DPPC   C39  439   2.799   2.911   5.069
    9DPPC   C40  440   2.802   2.994   4.941
    9DPPC   C41  441   2.682   3.088   4.942
    9DPPC   C42  442   2.669   3.177   4.818
    9DPPC   C43  443   2.558   3.281   4.834
    9DPPC   C44  444   2.539   3.374   4.714
    9DPPC   C45  445   2.440   3.327   4.607
    9DPPC   C46  446   2.297   3.306   4.658
    9DPPC   C47  447   2.216   3.246   4.543
    9DPPC   C48  448   2.273   3.110   4.503
    9DPPC   C49  449   2.161   3.005   4.502
    9DPPC   C50  450   2.210   2.867   4.460
   10DPPC    C1  451   8.413   6.181   5.718
   10DPPC    C2  452   8.522   6.374   5.661
   10DPPC    C3  453   8.520   6.203   5.504
   10DPPC    N4  454   8.435   6.271   5.603
   10DPPC    C5  455   8.315   6.339   5.552
   10DPPC    C6  456   8.206   6.255   5.484
   10DPPC    O7  457   8.095   6.334   5.440
   10DPPC    P8  458   8.001   6.223   5.371
   10DPPC    O9  459   7.909   6.313   5.297
   10DPPC   O10  460   7.961   6.110   5.458
   10DPPC   O11  461   8.109   6.165   5.267
   10DPPC   C12  462   8.104   6.249   5.151
   10DPPC   C13  463   8.232   6.232   5.069
   10DPPC   O14  464   8.261   6.351   4.994
   10DPPC   C15  465   8.383   6.370   4.937
   10DPPC   O16  466   8.479   6.311   4.985
   10DPPC   C17  467   8.388   6.459   4.813
   10DPPC   C18  468   8.398   6.369   4.690
   10DPPC   C19  469   8.524   6.284   4.676
   10DPPC   C20  470   8.494   6.191   4.558
   10DPPC   C21  471   8.442   6.057   4.611
   10DPPC   C22  472   8.440   5.968   4.486
   10DPPC   C23  473   8.581   5.964   4.426
   10DPPC   C24  474   8.574   5.910   4.283
   10DPPC   C25  475   8.709   5.924   4.215
   10DPPC   C26  476   8.711   5.843   4.085
   10DPPC   C27  477   8.848   5.844   4.016
   10DPPC   C28  478   8.953   5.787   4.111
   10DPPC   C29  479   9.094   5.812   4.058
   10DPPC   C30  480   9.146   5.955   4.076
   10DPPC   C31  481   9.292   5.965   4.031
   10DPPC   C32  482   8.233   6.095   5.001
   10DPPC   O33  483   8.114   6.074   4.923
   10DPPC   C34  484   8.114   5.963   4.845
   10DPPC   O35  485   8.216   5.897   4.827
   10DPPC   C36  486   8.009   5.970   4.734
   10DPPC   C37  487   8.001   5.860   4.628
   10DPPC   C38  488   7.885   5.893   4.534
   10DPPC   C39  489   7.887   5.793   4.418
   10DPPC   C40  490   7.807   5.864   4.307
   10DPPC   C41  491   7.812   5.778   4.181
   10DPPC   C42  492   7.714   5.858   4.096
   10DPPC   C43  493   7.703   5.796   3.956
   10DPPC   C44  494   7.759   5.885   3.846
   10DPPC   C45  495   7.739   5.813   3.713
   10DPPC   C46  496   7.786   5.667   3.718
   10DPPC   C47  497   7.767   5.605   3.580
   10DPPC   C48  498   7.863   5.654   3.472
   10DPPC   C49  499   7.822   5.599   3.335
   10DPPC   C50  500   7.933   5.610   3.230
   11DPPC    C1  501   6.458   7.581   5.805
   11DPPC    C2  502   6.540   7.658   6.011
   11DPPC    C3  503   6.578   7.425   5.949
   11DPPC    N4  504   6.568   7.564   5.902
   11DPPC    C5  505   6.684   7.590   5.816
   11DPPC    C6  506   6.768   7.717   5.834
   11DPPC    O7  507   6.697   7.820   5.765
   11DPPC    P8  508   6.754   7.960   5.821
   11DPPC    O9  509   6.804   7.936   5.958
   11DPPC   O10  510   6.649   8.064   5.807
   11DPPC   O11  511   6.868   7.971   5.709
   11DPPC   C12  512   6.809   8.023   5.589
   11DPPC   C13  513   6.912   8.027   5.476
   11DPPC   O14  514   6.889   8.126   5.376
   11DPPC   C15  515   7.001   8.165   5.309
   11DPPC   O16  516   7.109   8.166   5.369
   11DPPC   C17  517   6.971   8.264   5.197
   11DPPC   C18  518   6.844   8.229   5.119
   11DPPC   C19  519   6.827   8.318   4.995
   11DPPC   C20  520   6.832   8.461   5.048
   11DPPC   C21  521   6.866   8.552   4.930
   11DPPC   C22  522   6.830   8.700   4.950
   11DPPC   C23  523   6.848   8.774   4.818
   11DPPC   C24  524   6.808   8.922   4.828
   11DPPC   C25  525   6.794   8.993   4.693
   11DPPC   C26  526   6.698   9.112   4.691
   11DPPC   C27  527   6.561   9.045   4.677
   11DPPC   C28  528   6.525   8.961   4.554
   11DPPC   C29  529   6.381   8.909   4.559
   11DPPC   C30  530   6.357   8.821   4.436
   11DPPC   C31  531   6.211   8.776   4.430
   11DPPC   C32  532   6.938   7.878   5.453
   11DPPC   O33  533   6.815   7.822   5.407
   11DPPC   C34  534   6.827   7.694   5.364
   11DPPC   O35  535   6.919   7.622   5.402
   11DPPC   C36  536   6.716   7.649   5.268
   11DPPC   C37  537   6.721   7.740   5.144
   11DPPC   C38  538   6.603   7.722   5.050
   11DPPC   C39  539   6.626   7.822   4.936
   11DPPC   C40  540   6.771   7.855   4.897
   11DPPC   C41  541   6.763   7.958   4.785
   11DPPC   C42  542   6.904   8.004   4.746
   11DPPC   C43  543   6.946   7.907   4.635
   11DPPC   C44  544   7.090   7.953   4.608
   11DPPC   C45  545   7.088   8.098   4.560
   11DPPC   C46  546   7.013   8.102   4.427
   11DPPC   C47  547   7.025   8.248   4.381
   11DPPC   C48  548   7.170   8.275   4.340
   11DPPC   C49  549   7.173   8.426   4.319
   11DPPC   C50  550   7.314   8.486   4.312
   12DPPC    C1  551   9.341   1.756   5.310
   12DPPC    C2  552   9.556   1.831   5.313
   12DPPC    C3  553   9.450   1.786   5.519
   12DPPC    N4  554   9.468   1.736   5.382
   12DPPC    C5  555   9.517   1.598   5.362
   12DPPC    C6  556   9.453   1.474   5.423
   12DPPC    O7  557   9.476   1.367   5.330
   12DPPC    P8  558   9.423   1.234   5.404
   12DPPC    O9  559   9.429   1.241   5.552
   12DPPC   O10  560   9.476   1.118   5.330
   12DPPC   O11  561   9.266   1.262   5.377
   12DPPC   C12  562   9.229   1.193   5.257
   12DPPC   C13  563   9.080   1.209   5.226
   12DPPC   O14  564   9.030   1.129   5.118
   12DPPC   C15  565   9.001   0.998   5.141
   12DPPC   O16  566   8.996   0.955   5.256
   12DPPC   C17  567   8.937   0.929   5.020
   12DPPC   C18  568   8.894   1.006   4.896
   12DPPC   C19  569   8.787   1.113   4.919
   12DPPC   C20  570   8.766   1.180   4.783
   12DPPC   C21  571   8.665   1.295   4.786
   12DPPC   C22  572   8.643   1.373   4.656
   12DPPC   C23  573   8.580   1.284   4.548
   12DPPC   C24  574   8.525   1.370   4.434
   12DPPC   C25  575   8.415   1.465   4.484
   12DPPC   C26  576   8.385   1.557   4.365
   12DPPC   C27  577   8.297   1.510   4.250
   12DPPC   C28  578   8.153   1.468   4.279
   12DPPC   C29  579   8.074   1.404   4.165
   12DPPC   C30  580   7.933   1.369   4.213
   12DPPC   C31  581   7.944   1.267   4.327
   12DPPC   C32  582   9.051   1.356   5.198
   12DPPC   O33  583   9.127   1.391   5.082
   12DPPC   C34  584   9.109   1.517   5.033
   12DPPC   O35  585   9.057   1.608   5.097
   12DPPC   C36  586   9.200   1.556   4.916
   12DPPC   C37  587   9.147   1.505   4.781
   12DPPC   C38  588   9.029   1.585   4.725
   12DPPC   C39  589   9.024   1.554   4.576
   12DPPC   C40  590   8.908   1.603   4.488
   12DPPC   C41  591   8.919   1.585   4.336
   12DPPC   C42  592   8.823   1.673   4.256
   12DPPC   C43  593   8.815   1.618   4.114
   12DPPC   C44  594   8.704   1.693   4.039
   12DPPC   C45  595   8.740   1.836   4.000
   12DPPC   C46  596   8.627   1.917   3.937
   12DPPC   C47  597   8.500   1.930   4.022
   12DPPC   C48  598   8.420   2.055   3.986
   12DPPC   C49  599   8.286   2.039   4.058
   12DPPC   C50  600   8.213   1.912   4.012
   13DPPC    C1  601   1.648   1.571   5.357
   13DPPC    C2  602   1.780   1.431   5.512
   13DPPC    C3  603   1.617   1.550   5.603
   13DPPC    N4  604   1.647   1.484   5.475
   13DPPC    C5  605   1.568   1.361   5.462
   13DPPC    C6  606   1.418   1.377   5.486
   13DPPC    O7  607   1.323   1.287   5.429
   13DPPC    P8  608   1.175   1.344   5.458
   13DPPC    O9  609   1.166   1.367   5.604
   13DPPC   O10  610   1.085   1.246   5.393
   13DPPC   O11  611   1.178   1.491   5.393
   13DPPC   C12  612   1.084   1.498   5.286
   13DPPC   C13  613   1.083   1.637   5.223
   13DPPC   O14  614   0.996   1.657   5.111
   13DPPC   C15  615   0.862   1.656   5.133
   13DPPC   O16  616   0.818   1.642   5.247
   13DPPC   C17  617   0.771   1.656   5.009
   13DPPC   C18  618   0.753   1.516   4.952
   13DPPC   C19  619   0.660   1.534   4.832
   13DPPC   C20  620   0.610   1.401   4.776
   13DPPC   C21  621   0.500   1.422   4.672
   13DPPC   C22  622   0.357   1.435   4.725
   13DPPC   C23  623   0.253   1.440   4.613
   13DPPC   C24  624   0.114   1.409   4.670
   13DPPC   C25  625   0.020   1.435   4.552
   13DPPC   C26  626   0.038   1.575   4.493
   13DPPC   C27  627  -0.054   1.573   4.370
   13DPPC   C28  628  -0.041   1.697   4.283
   13DPPC   C29  629  -0.175   1.720   4.212
   13DPPC   C30  630  -0.147   1.819   4.099
   13DPPC   C31  631  -0.102   1.956   4.149
   13DPPC   C32  632   1.231   1.655   5.187
   13DPPC   O33  633   1.289   1.547   5.114
   13DPPC   C34  634   1.401   1.582   5.045
   13DPPC   O35  635   1.476   1.669   5.087
   13DPPC   C36  636   1.439   1.487   4.930
   13DPPC   C37  637   1.365   1.527   4.802
   13DPPC   C38  638   1.234   1.449   4.789
   13DPPC   C39  639   1.159   1.481   4.660
   13DPPC   C40  640   1.027   1.403   4.652
   13DPPC   C41  641   0.948   1.441   4.527
   13DPPC   C42  642   0.828   1.346   4.522
   13DPPC   C43  643   0.794   1.334   4.374
   13DPPC   C44  644   0.671   1.244   4.362
   13DPPC   C45  645   0.698   1.105   4.420
   13DPPC   C46  646   0.775   1.015   4.323
   13DPPC   C47  647   0.793   0.880   4.394
   13DPPC   C48  648   0.848   0.775   4.298
   13DPPC   C49  649   0.854   0.630   4.348
   13DPPC   C50  650   0.930   0.617   4.480
   14DPPC    C1  651   8.520   3.350   5.862
   14DPPC    C2  652   8.483   3.518   6.031
   14DPPC    C3  653   8.696   3.445   5.974
   14DPPC    N4  654   8.565   3.479   5.916
   14DPPC    C5  655   8.566   3.594   5.824
   14DPPC    C6  656   8.637   3.581   5.690
   14DPPC    O7  657   8.775   3.545   5.704
   14DPPC    P8  658   8.819   3.452   5.580
   14DPPC    O9  659   8.715   3.346   5.580
   14DPPC   O10  660   8.963   3.419   5.581
   14DPPC   O11  661   8.804   3.574   5.476
   14DPPC   C12  662   8.732   3.526   5.361
   14DPPC   C13  663   8.606   3.610   5.340
   14DPPC   O14  664   8.522   3.550   5.240
   14DPPC   C15  665   8.423   3.469   5.285
   14DPPC   O16  666   8.400   3.461   5.406
   14DPPC   C17  667   8.348   3.392   5.177
   14DPPC   C18  668   8.439   3.286   5.115
   14DPPC   C19  669   8.388   3.219   4.987
   14DPPC   C20  670   8.384   3.315   4.868
   14DPPC   C21  671   8.332   3.261   4.735
   14DPPC   C22  672   8.308   3.372   4.633
   14DPPC   C23  673   8.436   3.452   4.607
   14DPPC   C24  674   8.411   3.561   4.502
   14DPPC   C25  675   8.357   3.494   4.376
   14DPPC   C26  676   8.364   3.599   4.265
   14DPPC   C27  677   8.334   3.546   4.125
   14DPPC   C28  678   8.320   3.651   4.013
   14DPPC   C29  679   8.219   3.758   4.053
   14DPPC   C30  680   8.190   3.829   3.921
   14DPPC   C31  681   8.325   3.879   3.869
   14DPPC   C32  682   8.660   3.742   5.286
   14DPPC   O33  683   8.772   3.737   5.197
   14DPPC   C34  684   8.810   3.861   5.156
   14DPPC   O35  685   8.761   3.960   5.210
   14DPPC   C36  686   8.931   3.860   5.063
   14DPPC   C37  687   8.937   3.744   4.963
   14DPPC   C38  688   8.841   3.780   4.850
   14DPPC   C39  689   8.881   3.699   4.727
   14DPPC   C40  690   8.859   3.548   4.740
   14DPPC   C41  691   8.928   3.478   4.622
   14DPPC   C42  692   8.876   3.335   4.601
   14DPPC   C43  693   8.925   3.272   4.471
   14DPPC   C44  694   8.835   3.163   4.412
   14DPPC   C45  695   8.905   3.034   4.370
   14DPPC   C46  696   8.809   2.957   4.279
   14DPPC   C47  697   8.880   2.825   4.249
   14DPPC   C48  698   8.924   2.818   4.103
   14DPPC   C49  699   9.004   2.690   4.073
   14DPPC   C50  700   9.031   2.659   3.926
   15DPPC    C1  701   5.316   8.107   5.294
   15DPPC    C2  702   5.489   8.220   5.168
   15DPPC    C3  703   5.260   8.300   5.212
   15DPPC    N4  704   5.380   8.236   5.266
   15DPPC    C5  705   5.408   8.296   5.397
   15DPPC    C6  706   5.487   8.211   5.495
   15DPPC    O7  707   5.626   8.201   5.465
   15DPPC    P8  708   5.691   8.067   5.525
   15DPPC    O9  709   5.600   7.961   5.477
   15DPPC   O10  710   5.692   8.110   5.667
   15DPPC   O11  711   5.831   8.080   5.446
   15DPPC   C12  712   5.785   8.066   5.312
   15DPPC   C13  713   5.895   8.122   5.221
   15DPPC   O14  714   5.858   8.139   5.083
   15DPPC   C15  715   5.942   8.203   4.997
   15DPPC   O16  716   6.027   8.275   5.048
   15DPPC   C17  717   5.881   8.231   4.859
   15DPPC   C18  718   5.883   8.380   4.825
   15DPPC   C19  719   5.810   8.461   4.933
   15DPPC   C20  720   5.814   8.610   4.897
   15DPPC   C21  721   5.960   8.654   4.881
   15DPPC   C22  722   5.976   8.801   4.841
   15DPPC   C23  723   5.909   8.822   4.705
   15DPPC   C24  724   5.942   8.966   4.666
   15DPPC   C25  725   5.873   8.998   4.533
   15DPPC   C26  726   5.721   8.999   4.547
   15DPPC   C27  727   5.672   9.041   4.408
   15DPPC   C28  728   5.523   9.074   4.413
   15DPPC   C29  729   5.489   9.153   4.286
   15DPPC   C30  730   5.343   9.192   4.266
   15DPPC   C31  731   5.300   9.277   4.385
   15DPPC   C32  732   6.019   8.036   5.244
   15DPPC   O33  733   6.026   7.916   5.167
   15DPPC   C34  734   6.130   7.831   5.190
   15DPPC   O35  735   6.207   7.855   5.283
   15DPPC   C36  736   6.131   7.706   5.103
   15DPPC   C37  737   6.095   7.577   5.178
   15DPPC   C38  738   6.079   7.455   5.088
   15DPPC   C39  739   5.995   7.492   4.965
   15DPPC   C40  740   5.945   7.374   4.882
   15DPPC   C41  741   6.053   7.271   4.850
   15DPPC   C42  742   5.974   7.160   4.781
   15DPPC   C43  743   6.055   7.078   4.681
   15DPPC   C44  744   5.959   6.981   4.612
   15DPPC   C45  745   6.043   6.885   4.527
   15DPPC   C46  746   6.084   6.962   4.402
   15DPPC   C47  747   5.973   7.023   4.316
   15DPPC   C48  748   6.028   7.093   4.192
   15DPPC   C49  749   5.919   7.158   4.107
   15DPPC   C50  750   5.860   7.274   4.186
   16DPPC    C1  751   9.271   0.832   5.363
   16DPPC    C2  752   9.217   0.835   5.603
   16DPPC    C3  753   9.096   0.692   5.440
   16DPPC    N4  754   9.222   0.756   5.479
   16DPPC    C5  755   9.313   0.642   5.495
   16DPPC    C6  756   9.294   0.550   5.617
   16DPPC    O7  757   9.355   0.421   5.615
   16DPPC    P8  758   9.254   0.314   5.680
   16DPPC    O9  759   9.196   0.396   5.789
   16DPPC   O10  760   9.315   0.183   5.710
   16DPPC   O11  761   9.164   0.291   5.549
   16DPPC   C12  762   9.245   0.223   5.453
   16DPPC   C13  763   9.211   0.263   5.309
   16DPPC   O14  764   9.273   0.384   5.264
   16DPPC   C15  765   9.397   0.372   5.208
   16DPPC   O16  766   9.472   0.285   5.250
   16DPPC   C17  767   9.458   0.483   5.122
   16DPPC   C18  768   9.379   0.613   5.107
   16DPPC   C19  769   9.415   0.685   4.976
   16DPPC   C20  770   9.332   0.625   4.863
   16DPPC   C21  771   9.185   0.642   4.903
   16DPPC   C22  772   9.083   0.584   4.805
   16DPPC   C23  773   9.055   0.670   4.681
   16DPPC   C24  774   8.950   0.594   4.600
   16DPPC   C25  775   8.873   0.652   4.481
   16DPPC   C26  776   8.811   0.541   4.396
   16DPPC   C27  777   8.751   0.608   4.271
   16DPPC   C28  778   8.622   0.530   4.246
   16DPPC   C29  779   8.540   0.559   4.120
   16DPPC   C30  780   8.626   0.507   4.004
   16DPPC   C31  781   8.571   0.533   3.863
   16DPPC   C32  782   9.058   0.270   5.306
   16DPPC   O33  783   8.999   0.140   5.309
   16DPPC   C34  784   8.866   0.133   5.282
   16DPPC   O35  785   8.793   0.208   5.347
   16DPPC   C36  786   8.819  -0.009   5.248
   16DPPC   C37  787   8.768   0.007   5.105
   16DPPC   C38  788   8.793  -0.125   5.032
   16DPPC   C39  789   8.773  -0.118   4.880
   16DPPC   C40  790   8.838  -0.236   4.807
   16DPPC   C41  791   8.819  -0.231   4.655
   16DPPC   C42  792   8.675  -0.264   4.614
   16DPPC   C43  793   8.678  -0.294   4.464
   16DPPC   C44  794   8.549  -0.375   4.449
   16DPPC   C45  795   8.509  -0.401   4.303
   16DPPC   C46  796   8.368  -0.456   4.325
   16DPPC   C47  797   8.290  -0.501   4.201
   16DPPC   C48  798   8.160  -0.549   4.267
   16DPPC   C49  799   8.065  -0.623   4.173
   16DPPC   C50  800   7.946  -0.685   4.246
   17DPPC    C1  801   1.621   0.537   5.648
   17DPPC    C2  802   1.680   0.540   5.425
   17DPPC    C3  803   1.544   0.373   5.498
   17DPPC    N4  804   1.565   0.517   5.513
   17DPPC    C5  805   1.446   0.596   5.479
   17DPPC    C6  806   1.474   0.746   5.468
   17DPPC    O7  807   1.356   0.826   5.465
   17DPPC    P8  808   1.375   0.986   5.461
   17DPPC    O9  809   1.520   1.001   5.483
   17DPPC   O10  810   1.271   1.037   5.553
   17DPPC   O11  811   1.338   0.999   5.305
   17DPPC   C12  812   1.459   1.056   5.254
   17DPPC   C13  813   1.434   1.095   5.108
   17DPPC   O14  814   1.541   1.165   5.043
   17DPPC   C15  815   1.628   1.084   4.977
   17DPPC   O16  816   1.592   0.970   4.949
   17DPPC   C17  817   1.757   1.146   4.921
   17DPPC   C18  818   1.779   1.280   4.992
   17DPPC   C19  819   1.865   1.373   4.906
   17DPPC   C20  820   1.983   1.295   4.848
   17DPPC   C21  821   2.063   1.396   4.766
   17DPPC   C22  822   2.196   1.331   4.728
   17DPPC   C23  823   2.283   1.439   4.664
   17DPPC   C24  824   2.417   1.382   4.617
   17DPPC   C25  825   2.388   1.284   4.503
   17DPPC   C26  826   2.502   1.204   4.440
   17DPPC   C27  827   2.445   1.128   4.320
   17DPPC   C28  828   2.545   1.019   4.281
   17DPPC   C29  829   2.490   0.933   4.167
   17DPPC   C30  830   2.487   1.004   4.031
   17DPPC   C31  831   2.455   0.903   3.921
   17DPPC   C32  832   1.306   1.179   5.106
   17DPPC   O33  833   1.221   1.176   4.990
   17DPPC   C34  834   1.152   1.067   4.948
   17DPPC   O35  835   1.177   0.956   4.995
   17DPPC   C36  836   1.092   1.073   4.808
   17DPPC   C37  837   1.182   1.005   4.705
   17DPPC   C38  838   1.094   0.937   4.601
   17DPPC   C39  839   1.171   0.892   4.476
   17DPPC   C40  840   1.204   1.019   4.398
   17DPPC   C41  841   1.262   0.982   4.261
   17DPPC   C42  842   1.339   1.100   4.201
   17DPPC   C43  843   1.404   1.089   4.063
   17DPPC   C44  844   1.473   1.218   4.018
   17DPPC   C45  845   1.524   1.204   3.874
   17DPPC   C46  846   1.571   1.340   3.820
   17DPPC   C47  847   1.697   1.385   3.893
   17DPPC   C48  848   1.749   1.524   3.855
   17DPPC   C49  849   1.869   1.581   3.931
   17DPPC   C50  850   1.882   1.731   3.902
   18DPPC    C1  851   1.943   7.142   5.775
   18DPPC    C2  852   2.013   6.941   5.850
   18DPPC    C3  853   1.800   6.954   5.734
   18DPPC    N4  854   1.940   7.000   5.737
   18DPPC    C5  855   2.006   6.995   5.606
   18DPPC    C6  856   2.035   6.852   5.560
   18DPPC    O7  857   2.105   6.849   5.436
   18DPPC    P8  858   2.104   6.700   5.374
   18DPPC    O9  859   1.966   6.657   5.405
   18DPPC   O10  860   2.218   6.619   5.422
   18DPPC   O11  861   2.115   6.724   5.215
   18DPPC   C12  862   2.158   6.606   5.148
   18DPPC   C13  863   2.181   6.617   4.997
   18DPPC   O14  864   2.184   6.493   4.925
   18DPPC   C15  865   2.067   6.431   4.895
   18DPPC   O16  866   1.964   6.433   4.962
   18DPPC   C17  867   2.076   6.309   4.804
   18DPPC   C18  868   1.954   6.306   4.711
   18DPPC   C19  869   1.997   6.245   4.577
   18DPPC   C20  870   1.874   6.227   4.488
   18DPPC   C21  871   1.903   6.141   4.364
   18DPPC   C22  872   1.772   6.130   4.287
   18DPPC   C23  873   1.793   6.037   4.167
   18DPPC   C24  874   1.664   6.037   4.085
   18DPPC   C25  875   1.532   6.007   4.158
   18DPPC   C26  876   1.514   5.864   4.209
   18DPPC   C27  877   1.391   5.873   4.300
   18DPPC   C28  878   1.265   5.910   4.222
   18DPPC   C29  879   1.217   5.806   4.121
   18DPPC   C30  880   1.087   5.846   4.052
   18DPPC   C31  881   1.056   5.726   3.961
   18DPPC   C32  882   2.298   6.714   4.981
   18DPPC   O33  883   2.330   6.744   4.844
   18DPPC   C34  884   2.460   6.778   4.823
   18DPPC   O35  885   2.537   6.782   4.918
   18DPPC   C36  886   2.484   6.808   4.674
   18DPPC   C37  887   2.537   6.684   4.601
   18DPPC   C38  888   2.559   6.725   4.455
   18DPPC   C39  889   2.639   6.627   4.368
   18DPPC   C40  890   2.783   6.604   4.412
   18DPPC   C41  891   2.849   6.510   4.311
   18DPPC   C42  892   2.934   6.400   4.374
   18DPPC   C43  893   3.001   6.320   4.262
   18DPPC   C44  894   3.048   6.183   4.310
   18DPPC   C45  895   3.162   6.204   4.409
   18DPPC   C46  896   3.208   6.090   4.500
   18DPPC   C47  897   3.315   6.138   4.598
   18DPPC   C48  898   3.254   6.226   4.708
   18DPPC   C49  899   3.370   6.265   4.800
   18DPPC   C50  900   3.330   6.345   4.924
   19DPPC    C1  901   2.670   5.687   5.910
   19DPPC    C2  902   2.457   5.739   5.852
   19DPPC    C3  903   2.628   5.747   5.681
   19DPPC    N4  904   2.576   5.674   5.798
   19DPPC    C5  905   2.537   5.537   5.761
   19DPPC    C6  906   2.642   5.433   5.723
   19DPPC    O7  907   2.715   5.455   5.602
   19DPPC    P8  908   2.845   5.360   5.600
   19DPPC    O9  909   2.884   5.356   5.743
   19DPPC   O10  910   2.926   5.421   5.492
   19DPPC   O11  911   2.778   5.233   5.528
   19DPPC   C12  912   2.816   5.216   5.391
   19DPPC   C13  913   2.734   5.100   5.334
   19DPPC   O14  914   2.809   5.019   5.243
   19DPPC   C15  915   2.774   4.887   5.244
   19DPPC   O16  916   2.698   4.833   5.324
   19DPPC   C17  917   2.848   4.802   5.140
   19DPPC   C18  918   2.981   4.740   5.184
   19DPPC   C19  919   3.042   4.672   5.062
   19DPPC   C20  920   2.961   4.546   5.033
   19DPPC   C21  921   3.025   4.469   4.917
   19DPPC   C22  922   2.943   4.344   4.883
   19DPPC   C23  923   3.010   4.287   4.758
   19DPPC   C24  924   3.153   4.235   4.772
   19DPPC   C25  925   3.212   4.195   4.637
   19DPPC   C26  926   3.181   4.304   4.534
   19DPPC   C27  927   3.244   4.260   4.401
   19DPPC   C28  928   3.192   4.349   4.289
   19DPPC   C29  929   3.260   4.315   4.156
   19DPPC   C30  930   3.182   4.364   4.035
   19DPPC   C31  931   3.177   4.516   4.048
   19DPPC   C32  932   2.594   5.152   5.299
   19DPPC   O33  933   2.600   5.251   5.197
   19DPPC   C34  934   2.490   5.281   5.122
   19DPPC   O35  935   2.384   5.223   5.145
   19DPPC   C36  936   2.500   5.385   5.010
   19DPPC   C37  937   2.392   5.352   4.907
   19DPPC   C38  938   2.426   5.398   4.765
   19DPPC   C39  939   2.319   5.394   4.656
   19DPPC   C40  940   2.357   5.478   4.534
   19DPPC   C41  941   2.259   5.501   4.419
   19DPPC   C42  942   2.314   5.603   4.319
   19DPPC   C43  943   2.460   5.563   4.295
   19DPPC   C44  944   2.523   5.653   4.189
   19DPPC   C45  945   2.667   5.602   4.175
   19DPPC   C46  946   2.727   5.662   4.048
   19DPPC   C47  947   2.878   5.636   4.037
   19DPPC   C48  948   2.947   5.690   4.162
   19DPPC   C49  949   3.100   5.695   4.146
   19DPPC   C50  950   3.175   5.739   4.272
   20DPPC    C1  951   6.820   5.430   5.333
   20DPPC    C2  952   6.637   5.388   5.192
   20DPPC    C3  953   6.622   5.299   5.401
   20DPPC    N4  954   6.674   5.417   5.331
   20DPPC    C5  955   6.595   5.532   5.380
   20DPPC    C6  956   6.666   5.652   5.441
   20DPPC    O7  957   6.742   5.736   5.353
   20DPPC    P8  958   6.826   5.845   5.434
   20DPPC    O9  959   6.904   5.748   5.514
   20DPPC   O10  960   6.733   5.944   5.493
   20DPPC   O11  961   6.924   5.924   5.333
   20DPPC   C12  962   7.021   5.827   5.294
   20DPPC   C13  963   7.149   5.875   5.224
   20DPPC   O14  964   7.137   5.961   5.110
   20DPPC   C15  965   7.138   6.097   5.098
   20DPPC   O16  966   7.178   6.161   5.194
   20DPPC   C17  967   7.114   6.162   4.961
   20DPPC   C18  968   7.189   6.291   4.925
   20DPPC   C19  969   7.134   6.332   4.788
   20DPPC   C20  970   6.983   6.355   4.801
   20DPPC   C21  971   6.932   6.399   4.664
   20DPPC   C22  972   7.007   6.522   4.612
   20DPPC   C23  973   6.997   6.540   4.460
   20DPPC   C24  974   7.083   6.650   4.398
   20DPPC   C25  975   7.090   6.624   4.247
   20DPPC   C26  976   7.171   6.719   4.158
   20DPPC   C27  977   7.318   6.707   4.200
   20DPPC   C28  978   7.407   6.799   4.118
   20DPPC   C29  979   7.556   6.764   4.119
   20DPPC   C30  980   7.645   6.849   4.028
   20DPPC   C31  981   7.785   6.787   4.028
   20DPPC   C32  982   7.235   5.751   5.202
   20DPPC   O33  983   7.160   5.640   5.154
   20DPPC   C34  984   7.218   5.517   5.154
   20DPPC   O35  985   7.318   5.486   5.219
   20DPPC   C36  986   7.162   5.429   5.042
   20DPPC   C37  987   7.277   5.359   4.970
   20DPPC   C38  988   7.222   5.299   4.840
   20DPPC   C39  989   7.323   5.222   4.754
   20DPPC   C40  990   7.279   5.203   4.609
   20DPPC   C41  991   7.383   5.141   4.515
   20DPPC   C42  992   7.303   5.131   4.385
   20DPPC   C43  993   7.394   5.075   4.275
   20DPPC   C44  994   7.312   5.018   4.159
   20DPPC   C45  995   7.401   4.945   4.059
   20DPPC   C46  996   7.314   4.897   3.943
   20DPPC   C47  997   7.244   5.009   3.866
   20DPPC   C48  998   7.148   4.948   3.764
   20DPPC   C49  999   7.055   5.044   3.690
   20DPPC   C50 1000   7.136   5.132   3.594
   21DPPC    C1 1001   3.275   2.187   6.476
   21DPPC    C2 1002   3.440   2.136   6.309
   21DPPC    C3 1003   3.485   2.081   6.529
   21DPPC    N4 1004   3.375   2.089   6.432
   21DPPC    C5 1005   3.325   1.951   6.422
   21DPPC    C6 1006   3.188   1.925   6.357
   21DPPC    O7 1007   3.184   1.938   6.215
   21DPPC    P8 1008   3.037   1.974   6.158
   21DPPC    O9 1009   2.968   2.065   6.251
   21DPPC   O10 1010   2.996   1.839   6.114
   21DPPC   O11 1011   3.084   2.047   6.022
   21DPPC   C12 1012   3.093   1.943   5.925
   21DPPC   C13 1013   3.091   2.001   5.783
   21DPPC   O14 1014   3.079   1.907   5.675
   21DPPC   C15 1015   2.953   1.871   5.642
   21DPPC   O16 1016   2.863   1.863   5.727
   21DPPC   C17 1017   2.948   1.805   5.504
   21DPPC   C18 1018   3.044   1.882   5.412
   21DPPC   C19 1019   3.013   1.849   5.266
   21DPPC   C20 1020   3.085   1.950   5.177
   21DPPC   C21 1021   3.023   1.930   5.039
   21DPPC   C22 1022   3.081   2.029   4.937
   21DPPC   C23 1023   3.027   2.003   4.796
   21DPPC   C24 1024   3.111   2.065   4.685
   21DPPC   C25 1025   3.024   2.070   4.559
   21DPPC   C26 1026   3.099   2.111   4.432
   21DPPC   C27 1027   3.018   2.099   4.303
   21DPPC   C28 1028   3.107   2.133   4.184
   21DPPC   C29 1029   3.039   2.118   4.048
   21DPPC   C30 1030   3.150   2.081   3.950
   21DPPC   C31 1031   3.116   2.089   3.801
   21DPPC   C32 1032   3.219   2.084   5.778
   21DPPC   O33 1033   3.248   2.167   5.665
   21DPPC   C34 1034   3.180   2.283   5.643
   21DPPC   O35 1035   3.084   2.318   5.712
   21DPPC   C36 1036   3.220   2.359   5.516
   21DPPC   C37 1037   3.138   2.324   5.392
   21DPPC   C38 1038   3.185   2.411   5.276
   21DPPC   C39 1039   3.102   2.374   5.152
   21DPPC   C40 1040   3.133   2.457   5.028
   21DPPC   C41 1041   3.047   2.416   4.908
   21DPPC   C42 1042   3.100   2.474   4.777
   21DPPC   C43 1043   3.252   2.471   4.758
   21DPPC   C44 1044   3.306   2.556   4.643
   21DPPC   C45 1045   3.259   2.503   4.507
   21DPPC   C46 1046   3.289   2.595   4.388
   21DPPC   C47 1047   3.246   2.535   4.255
   21DPPC   C48 1048   3.300   2.622   4.141
   21DPPC   C49 1049   3.229   2.571   4.016
   21DPPC   C50 1050   3.237   2.669   3.899
   22DPPC    C1 1051   1.696   1.982   5.859
   22DPPC    C2 1052   1.880   2.076   5.739
   22DPPC    C3 1053   1.915   1.971   5.958
   22DPPC    N4 1054   1.839   1.969   5.831
   22DPPC    C5 1055   1.855   1.843   5.758
   22DPPC    C6 1056   1.982   1.811   5.678
   22DPPC    O7 1057   1.970   1.692   5.600
   22DPPC    P8 1058   2.117   1.656   5.544
   22DPPC    O9 1059   2.106   1.532   5.464
   22DPPC   O10 1060   2.211   1.668   5.657
   22DPPC   O11 1061   2.121   1.787   5.450
   22DPPC   C12 1062   2.067   1.765   5.319
   22DPPC   C13 1063   2.049   1.900   5.251
   22DPPC   O14 1064   1.989   1.890   5.120
   22DPPC   C15 1065   1.855   1.873   5.113
   22DPPC   O16 1066   1.787   1.859   5.215
   22DPPC   C17 1067   1.795   1.877   4.972
   22DPPC   C18 1068   1.856   1.772   4.880
   22DPPC   C19 1069   1.791   1.776   4.742
   22DPPC   C20 1070   1.833   1.663   4.648
   22DPPC   C21 1071   1.730   1.645   4.536
   22DPPC   C22 1072   1.751   1.516   4.455
   22DPPC   C23 1073   1.622   1.485   4.379
   22DPPC   C24 1074   1.577   1.594   4.281
   22DPPC   C25 1075   1.460   1.522   4.213
   22DPPC   C26 1076   1.410   1.622   4.109
   22DPPC   C27 1077   1.276   1.576   4.051
   22DPPC   C28 1078   1.174   1.546   4.160
   22DPPC   C29 1079   1.047   1.487   4.098
   22DPPC   C30 1080   1.072   1.356   4.023
   22DPPC   C31 1081   0.951   1.293   3.954
   22DPPC   C32 1082   2.181   1.978   5.257
   22DPPC   O33 1083   2.297   1.904   5.221
   22DPPC   C34 1084   2.408   1.981   5.211
   22DPPC   O35 1085   2.391   2.103   5.216
   22DPPC   C36 1086   2.529   1.927   5.135
   22DPPC   C37 1087   2.499   1.812   5.039
   22DPPC   C38 1088   2.602   1.825   4.927
   22DPPC   C39 1089   2.578   1.729   4.810
   22DPPC   C40 1090   2.660   1.772   4.689
   22DPPC   C41 1091   2.632   1.692   4.561
   22DPPC   C42 1092   2.717   1.732   4.441
   22DPPC   C43 1093   2.680   1.660   4.311
   22DPPC   C44 1094   2.779   1.716   4.209
   22DPPC   C45 1095   2.755   1.664   4.067
   22DPPC   C46 1096   2.814   1.748   3.953
   22DPPC   C47 1097   2.776   1.688   3.817
   22DPPC   C48 1098   2.849   1.559   3.778
   22DPPC   C49 1099   2.824   1.504   3.637
   22DPPC   C50 1100   2.860   1.607   3.529
   23DPPC    C1 1101   1.454   7.284   5.341
   23DPPC    C2 1102   1.549   7.086   5.403
   23DPPC    C3 1103   1.400   7.070   5.230
   23DPPC    N4 1104   1.504   7.158   5.283
   23DPPC    C5 1105   1.616   7.170   5.189
   23DPPC    C6 1106   1.612   7.245   5.055
   23DPPC    O7 1107   1.535   7.198   4.944
   23DPPC    P8 1108   1.471   7.320   4.860
   23DPPC    O9 1109   1.516   7.448   4.921
   23DPPC   O10 1110   1.331   7.286   4.831
   23DPPC   O11 1111   1.561   7.294   4.730
   23DPPC   C12 1112   1.515   7.175   4.665
   23DPPC   C13 1113   1.543   7.165   4.515
   23DPPC   O14 1114   1.683   7.168   4.487
   23DPPC   C15 1115   1.728   7.058   4.420
   23DPPC   O16 1116   1.663   6.954   4.424
   23DPPC   C17 1117   1.873   7.082   4.375
   23DPPC   C18 1118   1.889   7.176   4.256
   23DPPC   C19 1119   2.027   7.238   4.239
   23DPPC   C20 1120   2.033   7.354   4.140
   23DPPC   C21 1121   2.015   7.487   4.214
   23DPPC   C22 1122   2.002   7.585   4.098
   23DPPC   C23 1123   1.976   7.729   4.143
   23DPPC   C24 1124   1.953   7.827   4.028
   23DPPC   C25 1125   1.926   7.962   4.094
   23DPPC   C26 1126   1.933   8.077   3.992
   23DPPC   C27 1127   1.888   8.217   4.034
   23DPPC   C28 1128   1.737   8.213   4.055
   23DPPC   C29 1129   1.684   8.197   3.913
   23DPPC   C30 1130   1.533   8.173   3.924
   23DPPC   C31 1131   1.472   8.165   3.783
   23DPPC   C32 1132   1.471   7.290   4.463
   23DPPC   O33 1133   1.501   7.315   4.326
   23DPPC   C34 1134   1.441   7.418   4.261
   23DPPC   O35 1135   1.362   7.487   4.324
   23DPPC   C36 1136   1.493   7.444   4.119
   23DPPC   C37 1137   1.607   7.546   4.116
   23DPPC   C38 1138   1.661   7.567   3.974
   23DPPC   C39 1139   1.718   7.434   3.925
   23DPPC   C40 1140   1.748   7.451   3.776
   23DPPC   C41 1141   1.801   7.325   3.707
   23DPPC   C42 1142   1.685   7.228   3.682
   23DPPC   C43 1143   1.722   7.080   3.691
   23DPPC   C44 1144   1.610   6.996   3.630
   23DPPC   C45 1145   1.583   7.053   3.490
   23DPPC   C46 1146   1.481   6.960   3.425
   23DPPC   C47 1147   1.451   6.998   3.279
   23DPPC   C48 1148   1.362   6.908   3.194
   23DPPC   C49 1149   1.229   6.868   3.258
   23DPPC   C50 1150   1.113   6.915   3.171
   24DPPC    C1 1151   3.259   5.336   5.463
   24DPPC    C2 1152   3.419   5.373   5.632
   24DPPC    C3 1153   3.262   5.539   5.585
   24DPPC    N4 1154   3.277   5.394   5.597
   24DPPC    C5 1155   3.194   5.333   5.702
   24DPPC    C6 1156   3.209   5.183   5.727
   24DPPC    O7 1157   3.111   5.106   5.656
   24DPPC    P8 1158   3.147   4.952   5.685
   24DPPC    O9 1159   3.041   4.874   5.617
   24DPPC   O10 1160   3.181   4.948   5.829
   24DPPC   O11 1161   3.286   4.937   5.606
   24DPPC   C12 1162   3.248   4.916   5.469
   24DPPC   C13 1163   3.367   4.910   5.373
   24DPPC   O14 1164   3.308   4.923   5.243
   24DPPC   C15 1165   3.280   5.044   5.188
   24DPPC   O16 1166   3.338   5.146   5.225
   24DPPC   C17 1167   3.212   5.037   5.051
   24DPPC   C18 1168   3.305   5.080   4.938
   24DPPC   C19 1169   3.402   4.972   4.890
   24DPPC   C20 1170   3.544   5.031   4.898
   24DPPC   C21 1171   3.631   4.934   4.817
   24DPPC   C22 1172   3.773   4.982   4.787
   24DPPC   C23 1173   3.836   4.896   4.678
   24DPPC   C24 1174   3.974   4.943   4.634
   24DPPC   C25 1175   4.031   4.882   4.505
   24DPPC   C26 1176   4.158   4.960   4.472
   24DPPC   C27 1177   4.221   4.914   4.340
   24DPPC   C28 1178   4.328   5.016   4.302
   24DPPC   C29 1179   4.424   4.957   4.198
   24DPPC   C30 1180   4.537   5.054   4.165
   24DPPC   C31 1181   4.638   5.099   4.271
   24DPPC   C32 1182   3.420   4.769   5.394
   24DPPC   O33 1183   3.332   4.657   5.386
   24DPPC   C34 1184   3.385   4.532   5.395
   24DPPC   O35 1185   3.500   4.518   5.436
   24DPPC   C36 1186   3.309   4.412   5.339
   24DPPC   C37 1187   3.365   4.364   5.205
   24DPPC   C38 1188   3.359   4.473   5.098
   24DPPC   C39 1189   3.408   4.423   4.962
   24DPPC   C40 1190   3.446   4.535   4.864
   24DPPC   C41 1191   3.468   4.478   4.724
   24DPPC   C42 1192   3.532   4.585   4.636
   24DPPC   C43 1193   3.585   4.530   4.503
   24DPPC   C44 1194   3.670   4.638   4.437
   24DPPC   C45 1195   3.744   4.606   4.306
   24DPPC   C46 1196   3.840   4.715   4.259
   24DPPC   C47 1197   3.935   4.660   4.152
   24DPPC   C48 1198   3.996   4.764   4.058
   24DPPC   C49 1199   4.069   4.703   3.938
   24DPPC   C50 1200   4.157   4.591   3.993
   25DPPC    C1 1201   3.988   5.365   5.585
   25DPPC    C2 1202   3.941   5.527   5.418
   25DPPC    C3 1203   3.798   5.335   5.473
   25DPPC    N4 1204   3.881   5.445   5.524
   25DPPC    C5 1205   3.826   5.522   5.637
   25DPPC    C6 1206   3.760   5.657   5.606
   25DPPC    O7 1207   3.647   5.636   5.520
   25DPPC    P8 1208   3.551   5.761   5.491
   25DPPC    O9 1209   3.652   5.848   5.426
   25DPPC   O10 1210   3.472   5.810   5.607
   25DPPC   O11 1211   3.462   5.678   5.386
   25DPPC   C12 1212   3.556   5.644   5.284
   25DPPC   C13 1213   3.517   5.584   5.149
   25DPPC   O14 1214   3.622   5.520   5.075
   25DPPC   C15 1215   3.679   5.401   5.108
   25DPPC   O16 1216   3.655   5.352   5.218
   25DPPC   C17 1217   3.769   5.337   5.002
   25DPPC   C18 1218   3.846   5.449   4.933
   25DPPC   C19 1219   3.881   5.390   4.796
   25DPPC   C20 1220   3.994   5.287   4.806
   25DPPC   C21 1221   4.139   5.336   4.815
   25DPPC   C22 1222   4.234   5.228   4.764
   25DPPC   C23 1223   4.368   5.250   4.835
   25DPPC   C24 1224   4.485   5.179   4.768
   25DPPC   C25 1225   4.608   5.155   4.856
   25DPPC   C26 1226   4.726   5.130   4.762
   25DPPC   C27 1227   4.823   5.248   4.756
   25DPPC   C28 1228   4.940   5.202   4.669
   25DPPC   C29 1229   5.023   5.328   4.642
   25DPPC   C30 1230   5.121   5.279   4.535
   25DPPC   C31 1231   5.050   5.210   4.419
   25DPPC   C32 1232   3.456   5.706   5.079
   25DPPC   O33 1233   3.548   5.814   5.062
   25DPPC   C34 1234   3.491   5.928   5.013
   25DPPC   O35 1235   3.377   5.964   5.043
   25DPPC   C36 1236   3.594   6.030   4.966
   25DPPC   C37 1237   3.609   6.015   4.815
   25DPPC   C38 1238   3.707   5.901   4.782
   25DPPC   C39 1239   3.767   5.904   4.641
   25DPPC   C40 1240   3.673   5.843   4.537
   25DPPC   C41 1241   3.730   5.839   4.395
   25DPPC   C42 1242   3.860   5.760   4.387
   25DPPC   C43 1243   3.854   5.612   4.425
   25DPPC   C44 1244   3.973   5.521   4.394
   25DPPC   C45 1245   3.992   5.494   4.245
   25DPPC   C46 1246   4.111   5.408   4.202
   25DPPC   C47 1247   4.096   5.348   4.062
   25DPPC   C48 1248   4.213   5.260   4.017
   25DPPC   C49 1249   4.182   5.176   3.893
   25DPPC   C50 1250   4.313   5.109   3.850
   26DPPC    C1 1251   3.677   2.632   6.122
   26DPPC    C2 1252   3.672   2.483   5.948
   26DPPC    C3 1253   3.671   2.700   5.887
   26DPPC    N4 1254   3.732   2.611   5.986
   26DPPC    C5 1255   3.877   2.602   5.969
   26DPPC    C6 1256   3.953   2.731   6.003
   26DPPC    O7 1257   3.966   2.826   5.896
   26DPPC    P8 1258   4.024   2.961   5.961
   26DPPC    O9 1259   3.994   2.957   6.106
   26DPPC   O10 1260   4.025   3.087   5.883
   26DPPC   O11 1261   4.175   2.904   5.962
   26DPPC   C12 1262   4.262   2.955   5.861
   26DPPC   C13 1263   4.399   2.888   5.863
   26DPPC   O14 1264   4.475   2.923   5.746
   26DPPC   C15 1265   4.542   3.039   5.724
   26DPPC   O16 1266   4.526   3.125   5.810
   26DPPC   C17 1267   4.588   3.069   5.581
   26DPPC   C18 1268   4.738   3.099   5.585
   26DPPC   C19 1269   4.791   3.122   5.443
   26DPPC   C20 1270   4.939   3.159   5.431
   26DPPC   C21 1271   4.966   3.148   5.280
   26DPPC   C22 1272   4.964   3.001   5.238
   26DPPC   C23 1273   4.977   3.000   5.086
   26DPPC   C24 1274   4.947   2.870   5.010
   26DPPC   C25 1275   4.979   2.870   4.860
   26DPPC   C26 1276   4.942   2.738   4.792
   26DPPC   C27 1277   4.956   2.748   4.640
   26DPPC   C28 1278   4.917   2.629   4.552
   26DPPC   C29 1279   4.904   2.675   4.407
   26DPPC   C30 1280   4.879   2.554   4.317
   26DPPC   C31 1281   4.900   2.580   4.168
   26DPPC   C32 1282   4.366   2.739   5.863
   26DPPC   O33 1283   4.279   2.695   5.759
   26DPPC   C34 1284   4.223   2.571   5.771
   26DPPC   O35 1285   4.226   2.528   5.886
   26DPPC   C36 1286   4.147   2.526   5.646
   26DPPC   C37 1287   4.228   2.439   5.549
   26DPPC   C38 1288   4.143   2.414   5.425
   26DPPC   C39 1289   4.097   2.546   5.364
   26DPPC   C40 1290   4.078   2.515   5.215
   26DPPC   C41 1291   4.050   2.643   5.136
   26DPPC   C42 1292   4.053   2.610   4.987
   26DPPC   C43 1293   4.055   2.742   4.911
   26DPPC   C44 1294   4.195   2.802   4.915
   26DPPC   C45 1295   4.193   2.925   4.825
   26DPPC   C46 1296   4.140   2.887   4.686
   26DPPC   C47 1297   4.096   3.001   4.594
   26DPPC   C48 1298   4.044   2.964   4.455
   26DPPC   C49 1299   4.014   3.081   4.360
   26DPPC   C50 1300   3.925   3.190   4.421
   27DPPC    C1 1301   3.775   0.169   5.671
   27DPPC    C2 1302   3.663   0.355   5.600
   27DPPC    C3 1303   3.845   0.285   5.465
   27DPPC    N4 1304   3.734   0.236   5.547
   27DPPC    C5 1305   3.637   0.146   5.484
   27DPPC    C6 1306   3.681   0.007   5.438
   27DPPC    O7 1307   3.793   0.000   5.349
   27DPPC    P8 1308   3.842  -0.153   5.359
   27DPPC    O9 1309   3.732  -0.233   5.418
   27DPPC   O10 1310   3.979  -0.149   5.415
   27DPPC   O11 1311   3.849  -0.196   5.204
   27DPPC   C12 1312   3.958  -0.123   5.147
   27DPPC   C13 1313   3.953  -0.105   4.995
   27DPPC   O14 1314   3.883   0.015   4.960
   27DPPC   C15 1315   3.959   0.107   4.895
   27DPPC   O16 1316   4.073   0.131   4.936
   27DPPC   C17 1317   3.874   0.223   4.842
   27DPPC   C18 1318   3.935   0.291   4.719
   27DPPC   C19 1319   3.850   0.412   4.678
   27DPPC   C20 1320   3.917   0.471   4.554
   27DPPC   C21 1321   3.896   0.378   4.434
   27DPPC   C22 1322   4.005   0.400   4.328
   27DPPC   C23 1323   4.005   0.342   4.187
   27DPPC   C24 1324   4.106   0.412   4.096
   27DPPC   C25 1325   4.107   0.333   3.965
   27DPPC   C26 1326   4.188   0.208   3.998
   27DPPC   C27 1327   4.174   0.104   3.887
   27DPPC   C28 1328   4.245  -0.030   3.905
   27DPPC   C29 1329   4.225  -0.144   3.804
   27DPPC   C30 1330   4.074  -0.145   3.780
   27DPPC   C31 1331   4.017  -0.284   3.809
   27DPPC   C32 1332   3.883  -0.230   4.942
   27DPPC   O33 1333   3.954  -0.353   4.950
   27DPPC   C34 1334   3.884  -0.467   4.925
   27DPPC   O35 1335   3.762  -0.483   4.917
   27DPPC   C36 1336   3.976  -0.589   4.916
   27DPPC   C37 1337   4.024  -0.637   4.779
   27DPPC   C38 1338   4.107  -0.527   4.713
   27DPPC   C39 1339   4.146  -0.574   4.573
   27DPPC   C40 1340   4.255  -0.473   4.534
   27DPPC   C41 1341   4.312  -0.512   4.397
   27DPPC   C42 1342   4.397  -0.396   4.344
   27DPPC   C43 1343   4.469  -0.436   4.215
   27DPPC   C44 1344   4.566  -0.328   4.166
   27DPPC   C45 1345   4.625  -0.383   4.035
   27DPPC   C46 1346   4.523  -0.370   3.922
   27DPPC   C47 1347   4.590  -0.425   3.796
   27DPPC   C48 1348   4.505  -0.424   3.669
   27DPPC   C49 1349   4.613  -0.472   3.573
   27DPPC   C50 1350   4.632  -0.624   3.561
   28DPPC    C1 1351   8.748   2.453   5.751
   28DPPC    C2 1352   8.806   2.455   5.980
   28DPPC    C3 1353   8.754   2.659   5.869
   28DPPC    N4 1354   8.718   2.517   5.880
   28DPPC    C5 1355   8.588   2.463   5.923
   28DPPC    C6 1356   8.463   2.527   5.862
   28DPPC    O7 1357   8.416   2.620   5.960
   28DPPC    P8 1358   8.289   2.708   5.915
   28DPPC    O9 1359   8.300   2.824   6.006
   28DPPC   O10 1360   8.183   2.605   5.921
   28DPPC   O11 1361   8.361   2.736   5.774
   28DPPC   C12 1362   8.265   2.761   5.671
   28DPPC   C13 1363   8.339   2.825   5.553
   28DPPC   O14 1364   8.254   2.884   5.453
   28DPPC   C15 1365   8.292   3.000   5.393
   28DPPC   O16 1366   8.408   3.039   5.408
   28DPPC   C17 1367   8.203   3.048   5.278
   28DPPC   C18 1368   8.063   3.087   5.326
   28DPPC   C19 1369   7.955   3.090   5.218
   28DPPC   C20 1370   7.987   3.188   5.106
   28DPPC   C21 1371   7.899   3.163   4.983
   28DPPC   C22 1372   7.933   3.270   4.880
   28DPPC   C23 1373   7.848   3.231   4.759
   28DPPC   C24 1374   7.842   3.351   4.665
   28DPPC   C25 1375   7.789   3.314   4.526
   28DPPC   C26 1376   7.839   3.423   4.431
   28DPPC   C27 1377   7.772   3.413   4.294
   28DPPC   C28 1378   7.791   3.543   4.215
   28DPPC   C29 1379   7.679   3.556   4.112
   28DPPC   C30 1380   7.702   3.677   4.021
   28DPPC   C31 1381   7.594   3.672   3.912
   28DPPC   C32 1382   8.438   2.720   5.502
   28DPPC   O33 1383   8.374   2.599   5.463
   28DPPC   C34 1384   8.447   2.492   5.419
   28DPPC   O35 1385   8.562   2.477   5.460
   28DPPC   C36 1386   8.368   2.375   5.359
   28DPPC   C37 1387   8.342   2.396   5.210
   28DPPC   C38 1388   8.235   2.501   5.179
   28DPPC   C39 1389   8.218   2.511   5.028
   28DPPC   C40 1390   8.128   2.629   4.990
   28DPPC   C41 1391   8.098   2.635   4.840
   28DPPC   C42 1392   8.028   2.769   4.816
   28DPPC   C43 1393   7.980   2.788   4.672
   28DPPC   C44 1394   8.051   2.907   4.608
   28DPPC   C45 1395   8.021   2.929   4.459
   28DPPC   C46 1396   8.074   3.063   4.406
   28DPPC   C47 1397   8.038   3.052   4.257
   28DPPC   C48 1398   8.069   3.188   4.195
   28DPPC   C49 1399   8.013   3.182   4.053
   28DPPC   C50 1400   8.051   3.299   3.962
   29DPPC    C1 1401   0.549   4.779   5.454
   29DPPC    C2 1402   0.486   4.690   5.254
   29DPPC    C3 1403   0.321   4.783   5.353
   29DPPC    N4 1404   0.465   4.809   5.338
   29DPPC    C5 1405   0.504   4.928   5.261
   29DPPC    C6 1406   0.482   5.061   5.333
   29DPPC    O7 1407   0.549   5.166   5.263
   29DPPC    P8 1408   0.497   5.310   5.314
   29DPPC    O9 1409   0.606   5.355   5.404
   29DPPC   O10 1410   0.367   5.279   5.377
   29DPPC   O11 1411   0.514   5.381   5.171
   29DPPC   C12 1412   0.425   5.329   5.072
   29DPPC   C13 1413   0.448   5.393   4.936
   29DPPC   O14 1414   0.345   5.355   4.843
   29DPPC   C15 1415   0.237   5.435   4.822
   29DPPC   O16 1416   0.215   5.535   4.890
   29DPPC   C17 1417   0.151   5.408   4.698
   29DPPC   C18 1418   0.228   5.447   4.572
   29DPPC   C19 1419   0.157   5.386   4.451
   29DPPC   C20 1420   0.255   5.371   4.334
   29DPPC   C21 1421   0.187   5.348   4.199
   29DPPC   C22 1422   0.071   5.443   4.168
   29DPPC   C23 1423  -0.017   5.417   4.046
   29DPPC   C24 1424  -0.098   5.537   3.997
   29DPPC   C25 1425  -0.159   5.535   3.857
   29DPPC   C26 1426  -0.281   5.444   3.841
   29DPPC   C27 1427  -0.362   5.455   3.712
   29DPPC   C28 1428  -0.486   5.365   3.701
   29DPPC   C29 1429  -0.554   5.385   3.566
   29DPPC   C30 1430  -0.613   5.526   3.576
   29DPPC   C31 1431  -0.694   5.571   3.454
   29DPPC   C32 1432   0.592   5.358   4.898
   29DPPC   O33 1433   0.630   5.220   4.894
   29DPPC   C34 1434   0.757   5.199   4.852
   29DPPC   O35 1435   0.821   5.294   4.805
   29DPPC   C36 1436   0.810   5.057   4.872
   29DPPC   C37 1437   0.894   5.020   4.750
   29DPPC   C38 1438   0.979   4.894   4.761
   29DPPC   C39 1439   1.068   4.876   4.638
   29DPPC   C40 1440   0.995   4.866   4.504
   29DPPC   C41 1441   1.091   4.831   4.390
   29DPPC   C42 1442   1.022   4.855   4.255
   29DPPC   C43 1443   1.112   4.842   4.132
   29DPPC   C44 1444   1.039   4.879   4.003
   29DPPC   C45 1445   1.120   4.855   3.875
   29DPPC   C46 1446   1.049   4.928   3.761
   29DPPC   C47 1447   1.119   4.902   3.628
   29DPPC   C48 1448   1.072   4.992   3.514
   29DPPC   C49 1449   1.166   4.981   3.394
   29DPPC   C50 1450   1.120   5.062   3.273
   30DPPC    C1 1451   6.835   1.892   6.335
   30DPPC    C2 1452   7.019   1.870   6.175
   30DPPC    C3 1453   6.823   1.945   6.092
   30DPPC    N4 1454   6.901   1.947   6.216
   30DPPC    C5 1455   6.955   2.082   6.240
   30DPPC    C6 1456   6.858   2.183   6.301
   30DPPC    O7 1457   6.914   2.315   6.309
   30DPPC    P8 1458   6.816   2.414   6.228
   30DPPC    O9 1459   6.863   2.552   6.251
   30DPPC   O10 1460   6.673   2.385   6.251
   30DPPC   O11 1461   6.845   2.379   6.074
   30DPPC   C12 1462   6.800   2.494   6.002
   30DPPC   C13 1463   6.876   2.499   5.870
   30DPPC   O14 1464   6.831   2.595   5.773
   30DPPC   C15 1465   6.909   2.706   5.762
   30DPPC   O16 1466   6.987   2.743   5.850
   30DPPC   C17 1467   6.882   2.793   5.638
   30DPPC   C18 1468   6.824   2.933   5.661
   30DPPC   C19 1469   6.805   3.019   5.537
   30DPPC   C20 1470   6.939   3.076   5.489
   30DPPC   C21 1471   6.927   3.146   5.353
   30DPPC   C22 1472   7.057   3.220   5.320
   30DPPC   C23 1473   7.030   3.311   5.200
   30DPPC   C24 1474   6.906   3.400   5.215
   30DPPC   C25 1475   6.912   3.486   5.089
   30DPPC   C26 1476   6.980   3.618   5.126
   30DPPC   C27 1477   7.013   3.692   4.996
   30DPPC   C28 1478   6.891   3.724   4.910
   30DPPC   C29 1479   6.812   3.828   4.989
   30DPPC   C30 1480   6.661   3.805   4.975
   30DPPC   C31 1481   6.625   3.821   4.828
   30DPPC   C32 1482   6.870   2.361   5.803
   30DPPC   O33 1483   6.948   2.336   5.686
   30DPPC   C34 1484   6.972   2.208   5.646
   30DPPC   O35 1485   6.881   2.137   5.688
   30DPPC   C36 1486   7.095   2.176   5.561
   30DPPC   C37 1487   7.064   2.150   5.414
   30DPPC   C38 1488   7.040   2.274   5.326
   30DPPC   C39 1489   7.041   2.235   5.178
   30DPPC   C40 1490   7.019   2.362   5.096
   30DPPC   C41 1491   6.985   2.317   4.954
   30DPPC   C42 1492   6.876   2.413   4.905
   30DPPC   C43 1493   6.846   2.421   4.755
   30DPPC   C44 1494   6.728   2.515   4.732
   30DPPC   C45 1495   6.714   2.544   4.582
   30DPPC   C46 1496   6.587   2.622   4.551
   30DPPC   C47 1497   6.572   2.740   4.647
   30DPPC   C48 1498   6.458   2.834   4.608
   30DPPC   C49 1499   6.466   2.957   4.700
   30DPPC   C50 1500   6.357   3.050   4.648
   31DPPC    C1 1501   6.008   7.057   5.463
   31DPPC    C2 1502   6.142   7.053   5.265
   31DPPC    C3 1503   6.227   7.079   5.493
   31DPPC    N4 1504   6.134   7.007   5.405
   31DPPC    C5 1505   6.146   6.864   5.437
   31DPPC    C6 1506   6.082   6.759   5.347
   31DPPC    O7 1507   5.940   6.771   5.353
   31DPPC    P8 1508   5.858   6.693   5.467
   31DPPC    O9 1509   5.847   6.792   5.577
   31DPPC   O10 1510   5.941   6.574   5.497
   31DPPC   O11 1511   5.717   6.664   5.396
   31DPPC   C12 1512   5.746   6.597   5.273
   31DPPC   C13 1513   5.653   6.480   5.240
   31DPPC   O14 1514   5.692   6.397   5.129
   31DPPC   C15 1515   5.683   6.264   5.153
   31DPPC   O16 1516   5.712   6.230   5.268
   31DPPC   C17 1517   5.699   6.175   5.029
   31DPPC   C18 1518   5.563   6.147   4.966
   31DPPC   C19 1519   5.593   6.106   4.821
   31DPPC   C20 1520   5.473   6.099   4.727
   31DPPC   C21 1521   5.516   6.046   4.590
   31DPPC   C22 1522   5.386   6.014   4.516
   31DPPC   C23 1523   5.295   6.137   4.514
   31DPPC   C24 1524   5.184   6.112   4.413
   31DPPC   C25 1525   5.104   6.242   4.399
   31DPPC   C26 1526   5.031   6.233   4.265
   31DPPC   C27 1527   4.986   6.377   4.238
   31DPPC   C28 1528   4.881   6.412   4.344
   31DPPC   C29 1529   4.809   6.541   4.302
   31DPPC   C30 1530   4.693   6.564   4.398
   31DPPC   C31 1531   4.754   6.603   4.533
   31DPPC   C32 1532   5.513   6.541   5.239
   31DPPC   O33 1533   5.495   6.643   5.141
   31DPPC   C34 1534   5.385   6.723   5.145
   31DPPC   O35 1535   5.290   6.692   5.217
   31DPPC   C36 1536   5.393   6.842   5.050
   31DPPC   C37 1537   5.356   6.806   4.906
   31DPPC   C38 1538   5.372   6.932   4.821
   31DPPC   C39 1539   5.335   6.884   4.680
   31DPPC   C40 1540   5.356   6.987   4.569
   31DPPC   C41 1541   5.481   7.069   4.599
   31DPPC   C42 1542   5.503   7.173   4.489
   31DPPC   C43 1543   5.643   7.236   4.485
   31DPPC   C44 1544   5.673   7.335   4.597
   31DPPC   C45 1545   5.575   7.451   4.574
   31DPPC   C46 1546   5.596   7.551   4.688
   31DPPC   C47 1547   5.544   7.497   4.821
   31DPPC   C48 1548   5.399   7.450   4.810
   31DPPC   C49 1549   5.330   7.466   4.945
   31DPPC   C50 1550   5.198   7.388   4.950
   32DPPC    C1 1551   1.144   7.575   5.008
   32DPPC    C2 1552   1.027   7.780   4.990
   32DPPC    C3 1553   1.012   7.601   4.823
   32DPPC    N4 1554   1.017   7.635   4.966
   32DPPC    C5 1555   0.913   7.565   5.043
   32DPPC    C6 1556   0.781   7.636   5.071
   32DPPC    O7 1557   0.707   7.661   4.951
   32DPPC    P8 1558   0.595   7.775   4.972
   32DPPC    O9 1559   0.665   7.905   4.980
   32DPPC   O10 1560   0.493   7.735   5.071
   32DPPC   O11 1561   0.534   7.753   4.824
   32DPPC   C12 1562   0.630   7.792   4.727
   32DPPC   C13 1563   0.596   7.734   4.589
   32DPPC   O14 1564   0.693   7.752   4.484
   32DPPC   C15 1565   0.670   7.669   4.380
   32DPPC   O16 1566   0.615   7.562   4.405
   32DPPC   C17 1567   0.736   7.698   4.245
   32DPPC   C18 1568   0.849   7.600   4.216
   32DPPC   C19 1569   0.930   7.630   4.090
   32DPPC   C20 1570   1.080   7.637   4.118
   32DPPC   C21 1571   1.168   7.651   3.994
   32DPPC   C22 1572   1.146   7.533   3.899
   32DPPC   C23 1573   1.240   7.532   3.779
   32DPPC   C24 1574   1.212   7.425   3.673
   32DPPC   C25 1575   1.217   7.292   3.749
   32DPPC   C26 1576   1.192   7.183   3.645
   32DPPC   C27 1577   1.051   7.202   3.588
   32DPPC   C28 1578   1.013   7.087   3.494
   32DPPC   C29 1579   1.003   6.956   3.573
   32DPPC   C30 1580   0.871   6.951   3.650
   32DPPC   C31 1581   0.862   6.805   3.697
   32DPPC   C32 1582   0.455   7.782   4.554
   32DPPC   O33 1583   0.447   7.920   4.518
   32DPPC   C34 1584   0.320   7.962   4.493
   32DPPC   O35 1585   0.226   7.883   4.482
   32DPPC   C36 1586   0.300   8.113   4.476
   32DPPC   C37 1587   0.196   8.157   4.373
   32DPPC   C38 1588   0.209   8.306   4.343
   32DPPC   C39 1589   0.086   8.339   4.258
   32DPPC   C40 1590   0.093   8.483   4.205
   32DPPC   C41 1591   0.037   8.497   4.063
   32DPPC   C42 1592   0.032   8.641   4.014
   32DPPC   C43 1593   0.013   8.652   3.862
   32DPPC   C44 1594  -0.122   8.603   3.811
   32DPPC   C45 1595  -0.112   8.620   3.660
   32DPPC   C46 1596  -0.242   8.593   3.583
   32DPPC   C47 1597  -0.220   8.608   3.432
   32DPPC   C48 1598  -0.345   8.568   3.352
   32DPPC   C49 1599  -0.327   8.549   3.202
   32DPPC   C50 1600  -0.217   8.443   3.190
   33DPPC    C1 1601   2.357   2.323   5.523
   33DPPC    C2 1602   2.238   2.511   5.480
   33DPPC    C3 1603   2.354   2.418   5.297
   33DPPC    N4 1604   2.276   2.384   5.417
   33DPPC    C5 1605   2.166   2.302   5.363
   33DPPC    C6 1606   2.053   2.254   5.454
   33DPPC    O7 1607   1.938   2.194   5.394
   33DPPC    P8 1608   1.814   2.293   5.366
   33DPPC    O9 1609   1.838   2.398   5.467
   33DPPC   O10 1610   1.696   2.204   5.363
   33DPPC   O11 1611   1.856   2.348   5.221
   33DPPC   C12 1612   1.812   2.260   5.117
   33DPPC   C13 1613   1.824   2.325   4.979
   33DPPC   O14 1614   1.749   2.254   4.878
   33DPPC   C15 1615   1.626   2.309   4.858
   33DPPC   O16 1616   1.603   2.415   4.915
   33DPPC   C17 1617   1.549   2.263   4.734
   33DPPC   C18 1618   1.471   2.374   4.662
   33DPPC   C19 1619   1.413   2.345   4.524
   33DPPC   C20 1620   1.332   2.464   4.473
   33DPPC   C21 1621   1.248   2.430   4.349
   33DPPC   C22 1622   1.147   2.317   4.369
   33DPPC   C23 1623   1.074   2.307   4.235
   33DPPC   C24 1624   1.169   2.262   4.124
   33DPPC   C25 1625   1.084   2.262   3.997
   33DPPC   C26 1626   1.157   2.176   3.894
   33DPPC   C27 1627   1.301   2.225   3.914
   33DPPC   C28 1628   1.393   2.153   3.815
   33DPPC   C29 1629   1.544   2.162   3.835
   33DPPC   C30 1630   1.616   2.078   3.728
   33DPPC   C31 1631   1.701   2.155   3.626
   33DPPC   C32 1632   1.975   2.334   4.957
   33DPPC   O33 1633   2.054   2.215   4.969
   33DPPC   C34 1634   2.189   2.229   4.960
   33DPPC   O35 1635   2.237   2.341   4.978
   33DPPC   C36 1636   2.286   2.122   4.910
   33DPPC   C37 1637   2.214   1.997   4.858
   33DPPC   C38 1638   2.195   2.005   4.706
   33DPPC   C39 1639   2.145   1.871   4.651
   33DPPC   C40 1640   2.140   1.874   4.499
   33DPPC   C41 1641   2.124   1.734   4.439
   33DPPC   C42 1642   2.117   1.751   4.287
   33DPPC   C43 1643   2.244   1.826   4.245
   33DPPC   C44 1644   2.260   1.825   4.092
   33DPPC   C45 1645   2.179   1.947   4.048
   33DPPC   C46 1646   2.213   1.984   3.903
   33DPPC   C47 1647   2.138   2.105   3.846
   33DPPC   C48 1648   2.189   2.143   3.707
   33DPPC   C49 1649   2.091   2.251   3.660
   33DPPC   C50 1650   2.107   2.275   3.509
   34DPPC    C1 1651   2.988   4.358   5.705
   34DPPC    C2 1652   2.910   4.491   5.543
   34DPPC    C3 1653   2.922   4.600   5.755
   34DPPC    N4 1654   2.987   4.500   5.668
   34DPPC    C5 1655   3.120   4.553   5.636
   34DPPC    C6 1656   3.222   4.538   5.749
   34DPPC    O7 1657   3.328   4.630   5.724
   34DPPC    P8 1658   3.431   4.621   5.847
   34DPPC    O9 1659   3.354   4.618   5.974
   34DPPC   O10 1660   3.563   4.687   5.838
   34DPPC   O11 1661   3.455   4.463   5.827
   34DPPC   C12 1662   3.557   4.437   5.729
   34DPPC   C13 1663   3.621   4.299   5.732
   34DPPC   O14 1664   3.716   4.261   5.631
   34DPPC   C15 1665   3.840   4.315   5.637
   34DPPC   O16 1666   3.868   4.410   5.710
   34DPPC   C17 1667   3.951   4.263   5.545
   34DPPC   C18 1668   3.988   4.338   5.416
   34DPPC   C19 1669   3.870   4.355   5.321
   34DPPC   C20 1670   3.896   4.443   5.199
   34DPPC   C21 1671   3.767   4.484   5.128
   34DPPC   C22 1672   3.795   4.550   4.994
   34DPPC   C23 1673   3.847   4.453   4.888
   34DPPC   C24 1674   3.890   4.536   4.767
   34DPPC   C25 1675   3.938   4.446   4.652
   34DPPC   C26 1676   4.074   4.489   4.598
   34DPPC   C27 1677   4.144   4.376   4.522
   34DPPC   C28 1678   4.277   4.431   4.470
   34DPPC   C29 1679   4.350   4.340   4.371
   34DPPC   C30 1680   4.498   4.372   4.344
   34DPPC   C31 1681   4.509   4.511   4.280
   34DPPC   C32 1682   3.503   4.204   5.758
   34DPPC   O33 1683   3.398   4.203   5.660
   34DPPC   C34 1684   3.307   4.103   5.664
   34DPPC   O35 1685   3.273   4.074   5.779
   34DPPC   C36 1686   3.228   4.085   5.534
   34DPPC   C37 1687   3.229   3.938   5.491
   34DPPC   C38 1688   3.169   3.942   5.350
   34DPPC   C39 1689   3.274   3.992   5.251
   34DPPC   C40 1690   3.218   3.982   5.109
   34DPPC   C41 1691   3.302   3.894   5.017
   34DPPC   C42 1692   3.213   3.855   4.899
   34DPPC   C43 1693   3.310   3.804   4.792
   34DPPC   C44 1694   3.252   3.788   4.651
   34DPPC   C45 1695   3.363   3.722   4.570
   34DPPC   C46 1696   3.318   3.715   4.423
   34DPPC   C47 1697   3.335   3.852   4.358
   34DPPC   C48 1698   3.302   3.845   4.209
   34DPPC   C49 1699   3.349   3.977   4.147
   34DPPC   C50 1700   3.339   3.970   3.994
   35DPPC    C1 1701   1.508   2.674   1.658
   35DPPC    C2 1702   1.409   2.877   1.744
   35DPPC    C3 1703   1.472   2.695   1.890
   35DPPC    N4 1704   1.507   2.770   1.769
   35DPPC    C5 1705   1.642   2.827   1.781
   35DPPC    C6 1706   1.700   2.904   1.662
   35DPPC    O7 1707   1.817   2.978   1.697
   35DPPC    P8 1708   1.817   3.112   1.609
   35DPPC    O9 1709   1.737   3.096   1.486
   35DPPC   O10 1710   1.932   3.205   1.619
   35DPPC   O11 1711   1.695   3.174   1.694
   35DPPC   C12 1712   1.750   3.237   1.811
   35DPPC   C13 1713   1.625   3.299   1.873
   35DPPC   O14 1714   1.656   3.415   1.952
   35DPPC   C15 1715   1.723   3.520   1.898
   35DPPC   O16 1716   1.705   3.539   1.778
   35DPPC   C17 1717   1.776   3.624   1.998
   35DPPC   C18 1718   1.664   3.664   2.094
   35DPPC   C19 1719   1.727   3.692   2.231
   35DPPC   C20 1720   1.628   3.741   2.337
   35DPPC   C21 1721   1.707   3.754   2.467
   35DPPC   C22 1722   1.612   3.779   2.585
   35DPPC   C23 1723   1.695   3.807   2.711
   35DPPC   C24 1724   1.598   3.872   2.810
   35DPPC   C25 1725   1.675   3.970   2.899
   35DPPC   C26 1726   1.577   4.059   2.976
   35DPPC   C27 1727   1.517   3.972   3.087
   35DPPC   C28 1728   1.423   4.053   3.177
   35DPPC   C29 1729   1.385   3.965   3.296
   35DPPC   C30 1730   1.314   4.052   3.400
   35DPPC   C31 1731   1.402   4.173   3.431
   35DPPC   C32 1732   1.542   3.198   1.953
   35DPPC   O33 1733   1.622   3.098   2.017
   35DPPC   C34 1734   1.550   3.001   2.078
   35DPPC   O35 1735   1.438   2.971   2.035
   35DPPC   C36 1736   1.623   2.908   2.175
   35DPPC   C37 1737   1.727   2.979   2.262
   35DPPC   C38 1738   1.656   3.084   2.347
   35DPPC   C39 1739   1.759   3.137   2.447
   35DPPC   C40 1740   1.692   3.246   2.532
   35DPPC   C41 1741   1.729   3.252   2.680
   35DPPC   C42 1742   1.638   3.363   2.734
   35DPPC   C43 1743   1.632   3.360   2.886
   35DPPC   C44 1744   1.538   3.460   2.953
   35DPPC   C45 1745   1.539   3.452   3.106
   35DPPC   C46 1746   1.453   3.575   3.138
   35DPPC   C47 1747   1.308   3.532   3.115
   35DPPC   C48 1748   1.214   3.652   3.100
   35DPPC   C49 1749   1.072   3.595   3.095
   35DPPC   C50 1750   1.017   3.546   3.229
   36DPPC    C1 1751   6.184   6.357   2.013
   36DPPC    C2 1752   6.345   6.358   2.173
   36DPPC    C3 1753   6.361   6.520   1.989
   36DPPC    N4 1754   6.273   6.450   2.084
   36DPPC    C5 1755   6.196   6.542   2.170
   36DPPC    C6 1756   6.114   6.658   2.112
   36DPPC    O7 1757   6.187   6.765   2.052
   36DPPC    P8 1758   6.075   6.878   2.027
   36DPPC    O9 1759   5.949   6.806   1.997
   36DPPC   O10 1760   6.132   6.975   1.931
   36DPPC   O11 1761   6.065   6.936   2.177
   36DPPC   C12 1762   6.196   6.957   2.231
   36DPPC   C13 1763   6.211   7.030   2.365
   36DPPC   O14 1764   6.341   7.003   2.419
   36DPPC   C15 1765   6.434   7.100   2.397
   36DPPC   O16 1766   6.431   7.180   2.303
   36DPPC   C17 1767   6.568   7.096   2.470
   36DPPC   C18 1768   6.528   7.090   2.618
   36DPPC   C19 1769   6.653   7.082   2.705
   36DPPC   C20 1770   6.626   7.095   2.855
   36DPPC   C21 1771   6.742   7.092   2.955
   36DPPC   C22 1772   6.690   7.108   3.098
   36DPPC   C23 1773   6.809   7.096   3.192
   36DPPC   C24 1774   6.782   7.153   3.331
   36DPPC   C25 1775   6.906   7.217   3.394
   36DPPC   C26 1776   6.867   7.280   3.528
   36DPPC   C27 1777   6.793   7.177   3.615
   36DPPC   C28 1778   6.725   7.228   3.742
   36DPPC   C29 1779   6.817   7.292   3.846
   36DPPC   C30 1780   6.745   7.337   3.973
   36DPPC   C31 1781   6.857   7.389   4.063
   36DPPC   C32 1782   6.092   6.975   2.443
   36DPPC   O33 1783   6.048   7.056   2.552
   36DPPC   C34 1784   5.969   7.005   2.650
   36DPPC   O35 1785   5.903   6.905   2.622
   36DPPC   C36 1786   5.948   7.083   2.780
   36DPPC   C37 1787   6.069   7.063   2.872
   36DPPC   C38 1788   6.052   7.111   3.016
   36DPPC   C39 1789   5.938   7.033   3.080
   36DPPC   C40 1790   5.989   7.012   3.223
   36DPPC   C41 1791   5.873   6.961   3.308
   36DPPC   C42 1792   5.893   6.959   3.460
   36DPPC   C43 1793   5.805   6.853   3.528
   36DPPC   C44 1794   5.840   6.845   3.677
   36DPPC   C45 1795   5.729   6.783   3.762
   36DPPC   C46 1796   5.787   6.746   3.898
   36DPPC   C47 1797   5.687   6.799   4.002
   36DPPC   C48 1798   5.699   6.717   4.131
   36DPPC   C49 1799   5.616   6.788   4.238
   36DPPC   C50 1800   5.656   6.718   4.367
   37DPPC    C1 1801   8.502   3.015   1.889
   37DPPC    C2 1802   8.581   3.003   1.670
   37DPPC    C3 1803   8.390   3.133   1.699
   37DPPC    N4 1804   8.515   3.093   1.765
   37DPPC    C5 1805   8.609   3.204   1.783
   37DPPC    C6 1806   8.558   3.313   1.877
   37DPPC    O7 1807   8.652   3.421   1.883
   37DPPC    P8 1808   8.579   3.547   1.951
   37DPPC    O9 1809   8.474   3.486   2.035
   37DPPC   O10 1810   8.546   3.613   1.822
   37DPPC   O11 1811   8.707   3.614   2.022
   37DPPC   C12 1812   8.729   3.537   2.140
   37DPPC   C13 1813   8.793   3.612   2.257
   37DPPC   O14 1814   8.850   3.530   2.360
   37DPPC   C15 1815   8.958   3.450   2.337
   37DPPC   O16 1816   9.014   3.454   2.227
   37DPPC   C17 1817   9.009   3.361   2.450
   37DPPC   C18 1818   9.110   3.253   2.411
   37DPPC   C19 1819   9.143   3.176   2.540
   37DPPC   C20 1820   9.221   3.053   2.495
   37DPPC   C21 1821   9.245   2.947   2.603
   37DPPC   C22 1822   9.350   2.850   2.550
   37DPPC   C23 1823   9.378   2.757   2.668
   37DPPC   C24 1824   9.445   2.817   2.792
   37DPPC   C25 1825   9.589   2.860   2.767
   37DPPC   C26 1826   9.661   2.894   2.897
   37DPPC   C27 1827   9.706   2.777   2.984
   37DPPC   C28 1828   9.737   2.827   3.125
   37DPPC   C29 1829   9.754   2.710   3.222
   37DPPC   C30 1830   9.817   2.729   3.361
   37DPPC   C31 1831   9.725   2.814   3.448
   37DPPC   C32 1832   8.686   3.714   2.297
   37DPPC   O33 1833   8.564   3.648   2.331
   37DPPC   C34 1834   8.457   3.702   2.268
   37DPPC   O35 1835   8.464   3.773   2.167
   37DPPC   C36 1836   8.316   3.660   2.310
   37DPPC   C37 1837   8.307   3.657   2.462
   37DPPC   C38 1838   8.358   3.784   2.532
   37DPPC   C39 1839   8.300   3.813   2.670
   37DPPC   C40 1840   8.344   3.703   2.766
   37DPPC   C41 1841   8.256   3.706   2.891
   37DPPC   C42 1842   8.345   3.635   2.995
   37DPPC   C43 1843   8.298   3.652   3.140
   37DPPC   C44 1844   8.416   3.598   3.221
   37DPPC   C45 1845   8.396   3.636   3.368
   37DPPC   C46 1846   8.513   3.579   3.448
   37DPPC   C47 1847   8.514   3.617   3.596
   37DPPC   C48 1848   8.624   3.544   3.673
   37DPPC   C49 1849   8.732   3.648   3.702
   37DPPC   C50 1850   8.856   3.572   3.750
   38DPPC    C1 1851   3.461   4.251   1.711
   38DPPC    C2 1852   3.457   4.485   1.651
   38DPPC    C3 1853   3.277   4.352   1.585
   38DPPC    N4 1854   3.376   4.369   1.692
   38DPPC    C5 1855   3.298   4.412   1.809
   38DPPC    C6 1856   3.205   4.316   1.884
   38DPPC    O7 1857   3.277   4.212   1.951
   38DPPC    P8 1858   3.174   4.098   1.998
   38DPPC    O9 1859   3.243   3.997   2.081
   38DPPC   O10 1860   3.107   4.061   1.871
   38DPPC   O11 1861   3.076   4.192   2.085
   38DPPC   C12 1862   3.115   4.200   2.223
   38DPPC   C13 1863   3.213   4.314   2.247
   38DPPC   O14 1864   3.290   4.287   2.365
   38DPPC   C15 1865   3.381   4.370   2.421
   38DPPC   O16 1866   3.440   4.457   2.356
   38DPPC   C17 1867   3.425   4.320   2.559
   38DPPC   C18 1868   3.422   4.436   2.659
   38DPPC   C19 1869   3.484   4.392   2.791
   38DPPC   C20 1870   3.479   4.513   2.885
   38DPPC   C21 1871   3.542   4.470   3.017
   38DPPC   C22 1872   3.464   4.366   3.098
   38DPPC   C23 1873   3.523   4.312   3.228
   38DPPC   C24 1874   3.568   4.430   3.315
   38DPPC   C25 1875   3.451   4.522   3.350
   38DPPC   C26 1876   3.514   4.628   3.442
   38DPPC   C27 1877   3.409   4.735   3.471
   38DPPC   C28 1878   3.464   4.848   3.559
   38DPPC   C29 1879   3.366   4.965   3.562
   38DPPC   C30 1880   3.415   5.066   3.666
   38DPPC   C31 1881   3.300   5.162   3.697
   38DPPC   C32 1882   3.139   4.448   2.237
   38DPPC   O33 1883   3.028   4.457   2.326
   38DPPC   C34 1884   2.968   4.579   2.335
   38DPPC   O35 1885   3.015   4.688   2.302
   38DPPC   C36 1886   2.844   4.570   2.425
   38DPPC   C37 1887   2.859   4.543   2.575
   38DPPC   C38 1888   2.763   4.433   2.619
   38DPPC   C39 1889   2.815   4.370   2.748
   38DPPC   C40 1890   2.708   4.272   2.799
   38DPPC   C41 1891   2.757   4.179   2.910
   38DPPC   C42 1892   2.820   4.248   3.031
   38DPPC   C43 1893   2.836   4.156   3.152
   38DPPC   C44 1894   2.900   4.246   3.258
   38DPPC   C45 1895   3.053   4.254   3.249
   38DPPC   C46 1896   3.104   4.348   3.358
   38DPPC   C47 1897   3.070   4.295   3.498
   38DPPC   C48 1898   3.136   4.385   3.603
   38DPPC   C49 1899   3.070   4.523   3.593
   38DPPC   C50 1900   3.102   4.616   3.710
   39DPPC    C1 1901   4.261   7.986   2.224
   39DPPC    C2 1902   4.342   8.004   1.992
   39DPPC    C3 1903   4.298   7.792   2.108
   39DPPC    N4 1904   4.256   7.931   2.087
   39DPPC    C5 1905   4.123   7.933   2.027
   39DPPC    C6 1906   4.031   8.054   2.044
   39DPPC    O7 1907   3.902   8.034   1.985
   39DPPC    P8 1908   3.783   8.112   2.060
   39DPPC    O9 1909   3.670   8.127   1.966
   39DPPC   O10 1910   3.830   8.241   2.117
   39DPPC   O11 1911   3.743   7.999   2.168
   39DPPC   C12 1912   3.601   7.994   2.181
   39DPPC   C13 1913   3.546   7.938   2.313
   39DPPC   O14 1914   3.404   7.947   2.329
   39DPPC   C15 1915   3.341   7.828   2.342
   39DPPC   O16 1916   3.384   7.736   2.272
   39DPPC   C17 1917   3.198   7.840   2.394
   39DPPC   C18 1918   3.153   7.705   2.451
   39DPPC   C19 1919   3.002   7.705   2.478
   39DPPC   C20 1920   2.941   7.575   2.531
   39DPPC   C21 1921   2.808   7.602   2.602
   39DPPC   C22 1922   2.767   7.472   2.671
   39DPPC   C23 1923   2.624   7.492   2.723
   39DPPC   C24 1924   2.531   7.532   2.608
   39DPPC   C25 1925   2.395   7.572   2.665
   39DPPC   C26 1926   2.332   7.461   2.749
   39DPPC   C27 1927   2.186   7.444   2.706
   39DPPC   C28 1928   2.105   7.323   2.754
   39DPPC   C29 1929   1.959   7.338   2.709
   39DPPC   C30 1930   1.939   7.349   2.558
   39DPPC   C31 1931   1.792   7.337   2.517
   39DPPC   C32 1932   3.641   8.004   2.414
   39DPPC   O33 1933   3.632   8.146   2.426
   39DPPC   C34 1934   3.693   8.192   2.538
   39DPPC   O35 1935   3.781   8.129   2.596
   39DPPC   C36 1936   3.661   8.330   2.596
   39DPPC   C37 1937   3.534   8.336   2.681
   39DPPC   C38 1938   3.560   8.260   2.812
   39DPPC   C39 1939   3.433   8.253   2.897
   39DPPC   C40 1940   3.438   8.210   3.044
   39DPPC   C41 1941   3.311   8.240   3.124
   39DPPC   C42 1942   3.292   8.164   3.256
   39DPPC   C43 1943   3.156   8.204   3.314
   39DPPC   C44 1944   3.161   8.172   3.463
   39DPPC   C45 1945   3.038   8.236   3.528
   39DPPC   C46 1946   2.992   8.162   3.654
   39DPPC   C47 1947   2.867   8.229   3.712
   39DPPC   C48 1948   2.809   8.147   3.828
   39DPPC   C49 1949   2.884   8.172   3.959
   39DPPC   C50 1950   2.841   8.080   4.074
   40DPPC    C1 1951   3.192   7.147   2.409
   40DPPC    C2 1952   3.311   7.053   2.241
   40DPPC    C3 1953   3.283   6.933   2.452
   40DPPC    N4 1954   3.218   7.016   2.350
   40DPPC    C5 1955   3.095   6.955   2.299
   40DPPC    C6 1956   3.086   6.857   2.181
   40DPPC    O7 1957   3.170   6.743   2.201
   40DPPC    P8 1958   3.144   6.625   2.095
   40DPPC    O9 1959   3.258   6.532   2.109
   40DPPC   O10 1960   3.085   6.654   1.963
   40DPPC   O11 1961   3.026   6.574   2.193
   40DPPC   C12 1962   3.091   6.485   2.285
   40DPPC   C13 1963   3.006   6.453   2.408
   40DPPC   O14 1964   2.900   6.365   2.368
   40DPPC   C15 1965   2.925   6.232   2.350
   40DPPC   O16 1966   3.034   6.175   2.340
   40DPPC   C17 1967   2.793   6.156   2.345
   40DPPC   C18 1968   2.729   6.155   2.484
   40DPPC   C19 1969   2.594   6.084   2.481
   40DPPC   C20 1970   2.547   6.065   2.625
   40DPPC   C21 1971   2.536   6.190   2.713
   40DPPC   C22 1972   2.489   6.149   2.853
   40DPPC   C23 1973   2.488   6.263   2.955
   40DPPC   C24 1974   2.429   6.214   3.087
   40DPPC   C25 1975   2.421   6.334   3.182
   40DPPC   C26 1976   2.314   6.428   3.126
   40DPPC   C27 1977   2.271   6.507   3.250
   40DPPC   C28 1978   2.198   6.421   3.352
   40DPPC   C29 1979   2.250   6.415   3.496
   40DPPC   C30 1980   2.193   6.316   3.597
   40DPPC   C31 1981   2.217   6.355   3.743
   40DPPC   C32 1982   2.958   6.584   2.470
   40DPPC   O33 1983   3.031   6.613   2.590
   40DPPC   C34 1984   3.017   6.743   2.628
   40DPPC   O35 1985   2.985   6.837   2.556
   40DPPC   C36 1986   3.062   6.774   2.771
   40DPPC   C37 1987   3.022   6.914   2.819
   40DPPC   C38 1988   3.056   6.926   2.968
   40DPPC   C39 1989   2.925   6.952   3.043
   40DPPC   C40 1990   2.948   6.967   3.194
   40DPPC   C41 1991   2.802   6.997   3.229
   40DPPC   C42 1992   2.789   7.054   3.371
   40DPPC   C43 1993   2.861   6.958   3.466
   40DPPC   C44 1994   2.855   7.021   3.605
   40DPPC   C45 1995   2.711   7.062   3.639
   40DPPC   C46 1996   2.695   7.112   3.783
   40DPPC   C47 1997   2.559   7.179   3.800
   40DPPC   C48 1998   2.551   7.252   3.935
   40DPPC   C49 1999   2.415   7.316   3.963
   40DPPC   C50 2000   2.375   7.432   3.872
   41DPPC    C1 2001   3.148   5.712   2.082
   41DPPC    C2 2002   3.039   5.905   2.111
   41DPPC    C3 2003   3.267   5.905   2.035
   41DPPC    N4 2004   3.135   5.844   2.018
   41DPPC    C5 2005   3.104   5.832   1.874
   41DPPC    C6 2006   3.002   5.737   1.812
   41DPPC    O7 2007   2.864   5.760   1.843
   41DPPC    P8 2008   2.769   5.687   1.735
   41DPPC    O9 2009   2.851   5.665   1.614
   41DPPC   O10 2010   2.646   5.768   1.732
   41DPPC   O11 2011   2.743   5.544   1.805
   41DPPC   C12 2012   2.650   5.543   1.914
   41DPPC   C13 2013   2.580   5.410   1.941
   41DPPC   O14 2014   2.454   5.409   2.010
   41DPPC   C15 2015   2.335   5.462   1.970
   41DPPC   O16 2016   2.341   5.532   1.869
   41DPPC   C17 2017   2.230   5.472   2.081
   41DPPC   C18 2018   2.223   5.332   2.142
   41DPPC   C19 2019   2.113   5.323   2.247
   41DPPC   C20 2020   2.100   5.194   2.328
   41DPPC   C21 2021   1.965   5.208   2.398
   41DPPC   C22 2022   1.919   5.074   2.456
   41DPPC   C23 2023   1.794   5.106   2.539
   41DPPC   C24 2024   1.724   4.985   2.601
   41DPPC   C25 2025   1.612   5.021   2.699
   41DPPC   C26 2026   1.561   4.888   2.756
   41DPPC   C27 2027   1.470   4.930   2.871
   41DPPC   C28 2028   1.565   5.003   2.966
   41DPPC   C29 2029   1.493   5.038   3.096
   41DPPC   C30 2030   1.592   5.063   3.209
   41DPPC   C31 2031   1.522   5.066   3.345
   41DPPC   C32 2032   2.687   5.327   2.013
   41DPPC   O33 2033   2.765   5.408   2.102
   41DPPC   C34 2034   2.870   5.342   2.156
   41DPPC   O35 2035   2.913   5.230   2.129
   41DPPC   C36 2036   2.941   5.415   2.270
   41DPPC   C37 2037   2.923   5.319   2.388
   41DPPC   C38 2038   2.991   5.372   2.515
   41DPPC   C39 2039   2.970   5.287   2.641
   41DPPC   C40 2040   3.073   5.318   2.750
   41DPPC   C41 2041   3.025   5.222   2.860
   41DPPC   C42 2042   3.113   5.226   2.985
   41DPPC   C43 2043   3.237   5.138   2.973
   41DPPC   C44 2044   3.320   5.162   3.100
   41DPPC   C45 2045   3.432   5.058   3.098
   41DPPC   C46 2046   3.519   5.068   2.972
   41DPPC   C47 2047   3.620   4.953   2.977
   41DPPC   C48 2048   3.742   4.996   2.896
   41DPPC   C49 2049   3.823   5.110   2.959
   41DPPC   C50 2050   3.944   5.132   2.867
   42DPPC    C1 2051   1.991   4.451   2.105
   42DPPC    C2 2052   2.132   4.480   1.903
   42DPPC    C3 2053   2.133   4.283   2.023
   42DPPC    N4 2054   2.044   4.392   1.981
   42DPPC    C5 2055   1.939   4.336   1.894
   42DPPC    C6 2056   1.824   4.430   1.858
   42DPPC    O7 2057   1.852   4.531   1.760
   42DPPC    P8 2058   1.717   4.616   1.742
   42DPPC    O9 2059   1.600   4.527   1.726
   42DPPC   O10 2060   1.751   4.715   1.638
   42DPPC   O11 2061   1.730   4.682   1.889
   42DPPC   C12 2062   1.801   4.806   1.881
   42DPPC   C13 2063   1.840   4.857   2.019
   42DPPC   O14 2064   1.951   4.797   2.088
   42DPPC   C15 2065   2.078   4.828   2.053
   42DPPC   O16 2066   2.107   4.876   1.943
   42DPPC   C17 2067   2.182   4.791   2.159
   42DPPC   C18 2068   2.143   4.821   2.304
   42DPPC   C19 2069   2.056   4.707   2.356
   42DPPC   C20 2070   2.056   4.692   2.509
   42DPPC   C21 2071   1.984   4.560   2.537
   42DPPC   C22 2072   1.986   4.557   2.689
   42DPPC   C23 2073   1.935   4.429   2.754
   42DPPC   C24 2074   1.915   4.464   2.902
   42DPPC   C25 2075   1.871   4.340   2.979
   42DPPC   C26 2076   1.868   4.371   3.129
   42DPPC   C27 2077   1.826   4.258   3.224
   42DPPC   C28 2078   1.817   4.304   3.369
   42DPPC   C29 2079   1.954   4.354   3.416
   42DPPC   C30 2080   1.953   4.399   3.562
   42DPPC   C31 2081   1.897   4.541   3.562
   42DPPC   C32 2082   1.713   4.874   2.103
   42DPPC   O33 2083   1.646   4.998   2.078
   42DPPC   C34 2084   1.546   5.010   2.169
   42DPPC   O35 2085   1.497   4.911   2.223
   42DPPC   C36 2086   1.486   5.148   2.196
   42DPPC   C37 2087   1.426   5.162   2.336
   42DPPC   C38 2088   1.401   5.307   2.378
   42DPPC   C39 2089   1.274   5.360   2.310
   42DPPC   C40 2090   1.226   5.478   2.394
   42DPPC   C41 2091   1.090   5.443   2.456
   42DPPC   C42 2092   1.076   5.534   2.578
   42DPPC   C43 2093   0.964   5.494   2.675
   42DPPC   C44 2094   0.974   5.581   2.801
   42DPPC   C45 2095   0.891   5.513   2.911
   42DPPC   C46 2096   0.881   5.588   3.044
   42DPPC   C47 2097   0.771   5.529   3.132
   42DPPC   C48 2098   0.774   5.610   3.262
   42DPPC   C49 2099   0.658   5.594   3.360
   42DPPC   C50 2100   0.681   5.674   3.488
   43DPPC    C1 2101   1.728   6.462   1.904
   43DPPC    C2 2102   1.505   6.539   1.895
   43DPPC    C3 2103   1.688   6.663   1.997
   43DPPC    N4 2104   1.645   6.581   1.883
   43DPPC    C5 2105   1.699   6.639   1.759
   43DPPC    C6 2106   1.612   6.747   1.694
   43DPPC    O7 2107   1.582   6.851   1.787
   43DPPC    P8 2108   1.449   6.927   1.739
   43DPPC    O9 2109   1.388   6.869   1.617
   43DPPC   O10 2110   1.473   7.073   1.744
   43DPPC   O11 2111   1.368   6.876   1.868
   43DPPC   C12 2112   1.264   6.963   1.914
   43DPPC   C13 2113   1.193   6.905   2.036
   43DPPC   O14 2114   1.137   7.004   2.126
   43DPPC   C15 2115   1.003   7.001   2.145
   43DPPC   O16 2116   0.931   6.964   2.053
   43DPPC   C17 2117   0.960   7.087   2.264
   43DPPC   C18 2118   1.011   7.231   2.254
   43DPPC   C19 2119   0.955   7.310   2.372
   43DPPC   C20 2120   1.035   7.439   2.384
   43DPPC   C21 2121   0.963   7.529   2.484
   43DPPC   C22 2122   0.944   7.452   2.615
   43DPPC   C23 2123   0.863   7.530   2.718
   43DPPC   C24 2124   0.880   7.454   2.849
   43DPPC   C25 2125   1.026   7.448   2.894
   43DPPC   C26 2126   1.014   7.396   3.038
   43DPPC   C27 2127   1.142   7.337   3.097
   43DPPC   C28 2128   1.248   7.434   3.151
   43DPPC   C29 2129   1.359   7.364   3.230
   43DPPC   C30 2130   1.467   7.463   3.274
   43DPPC   C31 2131   1.569   7.400   3.369
   43DPPC   C32 2132   1.296   6.817   2.106
   43DPPC   O33 2133   1.267   6.724   2.211
   43DPPC   C34 2134   1.361   6.656   2.281
   43DPPC   O35 2135   1.464   6.613   2.228
   43DPPC   C36 2136   1.313   6.576   2.402
   43DPPC   C37 2137   1.315   6.657   2.532
   43DPPC   C38 2138   1.232   6.570   2.627
   43DPPC   C39 2139   1.181   6.657   2.742
   43DPPC   C40 2140   1.098   6.771   2.682
   43DPPC   C41 2141   1.027   6.858   2.785
   43DPPC   C42 2142   0.910   6.932   2.720
   43DPPC   C43 2143   0.814   6.995   2.821
   43DPPC   C44 2144   0.768   6.910   2.939
   43DPPC   C45 2145   0.683   7.008   3.020
   43DPPC   C46 2146   0.751   7.081   3.136
   43DPPC   C47 2147   0.648   7.152   3.224
   43DPPC   C48 2148   0.733   7.236   3.320
   43DPPC   C49 2149   0.650   7.354   3.368
   43DPPC   C50 2150   0.620   7.449   3.251
   44DPPC    C1 2151   4.936   1.652   1.715
   44DPPC    C2 2152   4.723   1.735   1.682
   44DPPC    C3 2153   4.810   1.737   1.896
   44DPPC    N4 2154   4.847   1.761   1.756
   44DPPC    C5 2155   4.916   1.890   1.740
   44DPPC    C6 2156   4.836   2.020   1.759
   44DPPC    O7 2157   4.785   2.046   1.890
   44DPPC    P8 2158   4.765   2.206   1.894
   44DPPC    O9 2159   4.656   2.226   1.993
   44DPPC   O10 2160   4.738   2.258   1.758
   44DPPC   O11 2161   4.912   2.244   1.948
   44DPPC   C12 2162   4.924   2.214   2.087
   44DPPC   C13 2163   5.072   2.185   2.110
   44DPPC   O14 2164   5.101   2.104   2.225
   44DPPC   C15 2165   5.222   2.042   2.228
   44DPPC   O16 2166   5.276   2.035   2.118
   44DPPC   C17 2167   5.262   1.958   2.350
   44DPPC   C18 2168   5.414   1.964   2.367
   44DPPC   C19 2169   5.441   1.927   2.513
   44DPPC   C20 2170   5.593   1.928   2.536
   44DPPC   C21 2171   5.635   1.910   2.682
   44DPPC   C22 2172   5.786   1.907   2.710
   44DPPC   C23 2173   5.816   1.888   2.859
   44DPPC   C24 2174   5.757   1.763   2.924
   44DPPC   C25 2175   5.772   1.763   3.076
   44DPPC   C26 2176   5.897   1.693   3.129
   44DPPC   C27 2177   5.881   1.660   3.277
   44DPPC   C28 2178   5.981   1.549   3.313
   44DPPC   C29 2179   5.982   1.508   3.460
   44DPPC   C30 2180   6.099   1.411   3.477
   44DPPC   C31 2181   6.112   1.362   3.621
   44DPPC   C32 2182   5.132   2.326   2.113
   44DPPC   O33 2183   5.067   2.417   2.202
   44DPPC   C34 2184   5.117   2.543   2.209
   44DPPC   O35 2185   5.208   2.584   2.137
   44DPPC   C36 2186   5.047   2.631   2.313
   44DPPC   C37 2187   5.126   2.756   2.351
   44DPPC   C38 2188   5.226   2.708   2.456
   44DPPC   C39 2189   5.154   2.690   2.590
   44DPPC   C40 2190   5.264   2.643   2.685
   44DPPC   C41 2191   5.198   2.609   2.819
   44DPPC   C42 2192   5.312   2.579   2.917
   44DPPC   C43 2193   5.254   2.507   3.039
   44DPPC   C44 2194   5.367   2.481   3.138
   44DPPC   C45 2195   5.314   2.425   3.270
   44DPPC   C46 2196   5.423   2.437   3.377
   44DPPC   C47 2197   5.378   2.351   3.496
   44DPPC   C48 2198   5.489   2.381   3.597
   44DPPC   C49 2199   5.618   2.346   3.523
   44DPPC   C50 2200   5.734   2.332   3.622
   45DPPC    C1 2201   0.267   4.279   1.599
   45DPPC    C2 2202   0.307   4.340   1.374
   45DPPC    C3 2203   0.486   4.314   1.528
   45DPPC    N4 2204   0.357   4.257   1.485
   45DPPC    C5 2205   0.374   4.114   1.454
   45DPPC    C6 2206   0.398   4.021   1.573
   45DPPC    O7 2207   0.535   3.985   1.596
   45DPPC    P8 2208   0.543   3.883   1.720
   45DPPC    O9 2209   0.689   3.860   1.718
   45DPPC   O10 2210   0.441   3.783   1.679
   45DPPC   O11 2211   0.492   3.956   1.853
   45DPPC   C12 2212   0.604   3.976   1.939
   45DPPC   C13 2213   0.581   4.076   2.053
   45DPPC   O14 2214   0.676   4.071   2.160
   45DPPC   C15 2215   0.773   4.167   2.157
   45DPPC   O16 2216   0.837   4.185   2.054
   45DPPC   C17 2217   0.825   4.189   2.299
   45DPPC   C18 2218   0.726   4.282   2.370
   45DPPC   C19 2219   0.755   4.303   2.519
   45DPPC   C20 2220   0.649   4.400   2.571
   45DPPC   C21 2221   0.685   4.495   2.685
   45DPPC   C22 2222   0.570   4.596   2.695
   45DPPC   C23 2223   0.435   4.532   2.725
   45DPPC   C24 2224   0.322   4.635   2.719
   45DPPC   C25 2225   0.216   4.560   2.800
   45DPPC   C26 2226   0.098   4.657   2.807
   45DPPC   C27 2227   0.001   4.604   2.913
   45DPPC   C28 2228   0.077   4.559   3.038
   45DPPC   C29 2229  -0.009   4.515   3.157
   45DPPC   C30 2230   0.073   4.480   3.281
   45DPPC   C31 2231  -0.001   4.388   3.378
   45DPPC   C32 2232   0.437   4.055   2.099
   45DPPC   O33 2233   0.399   4.164   2.184
   45DPPC   C34 2234   0.271   4.159   2.230
   45DPPC   O35 2235   0.190   4.082   2.179
   45DPPC   C36 2236   0.241   4.258   2.343
   45DPPC   C37 2237   0.144   4.195   2.443
   45DPPC   C38 2238   0.159   4.273   2.573
   45DPPC   C39 2239   0.065   4.214   2.679
   45DPPC   C40 2240   0.100   4.073   2.727
   45DPPC   C41 2241  -0.002   4.027   2.831
   45DPPC   C42 2242  -0.027   4.101   2.963
   45DPPC   C43 2243  -0.126   4.011   3.037
   45DPPC   C44 2244  -0.063   3.871   3.036
   45DPPC   C45 2245  -0.172   3.773   3.082
   45DPPC   C46 2246  -0.220   3.812   3.222
   45DPPC   C47 2247  -0.317   3.714   3.289
   45DPPC   C48 2248  -0.458   3.715   3.229
   45DPPC   C49 2249  -0.531   3.584   3.257
   45DPPC   C50 2250  -0.662   3.567   3.179
   46DPPC    C1 2251   9.385   1.702   1.495
   46DPPC    C2 2252   9.390   1.758   1.711
   46DPPC    C3 2253   9.597   1.748   1.573
   46DPPC    N4 2254   9.458   1.792   1.585
   46DPPC    C5 2255   9.444   1.932   1.543
   46DPPC    C6 2256   9.426   2.054   1.634
   46DPPC    O7 2257   9.309   2.062   1.716
   46DPPC    P8 2258   9.302   2.207   1.786
   46DPPC    O9 2259   9.166   2.235   1.839
   46DPPC   O10 2260   9.383   2.303   1.709
   46DPPC   O11 2261   9.397   2.179   1.913
   46DPPC   C12 2262   9.331   2.108   2.018
   46DPPC   C13 2263   9.436   2.090   2.127
   46DPPC   O14 2264   9.422   1.970   2.205
   46DPPC   C15 2265   9.475   1.857   2.151
   46DPPC   O16 2266   9.511   1.848   2.034
   46DPPC   C17 2267   9.475   1.737   2.246
   46DPPC   C18 2268   9.408   1.754   2.383
   46DPPC   C19 2269   9.357   1.623   2.443
   46DPPC   C20 2270   9.305   1.651   2.584
   46DPPC   C21 2271   9.260   1.520   2.650
   46DPPC   C22 2272   9.179   1.536   2.779
   46DPPC   C23 2273   9.139   1.396   2.825
   46DPPC   C24 2274   9.041   1.373   2.940
   46DPPC   C25 2275   9.088   1.431   3.074
   46DPPC   C26 2276   8.998   1.374   3.184
   46DPPC   C27 2277   8.977   1.483   3.288
   46DPPC   C28 2278   9.115   1.503   3.350
   46DPPC   C29 2279   9.099   1.581   3.481
   46DPPC   C30 2280   8.996   1.517   3.574
   46DPPC   C31 2281   8.991   1.589   3.710
   46DPPC   C32 2282   9.443   2.223   2.200
   46DPPC   O33 2283   9.325   2.261   2.271
   46DPPC   C34 2284   9.325   2.385   2.326
   46DPPC   O35 2285   9.424   2.454   2.299
   46DPPC   C36 2286   9.196   2.437   2.390
   46DPPC   C37 2287   9.183   2.381   2.531
   46DPPC   C38 2288   9.107   2.498   2.595
   46DPPC   C39 2289   9.084   2.466   2.742
   46DPPC   C40 2290   8.947   2.402   2.769
   46DPPC   C41 2291   8.926   2.352   2.912
   46DPPC   C42 2292   8.800   2.266   2.924
   46DPPC   C43 2293   8.767   2.221   3.066
   46DPPC   C44 2294   8.640   2.137   3.087
   46DPPC   C45 2295   8.609   2.121   3.236
   46DPPC   C46 2296   8.467   2.129   3.293
   46DPPC   C47 2297   8.454   2.113   3.445
   46DPPC   C48 2298   8.542   2.225   3.502
   46DPPC   C49 2299   8.529   2.218   3.654
   46DPPC   C50 2300   8.643   2.298   3.717
   47DPPC    C1 2301   7.710   2.002   1.528
   47DPPC    C2 2302   7.725   1.833   1.364
   47DPPC    C3 2303   7.776   1.786   1.592
   47DPPC    N4 2304   7.685   1.860   1.503
   47DPPC    C5 2305   7.543   1.822   1.503
   47DPPC    C6 2306   7.484   1.761   1.631
   47DPPC    O7 2307   7.475   1.837   1.752
   47DPPC    P8 2308   7.457   1.753   1.888
   47DPPC    O9 2309   7.409   1.623   1.836
   47DPPC   O10 2310   7.376   1.833   1.982
   47DPPC   O11 2311   7.614   1.750   1.919
   47DPPC   C12 2312   7.654   1.694   2.045
   47DPPC   C13 2313   7.785   1.748   2.103
   47DPPC   O14 2314   7.852   1.659   2.193
   47DPPC   C15 2315   7.913   1.549   2.141
   47DPPC   O16 2316   7.937   1.534   2.022
   47DPPC   C17 2317   7.939   1.436   2.241
   47DPPC   C18 2318   7.845   1.318   2.216
   47DPPC   C19 2319   7.842   1.237   2.346
   47DPPC   C20 2320   7.792   1.318   2.466
   47DPPC   C21 2321   7.654   1.377   2.436
   47DPPC   C22 2322   7.607   1.448   2.562
   47DPPC   C23 2323   7.679   1.580   2.588
   47DPPC   C24 2324   7.589   1.655   2.686
   47DPPC   C25 2325   7.451   1.692   2.630
   47DPPC   C26 2326   7.376   1.766   2.741
   47DPPC   C27 2327   7.380   1.703   2.881
   47DPPC   C28 2328   7.315   1.801   2.979
   47DPPC   C29 2329   7.298   1.727   3.112
   47DPPC   C30 2330   7.207   1.798   3.212
   47DPPC   C31 2331   7.191   1.731   3.349
   47DPPC   C32 2332   7.746   1.885   2.161
   47DPPC   O33 2333   7.617   1.890   2.223
   47DPPC   C34 2334   7.561   2.006   2.265
   47DPPC   O35 2335   7.613   2.118   2.257
   47DPPC   C36 2336   7.435   1.977   2.347
   47DPPC   C37 2337   7.418   2.044   2.483
   47DPPC   C38 2338   7.270   2.055   2.517
   47DPPC   C39 2339   7.242   2.129   2.648
   47DPPC   C40 2340   7.103   2.095   2.701
   47DPPC   C41 2341   7.072   1.948   2.729
   47DPPC   C42 2342   6.940   1.931   2.804
   47DPPC   C43 2343   6.951   1.790   2.864
   47DPPC   C44 2344   6.827   1.786   2.953
   47DPPC   C45 2345   6.819   1.675   3.058
   47DPPC   C46 2346   6.756   1.732   3.184
   47DPPC   C47 2347   6.792   1.641   3.302
   47DPPC   C48 2348   6.749   1.688   3.441
   47DPPC   C49 2349   6.831   1.812   3.475
   47DPPC   C50 2350   6.819   1.834   3.626
   48DPPC    C1 2351   8.631   0.477   1.098
   48DPPC    C2 2352   8.455   0.509   0.948
   48DPPC    C3 2353   8.540   0.287   0.977
   48DPPC    N4 2354   8.509   0.413   1.045
   48DPPC    C5 2355   8.425   0.398   1.164
   48DPPC    C6 2356   8.351   0.271   1.206
   48DPPC    O7 2357   8.317   0.290   1.344
   48DPPC    P8 2358   8.237   0.156   1.384
   48DPPC    O9 2359   8.299   0.039   1.317
   48DPPC   O10 2360   8.095   0.187   1.355
   48DPPC   O11 2361   8.267   0.167   1.542
   48DPPC   C12 2362   8.405   0.165   1.581
   48DPPC   C13 2363   8.407   0.209   1.728
   48DPPC   O14 2364   8.530   0.212   1.802
   48DPPC   C15 2365   8.616   0.317   1.791
   48DPPC   O16 2366   8.593   0.394   1.699
   48DPPC   C17 2367   8.751   0.325   1.863
   48DPPC   C18 2368   8.742   0.246   1.994
   48DPPC   C19 2369   8.881   0.253   2.057
   48DPPC   C20 2370   8.895   0.194   2.197
   48DPPC   C21 2371   8.808   0.267   2.300
   48DPPC   C22 2372   8.833   0.193   2.432
   48DPPC   C23 2373   8.733   0.078   2.416
   48DPPC   C24 2374   8.724  -0.016   2.535
   48DPPC   C25 2375   8.707   0.064   2.664
   48DPPC   C26 2376   8.691  -0.027   2.786
   48DPPC   C27 2377   8.545  -0.072   2.796
   48DPPC   C28 2378   8.497  -0.140   2.924
   48DPPC   C29 2379   8.370  -0.224   2.906
   48DPPC   C30 2380   8.309  -0.280   3.035
   48DPPC   C31 2381   8.208  -0.386   2.989
   48DPPC   C32 2382   8.297   0.128   1.795
   48DPPC   O33 2383   8.273   0.134   1.936
   48DPPC   C34 2384   8.206   0.242   1.981
   48DPPC   O35 2385   8.190   0.335   1.902
   48DPPC   C36 2386   8.161   0.248   2.127
   48DPPC   C37 2387   8.270   0.272   2.232
   48DPPC   C38 2388   8.202   0.285   2.368
   48DPPC   C39 2389   8.315   0.306   2.468
   48DPPC   C40 2390   8.265   0.299   2.613
   48DPPC   C41 2391   8.200   0.429   2.658
   48DPPC   C42 2392   8.166   0.414   2.806
   48DPPC   C43 2393   8.143   0.552   2.868
   48DPPC   C44 2394   8.091   0.555   3.012
   48DPPC   C45 2395   8.086   0.702   3.054
   48DPPC   C46 2396   8.063   0.729   3.203
   48DPPC   C47 2397   8.171   0.657   3.284
   48DPPC   C48 2398   8.177   0.686   3.435
   48DPPC   C49 2399   8.215   0.831   3.462
   48DPPC   C50 2400   8.223   0.848   3.614
   49DPPC    C1 2401   4.320   7.309   2.493
   49DPPC    C2 2402   4.253   7.320   2.731
   49DPPC    C3 2403   4.280   7.509   2.599
   49DPPC    N4 2404   4.233   7.370   2.594
   49DPPC    C5 2405   4.095   7.374   2.542
   49DPPC    C6 2406   4.025   7.241   2.512
   49DPPC    O7 2407   3.896   7.264   2.456
   49DPPC    P8 2408   3.849   7.170   2.334
   49DPPC    O9 2409   3.968   7.176   2.246
   49DPPC   O10 2410   3.724   7.240   2.296
   49DPPC   O11 2411   3.850   7.043   2.432
   49DPPC   C12 2412   3.724   6.975   2.429
   49DPPC   C13 2413   3.720   6.847   2.514
   49DPPC   O14 2414   3.604   6.764   2.503
   49DPPC   C15 2415   3.587   6.689   2.391
   49DPPC   O16 2416   3.665   6.690   2.296
   49DPPC   C17 2417   3.474   6.586   2.402
   49DPPC   C18 2418   3.533   6.464   2.473
   49DPPC   C19 2419   3.427   6.357   2.501
   49DPPC   C20 2420   3.325   6.399   2.607
   49DPPC   C21 2421   3.215   6.293   2.617
   49DPPC   C22 2422   3.120   6.320   2.734
   49DPPC   C23 2423   2.994   6.233   2.725
   49DPPC   C24 2424   3.014   6.081   2.727
   49DPPC   C25 2425   2.885   6.012   2.773
   49DPPC   C26 2426   2.897   5.861   2.753
   49DPPC   C27 2427   2.799   5.773   2.831
   49DPPC   C28 2428   2.829   5.624   2.811
   49DPPC   C29 2429   2.731   5.541   2.895
   49DPPC   C30 2430   2.744   5.540   3.047
   49DPPC   C31 2431   2.754   5.396   3.097
   49DPPC   C32 2432   3.763   6.899   2.651
   49DPPC   O33 2433   3.663   6.985   2.707
   49DPPC   C34 2434   3.690   7.034   2.831
   49DPPC   O35 2435   3.790   7.006   2.897
   49DPPC   C36 2436   3.564   7.093   2.895
   49DPPC   C37 2437   3.561   7.243   2.867
   49DPPC   C38 2438   3.449   7.307   2.950
   49DPPC   C39 2439   3.405   7.440   2.889
   49DPPC   C40 2440   3.297   7.506   2.976
   49DPPC   C41 2441   3.166   7.428   2.969
   49DPPC   C42 2442   3.052   7.479   3.058
   49DPPC   C43 2443   2.931   7.387   3.038
   49DPPC   C44 2444   2.803   7.460   3.079
   49DPPC   C45 2445   2.807   7.500   3.227
   49DPPC   C46 2446   2.671   7.557   3.268
   49DPPC   C47 2447   2.560   7.455   3.243
   49DPPC   C48 2448   2.424   7.511   3.287
   49DPPC   C49 2449   2.298   7.438   3.241
   49DPPC   C50 2450   2.301   7.420   3.090
   50DPPC    C1 2451   5.598   1.896   1.685
   50DPPC    C2 2452   5.647   1.710   1.524
   50DPPC    C3 2453   5.808   1.850   1.607
   50DPPC    N4 2454   5.683   1.783   1.647
   50DPPC    C5 2455   5.715   1.677   1.742
   50DPPC    C6 2456   5.608   1.619   1.835
   50DPPC    O7 2457   5.661   1.513   1.914
   50DPPC    P8 2458   5.538   1.412   1.937
   50DPPC    O9 2459   5.624   1.302   1.984
   50DPPC   O10 2460   5.470   1.401   1.805
   50DPPC   O11 2461   5.467   1.501   2.051
   50DPPC   C12 2462   5.524   1.465   2.177
   50DPPC   C13 2463   5.448   1.524   2.296
   50DPPC   O14 2464   5.497   1.482   2.424
   50DPPC   C15 2465   5.594   1.550   2.491
   50DPPC   O16 2466   5.669   1.628   2.432
   50DPPC   C17 2467   5.652   1.478   2.613
   50DPPC   C18 2468   5.559   1.500   2.732
   50DPPC   C19 2469   5.613   1.414   2.846
   50DPPC   C20 2470   5.529   1.422   2.973
   50DPPC   C21 2471   5.608   1.373   3.094
   50DPPC   C22 2472   5.549   1.402   3.232
   50DPPC   C23 2473   5.635   1.342   3.343
   50DPPC   C24 2474   5.569   1.380   3.476
   50DPPC   C25 2475   5.430   1.315   3.484
   50DPPC   C26 2476   5.346   1.382   3.592
   50DPPC   C27 2477   5.288   1.517   3.551
   50DPPC   C28 2478   5.198   1.594   3.648
   50DPPC   C29 2479   5.198   1.741   3.608
   50DPPC   C30 2480   5.125   1.818   3.718
   50DPPC   C31 2481   5.145   1.968   3.701
   50DPPC   C32 2482   5.298   1.511   2.270
   50DPPC   O33 2483   5.213   1.591   2.354
   50DPPC   C34 2484   5.186   1.549   2.480
   50DPPC   O35 2485   5.157   1.429   2.490
   50DPPC   C36 2486   5.104   1.657   2.551
   50DPPC   C37 2487   5.168   1.707   2.680
   50DPPC   C38 2488   5.101   1.829   2.743
   50DPPC   C39 2489   4.958   1.794   2.785
   50DPPC   C40 2490   4.908   1.933   2.826
   50DPPC   C41 2491   4.759   1.942   2.862
   50DPPC   C42 2492   4.727   1.836   2.968
   50DPPC   C43 2493   4.634   1.872   3.084
   50DPPC   C44 2494   4.617   1.749   3.172
   50DPPC   C45 2495   4.544   1.769   3.305
   50DPPC   C46 2496   4.525   1.632   3.371
   50DPPC   C47 2497   4.423   1.634   3.485
   50DPPC   C48 2498   4.490   1.708   3.601
   50DPPC   C49 2499   4.391   1.732   3.715
   50DPPC   C50 2500   4.445   1.803   3.839
   51DPPC    C1 2501   4.109   5.604   2.140
   51DPPC    C2 2502   4.308   5.720   2.134
   51DPPC    C3 2503   4.144   5.774   1.975
   51DPPC    N4 2504   4.163   5.738   2.117
   51DPPC    C5 2505   4.118   5.835   2.218
   51DPPC    C6 2506   3.972   5.878   2.203
   51DPPC    O7 2507   3.876   5.782   2.248
   51DPPC    P8 2508   3.730   5.830   2.199
   51DPPC    O9 2509   3.643   5.714   2.170
   51DPPC   O10 2510   3.732   5.929   2.089
   51DPPC   O11 2511   3.678   5.907   2.331
   51DPPC   C12 2512   3.688   5.818   2.442
   51DPPC   C13 2513   3.799   5.858   2.540
   51DPPC   O14 2514   3.833   5.751   2.629
   51DPPC   C15 2515   3.954   5.689   2.634
   51DPPC   O16 2516   4.043   5.697   2.550
   51DPPC   C17 2517   3.954   5.574   2.735
   51DPPC   C18 2518   3.995   5.629   2.872
   51DPPC   C19 2519   4.033   5.505   2.953
   51DPPC   C20 2520   4.067   5.569   3.088
   51DPPC   C21 2521   4.046   5.482   3.212
   51DPPC   C22 2522   4.125   5.352   3.192
   51DPPC   C23 2523   4.122   5.263   3.316
   51DPPC   C24 2524   4.183   5.124   3.292
   51DPPC   C25 2525   4.248   5.069   3.419
   51DPPC   C26 2526   4.306   4.928   3.411
   51DPPC   C27 2527   4.404   4.912   3.528
   51DPPC   C28 2528   4.483   4.783   3.504
   51DPPC   C29 2529   4.390   4.662   3.510
   51DPPC   C30 2530   4.471   4.534   3.491
   51DPPC   C31 2531   4.530   4.523   3.350
   51DPPC   C32 2532   3.772   5.997   2.598
   51DPPC   O33 2533   3.644   6.002   2.664
   51DPPC   C34 2534   3.607   6.115   2.729
   51DPPC   O35 2535   3.683   6.210   2.746
   51DPPC   C36 2536   3.468   6.120   2.794
   51DPPC   C37 2537   3.501   6.096   2.942
   51DPPC   C38 2538   3.379   6.073   3.031
   51DPPC   C39 2539   3.275   6.185   3.035
   51DPPC   C40 2540   3.165   6.173   3.141
   51DPPC   C41 2541   3.233   6.143   3.275
   51DPPC   C42 2542   3.135   6.157   3.391
   51DPPC   C43 2543   3.190   6.080   3.511
   51DPPC   C44 2544   3.148   6.139   3.646
   51DPPC   C45 2545   3.202   6.048   3.756
   51DPPC   C46 2546   3.139   6.098   3.886
   51DPPC   C47 2547   2.995   6.051   3.866
   51DPPC   C48 2548   2.909   6.109   3.979
   51DPPC   C49 2549   2.768   6.050   3.977
   51DPPC   C50 2550   2.705   6.109   4.103
   52DPPC    C1 2551   0.844   6.028   1.672
   52DPPC    C2 2552   0.898   6.102   1.882
   52DPPC    C3 2553   1.074   6.060   1.734
   52DPPC    N4 2554   0.939   6.117   1.742
   52DPPC    C5 2555   0.902   6.254   1.702
   52DPPC    C6 2556   0.990   6.366   1.756
   52DPPC    O7 2557   0.960   6.404   1.891
   52DPPC    P8 2558   1.068   6.492   1.971
   52DPPC    O9 2559   0.995   6.525   2.096
   52DPPC   O10 2560   1.118   6.597   1.879
   52DPPC   O11 2561   1.173   6.371   1.974
   52DPPC   C12 2562   1.148   6.293   2.092
   52DPPC   C13 2563   1.221   6.161   2.066
   52DPPC   O14 2564   1.164   6.062   2.152
   52DPPC   C15 2565   1.159   5.928   2.126
   52DPPC   O16 2566   1.210   5.881   2.024
   52DPPC   C17 2567   1.085   5.854   2.237
   52DPPC   C18 2568   0.940   5.816   2.204
   52DPPC   C19 2569   0.886   5.728   2.316
   52DPPC   C20 2570   0.737   5.708   2.292
   52DPPC   C21 2571   0.689   5.571   2.342
   52DPPC   C22 2572   0.681   5.565   2.495
   52DPPC   C23 2573   0.642   5.424   2.538
   52DPPC   C24 2574   0.613   5.408   2.687
   52DPPC   C25 2575   0.498   5.493   2.742
   52DPPC   C26 2576   0.468   5.475   2.890
   52DPPC   C27 2577   0.343   5.559   2.918
   52DPPC   C28 2578   0.297   5.546   3.063
   52DPPC   C29 2579   0.188   5.651   3.088
   52DPPC   C30 2580   0.161   5.643   3.238
   52DPPC   C31 2581   0.046   5.739   3.270
   52DPPC   C32 2582   1.371   6.185   2.081
   52DPPC   O33 2583   1.415   6.229   2.210
   52DPPC   C34 2584   1.545   6.246   2.244
   52DPPC   O35 2585   1.633   6.241   2.158
   52DPPC   C36 2586   1.566   6.309   2.382
   52DPPC   C37 2587   1.683   6.251   2.462
   52DPPC   C38 2588   1.676   6.099   2.446
   52DPPC   C39 2589   1.808   6.034   2.487
   52DPPC   C40 2590   1.827   6.062   2.636
   52DPPC   C41 2591   1.948   5.990   2.695
   52DPPC   C42 2592   2.018   6.079   2.798
   52DPPC   C43 2593   1.940   6.103   2.927
   52DPPC   C44 2594   1.899   5.968   2.986
   52DPPC   C45 2595   1.806   5.986   3.106
   52DPPC   C46 2596   1.769   5.847   3.157
   52DPPC   C47 2597   1.771   5.846   3.310
   52DPPC   C48 2598   1.903   5.905   3.359
   52DPPC   C49 2599   1.922   5.944   3.506
   52DPPC   C50 2600   2.070   5.982   3.510
   53DPPC    C1 2601   4.734   3.245   1.566
   53DPPC    C2 2602   4.517   3.155   1.637
   53DPPC    C3 2603   4.601   3.114   1.422
   53DPPC    N4 2604   4.641   3.131   1.562
   53DPPC    C5 2605   4.707   3.008   1.610
   53DPPC    C6 2606   4.756   3.006   1.755
   53DPPC    O7 2607   4.831   2.886   1.776
   53DPPC    P8 2608   4.788   2.842   1.925
   53DPPC    O9 2609   4.855   2.712   1.950
   53DPPC   O10 2610   4.643   2.865   1.941
   53DPPC   O11 2611   4.861   2.976   1.977
   53DPPC   C12 2612   4.959   2.960   2.080
   53DPPC   C13 2613   5.041   3.084   2.114
   53DPPC   O14 2614   5.158   3.058   2.192
   53DPPC   C15 2615   5.259   3.149   2.195
   53DPPC   O16 2616   5.255   3.251   2.126
   53DPPC   C17 2617   5.353   3.146   2.316
   53DPPC   C18 2618   5.272   3.122   2.443
   53DPPC   C19 2619   5.173   3.235   2.471
   53DPPC   C20 2620   5.081   3.207   2.590
   53DPPC   C21 2621   5.015   3.069   2.578
   53DPPC   C22 2622   4.963   3.020   2.713
   53DPPC   C23 2623   4.883   3.129   2.786
   53DPPC   C24 2624   4.869   3.096   2.935
   53DPPC   C25 2625   4.778   3.195   3.007
   53DPPC   C26 2626   4.783   3.157   3.156
   53DPPC   C27 2627   4.678   3.238   3.232
   53DPPC   C28 2628   4.686   3.199   3.380
   53DPPC   C29 2629   4.676   3.054   3.430
   53DPPC   C30 2630   4.672   3.052   3.583
   53DPPC   C31 2631   4.635   2.914   3.639
   53DPPC   C32 2632   4.946   3.197   2.155
   53DPPC   O33 2633   4.843   3.176   2.252
   53DPPC   C34 2634   4.761   3.283   2.271
   53DPPC   O35 2635   4.793   3.394   2.229
   53DPPC   C36 2636   4.632   3.248   2.345
   53DPPC   C37 2637   4.653   3.224   2.495
   53DPPC   C38 2638   4.513   3.199   2.551
   53DPPC   C39 2639   4.523   3.208   2.703
   53DPPC   C40 2640   4.400   3.160   2.780
   53DPPC   C41 2641   4.422   3.162   2.931
   53DPPC   C42 2642   4.288   3.137   2.999
   53DPPC   C43 2643   4.313   3.160   3.148
   53DPPC   C44 2644   4.190   3.106   3.221
   53DPPC   C45 2645   4.239   3.128   3.365
   53DPPC   C46 2646   4.133   3.095   3.470
   53DPPC   C47 2647   4.210   3.129   3.597
   53DPPC   C48 2648   4.149   3.075   3.727
   53DPPC   C49 2649   4.252   3.089   3.839
   53DPPC   C50 2650   4.200   3.017   3.964
   54DPPC    C1 2651   6.279   0.238   2.044
   54DPPC    C2 2652   6.214   0.168   1.826
   54DPPC    C3 2653   6.384   0.342   1.848
   54DPPC    N4 2654   6.327   0.219   1.906
   54DPPC    C5 2655   6.420   0.106   1.907
   54DPPC    C6 2656   6.559   0.124   1.968
   54DPPC    O7 2657   6.566   0.139   2.110
   54DPPC    P8 2658   6.696   0.220   2.160
   54DPPC    O9 2659   6.665   0.352   2.100
   54DPPC   O10 2660   6.805   0.129   2.120
   54DPPC   O11 2661   6.660   0.209   2.316
   54DPPC   C12 2662   6.537   0.280   2.335
   54DPPC   C13 2663   6.515   0.317   2.482
   54DPPC   O14 2664   6.591   0.436   2.512
   54DPPC   C15 2665   6.548   0.559   2.472
   54DPPC   O16 2666   6.443   0.573   2.410
   54DPPC   C17 2667   6.648   0.668   2.511
   54DPPC   C18 2668   6.709   0.648   2.649
   54DPPC   C19 2669   6.610   0.643   2.766
   54DPPC   C20 2670   6.660   0.616   2.908
   54DPPC   C21 2671   6.552   0.599   3.015
   54DPPC   C22 2672   6.606   0.574   3.155
   54DPPC   C23 2673   6.491   0.572   3.256
   54DPPC   C24 2674   6.525   0.550   3.403
   54DPPC   C25 2675   6.396   0.524   3.480
   54DPPC   C26 2676   6.300   0.643   3.468
   54DPPC   C27 2677   6.353   0.763   3.547
   54DPPC   C28 2678   6.234   0.851   3.586
   54DPPC   C29 2679   6.269   0.954   3.694
   54DPPC   C30 2680   6.168   0.959   3.809
   54DPPC   C31 2681   6.223   1.036   3.929
   54DPPC   C32 2682   6.549   0.187   2.555
   54DPPC   O33 2683   6.533   0.186   2.697
   54DPPC   C34 2684   6.557   0.064   2.752
   54DPPC   O35 2685   6.632  -0.007   2.686
   54DPPC   C36 2686   6.516   0.022   2.894
   54DPPC   C37 2687   6.533   0.130   3.001
   54DPPC   C38 2688   6.578   0.059   3.129
   54DPPC   C39 2689   6.583   0.169   3.236
   54DPPC   C40 2690   6.644   0.115   3.365
   54DPPC   C41 2691   6.655   0.223   3.472
   54DPPC   C42 2692   6.697   0.157   3.604
   54DPPC   C43 2693   6.706   0.258   3.719
   54DPPC   C44 2694   6.728   0.186   3.852
   54DPPC   C45 2695   6.740   0.281   3.972
   54DPPC   C46 2696   6.770   0.203   4.100
   54DPPC   C47 2697   6.753   0.291   4.224
   54DPPC   C48 2698   6.799   0.233   4.357
   54DPPC   C49 2699   6.948   0.199   4.365
   54DPPC   C50 2700   7.010   0.206   4.505
   55DPPC    C1 2701   0.306   7.117   1.991
   55DPPC    C2 2702   0.418   7.313   2.066
   55DPPC    C3 2703   0.451   7.221   1.841
   55DPPC    N4 2704   0.356   7.248   1.950
   55DPPC    C5 2705   0.242   7.334   1.912
   55DPPC    C6 2706   0.162   7.325   1.782
   55DPPC    O7 2707   0.065   7.429   1.770
   55DPPC    P8 2708  -0.012   7.422   1.629
   55DPPC    O9 2709   0.071   7.332   1.546
   55DPPC   O10 2710  -0.063   7.555   1.588
   55DPPC   O11 2711  -0.134   7.341   1.696
   55DPPC   C12 2712  -0.193   7.424   1.797
   55DPPC   C13 2713  -0.276   7.332   1.887
   55DPPC   O14 2714  -0.359   7.394   1.986
   55DPPC   C15 2715  -0.491   7.362   1.977
   55DPPC   O16 2716  -0.544   7.312   1.878
   55DPPC   C17 2717  -0.584   7.398   2.093
   55DPPC   C18 2718  -0.598   7.296   2.206
   55DPPC   C19 2719  -0.628   7.153   2.161
   55DPPC   C20 2720  -0.609   7.066   2.286
   55DPPC   C21 2721  -0.615   6.917   2.252
   55DPPC   C22 2722  -0.590   6.835   2.379
   55DPPC   C23 2723  -0.703   6.868   2.477
   55DPPC   C24 2724  -0.657   6.827   2.617
   55DPPC   C25 2725  -0.540   6.902   2.682
   55DPPC   C26 2726  -0.512   6.852   2.824
   55DPPC   C27 2727  -0.386   6.909   2.889
   55DPPC   C28 2728  -0.397   6.863   3.035
   55DPPC   C29 2729  -0.272   6.874   3.122
   55DPPC   C30 2730  -0.294   6.822   3.265
   55DPPC   C31 2731  -0.394   6.922   3.323
   55DPPC   C32 2732  -0.166   7.244   1.948
   55DPPC   O33 2733  -0.195   7.150   2.052
   55DPPC   C34 2734  -0.087   7.085   2.103
   55DPPC   O35 2735   0.023   7.084   2.049
   55DPPC   C36 2736  -0.116   6.978   2.209
   55DPPC   C37 2737  -0.169   7.040   2.338
   55DPPC   C38 2738  -0.082   7.148   2.403
   55DPPC   C39 2739  -0.143   7.171   2.542
   55DPPC   C40 2740  -0.290   7.214   2.535
   55DPPC   C41 2741  -0.331   7.226   2.682
   55DPPC   C42 2742  -0.226   7.297   2.767
   55DPPC   C43 2743  -0.262   7.315   2.915
   55DPPC   C44 2744  -0.150   7.392   2.984
   55DPPC   C45 2745  -0.156   7.379   3.136
   55DPPC   C46 2746  -0.139   7.232   3.176
   55DPPC   C47 2747  -0.124   7.217   3.327
   55DPPC   C48 2748  -0.253   7.275   3.386
   55DPPC   C49 2749  -0.256   7.233   3.533
   55DPPC   C50 2750  -0.155   7.308   3.620
   56DPPC    C1 2751   4.260   1.850   2.583
   56DPPC    C2 2752   4.311   1.796   2.806
   56DPPC    C3 2753   4.341   1.635   2.628
   56DPPC    N4 2754   4.355   1.776   2.667
   56DPPC    C5 2755   4.491   1.829   2.648
   56DPPC    C6 2756   4.568   1.796   2.520
   56DPPC    O7 2757   4.682   1.882   2.514
   56DPPC    P8 2758   4.736   1.893   2.363
   56DPPC    O9 2759   4.614   1.903   2.280
   56DPPC   O10 2760   4.842   1.793   2.339
   56DPPC   O11 2761   4.808   2.037   2.369
   56DPPC   C12 2762   4.878   2.053   2.492
   56DPPC   C13 2763   4.968   2.176   2.499
   56DPPC   O14 2764   5.063   2.167   2.606
   56DPPC   C15 2765   5.157   2.263   2.628
   56DPPC   O16 2766   5.172   2.355   2.548
   56DPPC   C17 2767   5.221   2.256   2.767
   56DPPC   C18 2768   5.371   2.232   2.745
   56DPPC   C19 2769   5.440   2.223   2.881
   56DPPC   C20 2770   5.418   2.099   2.967
   56DPPC   C21 2771   5.494   2.119   3.098
   56DPPC   C22 2772   5.484   2.006   3.200
   56DPPC   C23 2773   5.567   2.029   3.327
   56DPPC   C24 2774   5.593   1.902   3.407
   56DPPC   C25 2775   5.692   1.944   3.516
   56DPPC   C26 2776   5.709   1.814   3.595
   56DPPC   C27 2777   5.788   1.832   3.725
   56DPPC   C28 2778   5.704   1.917   3.820
   56DPPC   C29 2779   5.768   1.950   3.954
   56DPPC   C30 2780   5.658   1.978   4.057
   56DPPC   C31 2781   5.567   2.074   3.980
   56DPPC   C32 2782   4.878   2.300   2.487
   56DPPC   O33 2783   4.763   2.286   2.570
   56DPPC   C34 2784   4.662   2.375   2.549
   56DPPC   O35 2785   4.680   2.471   2.474
   56DPPC   C36 2786   4.519   2.337   2.589
   56DPPC   C37 2787   4.527   2.264   2.724
   56DPPC   C38 2788   4.394   2.210   2.775
   56DPPC   C39 2789   4.406   2.212   2.927
   56DPPC   C40 2790   4.447   2.354   2.968
   56DPPC   C41 2791   4.428   2.352   3.120
   56DPPC   C42 2792   4.535   2.264   3.184
   56DPPC   C43 2793   4.506   2.264   3.334
   56DPPC   C44 2794   4.587   2.166   3.419
   56DPPC   C45 2795   4.540   2.161   3.564
   56DPPC   C46 2796   4.544   2.303   3.622
   56DPPC   C47 2797   4.520   2.314   3.773
   56DPPC   C48 2798   4.503   2.458   3.821
   56DPPC   C49 2799   4.496   2.436   3.972
   56DPPC   C50 2800   4.618   2.367   4.033
   57DPPC    C1 2801   5.767   7.001   2.272
   57DPPC    C2 2802   5.576   6.883   2.327
   57DPPC    C3 2803   5.661   6.865   2.097
   57DPPC    N4 2804   5.694   6.877   2.240
   57DPPC    C5 2805   5.787   6.769   2.278
   57DPPC    C6 2806   5.738   6.624   2.266
   57DPPC    O7 2807   5.845   6.529   2.255
   57DPPC    P8 2808   5.786   6.388   2.206
   57DPPC    O9 2809   5.902   6.318   2.147
   57DPPC   O10 2810   5.665   6.416   2.127
   57DPPC   O11 2811   5.743   6.329   2.350
   57DPPC   C12 2812   5.867   6.301   2.416
   57DPPC   C13 2813   5.874   6.350   2.560
   57DPPC   O14 2814   6.001   6.304   2.611
   57DPPC   C15 2815   6.080   6.402   2.662
   57DPPC   O16 2816   6.023   6.511   2.657
   57DPPC   C17 2817   6.221   6.366   2.709
   57DPPC   C18 2818   6.226   6.319   2.854
   57DPPC   C19 2819   6.185   6.436   2.943
   57DPPC   C20 2820   6.164   6.398   3.090
   57DPPC   C21 2821   6.081   6.502   3.165
   57DPPC   C22 2822   6.067   6.455   3.310
   57DPPC   C23 2823   5.991   6.545   3.407
   57DPPC   C24 2824   6.020   6.508   3.553
   57DPPC   C25 2825   5.954   6.371   3.567
   57DPPC   C26 2826   5.971   6.304   3.704
   57DPPC   C27 2827   5.896   6.371   3.819
   57DPPC   C28 2828   5.908   6.291   3.948
   57DPPC   C29 2829   5.796   6.311   4.051
   57DPPC   C30 2830   5.816   6.260   4.194
   57DPPC   C31 2831   5.679   6.245   4.260
   57DPPC   C32 2832   5.756   6.293   2.639
   57DPPC   O33 2833   5.767   6.158   2.686
   57DPPC   C34 2834   5.649   6.096   2.711
   57DPPC   O35 2835   5.548   6.144   2.659
   57DPPC   C36 2836   5.655   5.959   2.778
   57DPPC   C37 2837   5.531   5.964   2.868
   57DPPC   C38 2838   5.545   5.868   2.986
   57DPPC   C39 2839   5.419   5.867   3.072
   57DPPC   C40 2840   5.439   5.789   3.201
   57DPPC   C41 2841   5.306   5.798   3.277
   57DPPC   C42 2842   5.317   5.742   3.419
   57DPPC   C43 2843   5.184   5.727   3.494
   57DPPC   C44 2844   5.203   5.644   3.621
   57DPPC   C45 2845   5.066   5.621   3.684
   57DPPC   C46 2846   5.090   5.539   3.811
   57DPPC   C47 2847   5.124   5.393   3.779
   57DPPC   C48 2848   5.227   5.344   3.881
   57DPPC   C49 2849   5.176   5.323   4.023
   57DPPC   C50 2850   5.290   5.322   4.126
   58DPPC    C1 2851   8.521   6.857   1.607
   58DPPC    C2 2852   8.544   7.070   1.501
   58DPPC    C3 2853   8.339   7.021   1.608
   58DPPC    N4 2854   8.484   7.000   1.615
   58DPPC    C5 2855   8.532   7.053   1.744
   58DPPC    C6 2856   8.470   7.181   1.799
   58DPPC    O7 2857   8.513   7.302   1.734
   58DPPC    P8 2858   8.390   7.405   1.735
   58DPPC    O9 2859   8.272   7.327   1.691
   58DPPC   O10 2860   8.427   7.530   1.666
   58DPPC   O11 2861   8.388   7.420   1.896
   58DPPC   C12 2862   8.474   7.527   1.936
   58DPPC   C13 2863   8.491   7.557   2.085
   58DPPC   O14 2864   8.593   7.657   2.092
   58DPPC   C15 2865   8.548   7.785   2.086
   58DPPC   O16 2866   8.432   7.820   2.064
   58DPPC   C17 2867   8.659   7.889   2.100
   58DPPC   C18 2868   8.623   7.975   2.221
   58DPPC   C19 2869   8.723   8.080   2.270
   58DPPC   C20 2870   8.688   8.139   2.406
   58DPPC   C21 2871   8.690   8.033   2.517
   58DPPC   C22 2872   8.667   8.092   2.656
   58DPPC   C23 2873   8.632   7.976   2.749
   58DPPC   C24 2874   8.648   8.008   2.898
   58DPPC   C25 2875   8.572   7.908   2.984
   58DPPC   C26 2876   8.559   7.955   3.129
   58DPPC   C27 2877   8.493   7.850   3.219
   58DPPC   C28 2878   8.515   7.868   3.369
   58DPPC   C29 2879   8.661   7.835   3.401
   58DPPC   C30 2880   8.683   7.828   3.552
   58DPPC   C31 2881   8.833   7.837   3.579
   58DPPC   C32 2882   8.526   7.422   2.147
   58DPPC   O33 2883   8.496   7.413   2.287
   58DPPC   C34 2884   8.495   7.285   2.330
   58DPPC   O35 2885   8.505   7.195   2.247
   58DPPC   C36 2886   8.498   7.267   2.482
   58DPPC   C37 2887   8.644   7.243   2.524
   58DPPC   C38 2888   8.641   7.235   2.677
   58DPPC   C39 2889   8.779   7.197   2.733
   58DPPC   C40 2890   8.803   7.254   2.873
   58DPPC   C41 2891   8.700   7.205   2.974
   58DPPC   C42 2892   8.774   7.217   3.107
   58DPPC   C43 2893   8.716   7.103   3.190
   58DPPC   C44 2894   8.760   6.966   3.138
   58DPPC   C45 2895   8.695   6.858   3.224
   58DPPC   C46 2896   8.708   6.867   3.376
   58DPPC   C47 2897   8.638   6.756   3.455
   58DPPC   C48 2898   8.694   6.734   3.596
   58DPPC   C49 2899   8.640   6.607   3.662
   58DPPC   C50 2900   8.699   6.586   3.802
   59DPPC    C1 2901   0.972   5.270   2.115
   59DPPC    C2 2902   0.798   5.102   2.128
   59DPPC    C3 2903   0.773   5.302   2.002
   59DPPC    N4 2904   0.869   5.197   2.040
   59DPPC    C5 2905   0.933   5.131   1.926
   59DPPC    C6 2906   0.856   5.022   1.852
   59DPPC    O7 2907   0.716   5.040   1.829
   59DPPC    P8 2908   0.656   4.902   1.772
   59DPPC    O9 2909   0.764   4.803   1.750
   59DPPC   O10 2910   0.547   4.927   1.674
   59DPPC   O11 2911   0.579   4.849   1.903
   59DPPC   C12 2912   0.460   4.927   1.914
   59DPPC   C13 2913   0.398   4.945   2.053
   59DPPC   O14 2914   0.462   5.021   2.156
   59DPPC   C15 2915   0.382   5.122   2.198
   59DPPC   O16 2916   0.341   5.213   2.127
   59DPPC   C17 2917   0.423   5.161   2.341
   59DPPC   C18 2918   0.316   5.185   2.447
   59DPPC   C19 2919   0.243   5.053   2.473
   59DPPC   C20 2920   0.172   5.036   2.608
   59DPPC   C21 2921   0.286   5.053   2.708
   59DPPC   C22 2922   0.243   5.044   2.855
   59DPPC   C23 2923   0.363   5.101   2.930
   59DPPC   C24 2924   0.496   5.026   2.921
   59DPPC   C25 2925   0.607   5.122   2.965
   59DPPC   C26 2926   0.743   5.052   2.962
   59DPPC   C27 2927   0.735   4.923   3.045
   59DPPC   C28 2928   0.865   4.846   3.071
   59DPPC   C29 2929   0.917   4.804   2.934
   59DPPC   C30 2930   1.051   4.731   2.937
   59DPPC   C31 2931   1.078   4.659   2.804
   59DPPC   C32 2932   0.391   4.798   2.095
   59DPPC   O33 2933   0.283   4.772   2.185
   59DPPC   C34 2934   0.252   4.640   2.198
   59DPPC   O35 2935   0.296   4.563   2.112
   59DPPC   C36 2936   0.145   4.597   2.298
   59DPPC   C37 2937   0.085   4.722   2.362
   59DPPC   C38 2938  -0.053   4.688   2.419
   59DPPC   C39 2939  -0.127   4.817   2.454
   59DPPC   C40 2940  -0.253   4.803   2.540
   59DPPC   C41 2941  -0.310   4.942   2.565
   59DPPC   C42 2942  -0.431   4.939   2.658
   59DPPC   C43 2943  -0.384   4.881   2.791
   59DPPC   C44 2944  -0.498   4.863   2.891
   59DPPC   C45 2945  -0.443   4.773   3.002
   59DPPC   C46 2946  -0.334   4.843   3.083
   59DPPC   C47 2947  -0.252   4.742   3.165
   59DPPC   C48 2948  -0.353   4.709   3.275
   59DPPC   C49 2949  -0.401   4.829   3.358
   59DPPC   C50 2950  -0.490   4.768   3.466
   60DPPC    C1 2951   6.926   4.769   1.522
   60DPPC    C2 2952   6.716   4.676   1.609
   60DPPC    C3 2953   6.844   4.814   1.737
   60DPPC    N4 2954   6.803   4.794   1.597
   60DPPC    C5 2955   6.748   4.913   1.530
   60DPPC    C6 2956   6.625   4.977   1.595
   60DPPC    O7 2957   6.606   5.113   1.554
   60DPPC    P8 2958   6.550   5.205   1.674
   60DPPC    O9 2959   6.464   5.110   1.747
   60DPPC   O10 2960   6.510   5.326   1.599
   60DPPC   O11 2961   6.690   5.233   1.749
   60DPPC   C12 2962   6.704   5.169   1.876
   60DPPC   C13 2963   6.825   5.204   1.964
   60DPPC   O14 2964   6.837   5.113   2.074
   60DPPC   C15 2965   6.929   5.013   2.061
   60DPPC   O16 2966   6.993   5.001   1.957
   60DPPC   C17 2967   6.939   4.927   2.186
   60DPPC   C18 2968   6.852   4.803   2.165
   60DPPC   C19 2969   6.859   4.705   2.282
   60DPPC   C20 2970   6.753   4.597   2.261
   60DPPC   C21 2971   6.733   4.498   2.376
   60DPPC   C22 2972   6.672   4.573   2.494
   60DPPC   C23 2973   6.667   4.471   2.608
   60DPPC   C24 2974   6.626   4.536   2.740
   60DPPC   C25 2975   6.578   4.432   2.842
   60DPPC   C26 2976   6.565   4.487   2.985
   60DPPC   C27 2977   6.495   4.388   3.079
   60DPPC   C28 2978   6.564   4.252   3.062
   60DPPC   C29 2979   6.517   4.158   3.173
   60DPPC   C30 2980   6.546   4.009   3.155
   60DPPC   C31 2981   6.542   3.934   3.289
   60DPPC   C32 2982   6.815   5.352   2.005
   60DPPC   O33 2983   6.683   5.385   2.050
   60DPPC   C34 2984   6.670   5.516   2.083
   60DPPC   O35 2985   6.750   5.601   2.044
   60DPPC   C36 2986   6.548   5.555   2.167
   60DPPC   C37 2987   6.557   5.538   2.319
   60DPPC   C38 2988   6.424   5.592   2.372
   60DPPC   C39 2989   6.449   5.676   2.498
   60DPPC   C40 2990   6.313   5.725   2.546
   60DPPC   C41 2991   6.316   5.816   2.669
   60DPPC   C42 2992   6.171   5.833   2.712
   60DPPC   C43 2993   6.161   5.925   2.834
   60DPPC   C44 2994   6.016   5.932   2.883
   60DPPC   C45 2995   6.023   6.029   3.002
   60DPPC   C46 2996   6.114   5.979   3.114
   60DPPC   C47 2997   6.115   6.056   3.247
   60DPPC   C48 2998   6.197   5.977   3.349
   60DPPC   C49 2999   6.198   6.082   3.459
   60DPPC   C50 3000   6.259   6.029   3.589
   61DPPC    C1 3001   4.048   0.256   2.441
   61DPPC    C2 3002   4.081   0.149   2.249
   61DPPC    C3 3003   3.853   0.179   2.306
   61DPPC    N4 3004   3.985   0.244   2.309
   61DPPC    C5 3005   3.981   0.371   2.236
   61DPPC    C6 3006   3.890   0.483   2.286
   61DPPC    O7 3007   3.952   0.580   2.372
   61DPPC    P8 3008   3.840   0.691   2.400
   61DPPC    O9 3009   3.714   0.636   2.454
   61DPPC   O10 3010   3.855   0.802   2.304
   61DPPC   O11 3011   3.919   0.751   2.527
   61DPPC   C12 3012   3.939   0.642   2.618
   61DPPC   C13 3013   3.977   0.688   2.758
   61DPPC   O14 3014   4.015   0.579   2.844
   61DPPC   C15 3015   4.148   0.569   2.868
   61DPPC   O16 3016   4.219   0.609   2.776
   61DPPC   C17 3017   4.194   0.460   2.965
   61DPPC   C18 3018   4.110   0.332   2.976
   61DPPC   C19 3019   4.179   0.228   3.064
   61DPPC   C20 3020   4.315   0.171   3.023
   61DPPC   C21 3021   4.324   0.034   3.090
   61DPPC   C22 3022   4.450  -0.043   3.049
   61DPPC   C23 3023   4.577   0.037   3.078
   61DPPC   C24 3024   4.703  -0.036   3.030
   61DPPC   C25 3025   4.825   0.054   3.009
   61DPPC   C26 3026   4.964  -0.001   3.041
   61DPPC   C27 3027   5.070   0.033   2.936
   61DPPC   C28 3028   5.201  -0.041   2.961
   61DPPC   C29 3029   5.187  -0.191   2.988
   61DPPC   C30 3030   5.102  -0.274   2.892
   61DPPC   C31 3031   5.113  -0.419   2.941
   61DPPC   C32 3032   3.863   0.782   2.798
   61DPPC   O33 3033   3.893   0.866   2.910
   61DPPC   C34 3034   3.795   0.949   2.955
   61DPPC   O35 3035   3.695   0.964   2.884
   61DPPC   C36 3036   3.830   1.046   3.068
   61DPPC   C37 3037   3.794   0.987   3.204
   61DPPC   C38 3038   3.821   1.094   3.309
   61DPPC   C39 3039   3.793   1.043   3.451
   61DPPC   C40 3040   3.648   0.996   3.462
   61DPPC   C41 3041   3.642   0.871   3.551
   61DPPC   C42 3042   3.494   0.832   3.556
   61DPPC   C43 3043   3.491   0.718   3.658
   61DPPC   C44 3044   3.358   0.642   3.664
   61DPPC   C45 3045   3.377   0.535   3.771
   61DPPC   C46 3046   3.415   0.589   3.909
   61DPPC   C47 3047   3.316   0.685   3.976
   61DPPC   C48 3048   3.373   0.704   4.117
   61DPPC   C49 3049   3.265   0.772   4.201
   61DPPC   C50 3050   3.295   0.764   4.350
   62DPPC    C1 3051   7.848   4.382   1.329
   62DPPC    C2 3052   7.661   4.228   1.393
   62DPPC    C3 3053   7.787   4.347   1.550
   62DPPC    N4 3054   7.732   4.355   1.414
   62DPPC    C5 3055   7.650   4.475   1.390
   62DPPC    C6 3056   7.504   4.476   1.435
   62DPPC    O7 3057   7.498   4.498   1.576
   62DPPC    P8 3058   7.351   4.481   1.639
   62DPPC    O9 3059   7.362   4.375   1.742
   62DPPC   O10 3060   7.265   4.481   1.518
   62DPPC   O11 3061   7.345   4.630   1.700
   62DPPC   C12 3062   7.437   4.639   1.808
   62DPPC   C13 3063   7.397   4.755   1.901
   62DPPC   O14 3064   7.482   4.778   2.014
   62DPPC   C15 3065   7.474   4.903   2.067
   62DPPC   O16 3066   7.461   4.999   1.991
   62DPPC   C17 3067   7.528   4.914   2.210
   62DPPC   C18 3068   7.431   4.952   2.322
   62DPPC   C19 3069   7.314   4.853   2.328
   62DPPC   C20 3070   7.262   4.878   2.470
   62DPPC   C21 3071   7.116   4.838   2.494
   62DPPC   C22 3072   7.075   4.876   2.637
   62DPPC   C23 3073   6.938   4.824   2.679
   62DPPC   C24 3074   6.895   4.866   2.819
   62DPPC   C25 3075   6.751   4.838   2.860
   62DPPC   C26 3076   6.645   4.889   2.762
   62DPPC   C27 3077   6.501   4.862   2.808
   62DPPC   C28 3078   6.383   4.877   2.711
   62DPPC   C29 3079   6.250   4.854   2.782
   62DPPC   C30 3080   6.263   4.722   2.860
   62DPPC   C31 3081   6.126   4.690   2.920
   62DPPC   C32 3082   7.247   4.746   1.929
   62DPPC   O33 3083   7.225   4.620   1.994
   62DPPC   C34 3084   7.097   4.575   2.000
   62DPPC   O35 3085   7.016   4.610   1.914
   62DPPC   C36 3086   7.082   4.453   2.091
   62DPPC   C37 3087   7.177   4.456   2.211
   62DPPC   C38 3088   7.146   4.348   2.315
   62DPPC   C39 3089   7.232   4.367   2.440
   62DPPC   C40 3090   7.178   4.308   2.571
   62DPPC   C41 3091   7.038   4.362   2.600
   62DPPC   C42 3092   6.986   4.324   2.739
   62DPPC   C43 3093   7.086   4.362   2.849
   62DPPC   C44 3094   7.025   4.336   2.986
   62DPPC   C45 3095   6.989   4.187   2.983
   62DPPC   C46 3096   6.953   4.139   3.124
   62DPPC   C47 3097   6.925   3.991   3.151
   62DPPC   C48 3098   6.886   3.976   3.298
   62DPPC   C49 3099   6.970   4.050   3.402
   62DPPC   C50 3100   6.898   4.053   3.537
   63DPPC    C1 3101   7.864   8.423   1.248
   63DPPC    C2 3102   7.839   8.200   1.232
   63DPPC    C3 3103   8.033   8.274   1.341
   63DPPC    N4 3104   7.889   8.301   1.327
   63DPPC    C5 3105   7.805   8.289   1.447
   63DPPC    C6 3106   7.865   8.341   1.578
   63DPPC    O7 3107   7.875   8.481   1.606
   63DPPC    P8 3108   7.944   8.476   1.752
   63DPPC    O9 3109   7.979   8.617   1.775
   63DPPC   O10 3110   8.048   8.371   1.740
   63DPPC   O11 3111   7.821   8.419   1.839
   63DPPC   C12 3112   7.759   8.530   1.903
   63DPPC   C13 3113   7.635   8.496   1.986
   63DPPC   O14 3114   7.563   8.611   2.031
   63DPPC   C15 3115   7.451   8.639   1.959
   63DPPC   O16 3116   7.424   8.585   1.852
   63DPPC   C17 3117   7.362   8.749   2.017
   63DPPC   C18 3118   7.433   8.823   2.131
   63DPPC   C19 3119   7.329   8.895   2.216
   63DPPC   C20 3120   7.384   8.968   2.339
   63DPPC   C21 3121   7.289   9.010   2.451
   63DPPC   C22 3122   7.352   8.986   2.589
   63DPPC   C23 3123   7.255   9.050   2.688
   63DPPC   C24 3124   7.246   9.000   2.832
   63DPPC   C25 3125   7.140   9.084   2.904
   63DPPC   C26 3126   7.092   9.029   3.038
   63DPPC   C27 3127   7.199   9.034   3.147
   63DPPC   C28 3128   7.153   8.995   3.288
   63DPPC   C29 3129   7.114   8.849   3.310
   63DPPC   C30 3130   7.077   8.823   3.457
   63DPPC   C31 3131   7.192   8.737   3.510
   63DPPC   C32 3132   7.688   8.419   2.107
   63DPPC   O33 3133   7.804   8.477   2.168
   63DPPC   C34 3134   7.853   8.407   2.274
   63DPPC   O35 3135   7.784   8.323   2.332
   63DPPC   C36 3136   7.976   8.476   2.333
   63DPPC   C37 3137   7.958   8.526   2.477
   63DPPC   C38 3138   7.888   8.662   2.482
   63DPPC   C39 3139   7.864   8.701   2.628
   63DPPC   C40 3140   7.795   8.837   2.643
   63DPPC   C41 3141   7.780   8.879   2.789
   63DPPC   C42 3142   7.710   9.015   2.790
   63DPPC   C43 3143   7.672   9.063   2.930
   63DPPC   C44 3144   7.600   9.197   2.941
   63DPPC   C45 3145   7.622   9.269   3.074
   63DPPC   C46 3146   7.550   9.185   3.179
   63DPPC   C47 3147   7.558   9.254   3.316
   63DPPC   C48 3148   7.476   9.188   3.427
   63DPPC   C49 3149   7.487   9.267   3.557
   63DPPC   C50 3150   7.407   9.204   3.671
   64DPPC    C1 3151   3.473  -0.016   2.183
   64DPPC    C2 3152   3.394  -0.083   1.970
   64DPPC    C3 3153   3.270   0.087   2.091
   64DPPC    N4 3154   3.403   0.031   2.063
   64DPPC    C5 3155   3.498   0.119   1.993
   64DPPC    C6 3156   3.565   0.238   2.061
   64DPPC    O7 3157   3.473   0.333   2.114
   64DPPC    P8 3158   3.538   0.452   2.200
   64DPPC    O9 3159   3.429   0.540   2.246
   64DPPC   O10 3160   3.650   0.498   2.114
   64DPPC   O11 3161   3.594   0.367   2.324
   64DPPC   C12 3162   3.476   0.353   2.404
   64DPPC   C13 3163   3.499   0.302   2.546
   64DPPC   O14 3164   3.370   0.285   2.606
   64DPPC   C15 3165   3.288   0.182   2.571
   64DPPC   O16 3166   3.320   0.107   2.479
   64DPPC   C17 3167   3.154   0.175   2.643
   64DPPC   C18 3168   3.178   0.157   2.793
   64DPPC   C19 3169   3.216   0.291   2.856
   64DPPC   C20 3170   3.224   0.277   3.008
   64DPPC   C21 3171   3.095   0.221   3.069
   64DPPC   C22 3172   3.109   0.208   3.221
   64DPPC   C23 3173   3.237   0.138   3.268
   64DPPC   C24 3174   3.287   0.203   3.397
   64DPPC   C25 3175   3.413   0.146   3.461
   64DPPC   C26 3176   3.372   0.027   3.548
   64DPPC   C27 3177   3.499  -0.053   3.579
   64DPPC   C28 3178   3.450  -0.179   3.651
   64DPPC   C29 3179   3.567  -0.278   3.652
   64DPPC   C30 3180   3.596  -0.331   3.511
   64DPPC   C31 3181   3.678  -0.459   3.527
   64DPPC   C32 3182   3.589   0.409   2.609
   64DPPC   O33 3183   3.629   0.367   2.739
   64DPPC   C34 3184   3.722   0.267   2.739
   64DPPC   O35 3185   3.790   0.244   2.640
   64DPPC   C36 3186   3.756   0.203   2.874
   64DPPC   C37 3187   3.645   0.114   2.931
   64DPPC   C38 3188   3.655   0.129   3.083
   64DPPC   C39 3189   3.788   0.086   3.144
   64DPPC   C40 3190   3.793  -0.067   3.131
   64DPPC   C41 3191   3.935  -0.114   3.161
   64DPPC   C42 3192   3.976  -0.059   3.297
   64DPPC   C43 3193   4.095  -0.134   3.358
   64DPPC   C44 3194   4.045  -0.278   3.377
   64DPPC   C45 3195   4.156  -0.368   3.432
   64DPPC   C46 3196   4.097  -0.494   3.497
   64DPPC   C47 3197   4.212  -0.589   3.532
   64DPPC   C48 3198   4.150  -0.721   3.579
   64DPPC   C49 3199   4.264  -0.821   3.599
   64DPPC   C50 3200   4.335  -0.846   3.465
   65DPPC    C1 3201   2.436   5.044   5.900
   65DPPC    C2 3202   2.615   5.015   5.748
   65DPPC    C3 3203   2.600   4.876   5.944
   65DPPC    N4 3204   2.523   4.943   5.838
   65DPPC    C5 3205   2.441   4.836   5.780
   65DPPC    C6 3206   2.493   4.716   5.702
   65DPPC    O7 3207   2.400   4.607   5.692
   65DPPC    P8 3208   2.480   4.474   5.650
   65DPPC    O9 3209   2.364   4.383   5.644
   65DPPC   O10 3210   2.594   4.462   5.744
   65DPPC   O11 3211   2.540   4.519   5.507
   65DPPC   C12 3212   2.463   4.471   5.397
   65DPPC   C13 3213   2.523   4.518   5.265
   65DPPC   O14 3214   2.433   4.514   5.153
   65DPPC   C15 3215   2.339   4.610   5.130
   65DPPC   O16 3216   2.329   4.701   5.212
   65DPPC   C17 3217   2.285   4.622   4.988
   65DPPC   C18 3218   2.323   4.752   4.916
   65DPPC   C19 3219   2.474   4.775   4.903
   65DPPC   C20 3220   2.496   4.896   4.811
   65DPPC   C21 3221   2.643   4.907   4.769
   65DPPC   C22 3222   2.663   5.033   4.685
   65DPPC   C23 3223   2.552   5.026   4.579
   65DPPC   C24 3224   2.592   5.140   4.485
   65DPPC   C25 3225   2.729   5.107   4.425
   65DPPC   C26 3226   2.793   5.222   4.348
   65DPPC   C27 3227   2.937   5.181   4.313
   65DPPC   C28 3228   3.006   5.286   4.226
   65DPPC   C29 3229   3.149   5.236   4.203
   65DPPC   C30 3230   3.233   5.334   4.122
   65DPPC   C31 3231   3.372   5.271   4.111
   65DPPC   C32 3232   2.652   4.436   5.259
   65DPPC   O33 3233   2.649   4.294   5.272
   65DPPC   C34 3234   2.775   4.242   5.264
   65DPPC   O35 3235   2.876   4.310   5.278
   65DPPC   C36 3236   2.770   4.090   5.283
   65DPPC   C37 3237   2.707   3.993   5.183
   65DPPC   C38 3238   2.777   4.017   5.049
   65DPPC   C39 3239   2.722   3.930   4.936
   65DPPC   C40 3240   2.816   3.933   4.815
   65DPPC   C41 3241   2.777   3.865   4.683
   65DPPC   C42 3242   2.873   3.876   4.564
   65DPPC   C43 3243   2.861   4.015   4.500
   65DPPC   C44 3244   2.921   4.001   4.360
   65DPPC   C45 3245   2.877   4.122   4.278
   65DPPC   C46 3246   2.952   4.108   4.145
   65DPPC   C47 3247   2.876   4.038   4.032
   65DPPC   C48 3248   2.959   4.019   3.906
   65DPPC   C49 3249   2.880   3.933   3.808
   65DPPC   C50 3250   2.753   4.011   3.771
   66DPPC    C1 3251   8.161   1.271   1.679
   66DPPC    C2 3252   8.126   1.503   1.685
   66DPPC    C3 3253   8.215   1.401   1.874
   66DPPC    N4 3254   8.219   1.397   1.727
   66DPPC    C5 3255   8.342   1.428   1.653
   66DPPC    C6 3256   8.452   1.322   1.658
   66DPPC    O7 3257   8.566   1.375   1.590
   66DPPC    P8 3258   8.693   1.277   1.574
   66DPPC    O9 3259   8.817   1.329   1.513
   66DPPC   O10 3260   8.637   1.150   1.521
   66DPPC   O11 3261   8.713   1.258   1.732
   66DPPC   C12 3262   8.750   1.372   1.810
   66DPPC   C13 3263   8.705   1.346   1.954
   66DPPC   O14 3264   8.692   1.463   2.037
   66DPPC   C15 3265   8.576   1.533   2.019
   66DPPC   O16 3266   8.513   1.524   1.914
   66DPPC   C17 3267   8.532   1.629   2.130
   66DPPC   C18 3268   8.447   1.561   2.238
   66DPPC   C19 3269   8.396   1.641   2.357
   66DPPC   C20 3270   8.295   1.750   2.321
   66DPPC   C21 3271   8.197   1.781   2.434
   66DPPC   C22 3272   8.107   1.901   2.403
   66DPPC   C23 3273   7.987   1.897   2.499
   66DPPC   C24 3274   7.914   2.030   2.482
   66DPPC   C25 3275   7.785   2.044   2.562
   66DPPC   C26 3276   7.803   2.023   2.712
   66DPPC   C27 3277   7.686   2.042   2.808
   66DPPC   C28 3278   7.724   1.996   2.948
   66DPPC   C29 3279   7.603   2.015   3.041
   66DPPC   C30 3280   7.647   2.006   3.187
   66DPPC   C31 3281   7.536   2.029   3.290
   66DPPC   C32 3282   8.793   1.229   1.999
   66DPPC   O33 3283   8.767   1.175   2.128
   66DPPC   C34 3284   8.648   1.117   2.159
   66DPPC   O35 3285   8.547   1.142   2.094
   66DPPC   C36 3286   8.646   1.032   2.287
   66DPPC   C37 3287   8.680   1.112   2.413
   66DPPC   C38 3288   8.720   1.015   2.524
   66DPPC   C39 3289   8.746   1.079   2.660
   66DPPC   C40 3290   8.766   0.986   2.780
   66DPPC   C41 3291   8.893   0.900   2.772
   66DPPC   C42 3292   8.916   0.830   2.906
   66DPPC   C43 3293   8.933   0.917   3.031
   66DPPC   C44 3294   8.969   0.826   3.149
   66DPPC   C45 3295   8.958   0.910   3.276
   66DPPC   C46 3296   8.934   0.823   3.400
   66DPPC   C47 3297   9.055   0.730   3.411
   66DPPC   C48 3298   9.043   0.648   3.540
   66DPPC   C49 3299   9.154   0.547   3.570
   66DPPC   C50 3300   9.138   0.463   3.697
   67DPPC    C1 3301   4.921   2.950   6.220
   67DPPC    C2 3302   4.726   2.837   6.225
   67DPPC    C3 3303   4.739   3.009   6.070
   67DPPC    N4 3304   4.818   2.899   6.129
   67DPPC    C5 3305   4.874   2.800   6.036
   67DPPC    C6 3306   4.958   2.686   6.096
   67DPPC    O7 3307   5.049   2.624   6.006
   67DPPC    P8 3308   5.113   2.499   6.085
   67DPPC    O9 3309   5.060   2.476   6.222
   67DPPC   O10 3310   5.258   2.500   6.054
   67DPPC   O11 3311   5.045   2.382   5.998
   67DPPC   C12 3312   5.084   2.400   5.862
   67DPPC   C13 3313   5.030   2.292   5.768
   67DPPC   O14 3314   5.102   2.281   5.645
   67DPPC   C15 3315   5.209   2.197   5.646
   67DPPC   O16 3316   5.244   2.143   5.751
   67DPPC   C17 3317   5.293   2.181   5.519
   67DPPC   C18 3318   5.292   2.032   5.484
   67DPPC   C19 3319   5.362   2.029   5.348
   67DPPC   C20 3320   5.493   2.104   5.370
   67DPPC   C21 3321   5.577   2.104   5.243
   67DPPC   C22 3322   5.722   2.150   5.257
   67DPPC   C23 3323   5.801   2.141   5.126
   67DPPC   C24 3324   5.735   2.218   5.011
   67DPPC   C25 3325   5.822   2.221   4.886
   67DPPC   C26 3326   5.753   2.300   4.774
   67DPPC   C27 3327   5.831   2.279   4.644
   67DPPC   C28 3328   5.748   2.316   4.520
   67DPPC   C29 3329   5.814   2.286   4.386
   67DPPC   C30 3330   5.748   2.362   4.271
   67DPPC   C31 3331   5.824   2.324   4.144
   67DPPC   C32 3332   4.880   2.312   5.748
   67DPPC   O33 3333   4.832   2.427   5.678
   67DPPC   C34 3334   4.697   2.440   5.683
   67DPPC   O35 3335   4.634   2.413   5.785
   67DPPC   C36 3336   4.641   2.505   5.557
   67DPPC   C37 3337   4.643   2.658   5.568
   67DPPC   C38 3338   4.576   2.707   5.439
   67DPPC   C39 3339   4.619   2.661   5.300
   67DPPC   C40 3340   4.543   2.729   5.185
   67DPPC   C41 3341   4.604   2.693   5.050
   67DPPC   C42 3342   4.563   2.790   4.939
   67DPPC   C43 3343   4.597   2.935   4.972
   67DPPC   C44 3344   4.539   3.012   4.852
   67DPPC   C45 3345   4.594   2.958   4.720
   67DPPC   C46 3346   4.553   3.042   4.598
   67DPPC   C47 3347   4.618   2.993   4.468
   67DPPC   C48 3348   4.585   3.079   4.346
   67DPPC   C49 3349   4.644   2.999   4.230
   67DPPC   C50 3350   4.667   3.093   4.112
   68DPPC    C1 3351   0.726   3.966   1.336
   68DPPC    C2 3352   0.923   3.868   1.242
   68DPPC    C3 3353   0.965   4.026   1.388
   68DPPC    N4 3354   0.863   3.922   1.365
   68DPPC    C5 3355   0.866   3.824   1.474
   68DPPC    C6 3356   0.805   3.686   1.444
   68DPPC    O7 3357   0.823   3.589   1.547
   68DPPC    P8 3358   0.755   3.446   1.519
   68DPPC    O9 3359   0.849   3.334   1.541
   68DPPC   O10 3360   0.683   3.452   1.389
   68DPPC   O11 3361   0.666   3.473   1.650
   68DPPC   C12 3362   0.754   3.453   1.761
   68DPPC   C13 3363   0.719   3.549   1.875
   68DPPC   O14 3364   0.793   3.509   1.991
   68DPPC   C15 3365   0.903   3.578   2.032
   68DPPC   O16 3366   0.958   3.661   1.960
   68DPPC   C17 3367   0.945   3.542   2.175
   68DPPC   C18 3368   0.865   3.605   2.289
   68DPPC   C19 3369   0.847   3.752   2.253
   68DPPC   C20 3370   0.754   3.812   2.359
   68DPPC   C21 3371   0.820   3.792   2.495
   68DPPC   C22 3372   0.718   3.864   2.583
   68DPPC   C23 3373   0.748   3.858   2.733
   68DPPC   C24 3374   0.639   3.937   2.805
   68DPPC   C25 3375   0.630   4.087   2.774
   68DPPC   C26 3376   0.503   4.150   2.831
   68DPPC   C27 3377   0.500   4.121   2.982
   68DPPC   C28 3378   0.374   4.165   3.057
   68DPPC   C29 3379   0.369   4.144   3.208
   68DPPC   C30 3380   0.368   3.995   3.241
   68DPPC   C31 3381   0.350   3.965   3.390
   68DPPC   C32 3382   0.568   3.535   1.899
   68DPPC   O33 3383   0.512   3.641   1.977
   68DPPC   C34 3384   0.402   3.601   2.046
   68DPPC   O35 3385   0.334   3.510   2.001
   68DPPC   C36 3386   0.331   3.709   2.129
   68DPPC   C37 3387   0.330   3.676   2.279
   68DPPC   C38 3388   0.303   3.787   2.380
   68DPPC   C39 3389   0.155   3.826   2.381
   68DPPC   C40 3390   0.057   3.735   2.455
   68DPPC   C41 3391  -0.086   3.783   2.430
   68DPPC   C42 3392  -0.183   3.685   2.496
   68DPPC   C43 3393  -0.154   3.694   2.646
   68DPPC   C44 3394  -0.257   3.593   2.698
   68DPPC   C45 3395  -0.392   3.661   2.715
   68DPPC   C46 3396  -0.386   3.782   2.809
   68DPPC   C47 3397  -0.527   3.841   2.803
   68DPPC   C48 3398  -0.559   3.967   2.884
   68DPPC   C49 3399  -0.703   4.015   2.863
   68DPPC   C50 3400  -0.789   3.906   2.926
   69DPPC    C1 3401   5.532   2.537   6.583
   69DPPC    C2 3402   5.595   2.542   6.356
   69DPPC    C3 3403   5.538   2.333   6.461
   69DPPC    N4 3404   5.505   2.476   6.452
   69DPPC    C5 3405   5.366   2.509   6.417
   69DPPC    C6 3406   5.311   2.644   6.464
   69DPPC    O7 3407   5.360   2.764   6.402
   69DPPC    P8 3408   5.269   2.896   6.387
   69DPPC    O9 3409   5.354   3.003   6.445
   69DPPC   O10 3410   5.138   2.855   6.441
   69DPPC   O11 3411   5.276   2.877   6.228
   69DPPC   C12 3412   5.403   2.905   6.169
   69DPPC   C13 3413   5.383   2.872   6.021
   69DPPC   O14 3414   5.493   2.916   5.940
   69DPPC   C15 3415   5.521   3.041   5.893
   69DPPC   O16 3416   5.478   3.137   5.956
   69DPPC   C17 3417   5.639   3.056   5.798
   69DPPC   C18 3418   5.571   3.041   5.661
   69DPPC   C19 3419   5.678   3.045   5.551
   69DPPC   C20 3420   5.633   2.996   5.413
   69DPPC   C21 3421   5.749   3.011   5.314
   69DPPC   C22 3422   5.708   2.993   5.168
   69DPPC   C23 3423   5.830   3.041   5.090
   69DPPC   C24 3424   5.788   3.093   4.952
   69DPPC   C25 3425   5.917   3.154   4.899
   69DPPC   C26 3426   5.913   3.224   4.763
   69DPPC   C27 3427   5.868   3.128   4.653
   69DPPC   C28 3428   5.829   3.195   4.521
   69DPPC   C29 3429   5.794   3.085   4.422
   69DPPC   C30 3430   5.775   3.148   4.284
   69DPPC   C31 3431   5.740   3.045   4.176
   69DPPC   C32 3432   5.247   2.928   5.982
   69DPPC   O33 3433   5.216   2.887   5.848
   69DPPC   C34 3434   5.106   2.938   5.786
   69DPPC   O35 3435   5.028   3.014   5.842
   69DPPC   C36 3436   5.107   2.926   5.634
   69DPPC   C37 3437   5.047   2.792   5.591
   69DPPC   C38 3438   5.101   2.748   5.455
   69DPPC   C39 3439   5.044   2.613   5.410
   69DPPC   C40 3440   5.057   2.594   5.258
   69DPPC   C41 3441   5.069   2.446   5.222
   69DPPC   C42 3442   5.124   2.419   5.082
   69DPPC   C43 3443   5.177   2.277   5.059
   69DPPC   C44 3444   5.241   2.256   4.922
   69DPPC   C45 3445   5.300   2.115   4.926
   69DPPC   C46 3446   5.398   2.088   4.812
   69DPPC   C47 3447   5.327   2.116   4.679
   69DPPC   C48 3448   5.426   2.080   4.568
   69DPPC   C49 3449   5.362   2.103   4.431
   69DPPC   C50 3450   5.334   2.253   4.425
   70DPPC    C1 3451   2.744   0.025   5.490
   70DPPC    C2 3452   2.839  -0.086   5.296
   70DPPC    C3 3453   2.969   0.014   5.479
   70DPPC    N4 3454   2.851  -0.064   5.441
   70DPPC    C5 3455   2.829  -0.178   5.532
   70DPPC    C6 3456   2.937  -0.287   5.538
   70DPPC    O7 3457   2.983  -0.341   5.414
   70DPPC    P8 3458   3.038  -0.489   5.443
   70DPPC    O9 3459   2.923  -0.545   5.517
   70DPPC   O10 3460   3.162  -0.447   5.512
   70DPPC   O11 3461   3.043  -0.540   5.290
   70DPPC   C12 3462   2.914  -0.534   5.230
   70DPPC   C13 3463   2.933  -0.559   5.080
   70DPPC   O14 3464   2.954  -0.694   5.039
   70DPPC   C15 3465   2.861  -0.793   5.051
   70DPPC   O16 3466   2.748  -0.766   5.089
   70DPPC   C17 3467   2.897  -0.932   4.999
   70DPPC   C18 3468   2.922  -0.912   4.849
   70DPPC   C19 3469   2.924  -1.042   4.768
   70DPPC   C20 3470   2.980  -1.003   4.631
   70DPPC   C21 3471   3.122  -0.947   4.647
   70DPPC   C22 3472   3.169  -0.903   4.508
   70DPPC   C23 3473   3.320  -0.894   4.482
   70DPPC   C24 3474   3.355  -0.821   4.352
   70DPPC   C25 3475   3.498  -0.765   4.352
   70DPPC   C26 3476   3.511  -0.698   4.215
   70DPPC   C27 3477   3.658  -0.664   4.193
   70DPPC   C28 3478   3.691  -0.585   4.065
   70DPPC   C29 3479   3.839  -0.615   4.041
   70DPPC   C30 3480   3.924  -0.567   4.159
   70DPPC   C31 3481   4.071  -0.595   4.127
   70DPPC   C32 3482   3.045  -0.467   5.030
   70DPPC   O33 3483   3.001  -0.331   5.024
   70DPPC   C34 3484   3.096  -0.243   4.984
   70DPPC   O35 3485   3.208  -0.284   4.954
   70DPPC   C36 3486   3.051  -0.100   4.954
   70DPPC   C37 3487   3.122  -0.037   4.834
   70DPPC   C38 3488   3.049   0.091   4.792
   70DPPC   C39 3489   3.093   0.133   4.651
   70DPPC   C40 3490   3.016   0.036   4.560
   70DPPC   C41 3491   3.059   0.039   4.413
   70DPPC   C42 3492   3.009  -0.087   4.341
   70DPPC   C43 3493   2.857  -0.097   4.350
   70DPPC   C44 3494   2.799   0.017   4.267
   70DPPC   C45 3495   2.744  -0.026   4.131
   70DPPC   C46 3496   2.592  -0.045   4.120
   70DPPC   C47 3497   2.549  -0.107   3.987
   70DPPC   C48 3498   2.400  -0.138   3.969
   70DPPC   C49 3499   2.370  -0.225   3.847
   70DPPC   C50 3500   2.219  -0.242   3.830
   71DPPC    C1 3501   4.036   3.666   5.746
   71DPPC    C2 3502   4.071   3.755   5.971
   71DPPC    C3 3503   4.087   3.521   5.910
   71DPPC    N4 3504   4.116   3.659   5.869
   71DPPC    C5 3505   4.259   3.690   5.852
   71DPPC    C6 3506   4.346   3.697   5.977
   71DPPC    O7 3507   4.361   3.570   6.040
   71DPPC    P8 3508   4.461   3.571   6.166
   71DPPC    O9 3509   4.442   3.452   6.252
   71DPPC   O10 3510   4.459   3.705   6.229
   71DPPC   O11 3511   4.591   3.568   6.071
   71DPPC   C12 3512   4.621   3.435   6.027
   71DPPC   C13 3513   4.697   3.435   5.894
   71DPPC   O14 3514   4.838   3.459   5.894
   71DPPC   C15 3515   4.908   3.347   5.926
   71DPPC   O16 3516   4.871   3.280   6.022
   71DPPC   C17 3517   5.057   3.349   5.890
   71DPPC   C18 3518   5.073   3.327   5.740
   71DPPC   C19 3519   5.213   3.364   5.692
   71DPPC   C20 3520   5.235   3.316   5.548
   71DPPC   C21 3521   5.358   3.376   5.480
   71DPPC   C22 3522   5.334   3.341   5.333
   71DPPC   C23 3523   5.363   3.193   5.304
   71DPPC   C24 3524   5.356   3.171   5.153
   71DPPC   C25 3525   5.430   3.262   5.054
   71DPPC   C26 3526   5.422   3.200   4.915
   71DPPC   C27 3527   5.469   3.291   4.801
   71DPPC   C28 3528   5.429   3.226   4.668
   71DPPC   C29 3529   5.474   3.315   4.552
   71DPPC   C30 3530   5.429   3.260   4.417
   71DPPC   C31 3531   5.468   3.352   4.301
   71DPPC   C32 3532   4.615   3.522   5.798
   71DPPC   O33 3533   4.638   3.494   5.660
   71DPPC   C34 3534   4.559   3.563   5.573
   71DPPC   O35 3535   4.487   3.655   5.610
   71DPPC   C36 3536   4.560   3.527   5.425
   71DPPC   C37 3537   4.467   3.411   5.389
   71DPPC   C38 3538   4.444   3.370   5.244
   71DPPC   C39 3539   4.336   3.261   5.249
   71DPPC   C40 3540   4.279   3.235   5.110
   71DPPC   C41 3541   4.226   3.365   5.049
   71DPPC   C42 3542   4.208   3.344   4.899
   71DPPC   C43 3543   4.157   3.466   4.823
   71DPPC   C44 3544   4.153   3.428   4.675
   71DPPC   C45 3545   4.300   3.404   4.643
   71DPPC   C46 3546   4.327   3.342   4.506
   71DPPC   C47 3547   4.273   3.429   4.391
   71DPPC   C48 3548   4.336   3.391   4.257
   71DPPC   C49 3549   4.324   3.502   4.153
   71DPPC   C50 3550   4.180   3.528   4.108
   72DPPC    C1 3551   0.989   8.398   4.986
   72DPPC    C2 3552   1.147   8.542   5.077
   72DPPC    C3 3553   0.917   8.555   5.142
   72DPPC    N4 3554   1.028   8.463   5.112
   72DPPC    C5 3555   1.046   8.366   5.222
   72DPPC    C6 3556   1.136   8.244   5.206
   72DPPC    O7 3557   1.266   8.279   5.158
   72DPPC    P8 3558   1.373   8.158   5.149
   72DPPC    O9 3559   1.313   8.064   5.246
   72DPPC   O10 3560   1.508   8.217   5.163
   72DPPC   O11 3561   1.347   8.082   5.009
   72DPPC   C12 3562   1.328   8.190   4.917
   72DPPC   C13 3563   1.310   8.159   4.768
   72DPPC   O14 3564   1.326   8.278   4.690
   72DPPC   C15 3565   1.411   8.291   4.585
   72DPPC   O16 3566   1.507   8.217   4.561
   72DPPC   C17 3567   1.377   8.418   4.506
   72DPPC   C18 3568   1.400   8.393   4.357
   72DPPC   C19 3569   1.393   8.511   4.260
   72DPPC   C20 3570   1.389   8.457   4.116
   72DPPC   C21 3571   1.322   8.566   4.031
   72DPPC   C22 3572   1.357   8.555   3.883
   72DPPC   C23 3573   1.312   8.674   3.799
   72DPPC   C24 3574   1.339   8.648   3.651
   72DPPC   C25 3575   1.319   8.770   3.561
   72DPPC   C26 3576   1.325   8.738   3.412
   72DPPC   C27 3577   1.210   8.647   3.368
   72DPPC   C28 3578   1.080   8.722   3.397
   72DPPC   C29 3579   0.959   8.628   3.401
   72DPPC   C30 3580   0.841   8.719   3.435
   72DPPC   C31 3581   0.858   8.754   3.583
   72DPPC   C32 3582   1.181   8.078   4.756
   72DPPC   O33 3583   1.058   8.150   4.759
   72DPPC   C34 3584   0.956   8.072   4.715
   72DPPC   O35 3585   0.936   7.952   4.738
   72DPPC   C36 3586   0.830   8.147   4.672
   72DPPC   C37 3587   0.792   8.121   4.526
   72DPPC   C38 3588   0.672   8.201   4.477
   72DPPC   C39 3589   0.661   8.197   4.325
   72DPPC   C40 3590   0.644   8.049   4.288
   72DPPC   C41 3591   0.618   8.023   4.139
   72DPPC   C42 3592   0.476   8.066   4.103
   72DPPC   C43 3593   0.478   8.048   3.951
   72DPPC   C44 3594   0.360   8.121   3.888
   72DPPC   C45 3595   0.232   8.081   3.961
   72DPPC   C46 3596   0.117   8.150   3.888
   72DPPC   C47 3597  -0.017   8.095   3.937
   72DPPC   C48 3598  -0.115   8.163   3.840
   72DPPC   C49 3599  -0.259   8.126   3.877
   72DPPC   C50 3600  -0.273   7.975   3.861
   73DPPC    C1 3601   8.518   8.206   5.172
   73DPPC    C2 3602   8.429   8.091   4.975
   73DPPC    C3 3603   8.630   8.020   5.075
   73DPPC    N4 3604   8.498   8.077   5.104
   73DPPC    C5 3605   8.433   7.980   5.194
   73DPPC    C6 3606   8.309   8.016   5.277
   73DPPC    O7 3607   8.262   7.894   5.336
   73DPPC    P8 3608   8.111   7.884   5.390
   73DPPC    O9 3609   8.088   8.013   5.459
   73DPPC   O10 3610   8.097   7.751   5.454
   73DPPC   O11 3611   8.045   7.881   5.243
   73DPPC   C12 3612   8.073   7.752   5.189
   73DPPC   C13 3613   8.003   7.712   5.059
   73DPPC   O14 3614   8.048   7.785   4.944
   73DPPC   C15 3615   8.169   7.762   4.888
   73DPPC   O16 3616   8.259   7.715   4.958
   73DPPC   C17 3617   8.207   7.837   4.760
   73DPPC   C18 3618   8.242   7.738   4.649
   73DPPC   C19 3619   8.129   7.653   4.590
   73DPPC   C20 3620   8.198   7.554   4.496
   73DPPC   C21 3621   8.205   7.416   4.561
   73DPPC   C22 3622   8.263   7.313   4.464
   73DPPC   C23 3623   8.396   7.366   4.411
   73DPPC   C24 3624   8.445   7.278   4.296
   73DPPC   C25 3625   8.360   7.287   4.168
   73DPPC   C26 3626   8.433   7.238   4.043
   73DPPC   C27 3627   8.498   7.103   4.077
   73DPPC   C28 3628   8.567   7.066   3.945
   73DPPC   C29 3629   8.682   7.157   3.902
   73DPPC   C30 3630   8.740   7.124   3.764
   73DPPC   C31 3631   8.871   7.195   3.727
   73DPPC   C32 3632   7.853   7.721   5.084
   73DPPC   O33 3633   7.772   7.693   4.970
   73DPPC   C34 3634   7.781   7.566   4.923
   73DPPC   O35 3635   7.840   7.481   4.988
   73DPPC   C36 3636   7.719   7.534   4.787
   73DPPC   C37 3637   7.765   7.399   4.729
   73DPPC   C38 3638   7.692   7.360   4.601
   73DPPC   C39 3639   7.712   7.463   4.490
   73DPPC   C40 3640   7.657   7.413   4.356
   73DPPC   C41 3641   7.698   7.518   4.252
   73DPPC   C42 3642   7.689   7.460   4.110
   73DPPC   C43 3643   7.766   7.561   4.024
   73DPPC   C44 3644   7.825   7.501   3.896
   73DPPC   C45 3645   7.897   7.601   3.806
   73DPPC   C46 3646   7.805   7.719   3.775
   73DPPC   C47 3647   7.870   7.822   3.682
   73DPPC   C48 3648   7.983   7.896   3.753
   73DPPC   C49 3649   7.941   8.039   3.786
   73DPPC   C50 3650   8.072   8.107   3.826
   74DPPC    C1 3651   5.916   4.759   6.011
   74DPPC    C2 3652   5.711   4.868   5.920
   74DPPC    C3 3653   5.920   4.959   5.886
   74DPPC    N4 3654   5.852   4.830   5.900
   74DPPC    C5 3655   5.846   4.745   5.780
   74DPPC    C6 3656   5.968   4.733   5.688
   74DPPC    O7 3657   5.967   4.614   5.608
   74DPPC    P8 3658   6.125   4.597   5.586
   74DPPC    O9 3659   6.155   4.482   5.498
   74DPPC   O10 3660   6.199   4.614   5.714
   74DPPC   O11 3661   6.159   4.729   5.500
   74DPPC   C12 3662   6.267   4.695   5.413
   74DPPC   C13 3663   6.289   4.787   5.293
   74DPPC   O14 3664   6.420   4.787   5.235
   74DPPC   C15 3665   6.453   4.685   5.151
   74DPPC   O16 3666   6.388   4.581   5.160
   74DPPC   C17 3667   6.576   4.715   5.066
   74DPPC   C18 3668   6.538   4.719   4.918
   74DPPC   C19 3669   6.658   4.773   4.840
   74DPPC   C20 3670   6.614   4.779   4.693
   74DPPC   C21 3671   6.497   4.876   4.672
   74DPPC   C22 3672   6.420   4.841   4.544
   74DPPC   C23 3673   6.513   4.850   4.423
   74DPPC   C24 3674   6.431   4.840   4.295
   74DPPC   C25 3675   6.522   4.866   4.174
   74DPPC   C26 3676   6.444   4.832   4.047
   74DPPC   C27 3677   6.545   4.778   3.946
   74DPPC   C28 3678   6.484   4.710   3.823
   74DPPC   C29 3679   6.419   4.581   3.873
   74DPPC   C30 3680   6.506   4.486   3.956
   74DPPC   C31 3681   6.420   4.369   4.003
   74DPPC   C32 3682   6.261   4.926   5.351
   74DPPC   O33 3683   6.221   5.010   5.242
   74DPPC   C34 3684   6.232   5.144   5.260
   74DPPC   O35 3685   6.243   5.190   5.373
   74DPPC   C36 3686   6.227   5.242   5.143
   74DPPC   C37 3687   6.206   5.162   5.014
   74DPPC   C38 3688   6.245   5.253   4.897
   74DPPC   C39 3689   6.392   5.293   4.914
   74DPPC   C40 3690   6.444   5.371   4.793
   74DPPC   C41 3691   6.461   5.276   4.674
   74DPPC   C42 3692   6.536   5.349   4.563
   74DPPC   C43 3693   6.522   5.272   4.432
   74DPPC   C44 3694   6.603   5.331   4.317
   74DPPC   C45 3695   6.556   5.268   4.186
   74DPPC   C46 3696   6.657   5.297   4.074
   74DPPC   C47 3697   6.610   5.227   3.947
   74DPPC   C48 3698   6.726   5.228   3.847
   74DPPC   C49 3699   6.674   5.181   3.711
   74DPPC   C50 3700   6.555   5.253   3.647
   75DPPC    C1 3701   3.800   1.400   5.969
   75DPPC    C2 3702   3.774   1.461   5.731
   75DPPC    C3 3703   3.691   1.266   5.825
   75DPPC    N4 3704   3.711   1.409   5.853
   75DPPC    C5 3705   3.597   1.491   5.895
   75DPPC    C6 3706   3.502   1.565   5.801
   75DPPC    O7 3707   3.566   1.685   5.755
   75DPPC    P8 3708   3.430   1.769   5.737
   75DPPC    O9 3709   3.396   1.801   5.877
   75DPPC   O10 3710   3.350   1.690   5.641
   75DPPC   O11 3711   3.484   1.901   5.662
   75DPPC   C12 3712   3.438   1.910   5.528
   75DPPC   C13 3713   3.496   2.035   5.461
   75DPPC   O14 3714   3.463   2.048   5.322
   75DPPC   C15 3715   3.484   2.166   5.259
   75DPPC   O16 3716   3.517   2.269   5.317
   75DPPC   C17 3717   3.463   2.176   5.108
   75DPPC   C18 3718   3.582   2.230   5.028
   75DPPC   C19 3719   3.701   2.134   5.035
   75DPPC   C20 3720   3.833   2.206   5.011
   75DPPC   C21 3721   3.953   2.112   5.003
   75DPPC   C22 3722   4.072   2.207   4.986
   75DPPC   C23 3723   4.202   2.131   4.960
   75DPPC   C24 3724   4.313   2.231   4.927
   75DPPC   C25 3725   4.278   2.325   4.812
   75DPPC   C26 3726   4.391   2.382   4.727
   75DPPC   C27 3727   4.340   2.477   4.618
   75DPPC   C28 3728   4.443   2.528   4.517
   75DPPC   C29 3729   4.372   2.584   4.393
   75DPPC   C30 3730   4.472   2.655   4.302
   75DPPC   C31 3731   4.393   2.727   4.192
   75DPPC   C32 3732   3.646   2.023   5.492
   75DPPC   O33 3733   3.700   1.894   5.462
   75DPPC   C34 3734   3.835   1.879   5.459
   75DPPC   O35 3735   3.901   1.961   5.522
   75DPPC   C36 3736   3.874   1.740   5.408
   75DPPC   C37 3737   3.905   1.756   5.259
   75DPPC   C38 3738   3.954   1.628   5.191
   75DPPC   C39 3739   3.993   1.644   5.043
   75DPPC   C40 3740   3.885   1.676   4.940
   75DPPC   C41 3741   3.937   1.704   4.799
   75DPPC   C42 3742   3.815   1.739   4.713
   75DPPC   C43 3743   3.881   1.794   4.587
   75DPPC   C44 3744   3.785   1.820   4.470
   75DPPC   C45 3745   3.718   1.688   4.433
   75DPPC   C46 3746   3.630   1.699   4.308
   75DPPC   C47 3747   3.725   1.735   4.194
   75DPPC   C48 3748   3.645   1.766   4.068
   75DPPC   C49 3749   3.749   1.786   3.957
   75DPPC   C50 3750   3.678   1.852   3.839
   76DPPC    C1 3751   5.938  -0.051   5.516
   76DPPC    C2 3752   5.735   0.012   5.596
   76DPPC    C3 3753   5.869   0.181   5.492
   76DPPC    N4 3754   5.827   0.040   5.485
   76DPPC    C5 3755   5.772  -0.005   5.356
   76DPPC    C6 3756   5.644   0.070   5.321
   76DPPC    O7 3757   5.564   0.031   5.209
   76DPPC    P8 3758   5.456   0.150   5.191
   76DPPC    O9 3759   5.535   0.270   5.155
   76DPPC   O10 3760   5.377   0.145   5.315
   76DPPC   O11 3761   5.387   0.065   5.073
   76DPPC   C12 3762   5.433   0.109   4.945
   76DPPC   C13 3763   5.324   0.119   4.837
   76DPPC   O14 3764   5.251   0.241   4.821
   76DPPC   C15 3765   5.320   0.347   4.770
   76DPPC   O16 3766   5.443   0.344   4.779
   76DPPC   C17 3767   5.243   0.478   4.756
   76DPPC   C18 3768   5.224   0.555   4.887
   76DPPC   C19 3769   5.146   0.686   4.869
   76DPPC   C20 3770   5.018   0.663   4.788
   76DPPC   C21 3771   4.932   0.785   4.753
   76DPPC   C22 3772   4.827   0.751   4.648
   76DPPC   C23 3773   4.914   0.705   4.531
   76DPPC   C24 3774   4.837   0.695   4.399
   76DPPC   C25 3775   4.892   0.590   4.303
   76DPPC   C26 3776   4.845   0.597   4.157
   76DPPC   C27 3777   4.913   0.487   4.076
   76DPPC   C28 3778   5.065   0.509   4.073
   76DPPC   C29 3779   5.149   0.382   4.082
   76DPPC   C30 3780   5.129   0.296   3.957
   76DPPC   C31 3781   5.227   0.178   3.958
   76DPPC   C32 3782   5.262  -0.021   4.828
   76DPPC   O33 3783   5.363  -0.115   4.792
   76DPPC   C34 3784   5.326  -0.244   4.815
   76DPPC   O35 3785   5.243  -0.268   4.902
   76DPPC   C36 3786   5.418  -0.355   4.765
   76DPPC   C37 3787   5.438  -0.328   4.615
   76DPPC   C38 3788   5.582  -0.368   4.585
   76DPPC   C39 3789   5.616  -0.343   4.438
   76DPPC   C40 3790   5.710  -0.445   4.373
   76DPPC   C41 3791   5.631  -0.571   4.339
   76DPPC   C42 3792   5.709  -0.676   4.259
   76DPPC   C43 3793   5.625  -0.804   4.261
   76DPPC   C44 3794   5.501  -0.778   4.177
   76DPPC   C45 3795   5.446  -0.912   4.126
   76DPPC   C46 3796   5.330  -0.875   4.034
   76DPPC   C47 3797   5.375  -0.869   3.887
   76DPPC   C48 3798   5.424  -1.004   3.836
   76DPPC   C49 3799   5.511  -0.980   3.713
   76DPPC   C50 3800   5.528  -1.109   3.633
   77DPPC    C1 3801   9.352   5.992   4.999
   77DPPC    C2 3802   9.479   5.810   4.900
   77DPPC    C3 3803   9.445   5.818   5.133
   77DPPC    N4 3804   9.381   5.848   5.003
   77DPPC    C5 3805   9.266   5.760   4.976
   77DPPC    C6 3806   9.131   5.743   5.046
   77DPPC    O7 3807   9.151   5.674   5.169
   77DPPC    P8 3808   9.031   5.695   5.274
   77DPPC    O9 3809   8.949   5.813   5.240
   77DPPC   O10 3810   9.086   5.687   5.411
   77DPPC   O11 3811   8.949   5.558   5.247
   77DPPC   C12 3812   9.013   5.435   5.282
   77DPPC   C13 3813   8.928   5.313   5.244
   77DPPC   O14 3814   9.009   5.202   5.203
   77DPPC   C15 3815   9.026   5.093   5.283
   77DPPC   O16 3816   9.026   5.109   5.405
   77DPPC   C17 3817   9.064   4.956   5.227
   77DPPC   C18 3818   9.012   4.936   5.084
   77DPPC   C19 3819   9.100   4.832   5.016
   77DPPC   C20 3820   9.246   4.879   5.011
   77DPPC   C21 3821   9.336   4.757   4.989
   77DPPC   C22 3822   9.339   4.723   4.840
   77DPPC   C23 3823   9.401   4.841   4.765
   77DPPC   C24 3824   9.401   4.803   4.616
   77DPPC   C25 3825   9.448   4.919   4.529
   77DPPC   C26 3826   9.449   4.882   4.380
   77DPPC   C27 3827   9.518   4.994   4.302
   77DPPC   C28 3828   9.507   4.940   4.159
   77DPPC   C29 3829   9.560   5.037   4.054
   77DPPC   C30 3830   9.597   4.957   3.929
   77DPPC   C31 3831   9.474   4.928   3.842
   77DPPC   C32 3832   8.845   5.360   5.124
   77DPPC   O33 3833   8.777   5.255   5.054
   77DPPC   C34 3834   8.706   5.300   4.948
   77DPPC   O35 3835   8.729   5.411   4.901
   77DPPC   C36 3836   8.635   5.184   4.876
   77DPPC   C37 3837   8.559   5.219   4.748
   77DPPC   C38 3838   8.540   5.087   4.674
   77DPPC   C39 3839   8.557   5.126   4.527
   77DPPC   C40 3840   8.518   5.000   4.450
   77DPPC   C41 3841   8.586   4.865   4.476
   77DPPC   C42 3842   8.509   4.747   4.417
   77DPPC   C43 3843   8.574   4.612   4.448
   77DPPC   C44 3844   8.502   4.491   4.388
   77DPPC   C45 3845   8.549   4.347   4.408
   77DPPC   C46 3846   8.505   4.264   4.287
   77DPPC   C47 3847   8.557   4.326   4.157
   77DPPC   C48 3848   8.536   4.248   4.028
   77DPPC   C49 3849   8.604   4.314   3.908
   77DPPC   C50 3850   8.598   4.228   3.782
   78DPPC    C1 3851   1.095   5.252   5.490
   78DPPC    C2 3852   1.190   5.072   5.402
   78DPPC    C3 3853   1.245   5.303   5.327
   78DPPC    N4 3854   1.227   5.210   5.439
   78DPPC    C5 3855   1.318   5.234   5.552
   78DPPC    C6 3856   1.460   5.177   5.539
   78DPPC    O7 3857   1.473   5.035   5.541
   78DPPC    P8 3858   1.624   4.992   5.504
   78DPPC    O9 3859   1.656   4.865   5.573
   78DPPC   O10 3860   1.697   5.118   5.530
   78DPPC   O11 3861   1.593   4.987   5.346
   78DPPC   C12 3862   1.538   4.859   5.313
   78DPPC   C13 3863   1.454   4.846   5.186
   78DPPC   O14 3864   1.388   4.722   5.158
   78DPPC   C15 3865   1.276   4.685   5.225
   78DPPC   O16 3866   1.195   4.762   5.277
   78DPPC   C17 3867   1.225   4.551   5.172
   78DPPC   C18 3868   1.161   4.557   5.034
   78DPPC   C19 3869   1.109   4.417   5.003
   78DPPC   C20 3870   1.057   4.420   4.859
   78DPPC   C21 3871   1.180   4.453   4.773
   78DPPC   C22 3872   1.163   4.500   4.628
   78DPPC   C23 3873   1.300   4.500   4.560
   78DPPC   C24 3874   1.289   4.527   4.410
   78DPPC   C25 3875   1.208   4.421   4.335
   78DPPC   C26 3876   1.195   4.466   4.190
   78DPPC   C27 3877   1.344   4.477   4.156
   78DPPC   C28 3878   1.353   4.553   4.024
   78DPPC   C29 3879   1.484   4.528   3.948
   78DPPC   C30 3880   1.477   4.387   3.888
   78DPPC   C31 3881   1.606   4.350   3.813
   78DPPC   C32 3882   1.553   4.883   5.075
   78DPPC   O33 3883   1.496   4.900   4.945
   78DPPC   C34 3884   1.591   4.941   4.857
   78DPPC   O35 3885   1.707   4.907   4.876
   78DPPC   C36 3886   1.546   5.031   4.741
   78DPPC   C37 3887   1.437   4.961   4.660
   78DPPC   C38 3888   1.499   4.858   4.565
   78DPPC   C39 3889   1.578   4.949   4.470
   78DPPC   C40 3890   1.672   4.867   4.382
   78DPPC   C41 3891   1.605   4.784   4.272
   78DPPC   C42 3892   1.711   4.712   4.188
   78DPPC   C43 3893   1.794   4.821   4.120
   78DPPC   C44 3894   1.897   4.764   4.022
   78DPPC   C45 3895   1.937   4.869   3.919
   78DPPC   C46 3896   1.991   4.992   3.992
   78DPPC   C47 3897   2.038   5.106   3.902
   78DPPC   C48 3898   2.107   5.217   3.982
   78DPPC   C49 3899   2.253   5.180   4.012
   78DPPC   C50 3900   2.333   5.302   4.057
   79DPPC    C1 3901   0.109   3.525   6.311
   79DPPC    C2 3902   0.130   3.527   6.076
   79DPPC    C3 3903  -0.093   3.499   6.174
   79DPPC    N4 3904   0.040   3.561   6.187
   79DPPC    C5 3905   0.043   3.708   6.182
   79DPPC    C6 3906  -0.057   3.789   6.099
   79DPPC    O7 3907  -0.017   3.787   5.962
   79DPPC    P8 3908  -0.143   3.862   5.896
   79DPPC    O9 3909  -0.155   3.995   5.960
   79DPPC   O10 3910  -0.249   3.759   5.890
   79DPPC   O11 3911  -0.070   3.869   5.752
   79DPPC   C12 3912  -0.015   3.743   5.713
   79DPPC   C13 3913   0.033   3.745   5.568
   79DPPC   O14 3914   0.070   3.611   5.532
   79DPPC   C15 3915  -0.012   3.508   5.499
   79DPPC   O16 3916  -0.122   3.505   5.554
   79DPPC   C17 3917   0.042   3.393   5.415
   79DPPC   C18 3918   0.061   3.437   5.269
   79DPPC   C19 3919   0.071   3.312   5.181
   79DPPC   C20 3920   0.050   3.350   5.034
   79DPPC   C21 3921   0.063   3.226   4.946
   79DPPC   C22 3922   0.027   3.273   4.805
   79DPPC   C23 3923   0.009   3.157   4.706
   79DPPC   C24 3924  -0.041   3.207   4.571
   79DPPC   C25 3925  -0.060   3.094   4.470
   79DPPC   C26 3926  -0.060   3.160   4.332
   79DPPC   C27 3927  -0.085   3.063   4.217
   79DPPC   C28 3928  -0.078   3.149   4.091
   79DPPC   C29 3929  -0.118   3.064   3.970
   79DPPC   C30 3930  -0.029   2.942   3.951
   79DPPC   C31 3931  -0.061   2.872   3.818
   79DPPC   C32 3932   0.150   3.843   5.580
   79DPPC   O33 3933   0.193   3.900   5.456
   79DPPC   C34 3934   0.288   3.996   5.462
   79DPPC   O35 3935   0.317   4.037   5.574
   79DPPC   C36 3936   0.355   4.047   5.334
   79DPPC   C37 3937   0.266   4.053   5.209
   79DPPC   C38 3938   0.355   4.068   5.086
   79DPPC   C39 3939   0.264   4.050   4.965
   79DPPC   C40 3940   0.158   4.158   4.936
   79DPPC   C41 3941   0.064   4.114   4.824
   79DPPC   C42 3942   0.127   4.114   4.685
   79DPPC   C43 3943   0.022   4.056   4.589
   79DPPC   C44 3944   0.078   4.074   4.447
   79DPPC   C45 3945  -0.046   4.046   4.362
   79DPPC   C46 3946  -0.010   4.118   4.232
   79DPPC   C47 3947  -0.119   4.131   4.125
   79DPPC   C48 3948  -0.051   4.182   3.998
   79DPPC   C49 3949  -0.147   4.164   3.880
   79DPPC   C50 3950  -0.080   4.192   3.745
   80DPPC    C1 3951   0.612   4.317   5.907
   80DPPC    C2 3952   0.766   4.396   6.088
   80DPPC    C3 3953   0.638   4.202   6.114
   80DPPC    N4 3954   0.707   4.284   6.013
   80DPPC    C5 3955   0.812   4.205   5.947
   80DPPC    C6 3956   0.907   4.272   5.848
   80DPPC    O7 3957   1.025   4.193   5.829
   80DPPC    P8 3958   1.124   4.296   5.754
   80DPPC    O9 3959   1.259   4.246   5.787
   80DPPC   O10 3960   1.080   4.436   5.775
   80DPPC   O11 3961   1.063   4.236   5.617
   80DPPC   C12 3962   1.091   4.339   5.522
   80DPPC   C13 3963   1.031   4.298   5.387
   80DPPC   O14 3964   0.890   4.277   5.385
   80DPPC   C15 3965   0.802   4.379   5.366
   80DPPC   O16 3966   0.824   4.490   5.415
   80DPPC   C17 3967   0.666   4.329   5.320
   80DPPC   C18 3968   0.664   4.325   5.167
   80DPPC   C19 3969   0.698   4.452   5.089
   80DPPC   C20 3970   0.678   4.457   4.937
   80DPPC   C21 3971   0.723   4.588   4.872
   80DPPC   C22 3972   0.672   4.577   4.728
   80DPPC   C23 3973   0.790   4.539   4.637
   80DPPC   C24 3974   0.736   4.518   4.496
   80DPPC   C25 3975   0.858   4.465   4.420
   80DPPC   C26 3976   0.840   4.408   4.279
   80DPPC   C27 3977   0.800   4.507   4.170
   80DPPC   C28 3978   0.765   4.429   4.043
   80DPPC   C29 3979   0.749   4.511   3.915
   80DPPC   C30 3980   0.700   4.431   3.794
   80DPPC   C31 3981   0.694   4.509   3.663
   80DPPC   C32 3982   1.114   4.179   5.338
   80DPPC   O33 3983   1.229   4.216   5.260
   80DPPC   C34 3984   1.287   4.112   5.195
   80DPPC   O35 3985   1.239   4.001   5.216
   80DPPC   C36 3986   1.395   4.149   5.093
   80DPPC   C37 3987   1.381   4.055   4.973
   80DPPC   C38 3988   1.277   4.090   4.866
   80DPPC   C39 3989   1.262   3.980   4.761
   80DPPC   C40 3990   1.145   4.015   4.668
   80DPPC   C41 3991   1.116   3.899   4.573
   80DPPC   C42 3992   1.040   3.930   4.445
   80DPPC   C43 3993   1.077   4.036   4.341
   80DPPC   C44 3994   1.012   4.018   4.204
   80DPPC   C45 3995   1.069   4.084   4.078
   80DPPC   C46 3996   0.975   4.081   3.957
   80DPPC   C47 3997   1.056   4.028   3.838
   80DPPC   C48 3998   0.962   4.006   3.720
   80DPPC   C49 3999   1.035   3.936   3.606
   80DPPC   C50 4000   0.938   3.889   3.497
   81DPPC    C1 4001   5.965   4.114   5.592
   81DPPC    C2 4002   5.759   4.077   5.711
   81DPPC    C3 4003   5.934   4.188   5.815
   81DPPC    N4 4004   5.867   4.174   5.684
   81DPPC    C5 4005   5.811   4.295   5.623
   81DPPC    C6 4006   5.741   4.398   5.711
   81DPPC    O7 4007   5.642   4.347   5.802
   81DPPC    P8 4008   5.612   4.455   5.917
   81DPPC    O9 4009   5.749   4.503   5.946
   81DPPC   O10 4010   5.517   4.408   6.020
   81DPPC   O11 4011   5.543   4.575   5.834
   81DPPC   C12 4012   5.425   4.528   5.767
   81DPPC   C13 4013   5.341   4.642   5.709
   81DPPC   O14 4014   5.228   4.606   5.628
   81DPPC   C15 4015   5.109   4.593   5.691
   81DPPC   O16 4016   5.098   4.645   5.802
   81DPPC   C17 4017   4.983   4.543   5.620
   81DPPC   C18 4018   4.997   4.534   5.468
   81DPPC   C19 4019   4.870   4.488   5.398
   81DPPC   C20 4020   4.825   4.355   5.460
   81DPPC   C21 4021   4.696   4.303   5.394
   81DPPC   C22 4022   4.723   4.248   5.254
   81DPPC   C23 4023   4.586   4.238   5.187
   81DPPC   C24 4024   4.601   4.238   5.035
   81DPPC   C25 4025   4.461   4.203   4.985
   81DPPC   C26 4026   4.346   4.299   5.015
   81DPPC   C27 4027   4.218   4.228   4.970
   81DPPC   C28 4028   4.225   4.192   4.822
   81DPPC   C29 4029   4.137   4.072   4.784
   81DPPC   C30 4030   4.189   4.028   4.648
   81DPPC   C31 4031   4.108   3.924   4.570
   81DPPC   C32 4032   5.440   4.733   5.636
   81DPPC   O33 4033   5.527   4.686   5.532
   81DPPC   C34 4034   5.640   4.754   5.498
   81DPPC   O35 4035   5.665   4.865   5.544
   81DPPC   C36 4036   5.707   4.704   5.370
   81DPPC   C37 4037   5.681   4.556   5.338
   81DPPC   C38 4038   5.777   4.524   5.223
   81DPPC   C39 4039   5.775   4.375   5.188
   81DPPC   C40 4040   5.918   4.333   5.151
   81DPPC   C41 4041   5.955   4.186   5.130
   81DPPC   C42 4042   5.882   4.119   5.013
   81DPPC   C43 4043   5.923   4.174   4.876
   81DPPC   C44 4044   5.853   4.120   4.751
   81DPPC   C45 4045   5.887   4.170   4.611
   81DPPC   C46 4046   5.790   4.085   4.528
   81DPPC   C47 4047   5.774   4.137   4.385
   81DPPC   C48 4048   5.900   4.096   4.308
   81DPPC   C49 4049   5.897   4.154   4.167
   81DPPC   C50 4050   6.023   4.143   4.079
   82DPPC    C1 4051   9.218   5.560   5.690
   82DPPC    C2 4052   9.425   5.464   5.732
   82DPPC    C3 4053   9.240   5.381   5.835
   82DPPC    N4 4054   9.284   5.430   5.704
   82DPPC    C5 4055   9.259   5.350   5.583
   82DPPC    C6 4056   9.315   5.209   5.564
   82DPPC    O7 4057   9.456   5.217   5.544
   82DPPC    P8 4058   9.505   5.073   5.489
   82DPPC    O9 4059   9.436   4.971   5.571
   82DPPC   O10 4060   9.653   5.073   5.483
   82DPPC   O11 4061   9.443   5.088   5.341
   82DPPC   C12 4062   9.539   5.140   5.248
   82DPPC   C13 4063   9.497   5.109   5.104
   82DPPC   O14 4064   9.612   5.096   5.019
   82DPPC   C15 4065   9.674   4.976   5.004
   82DPPC   O16 4066   9.677   4.900   5.101
   82DPPC   C17 4067   9.804   4.983   4.924
   82DPPC   C18 4068   9.767   4.982   4.775
   82DPPC   C19 4069   9.887   4.996   4.682
   82DPPC   C20 4070   9.838   4.993   4.537
   82DPPC   C21 4071   9.964   4.997   4.451
   82DPPC   C22 4072   9.919   4.934   4.319
   82DPPC   C23 4073  10.012   4.988   4.211
   82DPPC   C24 4074  10.007   4.898   4.087
   82DPPC   C25 4075  10.100   4.954   3.979
   82DPPC   C26 4076  10.085   4.887   3.842
   82DPPC   C27 4077  10.174   4.953   3.735
   82DPPC   C28 4078  10.162   4.885   3.599
   82DPPC   C29 4079  10.209   4.971   3.482
   82DPPC   C30 4080  10.115   5.091   3.483
   82DPPC   C31 4081  10.149   5.184   3.366
   82DPPC   C32 4082   9.403   5.225   5.068
   82DPPC   O33 4083   9.309   5.192   4.966
   82DPPC   C34 4084   9.231   5.301   4.939
   82DPPC   O35 4085   9.258   5.414   4.978
   82DPPC   C36 4086   9.124   5.273   4.833
   82DPPC   C37 4087   9.183   5.278   4.692
   82DPPC   C38 4088   9.076   5.226   4.596
   82DPPC   C39 4089   9.084   5.074   4.600
   82DPPC   C40 4090   8.962   5.001   4.543
   82DPPC   C41 4091   8.918   5.049   4.405
   82DPPC   C42 4092   8.990   4.981   4.288
   82DPPC   C43 4093   8.922   5.027   4.158
   82DPPC   C44 4094   9.000   4.957   4.047
   82DPPC   C45 4095   8.952   4.986   3.905
   82DPPC   C46 4096   9.054   4.934   3.803
   82DPPC   C47 4097   9.125   4.800   3.823
   82DPPC   C48 4098   9.020   4.688   3.819
   82DPPC   C49 4099   9.078   4.547   3.812
   82DPPC   C50 4100   9.189   4.539   3.707
   83DPPC    C1 4101   7.631   5.156   6.052
   83DPPC    C2 4102   7.745   4.952   6.057
   83DPPC    C3 4103   7.519   4.952   6.072
   83DPPC    N4 4104   7.627   5.019   6.000
   83DPPC    C5 4105   7.624   5.028   5.853
   83DPPC    C6 4106   7.588   4.908   5.766
   83DPPC    O7 4107   7.692   4.810   5.760
   83DPPC    P8 4108   7.658   4.703   5.644
   83DPPC    O9 4109   7.512   4.682   5.650
   83DPPC   O10 4110   7.761   4.603   5.680
   83DPPC   O11 4111   7.700   4.785   5.512
   83DPPC   C12 4112   7.828   4.743   5.465
   83DPPC   C13 4113   7.927   4.849   5.416
   83DPPC   O14 4114   7.902   4.912   5.290
   83DPPC   C15 4115   7.961   5.033   5.269
   83DPPC   O16 4116   8.039   5.084   5.349
   83DPPC   C17 4117   7.959   5.081   5.124
   83DPPC   C18 4118   7.823   5.137   5.080
   83DPPC   C19 4119   7.798   5.164   4.932
   83DPPC   C20 4120   7.901   5.257   4.866
   83DPPC   C21 4121   7.907   5.248   4.713
   83DPPC   C22 4122   7.781   5.305   4.647
   83DPPC   C23 4123   7.810   5.313   4.497
   83DPPC   C24 4124   7.695   5.374   4.417
   83DPPC   C25 4125   7.723   5.363   4.267
   83DPPC   C26 4126   7.605   5.405   4.178
   83DPPC   C27 4127   7.630   5.386   4.028
   83DPPC   C28 4128   7.502   5.424   3.952
   83DPPC   C29 4129   7.521   5.416   3.800
   83DPPC   C30 4130   7.506   5.277   3.739
   83DPPC   C31 4131   7.538   5.269   3.590
   83DPPC   C32 4132   8.058   4.770   5.417
   83DPPC   O33 4133   8.059   4.651   5.337
   83DPPC   C34 4134   8.184   4.604   5.310
   83DPPC   O35 4135   8.287   4.660   5.345
   83DPPC   C36 4136   8.191   4.475   5.228
   83DPPC   C37 4137   8.311   4.468   5.133
   83DPPC   C38 4138   8.286   4.375   5.014
   83DPPC   C39 4139   8.419   4.349   4.943
   83DPPC   C40 4140   8.483   4.477   4.891
   83DPPC   C41 4141   8.610   4.428   4.821
   83DPPC   C42 4142   8.711   4.543   4.810
   83DPPC   C43 4143   8.825   4.514   4.713
   83DPPC   C44 4144   8.913   4.633   4.674
   83DPPC   C45 4145   9.048   4.580   4.627
   83DPPC   C46 4146   9.042   4.596   4.475
   83DPPC   C47 4147   9.170   4.548   4.405
   83DPPC   C48 4148   9.177   4.576   4.255
   83DPPC   C49 4149   9.320   4.540   4.214
   83DPPC   C50 4150   9.353   4.567   4.067
   84DPPC    C1 4151   0.894   7.101   4.818
   84DPPC    C2 4152   0.709   7.162   4.692
   84DPPC    C3 4153   0.761   6.928   4.719
   84DPPC    N4 4154   0.756   7.059   4.786
   84DPPC    C5 4155   0.670   7.071   4.904
   84DPPC    C6 4156   0.536   6.998   4.911
   84DPPC    O7 4157   0.422   7.042   4.836
   84DPPC    P8 4158   0.295   6.958   4.889
   84DPPC    O9 4159   0.276   6.980   5.034
   84DPPC   O10 4160   0.332   6.823   4.841
   84DPPC   O11 4161   0.175   7.025   4.806
   84DPPC   C12 4162   0.141   6.929   4.706
   84DPPC   C13 4163   0.021   6.982   4.627
   84DPPC   O14 4164  -0.025   6.890   4.527
   84DPPC   C15 4165  -0.080   6.769   4.556
   84DPPC   O16 4166  -0.042   6.705   4.654
   84DPPC   C17 4167  -0.161   6.710   4.440
   84DPPC   C18 4168  -0.109   6.765   4.307
   84DPPC   C19 4169  -0.216   6.742   4.200
   84DPPC   C20 4170  -0.338   6.812   4.261
   84DPPC   C21 4171  -0.463   6.769   4.184
   84DPPC   C22 4172  -0.581   6.782   4.279
   84DPPC   C23 4173  -0.700   6.707   4.218
   84DPPC   C24 4174  -0.832   6.752   4.282
   84DPPC   C25 4175  -0.956   6.676   4.236
   84DPPC   C26 4176  -1.085   6.718   4.306
   84DPPC   C27 4177  -1.206   6.631   4.272
   84DPPC   C28 4178  -1.324   6.700   4.341
   84DPPC   C29 4179  -1.460   6.631   4.326
   84DPPC   C30 4180  -1.550   6.706   4.424
   84DPPC   C31 4181  -1.701   6.685   4.410
   84DPPC   C32 4182   0.048   7.118   4.564
   84DPPC   O33 4183   0.117   7.129   4.440
   84DPPC   C34 4184   0.139   7.260   4.409
   84DPPC   O35 4185   0.086   7.353   4.469
   84DPPC   C36 4186   0.186   7.280   4.264
   84DPPC   C37 4187   0.329   7.228   4.248
   84DPPC   C38 4188   0.374   7.238   4.102
   84DPPC   C39 4189   0.280   7.156   4.013
   84DPPC   C40 4190   0.280   7.017   4.076
   84DPPC   C41 4191   0.203   6.923   3.985
   84DPPC   C42 4192   0.228   6.776   4.021
   84DPPC   C43 4193   0.379   6.749   4.012
   84DPPC   C44 4194   0.412   6.609   4.063
   84DPPC   C45 4195   0.561   6.607   4.101
   84DPPC   C46 4196   0.594   6.725   4.192
   84DPPC   C47 4197   0.733   6.698   4.250
   84DPPC   C48 4198   0.822   6.681   4.126
   84DPPC   C49 4199   0.951   6.762   4.131
   84DPPC   C50 4200   1.033   6.749   4.002
   85DPPC    C1 4201   8.340   7.349   4.944
   85DPPC    C2 4202   8.269   7.407   5.155
   85DPPC    C3 4203   8.428   7.234   5.117
   85DPPC    N4 4204   8.391   7.371   5.080
   85DPPC    C5 4205   8.492   7.476   5.065
   85DPPC    C6 4206   8.583   7.531   5.176
   85DPPC    O7 4207   8.696   7.449   5.206
   85DPPC    P8 4208   8.836   7.529   5.210
   85DPPC    O9 4209   8.929   7.432   5.270
   85DPPC   O10 4210   8.803   7.662   5.266
   85DPPC   O11 4211   8.850   7.527   5.049
   85DPPC   C12 4212   8.878   7.392   5.012
   85DPPC   C13 4213   8.876   7.363   4.862
   85DPPC   O14 4214   8.847   7.226   4.832
   85DPPC   C15 4215   8.722   7.180   4.807
   85DPPC   O16 4216   8.623   7.240   4.848
   85DPPC   C17 4217   8.715   7.051   4.724
   85DPPC   C18 4218   8.582   7.019   4.656
   85DPPC   C19 4219   8.512   6.912   4.740
   85DPPC   C20 4220   8.375   6.884   4.677
   85DPPC   C21 4221   8.282   6.999   4.715
   85DPPC   C22 4222   8.145   6.983   4.649
   85DPPC   C23 4223   8.024   7.060   4.702
   85DPPC   C24 4224   7.920   7.044   4.591
   85DPPC   C25 4225   7.965   7.084   4.450
   85DPPC   C26 4226   7.853   7.076   4.347
   85DPPC   C27 4227   7.894   7.134   4.212
   85DPPC   C28 4228   8.016   7.070   4.147
   85DPPC   C29 4229   8.029   7.102   3.998
   85DPPC   C30 4230   8.154   7.033   3.942
   85DPPC   C31 4231   8.173   7.071   3.795
   85DPPC   C32 4232   9.007   7.419   4.806
   85DPPC   O33 4233   9.014   7.458   4.669
   85DPPC   C34 4234   9.128   7.521   4.628
   85DPPC   O35 4235   9.214   7.564   4.705
   85DPPC   C36 4236   9.133   7.548   4.478
   85DPPC   C37 4237   9.275   7.574   4.428
   85DPPC   C38 4238   9.283   7.651   4.296
   85DPPC   C39 4239   9.428   7.662   4.246
   85DPPC   C40 4240   9.431   7.725   4.107
   85DPPC   C41 4241   9.541   7.664   4.021
   85DPPC   C42 4242   9.530   7.711   3.876
   85DPPC   C43 4243   9.633   7.624   3.804
   85DPPC   C44 4244   9.646   7.626   3.651
   85DPPC   C45 4245   9.760   7.535   3.605
   85DPPC   C46 4246   9.735   7.387   3.635
   85DPPC   C47 4247   9.826   7.281   3.574
   85DPPC   C48 4248   9.752   7.149   3.596
   85DPPC   C49 4249   9.790   7.036   3.500
   85DPPC   C50 4250   9.938   7.006   3.522
   86DPPC    C1 4251   7.212   7.226   5.743
   86DPPC    C2 4252   7.419   7.192   5.604
   86DPPC    C3 4253   7.388   7.355   5.769
   86DPPC    N4 4254   7.359   7.215   5.736
   86DPPC    C5 4255   7.421   7.131   5.839
   86DPPC    C6 4256   7.412   6.979   5.819
   86DPPC    O7 4257   7.279   6.928   5.803
   86DPPC    P8 4258   7.290   6.770   5.771
   86DPPC    O9 4259   7.189   6.726   5.869
   86DPPC   O10 4260   7.431   6.726   5.770
   86DPPC   O11 4261   7.222   6.791   5.627
   86DPPC   C12 4262   7.308   6.786   5.513
   86DPPC   C13 4263   7.231   6.766   5.383
   86DPPC   O14 4264   7.322   6.771   5.272
   86DPPC   C15 4265   7.286   6.699   5.162
   86DPPC   O16 4266   7.197   6.615   5.173
   86DPPC   C17 4267   7.401   6.691   5.061
   86DPPC   C18 4268   7.362   6.641   4.922
   86DPPC   C19 4269   7.459   6.692   4.815
   86DPPC   C20 4270   7.393   6.663   4.680
   86DPPC   C21 4271   7.478   6.724   4.568
   86DPPC   C22 4272   7.455   6.875   4.560
   86DPPC   C23 4273   7.350   6.938   4.469
   86DPPC   C24 4274   7.354   7.090   4.490
   86DPPC   C25 4275   7.265   7.171   4.396
   86DPPC   C26 4276   7.320   7.164   4.254
   86DPPC   C27 4277   7.232   7.259   4.173
   86DPPC   C28 4278   7.288   7.292   4.034
   86DPPC   C29 4279   7.335   7.180   3.943
   86DPPC   C30 4280   7.407   7.228   3.816
   86DPPC   C31 4281   7.302   7.291   3.724
   86DPPC   C32 4282   7.115   6.865   5.373
   86DPPC   O33 4283   7.147   7.003   5.358
   86DPPC   C34 4284   7.042   7.088   5.378
   86DPPC   O35 4285   6.928   7.046   5.398
   86DPPC   C36 4286   7.085   7.234   5.394
   86DPPC   C37 4287   7.076   7.306   5.259
   86DPPC   C38 4288   6.936   7.347   5.212
   86DPPC   C39 4289   6.941   7.393   5.067
   86DPPC   C40 4290   7.029   7.518   5.069
   86DPPC   C41 4291   7.117   7.516   4.943
   86DPPC   C42 4292   7.194   7.646   4.920
   86DPPC   C43 4293   7.291   7.667   5.037
   86DPPC   C44 4294   7.375   7.793   5.014
   86DPPC   C45 4295   7.270   7.905   5.015
   86DPPC   C46 4296   7.313   8.038   4.951
   86DPPC   C47 4297   7.211   8.152   4.956
   86DPPC   C48 4298   7.291   8.265   4.891
   86DPPC   C49 4299   7.201   8.389   4.895
   86DPPC   C50 4300   7.259   8.486   4.792
   87DPPC    C1 4301   5.237   4.550   6.156
   87DPPC    C2 4302   5.081   4.413   6.265
   87DPPC    C3 4303   5.023   4.573   6.105
   87DPPC    N4 4304   5.119   4.466   6.133
   87DPPC    C5 4305   5.133   4.372   6.021
   87DPPC    C6 4306   5.249   4.273   6.019
   87DPPC    O7 4307   5.214   4.166   6.107
   87DPPC    P8 4308   5.332   4.059   6.131
   87DPPC    O9 4309   5.265   3.927   6.144
   87DPPC   O10 4310   5.409   4.126   6.238
   87DPPC   O11 4311   5.400   4.071   5.986
   87DPPC   C12 4312   5.363   3.959   5.905
   87DPPC   C13 4313   5.295   3.995   5.773
   87DPPC   O14 4314   5.247   3.880   5.702
   87DPPC   C15 4315   5.116   3.846   5.718
   87DPPC   O16 4316   5.044   3.886   5.809
   87DPPC   C17 4317   5.065   3.729   5.634
   87DPPC   C18 4318   4.943   3.754   5.546
   87DPPC   C19 4319   4.902   3.641   5.451
   87DPPC   C20 4320   5.010   3.621   5.344
   87DPPC   C21 4321   4.963   3.511   5.248
   87DPPC   C22 4322   5.079   3.481   5.153
   87DPPC   C23 4323   5.124   3.612   5.089
   87DPPC   C24 4324   5.248   3.590   5.001
   87DPPC   C25 4325   5.220   3.537   4.860
   87DPPC   C26 4326   5.131   3.634   4.782
   87DPPC   C27 4327   5.090   3.567   4.650
   87DPPC   C28 4328   4.972   3.635   4.579
   87DPPC   C29 4329   4.942   3.551   4.454
   87DPPC   C30 4330   4.810   3.606   4.400
   87DPPC   C31 4331   4.779   3.547   4.263
   87DPPC   C32 4332   5.385   4.092   5.697
   87DPPC   O33 4333   5.302   4.173   5.614
   87DPPC   C34 4334   5.372   4.240   5.518
   87DPPC   O35 4335   5.495   4.237   5.514
   87DPPC   C36 4336   5.289   4.286   5.398
   87DPPC   C37 4337   5.272   4.175   5.293
   87DPPC   C38 4338   5.187   4.062   5.351
   87DPPC   C39 4339   5.138   3.962   5.246
   87DPPC   C40 4340   5.033   4.033   5.161
   87DPPC   C41 4341   4.977   3.945   5.049
   87DPPC   C42 4342   4.854   4.000   4.976
   87DPPC   C43 4343   4.842   3.940   4.836
   87DPPC   C44 4344   4.712   3.998   4.781
   87DPPC   C45 4345   4.703   3.957   4.634
   87DPPC   C46 4346   4.601   4.050   4.568
   87DPPC   C47 4347   4.588   4.039   4.416
   87DPPC   C48 4348   4.556   3.893   4.385
   87DPPC   C49 4349   4.527   3.891   4.235
   87DPPC   C50 4350   4.411   3.975   4.182
   88DPPC    C1 4351   7.978   6.601   5.629
   88DPPC    C2 4352   7.845   6.417   5.700
   88DPPC    C3 4353   7.869   6.618   5.834
   88DPPC    N4 4354   7.854   6.564   5.699
   88DPPC    C5 4355   7.736   6.607   5.621
   88DPPC    C6 4356   7.696   6.754   5.614
   88DPPC    O7 4357   7.796   6.839   5.557
   88DPPC    P8 4358   7.752   6.994   5.557
   88DPPC    O9 4359   7.871   7.069   5.512
   88DPPC   O10 4360   7.676   7.026   5.680
   88DPPC   O11 4361   7.648   6.984   5.434
   88DPPC   C12 4362   7.713   6.939   5.315
   88DPPC   C13 4363   7.639   6.905   5.185
   88DPPC   O14 4364   7.728   6.878   5.075
   88DPPC   C15 4365   7.780   6.755   5.051
   88DPPC   O16 4366   7.772   6.678   5.146
   88DPPC   C17 4367   7.833   6.718   4.912
   88DPPC   C18 4368   7.822   6.568   4.882
   88DPPC   C19 4369   7.928   6.541   4.774
   88DPPC   C20 4370   7.925   6.395   4.729
   88DPPC   C21 4371   8.036   6.381   4.625
   88DPPC   C22 4372   7.989   6.311   4.497
   88DPPC   C23 4373   8.114   6.262   4.425
   88DPPC   C24 4374   8.079   6.204   4.287
   88DPPC   C25 4375   8.198   6.142   4.215
   88DPPC   C26 4376   8.169   6.132   4.065
   88DPPC   C27 4377   8.291   6.082   3.987
   88DPPC   C28 4378   8.247   6.013   3.858
   88DPPC   C29 4379   8.182   6.114   3.764
   88DPPC   C30 4380   8.171   6.075   3.617
   88DPPC   C31 4381   8.151   6.188   3.515
   88DPPC   C32 4382   7.552   7.028   5.161
   88DPPC   O33 4383   7.433   7.010   5.083
   88DPPC   C34 4384   7.352   7.120   5.087
   88DPPC   O35 4385   7.394   7.220   5.144
   88DPPC   C36 4386   7.210   7.100   5.035
   88DPPC   C37 4387   7.201   7.121   4.884
   88DPPC   C38 4388   7.066   7.081   4.824
   88DPPC   C39 4389   7.043   6.930   4.833
   88DPPC   C40 4390   6.896   6.900   4.799
   88DPPC   C41 4391   6.878   6.756   4.846
   88DPPC   C42 4392   6.730   6.716   4.850
   88DPPC   C43 4393   6.668   6.714   4.710
   88DPPC   C44 4394   6.532   6.645   4.699
   88DPPC   C45 4395   6.448   6.686   4.577
   88DPPC   C46 4396   6.358   6.569   4.538
   88DPPC   C47 4397   6.294   6.592   4.401
   88DPPC   C48 4398   6.208   6.468   4.372
   88DPPC   C49 4399   6.288   6.343   4.407
   88DPPC   C50 4400   6.226   6.221   4.337
   89DPPC    C1 4401   8.947   1.096   5.842
   89DPPC    C2 4402   9.001   1.318   5.857
   89DPPC    C3 4403   9.072   1.203   5.673
   89DPPC    N4 4404   8.955   1.218   5.760
   89DPPC    C5 4405   8.844   1.256   5.672
   89DPPC    C6 4406   8.704   1.302   5.714
   89DPPC    O7 4407   8.716   1.385   5.830
   89DPPC    P8 4408   8.584   1.477   5.839
   89DPPC    O9 4409   8.614   1.593   5.926
   89DPPC   O10 4410   8.476   1.378   5.856
   89DPPC   O11 4411   8.589   1.524   5.685
   89DPPC   C12 4412   8.484   1.609   5.638
   89DPPC   C13 4413   8.529   1.682   5.512
   89DPPC   O14 4414   8.423   1.770   5.471
   89DPPC   C15 4415   8.425   1.903   5.497
   89DPPC   O16 4416   8.487   1.942   5.596
   89DPPC   C17 4417   8.338   1.994   5.409
   89DPPC   C18 4418   8.319   1.949   5.264
   89DPPC   C19 4419   8.252   2.049   5.170
   89DPPC   C20 4420   8.223   1.987   5.033
   89DPPC   C21 4421   8.157   2.086   4.937
   89DPPC   C22 4422   8.025   2.134   4.998
   89DPPC   C23 4423   7.968   2.220   4.886
   89DPPC   C24 4424   7.837   2.282   4.935
   89DPPC   C25 4425   7.761   2.367   4.833
   89DPPC   C26 4426   7.716   2.279   4.716
   89DPPC   C27 4427   7.618   2.358   4.629
   89DPPC   C28 4428   7.670   2.489   4.569
   89DPPC   C29 4429   7.566   2.541   4.469
   89DPPC   C30 4430   7.624   2.672   4.416
   89DPPC   C31 4431   7.753   2.657   4.336
   89DPPC   C32 4432   8.574   1.583   5.404
   89DPPC   O33 4433   8.643   1.656   5.302
   89DPPC   C34 4434   8.672   1.597   5.183
   89DPPC   O35 4435   8.636   1.480   5.168
   89DPPC   C36 4436   8.750   1.671   5.073
   89DPPC   C37 4437   8.652   1.740   4.978
   89DPPC   C38 4438   8.717   1.865   4.919
   89DPPC   C39 4439   8.729   1.874   4.767
   89DPPC   C40 4440   8.594   1.893   4.697
   89DPPC   C41 4441   8.622   1.933   4.551
   89DPPC   C42 4442   8.499   1.909   4.464
   89DPPC   C43 4443   8.370   1.954   4.534
   89DPPC   C44 4444   8.252   1.897   4.455
   89DPPC   C45 4445   8.132   1.968   4.517
   89DPPC   C46 4446   8.006   1.927   4.439
   89DPPC   C47 4447   7.874   1.960   4.507
   89DPPC   C48 4448   7.765   1.894   4.422
   89DPPC   C49 4449   7.629   1.947   4.470
   89DPPC   C50 4450   7.525   1.910   4.364
   90DPPC    C1 4451   6.130   3.042   6.336
   90DPPC    C2 4452   5.970   3.208   6.243
   90DPPC    C3 4453   6.097   3.256   6.410
   90DPPC    N4 4454   6.108   3.178   6.286
   90DPPC    C5 4455   6.208   3.228   6.191
   90DPPC    C6 4456   6.238   3.378   6.183
   90DPPC    O7 4457   6.143   3.454   6.108
   90DPPC    P8 4458   6.145   3.609   6.150
   90DPPC    O9 4459   6.170   3.605   6.296
   90DPPC   O10 4460   6.045   3.695   6.083
   90DPPC   O11 4461   6.286   3.636   6.077
   90DPPC   C12 4462   6.264   3.643   5.936
   90DPPC   C13 4463   6.391   3.645   5.850
   90DPPC   O14 4464   6.375   3.687   5.714
   90DPPC   C15 4465   6.311   3.803   5.681
   90DPPC   O16 4466   6.299   3.895   5.761
   90DPPC   C17 4467   6.284   3.825   5.532
   90DPPC   C18 4468   6.160   3.747   5.488
   90DPPC   C19 4469   6.104   3.797   5.354
   90DPPC   C20 4470   6.198   3.817   5.235
   90DPPC   C21 4471   6.136   3.858   5.101
   90DPPC   C22 4472   6.243   3.913   5.006
   90DPPC   C23 4473   6.205   3.941   4.861
   90DPPC   C24 4474   6.323   3.985   4.774
   90DPPC   C25 4475   6.279   4.013   4.630
   90DPPC   C26 4476   6.396   3.989   4.534
   90DPPC   C27 4477   6.355   4.025   4.391
   90DPPC   C28 4478   6.477   4.006   4.302
   90DPPC   C29 4479   6.448   3.971   4.155
   90DPPC   C30 4480   6.408   3.825   4.134
   90DPPC   C31 4481   6.540   3.748   4.137
   90DPPC   C32 4482   6.470   3.515   5.862
   90DPPC   O33 4483   6.395   3.396   5.834
   90DPPC   C34 4484   6.460   3.279   5.855
   90DPPC   O35 4485   6.559   3.280   5.928
   90DPPC   C36 4486   6.383   3.147   5.844
   90DPPC   C37 4487   6.406   3.070   5.714
   90DPPC   C38 4488   6.294   2.966   5.705
   90DPPC   C39 4489   6.282   2.902   5.567
   90DPPC   C40 4490   6.171   2.797   5.566
   90DPPC   C41 4491   6.170   2.731   5.427
   90DPPC   C42 4492   6.078   2.614   5.396
   90DPPC   C43 4493   6.070   2.586   5.246
   90DPPC   C44 4494   6.025   2.701   5.155
   90DPPC   C45 4495   6.038   2.645   5.013
   90DPPC   C46 4496   6.013   2.745   4.900
   90DPPC   C47 4497   6.078   2.691   4.773
   90DPPC   C48 4498   5.984   2.710   4.654
   90DPPC   C49 4499   6.016   2.601   4.552
   90DPPC   C50 4500   6.157   2.622   4.497
   91DPPC    C1 4501   4.569   7.048   5.761
   91DPPC    C2 4502   4.513   7.185   5.933
   91DPPC    C3 4503   4.700   7.254   5.814
   91DPPC    N4 4504   4.568   7.190   5.797
   91DPPC    C5 4505   4.467   7.271   5.726
   91DPPC    C6 4506   4.500   7.273   5.577
   91DPPC    O7 4507   4.409   7.366   5.518
   91DPPC    P8 4508   4.363   7.314   5.373
   91DPPC    O9 4509   4.294   7.432   5.316
   91DPPC   O10 4510   4.291   7.188   5.405
   91DPPC   O11 4511   4.504   7.263   5.314
   91DPPC   C12 4512   4.508   7.331   5.188
   91DPPC   C13 4513   4.626   7.281   5.105
   91DPPC   O14 4514   4.669   7.358   4.991
   91DPPC   C15 4515   4.747   7.469   5.002
   91DPPC   O16 4516   4.792   7.516   5.106
   91DPPC   C17 4517   4.812   7.504   4.868
   91DPPC   C18 4518   4.779   7.423   4.742
   91DPPC   C19 4519   4.873   7.456   4.626
   91DPPC   C20 4520   4.815   7.403   4.495
   91DPPC   C21 4521   4.887   7.472   4.379
   91DPPC   C22 4522   4.879   7.390   4.250
   91DPPC   C23 4523   4.946   7.456   4.130
   91DPPC   C24 4524   4.968   7.365   4.009
   91DPPC   C25 4525   5.017   7.450   3.892
   91DPPC   C26 4526   5.031   7.356   3.772
   91DPPC   C27 4527   5.130   7.240   3.789
   91DPPC   C28 4528   5.173   7.192   3.650
   91DPPC   C29 4529   5.280   7.082   3.652
   91DPPC   C30 4530   5.360   7.068   3.523
   91DPPC   C31 4531   5.272   7.019   3.408
   91DPPC   C32 4532   4.609   7.131   5.080
   91DPPC   O33 4533   4.471   7.094   5.070
   91DPPC   C34 4534   4.442   6.967   5.030
   91DPPC   O35 4535   4.526   6.880   5.056
   91DPPC   C36 4536   4.309   6.940   4.961
   91DPPC   C37 4537   4.328   6.838   4.848
   91DPPC   C38 4538   4.185   6.806   4.802
   91DPPC   C39 4539   4.199   6.710   4.684
   91DPPC   C40 4540   4.262   6.803   4.580
   91DPPC   C41 4541   4.304   6.723   4.457
   91DPPC   C42 4542   4.190   6.637   4.402
   91DPPC   C43 4543   4.241   6.547   4.289
   91DPPC   C44 4544   4.365   6.471   4.336
   91DPPC   C45 4545   4.386   6.353   4.240
   91DPPC   C46 4546   4.406   6.395   4.094
   91DPPC   C47 4547   4.427   6.276   4.001
   91DPPC   C48 4548   4.391   6.328   3.862
   91DPPC   C49 4549   4.395   6.205   3.770
   91DPPC   C50 4550   4.364   6.238   3.624
   92DPPC    C1 4551   1.912   5.902   5.625
   92DPPC    C2 4552   1.886   6.131   5.711
   92DPPC    C3 4553   1.854   5.957   5.849
   92DPPC    N4 4554   1.938   5.995   5.735
   92DPPC    C5 4555   2.079   5.994   5.778
   92DPPC    C6 4556   2.178   6.039   5.671
   92DPPC    O7 4557   2.238   5.930   5.601
   92DPPC    P8 4558   2.359   5.975   5.504
   92DPPC    O9 4559   2.372   5.846   5.434
   92DPPC   O10 4560   2.437   6.018   5.622
   92DPPC   O11 4561   2.268   6.078   5.419
   92DPPC   C12 4562   2.229   6.004   5.303
   92DPPC   C13 4563   2.145   6.078   5.199
   92DPPC   O14 4564   2.108   5.993   5.089
   92DPPC   C15 4565   1.976   5.962   5.082
   92DPPC   O16 4566   1.898   6.036   5.142
   92DPPC   C17 4567   1.932   5.848   4.990
   92DPPC   C18 4568   1.921   5.899   4.846
   92DPPC   C19 4569   1.942   5.768   4.771
   92DPPC   C20 4570   1.913   5.807   4.626
   92DPPC   C21 4571   1.892   5.682   4.540
   92DPPC   C22 4572   1.850   5.722   4.398
   92DPPC   C23 4573   1.846   5.599   4.307
   92DPPC   C24 4574   1.747   5.498   4.366
   92DPPC   C25 4575   1.734   5.384   4.265
   92DPPC   C26 4576   1.613   5.300   4.309
   92DPPC   C27 4577   1.588   5.214   4.186
   92DPPC   C28 4578   1.605   5.298   4.059
   92DPPC   C29 4579   1.550   5.209   3.948
   92DPPC   C30 4580   1.571   5.244   3.801
   92DPPC   C31 4581   1.527   5.391   3.792
   92DPPC   C32 4582   2.229   6.202   5.167
   92DPPC   O33 4583   2.365   6.181   5.127
   92DPPC   C34 4584   2.449   6.287   5.114
   92DPPC   O35 4585   2.455   6.390   5.180
   92DPPC   C36 4586   2.580   6.256   5.041
   92DPPC   C37 4587   2.636   6.376   4.965
   92DPPC   C38 4588   2.780   6.350   4.921
   92DPPC   C39 4589   2.794   6.238   4.818
   92DPPC   C40 4590   2.710   6.274   4.695
   92DPPC   C41 4591   2.748   6.180   4.581
   92DPPC   C42 4592   2.729   6.031   4.611
   92DPPC   C43 4593   2.730   5.953   4.479
   92DPPC   C44 4594   2.681   5.812   4.514
   92DPPC   C45 4595   2.781   5.739   4.603
   92DPPC   C46 4596   2.742   5.595   4.640
   92DPPC   C47 4597   2.834   5.529   4.743
   92DPPC   C48 4598   2.793   5.392   4.797
   92DPPC   C49 4599   2.893   5.335   4.898
   92DPPC   C50 4600   2.837   5.202   4.948
   93DPPC    C1 4601   1.392   2.689   5.255
   93DPPC    C2 4602   1.305   2.872   5.136
   93DPPC    C3 4603   1.177   2.666   5.174
   93DPPC    N4 4604   1.268   2.766   5.231
   93DPPC    C5 4605   1.217   2.799   5.365
   93DPPC    C6 4606   1.284   2.916   5.439
   93DPPC    O7 4607   1.215   3.036   5.404
   93DPPC    P8 4608   1.292   3.161   5.470
   93DPPC    O9 4609   1.377   3.108   5.579
   93DPPC   O10 4610   1.181   3.255   5.500
   93DPPC   O11 4611   1.370   3.202   5.335
   93DPPC   C12 4612   1.272   3.245   5.241
   93DPPC   C13 4613   1.308   3.363   5.150
   93DPPC   O14 4614   1.217   3.413   5.051
   93DPPC   C15 4615   1.110   3.490   5.084
   93DPPC   O16 4616   1.075   3.513   5.200
   93DPPC   C17 4617   1.027   3.532   4.963
   93DPPC   C18 4618   0.890   3.463   4.967
   93DPPC   C19 4619   0.797   3.505   4.853
   93DPPC   C20 4620   0.868   3.478   4.720
   93DPPC   C21 4621   0.807   3.512   4.584
   93DPPC   C22 4622   0.781   3.662   4.564
   93DPPC   C23 4623   0.721   3.697   4.428
   93DPPC   C24 4624   0.826   3.682   4.317
   93DPPC   C25 4625   0.772   3.732   4.183
   93DPPC   C26 4626   0.658   3.637   4.145
   93DPPC   C27 4627   0.591   3.658   4.009
   93DPPC   C28 4628   0.682   3.635   3.888
   93DPPC   C29 4629   0.598   3.666   3.763
   93DPPC   C30 4630   0.679   3.604   3.649
   93DPPC   C31 4631   0.611   3.644   3.518
   93DPPC   C32 4632   1.435   3.311   5.082
   93DPPC   O33 4633   1.410   3.208   4.986
   93DPPC   C34 4634   1.505   3.184   4.892
   93DPPC   O35 4635   1.624   3.209   4.912
   93DPPC   C36 4636   1.473   3.085   4.780
   93DPPC   C37 4637   1.331   3.099   4.725
   93DPPC   C38 4638   1.301   2.994   4.618
   93DPPC   C39 4639   1.388   3.007   4.492
   93DPPC   C40 4640   1.351   2.899   4.391
   93DPPC   C41 4641   1.434   2.914   4.263
   93DPPC   C42 4642   1.368   2.826   4.157
   93DPPC   C43 4643   1.439   2.824   4.022
   93DPPC   C44 4644   1.360   2.911   3.923
   93DPPC   C45 4645   1.445   2.939   3.799
   93DPPC   C46 4646   1.357   3.035   3.718
   93DPPC   C47 4647   1.423   3.123   3.613
   93DPPC   C48 4648   1.441   3.054   3.478
   93DPPC   C49 4649   1.472   3.138   3.354
   93DPPC   C50 4650   1.494   3.065   3.221
   94DPPC    C1 4651   3.529   6.440   5.635
   94DPPC    C2 4652   3.623   6.543   5.839
   94DPPC    C3 4653   3.392   6.530   5.813
   94DPPC    N4 4654   3.517   6.460   5.780
   94DPPC    C5 4655   3.503   6.327   5.841
   94DPPC    C6 4656   3.626   6.238   5.863
   94DPPC    O7 4657   3.697   6.205   5.743
   94DPPC    P8 4658   3.816   6.107   5.788
   94DPPC    O9 4659   3.736   6.006   5.860
   94DPPC   O10 4660   3.901   6.206   5.860
   94DPPC   O11 4661   3.852   6.079   5.634
   94DPPC   C12 4662   3.918   6.195   5.583
   94DPPC   C13 4663   3.936   6.188   5.431
   94DPPC   O14 4664   3.821   6.243   5.365
   94DPPC   C15 4665   3.820   6.377   5.341
   94DPPC   O16 4666   3.908   6.450   5.386
   94DPPC   C17 4667   3.692   6.432   5.278
   94DPPC   C18 4668   3.732   6.525   5.163
   94DPPC   C19 4669   3.597   6.558   5.099
   94DPPC   C20 4670   3.618   6.659   4.986
   94DPPC   C21 4671   3.490   6.685   4.907
   94DPPC   C22 4672   3.530   6.792   4.805
   94DPPC   C23 4673   3.647   6.749   4.717
   94DPPC   C24 4674   3.609   6.629   4.630
   94DPPC   C25 4675   3.695   6.614   4.504
   94DPPC   C26 4676   3.699   6.471   4.450
   94DPPC   C27 4677   3.748   6.481   4.306
   94DPPC   C28 4678   3.808   6.345   4.267
   94DPPC   C29 4679   3.705   6.234   4.293
   94DPPC   C30 4680   3.634   6.202   4.162
   94DPPC   C31 4681   3.545   6.079   4.182
   94DPPC   C32 4682   3.967   6.044   5.392
   94DPPC   O33 4683   4.021   6.012   5.263
   94DPPC   C34 4684   4.075   5.888   5.270
   94DPPC   O35 4685   4.065   5.829   5.378
   94DPPC   C36 4686   4.157   5.843   5.149
   94DPPC   C37 4687   4.076   5.737   5.074
   94DPPC   C38 4688   4.117   5.754   4.928
   94DPPC   C39 4689   4.247   5.680   4.896
   94DPPC   C40 4690   4.285   5.744   4.762
   94DPPC   C41 4691   4.177   5.704   4.661
   94DPPC   C42 4692   4.235   5.741   4.524
   94DPPC   C43 4693   4.361   5.664   4.484
   94DPPC   C44 4694   4.367   5.678   4.332
   94DPPC   C45 4695   4.489   5.603   4.277
   94DPPC   C46 4696   4.503   5.609   4.125
   94DPPC   C47 4697   4.600   5.501   4.077
   94DPPC   C48 4698   4.648   5.525   3.933
   94DPPC   C49 4699   4.714   5.397   3.880
   94DPPC   C50 4700   4.748   5.419   3.732
   95DPPC    C1 4701   1.166   1.774   5.794
   95DPPC    C2 4702   1.007   1.692   5.645
   95DPPC    C3 4703   0.946   1.798   5.851
   95DPPC    N4 4704   1.035   1.805   5.735
   95DPPC    C5 4705   1.033   1.930   5.657
   95DPPC    C6 4706   1.041   2.061   5.736
   95DPPC    O7 4707   1.176   2.105   5.756
   95DPPC    P8 4708   1.166   2.250   5.825
   95DPPC    O9 4709   1.309   2.279   5.844
   95DPPC   O10 4710   1.080   2.234   5.944
   95DPPC   O11 4711   1.107   2.327   5.697
   95DPPC   C12 4712   1.209   2.357   5.601
   95DPPC   C13 4713   1.145   2.401   5.470
   95DPPC   O14 4714   1.229   2.413   5.354
   95DPPC   C15 4715   1.256   2.294   5.295
   95DPPC   O16 4716   1.205   2.193   5.343
   95DPPC   C17 4717   1.374   2.283   5.198
   95DPPC   C18 4718   1.375   2.156   5.112
   95DPPC   C19 4719   1.255   2.160   5.017
   95DPPC   C20 4720   1.239   2.021   4.954
   95DPPC   C21 4721   1.123   2.021   4.855
   95DPPC   C22 4722   1.107   1.880   4.797
   95DPPC   C23 4723   0.990   1.883   4.699
   95DPPC   C24 4724   1.031   1.967   4.578
   95DPPC   C25 4725   0.919   1.965   4.473
   95DPPC   C26 4726   0.971   1.920   4.337
   95DPPC   C27 4727   0.854   1.909   4.239
   95DPPC   C28 4728   0.915   1.879   4.102
   95DPPC   C29 4729   0.814   1.842   3.993
   95DPPC   C30 4730   0.902   1.791   3.878
   95DPPC   C31 4731   0.799   1.759   3.769
   95DPPC   C32 4732   1.065   2.517   5.528
   95DPPC   O33 4733   0.991   2.590   5.430
   95DPPC   C34 4734   0.868   2.627   5.475
   95DPPC   O35 4735   0.822   2.554   5.563
   95DPPC   C36 4736   0.792   2.743   5.410
   95DPPC   C37 4737   0.822   2.759   5.261
   95DPPC   C38 4738   0.741   2.877   5.207
   95DPPC   C39 4739   0.798   2.900   5.067
   95DPPC   C40 4740   0.881   3.028   5.057
   95DPPC   C41 4741   0.948   3.035   4.920
   95DPPC   C42 4742   0.855   3.087   4.810
   95DPPC   C43 4743   0.934   3.091   4.679
   95DPPC   C44 4744   0.837   3.125   4.565
   95DPPC   C45 4745   0.921   3.156   4.441
   95DPPC   C46 4746   0.840   3.191   4.316
   95DPPC   C47 4747   0.925   3.229   4.195
   95DPPC   C48 4748   0.846   3.252   4.066
   95DPPC   C49 4749   0.769   3.125   4.027
   95DPPC   C50 4750   0.851   3.001   3.990
   96DPPC    C1 4751   2.055   7.957   4.921
   96DPPC    C2 4752   2.032   7.865   5.144
   96DPPC    C3 4753   2.201   7.783   4.993
   96DPPC    N4 4754   2.126   7.902   5.037
   96DPPC    C5 4755   2.218   8.009   5.077
   96DPPC    C6 4756   2.335   7.978   5.171
   96DPPC    O7 4757   2.389   8.099   5.224
   96DPPC    P8 4758   2.543   8.097   5.269
   96DPPC    O9 4759   2.565   7.960   5.319
   96DPPC   O10 4760   2.559   8.218   5.353
   96DPPC   O11 4761   2.599   8.112   5.119
   96DPPC   C12 4762   2.604   8.252   5.088
   96DPPC   C13 4763   2.681   8.276   4.958
   96DPPC   O14 4764   2.624   8.383   4.881
   96DPPC   C15 4765   2.668   8.510   4.903
   96DPPC   O16 4766   2.711   8.543   5.014
   96DPPC   C17 4767   2.609   8.616   4.810
   96DPPC   C18 4768   2.700   8.625   4.687
   96DPPC   C19 4769   2.619   8.699   4.580
   96DPPC   C20 4770   2.491   8.624   4.546
   96DPPC   C21 4771   2.413   8.693   4.434
   96DPPC   C22 4772   2.297   8.608   4.381
   96DPPC   C23 4773   2.267   8.632   4.232
   96DPPC   C24 4774   2.213   8.769   4.192
   96DPPC   C25 4775   2.183   8.778   4.042
   96DPPC   C26 4776   2.150   8.921   3.997
   96DPPC   C27 4777   2.189   8.932   3.850
   96DPPC   C28 4778   2.143   9.072   3.807
   96DPPC   C29 4779   2.182   9.108   3.664
   96DPPC   C30 4780   2.334   9.090   3.667
   96DPPC   C31 4781   2.385   9.082   3.523
   96DPPC   C32 4782   2.685   8.150   4.872
   96DPPC   O33 4783   2.764   8.152   4.753
   96DPPC   C34 4784   2.723   8.060   4.662
   96DPPC   O35 4785   2.645   7.969   4.687
   96DPPC   C36 4786   2.793   8.065   4.526
   96DPPC   C37 4787   2.941   8.035   4.551
   96DPPC   C38 4788   3.028   8.051   4.426
   96DPPC   C39 4789   3.174   8.018   4.459
   96DPPC   C40 4790   3.210   8.097   4.584
   96DPPC   C41 4791   3.339   8.047   4.649
   96DPPC   C42 4792   3.454   8.057   4.548
   96DPPC   C43 4793   3.582   8.039   4.630
   96DPPC   C44 4794   3.708   8.075   4.551
   96DPPC   C45 4795   3.701   8.220   4.505
   96DPPC   C46 4796   3.813   8.262   4.409
   96DPPC   C47 4797   3.800   8.410   4.371
   96DPPC   C48 4798   3.918   8.460   4.287
   96DPPC   C49 4799   4.041   8.406   4.360
   96DPPC   C50 4800   4.169   8.449   4.287
   97DPPC    C1 4801   9.580   4.339   5.997
   97DPPC    C2 4802   9.539   4.189   5.804
   97DPPC    C3 4803   9.728   4.304   5.821
   97DPPC    N4 4804   9.632   4.235   5.908
   97DPPC    C5 4805   9.666   4.125   6.000
   97DPPC    C6 4806   9.763   4.013   5.962
   97DPPC    O7 4807   9.903   4.036   5.949
   97DPPC    P8 4808   9.966   3.888   5.963
   97DPPC    O9 4809   9.863   3.793   5.916
   97DPPC   O10 4810   9.988   3.882   6.109
   97DPPC   O11 4811  10.098   3.881   5.870
   97DPPC   C12 4812  10.045   3.910   5.741
   97DPPC   C13 4813  10.122   3.837   5.631
   97DPPC   O14 4814  10.134   3.921   5.516
   97DPPC   C15 4815  10.208   3.868   5.415
   97DPPC   O16 4816  10.271   3.764   5.432
   97DPPC   C17 4817  10.251   3.962   5.302
   97DPPC   C18 4818  10.260   3.876   5.176
   97DPPC   C19 4819  10.297   3.970   5.061
   97DPPC   C20 4820  10.299   3.901   4.925
   97DPPC   C21 4821  10.287   3.996   4.805
   97DPPC   C22 4822  10.144   4.047   4.789
   97DPPC   C23 4823  10.140   4.158   4.683
   97DPPC   C24 4824   9.994   4.180   4.644
   97DPPC   C25 4825   9.965   4.269   4.523
   97DPPC   C26 4826  10.019   4.213   4.392
   97DPPC   C27 4827   9.973   4.069   4.368
   97DPPC   C28 4828   9.967   4.031   4.220
   97DPPC   C29 4829   9.868   4.126   4.153
   97DPPC   C30 4830   9.853   4.084   4.006
   97DPPC   C31 4831   9.986   4.082   3.931
   97DPPC   C32 4832  10.064   3.697   5.604
   97DPPC   O33 4833   9.966   3.705   5.500
   97DPPC   C34 4834   9.902   3.592   5.460
   97DPPC   O35 4835   9.918   3.486   5.521
   97DPPC   C36 4836   9.832   3.609   5.325
   97DPPC   C37 4837   9.931   3.623   5.210
   97DPPC   C38 4838   9.860   3.629   5.075
   97DPPC   C39 4839   9.933   3.688   4.954
   97DPPC   C40 4840   9.843   3.703   4.832
   97DPPC   C41 4841   9.925   3.718   4.703
   97DPPC   C42 4842   9.845   3.673   4.580
   97DPPC   C43 4843   9.705   3.732   4.567
   97DPPC   C44 4844   9.630   3.696   4.439
   97DPPC   C45 4845   9.707   3.724   4.310
   97DPPC   C46 4846   9.618   3.686   4.191
   97DPPC   C47 4847   9.695   3.711   4.061
   97DPPC   C48 4848   9.611   3.714   3.933
   97DPPC   C49 4849   9.695   3.719   3.805
   97DPPC   C50 4850   9.622   3.758   3.676
   98DPPC    C1 4851   7.981   4.290   5.928
   98DPPC    C2 4852   7.807   4.141   5.979
   98DPPC    C3 4853   7.829   4.376   6.073
   98DPPC    N4 4854   7.837   4.283   5.960
   98DPPC    C5 4855   7.771   4.343   5.843
   98DPPC    C6 4856   7.618   4.351   5.839
   98DPPC    O7 4857   7.548   4.226   5.840
   98DPPC    P8 4858   7.402   4.279   5.885
   98DPPC    O9 4859   7.434   4.357   6.006
   98DPPC   O10 4860   7.311   4.162   5.884
   98DPPC   O11 4861   7.363   4.366   5.755
   98DPPC   C12 4862   7.336   4.267   5.655
   98DPPC   C13 4863   7.306   4.335   5.521
   98DPPC   O14 4864   7.263   4.241   5.422
   98DPPC   C15 4865   7.133   4.242   5.381
   98DPPC   O16 4866   7.066   4.323   5.446
   98DPPC   C17 4867   7.092   4.168   5.254
   98DPPC   C18 4868   7.211   4.166   5.158
   98DPPC   C19 4869   7.236   4.294   5.078
   98DPPC   C20 4870   7.244   4.275   4.926
   98DPPC   C21 4871   7.351   4.174   4.884
   98DPPC   C22 4872   7.381   4.181   4.734
   98DPPC   C23 4873   7.439   4.315   4.689
   98DPPC   C24 4874   7.475   4.340   4.542
   98DPPC   C25 4875   7.342   4.359   4.469
   98DPPC   C26 4876   7.357   4.338   4.319
   98DPPC   C27 4877   7.458   4.435   4.257
   98DPPC   C28 4878   7.431   4.447   4.107
   98DPPC   C29 4879   7.291   4.507   4.091
   98DPPC   C30 4880   7.249   4.500   3.944
   98DPPC   C31 4881   7.350   4.556   3.844
   98DPPC   C32 4882   7.437   4.405   5.482
   98DPPC   O33 4883   7.435   4.494   5.371
   98DPPC   C34 4884   7.553   4.498   5.302
   98DPPC   O35 4885   7.654   4.442   5.345
   98DPPC   C36 4886   7.547   4.543   5.156
   98DPPC   C37 4887   7.653   4.644   5.111
   98DPPC   C38 4888   7.612   4.700   4.975
   98DPPC   C39 4889   7.709   4.679   4.859
   98DPPC   C40 4890   7.656   4.756   4.738
   98DPPC   C41 4891   7.718   4.703   4.608
   98DPPC   C42 4892   7.679   4.786   4.486
   98DPPC   C43 4893   7.749   4.732   4.361
   98DPPC   C44 4894   7.721   4.806   4.230
   98DPPC   C45 4895   7.757   4.720   4.108
   98DPPC   C46 4896   7.907   4.691   4.107
   98DPPC   C47 4897   7.939   4.618   3.976
   98DPPC   C48 4898   8.087   4.646   3.947
   98DPPC   C49 4899   8.145   4.521   3.881
   98DPPC   C50 4900   8.297   4.533   3.864
   99DPPC    C1 4901   8.390   5.371   1.470
   99DPPC    C2 4902   8.526   5.483   1.641
   99DPPC    C3 4903   8.539   5.520   1.403
   99DPPC    N4 4904   8.448   5.497   1.517
   99DPPC    C5 4905   8.353   5.609   1.523
   99DPPC    C6 4906   8.240   5.612   1.627
   99DPPC    O7 4907   8.106   5.600   1.578
   99DPPC    P8 4908   8.015   5.709   1.653
   99DPPC    O9 4909   7.880   5.724   1.594
   99DPPC   O10 4910   8.090   5.836   1.660
   99DPPC   O11 4911   8.009   5.666   1.808
   99DPPC   C12 4912   7.886   5.713   1.865
   99DPPC   C13 4913   7.885   5.717   2.018
   99DPPC   O14 4914   7.903   5.850   2.068
   99DPPC   C15 4915   7.800   5.939   2.053
   99DPPC   O16 4916   7.706   5.937   1.975
   99DPPC   C17 4917   7.802   6.062   2.145
   99DPPC   C18 4918   7.660   6.097   2.188
   99DPPC   C19 4919   7.666   6.232   2.259
   99DPPC   C20 4920   7.745   6.209   2.388
   99DPPC   C21 4921   7.723   6.337   2.469
   99DPPC   C22 4922   7.574   6.339   2.503
   99DPPC   C23 4923   7.540   6.461   2.589
   99DPPC   C24 4924   7.392   6.500   2.582
   99DPPC   C25 4925   7.372   6.625   2.668
   99DPPC   C26 4926   7.448   6.610   2.800
   99DPPC   C27 4927   7.375   6.555   2.923
   99DPPC   C28 4928   7.465   6.483   3.024
   99DPPC   C29 4929   7.377   6.461   3.147
   99DPPC   C30 4930   7.432   6.341   3.224
   99DPPC   C31 4931   7.341   6.321   3.346
   99DPPC   C32 4932   7.989   5.616   2.066
   99DPPC   O33 4933   7.937   5.493   2.117
   99DPPC   C34 4934   8.035   5.419   2.174
   99DPPC   O35 4935   8.148   5.464   2.188
   99DPPC   C36 4936   7.987   5.303   2.263
   99DPPC   C37 4937   8.047   5.314   2.403
   99DPPC   C38 4938   8.004   5.199   2.495
   99DPPC   C39 4939   8.083   5.225   2.624
   99DPPC   C40 4940   8.047   5.116   2.725
   99DPPC   C41 4941   8.134   5.118   2.851
   99DPPC   C42 4942   8.054   5.060   2.968
   99DPPC   C43 4943   7.931   5.144   3.002
   99DPPC   C44 4944   7.869   5.115   3.139
   99DPPC   C45 4945   7.808   4.976   3.160
   99DPPC   C46 4946   7.768   4.954   3.306
   99DPPC   C47 4947   7.682   4.828   3.316
   99DPPC   C48 4948   7.649   4.772   3.454
   99DPPC   C49 4949   7.538   4.666   3.448
   99DPPC   C50 4950   7.406   4.741   3.433
  100DPPC    C1 4951   4.436   4.475   2.494
  100DPPC    C2 4952   4.304   4.499   2.299
  100DPPC    C3 4953   4.223   4.388   2.495
  100DPPC    N4 4954   4.300   4.503   2.445
  100DPPC    C5 4955   4.246   4.627   2.504
  100DPPC    C6 4956   4.104   4.666   2.462
  100DPPC    O7 4957   4.082   4.806   2.480
  100DPPC    P8 4958   3.983   4.862   2.366
  100DPPC    O9 4959   4.039   4.853   2.229
  100DPPC   O10 4960   3.937   4.992   2.421
  100DPPC   O11 4961   3.853   4.768   2.381
  100DPPC   C12 4962   3.761   4.809   2.483
  100DPPC   C13 4963   3.650   4.711   2.521
  100DPPC   O14 4964   3.536   4.774   2.582
  100DPPC   C15 4965   3.465   4.873   2.523
  100DPPC   O16 4966   3.473   4.889   2.401
  100DPPC   C17 4967   3.348   4.910   2.614
  100DPPC   C18 4968   3.220   4.831   2.585
  100DPPC   C19 4969   3.187   4.724   2.689
  100DPPC   C20 4970   3.173   4.787   2.828
  100DPPC   C21 4971   3.122   4.691   2.937
  100DPPC   C22 4972   3.100   4.768   3.067
  100DPPC   C23 4973   3.036   4.664   3.160
  100DPPC   C24 4974   3.031   4.723   3.301
  100DPPC   C25 4975   2.923   4.831   3.300
  100DPPC   C26 4976   2.906   4.904   3.434
  100DPPC   C27 4977   2.861   5.045   3.394
  100DPPC   C28 4978   2.847   5.135   3.517
  100DPPC   C29 4979   2.839   5.279   3.466
  100DPPC   C30 4980   2.829   5.371   3.588
  100DPPC   C31 4981   2.928   5.332   3.698
  100DPPC   C32 4982   3.717   4.585   2.577
  100DPPC   O33 4983   3.810   4.613   2.682
  100DPPC   C34 4984   3.864   4.498   2.731
  100DPPC   O35 4985   3.839   4.389   2.679
  100DPPC   C36 4986   3.983   4.518   2.825
  100DPPC   C37 4987   3.948   4.493   2.972
  100DPPC   C38 4988   4.071   4.512   3.062
  100DPPC   C39 4989   4.037   4.532   3.210
  100DPPC   C40 4990   3.983   4.673   3.235
  100DPPC   C41 4991   3.966   4.681   3.387
  100DPPC   C42 4992   3.926   4.814   3.450
  100DPPC   C43 4993   3.816   4.895   3.380
  100DPPC   C44 4994   3.781   5.023   3.456
  100DPPC   C45 4995   3.725   5.135   3.369
  100DPPC   C46 4996   3.715   5.264   3.450
  100DPPC   C47 4997   3.646   5.371   3.365
  100DPPC   C48 4998   3.630   5.497   3.450
  100DPPC   C49 4999   3.770   5.531   3.504
  100DPPC   C50 5000   3.748   5.672   3.558
  101DPPC    C1 5001   5.732   0.392   2.166
  101DPPC    C2 5002   5.709   0.185   2.258
  101DPPC    C3 5003   5.718   0.377   2.397
  101DPPC    N4 5004   5.659   0.322   2.274
  101DPPC    C5 5005   5.513   0.340   2.264
  101DPPC    C6 5006   5.427   0.261   2.165
  101DPPC    O7 5007   5.290   0.300   2.173
  101DPPC    P8 5008   5.190   0.183   2.126
  101DPPC    O9 5009   5.266   0.087   2.042
  101DPPC   O10 5010   5.072   0.247   2.064
  101DPPC   O11 5011   5.165   0.127   2.274
  101DPPC   C12 5012   5.090   0.222   2.350
  101DPPC   C13 5013   5.059   0.182   2.494
  101DPPC   O14 5014   5.005   0.304   2.547
  101DPPC   C15 5015   4.878   0.306   2.596
  101DPPC   O16 5016   4.796   0.229   2.546
  101DPPC   C17 5017   4.841   0.404   2.707
  101DPPC   C18 5018   4.918   0.354   2.830
  101DPPC   C19 5019   4.898   0.466   2.932
  101DPPC   C20 5020   4.940   0.440   3.077
  101DPPC   C21 5021   4.919   0.556   3.175
  101DPPC   C22 5022   4.773   0.588   3.207
  101DPPC   C23 5023   4.714   0.451   3.240
  101DPPC   C24 5024   4.564   0.460   3.271
  101DPPC   C25 5025   4.501   0.335   3.331
  101DPPC   C26 5026   4.358   0.366   3.378
  101DPPC   C27 5027   4.338   0.268   3.494
  101DPPC   C28 5028   4.379   0.129   3.444
  101DPPC   C29 5029   4.417   0.044   3.566
  101DPPC   C30 5030   4.480  -0.087   3.518
  101DPPC   C31 5031   4.618  -0.077   3.454
  101DPPC   C32 5032   5.182   0.121   2.561
  101DPPC   O33 5033   5.307   0.190   2.572
  101DPPC   C34 5034   5.407   0.114   2.625
  101DPPC   O35 5035   5.409  -0.006   2.597
  101DPPC   C36 5036   5.534   0.186   2.670
  101DPPC   C37 5037   5.518   0.211   2.820
  101DPPC   C38 5038   5.639   0.267   2.896
  101DPPC   C39 5039   5.614   0.275   3.047
  101DPPC   C40 5040   5.722   0.373   3.095
  101DPPC   C41 5041   5.704   0.400   3.244
  101DPPC   C42 5042   5.814   0.479   3.315
  101DPPC   C43 5043   5.798   0.464   3.467
  101DPPC   C44 5044   5.910   0.526   3.550
  101DPPC   C45 5045   5.892   0.511   3.701
  101DPPC   C46 5046   6.011   0.570   3.778
  101DPPC   C47 5047   5.977   0.557   3.926
  101DPPC   C48 5048   6.082   0.624   4.014
  101DPPC   C49 5049   6.054   0.617   4.165
  101DPPC   C50 5050   6.174   0.628   4.259
  102DPPC    C1 5051   2.447   1.224   2.099
  102DPPC    C2 5052   2.553   1.127   2.282
  102DPPC    C3 5053   2.337   1.076   2.259
  102DPPC    N4 5054   2.455   1.099   2.176
  102DPPC    C5 5055   2.503   0.987   2.095
  102DPPC    C6 5056   2.466   0.980   1.946
  102DPPC    O7 5057   2.324   0.984   1.927
  102DPPC    P8 5058   2.281   0.875   1.817
  102DPPC    O9 5059   2.407   0.831   1.754
  102DPPC   O10 5060   2.150   0.907   1.756
  102DPPC   O11 5061   2.251   0.755   1.920
  102DPPC   C12 5062   2.135   0.798   1.993
  102DPPC   C13 5063   2.064   0.700   2.086
  102DPPC   O14 5064   1.939   0.748   2.140
  102DPPC   C15 5065   1.854   0.658   2.197
  102DPPC   O16 5066   1.870   0.538   2.175
  102DPPC   C17 5067   1.739   0.714   2.280
  102DPPC   C18 5068   1.779   0.683   2.424
  102DPPC   C19 5069   1.693   0.738   2.538
  102DPPC   C20 5070   1.748   0.695   2.674
  102DPPC   C21 5071   1.652   0.747   2.782
  102DPPC   C22 5072   1.718   0.743   2.920
  102DPPC   C23 5073   1.635   0.773   3.045
  102DPPC   C24 5074   1.595   0.920   3.045
  102DPPC   C25 5075   1.479   0.959   3.136
  102DPPC   C26 5076   1.482   1.110   3.158
  102DPPC   C27 5077   1.595   1.141   3.256
  102DPPC   C28 5078   1.640   1.283   3.221
  102DPPC   C29 5079   1.526   1.383   3.242
  102DPPC   C30 5080   1.567   1.524   3.201
  102DPPC   C31 5081   1.598   1.526   3.051
  102DPPC   C32 5082   2.168   0.667   2.193
  102DPPC   O33 5083   2.235   0.761   2.278
  102DPPC   C34 5084   2.299   0.696   2.379
  102DPPC   O35 5085   2.318   0.575   2.391
  102DPPC   C36 5086   2.356   0.777   2.495
  102DPPC   C37 5087   2.261   0.783   2.615
  102DPPC   C38 5088   2.256   0.650   2.690
  102DPPC   C39 5089   2.144   0.640   2.794
  102DPPC   C40 5090   2.176   0.754   2.891
  102DPPC   C41 5091   2.093   0.728   3.017
  102DPPC   C42 5092   2.134   0.593   3.078
  102DPPC   C43 5093   2.064   0.562   3.210
  102DPPC   C44 5094   2.134   0.443   3.275
  102DPPC   C45 5095   2.031   0.382   3.370
  102DPPC   C46 5096   2.077   0.262   3.453
  102DPPC   C47 5097   1.978   0.226   3.564
  102DPPC   C48 5098   1.993   0.075   3.587
  102DPPC   C49 5099   1.922   0.035   3.717
  102DPPC   C50 5100   1.772   0.020   3.689
  103DPPC    C1 5101   2.604   7.288   1.511
  103DPPC    C2 5102   2.555   7.084   1.622
  103DPPC    C3 5103   2.771   7.169   1.625
  103DPPC    N4 5104   2.630   7.210   1.633
  103DPPC    C5 5105   2.595   7.276   1.760
  103DPPC    C6 5106   2.670   7.405   1.791
  103DPPC    O7 5107   2.802   7.380   1.840
  103DPPC    P8 5108   2.891   7.513   1.859
  103DPPC    O9 5109   2.888   7.558   1.719
  103DPPC   O10 5110   3.019   7.477   1.923
  103DPPC   O11 5111   2.801   7.582   1.974
  103DPPC   C12 5112   2.848   7.550   2.106
  103DPPC   C13 5113   2.723   7.564   2.193
  103DPPC   O14 5114   2.628   7.459   2.172
  103DPPC   C15 5115   2.671   7.340   2.222
  103DPPC   O16 5116   2.781   7.323   2.275
  103DPPC   C17 5117   2.576   7.224   2.188
  103DPPC   C18 5118   2.585   7.128   2.307
  103DPPC   C19 5119   2.525   7.183   2.437
  103DPPC   C20 5120   2.549   7.078   2.545
  103DPPC   C21 5121   2.499   7.123   2.683
  103DPPC   C22 5122   2.511   7.017   2.793
  103DPPC   C23 5123   2.443   7.079   2.915
  103DPPC   C24 5124   2.407   6.987   3.032
  103DPPC   C25 5125   2.382   7.046   3.171
  103DPPC   C26 5126   2.339   6.954   3.286
  103DPPC   C27 5127   2.312   7.035   3.412
  103DPPC   C28 5128   2.301   6.924   3.517
  103DPPC   C29 5129   2.424   6.833   3.516
  103DPPC   C30 5130   2.419   6.716   3.614
  103DPPC   C31 5131   2.543   6.630   3.639
  103DPPC   C32 5132   2.674   7.708   2.178
  103DPPC   O33 5133   2.774   7.799   2.223
  103DPPC   C34 5134   2.745   7.931   2.211
  103DPPC   O35 5135   2.633   7.965   2.173
  103DPPC   C36 5136   2.847   8.032   2.265
  103DPPC   C37 5137   2.844   8.033   2.418
  103DPPC   C38 5138   2.920   8.146   2.486
  103DPPC   C39 5139   2.897   8.156   2.637
  103DPPC   C40 5140   3.007   8.249   2.687
  103DPPC   C41 5141   3.018   8.242   2.839
  103DPPC   C42 5142   2.886   8.297   2.894
  103DPPC   C43 5143   2.907   8.327   3.042
  103DPPC   C44 5144   2.786   8.368   3.127
  103DPPC   C45 5145   2.816   8.415   3.269
  103DPPC   C46 5146   2.679   8.462   3.318
  103DPPC   C47 5147   2.700   8.548   3.443
  103DPPC   C48 5148   2.560   8.591   3.488
  103DPPC   C49 5149   2.572   8.700   3.595
  103DPPC   C50 5150   2.631   8.640   3.723
  104DPPC    C1 5151   3.942   3.880   1.814
  104DPPC    C2 5152   4.008   3.653   1.814
  104DPPC    C3 5153   4.143   3.809   1.706
  104DPPC    N4 5154   4.058   3.791   1.825
  104DPPC    C5 5155   4.124   3.823   1.952
  104DPPC    C6 5156   4.229   3.733   2.018
  104DPPC    O7 5157   4.335   3.684   1.935
  104DPPC    P8 5158   4.370   3.536   1.989
  104DPPC    O9 5159   4.490   3.489   1.916
  104DPPC   O10 5160   4.242   3.463   1.979
  104DPPC   O11 5161   4.405   3.579   2.140
  104DPPC   C12 5162   4.543   3.601   2.170
  104DPPC   C13 5163   4.560   3.689   2.294
  104DPPC   O14 5164   4.698   3.705   2.330
  104DPPC   C15 5165   4.729   3.813   2.408
  104DPPC   O16 5166   4.676   3.923   2.397
  104DPPC   C17 5167   4.848   3.787   2.501
  104DPPC   C18 5168   4.868   3.648   2.563
  104DPPC   C19 5169   4.977   3.629   2.669
  104DPPC   C20 5170   4.948   3.519   2.771
  104DPPC   C21 5171   5.072   3.504   2.858
  104DPPC   C22 5172   5.024   3.458   2.996
  104DPPC   C23 5173   5.135   3.420   3.094
  104DPPC   C24 5174   5.077   3.378   3.229
  104DPPC   C25 5175   5.177   3.323   3.331
  104DPPC   C26 5176   5.133   3.329   3.478
  104DPPC   C27 5177   5.089   3.469   3.519
  104DPPC   C28 5178   5.034   3.462   3.662
  104DPPC   C29 5179   4.989   3.582   3.746
  104DPPC   C30 5180   4.896   3.541   3.860
  104DPPC   C31 5181   4.884   3.677   3.929
  104DPPC   C32 5182   4.492   3.602   2.400
  104DPPC   O33 5183   4.462   3.666   2.525
  104DPPC   C34 5184   4.369   3.610   2.607
  104DPPC   O35 5185   4.293   3.522   2.566
  104DPPC   C36 5186   4.353   3.688   2.738
  104DPPC   C37 5187   4.484   3.650   2.808
  104DPPC   C38 5188   4.511   3.763   2.909
  104DPPC   C39 5189   4.635   3.737   2.994
  104DPPC   C40 5190   4.623   3.601   3.064
  104DPPC   C41 5191   4.712   3.599   3.188
  104DPPC   C42 5192   4.694   3.717   3.284
  104DPPC   C43 5193   4.773   3.697   3.413
  104DPPC   C44 5194   4.802   3.828   3.487
  104DPPC   C45 5195   4.672   3.894   3.533
  104DPPC   C46 5196   4.679   3.998   3.646
  104DPPC   C47 5197   4.542   4.009   3.714
  104DPPC   C48 5198   4.535   4.095   3.840
  104DPPC   C49 5199   4.526   4.240   3.793
  104DPPC   C50 5200   4.544   4.332   3.914
  105DPPC    C1 5201   4.517   5.067   2.021
  105DPPC    C2 5202   4.526   4.918   1.841
  105DPPC    C3 5203   4.574   5.160   1.807
  105DPPC    N4 5204   4.586   5.042   1.894
  105DPPC    C5 5205   4.731   5.016   1.893
  105DPPC    C6 5206   4.788   4.936   2.010
  105DPPC    O7 5207   4.837   5.016   2.118
  105DPPC    P8 5208   4.917   4.919   2.219
  105DPPC    O9 5209   4.994   5.021   2.293
  105DPPC   O10 5210   4.989   4.824   2.131
  105DPPC   O11 5211   4.798   4.846   2.299
  105DPPC   C12 5212   4.787   4.900   2.431
  105DPPC   C13 5213   4.664   4.861   2.513
  105DPPC   O14 5214   4.616   4.960   2.605
  105DPPC   C15 5215   4.533   5.049   2.545
  105DPPC   O16 5216   4.460   5.006   2.456
  105DPPC   C17 5217   4.505   5.176   2.627
  105DPPC   C18 5218   4.355   5.194   2.649
  105DPPC   C19 5219   4.342   5.309   2.749
  105DPPC   C20 5220   4.387   5.437   2.677
  105DPPC   C21 5221   4.383   5.557   2.772
  105DPPC   C22 5222   4.440   5.676   2.694
  105DPPC   C23 5223   4.419   5.810   2.766
  105DPPC   C24 5224   4.512   5.815   2.887
  105DPPC   C25 5225   4.480   5.938   2.972
  105DPPC   C26 5226   4.346   5.910   3.040
  105DPPC   C27 5227   4.306   6.041   3.110
  105DPPC   C28 5228   4.160   6.021   3.150
  105DPPC   C29 5229   4.091   6.136   3.225
  105DPPC   C30 5230   4.124   6.271   3.161
  105DPPC   C31 5231   4.015   6.364   3.213
  105DPPC   C32 5232   4.687   4.719   2.564
  105DPPC   O33 5233   4.805   4.714   2.645
  105DPPC   C34 5234   4.834   4.595   2.704
  105DPPC   O35 5235   4.767   4.492   2.688
  105DPPC   C36 5236   4.981   4.587   2.745
  105DPPC   C37 5237   4.985   4.557   2.895
  105DPPC   C38 5238   4.940   4.682   2.973
  105DPPC   C39 5239   4.953   4.662   3.124
  105DPPC   C40 5240   4.879   4.770   3.203
  105DPPC   C41 5241   4.902   4.757   3.354
  105DPPC   C42 5242   4.862   4.890   3.417
  105DPPC   C43 5243   4.869   4.893   3.570
  105DPPC   C44 5244   4.804   5.018   3.630
  105DPPC   C45 5245   4.849   5.020   3.776
  105DPPC   C46 5246   4.799   4.900   3.857
  105DPPC   C47 5247   4.866   4.910   3.994
  105DPPC   C48 5248   4.837   4.791   4.085
  105DPPC   C49 5249   4.909   4.806   4.219
  105DPPC   C50 5250   5.061   4.818   4.210
  106DPPC    C1 5251   9.169   0.492   1.433
  106DPPC    C2 5252   9.015   0.384   1.570
  106DPPC    C3 5253   9.165   0.249   1.456
  106DPPC    N4 5254   9.155   0.378   1.526
  106DPPC    C5 5255   9.257   0.388   1.630
  106DPPC    C6 5256   9.408   0.376   1.607
  106DPPC    O7 5257   9.476   0.449   1.710
  106DPPC    P8 5258   9.635   0.426   1.697
  106DPPC    O9 5259   9.668   0.463   1.558
  106DPPC   O10 5260   9.702   0.310   1.760
  106DPPC   O11 5261   9.671   0.556   1.785
  106DPPC   C12 5262   9.659   0.536   1.926
  106DPPC   C13 5263   9.570   0.641   1.992
  106DPPC   O14 5264   9.629   0.697   2.110
  106DPPC   C15 5265   9.661   0.829   2.106
  106DPPC   O16 5266   9.633   0.891   2.004
  106DPPC   C17 5267   9.725   0.896   2.227
  106DPPC   C18 5268   9.655   0.850   2.355
  106DPPC   C19 5269   9.749   0.855   2.476
  106DPPC   C20 5270   9.691   0.806   2.609
  106DPPC   C21 5271   9.800   0.847   2.708
  106DPPC   C22 5272   9.897   0.731   2.728
  106DPPC   C23 5273  10.011   0.786   2.814
  106DPPC   C24 5274  10.104   0.871   2.727
  106DPPC   C25 5275  10.245   0.858   2.786
  106DPPC   C26 5276  10.359   0.911   2.699
  106DPPC   C27 5277  10.498   0.895   2.761
  106DPPC   C28 5278  10.485   0.945   2.905
  106DPPC   C29 5279  10.618   0.938   2.981
  106DPPC   C30 5280  10.591   0.992   3.122
  106DPPC   C31 5281  10.565   1.143   3.117
  106DPPC   C32 5282   9.432   0.575   2.003
  106DPPC   O33 5283   9.434   0.444   2.060
  106DPPC   C34 5284   9.317   0.377   2.038
  106DPPC   O35 5285   9.221   0.440   1.995
  106DPPC   C36 5286   9.310   0.231   2.085
  106DPPC   C37 5287   9.366   0.206   2.225
  106DPPC   C38 5288   9.286   0.280   2.332
  106DPPC   C39 5289   9.360   0.394   2.402
  106DPPC   C40 5290   9.267   0.451   2.510
  106DPPC   C41 5291   9.206   0.345   2.601
  106DPPC   C42 5292   9.106   0.427   2.683
  106DPPC   C43 5293   9.094   0.361   2.820
  106DPPC   C44 5294   9.015   0.444   2.922
  106DPPC   C45 5295   9.005   0.362   3.050
  106DPPC   C46 5296   8.954   0.455   3.160
  106DPPC   C47 5297   8.921   0.394   3.297
  106DPPC   C48 5298   8.806   0.293   3.297
  106DPPC   C49 5299   8.793   0.243   3.441
  106DPPC   C50 5300   8.787   0.364   3.535
  107DPPC    C1 5301   6.209   7.841   2.288
  107DPPC    C2 5302   6.168   7.937   2.084
  107DPPC    C3 5303   6.085   8.051   2.289
  107DPPC    N4 5304   6.192   7.972   2.224
  107DPPC    C5 5305   6.327   8.028   2.213
  107DPPC    C6 5306   6.370   8.117   2.331
  107DPPC    O7 5307   6.299   8.241   2.333
  107DPPC    P8 5308   6.397   8.350   2.266
  107DPPC    O9 5309   6.323   8.387   2.143
  107DPPC   O10 5310   6.533   8.290   2.268
  107DPPC   O11 5311   6.388   8.468   2.374
  107DPPC   C12 5312   6.247   8.482   2.394
  107DPPC   C13 5313   6.192   8.519   2.532
  107DPPC   O14 5314   6.230   8.653   2.568
  107DPPC   C15 5315   6.137   8.748   2.595
  107DPPC   O16 5316   6.032   8.740   2.532
  107DPPC   C17 5317   6.192   8.881   2.648
  107DPPC   C18 5318   6.269   8.866   2.779
  107DPPC   C19 5319   6.187   8.815   2.898
  107DPPC   C20 5320   6.076   8.912   2.940
  107DPPC   C21 5321   6.140   8.999   3.048
  107DPPC   C22 5322   6.059   9.125   3.084
  107DPPC   C23 5323   6.110   9.235   3.177
  107DPPC   C24 5324   6.223   9.310   3.107
  107DPPC   C25 5325   6.287   9.422   3.189
  107DPPC   C26 5326   6.187   9.534   3.219
  107DPPC   C27 5327   6.158   9.610   3.089
  107DPPC   C28 5328   6.051   9.715   3.119
  107DPPC   C29 5329   6.046   9.837   3.028
  107DPPC   C30 5330   5.996   9.792   2.890
  107DPPC   C31 5331   5.982   9.901   2.784
  107DPPC   C32 5332   6.243   8.405   2.621
  107DPPC   O33 5333   6.175   8.398   2.747
  107DPPC   C34 5334   6.041   8.374   2.754
  107DPPC   O35 5335   5.982   8.343   2.651
  107DPPC   C36 5336   5.975   8.401   2.890
  107DPPC   C37 5337   6.078   8.457   2.989
  107DPPC   C38 5338   6.017   8.502   3.122
  107DPPC   C39 5339   6.124   8.575   3.203
  107DPPC   C40 5340   6.070   8.703   3.266
  107DPPC   C41 5341   6.176   8.779   3.346
  107DPPC   C42 5342   6.215   8.691   3.465
  107DPPC   C43 5343   6.108   8.675   3.574
  107DPPC   C44 5344   6.180   8.637   3.703
  107DPPC   C45 5345   6.081   8.609   3.816
  107DPPC   C46 5346   6.166   8.576   3.940
  107DPPC   C47 5347   6.070   8.586   4.058
  107DPPC   C48 5348   5.994   8.719   4.055
  107DPPC   C49 5349   5.846   8.694   4.081
  107DPPC   C50 5350   5.756   8.815   4.059
  108DPPC    C1 5351   7.190   0.518   1.442
  108DPPC    C2 5352   7.038   0.705   1.467
  108DPPC    C3 5353   7.046   0.580   1.267
  108DPPC    N4 5354   7.055   0.569   1.413
  108DPPC    C5 5355   6.939   0.487   1.448
  108DPPC    C6 5356   6.957   0.379   1.555
  108DPPC    O7 5357   6.942   0.429   1.688
  108DPPC    P8 5358   6.959   0.299   1.781
  108DPPC    O9 5359   7.103   0.267   1.779
  108DPPC   O10 5360   6.854   0.207   1.733
  108DPPC   O11 5361   6.907   0.369   1.916
  108DPPC   C12 5362   7.009   0.451   1.973
  108DPPC   C13 5363   6.964   0.542   2.087
  108DPPC   O14 5364   7.043   0.660   2.108
  108DPPC   C15 5365   6.962   0.769   2.110
  108DPPC   O16 5366   6.849   0.762   2.061
  108DPPC   C17 5367   7.012   0.900   2.170
  108DPPC   C18 5368   6.982   0.918   2.319
  108DPPC   C19 5369   6.999   1.067   2.353
  108DPPC   C20 5370   6.933   1.104   2.485
  108DPPC   C21 5371   7.039   1.055   2.584
  108DPPC   C22 5372   6.999   1.080   2.730
  108DPPC   C23 5373   6.872   1.012   2.783
  108DPPC   C24 5374   6.898   0.927   2.908
  108DPPC   C25 5375   6.964   1.031   3.000
  108DPPC   C26 5376   7.026   0.963   3.121
  108DPPC   C27 5377   6.931   0.880   3.208
  108DPPC   C28 5378   6.985   0.838   3.345
  108DPPC   C29 5379   6.891   0.737   3.411
  108DPPC   C30 5380   6.951   0.727   3.552
  108DPPC   C31 5381   6.872   0.648   3.656
  108DPPC   C32 5382   6.977   0.438   2.198
  108DPPC   O33 5383   6.944   0.468   2.334
  108DPPC   C34 5384   6.957   0.359   2.414
  108DPPC   O35 5385   7.016   0.257   2.380
  108DPPC   C36 5386   6.954   0.384   2.565
  108DPPC   C37 5387   6.914   0.260   2.645
  108DPPC   C38 5388   6.936   0.292   2.793
  108DPPC   C39 5389   6.898   0.170   2.877
  108DPPC   C40 5390   6.986   0.047   2.851
  108DPPC   C41 5391   6.935  -0.079   2.921
  108DPPC   C42 5392   6.938  -0.054   3.072
  108DPPC   C43 5393   6.880  -0.171   3.153
  108DPPC   C44 5394   6.915  -0.169   3.302
  108DPPC   C45 5395   6.868  -0.298   3.370
  108DPPC   C46 5396   6.911  -0.299   3.517
  108DPPC   C47 5397   6.829  -0.201   3.601
  108DPPC   C48 5398   6.870  -0.203   3.749
  108DPPC   C49 5399   7.016  -0.179   3.789
  108DPPC   C50 5400   7.028  -0.100   3.920
  109DPPC    C1 5401   9.377   5.989   0.700
  109DPPC    C2 5402   9.424   5.977   0.928
  109DPPC    C3 5403   9.497   6.161   0.795
  109DPPC    N4 5404   9.384   6.071   0.822
  109DPPC    C5 5405   9.254   6.138   0.837
  109DPPC    C6 5406   9.211   6.165   0.981
  109DPPC    O7 5407   9.139   6.053   1.032
  109DPPC    P8 5408   9.030   6.090   1.144
  109DPPC    O9 5409   8.933   5.981   1.122
  109DPPC   O10 5410   8.994   6.234   1.135
  109DPPC   O11 5411   9.122   6.079   1.275
  109DPPC   C12 5412   9.105   5.948   1.329
  109DPPC   C13 5413   9.218   5.894   1.417
  109DPPC   O14 5414   9.194   5.764   1.473
  109DPPC   C15 5415   9.297   5.692   1.526
  109DPPC   O16 5416   9.414   5.720   1.498
  109DPPC   C17 5417   9.257   5.557   1.585
  109DPPC   C18 5418   9.183   5.579   1.717
  109DPPC   C19 5419   9.269   5.661   1.813
  109DPPC   C20 5420   9.210   5.630   1.951
  109DPPC   C21 5421   9.281   5.690   2.072
  109DPPC   C22 5422   9.207   5.671   2.204
  109DPPC   C23 5423   9.274   5.754   2.314
  109DPPC   C24 5424   9.212   5.729   2.452
  109DPPC   C25 5425   9.284   5.792   2.571
  109DPPC   C26 5426   9.193   5.802   2.694
  109DPPC   C27 5427   9.259   5.826   2.830
  109DPPC   C28 5428   9.142   5.801   2.924
  109DPPC   C29 5429   9.183   5.805   3.072
  109DPPC   C30 5430   9.059   5.793   3.160
  109DPPC   C31 5431   9.101   5.811   3.306
  109DPPC   C32 5432   9.248   6.006   1.517
  109DPPC   O33 5433   9.154   6.023   1.624
  109DPPC   C34 5434   9.148   6.149   1.677
  109DPPC   O35 5435   9.234   6.231   1.645
  109DPPC   C36 5436   9.066   6.153   1.806
  109DPPC   C37 5437   9.156   6.133   1.928
  109DPPC   C38 5438   9.098   6.183   2.060
  109DPPC   C39 5439   9.205   6.185   2.170
  109DPPC   C40 5440   9.145   6.227   2.305
  109DPPC   C41 5441   9.260   6.225   2.406
  109DPPC   C42 5442   9.188   6.256   2.537
  109DPPC   C43 5443   9.284   6.273   2.655
  109DPPC   C44 5444   9.380   6.154   2.666
  109DPPC   C45 5445   9.464   6.183   2.790
  109DPPC   C46 5446   9.566   6.073   2.818
  109DPPC   C47 5447   9.657   6.114   2.934
  109DPPC   C48 5448   9.768   6.010   2.950
  109DPPC   C49 5449   9.840   6.029   3.083
  109DPPC   C50 5450   9.935   5.910   3.068
  110DPPC    C1 5451   1.394   3.395   1.187
  110DPPC    C2 5452   1.607   3.313   1.297
  110DPPC    C3 5453   1.610   3.486   1.137
  110DPPC    N4 5454   1.527   3.423   1.241
  110DPPC    C5 5455   1.512   3.529   1.342
  110DPPC    C6 5456   1.421   3.499   1.461
  110DPPC    O7 5457   1.382   3.610   1.542
  110DPPC    P8 5458   1.245   3.683   1.499
  110DPPC    O9 5459   1.185   3.594   1.397
  110DPPC   O10 5460   1.262   3.828   1.476
  110DPPC   O11 5461   1.184   3.670   1.648
  110DPPC   C12 5462   1.119   3.543   1.657
  110DPPC   C13 5463   1.180   3.440   1.753
  110DPPC   O14 5464   1.105   3.318   1.764
  110DPPC   C15 5465   1.174   3.204   1.790
  110DPPC   O16 5466   1.284   3.176   1.742
  110DPPC   C17 5467   1.080   3.097   1.846
  110DPPC   C18 5468   1.092   3.118   1.997
  110DPPC   C19 5469   1.007   3.015   2.071
  110DPPC   C20 5470   1.023   3.039   2.221
  110DPPC   C21 5471   0.920   2.956   2.299
  110DPPC   C22 5472   0.918   3.001   2.445
  110DPPC   C23 5473   0.819   2.915   2.523
  110DPPC   C24 5474   0.681   2.918   2.457
  110DPPC   C25 5475   0.586   2.861   2.563
  110DPPC   C26 5476   0.613   2.947   2.686
  110DPPC   C27 5477   0.522   2.914   2.805
  110DPPC   C28 5478   0.539   3.020   2.914
  110DPPC   C29 5479   0.678   3.000   2.974
  110DPPC   C30 5480   0.722   3.093   3.088
  110DPPC   C31 5481   0.647   3.077   3.220
  110DPPC   C32 5482   1.215   3.512   1.883
  110DPPC   O33 5483   1.293   3.435   1.975
  110DPPC   C34 5484   1.307   3.498   2.095
  110DPPC   O35 5485   1.300   3.620   2.108
  110DPPC   C36 5486   1.376   3.420   2.207
  110DPPC   C37 5487   1.269   3.358   2.297
  110DPPC   C38 5488   1.334   3.274   2.408
  110DPPC   C39 5489   1.237   3.207   2.505
  110DPPC   C40 5490   1.295   3.144   2.631
  110DPPC   C41 5491   1.186   3.061   2.697
  110DPPC   C42 5492   1.254   2.980   2.808
  110DPPC   C43 5493   1.153   2.915   2.903
  110DPPC   C44 5494   1.240   2.854   3.014
  110DPPC   C45 5495   1.167   2.811   3.141
  110DPPC   C46 5496   1.120   2.934   3.218
  110DPPC   C47 5497   1.038   2.921   3.346
  110DPPC   C48 5498   1.009   3.062   3.398
  110DPPC   C49 5499   0.924   3.028   3.521
  110DPPC   C50 5500   0.845   3.156   3.549
  111DPPC    C1 5501   1.740   1.017   1.912
  111DPPC    C2 5502   1.766   1.079   1.680
  111DPPC    C3 5503   1.754   0.858   1.732
  111DPPC    N4 5504   1.699   0.987   1.774
  111DPPC    C5 5505   1.553   0.987   1.753
  111DPPC    C6 5506   1.462   0.871   1.794
  111DPPC    O7 5507   1.488   0.829   1.928
  111DPPC    P8 5508   1.390   0.704   1.954
  111DPPC    O9 5509   1.477   0.602   2.015
  111DPPC   O10 5510   1.325   0.659   1.828
  111DPPC   O11 5511   1.297   0.781   2.061
  111DPPC   C12 5512   1.383   0.795   2.174
  111DPPC   C13 5513   1.301   0.805   2.303
  111DPPC   O14 5514   1.369   0.872   2.410
  111DPPC   C15 5515   1.297   0.932   2.508
  111DPPC   O16 5516   1.175   0.922   2.500
  111DPPC   C17 5517   1.370   0.981   2.633
  111DPPC   C18 5518   1.427   1.116   2.590
  111DPPC   C19 5519   1.495   1.172   2.715
  111DPPC   C20 5520   1.541   1.316   2.692
  111DPPC   C21 5521   1.438   1.414   2.636
  111DPPC   C22 5522   1.504   1.551   2.624
  111DPPC   C23 5523   1.397   1.653   2.663
  111DPPC   C24 5524   1.322   1.633   2.795
  111DPPC   C25 5525   1.196   1.719   2.788
  111DPPC   C26 5526   1.107   1.708   2.912
  111DPPC   C27 5527   1.008   1.825   2.910
  111DPPC   C28 5528   0.960   1.838   3.055
  111DPPC   C29 5529   0.877   1.966   3.067
  111DPPC   C30 5530   0.822   1.991   3.208
  111DPPC   C31 5531   0.752   1.868   3.265
  111DPPC   C32 5532   1.232   0.669   2.311
  111DPPC   O33 5533   1.319   0.567   2.361
  111DPPC   C34 5534   1.298   0.434   2.340
  111DPPC   O35 5535   1.227   0.405   2.244
  111DPPC   C36 5536   1.365   0.325   2.424
  111DPPC   C37 5537   1.424   0.377   2.556
  111DPPC   C38 5538   1.316   0.443   2.641
  111DPPC   C39 5539   1.363   0.484   2.781
  111DPPC   C40 5540   1.250   0.560   2.852
  111DPPC   C41 5541   1.289   0.609   2.991
  111DPPC   C42 5542   1.313   0.492   3.087
  111DPPC   C43 5543   1.337   0.552   3.226
  111DPPC   C44 5544   1.219   0.617   3.298
  111DPPC   C45 5545   1.264   0.654   3.440
  111DPPC   C46 5546   1.304   0.801   3.449
  111DPPC   C47 5547   1.326   0.847   3.593
  111DPPC   C48 5548   1.348   0.998   3.585
  111DPPC   C49 5549   1.228   1.046   3.502
  111DPPC   C50 5550   1.209   1.196   3.521
  112DPPC    C1 5551   4.942   8.000   2.027
  112DPPC    C2 5552   5.115   8.013   2.182
  112DPPC    C3 5553   4.902   8.020   2.269
  112DPPC    N4 5554   4.981   7.956   2.162
  112DPPC    C5 5555   4.995   7.810   2.169
  112DPPC    C6 5556   4.878   7.711   2.162
  112DPPC    O7 5557   4.772   7.727   2.256
  112DPPC    P8 5558   4.668   7.605   2.249
  112DPPC    O9 5559   4.658   7.551   2.112
  112DPPC   O10 5560   4.547   7.642   2.327
  112DPPC   O11 5561   4.753   7.492   2.326
  112DPPC   C12 5562   4.689   7.470   2.451
  112DPPC   C13 5563   4.761   7.377   2.549
  112DPPC   O14 5564   4.680   7.306   2.644
  112DPPC   C15 5565   4.643   7.185   2.596
  112DPPC   O16 5566   4.665   7.147   2.480
  112DPPC   C17 5567   4.596   7.087   2.703
  112DPPC   C18 5568   4.676   7.096   2.833
  112DPPC   C19 5569   4.627   7.009   2.949
  112DPPC   C20 5570   4.620   6.863   2.905
  112DPPC   C21 5571   4.588   6.785   3.033
  112DPPC   C22 5572   4.448   6.804   3.093
  112DPPC   C23 5573   4.418   6.689   3.190
  112DPPC   C24 5574   4.291   6.725   3.268
  112DPPC   C25 5575   4.171   6.760   3.179
  112DPPC   C26 5576   4.044   6.771   3.264
  112DPPC   C27 5577   3.940   6.842   3.176
  112DPPC   C28 5578   3.831   6.882   3.276
  112DPPC   C29 5579   3.736   6.986   3.217
  112DPPC   C30 5580   3.627   7.034   3.313
  112DPPC   C31 5581   3.514   7.127   3.268
  112DPPC   C32 5582   4.871   7.468   2.604
  112DPPC   O33 5583   4.983   7.404   2.667
  112DPPC   C34 5584   5.096   7.462   2.715
  112DPPC   O35 5585   5.131   7.576   2.688
  112DPPC   C36 5586   5.186   7.369   2.797
  112DPPC   C37 5587   5.231   7.439   2.926
  112DPPC   C38 5588   5.321   7.352   3.014
  112DPPC   C39 5589   5.343   7.428   3.145
  112DPPC   C40 5590   5.426   7.348   3.245
  112DPPC   C41 5591   5.554   7.282   3.194
  112DPPC   C42 5592   5.665   7.387   3.183
  112DPPC   C43 5593   5.762   7.364   3.299
  112DPPC   C44 5594   5.865   7.477   3.291
  112DPPC   C45 5595   5.935   7.476   3.427
  112DPPC   C46 5596   5.996   7.615   3.451
  112DPPC   C47 5597   6.044   7.624   3.596
  112DPPC   C48 5598   5.919   7.613   3.683
  112DPPC   C49 5599   5.968   7.601   3.827
  112DPPC   C50 5600   5.858   7.643   3.924
  113DPPC    C1 5601   0.984   1.497   1.774
  113DPPC    C2 5602   1.046   1.538   1.995
  113DPPC    C3 5603   0.842   1.451   1.949
  113DPPC    N4 5604   0.983   1.438   1.909
  113DPPC    C5 5605   1.032   1.300   1.922
  113DPPC    C6 5606   1.163   1.268   1.849
  113DPPC    O7 5607   1.272   1.349   1.894
  113DPPC    P8 5608   1.413   1.301   1.834
  113DPPC    O9 5609   1.526   1.397   1.836
  113DPPC   O10 5610   1.388   1.225   1.709
  113DPPC   O11 5611   1.433   1.202   1.960
  113DPPC   C12 5612   1.474   1.294   2.061
  113DPPC   C13 5613   1.479   1.234   2.201
  113DPPC   O14 5614   1.585   1.142   2.232
  113DPPC   C15 5615   1.710   1.189   2.257
  113DPPC   O16 5616   1.730   1.304   2.218
  113DPPC   C17 5617   1.809   1.079   2.295
  113DPPC   C18 5618   1.921   1.121   2.391
  113DPPC   C19 5619   1.860   1.127   2.531
  113DPPC   C20 5620   1.972   1.165   2.628
  113DPPC   C21 5621   1.920   1.163   2.771
  113DPPC   C22 5622   2.035   1.170   2.871
  113DPPC   C23 5623   1.979   1.169   3.013
  113DPPC   C24 5624   2.092   1.165   3.117
  113DPPC   C25 5625   2.039   1.152   3.260
  113DPPC   C26 5626   2.131   1.069   3.350
  113DPPC   C27 5627   2.061   1.053   3.485
  113DPPC   C28 5628   1.919   1.000   3.465
  113DPPC   C29 5629   1.903   0.853   3.423
  113DPPC   C30 5630   1.757   0.815   3.450
  113DPPC   C31 5631   1.742   0.665   3.424
  113DPPC   C32 5632   1.345   1.168   2.238
  113DPPC   O33 5633   1.246   1.263   2.277
  113DPPC   C34 5634   1.131   1.195   2.305
  113DPPC   O35 5635   1.099   1.097   2.237
  113DPPC   C36 5636   1.027   1.287   2.368
  113DPPC   C37 5637   0.963   1.224   2.491
  113DPPC   C38 5638   0.850   1.316   2.539
  113DPPC   C39 5639   0.810   1.273   2.680
  113DPPC   C40 5640   0.719   1.380   2.740
  113DPPC   C41 5641   0.650   1.341   2.871
  113DPPC   C42 5642   0.760   1.289   2.965
  113DPPC   C43 5643   0.709   1.290   3.110
  113DPPC   C44 5644   0.581   1.210   3.132
  113DPPC   C45 5645   0.608   1.065   3.173
  113DPPC   C46 5646   0.481   0.987   3.205
  113DPPC   C47 5647   0.521   0.842   3.237
  113DPPC   C48 5648   0.395   0.757   3.254
  113DPPC   C49 5649   0.433   0.614   3.294
  113DPPC   C50 5650   0.297   0.543   3.290
  114DPPC    C1 5651   1.166   3.901   1.998
  114DPPC    C2 5652   1.261   3.966   1.783
  114DPPC    C3 5653   1.207   4.126   1.947
  114DPPC    N4 5654   1.260   3.990   1.928
  114DPPC    C5 5655   1.385   3.967   2.002
  114DPPC    C6 5656   1.517   4.032   1.959
  114DPPC    O7 5657   1.626   3.981   2.036
  114DPPC    P8 5658   1.759   4.049   1.974
  114DPPC    O9 5659   1.723   4.096   1.839
  114DPPC   O10 5660   1.873   3.954   1.982
  114DPPC   O11 5661   1.765   4.167   2.083
  114DPPC   C12 5662   1.804   4.098   2.202
  114DPPC   C13 5663   1.745   4.166   2.325
  114DPPC   O14 5664   1.794   4.106   2.446
  114DPPC   C15 5665   1.908   4.154   2.503
  114DPPC   O16 5666   1.990   4.208   2.429
  114DPPC   C17 5667   1.957   4.091   2.633
  114DPPC   C18 5668   2.042   3.966   2.608
  114DPPC   C19 5669   2.167   3.972   2.696
  114DPPC   C20 5670   2.255   3.848   2.692
  114DPPC   C21 5671   2.354   3.834   2.808
  114DPPC   C22 5672   2.277   3.852   2.939
  114DPPC   C23 5673   2.377   3.887   3.049
  114DPPC   C24 5674   2.299   3.974   3.148
  114DPPC   C25 5675   2.399   4.050   3.235
  114DPPC   C26 5676   2.349   4.127   3.357
  114DPPC   C27 5677   2.459   4.210   3.423
  114DPPC   C28 5678   2.408   4.285   3.546
  114DPPC   C29 5679   2.522   4.359   3.616
  114DPPC   C30 5680   2.599   4.454   3.524
  114DPPC   C31 5681   2.709   4.506   3.616
  114DPPC   C32 5682   1.597   4.138   2.301
  114DPPC   O33 5683   1.505   4.237   2.350
  114DPPC   C34 5684   1.377   4.192   2.355
  114DPPC   O35 5685   1.338   4.123   2.260
  114DPPC   C36 5686   1.275   4.262   2.445
  114DPPC   C37 5687   1.217   4.165   2.549
  114DPPC   C38 5688   1.126   4.238   2.648
  114DPPC   C39 5689   1.068   4.126   2.734
  114DPPC   C40 5690   1.170   4.069   2.833
  114DPPC   C41 5691   1.108   3.966   2.928
  114DPPC   C42 5692   0.995   4.018   3.017
  114DPPC   C43 5693   1.054   4.115   3.120
  114DPPC   C44 5694   0.946   4.192   3.197
  114DPPC   C45 5695   1.011   4.319   3.253
  114DPPC   C46 5696   0.921   4.406   3.340
  114DPPC   C47 5697   0.845   4.501   3.248
  114DPPC   C48 5698   0.692   4.488   3.245
  114DPPC   C49 5699   0.619   4.587   3.154
  114DPPC   C50 5700   0.471   4.548   3.153
  115DPPC    C1 5701   4.051   3.127   2.342
  115DPPC    C2 5702   3.952   3.267   2.181
  115DPPC    C3 5703   3.844   3.239   2.389
  115DPPC    N4 5704   3.976   3.252   2.325
  115DPPC    C5 5705   4.060   3.357   2.384
  115DPPC    C6 5706   4.047   3.498   2.326
  115DPPC    O7 5707   3.927   3.565   2.365
  115DPPC    P8 5708   3.918   3.712   2.301
  115DPPC    O9 5709   3.813   3.677   2.203
  115DPPC   O10 5710   4.063   3.731   2.278
  115DPPC   O11 5711   3.859   3.789   2.429
  115DPPC   C12 5712   3.979   3.810   2.503
  115DPPC   C13 5713   3.974   3.905   2.623
  115DPPC   O14 5714   4.099   3.918   2.693
  115DPPC   C15 5715   4.151   4.043   2.704
  115DPPC   O16 5716   4.103   4.134   2.636
  115DPPC   C17 5717   4.272   4.059   2.796
  115DPPC   C18 5718   4.311   4.207   2.807
  115DPPC   C19 5719   4.454   4.214   2.859
  115DPPC   C20 5720   4.492   4.356   2.899
  115DPPC   C21 5721   4.629   4.368   2.966
  115DPPC   C22 5722   4.629   4.284   3.094
  115DPPC   C23 5723   4.774   4.251   3.131
  115DPPC   C24 5724   4.794   4.238   3.282
  115DPPC   C25 5725   4.934   4.187   3.316
  115DPPC   C26 5726   4.949   4.183   3.468
  115DPPC   C27 5727   5.095   4.163   3.509
  115DPPC   C28 5728   5.118   4.156   3.660
  115DPPC   C29 5729   5.059   4.029   3.721
  115DPPC   C30 5730   5.058   4.035   3.874
  115DPPC   C31 5731   4.934   4.115   3.914
  115DPPC   C32 5732   3.848   3.853   2.692
  115DPPC   O33 5733   3.805   3.930   2.804
  115DPPC   C34 5734   3.749   4.052   2.786
  115DPPC   O35 5735   3.728   4.111   2.680
  115DPPC   C36 5736   3.724   4.123   2.920
  115DPPC   C37 5737   3.832   4.108   3.028
  115DPPC   C38 5738   3.835   3.975   3.103
  115DPPC   C39 5739   3.928   3.996   3.222
  115DPPC   C40 5740   4.063   4.043   3.166
  115DPPC   C41 5741   4.163   4.064   3.280
  115DPPC   C42 5742   4.129   4.187   3.364
  115DPPC   C43 5743   4.213   4.165   3.490
  115DPPC   C44 5744   4.184   4.279   3.588
  115DPPC   C45 5745   4.033   4.293   3.606
  115DPPC   C46 5746   4.001   4.411   3.698
  115DPPC   C47 5747   3.851   4.425   3.721
  115DPPC   C48 5748   3.789   4.546   3.792
  115DPPC   C49 5749   3.638   4.521   3.807
  115DPPC   C50 5750   3.563   4.626   3.888
  116DPPC    C1 5751   6.795   8.431   2.391
  116DPPC    C2 5752   7.017   8.408   2.452
  116DPPC    C3 5753   6.849   8.263   2.534
  116DPPC    N4 5754   6.899   8.329   2.412
  116DPPC    C5 5755   6.927   8.245   2.295
  116DPPC    C6 5756   6.820   8.139   2.269
  116DPPC    O7 5757   6.835   8.019   2.345
  116DPPC    P8 5758   6.715   7.916   2.314
  116DPPC    O9 5759   6.757   7.774   2.318
  116DPPC   O10 5760   6.643   7.970   2.197
  116DPPC   O11 5761   6.630   7.950   2.446
  116DPPC   C12 5762   6.625   7.840   2.538
  116DPPC   C13 5763   6.531   7.863   2.656
  116DPPC   O14 5764   6.395   7.872   2.611
  116DPPC   C15 5765   6.279   7.892   2.678
  116DPPC   O16 5766   6.170   7.887   2.622
  116DPPC   C17 5767   6.294   7.867   2.828
  116DPPC   C18 5768   6.255   7.981   2.923
  116DPPC   C19 5769   6.304   7.938   3.061
  116DPPC   C20 5770   6.272   8.054   3.156
  116DPPC   C21 5771   6.375   8.163   3.127
  116DPPC   C22 5772   6.343   8.283   3.217
  116DPPC   C23 5773   6.334   8.236   3.362
  116DPPC   C24 5774   6.350   8.352   3.461
  116DPPC   C25 5775   6.378   8.316   3.607
  116DPPC   C26 5776   6.269   8.232   3.674
  116DPPC   C27 5777   6.314   8.182   3.811
  116DPPC   C28 5778   6.229   8.062   3.856
  116DPPC   C29 5779   6.262   8.001   3.992
  116DPPC   C30 5780   6.163   7.894   4.037
  116DPPC   C31 5781   6.023   7.949   4.068
  116DPPC   C32 5782   6.585   7.987   2.728
  116DPPC   O33 5783   6.702   7.943   2.797
  116DPPC   C34 5784   6.751   8.044   2.874
  116DPPC   O35 5785   6.681   8.142   2.896
  116DPPC   C36 5786   6.875   8.009   2.957
  116DPPC   C37 5787   6.999   7.982   2.871
  116DPPC   C38 5788   7.118   7.956   2.964
  116DPPC   C39 5789   7.142   8.057   3.076
  116DPPC   C40 5790   7.245   8.018   3.181
  116DPPC   C41 5791   7.374   7.969   3.113
  116DPPC   C42 5792   7.463   8.086   3.069
  116DPPC   C43 5793   7.540   8.162   3.176
  116DPPC   C44 5794   7.677   8.098   3.201
  116DPPC   C45 5795   7.746   8.158   3.324
  116DPPC   C46 5796   7.772   8.307   3.300
  116DPPC   C47 5797   7.874   8.357   3.403
  116DPPC   C48 5798   7.808   8.401   3.534
  116DPPC   C49 5799   7.894   8.503   3.609
  116DPPC   C50 5800   8.028   8.444   3.654
  117DPPC    C1 5801   5.729   4.494   2.121
  117DPPC    C2 5802   5.868   4.533   1.951
  117DPPC    C3 5803   5.915   4.589   2.184
  117DPPC    N4 5804   5.872   4.485   2.090
  117DPPC    C5 5805   5.908   4.344   2.112
  117DPPC    C6 5806   6.035   4.294   2.042
  117DPPC    O7 5807   6.052   4.153   2.054
  117DPPC    P8 5808   6.180   4.115   1.964
  117DPPC    O9 5809   6.167   4.188   1.835
  117DPPC   O10 5810   6.241   3.981   1.972
  117DPPC   O11 5811   6.289   4.202   2.043
  117DPPC   C12 5812   6.342   4.137   2.159
  117DPPC   C13 5813   6.449   4.222   2.229
  117DPPC   O14 5814   6.545   4.149   2.306
  117DPPC   C15 5815   6.643   4.074   2.248
  117DPPC   O16 5816   6.653   4.072   2.126
  117DPPC   C17 5817   6.738   3.991   2.335
  117DPPC   C18 5818   6.697   3.995   2.482
  117DPPC   C19 5819   6.816   3.949   2.566
  117DPPC   C20 5820   6.818   3.983   2.716
  117DPPC   C21 5821   6.883   3.875   2.803
  117DPPC   C22 5822   6.829   3.738   2.765
  117DPPC   C23 5823   6.895   3.625   2.844
  117DPPC   C24 5824   6.876   3.651   2.994
  117DPPC   C25 5825   6.922   3.526   3.068
  117DPPC   C26 5826   6.838   3.405   3.025
  117DPPC   C27 5827   6.751   3.349   3.138
  117DPPC   C28 5828   6.672   3.226   3.093
  117DPPC   C29 5829   6.599   3.172   3.216
  117DPPC   C30 5830   6.478   3.083   3.189
  117DPPC   C31 5831   6.404   3.036   3.314
  117DPPC   C32 5832   6.377   4.338   2.299
  117DPPC   O33 5833   6.281   4.296   2.397
  117DPPC   C34 5834   6.205   4.403   2.435
  117DPPC   O35 5835   6.198   4.496   2.354
  117DPPC   C36 5836   6.106   4.370   2.546
  117DPPC   C37 5837   5.976   4.318   2.485
  117DPPC   C38 5838   5.873   4.301   2.597
  117DPPC   C39 5839   5.869   4.431   2.678
  117DPPC   C40 5840   5.744   4.514   2.652
  117DPPC   C41 5841   5.747   4.626   2.756
  117DPPC   C42 5842   5.752   4.560   2.894
  117DPPC   C43 5843   5.710   4.666   2.997
  117DPPC   C44 5844   5.742   4.618   3.139
  117DPPC   C45 5845   5.733   4.724   3.249
  117DPPC   C46 5846   5.760   4.652   3.381
  117DPPC   C47 5847   5.707   4.749   3.488
  117DPPC   C48 5848   5.755   4.706   3.626
  117DPPC   C49 5849   5.723   4.557   3.626
  117DPPC   C50 5850   5.768   4.503   3.762
  118DPPC    C1 5851   4.689   0.085   1.796
  118DPPC    C2 5852   4.916   0.035   1.823
  118DPPC    C3 5853   4.816   0.265   1.881
  118DPPC    N4 5854   4.807   0.118   1.877
  118DPPC    C5 5855   4.795   0.087   2.020
  118DPPC    C6 5856   4.771  -0.058   2.063
  118DPPC    O7 5857   4.629  -0.077   2.063
  118DPPC    P8 5858   4.599  -0.229   2.107
  118DPPC    O9 5859   4.668  -0.307   2.002
  118DPPC   O10 5860   4.454  -0.245   2.134
  118DPPC   O11 5861   4.680  -0.218   2.245
  118DPPC   C12 5862   4.580  -0.209   2.347
  118DPPC   C13 5863   4.627  -0.194   2.492
  118DPPC   O14 5864   4.643  -0.319   2.560
  118DPPC   C15 5865   4.767  -0.331   2.615
  118DPPC   O16 5866   4.840  -0.232   2.619
  118DPPC   C17 5867   4.799  -0.457   2.696
  118DPPC   C18 5868   4.810  -0.590   2.621
  118DPPC   C19 5869   4.900  -0.680   2.706
  118DPPC   C20 5870   4.833  -0.712   2.840
  118DPPC   C21 5871   4.785  -0.855   2.865
  118DPPC   C22 5872   4.697  -0.876   2.988
  118DPPC   C23 5873   4.620  -1.007   3.006
  118DPPC   C24 5874   4.539  -1.015   3.136
  118DPPC   C25 5875   4.453  -1.140   3.124
  118DPPC   C26 5876   4.347  -1.169   3.230
  118DPPC   C27 5877   4.265  -1.295   3.204
  118DPPC   C28 5878   4.178  -1.330   3.324
  118DPPC   C29 5879   4.254  -1.330   3.457
  118DPPC   C30 5880   4.160  -1.335   3.578
  118DPPC   C31 5881   4.064  -1.452   3.555
  118DPPC   C32 5882   4.530  -0.094   2.555
  118DPPC   O33 5883   4.399  -0.149   2.575
  118DPPC   C34 5884   4.311  -0.051   2.609
  118DPPC   O35 5885   4.341   0.064   2.641
  118DPPC   C36 5886   4.169  -0.101   2.636
  118DPPC   C37 5887   4.185  -0.210   2.742
  118DPPC   C38 5888   4.047  -0.262   2.783
  118DPPC   C39 5889   4.063  -0.369   2.891
  118DPPC   C40 5890   3.920  -0.405   2.931
  118DPPC   C41 5891   3.902  -0.518   3.033
  118DPPC   C42 5892   3.756  -0.515   3.077
  118DPPC   C43 5893   3.719  -0.637   3.161
  118DPPC   C44 5894   3.567  -0.638   3.172
  118DPPC   C45 5895   3.529  -0.754   3.264
  118DPPC   C46 5896   3.376  -0.764   3.264
  118DPPC   C47 5897   3.343  -0.884   3.354
  118DPPC   C48 5898   3.325  -0.835   3.497
  118DPPC   C49 5899   3.215  -0.729   3.511
  118DPPC   C50 5900   3.090  -0.790   3.447
  119DPPC    C1 5901   0.442   6.210   0.820
  119DPPC    C2 5902   0.556   6.115   1.019
  119DPPC    C3 5903   0.619   6.325   0.927
  119DPPC    N4 5904   0.506   6.234   0.950
  119DPPC    C5 5905   0.413   6.300   1.043
  119DPPC    C6 5906   0.270   6.248   1.056
  119DPPC    O7 5907   0.209   6.296   1.176
  119DPPC    P8 5908   0.083   6.199   1.203
  119DPPC    O9 5909   0.129   6.060   1.183
  119DPPC   O10 5910  -0.023   6.266   1.125
  119DPPC   O11 5911   0.063   6.212   1.362
  119DPPC   C12 5912   0.163   6.122   1.410
  119DPPC   C13 5913   0.209   6.155   1.552
  119DPPC   O14 5914   0.123   6.126   1.664
  119DPPC   C15 5915   0.149   6.003   1.715
  119DPPC   O16 5916   0.248   5.943   1.674
  119DPPC   C17 5917   0.052   5.938   1.814
  119DPPC   C18 5918   0.080   5.976   1.960
  119DPPC   C19 5919   0.030   6.111   2.011
  119DPPC   C20 5920   0.114   6.126   2.138
  119DPPC   C21 5921   0.084   6.264   2.197
  119DPPC   C22 5922   0.167   6.270   2.325
  119DPPC   C23 5923   0.125   6.383   2.419
  119DPPC   C24 5924   0.183   6.363   2.559
  119DPPC   C25 5925   0.335   6.376   2.559
  119DPPC   C26 5926   0.378   6.370   2.705
  119DPPC   C27 5927   0.527   6.364   2.739
  119DPPC   C28 5928   0.620   6.457   2.660
  119DPPC   C29 5929   0.752   6.460   2.736
  119DPPC   C30 5930   0.728   6.501   2.882
  119DPPC   C31 5931   0.854   6.480   2.966
  119DPPC   C32 5932   0.256   6.300   1.538
  119DPPC   O33 5933   0.283   6.360   1.665
  119DPPC   C34 5934   0.294   6.495   1.665
  119DPPC   O35 5935   0.284   6.546   1.554
  119DPPC   C36 5936   0.278   6.579   1.792
  119DPPC   C37 5937   0.301   6.505   1.924
  119DPPC   C38 5938   0.273   6.587   2.050
  119DPPC   C39 5939   0.361   6.712   2.059
  119DPPC   C40 5940   0.359   6.790   2.191
  119DPPC   C41 5941   0.409   6.680   2.285
  119DPPC   C42 5942   0.359   6.728   2.421
  119DPPC   C43 5943   0.439   6.854   2.456
  119DPPC   C44 5944   0.385   6.908   2.588
  119DPPC   C45 5945   0.433   7.047   2.629
  119DPPC   C46 5946   0.373   7.087   2.764
  119DPPC   C47 5947   0.243   7.165   2.747
  119DPPC   C48 5948   0.182   7.205   2.882
  119DPPC   C49 5949   0.282   7.276   2.973
  119DPPC   C50 5950   0.243   7.276   3.121
  120DPPC    C1 5951   4.137   6.472   2.296
  120DPPC    C2 5952   3.939   6.563   2.190
  120DPPC    C3 5953   3.910   6.399   2.354
  120DPPC    N4 5954   3.996   6.511   2.315
  120DPPC    C5 5955   3.995   6.614   2.420
  120DPPC    C6 5956   4.088   6.735   2.423
  120DPPC    O7 5957   4.072   6.821   2.536
  120DPPC    P8 5958   4.209   6.903   2.560
  120DPPC    O9 5959   4.191   7.006   2.665
  120DPPC   O10 5960   4.252   6.938   2.423
  120DPPC   O11 5961   4.297   6.784   2.623
  120DPPC   C12 5962   4.254   6.765   2.758
  120DPPC   C13 5963   4.173   6.637   2.774
  120DPPC   O14 5964   4.059   6.653   2.861
  120DPPC   C15 5965   3.937   6.624   2.808
  120DPPC   O16 5966   3.919   6.558   2.706
  120DPPC   C17 5967   3.812   6.635   2.896
  120DPPC   C18 5968   3.789   6.499   2.961
  120DPPC   C19 5969   3.654   6.480   3.032
  120DPPC   C20 5970   3.632   6.586   3.140
  120DPPC   C21 5971   3.487   6.586   3.190
  120DPPC   C22 5972   3.484   6.692   3.301
  120DPPC   C23 5973   3.344   6.689   3.364
  120DPPC   C24 5974   3.331   6.810   3.457
  120DPPC   C25 5975   3.206   6.787   3.542
  120DPPC   C26 5976   3.209   6.651   3.613
  120DPPC   C27 5977   3.070   6.611   3.662
  120DPPC   C28 5978   3.071   6.622   3.814
  120DPPC   C29 5979   2.949   6.564   3.887
  120DPPC   C30 5980   2.847   6.674   3.916
  120DPPC   C31 5981   2.726   6.629   3.999
  120DPPC   C32 5982   4.251   6.506   2.792
  120DPPC   O33 5983   4.368   6.515   2.874
  120DPPC   C34 5984   4.429   6.395   2.889
  120DPPC   O35 5985   4.389   6.297   2.825
  120DPPC   C36 5986   4.549   6.366   2.981
  120DPPC   C37 5987   4.510   6.355   3.128
  120DPPC   C38 5988   4.626   6.327   3.223
  120DPPC   C39 5989   4.718   6.450   3.216
  120DPPC   C40 5990   4.842   6.446   3.305
  120DPPC   C41 5991   4.903   6.586   3.321
  120DPPC   C42 5992   4.933   6.652   3.187
  120DPPC   C43 5993   4.967   6.800   3.203
  120DPPC   C44 5994   4.975   6.866   3.065
  120DPPC   C45 5995   5.012   7.014   3.069
  120DPPC   C46 5996   4.935   7.099   3.171
  120DPPC   C47 5997   5.017   7.225   3.200
  120DPPC   C48 5998   4.940   7.321   3.291
  120DPPC   C49 5999   5.037   7.432   3.330
  120DPPC   C50 6000   4.971   7.534   3.423
  121DPPC    C1 6001   7.243   3.182   2.430
  121DPPC    C2 6002   7.293   2.997   2.561
  121DPPC    C3 6003   7.135   2.972   2.375
  121DPPC    N4 6004   7.258   3.036   2.424
  121DPPC    C5 6005   7.367   2.988   2.338
  121DPPC    C6 6006   7.400   3.060   2.207
  121DPPC    O7 6007   7.528   3.011   2.166
  121DPPC    P8 6008   7.570   3.057   2.018
  121DPPC    O9 6009   7.457   3.108   1.938
  121DPPC   O10 6010   7.665   2.960   1.958
  121DPPC   O11 6011   7.666   3.180   2.062
  121DPPC   C12 6012   7.780   3.134   2.135
  121DPPC   C13 6013   7.819   3.214   2.260
  121DPPC   O14 6014   7.942   3.173   2.322
  121DPPC   C15 6015   8.043   3.264   2.324
  121DPPC   O16 6016   8.048   3.353   2.238
  121DPPC   C17 6017   8.163   3.241   2.415
  121DPPC   C18 6018   8.159   3.335   2.537
  121DPPC   C19 6019   8.054   3.285   2.636
  121DPPC   C20 6020   8.073   3.361   2.768
  121DPPC   C21 6021   8.025   3.284   2.892
  121DPPC   C22 6022   8.058   3.373   3.013
  121DPPC   C23 6023   7.979   3.333   3.138
  121DPPC   C24 6024   7.831   3.363   3.115
  121DPPC   C25 6025   7.749   3.314   3.234
  121DPPC   C26 6026   7.801   3.367   3.368
  121DPPC   C27 6027   7.754   3.509   3.398
  121DPPC   C28 6028   7.831   3.561   3.520
  121DPPC   C29 6029   7.973   3.580   3.467
  121DPPC   C30 6030   8.066   3.624   3.580
  121DPPC   C31 6031   8.071   3.524   3.696
  121DPPC   C32 6032   7.709   3.200   2.366
  121DPPC   O33 6033   7.706   3.312   2.454
  121DPPC   C34 6034   7.623   3.290   2.559
  121DPPC   O35 6035   7.516   3.229   2.546
  121DPPC   C36 6036   7.660   3.355   2.693
  121DPPC   C37 6037   7.674   3.505   2.671
  121DPPC   C38 6038   7.751   3.574   2.784
  121DPPC   C39 6039   7.781   3.723   2.768
  121DPPC   C40 6040   7.864   3.757   2.892
  121DPPC   C41 6041   7.909   3.903   2.880
  121DPPC   C42 6042   7.978   3.940   3.012
  121DPPC   C43 6043   7.882   3.925   3.131
  121DPPC   C44 6044   7.945   3.992   3.253
  121DPPC   C45 6045   7.850   4.006   3.373
  121DPPC   C46 6046   7.935   4.067   3.485
  121DPPC   C47 6047   7.861   4.084   3.618
  121DPPC   C48 6048   7.961   4.113   3.730
  121DPPC   C49 6049   7.894   4.122   3.867
  121DPPC   C50 6050   8.004   4.176   3.959
  122DPPC    C1 6051   6.909   6.523   1.819
  122DPPC    C2 6052   7.142   6.537   1.772
  122DPPC    C3 6053   6.988   6.683   1.675
  122DPPC    N4 6054   7.021   6.616   1.801
  122DPPC    C5 6055   7.025   6.702   1.921
  122DPPC    C6 6056   7.146   6.791   1.948
  122DPPC    O7 6057   7.159   6.905   1.863
  122DPPC    P8 6058   7.319   6.924   1.869
  122DPPC    O9 6059   7.340   7.050   1.794
  122DPPC   O10 6060   7.370   6.790   1.836
  122DPPC   O11 6061   7.338   6.969   2.023
  122DPPC   C12 6062   7.279   7.092   2.067
  122DPPC   C13 6063   7.330   7.133   2.206
  122DPPC   O14 6064   7.468   7.161   2.229
  122DPPC   C15 6065   7.520   7.281   2.192
  122DPPC   O16 6066   7.455   7.363   2.126
  122DPPC   C17 6067   7.647   7.322   2.266
  122DPPC   C18 6068   7.632   7.313   2.418
  122DPPC   C19 6069   7.768   7.362   2.469
  122DPPC   C20 6070   7.761   7.368   2.621
  122DPPC   C21 6071   7.903   7.368   2.680
  122DPPC   C22 6072   7.970   7.231   2.685
  122DPPC   C23 6073   8.107   7.245   2.752
  122DPPC   C24 6074   8.130   7.104   2.807
  122DPPC   C25 6075   8.248   7.091   2.903
  122DPPC   C26 6076   8.249   6.943   2.944
  122DPPC   C27 6077   8.344   6.928   3.063
  122DPPC   C28 6078   8.310   7.034   3.167
  122DPPC   C29 6079   8.383   7.011   3.300
  122DPPC   C30 6080   8.372   7.137   3.385
  122DPPC   C31 6081   8.418   7.118   3.530
  122DPPC   C32 6082   7.290   7.009   2.286
  122DPPC   O33 6083   7.147   7.008   2.293
  122DPPC   C34 6084   7.089   6.910   2.367
  122DPPC   O35 6085   7.143   6.800   2.369
  122DPPC   C36 6086   6.939   6.927   2.394
  122DPPC   C37 6087   6.911   6.901   2.542
  122DPPC   C38 6088   6.894   6.751   2.563
  122DPPC   C39 6089   6.864   6.730   2.712
  122DPPC   C40 6090   6.985   6.763   2.800
  122DPPC   C41 6091   6.946   6.738   2.945
  122DPPC   C42 6092   7.057   6.758   3.049
  122DPPC   C43 6093   7.111   6.900   3.059
  122DPPC   C44 6094   7.247   6.912   3.129
  122DPPC   C45 6095   7.232   6.850   3.269
  122DPPC   C46 6096   7.362   6.862   3.348
  122DPPC   C47 6097   7.388   6.742   3.440
  122DPPC   C48 6098   7.513   6.754   3.529
  122DPPC   C49 6099   7.633   6.704   3.449
  122DPPC   C50 6100   7.757   6.748   3.528
  123DPPC    C1 6101   8.133   8.059   2.057
  123DPPC    C2 6102   7.949   8.164   1.973
  123DPPC    C3 6103   8.064   8.055   1.827
  123DPPC    N4 6104   8.020   8.035   1.966
  123DPPC    C5 6105   7.940   7.914   1.989
  123DPPC    C6 6106   8.010   7.780   1.967
  123DPPC    O7 6107   7.920   7.671   1.946
  123DPPC    P8 6108   8.008   7.555   1.876
  123DPPC    O9 6109   8.070   7.642   1.773
  123DPPC   O10 6110   7.909   7.448   1.851
  123DPPC   O11 6111   8.097   7.527   2.008
  123DPPC   C12 6112   8.046   7.401   2.055
  123DPPC   C13 6113   8.128   7.361   2.178
  123DPPC   O14 6114   8.068   7.241   2.228
  123DPPC   C15 6115   8.131   7.125   2.195
  123DPPC   O16 6116   8.202   7.118   2.096
  123DPPC   C17 6117   8.060   6.997   2.241
  123DPPC   C18 6118   8.158   6.900   2.306
  123DPPC   C19 6119   8.088   6.777   2.365
  123DPPC   C20 6120   8.191   6.704   2.451
  123DPPC   C21 6121   8.184   6.739   2.600
  123DPPC   C22 6122   8.092   6.657   2.691
  123DPPC   C23 6123   8.106   6.506   2.670
  123DPPC   C24 6124   7.989   6.451   2.753
  123DPPC   C25 6125   7.968   6.300   2.742
  123DPPC   C26 6126   7.851   6.253   2.830
  123DPPC   C27 6127   7.807   6.110   2.799
  123DPPC   C28 6128   7.713   6.048   2.902
  123DPPC   C29 6129   7.799   6.045   3.028
  123DPPC   C30 6130   7.746   5.961   3.145
  123DPPC   C31 6131   7.823   5.979   3.276
  123DPPC   C32 6132   8.111   7.480   2.272
  123DPPC   O33 6133   8.234   7.524   2.331
  123DPPC   C34 6134   8.210   7.624   2.420
  123DPPC   O35 6135   8.118   7.625   2.501
  123DPPC   C36 6136   8.342   7.702   2.432
  123DPPC   C37 6137   8.380   7.734   2.576
  123DPPC   C38 6138   8.415   7.610   2.659
  123DPPC   C39 6139   8.425   7.635   2.809
  123DPPC   C40 6140   8.461   7.510   2.889
  123DPPC   C41 6141   8.435   7.528   3.039
  123DPPC   C42 6142   8.299   7.474   3.082
  123DPPC   C43 6143   8.300   7.514   3.229
  123DPPC   C44 6144   8.160   7.494   3.287
  123DPPC   C45 6145   8.161   7.526   3.437
  123DPPC   C46 6146   8.217   7.668   3.443
  123DPPC   C47 6147   8.236   7.688   3.593
  123DPPC   C48 6148   8.302   7.563   3.653
  123DPPC   C49 6149   8.351   7.588   3.796
  123DPPC   C50 6150   8.241   7.604   3.902
  124DPPC    C1 6151   6.370   3.338   2.333
  124DPPC    C2 6152   6.346   3.178   2.497
  124DPPC    C3 6153   6.167   3.216   2.338
  124DPPC    N4 6154   6.312   3.205   2.357
  124DPPC    C5 6155   6.361   3.104   2.262
  124DPPC    C6 6156   6.510   3.104   2.228
  124DPPC    O7 6157   6.605   3.108   2.335
  124DPPC    P8 6158   6.753   3.106   2.272
  124DPPC    O9 6159   6.740   3.172   2.140
  124DPPC   O10 6160   6.837   2.984   2.282
  124DPPC   O11 6161   6.813   3.203   2.385
  124DPPC   C12 6162   6.827   3.141   2.513
  124DPPC   C13 6163   6.863   3.238   2.625
  124DPPC   O14 6164   6.858   3.174   2.754
  124DPPC   C15 6165   6.964   3.095   2.785
  124DPPC   O16 6166   7.053   3.082   2.702
  124DPPC   C17 6167   6.978   3.029   2.923
  124DPPC   C18 6168   7.120   3.034   2.980
  124DPPC   C19 6169   7.121   2.999   3.129
  124DPPC   C20 6170   7.031   3.085   3.218
  124DPPC   C21 6171   7.041   3.040   3.364
  124DPPC   C22 6172   6.961   3.123   3.464
  124DPPC   C23 6173   6.959   3.072   3.608
  124DPPC   C24 6174   6.833   3.134   3.668
  124DPPC   C25 6175   6.712   3.110   3.578
  124DPPC   C26 6176   6.582   3.147   3.649
  124DPPC   C27 6177   6.574   3.299   3.649
  124DPPC   C28 6178   6.457   3.332   3.741
  124DPPC   C29 6179   6.457   3.465   3.818
  124DPPC   C30 6180   6.345   3.463   3.922
  124DPPC   C31 6181   6.390   3.422   4.063
  124DPPC   C32 6182   6.776   3.363   2.616
  124DPPC   O33 6183   6.633   3.367   2.626
  124DPPC   C34 6184   6.594   3.497   2.615
  124DPPC   O35 6185   6.643   3.564   2.525
  124DPPC   C36 6186   6.488   3.546   2.714
  124DPPC   C37 6187   6.479   3.461   2.841
  124DPPC   C38 6188   6.364   3.509   2.930
  124DPPC   C39 6189   6.346   3.414   3.048
  124DPPC   C40 6190   6.208   3.428   3.113
  124DPPC   C41 6191   6.196   3.375   3.256
  124DPPC   C42 6192   6.048   3.359   3.293
  124DPPC   C43 6193   6.021   3.335   3.442
  124DPPC   C44 6194   5.987   3.187   3.459
  124DPPC   C45 6195   5.970   3.169   3.610
  124DPPC   C46 6196   5.983   3.019   3.635
  124DPPC   C47 6197   5.951   2.989   3.781
  124DPPC   C48 6198   5.959   2.838   3.808
  124DPPC   C49 6199   5.866   2.795   3.921
  124DPPC   C50 6200   5.890   2.646   3.946
  125DPPC    C1 6201   2.427   0.014   1.726
  125DPPC    C2 6202   2.299   0.129   1.894
  125DPPC    C3 6203   2.200   0.041   1.706
  125DPPC    N4 6204   2.304   0.012   1.805
  125DPPC    C5 6205   2.287  -0.108   1.890
  125DPPC    C6 6206   2.291  -0.243   1.818
  125DPPC    O7 6207   2.166  -0.278   1.757
  125DPPC    P8 6208   2.187  -0.402   1.658
  125DPPC    O9 6209   2.318  -0.378   1.593
  125DPPC   O10 6210   2.061  -0.415   1.581
  125DPPC   O11 6211   2.189  -0.504   1.783
  125DPPC   C12 6212   2.053  -0.545   1.802
  125DPPC   C13 6213   2.026  -0.607   1.939
  125DPPC   O14 6214   1.949  -0.526   2.028
  125DPPC   C15 6215   1.817  -0.517   1.995
  125DPPC   O16 6216   1.753  -0.600   1.930
  125DPPC   C17 6217   1.751  -0.410   2.082
  125DPPC   C18 6218   1.686  -0.479   2.202
  125DPPC   C19 6219   1.607  -0.373   2.278
  125DPPC   C20 6220   1.686  -0.285   2.375
  125DPPC   C21 6221   1.596  -0.175   2.432
  125DPPC   C22 6222   1.673  -0.106   2.545
  125DPPC   C23 6223   1.570  -0.021   2.621
  125DPPC   C24 6224   1.452  -0.115   2.643
  125DPPC   C25 6225   1.338  -0.049   2.722
  125DPPC   C26 6226   1.379   0.005   2.859
  125DPPC   C27 6227   1.271   0.092   2.922
  125DPPC   C28 6228   1.160  -0.003   2.968
  125DPPC   C29 6229   1.033   0.078   2.992
  125DPPC   C30 6230   0.916  -0.003   3.049
  125DPPC   C31 6231   0.796   0.091   3.063
  125DPPC   C32 6232   2.163  -0.637   2.001
  125DPPC   O33 6233   2.167  -0.711   2.123
  125DPPC   C34 6234   2.291  -0.732   2.177
  125DPPC   O35 6235   2.389  -0.737   2.103
  125DPPC   C36 6236   2.287  -0.785   2.320
  125DPPC   C37 6237   2.198  -0.699   2.410
  125DPPC   C38 6238   2.267  -0.569   2.452
  125DPPC   C39 6239   2.407  -0.604   2.504
  125DPPC   C40 6240   2.485  -0.474   2.528
  125DPPC   C41 6241   2.413  -0.371   2.614
  125DPPC   C42 6242   2.512  -0.269   2.671
  125DPPC   C43 6243   2.422  -0.174   2.751
  125DPPC   C44 6244   2.508  -0.058   2.801
  125DPPC   C45 6245   2.575   0.021   2.689
  125DPPC   C46 6246   2.632   0.151   2.745
  125DPPC   C47 6247   2.512   0.211   2.819
  125DPPC   C48 6248   2.544   0.348   2.878
  125DPPC   C49 6249   2.432   0.382   2.976
  125DPPC   C50 6250   2.484   0.492   3.069
  126DPPC    C1 6251   6.584   3.752   1.970
  126DPPC    C2 6252   6.550   3.911   1.810
  126DPPC    C3 6253   6.607   3.696   1.727
  126DPPC    N4 6254   6.533   3.766   1.833
  126DPPC    C5 6255   6.390   3.738   1.817
  126DPPC    C6 6256   6.334   3.606   1.872
  126DPPC    O7 6257   6.196   3.576   1.854
  126DPPC    P8 6258   6.127   3.442   1.910
  126DPPC    O9 6259   6.234   3.370   1.983
  126DPPC   O10 6260   6.060   3.400   1.785
  126DPPC   O11 6261   6.031   3.515   2.016
  126DPPC   C12 6262   6.083   3.565   2.140
  126DPPC   C13 6263   6.135   3.708   2.132
  126DPPC   O14 6264   6.192   3.754   2.256
  126DPPC   C15 6265   6.320   3.722   2.288
  126DPPC   O16 6266   6.387   3.639   2.226
  126DPPC   C17 6267   6.369   3.799   2.410
  126DPPC   C18 6268   6.248   3.847   2.491
  126DPPC   C19 6269   6.289   3.873   2.636
  126DPPC   C20 6270   6.185   3.944   2.723
  126DPPC   C21 6271   6.224   3.956   2.870
  126DPPC   C22 6272   6.118   4.032   2.950
  126DPPC   C23 6273   6.113   4.180   2.912
  126DPPC   C24 6274   6.022   4.248   3.014
  126DPPC   C25 6275   6.085   4.242   3.154
  126DPPC   C26 6276   6.014   4.335   3.253
  126DPPC   C27 6277   6.088   4.353   3.385
  126DPPC   C28 6278   6.221   4.430   3.384
  126DPPC   C29 6279   6.294   4.404   3.516
  126DPPC   C30 6280   6.307   4.253   3.536
  126DPPC   C31 6281   6.347   4.215   3.679
  126DPPC   C32 6282   6.015   3.787   2.079
  126DPPC   O33 6283   5.905   3.786   2.169
  126DPPC   C34 6284   5.806   3.872   2.132
  126DPPC   O35 6285   5.794   3.911   2.016
  126DPPC   C36 6286   5.695   3.876   2.237
  126DPPC   C37 6287   5.729   3.956   2.363
  126DPPC   C38 6288   5.625   3.965   2.474
  126DPPC   C39 6289   5.695   3.997   2.606
  126DPPC   C40 6290   5.590   4.049   2.704
  126DPPC   C41 6291   5.665   4.072   2.835
  126DPPC   C42 6292   5.576   4.120   2.949
  126DPPC   C43 6293   5.659   4.128   3.078
  126DPPC   C44 6294   5.564   4.182   3.184
  126DPPC   C45 6295   5.624   4.155   3.322
  126DPPC   C46 6296   5.524   4.187   3.434
  126DPPC   C47 6297   5.587   4.169   3.572
  126DPPC   C48 6298   5.481   4.166   3.682
  126DPPC   C49 6299   5.547   4.152   3.819
  126DPPC   C50 6300   5.446   4.123   3.930
  127DPPC    C1 6301   2.239   6.172   1.516
  127DPPC    C2 6302   2.416   6.255   1.648
  127DPPC    C3 6303   2.417   6.241   1.400
  127DPPC    N4 6304   2.343   6.276   1.522
  127DPPC    C5 6305   2.261   6.397   1.516
  127DPPC    C6 6306   2.338   6.527   1.542
  127DPPC    O7 6307   2.241   6.624   1.580
  127DPPC    P8 6308   2.312   6.761   1.627
  127DPPC    O9 6309   2.292   6.851   1.511
  127DPPC   O10 6310   2.448   6.737   1.681
  127DPPC   O11 6311   2.214   6.819   1.741
  127DPPC   C12 6312   2.228   6.747   1.864
  127DPPC   C13 6313   2.181   6.817   1.992
  127DPPC   O14 6314   2.205   6.744   2.113
  127DPPC   C15 6315   2.326   6.727   2.172
  127DPPC   O16 6316   2.424   6.760   2.106
  127DPPC   C17 6317   2.338   6.700   2.323
  127DPPC   C18 6318   2.477   6.645   2.357
  127DPPC   C19 6319   2.490   6.619   2.507
  127DPPC   C20 6320   2.632   6.571   2.538
  127DPPC   C21 6321   2.641   6.555   2.690
  127DPPC   C22 6322   2.636   6.689   2.762
  127DPPC   C23 6323   2.643   6.670   2.914
  127DPPC   C24 6324   2.769   6.606   2.972
  127DPPC   C25 6325   2.763   6.618   3.124
  127DPPC   C26 6326   2.895   6.553   3.166
  127DPPC   C27 6327   2.893   6.527   3.316
  127DPPC   C28 6328   2.787   6.422   3.351
  127DPPC   C29 6329   2.811   6.372   3.493
  127DPPC   C30 6330   2.698   6.271   3.515
  127DPPC   C31 6331   2.706   6.212   3.656
  127DPPC   C32 6332   2.033   6.840   1.960
  127DPPC   O33 6333   1.953   6.939   2.024
  127DPPC   C34 6334   1.862   6.998   1.942
  127DPPC   O35 6335   1.864   6.972   1.821
  127DPPC   C36 6336   1.765   7.098   2.004
  127DPPC   C37 6337   1.718   7.040   2.138
  127DPPC   C38 6338   1.586   7.109   2.175
  127DPPC   C39 6339   1.539   7.074   2.316
  127DPPC   C40 6340   1.408   7.144   2.353
  127DPPC   C41 6341   1.332   7.084   2.471
  127DPPC   C42 6342   1.423   7.101   2.593
  127DPPC   C43 6343   1.359   7.041   2.719
  127DPPC   C44 6344   1.448   7.090   2.834
  127DPPC   C45 6345   1.596   7.055   2.821
  127DPPC   C46 6346   1.655   7.105   2.953
  127DPPC   C47 6347   1.798   7.050   2.955
  127DPPC   C48 6348   1.846   7.057   3.100
  127DPPC   C49 6349   1.839   7.202   3.148
  127DPPC   C50 6350   1.915   7.220   3.279
  128DPPC    C1 6351   2.061   3.988   1.676
  128DPPC    C2 6352   1.856   3.871   1.660
  128DPPC    C3 6353   2.046   3.785   1.545
  128DPPC    N4 6354   2.002   3.854   1.667
  128DPPC    C5 6355   2.035   3.778   1.788
  128DPPC    C6 6356   2.178   3.726   1.803
  128DPPC    O7 6357   2.237   3.766   1.927
  128DPPC    P8 6358   2.395   3.791   1.906
  128DPPC    O9 6359   2.405   3.939   1.913
  128DPPC   O10 6360   2.456   3.709   1.798
  128DPPC   O11 6361   2.445   3.718   2.040
  128DPPC   C12 6362   2.479   3.581   2.021
  128DPPC   C13 6363   2.487   3.498   2.149
  128DPPC   O14 6364   2.393   3.390   2.155
  128DPPC   C15 6365   2.448   3.276   2.203
  128DPPC   O16 6366   2.559   3.245   2.158
  128DPPC   C17 6367   2.353   3.168   2.256
  128DPPC   C18 6368   2.402   3.125   2.394
  128DPPC   C19 6369   2.395   3.237   2.498
  128DPPC   C20 6370   2.389   3.191   2.644
  128DPPC   C21 6371   2.349   3.301   2.743
  128DPPC   C22 6372   2.377   3.259   2.888
  128DPPC   C23 6373   2.363   3.381   2.979
  128DPPC   C24 6374   2.361   3.339   3.126
  128DPPC   C25 6375   2.322   3.464   3.206
  128DPPC   C26 6376   2.437   3.559   3.240
  128DPPC   C27 6377   2.386   3.630   3.365
  128DPPC   C28 6378   2.506   3.693   3.436
  128DPPC   C29 6379   2.606   3.583   3.469
  128DPPC   C30 6380   2.710   3.641   3.565
  128DPPC   C31 6381   2.646   3.686   3.697
  128DPPC   C32 6382   2.472   3.590   2.270
  128DPPC   O33 6383   2.540   3.541   2.386
  128DPPC   C34 6384   2.576   3.643   2.469
  128DPPC   O35 6385   2.562   3.763   2.445
  128DPPC   C36 6386   2.612   3.598   2.611
  128DPPC   C37 6387   2.668   3.708   2.701
  128DPPC   C38 6388   2.685   3.643   2.838
  128DPPC   C39 6389   2.730   3.748   2.939
  128DPPC   C40 6390   2.805   3.678   3.052
  128DPPC   C41 6391   2.871   3.771   3.154
  128DPPC   C42 6392   2.976   3.691   3.231
  128DPPC   C43 6393   3.051   3.795   3.315
  128DPPC   C44 6394   3.074   3.718   3.445
  128DPPC   C45 6395   3.148   3.807   3.546
  128DPPC   C46 6396   3.277   3.861   3.485
  128DPPC   C47 6397   3.357   3.929   3.597
  128DPPC   C48 6398   3.483   3.979   3.526
  128DPPC   C49 6399   3.576   4.049   3.625
  128DPPC   C50 6400   3.697   4.107   3.551
  129DPPC    C1 6401   2.789   2.158   5.866
  129DPPC    C2 6402   2.701   2.132   6.093
  129DPPC    C3 6403   2.740   2.343   5.993
  129DPPC    N4 6404   2.694   2.206   5.966
  129DPPC    C5 6405   2.553   2.203   5.923
  129DPPC    C6 6406   2.496   2.082   5.849
  129DPPC    O7 6407   2.393   2.113   5.755
  129DPPC    P8 6408   2.301   1.984   5.727
  129DPPC    O9 6409   2.207   2.053   5.636
  129DPPC   O10 6410   2.254   1.942   5.860
  129DPPC   O11 6411   2.403   1.878   5.662
  129DPPC   C12 6412   2.439   1.938   5.537
  129DPPC   C13 6413   2.586   1.907   5.509
  129DPPC   O14 6414   2.639   1.989   5.404
  129DPPC   C15 6415   2.695   2.109   5.434
  129DPPC   O16 6416   2.652   2.164   5.535
  129DPPC   C17 6417   2.766   2.195   5.329
  129DPPC   C18 6418   2.693   2.325   5.298
  129DPPC   C19 6419   2.721   2.378   5.157
  129DPPC   C20 6420   2.677   2.265   5.063
  129DPPC   C21 6421   2.705   2.305   4.918
  129DPPC   C22 6422   2.635   2.202   4.829
  129DPPC   C23 6423   2.591   2.270   4.699
  129DPPC   C24 6424   2.552   2.166   4.595
  129DPPC   C25 6425   2.526   2.225   4.456
  129DPPC   C26 6426   2.535   2.118   4.347
  129DPPC   C27 6427   2.538   2.183   4.209
  129DPPC   C28 6428   2.560   2.070   4.108
  129DPPC   C29 6429   2.579   2.130   3.968
  129DPPC   C30 6430   2.558   2.021   3.864
  129DPPC   C31 6431   2.600   2.080   3.729
  129DPPC   C32 6432   2.598   1.757   5.484
  129DPPC   O33 6433   2.487   1.711   5.407
  129DPPC   C34 6434   2.496   1.577   5.382
  129DPPC   O35 6435   2.593   1.518   5.429
  129DPPC   C36 6436   2.390   1.509   5.297
  129DPPC   C37 6437   2.433   1.371   5.246
  129DPPC   C38 6438   2.556   1.394   5.157
  129DPPC   C39 6439   2.595   1.254   5.108
  129DPPC   C40 6440   2.496   1.193   5.009
  129DPPC   C41 6441   2.578   1.083   4.941
  129DPPC   C42 6442   2.508   1.030   4.815
  129DPPC   C43 6443   2.582   0.903   4.772
  129DPPC   C44 6444   2.497   0.825   4.672
  129DPPC   C45 6445   2.585   0.723   4.599
  129DPPC   C46 6446   2.509   0.657   4.483
  129DPPC   C47 6447   2.603   0.561   4.410
  129DPPC   C48 6448   2.544   0.534   4.271
  129DPPC   C49 6449   2.639   0.451   4.185
  129DPPC   C50 6450   2.582   0.385   4.059
  130DPPC    C1 6451   0.679   7.666   1.484
  130DPPC    C2 6452   0.856   7.829   1.482
  130DPPC    C3 6453   0.627   7.893   1.501
  130DPPC    N4 6454   0.727   7.793   1.541
  130DPPC    C5 6455   0.711   7.789   1.687
  130DPPC    C6 6456   0.785   7.680   1.764
  130DPPC    O7 6457   0.695   7.588   1.826
  130DPPC    P8 6458   0.766   7.524   1.955
  130DPPC    O9 6459   0.897   7.589   1.972
  130DPPC   O10 6460   0.747   7.377   1.954
  130DPPC   O11 6461   0.660   7.588   2.058
  130DPPC   C12 6462   0.727   7.693   2.130
  130DPPC   C13 6463   0.641   7.757   2.239
  130DPPC   O14 6464   0.730   7.794   2.345
  130DPPC   C15 6465   0.819   7.897   2.342
  130DPPC   O16 6466   0.805   7.979   2.251
  130DPPC   C17 6467   0.905   7.911   2.468
  130DPPC   C18 6468   0.852   8.010   2.572
  130DPPC   C19 6469   0.864   7.944   2.709
  130DPPC   C20 6470   1.005   7.887   2.729
  130DPPC   C21 6471   1.095   8.009   2.754
  130DPPC   C22 6472   1.243   7.968   2.754
  130DPPC   C23 6473   1.309   8.073   2.843
  130DPPC   C24 6474   1.323   8.030   2.989
  130DPPC   C25 6475   1.440   7.932   3.003
  130DPPC   C26 6476   1.453   7.885   3.148
  130DPPC   C27 6477   1.496   7.989   3.252
  130DPPC   C28 6478   1.504   7.951   3.400
  130DPPC   C29 6479   1.610   7.840   3.399
  130DPPC   C30 6480   1.623   7.780   3.539
  130DPPC   C31 6481   1.492   7.773   3.617
  130DPPC   C32 6482   0.539   7.650   2.279
  130DPPC   O33 6483   0.423   7.705   2.342
  130DPPC   C34 6484   0.350   7.605   2.399
  130DPPC   O35 6485   0.370   7.486   2.376
  130DPPC   C36 6486   0.220   7.651   2.465
  130DPPC   C37 6487   0.166   7.546   2.563
  130DPPC   C38 6488   0.021   7.562   2.608
  130DPPC   C39 6489  -0.012   7.699   2.668
  130DPPC   C40 6490  -0.143   7.716   2.745
  130DPPC   C41 6491  -0.154   7.866   2.768
  130DPPC   C42 6492  -0.299   7.900   2.804
  130DPPC   C43 6493  -0.323   8.047   2.839
  130DPPC   C44 6494  -0.439   8.078   2.933
  130DPPC   C45 6495  -0.460   8.228   2.955
  130DPPC   C46 6496  -0.573   8.269   3.049
  130DPPC   C47 6497  -0.534   8.218   3.188
  130DPPC   C48 6498  -0.657   8.218   3.280
  130DPPC   C49 6499  -0.710   8.362   3.288
  130DPPC   C50 6500  -0.856   8.363   3.335
  131DPPC    C1 6501   1.422   3.985   5.794
  131DPPC    C2 6502   1.447   3.810   5.624
  131DPPC    C3 6503   1.308   3.999   5.593
  131DPPC    N4 6504   1.436   3.954   5.651
  131DPPC    C5 6505   1.536   4.034   5.579
  131DPPC    C6 6506   1.549   4.184   5.608
  131DPPC    O7 6507   1.470   4.264   5.519
  131DPPC    P8 6508   1.489   4.416   5.568
  131DPPC    O9 6509   1.548   4.422   5.704
  131DPPC   O10 6510   1.367   4.493   5.536
  131DPPC   O11 6511   1.602   4.453   5.460
  131DPPC   C12 6512   1.543   4.439   5.331
  131DPPC   C13 6513   1.647   4.435   5.219
  131DPPC   O14 6514   1.582   4.450   5.093
  131DPPC   C15 6515   1.639   4.547   5.015
  131DPPC   O16 6516   1.738   4.611   5.049
  131DPPC   C17 6517   1.591   4.539   4.870
  131DPPC   C18 6518   1.695   4.454   4.796
  131DPPC   C19 6519   1.639   4.423   4.657
  131DPPC   C20 6520   1.757   4.408   4.561
  131DPPC   C21 6521   1.717   4.361   4.421
  131DPPC   C22 6522   1.840   4.384   4.333
  131DPPC   C23 6523   1.818   4.328   4.192
  131DPPC   C24 6524   1.934   4.358   4.097
  131DPPC   C25 6525   2.070   4.311   4.148
  131DPPC   C26 6526   2.177   4.335   4.040
  131DPPC   C27 6527   2.317   4.302   4.093
  131DPPC   C28 6528   2.420   4.306   3.980
  131DPPC   C29 6529   2.563   4.311   4.035
  131DPPC   C30 6530   2.635   4.440   3.995
  131DPPC   C31 6531   2.783   4.441   4.033
  131DPPC   C32 6532   1.729   4.308   5.241
  131DPPC   O33 6533   1.803   4.247   5.135
  131DPPC   C34 6534   1.868   4.128   5.133
  131DPPC   O35 6535   1.837   4.051   5.224
  131DPPC   C36 6536   1.950   4.074   5.016
  131DPPC   C37 6537   1.866   4.080   4.888
  131DPPC   C38 6538   1.939   4.017   4.770
  131DPPC   C39 6539   1.846   4.025   4.648
  131DPPC   C40 6540   1.703   3.970   4.651
  131DPPC   C41 6541   1.662   3.972   4.503
  131DPPC   C42 6542   1.509   3.965   4.500
  131DPPC   C43 6543   1.465   3.959   4.353
  131DPPC   C44 6544   1.521   3.837   4.280
  131DPPC   C45 6545   1.455   3.824   4.143
  131DPPC   C46 6546   1.507   3.920   4.035
  131DPPC   C47 6547   1.506   3.856   3.896
  131DPPC   C48 6548   1.528   3.958   3.784
  131DPPC   C49 6549   1.527   3.892   3.646
  131DPPC   C50 6550   1.631   3.785   3.614
  132DPPC    C1 6551   9.232   6.380   1.368
  132DPPC    C2 6552   9.433   6.490   1.471
  132DPPC    C3 6553   9.290   6.603   1.329
  132DPPC    N4 6554   9.291   6.498   1.432
  132DPPC    C5 6555   9.210   6.534   1.550
  132DPPC    C6 6556   9.058   6.546   1.548
  132DPPC    O7 6557   9.009   6.578   1.679
  132DPPC    P8 6558   8.852   6.552   1.699
  132DPPC    O9 6559   8.833   6.408   1.669
  132DPPC   O10 6560   8.796   6.657   1.612
  132DPPC   O11 6561   8.841   6.568   1.859
  132DPPC   C12 6562   8.954   6.520   1.931
  132DPPC   C13 6563   8.947   6.549   2.081
  132DPPC   O14 6564   9.063   6.506   2.155
  132DPPC   C15 6565   9.176   6.581   2.154
  132DPPC   O16 6566   9.199   6.652   2.056
  132DPPC   C17 6567   9.277   6.569   2.268
  132DPPC   C18 6568   9.249   6.652   2.394
  132DPPC   C19 6569   9.358   6.638   2.501
  132DPPC   C20 6570   9.301   6.692   2.632
  132DPPC   C21 6571   9.370   6.659   2.765
  132DPPC   C22 6572   9.518   6.696   2.771
  132DPPC   C23 6573   9.542   6.728   2.919
  132DPPC   C24 6574   9.679   6.675   2.961
  132DPPC   C25 6575   9.716   6.714   3.105
  132DPPC   C26 6576   9.866   6.684   3.102
  132DPPC   C27 6577   9.907   6.689   3.250
  132DPPC   C28 6578  10.059   6.686   3.270
  132DPPC   C29 6579  10.081   6.638   3.414
  132DPPC   C30 6580  10.070   6.485   3.412
  132DPPC   C31 6581  10.086   6.426   3.552
  132DPPC   C32 6582   8.817   6.486   2.133
  132DPPC   O33 6583   8.798   6.483   2.274
  132DPPC   C34 6584   8.682   6.432   2.326
  132DPPC   O35 6585   8.591   6.406   2.247
  132DPPC   C36 6586   8.670   6.428   2.478
  132DPPC   C37 6587   8.595   6.545   2.543
  132DPPC   C38 6588   8.538   6.507   2.680
  132DPPC   C39 6589   8.494   6.629   2.760
  132DPPC   C40 6590   8.493   6.600   2.910
  132DPPC   C41 6591   8.395   6.486   2.942
  132DPPC   C42 6592   8.404   6.452   3.091
  132DPPC   C43 6593   8.382   6.581   3.171
  132DPPC   C44 6594   8.352   6.537   3.314
  132DPPC   C45 6595   8.294   6.656   3.390
  132DPPC   C46 6596   8.282   6.617   3.538
  132DPPC   C47 6597   8.210   6.734   3.606
  132DPPC   C48 6598   8.202   6.726   3.758
  132DPPC   C49 6599   8.102   6.617   3.796
  132DPPC   C50 6600   8.113   6.594   3.947
  133DPPC    C1 6601   7.295   0.271   5.686
  133DPPC    C2 6602   7.273   0.473   5.777
  133DPPC    C3 6603   7.395   0.286   5.897
  133DPPC    N4 6604   7.370   0.363   5.774
  133DPPC    C5 6605   7.499   0.398   5.712
  133DPPC    C6 6606   7.600   0.498   5.767
  133DPPC    O7 6607   7.720   0.501   5.689
  133DPPC    P8 6608   7.831   0.601   5.748
  133DPPC    O9 6609   7.956   0.602   5.670
  133DPPC   O10 6610   7.813   0.593   5.895
  133DPPC   O11 6611   7.755   0.735   5.700
  133DPPC   C12 6612   7.780   0.757   5.561
  133DPPC   C13 6613   7.691   0.859   5.490
  133DPPC   O14 6614   7.745   0.992   5.476
  133DPPC   C15 6615   7.835   1.008   5.376
  133DPPC   O16 6616   7.870   0.904   5.319
  133DPPC   C17 6617   7.919   1.135   5.365
  133DPPC   C18 6618   7.856   1.259   5.301
  133DPPC   C19 6619   7.864   1.256   5.148
  133DPPC   C20 6620   7.812   1.389   5.093
  133DPPC   C21 6621   7.887   1.512   5.145
  133DPPC   C22 6622   7.806   1.638   5.112
  133DPPC   C23 6623   7.895   1.762   5.126
  133DPPC   C24 6624   7.797   1.881   5.131
  133DPPC   C25 6625   7.719   1.886   5.000
  133DPPC   C26 6626   7.604   1.986   4.993
  133DPPC   C27 6627   7.531   1.970   4.859
  133DPPC   C28 6628   7.420   2.076   4.861
  133DPPC   C29 6629   7.335   2.058   4.735
  133DPPC   C30 6630   7.203   2.135   4.738
  133DPPC   C31 6631   7.115   2.102   4.617
  133DPPC   C32 6632   7.566   0.869   5.578
  133DPPC   O33 6633   7.438   0.862   5.516
  133DPPC   C34 6634   7.391   0.737   5.489
  133DPPC   O35 6635   7.433   0.632   5.539
  133DPPC   C36 6636   7.253   0.735   5.423
  133DPPC   C37 6637   7.270   0.716   5.272
  133DPPC   C38 6638   7.131   0.746   5.216
  133DPPC   C39 6639   7.150   0.768   5.066
  133DPPC   C40 6640   7.206   0.643   4.997
  133DPPC   C41 6641   7.199   0.665   4.846
  133DPPC   C42 6642   7.210   0.533   4.769
  133DPPC   C43 6643   7.186   0.563   4.622
  133DPPC   C44 6644   7.284   0.654   4.547
  133DPPC   C45 6645   7.262   0.650   4.396
  133DPPC   C46 6646   7.275   0.507   4.345
  133DPPC   C47 6647   7.248   0.501   4.194
  133DPPC   C48 6648   7.269   0.361   4.135
  133DPPC   C49 6649   7.263   0.362   3.983
  133DPPC   C50 6650   7.117   0.377   3.937
  134DPPC    C1 6651   0.269   7.732   5.527
  134DPPC    C2 6652   0.209   7.780   5.734
  134DPPC    C3 6653   0.445   7.764   5.684
  134DPPC    N4 6654   0.315   7.816   5.639
  134DPPC    C5 6655   0.315   7.961   5.619
  134DPPC    C6 6656   0.400   8.024   5.509
  134DPPC    O7 6657   0.372   7.991   5.373
  134DPPC    P8 6658   0.478   8.078   5.289
  134DPPC    O9 6659   0.600   7.995   5.302
  134DPPC   O10 6660   0.468   8.213   5.349
  134DPPC   O11 6661   0.427   8.070   5.137
  134DPPC   C12 6662   0.444   8.192   5.063
  134DPPC   C13 6663   0.477   8.172   4.915
  134DPPC   O14 6664   0.476   8.294   4.840
  134DPPC   C15 6665   0.572   8.390   4.842
  134DPPC   O16 6666   0.680   8.358   4.891
  134DPPC   C17 6667   0.555   8.520   4.765
  134DPPC   C18 6668   0.464   8.507   4.642
  134DPPC   C19 6669   0.491   8.623   4.546
  134DPPC   C20 6670   0.419   8.611   4.412
  134DPPC   C21 6671   0.492   8.689   4.303
  134DPPC   C22 6672   0.397   8.796   4.249
  134DPPC   C23 6673   0.451   8.891   4.142
  134DPPC   C24 6674   0.436   9.037   4.185
  134DPPC   C25 6675   0.504   9.129   4.084
  134DPPC   C26 6676   0.485   9.277   4.117
  134DPPC   C27 6677   0.555   9.360   4.009
  134DPPC   C28 6678   0.507   9.505   4.008
  134DPPC   C29 6679   0.615   9.591   3.943
  134DPPC   C30 6680   0.620   9.542   3.799
  134DPPC   C31 6681   0.723   9.630   3.727
  134DPPC   C32 6682   0.368   8.075   4.868
  134DPPC   O33 6683   0.236   8.122   4.894
  134DPPC   C34 6684   0.134   8.031   4.892
  134DPPC   O35 6685   0.155   7.915   4.856
  134DPPC   C36 6686   0.001   8.089   4.938
  134DPPC   C37 6687  -0.082   8.133   4.817
  134DPPC   C38 6688  -0.135   8.023   4.725
  134DPPC   C39 6689  -0.208   8.082   4.604
  134DPPC   C40 6690  -0.259   7.987   4.495
  134DPPC   C41 6691  -0.300   8.053   4.364
  134DPPC   C42 6692  -0.389   8.174   4.394
  134DPPC   C43 6693  -0.445   8.214   4.257
  134DPPC   C44 6694  -0.505   8.089   4.194
  134DPPC   C45 6695  -0.616   8.149   4.107
  134DPPC   C46 6696  -0.694   8.040   4.032
  134DPPC   C47 6697  -0.817   8.093   3.957
  134DPPC   C48 6698  -0.906   7.972   3.927
  134DPPC   C49 6699  -1.023   8.033   3.850
  134DPPC   C50 6700  -0.964   8.112   3.734
  135DPPC    C1 6701   7.881   7.746   5.812
  135DPPC    C2 6702   7.942   7.922   5.946
  135DPPC    C3 6703   8.075   7.897   5.752
  135DPPC    N4 6704   7.939   7.881   5.805
  135DPPC    C5 6705   7.839   7.963   5.733
  135DPPC    C6 6706   7.789   7.917   5.596
  135DPPC    O7 6707   7.665   7.960   5.539
  135DPPC    P8 6708   7.659   7.916   5.385
  135DPPC    O9 6709   7.528   7.959   5.330
  135DPPC   O10 6710   7.714   7.779   5.378
  135DPPC   O11 6711   7.771   8.024   5.343
  135DPPC   C12 6712   7.722   8.142   5.278
  135DPPC   C13 6713   7.829   8.250   5.266
  135DPPC   O14 6714   7.778   8.384   5.253
  135DPPC   C15 6715   7.865   8.489   5.250
  135DPPC   O16 6716   7.970   8.478   5.312
  135DPPC   C17 6717   7.803   8.629   5.241
  135DPPC   C18 6718   7.893   8.729   5.168
  135DPPC   C19 6719   7.935   8.675   5.032
  135DPPC   C20 6720   7.820   8.635   4.940
  135DPPC   C21 6721   7.845   8.506   4.862
  135DPPC   C22 6722   7.703   8.463   4.822
  135DPPC   C23 6723   7.633   8.564   4.732
  135DPPC   C24 6724   7.703   8.567   4.595
  135DPPC   C25 6725   7.631   8.640   4.481
  135DPPC   C26 6726   7.714   8.640   4.352
  135DPPC   C27 6727   7.646   8.730   4.249
  135DPPC   C28 6728   7.753   8.778   4.151
  135DPPC   C29 6729   7.669   8.872   4.064
  135DPPC   C30 6730   7.742   8.927   3.941
  135DPPC   C31 6731   7.706   8.845   3.817
  135DPPC   C32 6732   7.940   8.200   5.172
  135DPPC   O33 6733   7.887   8.142   5.053
  135DPPC   C34 6734   7.984   8.100   4.968
  135DPPC   O35 6735   8.101   8.132   4.991
  135DPPC   C36 6736   7.937   8.073   4.825
  135DPPC   C37 6737   7.808   7.992   4.843
  135DPPC   C38 6738   7.725   7.993   4.715
  135DPPC   C39 6739   7.602   7.903   4.707
  135DPPC   C40 6740   7.527   7.892   4.573
  135DPPC   C41 6741   7.512   8.037   4.526
  135DPPC   C42 6742   7.439   8.027   4.391
  135DPPC   C43 6743   7.531   7.945   4.300
  135DPPC   C44 6744   7.481   7.958   4.156
  135DPPC   C45 6745   7.589   7.913   4.056
  135DPPC   C46 6746   7.555   7.899   3.908
  135DPPC   C47 6747   7.463   7.780   3.878
  135DPPC   C48 6748   7.431   7.779   3.728
  135DPPC   C49 6749   7.340   7.667   3.677
  135DPPC   C50 6750   7.323   7.683   3.526
  136DPPC    C1 6751   7.104   3.180   6.224
  136DPPC    C2 6752   7.315   3.179   6.140
  136DPPC    C3 6753   7.197   3.365   6.111
  136DPPC    N4 6754   7.224   3.265   6.215
  136DPPC    C5 6755   7.280   3.317   6.341
  136DPPC    C6 6756   7.426   3.361   6.337
  136DPPC    O7 6757   7.454   3.480   6.263
  136DPPC    P8 6758   7.607   3.478   6.213
  136DPPC    O9 6759   7.671   3.378   6.302
  136DPPC   O10 6760   7.644   3.621   6.209
  136DPPC   O11 6761   7.574   3.424   6.065
  136DPPC   C12 6762   7.554   3.545   5.991
  136DPPC   C13 6763   7.629   3.538   5.857
  136DPPC   O14 6764   7.593   3.650   5.774
  136DPPC   C15 6765   7.658   3.769   5.787
  136DPPC   O16 6766   7.756   3.781   5.861
  136DPPC   C17 6767   7.597   3.891   5.719
  136DPPC   C18 6768   7.657   3.938   5.586
  136DPPC   C19 6769   7.590   4.057   5.517
  136DPPC   C20 6770   7.662   4.082   5.385
  136DPPC   C21 6771   7.679   3.967   5.286
  136DPPC   C22 6772   7.759   4.016   5.165
  136DPPC   C23 6773   7.689   4.138   5.104
  136DPPC   C24 6774   7.796   4.222   5.035
  136DPPC   C25 6775   7.852   4.176   4.900
  136DPPC   C26 6776   7.970   4.259   4.851
  136DPPC   C27 6777   8.043   4.182   4.741
  136DPPC   C28 6778   8.153   4.261   4.670
  136DPPC   C29 6779   8.101   4.396   4.620
  136DPPC   C30 6780   8.164   4.430   4.484
  136DPPC   C31 6781   8.126   4.569   4.435
  136DPPC   C32 6782   7.562   3.411   5.805
  136DPPC   O33 6783   7.641   3.325   5.722
  136DPPC   C34 6784   7.594   3.212   5.662
  136DPPC   O35 6785   7.477   3.179   5.677
  136DPPC   C36 6786   7.674   3.161   5.542
  136DPPC   C37 6787   7.639   3.259   5.430
  136DPPC   C38 6788   7.587   3.192   5.303
  136DPPC   C39 6789   7.519   3.287   5.204
  136DPPC   C40 6790   7.467   3.217   5.078
  136DPPC   C41 6791   7.384   3.317   4.998
  136DPPC   C42 6792   7.320   3.253   4.874
  136DPPC   C43 6793   7.259   3.364   4.788
  136DPPC   C44 6794   7.219   3.302   4.654
  136DPPC   C45 6795   7.145   3.398   4.561
  136DPPC   C46 6796   7.111   3.318   4.435
  136DPPC   C47 6797   7.057   3.416   4.330
  136DPPC   C48 6798   7.076   3.350   4.193
  136DPPC   C49 6799   6.979   3.232   4.182
  136DPPC   C50 6800   7.006   3.185   4.039
  137DPPC    C1 6801   3.093   6.128   5.208
  137DPPC    C2 6802   3.205   5.955   5.330
  137DPPC    C3 6803   3.310   6.168   5.267
  137DPPC    N4 6804   3.189   6.101   5.316
  137DPPC    C5 6805   3.156   6.173   5.440
  137DPPC    C6 6806   3.021   6.141   5.504
  137DPPC    O7 6807   2.906   6.210   5.455
  137DPPC    P8 6808   2.771   6.125   5.480
  137DPPC    O9 6809   2.658   6.200   5.422
  137DPPC   O10 6810   2.787   6.082   5.621
  137DPPC   O11 6811   2.801   5.998   5.387
  137DPPC   C12 6812   2.701   5.969   5.289
  137DPPC   C13 6813   2.736   5.837   5.221
  137DPPC   O14 6814   2.858   5.843   5.146
  137DPPC   C15 6815   2.928   5.728   5.130
  137DPPC   O16 6816   2.898   5.637   5.207
  137DPPC   C17 6817   3.054   5.721   5.044
  137DPPC   C18 6818   3.030   5.783   4.906
  137DPPC   C19 6819   3.155   5.757   4.822
  137DPPC   C20 6820   3.196   5.610   4.807
  137DPPC   C21 6821   3.302   5.602   4.697
  137DPPC   C22 6822   3.358   5.461   4.677
  137DPPC   C23 6823   3.480   5.444   4.586
  137DPPC   C24 6824   3.524   5.298   4.567
  137DPPC   C25 6825   3.638   5.283   4.466
  137DPPC   C26 6826   3.664   5.134   4.448
  137DPPC   C27 6827   3.785   5.100   4.361
  137DPPC   C28 6828   3.767   5.164   4.223
  137DPPC   C29 6829   3.857   5.100   4.117
  137DPPC   C30 6830   3.771   5.096   3.991
  137DPPC   C31 6831   3.832   5.007   3.882
  137DPPC   C32 6832   2.608   5.798   5.146
  137DPPC   O33 6833   2.544   5.901   5.070
  137DPPC   C34 6834   2.446   5.861   4.984
  137DPPC   O35 6835   2.417   5.742   4.972
  137DPPC   C36 6836   2.389   5.967   4.890
  137DPPC   C37 6837   2.354   5.921   4.748
  137DPPC   C38 6838   2.335   6.026   4.639
  137DPPC   C39 6839   2.304   5.956   4.507
  137DPPC   C40 6840   2.364   6.038   4.393
  137DPPC   C41 6841   2.273   6.155   4.356
  137DPPC   C42 6842   2.300   6.203   4.213
  137DPPC   C43 6843   2.274   6.084   4.121
  137DPPC   C44 6844   2.319   6.095   3.975
  137DPPC   C45 6845   2.266   5.976   3.894
  137DPPC   C46 6846   2.296   5.844   3.965
  137DPPC   C47 6847   2.235   5.729   3.886
  137DPPC   C48 6848   2.083   5.722   3.900
  137DPPC   C49 6849   2.012   5.613   3.820
  137DPPC   C50 6850   1.871   5.585   3.873
  138DPPC    C1 6851   2.074   2.673   5.863
  138DPPC    C2 6852   2.034   2.896   5.935
  138DPPC    C3 6853   2.204   2.763   6.025
  138DPPC    N4 6854   2.139   2.800   5.898
  138DPPC    C5 6855   2.225   2.836   5.785
  138DPPC    C6 6856   2.158   2.890   5.657
  138DPPC    O7 6857   2.079   2.804   5.576
  138DPPC    P8 6858   2.046   2.891   5.445
  138DPPC    O9 6859   1.989   3.011   5.511
  138DPPC   O10 6860   1.970   2.804   5.353
  138DPPC   O11 6861   2.201   2.911   5.405
  138DPPC   C12 6862   2.211   2.998   5.292
  138DPPC   C13 6863   2.349   3.060   5.271
  138DPPC   O14 6864   2.362   3.173   5.184
  138DPPC   C15 6865   2.340   3.299   5.230
  138DPPC   O16 6866   2.317   3.314   5.350
  138DPPC   C17 6867   2.341   3.411   5.125
  138DPPC   C18 6868   2.453   3.512   5.147
  138DPPC   C19 6869   2.452   3.620   5.038
  138DPPC   C20 6870   2.315   3.687   5.022
  138DPPC   C21 6871   2.305   3.777   4.898
  138DPPC   C22 6872   2.264   3.702   4.771
  138DPPC   C23 6873   2.261   3.802   4.655
  138DPPC   C24 6874   2.280   3.714   4.531
  138DPPC   C25 6875   2.301   3.783   4.396
  138DPPC   C26 6876   2.314   3.662   4.303
  138DPPC   C27 6877   2.333   3.705   4.157
  138DPPC   C28 6878   2.215   3.798   4.126
  138DPPC   C29 6879   2.252   3.883   4.004
  138DPPC   C30 6880   2.142   3.977   3.956
  138DPPC   C31 6881   2.033   3.889   3.895
  138DPPC   C32 6882   2.435   2.943   5.223
  138DPPC   O33 6883   2.369   2.876   5.115
  138DPPC   C34 6884   2.410   2.747   5.105
  138DPPC   O35 6885   2.474   2.698   5.198
  138DPPC   C36 6886   2.385   2.659   4.982
  138DPPC   C37 6887   2.447   2.727   4.859
  138DPPC   C38 6888   2.430   2.623   4.748
  138DPPC   C39 6889   2.288   2.589   4.704
  138DPPC   C40 6890   2.281   2.475   4.602
  138DPPC   C41 6891   2.136   2.460   4.554
  138DPPC   C42 6892   2.116   2.328   4.479
  138DPPC   C43 6893   1.971   2.328   4.432
  138DPPC   C44 6894   1.924   2.204   4.354
  138DPPC   C45 6895   1.772   2.206   4.374
  138DPPC   C46 6896   1.714   2.101   4.280
  138DPPC   C47 6897   1.561   2.097   4.291
  138DPPC   C48 6898   1.501   1.971   4.229
  138DPPC   C49 6899   1.354   1.946   4.262
  138DPPC   C50 6900   1.364   1.954   4.414
  139DPPC    C1 6901   9.075   3.794   5.540
  139DPPC    C2 6902   8.900   3.952   5.493
  139DPPC    C3 6903   8.899   3.819   5.689
  139DPPC    N4 6904   8.985   3.895   5.598
  139DPPC    C5 6905   9.054   3.993   5.683
  139DPPC    C6 6906   9.135   4.098   5.606
  139DPPC    O7 6907   9.205   4.182   5.700
  139DPPC    P8 6908   9.242   4.322   5.631
  139DPPC    O9 6909   9.274   4.426   5.732
  139DPPC   O10 6910   9.144   4.350   5.524
  139DPPC   O11 6911   9.371   4.278   5.546
  139DPPC   C12 6912   9.388   4.357   5.429
  139DPPC   C13 6913   9.454   4.282   5.313
  139DPPC   O14 6914   9.501   4.365   5.206
  139DPPC   C15 6915   9.614   4.441   5.216
  139DPPC   O16 6916   9.679   4.439   5.320
  139DPPC   C17 6917   9.627   4.551   5.111
  139DPPC   C18 6918   9.716   4.509   4.994
  139DPPC   C19 6919   9.715   4.604   4.874
  139DPPC   C20 6920   9.752   4.533   4.744
  139DPPC   C21 6921   9.733   4.617   4.617
  139DPPC   C22 6922   9.713   4.515   4.505
  139DPPC   C23 6923   9.722   4.589   4.371
  139DPPC   C24 6924   9.728   4.488   4.257
  139DPPC   C25 6925   9.736   4.557   4.121
  139DPPC   C26 6926   9.740   4.446   4.016
  139DPPC   C27 6927   9.796   4.496   3.883
  139DPPC   C28 6928   9.715   4.604   3.811
  139DPPC   C29 6929   9.794   4.628   3.682
  139DPPC   C30 6930   9.721   4.728   3.592
  139DPPC   C31 6931   9.782   4.743   3.453
  139DPPC   C32 6932   9.355   4.170   5.283
  139DPPC   O33 6933   9.416   4.044   5.255
  139DPPC   C34 6934   9.333   3.936   5.258
  139DPPC   O35 6935   9.220   3.957   5.302
  139DPPC   C36 6936   9.374   3.800   5.203
  139DPPC   C37 6937   9.338   3.802   5.054
  139DPPC   C38 6938   9.386   3.679   4.975
  139DPPC   C39 6939   9.340   3.708   4.832
  139DPPC   C40 6940   9.343   3.597   4.727
  139DPPC   C41 6941   9.286   3.648   4.594
  139DPPC   C42 6942   9.253   3.522   4.514
  139DPPC   C43 6943   9.231   3.555   4.366
  139DPPC   C44 6944   9.114   3.649   4.339
  139DPPC   C45 6945   9.086   3.654   4.189
  139DPPC   C46 6946   9.169   3.747   4.100
  139DPPC   C47 6947   9.149   3.716   3.951
  139DPPC   C48 6948   9.219   3.813   3.856
  139DPPC   C49 6949   9.197   3.755   3.716
  139DPPC   C50 6950   9.270   3.837   3.609
  140DPPC    C1 6951   0.169   2.436   5.553
  140DPPC    C2 6952   0.302   2.562   5.722
  140DPPC    C3 6953   0.145   2.657   5.596
  140DPPC    N4 6954   0.170   2.530   5.666
  140DPPC    C5 6955   0.081   2.508   5.781
  140DPPC    C6 6956  -0.062   2.455   5.763
  140DPPC    O7 6957  -0.136   2.548   5.683
  140DPPC    P8 6958  -0.291   2.516   5.658
  140DPPC    O9 6959  -0.337   2.644   5.599
  140DPPC   O10 6960  -0.353   2.460   5.781
  140DPPC   O11 6961  -0.277   2.408   5.540
  140DPPC   C12 6962  -0.236   2.459   5.413
  140DPPC   C13 6963  -0.243   2.345   5.310
  140DPPC   O14 6964  -0.144   2.340   5.206
  140DPPC   C15 6965  -0.019   2.290   5.220
  140DPPC   O16 6966   0.035   2.247   5.323
  140DPPC   C17 6967   0.044   2.251   5.086
  140DPPC   C18 6968   0.096   2.375   5.013
  140DPPC   C19 6969   0.130   2.337   4.868
  140DPPC   C20 6970   0.262   2.399   4.821
  140DPPC   C21 6971   0.289   2.386   4.671
  140DPPC   C22 6972   0.423   2.451   4.636
  140DPPC   C23 6973   0.501   2.381   4.524
  140DPPC   C24 6974   0.421   2.380   4.394
  140DPPC   C25 6975   0.505   2.349   4.270
  140DPPC   C26 6976   0.442   2.317   4.134
  140DPPC   C27 6977   0.548   2.297   4.025
  140DPPC   C28 6978   0.490   2.254   3.890
  140DPPC   C29 6979   0.380   2.148   3.901
  140DPPC   C30 6980   0.362   2.081   3.764
  140DPPC   C31 6981   0.263   1.965   3.777
  140DPPC   C32 6982  -0.384   2.364   5.253
  140DPPC   O33 6983  -0.409   2.500   5.219
  140DPPC   C34 6984  -0.495   2.535   5.119
  140DPPC   O35 6985  -0.512   2.469   5.016
  140DPPC   C36 6986  -0.559   2.674   5.127
  140DPPC   C37 6987  -0.704   2.625   5.134
  140DPPC   C38 6988  -0.784   2.706   5.033
  140DPPC   C39 6989  -0.935   2.688   5.057
  140DPPC   C40 6990  -0.993   2.805   4.977
  140DPPC   C41 6991  -0.961   2.792   4.828
  140DPPC   C42 6992  -1.004   2.914   4.745
  140DPPC   C43 6993  -0.981   2.892   4.596
  140DPPC   C44 6994  -1.045   3.000   4.509
  140DPPC   C45 6995  -1.020   2.959   4.364
  140DPPC   C46 6996  -1.084   2.822   4.337
  140DPPC   C47 6997  -1.027   2.775   4.204
  140DPPC   C48 6998  -1.126   2.792   4.088
  140DPPC   C49 6999  -1.104   2.685   3.981
  140DPPC   C50 7000  -0.970   2.723   3.916
  141DPPC    C1 7001   5.854   1.746   6.445
  141DPPC    C2 7002   5.700   1.613   6.335
  141DPPC    C3 7003   5.621   1.816   6.402
  141DPPC    N4 7004   5.742   1.753   6.350
  141DPPC    C5 7005   5.771   1.805   6.215
  141DPPC    C6 7006   5.815   1.952   6.211
  141DPPC    O7 7007   5.702   2.040   6.213
  141DPPC    P8 7008   5.747   2.178   6.144
  141DPPC    O9 7009   5.875   2.209   6.211
  141DPPC   O10 7010   5.626   2.264   6.147
  141DPPC   O11 7011   5.765   2.134   5.990
  141DPPC   C12 7012   5.648   2.096   5.918
  141DPPC   C13 7013   5.672   2.087   5.767
  141DPPC   O14 7014   5.754   1.985   5.707
  141DPPC   C15 7015   5.678   1.887   5.652
  141DPPC   O16 7016   5.557   1.874   5.663
  141DPPC   C17 7017   5.763   1.773   5.595
  141DPPC   C18 7018   5.771   1.787   5.443
  141DPPC   C19 7019   5.842   1.669   5.377
  141DPPC   C20 7020   5.776   1.640   5.242
  141DPPC   C21 7021   5.625   1.623   5.265
  141DPPC   C22 7022   5.546   1.569   5.145
  141DPPC   C23 7023   5.555   1.664   5.026
  141DPPC   C24 7024   5.504   1.600   4.897
  141DPPC   C25 7025   5.562   1.461   4.872
  141DPPC   C26 7026   5.521   1.406   4.735
  141DPPC   C27 7027   5.614   1.466   4.629
  141DPPC   C28 7028   5.580   1.412   4.490
  141DPPC   C29 7029   5.439   1.461   4.456
  141DPPC   C30 7030   5.431   1.596   4.385
  141DPPC   C31 7031   5.289   1.652   4.373
  141DPPC   C32 7032   5.729   2.224   5.730
  141DPPC   O33 7033   5.634   2.331   5.735
  141DPPC   C34 7034   5.682   2.457   5.720
  141DPPC   O35 7035   5.803   2.468   5.738
  141DPPC   C36 7036   5.586   2.575   5.700
  141DPPC   C37 7037   5.552   2.607   5.554
  141DPPC   C38 7038   5.493   2.490   5.477
  141DPPC   C39 7039   5.450   2.544   5.340
  141DPPC   C40 7040   5.569   2.577   5.250
  141DPPC   C41 7041   5.523   2.624   5.113
  141DPPC   C42 7042   5.635   2.614   5.009
  141DPPC   C43 7043   5.590   2.651   4.868
  141DPPC   C44 7044   5.470   2.563   4.835
  141DPPC   C45 7045   5.416   2.604   4.698
  141DPPC   C46 7046   5.358   2.745   4.699
  141DPPC   C47 7047   5.320   2.791   4.558
  141DPPC   C48 7048   5.429   2.804   4.452
  141DPPC   C49 7049   5.367   2.843   4.317
  141DPPC   C50 7050   5.262   2.746   4.263
  142DPPC    C1 7051   1.567   6.006   5.146
  142DPPC    C2 7052   1.575   6.237   5.174
  142DPPC    C3 7053   1.622   6.148   4.964
  142DPPC    N4 7054   1.533   6.133   5.079
  142DPPC    C5 7055   1.394   6.120   5.034
  142DPPC    C6 7056   1.311   6.247   5.014
  142DPPC    O7 7057   1.348   6.329   4.903
  142DPPC    P8 7058   1.297   6.481   4.924
  142DPPC    O9 7059   1.385   6.566   4.841
  142DPPC   O10 7060   1.276   6.504   5.069
  142DPPC   O11 7061   1.155   6.471   4.848
  142DPPC   C12 7062   1.172   6.432   4.711
  142DPPC   C13 7063   1.045   6.458   4.629
  142DPPC   O14 7064   1.040   6.373   4.514
  142DPPC   C15 7065   0.923   6.363   4.446
  142DPPC   O16 7066   0.812   6.392   4.490
  142DPPC   C17 7067   0.937   6.285   4.315
  142DPPC   C18 7068   0.831   6.317   4.208
  142DPPC   C19 7069   0.876   6.230   4.090
  142DPPC   C20 7070   0.778   6.206   3.976
  142DPPC   C21 7071   0.649   6.149   4.037
  142DPPC   C22 7072   0.667   6.002   4.074
  142DPPC   C23 7073   0.537   5.961   4.143
  142DPPC   C24 7074   0.541   5.825   4.213
  142DPPC   C25 7075   0.408   5.750   4.221
  142DPPC   C26 7076   0.311   5.848   4.288
  142DPPC   C27 7077   0.174   5.782   4.309
  142DPPC   C28 7078   0.068   5.869   4.375
  142DPPC   C29 7079  -0.065   5.794   4.392
  142DPPC   C30 7080  -0.070   5.659   4.463
  142DPPC   C31 7081  -0.197   5.577   4.441
  142DPPC   C32 7082   1.039   6.607   4.596
  142DPPC   O33 7083   1.149   6.672   4.531
  142DPPC   C34 7084   1.112   6.799   4.499
  142DPPC   O35 7085   1.026   6.863   4.558
  142DPPC   C36 7086   1.223   6.864   4.415
  142DPPC   C37 7087   1.201   7.014   4.401
  142DPPC   C38 7088   1.091   7.050   4.300
  142DPPC   C39 7089   1.086   7.194   4.250
  142DPPC   C40 7090   0.972   7.224   4.152
  142DPPC   C41 7091   0.976   7.131   4.031
  142DPPC   C42 7092   0.906   7.193   3.910
  142DPPC   C43 7093   0.762   7.208   3.960
  142DPPC   C44 7094   0.676   7.294   3.866
  142DPPC   C45 7095   0.742   7.432   3.868
  142DPPC   C46 7096   0.677   7.515   3.757
  142DPPC   C47 7097   0.737   7.655   3.750
  142DPPC   C48 7098   0.686   7.746   3.638
  142DPPC   C49 7099   0.749   7.697   3.508
  142DPPC   C50 7100   0.897   7.733   3.496
  143DPPC    C1 7101   0.317   0.000   5.434
  143DPPC    C2 7102   0.137   0.144   5.518
  143DPPC    C3 7103   0.355   0.161   5.606
  143DPPC    N4 7104   0.279   0.133   5.484
  143DPPC    C5 7105   0.310   0.230   5.378
  143DPPC    C6 7106   0.271   0.378   5.383
  143DPPC    O7 7107   0.383   0.452   5.432
  143DPPC    P8 7108   0.335   0.604   5.456
  143DPPC    O9 7109   0.458   0.679   5.488
  143DPPC   O10 7110   0.225   0.589   5.554
  143DPPC   O11 7111   0.305   0.630   5.300
  143DPPC   C12 7112   0.399   0.721   5.241
  143DPPC   C13 7113   0.382   0.768   5.097
  143DPPC   O14 7114   0.293   0.880   5.089
  143DPPC   C15 7115   0.347   1.004   5.095
  143DPPC   O16 7116   0.453   1.020   5.154
  143DPPC   C17 7117   0.272   1.120   5.027
  143DPPC   C18 7118   0.168   1.069   4.927
  143DPPC   C19 7119   0.030   1.101   4.985
  143DPPC   C20 7120  -0.086   1.066   4.892
  143DPPC   C21 7121  -0.134   1.191   4.818
  143DPPC   C22 7122  -0.264   1.164   4.742
  143DPPC   C23 7123  -0.232   1.043   4.655
  143DPPC   C24 7124  -0.364   1.003   4.588
  143DPPC   C25 7125  -0.410   1.108   4.487
  143DPPC   C26 7126  -0.547   1.084   4.425
  143DPPC   C27 7127  -0.576   1.198   4.327
  143DPPC   C28 7128  -0.489   1.215   4.202
  143DPPC   C29 7129  -0.518   1.091   4.117
  143DPPC   C30 7130  -0.430   1.098   3.992
  143DPPC   C31 7131  -0.484   1.223   3.922
  143DPPC   C32 7132   0.361   0.643   5.011
  143DPPC   O33 7133   0.311   0.665   4.878
  143DPPC   C34 7134   0.277   0.552   4.812
  143DPPC   O35 7135   0.226   0.463   4.880
  143DPPC   C36 7136   0.233   0.573   4.667
  143DPPC   C37 7137   0.165   0.447   4.613
  143DPPC   C38 7138   0.095   0.459   4.477
  143DPPC   C39 7139  -0.021   0.558   4.494
  143DPPC   C40 7140  -0.102   0.580   4.366
  143DPPC   C41 7141  -0.010   0.645   4.262
  143DPPC   C42 7142  -0.037   0.569   4.132
  143DPPC   C43 7143   0.044   0.623   4.014
  143DPPC   C44 7144   0.032   0.772   3.985
  143DPPC   C45 7145   0.123   0.792   3.863
  143DPPC   C46 7146   0.158   0.936   3.826
  143DPPC   C47 7147   0.247   0.929   3.702
  143DPPC   C48 7148   0.293   1.063   3.645
  143DPPC   C49 7149   0.194   1.173   3.607
  143DPPC   C50 7150   0.263   1.295   3.544
  144DPPC    C1 7151   8.715   0.227   5.886
  144DPPC    C2 7152   8.918   0.343   5.937
  144DPPC    C3 7153   8.913   0.112   5.875
  144DPPC    N4 7154   8.855   0.244   5.847
  144DPPC    C5 7155   8.867   0.279   5.705
  144DPPC    C6 7156   8.871   0.428   5.668
  144DPPC    O7 7157   8.760   0.512   5.699
  144DPPC    P8 7158   8.805   0.663   5.666
  144DPPC    O9 7159   8.939   0.660   5.728
  144DPPC   O10 7160   8.694   0.738   5.729
  144DPPC   O11 7161   8.799   0.658   5.505
  144DPPC   C12 7162   8.664   0.675   5.463
  144DPPC   C13 7163   8.648   0.633   5.317
  144DPPC   O14 7164   8.515   0.653   5.265
  144DPPC   C15 7165   8.495   0.776   5.210
  144DPPC   O16 7166   8.541   0.883   5.249
  144DPPC   C17 7167   8.371   0.791   5.121
  144DPPC   C18 7168   8.392   0.837   4.976
  144DPPC   C19 7169   8.488   0.739   4.909
  144DPPC   C20 7170   8.523   0.778   4.765
  144DPPC   C21 7171   8.395   0.760   4.684
  144DPPC   C22 7172   8.432   0.769   4.535
  144DPPC   C23 7173   8.524   0.890   4.518
  144DPPC   C24 7174   8.548   0.933   4.373
  144DPPC   C25 7175   8.430   0.978   4.287
  144DPPC   C26 7176   8.485   1.040   4.159
  144DPPC   C27 7177   8.557   0.943   4.064
  144DPPC   C28 7178   8.628   1.033   3.963
  144DPPC   C29 7179   8.685   0.960   3.841
  144DPPC   C30 7180   8.565   0.885   3.781
  144DPPC   C31 7181   8.610   0.833   3.644
  144DPPC   C32 7182   8.711   0.494   5.306
  144DPPC   O33 7183   8.706   0.439   5.174
  144DPPC   C34 7184   8.820   0.473   5.109
  144DPPC   O35 7185   8.915   0.517   5.174
  144DPPC   C36 7186   8.843   0.411   4.971
  144DPPC   C37 7187   8.714   0.395   4.891
  144DPPC   C38 7188   8.729   0.273   4.801
  144DPPC   C39 7189   8.607   0.280   4.709
  144DPPC   C40 7190   8.608   0.157   4.618
  144DPPC   C41 7191   8.527   0.171   4.488
  144DPPC   C42 7192   8.536   0.040   4.409
  144DPPC   C43 7193   8.419   0.040   4.310
  144DPPC   C44 7194   8.451  -0.053   4.193
  144DPPC   C45 7195   8.315  -0.082   4.128
  144DPPC   C46 7196   8.252   0.048   4.075
  144DPPC   C47 7197   8.115   0.043   4.007
  144DPPC   C48 7198   8.093   0.167   3.919
  144DPPC   C49 7199   8.125   0.294   3.998
  144DPPC   C50 7200   8.099   0.423   3.920
  145DPPC    C1 7201   8.047   5.564   5.775
  145DPPC    C2 7202   8.296   5.580   5.806
  145DPPC    C3 7203   8.214   5.381   5.741
  145DPPC    N4 7204   8.182   5.524   5.732
  145DPPC    C5 7205   8.186   5.552   5.588
  145DPPC    C6 7206   8.208   5.700   5.551
  145DPPC    O7 7207   8.224   5.719   5.411
  145DPPC    P8 7208   8.228   5.877   5.379
  145DPPC    O9 7209   8.291   5.882   5.246
  145DPPC   O10 7210   8.291   5.941   5.497
  145DPPC   O11 7211   8.069   5.861   5.367
  145DPPC   C12 7212   8.043   5.829   5.230
  145DPPC   C13 7213   7.900   5.783   5.198
  145DPPC   O14 7214   7.900   5.718   5.070
  145DPPC   C15 7215   7.803   5.627   5.041
  145DPPC   O16 7216   7.723   5.599   5.130
  145DPPC   C17 7217   7.777   5.600   4.893
  145DPPC   C18 7218   7.668   5.703   4.861
  145DPPC   C19 7219   7.627   5.671   4.717
  145DPPC   C20 7220   7.488   5.609   4.725
  145DPPC   C21 7221   7.450   5.550   4.589
  145DPPC   C22 7222   7.420   5.673   4.503
  145DPPC   C23 7223   7.309   5.764   4.556
  145DPPC   C24 7224   7.319   5.902   4.491
  145DPPC   C25 7225   7.186   5.976   4.476
  145DPPC   C26 7226   7.227   6.115   4.427
  145DPPC   C27 7227   7.274   6.124   4.282
  145DPPC   C28 7228   7.158   6.096   4.186
  145DPPC   C29 7229   7.207   6.070   4.043
  145DPPC   C30 7230   7.289   5.941   4.041
  145DPPC   C31 7231   7.336   5.915   3.898
  145DPPC   C32 7232   7.798   5.892   5.229
  145DPPC   O33 7233   7.804   6.006   5.143
  145DPPC   C34 7234   7.694   6.084   5.160
  145DPPC   O35 7235   7.620   6.073   5.258
  145DPPC   C36 7236   7.650   6.156   5.033
  145DPPC   C37 7237   7.555   6.071   4.947
  145DPPC   C38 7238   7.499   6.148   4.827
  145DPPC   C39 7239   7.594   6.189   4.715
  145DPPC   C40 7240   7.523   6.268   4.604
  145DPPC   C41 7241   7.607   6.323   4.488
  145DPPC   C42 7242   7.657   6.195   4.420
  145DPPC   C43 7243   7.716   6.219   4.281
  145DPPC   C44 7244   7.606   6.279   4.194
  145DPPC   C45 7245   7.657   6.302   4.052
  145DPPC   C46 7246   7.542   6.373   3.980
  145DPPC   C47 7247   7.598   6.409   3.842
  145DPPC   C48 7248   7.627   6.283   3.759
  145DPPC   C49 7249   7.684   6.301   3.618
  145DPPC   C50 7250   7.820   6.368   3.636
  146DPPC    C1 7251   6.914   4.107   6.052
  146DPPC    C2 7252   7.115   4.121   6.184
  146DPPC    C3 7253   6.925   4.062   6.290
  146DPPC    N4 7254   6.992   4.045   6.160
  146DPPC    C5 7255   7.035   3.906   6.137
  146DPPC    C6 7256   6.927   3.812   6.082
  146DPPC    O7 7257   6.970   3.677   6.060
  146DPPC    P8 7258   6.847   3.581   6.023
  146DPPC    O9 7259   6.722   3.628   6.088
  146DPPC   O10 7260   6.892   3.440   6.025
  146DPPC   O11 7261   6.829   3.619   5.867
  146DPPC   C12 7262   6.915   3.538   5.787
  146DPPC   C13 7263   6.937   3.567   5.638
  146DPPC   O14 7264   7.041   3.660   5.605
  146DPPC   C15 7265   7.173   3.632   5.626
  146DPPC   O16 7266   7.210   3.562   5.721
  146DPPC   C17 7267   7.264   3.739   5.567
  146DPPC   C18 7268   7.198   3.824   5.459
  146DPPC   C19 7269   7.222   3.758   5.323
  146DPPC   C20 7270   7.375   3.757   5.315
  146DPPC   C21 7271   7.413   3.708   5.176
  146DPPC   C22 7272   7.354   3.812   5.080
  146DPPC   C23 7273   7.409   3.785   4.940
  146DPPC   C24 7274   7.561   3.805   4.927
  146DPPC   C25 7275   7.589   3.806   4.777
  146DPPC   C26 7276   7.581   3.663   4.724
  146DPPC   C27 7277   7.621   3.678   4.577
  146DPPC   C28 7278   7.553   3.803   4.521
  146DPPC   C29 7279   7.601   3.842   4.381
  146DPPC   C30 7280   7.533   3.974   4.343
  146DPPC   C31 7281   7.517   3.978   4.191
  146DPPC   C32 7282   6.810   3.620   5.570
  146DPPC   O33 7283   6.714   3.521   5.531
  146DPPC   C34 7284   6.611   3.572   5.459
  146DPPC   O35 7285   6.613   3.682   5.406
  146DPPC   C36 7286   6.489   3.479   5.459
  146DPPC   C37 7287   6.422   3.478   5.321
  146DPPC   C38 7288   6.332   3.361   5.283
  146DPPC   C39 7289   6.240   3.418   5.174
  146DPPC   C40 7290   6.308   3.449   5.040
  146DPPC   C41 7291   6.216   3.512   4.935
  146DPPC   C42 7292   6.284   3.531   4.799
  146DPPC   C43 7293   6.186   3.608   4.710
  146DPPC   C44 7294   6.217   3.568   4.565
  146DPPC   C45 7295   6.104   3.626   4.480
  146DPPC   C46 7296   6.117   3.558   4.344
  146DPPC   C47 7297   6.014   3.626   4.252
  146DPPC   C48 7298   6.005   3.573   4.109
  146DPPC   C49 7299   5.887   3.633   4.033
  146DPPC   C50 7300   5.755   3.592   4.099
  147DPPC    C1 7301   8.270   3.054   6.368
  147DPPC    C2 7302   8.124   2.865   6.372
  147DPPC    C3 7303   8.034   3.087   6.405
  147DPPC    N4 7304   8.135   3.007   6.335
  147DPPC    C5 7305   8.113   3.003   6.189
  147DPPC    C6 7306   8.122   3.135   6.113
  147DPPC    O7 7307   8.024   3.238   6.128
  147DPPC    P8 7308   8.101   3.378   6.109
  147DPPC    O9 7309   8.220   3.351   6.193
  147DPPC   O10 7310   8.014   3.496   6.125
  147DPPC   O11 7311   8.135   3.350   5.954
  147DPPC   C12 7312   8.013   3.394   5.893
  147DPPC   C13 7313   8.056   3.384   5.746
  147DPPC   O14 7314   7.963   3.451   5.660
  147DPPC   C15 7315   8.008   3.572   5.616
  147DPPC   O16 7316   8.104   3.622   5.674
  147DPPC   C17 7317   7.910   3.637   5.518
  147DPPC   C18 7318   7.936   3.595   5.373
  147DPPC   C19 7319   7.800   3.607   5.304
  147DPPC   C20 7320   7.821   3.570   5.157
  147DPPC   C21 7321   7.919   3.673   5.098
  147DPPC   C22 7322   7.940   3.640   4.950
  147DPPC   C23 7323   8.022   3.750   4.883
  147DPPC   C24 7324   8.025   3.704   4.737
  147DPPC   C25 7325   8.051   3.827   4.650
  147DPPC   C26 7326   8.063   3.793   4.502
  147DPPC   C27 7327   8.063   3.920   4.417
  147DPPC   C28 7328   7.942   4.008   4.449
  147DPPC   C29 7329   7.950   4.143   4.378
  147DPPC   C30 7330   7.812   4.211   4.386
  147DPPC   C31 7331   7.810   4.332   4.294
  147DPPC   C32 7332   8.088   3.236   5.724
  147DPPC   O33 7333   7.982   3.151   5.768
  147DPPC   C34 7334   8.005   3.018   5.780
  147DPPC   O35 7335   8.109   2.959   5.810
  147DPPC   C36 7336   7.878   2.935   5.808
  147DPPC   C37 7337   7.884   2.795   5.747
  147DPPC   C38 7338   7.885   2.791   5.595
  147DPPC   C39 7339   7.860   2.649   5.544
  147DPPC   C40 7340   7.868   2.656   5.392
  147DPPC   C41 7341   7.765   2.743   5.319
  147DPPC   C42 7342   7.792   2.730   5.168
  147DPPC   C43 7343   7.678   2.809   5.104
  147DPPC   C44 7344   7.688   2.789   4.953
  147DPPC   C45 7345   7.571   2.866   4.892
  147DPPC   C46 7346   7.565   2.866   4.739
  147DPPC   C47 7347   7.434   2.937   4.705
  147DPPC   C48 7348   7.385   2.942   4.560
  147DPPC   C49 7349   7.236   2.970   4.538
  147DPPC   C50 7350   7.195   2.973   4.391
  148DPPC    C1 7351   2.650   6.481   5.654
  148DPPC    C2 7352   2.874   6.505   5.718
  148DPPC    C3 7353   2.806   6.533   5.487
  148DPPC    N4 7354   2.771   6.560   5.628
  148DPPC    C5 7355   2.763   6.703   5.658
  148DPPC    C6 7356   2.845   6.809   5.583
  148DPPC    O7 7357   2.985   6.783   5.575
  148DPPC    P8 7358   3.072   6.917   5.599
  148DPPC    O9 7359   3.213   6.876   5.587
  148DPPC   O10 7360   3.034   6.983   5.726
  148DPPC   O11 7361   3.011   6.993   5.471
  148DPPC   C12 7362   3.070   6.967   5.344
  148DPPC   C13 7363   2.978   7.011   5.230
  148DPPC   O14 7364   3.012   6.943   5.109
  148DPPC   C15 7365   2.990   6.811   5.084
  148DPPC   O16 7366   2.923   6.746   5.165
  148DPPC   C17 7367   3.047   6.747   4.958
  148DPPC   C18 7368   2.952   6.658   4.877
  148DPPC   C19 7369   3.015   6.583   4.759
  148DPPC   C20 7370   3.103   6.692   4.697
  148DPPC   C21 7371   3.199   6.612   4.608
  148DPPC   C22 7372   3.257   6.703   4.500
  148DPPC   C23 7373   3.162   6.786   4.414
  148DPPC   C24 7374   3.241   6.858   4.305
  148DPPC   C25 7375   3.300   6.765   4.199
  148DPPC   C26 7376   3.344   6.844   4.076
  148DPPC   C27 7377   3.456   6.762   4.011
  148DPPC   C28 7378   3.526   6.838   3.898
  148DPPC   C29 7379   3.615   6.744   3.817
  148DPPC   C30 7380   3.668   6.815   3.692
  148DPPC   C31 7381   3.792   6.731   3.657
  148DPPC   C32 7382   2.994   7.163   5.233
  148DPPC   O33 7383   3.126   7.215   5.253
  148DPPC   C34 7384   3.126   7.351   5.267
  148DPPC   O35 7385   3.018   7.409   5.265
  148DPPC   C36 7386   3.254   7.434   5.256
  148DPPC   C37 7387   3.294   7.494   5.121
  148DPPC   C38 7388   3.418   7.582   5.134
  148DPPC   C39 7389   3.491   7.604   5.001
  148DPPC   C40 7390   3.540   7.467   4.953
  148DPPC   C41 7391   3.599   7.484   4.813
  148DPPC   C42 7392   3.707   7.592   4.805
  148DPPC   C43 7393   3.755   7.605   4.661
  148DPPC   C44 7394   3.870   7.514   4.617
  148DPPC   C45 7395   3.916   7.544   4.474
  148DPPC   C46 7396   3.978   7.419   4.411
  148DPPC   C47 7397   4.004   7.456   4.264
  148DPPC   C48 7398   4.085   7.352   4.186
  148DPPC   C49 7399   4.097   7.392   4.039
  148DPPC   C50 7400   4.190   7.295   3.965
  149DPPC    C1 7401   5.213   0.487   5.482
  149DPPC    C2 7402   5.275   0.542   5.257
  149DPPC    C3 7403   5.112   0.660   5.383
  149DPPC    N4 7404   5.245   0.597   5.390
  149DPPC    C5 7405   5.340   0.697   5.439
  149DPPC    C6 7406   5.428   0.676   5.562
  149DPPC    O7 7407   5.522   0.778   5.600
  149DPPC    P8 7408   5.637   0.723   5.698
  149DPPC    O9 7409   5.596   0.591   5.750
  149DPPC   O10 7410   5.707   0.826   5.779
  149DPPC   O11 7411   5.727   0.661   5.580
  149DPPC   C12 7412   5.818   0.760   5.529
  149DPPC   C13 7413   5.843   0.745   5.379
  149DPPC   O14 7414   5.961   0.816   5.337
  149DPPC   C15 7415   6.070   0.765   5.275
  149DPPC   O16 7416   6.098   0.646   5.288
  149DPPC   C17 7417   6.168   0.871   5.225
  149DPPC   C18 7418   6.152   0.879   5.073
  149DPPC   C19 7419   6.263   0.958   5.004
  149DPPC   C20 7420   6.258   0.939   4.852
  149DPPC   C21 7421   6.343   1.033   4.767
  149DPPC   C22 7422   6.354   0.965   4.630
  149DPPC   C23 7423   6.433   1.062   4.543
  149DPPC   C24 7424   6.463   1.010   4.402
  149DPPC   C25 7425   6.567   1.114   4.359
  149DPPC   C26 7426   6.555   1.176   4.220
  149DPPC   C27 7427   6.676   1.269   4.212
  149DPPC   C28 7428   6.672   1.339   4.076
  149DPPC   C29 7429   6.771   1.457   4.074
  149DPPC   C30 7430   6.754   1.545   3.951
  149DPPC   C31 7431   6.625   1.628   3.946
  149DPPC   C32 7432   5.708   0.769   5.311
  149DPPC   O33 7433   5.707   0.758   5.169
  149DPPC   C34 7434   5.587   0.804   5.125
  149DPPC   O35 7435   5.483   0.807   5.190
  149DPPC   C36 7436   5.574   0.812   4.972
  149DPPC   C37 7437   5.587   0.955   4.920
  149DPPC   C38 7438   5.586   0.972   4.768
  149DPPC   C39 7439   5.706   0.934   4.680
  149DPPC   C40 7440   5.704   0.979   4.534
  149DPPC   C41 7441   5.823   0.925   4.455
  149DPPC   C42 7442   5.935   1.022   4.417
  149DPPC   C43 7443   5.859   1.136   4.350
  149DPPC   C44 7444   5.932   1.184   4.225
  149DPPC   C45 7445   5.856   1.304   4.168
  149DPPC   C46 7446   5.901   1.361   4.034
  149DPPC   C47 7447   5.818   1.481   3.987
  149DPPC   C48 7448   5.668   1.458   3.967
  149DPPC   C49 7449   5.594   1.591   3.951
  149DPPC   C50 7450   5.441   1.586   3.945
  150DPPC    C1 7451   4.700   0.892   6.089
  150DPPC    C2 7452   4.833   0.718   6.017
  150DPPC    C3 7453   4.742   0.878   5.858
  150DPPC    N4 7454   4.803   0.860   5.990
  150DPPC    C5 7455   4.912   0.957   6.006
  150DPPC    C6 7456   5.040   0.942   5.923
  150DPPC    O7 7457   5.032   0.973   5.784
  150DPPC    P8 7458   5.165   0.947   5.696
  150DPPC    O9 7459   5.192   0.808   5.740
  150DPPC   O10 7460   5.266   1.052   5.721
  150DPPC   O11 7461   5.099   0.944   5.550
  150DPPC   C12 7462   5.054   1.078   5.531
  150DPPC   C13 7463   4.925   1.111   5.455
  150DPPC   O14 7464   4.799   1.074   5.514
  150DPPC   C15 7465   4.714   1.176   5.541
  150DPPC   O16 7466   4.742   1.292   5.512
  150DPPC   C17 7467   4.572   1.141   5.586
  150DPPC   C18 7468   4.472   1.237   5.523
  150DPPC   C19 7469   4.392   1.153   5.423
  150DPPC   C20 7470   4.284   1.240   5.359
  150DPPC   C21 7471   4.188   1.169   5.264
  150DPPC   C22 7472   4.094   1.273   5.203
  150DPPC   C23 7473   3.962   1.196   5.186
  150DPPC   C24 7474   3.852   1.276   5.116
  150DPPC   C25 7475   3.739   1.185   5.067
  150DPPC   C26 7476   3.641   1.269   4.985
  150DPPC   C27 7477   3.523   1.175   4.956
  150DPPC   C28 7478   3.406   1.271   4.936
  150DPPC   C29 7479   3.285   1.206   4.869
  150DPPC   C30 7480   3.332   1.170   4.728
  150DPPC   C31 7481   3.219   1.088   4.664
  150DPPC   C32 7482   4.941   1.050   5.315
  150DPPC   O33 7483   5.059   1.087   5.243
  150DPPC   C34 7484   5.110   1.008   5.145
  150DPPC   O35 7485   5.072   0.891   5.141
  150DPPC   C36 7486   5.210   1.071   5.048
  150DPPC   C37 7487   5.142   1.106   4.915
  150DPPC   C38 7488   5.228   1.193   4.823
  150DPPC   C39 7489   5.159   1.225   4.690
  150DPPC   C40 7490   5.144   1.104   4.598
  150DPPC   C41 7491   5.063   1.153   4.478
  150DPPC   C42 7492   5.020   1.044   4.380
  150DPPC   C43 7493   4.888   1.076   4.308
  150DPPC   C44 7494   4.775   1.105   4.407
  150DPPC   C45 7495   4.641   1.113   4.334
  150DPPC   C46 7496   4.544   1.193   4.422
  150DPPC   C47 7497   4.403   1.162   4.373
  150DPPC   C48 7498   4.406   1.195   4.224
  150DPPC   C49 7499   4.264   1.199   4.167
  150DPPC   C50 7500   4.264   1.245   4.021
  151DPPC    C1 7501   0.996   0.898   5.367
  151DPPC    C2 7502   1.124   0.739   5.251
  151DPPC    C3 7503   1.016   0.681   5.458
  151DPPC    N4 7504   1.003   0.756   5.332
  151DPPC    C5 7505   0.892   0.725   5.240
  151DPPC    C6 7506   0.805   0.605   5.279
  151DPPC    O7 7507   0.712   0.563   5.179
  151DPPC    P8 7508   0.682   0.406   5.194
  151DPPC    O9 7509   0.546   0.360   5.157
  151DPPC   O10 7510   0.754   0.358   5.314
  151DPPC   O11 7511   0.764   0.383   5.057
  151DPPC   C12 7512   0.670   0.399   4.950
  151DPPC   C13 7513   0.723   0.427   4.809
  151DPPC   O14 7514   0.761   0.313   4.730
  151DPPC   C15 7515   0.877   0.246   4.750
  151DPPC   O16 7516   0.954   0.270   4.844
  151DPPC   C17 7517   0.898   0.131   4.652
  151DPPC   C18 7518   0.935   0.175   4.510
  151DPPC   C19 7519   0.962   0.053   4.420
  151DPPC   C20 7520   1.044   0.090   4.297
  151DPPC   C21 7521   0.967   0.180   4.200
  151DPPC   C22 7522   0.858   0.106   4.123
  151DPPC   C23 7523   0.918   0.009   4.021
  151DPPC   C24 7524   0.812  -0.071   3.945
  151DPPC   C25 7525   0.719   0.021   3.866
  151DPPC   C26 7526   0.621  -0.047   3.770
  151DPPC   C27 7527   0.558   0.054   3.674
  151DPPC   C28 7528   0.481   0.161   3.752
  151DPPC   C29 7529   0.390   0.260   3.679
  151DPPC   C30 7530   0.350   0.381   3.763
  151DPPC   C31 7531   0.278   0.495   3.690
  151DPPC   C32 7532   0.824   0.542   4.820
  151DPPC   O33 7533   0.755   0.656   4.874
  151DPPC   C34 7534   0.825   0.770   4.897
  151DPPC   O35 7535   0.947   0.764   4.886
  151DPPC   C36 7536   0.749   0.902   4.908
  151DPPC   C37 7537   0.678   0.927   4.775
  151DPPC   C38 7538   0.529   0.960   4.774
  151DPPC   C39 7539   0.468   0.940   4.635
  151DPPC   C40 7540   0.317   0.955   4.621
  151DPPC   C41 7541   0.278   0.942   4.473
  151DPPC   C42 7542   0.131   0.983   4.464
  151DPPC   C43 7543   0.080   0.991   4.320
  151DPPC   C44 7544   0.176   1.094   4.260
  151DPPC   C45 7545   0.150   1.245   4.272
  151DPPC   C46 7546   0.232   1.331   4.176
  151DPPC   C47 7547   0.182   1.323   4.032
  151DPPC   C48 7548   0.050   1.399   4.013
  151DPPC   C49 7549   0.012   1.414   3.865
  151DPPC   C50 7550  -0.134   1.456   3.848
  152DPPC    C1 7551   4.871   1.806   6.238
  152DPPC    C2 7552   5.083   1.819   6.116
  152DPPC    C3 7553   5.017   1.615   6.196
  152DPPC    N4 7554   4.962   1.740   6.143
  152DPPC    C5 7555   4.895   1.720   6.013
  152DPPC    C6 7556   4.785   1.619   5.982
  152DPPC    O7 7557   4.654   1.656   5.937
  152DPPC    P8 7558   4.550   1.533   5.927
  152DPPC    O9 7559   4.452   1.530   6.037
  152DPPC   O10 7560   4.621   1.414   5.875
  152DPPC   O11 7561   4.465   1.618   5.820
  152DPPC   C12 7562   4.539   1.629   5.698
  152DPPC   C13 7563   4.462   1.707   5.592
  152DPPC   O14 7564   4.467   1.644   5.463
  152DPPC   C15 7565   4.340   1.637   5.414
  152DPPC   O16 7566   4.246   1.614   5.489
  152DPPC   C17 7567   4.331   1.613   5.263
  152DPPC   C18 7568   4.366   1.741   5.187
  152DPPC   C19 7569   4.514   1.778   5.166
  152DPPC   C20 7570   4.514   1.909   5.088
  152DPPC   C21 7571   4.653   1.973   5.081
  152DPPC   C22 7572   4.694   2.005   4.937
  152DPPC   C23 7573   4.828   2.078   4.944
  152DPPC   C24 7574   4.875   2.106   4.801
  152DPPC   C25 7575   4.797   2.230   4.758
  152DPPC   C26 7576   4.827   2.255   4.610
  152DPPC   C27 7577   4.799   2.131   4.524
  152DPPC   C28 7578   4.919   2.097   4.435
  152DPPC   C29 7579   4.899   1.972   4.349
  152DPPC   C30 7580   4.988   1.960   4.225
  152DPPC   C31 7581   4.907   2.044   4.126
  152DPPC   C32 7582   4.483   1.859   5.597
  152DPPC   O33 7583   4.623   1.885   5.585
  152DPPC   C34 7584   4.665   2.009   5.547
  152DPPC   O35 7585   4.589   2.102   5.524
  152DPPC   C36 7586   4.808   2.014   5.493
  152DPPC   C37 7587   4.833   1.889   5.409
  152DPPC   C38 7588   4.971   1.891   5.341
  152DPPC   C39 7589   4.976   1.769   5.248
  152DPPC   C40 7590   5.101   1.798   5.166
  152DPPC   C41 7591   5.126   1.693   5.057
  152DPPC   C42 7592   5.013   1.710   4.954
  152DPPC   C43 7593   5.037   1.630   4.826
  152DPPC   C44 7594   4.946   1.675   4.712
  152DPPC   C45 7595   4.958   1.580   4.594
  152DPPC   C46 7596   4.887   1.635   4.469
  152DPPC   C47 7597   4.907   1.547   4.346
  152DPPC   C48 7598   4.802   1.580   4.240
  152DPPC   C49 7599   4.818   1.485   4.122
  152DPPC   C50 7600   4.699   1.487   4.027
  153DPPC    C1 7601   2.037   1.283   5.791
  153DPPC    C2 7602   2.198   1.151   5.901
  153DPPC    C3 7603   1.966   1.093   5.888
  153DPPC    N4 7604   2.081   1.144   5.812
  153DPPC    C5 7605   2.085   1.077   5.681
  153DPPC    C6 7606   2.125   0.929   5.685
  153DPPC    O7 7607   2.262   0.908   5.720
  153DPPC    P8 7608   2.269   0.760   5.784
  153DPPC    O9 7609   2.131   0.725   5.825
  153DPPC   O10 7610   2.389   0.752   5.869
  153DPPC   O11 7611   2.301   0.687   5.644
  153DPPC   C12 7612   2.428   0.727   5.592
  153DPPC   C13 7613   2.497   0.627   5.498
  153DPPC   O14 7614   2.617   0.675   5.437
  153DPPC   C15 7615   2.703   0.588   5.377
  153DPPC   O16 7616   2.700   0.469   5.407
  153DPPC   C17 7617   2.796   0.635   5.264
  153DPPC   C18 7618   2.746   0.582   5.130
  153DPPC   C19 7619   2.837   0.616   5.011
  153DPPC   C20 7620   2.775   0.562   4.882
  153DPPC   C21 7621   2.903   0.548   4.798
  153DPPC   C22 7622   2.888   0.462   4.672
  153DPPC   C23 7623   3.008   0.468   4.578
  153DPPC   C24 7624   2.969   0.386   4.455
  153DPPC   C25 7625   3.036   0.425   4.324
  153DPPC   C26 7626   2.994   0.355   4.194
  153DPPC   C27 7627   3.062   0.420   4.074
  153DPPC   C28 7628   3.024   0.358   3.939
  153DPPC   C29 7629   3.040   0.432   3.805
  153DPPC   C30 7630   2.956   0.365   3.696
  153DPPC   C31 7631   3.022   0.232   3.657
  153DPPC   C32 7632   2.387   0.595   5.397
  153DPPC   O33 7633   2.417   0.502   5.292
  153DPPC   C34 7634   2.314   0.448   5.221
  153DPPC   O35 7635   2.200   0.479   5.255
  153DPPC   C36 7636   2.339   0.379   5.087
  153DPPC   C37 7637   2.248   0.405   4.967
  153DPPC   C38 7638   2.306   0.343   4.840
  153DPPC   C39 7639   2.201   0.341   4.729
  153DPPC   C40 7640   2.212   0.457   4.630
  153DPPC   C41 7641   2.099   0.449   4.528
  153DPPC   C42 7642   2.102   0.569   4.434
  153DPPC   C43 7643   1.957   0.573   4.384
  153DPPC   C44 7644   1.854   0.605   4.492
  153DPPC   C45 7645   1.718   0.585   4.426
  153DPPC   C46 7646   1.615   0.662   4.509
  153DPPC   C47 7647   1.650   0.811   4.500
  153DPPC   C48 7648   1.562   0.906   4.581
  153DPPC   C49 7649   1.594   1.044   4.523
  153DPPC   C50 7650   1.499   1.142   4.592
  154DPPC    C1 7651   9.107   7.594   5.689
  154DPPC    C2 7652   9.195   7.807   5.655
  154DPPC    C3 7653   9.053   7.710   5.490
  154DPPC    N4 7654   9.074   7.727   5.635
  154DPPC    C5 7655   8.956   7.775   5.708
  154DPPC    C6 7656   8.900   7.917   5.696
  154DPPC    O7 7657   8.821   7.932   5.577
  154DPPC    P8 7658   8.797   8.087   5.542
  154DPPC    O9 7659   8.774   8.162   5.668
  154DPPC   O10 7660   8.708   8.110   5.425
  154DPPC   O11 7661   8.948   8.111   5.492
  154DPPC   C12 7662   8.953   8.164   5.359
  154DPPC   C13 7663   9.089   8.222   5.317
  154DPPC   O14 7664   9.084   8.301   5.197
  154DPPC   C15 7665   9.190   8.374   5.153
  154DPPC   O16 7666   9.292   8.399   5.218
  154DPPC   C17 7667   9.163   8.435   5.016
  154DPPC   C18 7668   9.251   8.552   4.972
  154DPPC   C19 7669   9.198   8.627   4.850
  154DPPC   C20 7670   9.300   8.725   4.792
  154DPPC   C21 7671   9.306   8.696   4.642
  154DPPC   C22 7672   9.163   8.733   4.600
  154DPPC   C23 7673   9.152   8.726   4.447
  154DPPC   C24 7674   9.011   8.741   4.389
  154DPPC   C25 7675   9.012   8.681   4.249
  154DPPC   C26 7676   8.875   8.713   4.188
  154DPPC   C27 7677   8.838   8.638   4.059
  154DPPC   C28 7678   8.927   8.685   3.944
  154DPPC   C29 7679   8.895   8.610   3.815
  154DPPC   C30 7680   8.912   8.462   3.849
  154DPPC   C31 7681   8.893   8.372   3.727
  154DPPC   C32 7682   9.166   8.092   5.293
  154DPPC   O33 7683   9.105   7.997   5.205
  154DPPC   C34 7684   9.168   7.887   5.157
  154DPPC   O35 7685   9.284   7.854   5.182
  154DPPC   C36 7686   9.087   7.802   5.058
  154DPPC   C37 7687   9.013   7.885   4.953
  154DPPC   C38 7688   8.944   7.798   4.848
  154DPPC   C39 7689   8.856   7.869   4.745
  154DPPC   C40 7690   8.785   7.769   4.654
  154DPPC   C41 7691   8.658   7.823   4.588
  154DPPC   C42 7692   8.605   7.758   4.460
  154DPPC   C43 7693   8.712   7.731   4.354
  154DPPC   C44 7694   8.668   7.658   4.227
  154DPPC   C45 7695   8.799   7.633   4.151
  154DPPC   C46 7696   8.800   7.493   4.090
  154DPPC   C47 7697   8.930   7.477   4.010
  154DPPC   C48 7698   8.933   7.570   3.888
  154DPPC   C49 7699   9.078   7.572   3.838
  154DPPC   C50 7700   9.106   7.656   3.713
  155DPPC    C1 7701   3.699   4.114   6.695
  155DPPC    C2 7702   3.659   3.875   6.688
  155DPPC    C3 7703   3.501   4.027   6.773
  155DPPC    N4 7704   3.600   4.008   6.667
  155DPPC    C5 7705   3.562   4.042   6.529
  155DPPC    C6 7706   3.449   3.966   6.461
  155DPPC    O7 7707   3.420   4.029   6.336
  155DPPC    P8 7708   3.284   3.978   6.267
  155DPPC    O9 7709   3.230   4.095   6.195
  155DPPC   O10 7710   3.215   3.891   6.366
  155DPPC   O11 7711   3.363   3.880   6.167
  155DPPC   C12 7712   3.456   3.942   6.078
  155DPPC   C13 7713   3.504   3.848   5.967
  155DPPC   O14 7714   3.589   3.923   5.879
  155DPPC   C15 7715   3.704   3.869   5.829
  155DPPC   O16 7716   3.779   3.812   5.907
  155DPPC   C17 7717   3.750   3.927   5.695
  155DPPC   C18 7718   3.663   3.894   5.574
  155DPPC   C19 7719   3.730   3.954   5.450
  155DPPC   C20 7720   3.661   3.916   5.319
  155DPPC   C21 7721   3.724   4.008   5.214
  155DPPC   C22 7722   3.618   4.017   5.104
  155DPPC   C23 7723   3.685   4.097   4.993
  155DPPC   C24 7724   3.610   4.098   4.860
  155DPPC   C25 7725   3.713   4.147   4.758
  155DPPC   C26 7726   3.680   4.134   4.609
  155DPPC   C27 7727   3.809   4.128   4.527
  155DPPC   C28 7728   3.783   4.104   4.378
  155DPPC   C29 7729   3.741   4.212   4.278
  155DPPC   C30 7730   3.729   4.150   4.138
  155DPPC   C31 7731   3.712   4.271   4.046
  155DPPC   C32 7732   3.383   3.788   5.896
  155DPPC   O33 7733   3.407   3.684   5.801
  155DPPC   C34 7734   3.298   3.630   5.739
  155DPPC   O35 7735   3.186   3.652   5.784
  155DPPC   C36 7736   3.329   3.527   5.630
  155DPPC   C37 7737   3.379   3.583   5.497
  155DPPC   C38 7738   3.386   3.468   5.396
  155DPPC   C39 7739   3.400   3.523   5.254
  155DPPC   C40 7740   3.409   3.408   5.153
  155DPPC   C41 7741   3.382   3.459   5.011
  155DPPC   C42 7742   3.404   3.333   4.926
  155DPPC   C43 7743   3.434   3.382   4.784
  155DPPC   C44 7744   3.454   3.277   4.675
  155DPPC   C45 7745   3.505   3.327   4.540
  155DPPC   C46 7746   3.530   3.211   4.444
  155DPPC   C47 7747   3.581   3.251   4.305
  155DPPC   C48 7748   3.626   3.123   4.235
  155DPPC   C49 7749   3.655   3.159   4.089
  155DPPC   C50 7750   3.538   3.189   3.996
  156DPPC    C1 7751   7.390   2.631   6.310
  156DPPC    C2 7752   7.169   2.622   6.407
  156DPPC    C3 7753   7.234   2.799   6.264
  156DPPC    N4 7754   7.247   2.655   6.287
  156DPPC    C5 7755   7.214   2.581   6.163
  156DPPC    C6 7756   7.233   2.430   6.160
  156DPPC    O7 7757   7.154   2.380   6.051
  156DPPC    P8 7758   7.207   2.232   6.018
  156DPPC    O9 7759   7.120   2.169   5.915
  156DPPC   O10 7760   7.253   2.169   6.144
  156DPPC   O11 7761   7.334   2.273   5.929
  156DPPC   C12 7762   7.293   2.368   5.830
  156DPPC   C13 7763   7.402   2.408   5.730
  156DPPC   O14 7764   7.357   2.494   5.624
  156DPPC   C15 7765   7.351   2.626   5.654
  156DPPC   O16 7766   7.369   2.650   5.774
  156DPPC   C17 7767   7.313   2.726   5.545
  156DPPC   C18 7768   7.410   2.740   5.427
  156DPPC   C19 7769   7.326   2.823   5.328
  156DPPC   C20 7770   7.200   2.746   5.288
  156DPPC   C21 7771   7.096   2.822   5.206
  156DPPC   C22 7772   7.001   2.718   5.146
  156DPPC   C23 7773   6.899   2.790   5.058
  156DPPC   C24 7774   6.983   2.865   4.955
  156DPPC   C25 7775   6.915   2.945   4.844
  156DPPC   C26 7776   6.818   3.050   4.897
  156DPPC   C27 7777   6.831   3.192   4.841
  156DPPC   C28 7778   6.718   3.216   4.740
  156DPPC   C29 7779   6.748   3.341   4.657
  156DPPC   C30 7780   6.637   3.363   4.554
  156DPPC   C31 7781   6.660   3.488   4.467
  156DPPC   C32 7782   7.492   2.287   5.703
  156DPPC   O33 7783   7.431   2.166   5.659
  156DPPC   C34 7784   7.517   2.063   5.639
  156DPPC   O35 7785   7.629   2.063   5.691
  156DPPC   C36 7786   7.471   1.943   5.556
  156DPPC   C37 7787   7.590   1.890   5.476
  156DPPC   C38 7788   7.552   1.768   5.391
  156DPPC   C39 7789   7.463   1.808   5.273
  156DPPC   C40 7790   7.412   1.690   5.190
  156DPPC   C41 7791   7.317   1.735   5.080
  156DPPC   C42 7792   7.182   1.779   5.138
  156DPPC   C43 7793   7.091   1.848   5.037
  156DPPC   C44 7794   6.941   1.863   5.065
  156DPPC   C45 7795   6.886   1.949   4.951
  156DPPC   C46 7796   6.734   1.934   4.953
  156DPPC   C47 7797   6.672   1.981   4.821
  156DPPC   C48 7798   6.697   1.869   4.720
  156DPPC   C49 7799   6.650   1.908   4.579
  156DPPC   C50 7800   6.687   2.049   4.534
  157DPPC    C1 7801   0.283   0.959   5.561
  157DPPC    C2 7802   0.198   1.133   5.677
  157DPPC    C3 7803   0.438   1.102   5.671
  157DPPC    N4 7804   0.313   1.099   5.593
  157DPPC    C5 7805   0.330   1.170   5.465
  157DPPC    C6 7806   0.366   1.318   5.472
  157DPPC    O7 7807   0.275   1.411   5.532
  157DPPC    P8 7808   0.362   1.521   5.611
  157DPPC    O9 7809   0.441   1.438   5.704
  157DPPC   O10 7810   0.258   1.623   5.643
  157DPPC   O11 7811   0.458   1.583   5.498
  157DPPC   C12 7812   0.390   1.692   5.437
  157DPPC   C13 7813   0.466   1.750   5.318
  157DPPC   O14 7814   0.411   1.867   5.255
  157DPPC   C15 7815   0.407   1.984   5.325
  157DPPC   O16 7816   0.439   1.995   5.443
  157DPPC   C17 7817   0.359   2.104   5.243
  157DPPC   C18 7818   0.381   2.095   5.092
  157DPPC   C19 7819   0.523   2.135   5.048
  157DPPC   C20 7820   0.528   2.121   4.896
  157DPPC   C21 7821   0.535   1.973   4.858
  157DPPC   C22 7822   0.560   1.961   4.707
  157DPPC   C23 7823   0.561   1.817   4.654
  157DPPC   C24 7824   0.561   1.828   4.501
  157DPPC   C25 7825   0.455   1.927   4.451
  157DPPC   C26 7826   0.443   1.918   4.299
  157DPPC   C27 7827   0.444   1.773   4.251
  157DPPC   C28 7828   0.443   1.779   4.098
  157DPPC   C29 7829   0.425   1.634   4.051
  157DPPC   C30 7830   0.410   1.619   3.899
  157DPPC   C31 7831   0.415   1.475   3.850
  157DPPC   C32 7832   0.474   1.632   5.221
  157DPPC   O33 7833   0.342   1.587   5.188
  157DPPC   C34 7834   0.329   1.481   5.103
  157DPPC   O35 7835   0.419   1.399   5.088
  157DPPC   C36 7836   0.188   1.459   5.048
  157DPPC   C37 7837   0.106   1.585   5.021
  157DPPC   C38 7838   0.177   1.687   4.931
  157DPPC   C39 7839   0.086   1.811   4.927
  157DPPC   C40 7840   0.139   1.924   4.839
  157DPPC   C41 7841   0.027   2.013   4.784
  157DPPC   C42 7842  -0.072   1.933   4.700
  157DPPC   C43 7843  -0.178   2.015   4.626
  157DPPC   C44 7844  -0.277   1.936   4.540
  157DPPC   C45 7845  -0.359   2.036   4.459
  157DPPC   C46 7846  -0.449   1.962   4.360
  157DPPC   C47 7847  -0.534   2.069   4.291
  157DPPC   C48 7848  -0.459   2.164   4.196
  157DPPC   C49 7849  -0.555   2.267   4.136
  157DPPC   C50 7850  -0.649   2.190   4.043
  158DPPC    C1 7851   2.882   0.780   5.680
  158DPPC    C2 7852   2.971   0.555   5.733
  158DPPC    C3 7853   3.046   0.661   5.554
  158DPPC    N4 7854   2.999   0.692   5.690
  158DPPC    C5 7855   3.095   0.750   5.786
  158DPPC    C6 7856   3.194   0.862   5.752
  158DPPC    O7 7857   3.146   0.995   5.769
  158DPPC    P8 7858   3.266   1.079   5.837
  158DPPC    O9 7859   3.328   0.990   5.938
  158DPPC   O10 7860   3.237   1.222   5.862
  158DPPC   O11 7861   3.371   1.072   5.715
  158DPPC   C12 7862   3.328   1.163   5.614
  158DPPC   C13 7863   3.439   1.200   5.515
  158DPPC   O14 7864   3.425   1.329   5.455
  158DPPC   C15 7865   3.539   1.397   5.429
  158DPPC   O16 7866   3.653   1.353   5.445
  158DPPC   C17 7867   3.525   1.482   5.303
  158DPPC   C18 7868   3.465   1.620   5.334
  158DPPC   C19 7869   3.457   1.714   5.213
  158DPPC   C20 7870   3.386   1.650   5.094
  158DPPC   C21 7871   3.392   1.739   4.970
  158DPPC   C22 7872   3.290   1.677   4.873
  158DPPC   C23 7873   3.314   1.713   4.727
  158DPPC   C24 7874   3.215   1.645   4.632
  158DPPC   C25 7875   3.243   1.684   4.487
  158DPPC   C26 7876   3.151   1.607   4.392
  158DPPC   C27 7877   3.201   1.635   4.250
  158DPPC   C28 7878   3.116   1.569   4.142
  158DPPC   C29 7879   3.160   1.603   3.999
  158DPPC   C30 7880   3.305   1.568   3.965
  158DPPC   C31 7881   3.348   1.648   3.842
  158DPPC   C32 7882   3.462   1.082   5.420
  158DPPC   O33 7883   3.346   1.029   5.354
  158DPPC   C34 7884   3.380   0.931   5.265
  158DPPC   O35 7885   3.492   0.884   5.251
  158DPPC   C36 7886   3.256   0.903   5.179
  158DPPC   C37 7887   3.196   0.767   5.214
  158DPPC   C38 7888   3.263   0.645   5.151
  158DPPC   C39 7889   3.175   0.521   5.138
  158DPPC   C40 7890   3.246   0.436   5.032
  158DPPC   C41 7891   3.269   0.515   4.903
  158DPPC   C42 7892   3.343   0.419   4.810
  158DPPC   C43 7893   3.381   0.488   4.679
  158DPPC   C44 7894   3.486   0.595   4.710
  158DPPC   C45 7895   3.570   0.638   4.590
  158DPPC   C46 7896   3.652   0.758   4.639
  158DPPC   C47 7897   3.744   0.813   4.530
  158DPPC   C48 7898   3.828   0.932   4.576
  158DPPC   C49 7899   3.928   0.977   4.469
  158DPPC   C50 7900   4.023   0.861   4.439
  159DPPC    C1 7901   3.531   8.224   5.084
  159DPPC    C2 7902   3.449   7.998   5.070
  159DPPC    C3 7903   3.610   8.053   5.229
  159DPPC    N4 7904   3.490   8.106   5.162
  159DPPC    C5 7905   3.372   8.130   5.246
  159DPPC    C6 7906   3.340   8.260   5.320
  159DPPC    O7 7907   3.277   8.361   5.240
  159DPPC    P8 7908   3.283   8.502   5.317
  159DPPC    O9 7909   3.282   8.465   5.460
  159DPPC   O10 7910   3.178   8.584   5.253
  159DPPC   O11 7911   3.429   8.540   5.259
  159DPPC   C12 7912   3.436   8.653   5.171
  159DPPC   C13 7913   3.577   8.685   5.119
  159DPPC   O14 7914   3.604   8.822   5.088
  159DPPC   C15 7915   3.617   8.923   5.179
  159DPPC   O16 7916   3.597   8.898   5.298
  159DPPC   C17 7917   3.637   9.064   5.125
  159DPPC   C18 7918   3.760   9.083   5.036
  159DPPC   C19 7919   3.781   9.227   4.991
  159DPPC   C20 7920   3.927   9.257   4.958
  159DPPC   C21 7921   3.946   9.402   4.914
  159DPPC   C22 7922   4.097   9.430   4.918
  159DPPC   C23 7923   4.176   9.413   4.787
  159DPPC   C24 7924   4.324   9.438   4.813
  159DPPC   C25 7925   4.403   9.439   4.682
  159DPPC   C26 7926   4.400   9.299   4.620
  159DPPC   C27 7927   4.450   9.306   4.476
  159DPPC   C28 7928   4.416   9.169   4.417
  159DPPC   C29 7929   4.498   9.130   4.294
  159DPPC   C30 7930   4.485   9.231   4.179
  159DPPC   C31 7931   4.351   9.245   4.107
  159DPPC   C32 7932   3.603   8.588   5.003
  159DPPC   O33 7933   3.513   8.600   4.893
  159DPPC   C34 7934   3.548   8.520   4.789
  159DPPC   O35 7935   3.644   8.443   4.790
  159DPPC   C36 7936   3.455   8.541   4.669
  159DPPC   C37 7937   3.536   8.592   4.550
  159DPPC   C38 7938   3.438   8.673   4.465
  159DPPC   C39 7939   3.511   8.728   4.342
  159DPPC   C40 7940   3.420   8.735   4.219
  159DPPC   C41 7941   3.502   8.798   4.106
  159DPPC   C42 7942   3.604   8.704   4.043
  159DPPC   C43 7943   3.664   8.784   3.927
  159DPPC   C44 7944   3.766   8.699   3.852
  159DPPC   C45 7945   3.813   8.763   3.721
  159DPPC   C46 7946   3.697   8.813   3.636
  159DPPC   C47 7947   3.762   8.924   3.553
  159DPPC   C48 7948   3.895   8.869   3.500
  159DPPC   C49 7949   3.963   8.990   3.437
  159DPPC   C50 7950   3.883   9.050   3.321
  160DPPC    C1 7951   1.026   3.457   5.963
  160DPPC    C2 7952   0.931   3.359   5.770
  160DPPC    C3 7953   1.029   3.562   5.744
  160DPPC    N4 7954   1.046   3.436   5.819
  160DPPC    C5 7955   1.170   3.361   5.792
  160DPPC    C6 7956   1.305   3.418   5.836
  160DPPC    O7 7957   1.420   3.349   5.788
  160DPPC    P8 7958   1.559   3.426   5.815
  160DPPC    O9 7959   1.662   3.326   5.854
  160DPPC   O10 7960   1.516   3.540   5.899
  160DPPC   O11 7961   1.572   3.471   5.661
  160DPPC   C12 7962   1.614   3.356   5.587
  160DPPC   C13 7963   1.635   3.372   5.436
  160DPPC   O14 7964   1.767   3.335   5.395
  160DPPC   C15 7965   1.782   3.215   5.332
  160DPPC   O16 7966   1.719   3.122   5.382
  160DPPC   C17 7967   1.912   3.203   5.252
  160DPPC   C18 7968   1.884   3.139   5.116
  160DPPC   C19 7969   2.018   3.141   5.043
  160DPPC   C20 7970   2.024   3.048   4.922
  160DPPC   C21 7971   2.033   2.900   4.959
  160DPPC   C22 7972   2.024   2.815   4.831
  160DPPC   C23 7973   1.895   2.844   4.753
  160DPPC   C24 7974   1.857   2.722   4.669
  160DPPC   C25 7975   1.726   2.742   4.594
  160DPPC   C26 7976   1.690   2.640   4.485
  160DPPC   C27 7977   1.785   2.637   4.365
  160DPPC   C28 7978   1.725   2.548   4.256
  160DPPC   C29 7979   1.826   2.562   4.142
  160DPPC   C30 7980   1.766   2.481   4.027
  160DPPC   C31 7981   1.846   2.458   3.898
  160DPPC   C32 7982   1.590   3.517   5.412
  160DPPC   O33 7983   1.570   3.559   5.277
  160DPPC   C34 7984   1.587   3.694   5.276
  160DPPC   O35 7985   1.622   3.753   5.378
  160DPPC   C36 7986   1.554   3.765   5.144
  160DPPC   C37 7987   1.543   3.658   5.036
  160DPPC   C38 7988   1.521   3.714   4.895
  160DPPC   C39 7989   1.467   3.601   4.807
  160DPPC   C40 7990   1.457   3.633   4.658
  160DPPC   C41 7991   1.372   3.528   4.586
  160DPPC   C42 7992   1.328   3.575   4.447
  160DPPC   C43 7993   1.242   3.472   4.375
  160DPPC   C44 7994   1.164   3.532   4.257
  160DPPC   C45 7995   1.214   3.487   4.119
  160DPPC   C46 7996   1.136   3.536   3.997
  160DPPC   C47 7997   1.196   3.467   3.875
  160DPPC   C48 7998   1.130   3.524   3.750
  160DPPC   C49 7999   1.180   3.466   3.617
  160DPPC   C50 8000   1.332   3.480   3.604
  161DPPC    C1 8001   4.675   5.647   5.965
  161DPPC    C2 8002   4.452   5.588   5.992
  161DPPC    C3 8003   4.546   5.783   6.114
  161DPPC    N4 8004   4.542   5.704   5.990
  161DPPC    C5 8005   4.528   5.783   5.867
  161DPPC    C6 8006   4.422   5.894   5.869
  161DPPC    O7 8007   4.429   5.963   5.744
  161DPPC    P8 8008   4.287   6.033   5.714
  161DPPC    O9 8009   4.293   6.180   5.717
  161DPPC   O10 8010   4.182   5.949   5.776
  161DPPC   O11 8011   4.304   6.005   5.557
  161DPPC   C12 8012   4.397   6.092   5.491
  161DPPC   C13 8013   4.431   6.041   5.351
  161DPPC   O14 8014   4.344   6.071   5.241
  161DPPC   C15 8015   4.313   6.199   5.209
  161DPPC   O16 8016   4.335   6.297   5.281
  161DPPC   C17 8017   4.227   6.229   5.086
  161DPPC   C18 8018   4.204   6.379   5.062
  161DPPC   C19 8019   4.132   6.396   4.928
  161DPPC   C20 8020   4.003   6.315   4.935
  161DPPC   C21 8021   3.948   6.316   4.792
  161DPPC   C22 8022   4.059   6.262   4.702
  161DPPC   C23 8023   4.012   6.198   4.572
  161DPPC   C24 8024   4.116   6.108   4.505
  161DPPC   C25 8025   4.069   6.072   4.364
  161DPPC   C26 8026   4.175   5.991   4.288
  161DPPC   C27 8027   4.106   5.936   4.163
  161DPPC   C28 8028   4.096   6.027   4.040
  161DPPC   C29 8029   4.066   5.946   3.914
  161DPPC   C30 8030   3.939   5.866   3.943
  161DPPC   C31 8031   3.815   5.952   3.916
  161DPPC   C32 8032   4.465   5.894   5.378
  161DPPC   O33 8033   4.557   5.824   5.294
  161DPPC   C34 8034   4.564   5.690   5.317
  161DPPC   O35 8035   4.499   5.638   5.408
  161DPPC   C36 8036   4.637   5.604   5.213
  161DPPC   C37 8037   4.594   5.646   5.072
  161DPPC   C38 8038   4.702   5.600   4.974
  161DPPC   C39 8039   4.673   5.669   4.841
  161DPPC   C40 8040   4.758   5.616   4.726
  161DPPC   C41 8041   4.750   5.694   4.594
  161DPPC   C42 8042   4.860   5.636   4.504
  161DPPC   C43 8043   4.858   5.697   4.364
  161DPPC   C44 8044   4.973   5.643   4.278
  161DPPC   C45 8045   5.101   5.720   4.308
  161DPPC   C46 8046   5.205   5.676   4.206
  161DPPC   C47 8047   5.340   5.747   4.224
  161DPPC   C48 8048   5.441   5.681   4.131
  161DPPC   C49 8049   5.583   5.731   4.161
  161DPPC   C50 8050   5.579   5.883   4.158
  162DPPC    C1 8051   6.206   6.092   5.388
  162DPPC    C2 8052   6.439   6.054   5.417
  162DPPC    C3 8053   6.318   6.150   5.598
  162DPPC    N4 8054   6.310   6.056   5.486
  162DPPC    C5 8055   6.299   5.922   5.546
  162DPPC    C6 8056   6.248   5.808   5.458
  162DPPC    O7 8057   6.324   5.777   5.341
  162DPPC    P8 8058   6.252   5.659   5.257
  162DPPC    O9 8059   6.138   5.747   5.222
  162DPPC   O10 8060   6.250   5.545   5.351
  162DPPC   O11 8061   6.371   5.654   5.148
  162DPPC   C12 8062   6.344   5.766   5.063
  162DPPC   C13 8063   6.456   5.810   4.969
  162DPPC   O14 8064   6.433   5.763   4.836
  162DPPC   C15 8065   6.343   5.836   4.764
  162DPPC   O16 8066   6.262   5.910   4.818
  162DPPC   C17 8067   6.356   5.838   4.612
  162DPPC   C18 8068   6.474   5.751   4.567
  162DPPC   C19 8069   6.503   5.772   4.418
  162DPPC   C20 8070   6.384   5.747   4.325
  162DPPC   C21 8071   6.423   5.757   4.178
  162DPPC   C22 8072   6.450   5.903   4.140
  162DPPC   C23 8073   6.495   5.904   3.994
  162DPPC   C24 8074   6.500   6.045   3.935
  162DPPC   C25 8075   6.583   6.055   3.807
  162DPPC   C26 8076   6.718   5.985   3.829
  162DPPC   C27 8077   6.787   6.009   3.694
  162DPPC   C28 8078   6.714   5.934   3.583
  162DPPC   C29 8079   6.686   5.784   3.600
  162DPPC   C30 8080   6.547   5.756   3.543
  162DPPC   C31 8081   6.542   5.761   3.390
  162DPPC   C32 8082   6.583   5.756   5.035
  162DPPC   O33 8083   6.703   5.810   4.979
  162DPPC   C34 8084   6.819   5.740   4.999
  162DPPC   O35 8085   6.813   5.646   5.078
  162DPPC   C36 8086   6.942   5.794   4.927
  162DPPC   C37 8087   6.982   5.710   4.805
  162DPPC   C38 8088   6.896   5.740   4.682
  162DPPC   C39 8089   6.961   5.678   4.558
  162DPPC   C40 8090   6.880   5.693   4.429
  162DPPC   C41 8091   6.960   5.642   4.309
  162DPPC   C42 8092   6.871   5.647   4.184
  162DPPC   C43 8093   6.941   5.594   4.059
  162DPPC   C44 8094   6.875   5.610   3.922
  162DPPC   C45 8095   6.964   5.563   3.806
  162DPPC   C46 8096   7.075   5.662   3.768
  162DPPC   C47 8097   7.159   5.604   3.655
  162DPPC   C48 8098   7.275   5.699   3.626
  162DPPC   C49 8099   7.227   5.790   3.512
  162DPPC   C50 8100   7.342   5.889   3.492
  163DPPC    C1 8101   6.183   5.054   1.545
  163DPPC    C2 8102   6.166   5.124   1.773
  163DPPC    C3 8103   6.012   4.966   1.672
  163DPPC    N4 8104   6.152   5.009   1.682
  163DPPC    C5 8105   6.247   4.906   1.724
  163DPPC    C6 8106   6.229   4.821   1.850
  163DPPC    O7 8107   6.343   4.741   1.883
  163DPPC    P8 8108   6.294   4.624   1.983
  163DPPC    O9 8109   6.407   4.540   2.029
  163DPPC   O10 8110   6.176   4.554   1.928
  163DPPC   O11 8111   6.230   4.714   2.100
  163DPPC   C12 8112   6.330   4.740   2.199
  163DPPC   C13 8113   6.282   4.857   2.284
  163DPPC   O14 8114   6.388   4.912   2.364
  163DPPC   C15 8115   6.487   4.983   2.304
  163DPPC   O16 8116   6.498   4.981   2.182
  163DPPC   C17 8117   6.605   5.032   2.389
  163DPPC   C18 8118   6.566   5.164   2.455
  163DPPC   C19 8119   6.685   5.213   2.538
  163DPPC   C20 8120   6.655   5.343   2.614
  163DPPC   C21 8121   6.760   5.348   2.725
  163DPPC   C22 8122   6.756   5.487   2.789
  163DPPC   C23 8123   6.619   5.537   2.834
  163DPPC   C24 8124   6.646   5.668   2.907
  163DPPC   C25 8125   6.694   5.778   2.812
  163DPPC   C26 8126   6.711   5.907   2.894
  163DPPC   C27 8127   6.802   5.878   3.013
  163DPPC   C28 8128   6.805   5.997   3.109
  163DPPC   C29 8129   6.914   5.989   3.216
  163DPPC   C30 8130   6.954   6.126   3.272
  163DPPC   C31 8131   7.059   6.126   3.383
  163DPPC   C32 8132   6.163   4.802   2.362
  163DPPC   O33 8133   6.088   4.915   2.408
  163DPPC   C34 8134   5.978   4.873   2.476
  163DPPC   O35 8135   5.956   4.752   2.475
  163DPPC   C36 8136   5.896   4.971   2.560
  163DPPC   C37 8137   5.919   4.971   2.711
  163DPPC   C38 8138   5.827   5.075   2.774
  163DPPC   C39 8139   5.853   5.084   2.925
  163DPPC   C40 8140   5.745   5.171   2.989
  163DPPC   C41 8141   5.744   5.149   3.140
  163DPPC   C42 8142   5.644   5.248   3.200
  163DPPC   C43 8143   5.642   5.255   3.352
  163DPPC   C44 8144   5.597   5.390   3.411
  163DPPC   C45 8145   5.632   5.396   3.559
  163DPPC   C46 8146   5.606   5.541   3.600
  163DPPC   C47 8147   5.631   5.569   3.748
  163DPPC   C48 8148   5.637   5.720   3.770
  163DPPC   C49 8149   5.734   5.773   3.664
  163DPPC   C50 8150   5.750   5.923   3.639
  164DPPC    C1 8151   2.594   2.173   2.531
  164DPPC    C2 8152   2.787   2.169   2.673
  164DPPC    C3 8153   2.699   1.966   2.600
  164DPPC    N4 8154   2.722   2.105   2.558
  164DPPC    C5 8155   2.806   2.099   2.438
  164DPPC    C6 8156   2.846   2.213   2.344
  164DPPC    O7 8157   2.936   2.299   2.413
  164DPPC    P8 8158   2.967   2.417   2.307
  164DPPC    O9 8159   2.831   2.451   2.260
  164DPPC   O10 8160   3.071   2.348   2.228
  164DPPC   O11 8161   3.037   2.520   2.409
  164DPPC   C12 8162   2.950   2.540   2.521
  164DPPC   C13 8163   3.033   2.607   2.631
  164DPPC   O14 8164   2.968   2.632   2.756
  164DPPC   C15 8165   2.973   2.526   2.841
  164DPPC   O16 8166   3.011   2.412   2.813
  164DPPC   C17 8167   2.899   2.533   2.975
  164DPPC   C18 8168   2.956   2.443   3.085
  164DPPC   C19 8169   2.881   2.451   3.218
  164DPPC   C20 8170   2.759   2.359   3.216
  164DPPC   C21 8171   2.661   2.397   3.327
  164DPPC   C22 8172   2.615   2.543   3.325
  164DPPC   C23 8173   2.474   2.538   3.382
  164DPPC   C24 8174   2.508   2.529   3.530
  164DPPC   C25 8175   2.382   2.542   3.617
  164DPPC   C26 8176   2.402   2.533   3.769
  164DPPC   C27 8177   2.272   2.537   3.849
  164DPPC   C28 8178   2.281   2.516   4.000
  164DPPC   C29 8179   2.371   2.620   4.066
  164DPPC   C30 8180   2.303   2.756   4.054
  164DPPC   C31 8181   2.389   2.871   4.107
  164DPPC   C32 8182   3.097   2.727   2.561
  164DPPC   O33 8183   3.005   2.832   2.529
  164DPPC   C34 8184   3.054   2.935   2.455
  164DPPC   O35 8185   3.172   2.936   2.420
  164DPPC   C36 8186   2.971   3.063   2.448
  164DPPC   C37 8187   2.974   3.127   2.587
  164DPPC   C38 8188   2.839   3.197   2.601
  164DPPC   C39 8189   2.823   3.286   2.725
  164DPPC   C40 8190   2.803   3.181   2.835
  164DPPC   C41 8191   2.778   3.255   2.966
  164DPPC   C42 8192   2.800   3.158   3.082
  164DPPC   C43 8193   2.775   3.222   3.218
  164DPPC   C44 8194   2.797   3.115   3.326
  164DPPC   C45 8195   2.793   3.175   3.467
  164DPPC   C46 8196   2.839   3.065   3.562
  164DPPC   C47 8197   2.870   3.130   3.697
  164DPPC   C48 8198   2.901   3.030   3.808
  164DPPC   C49 8199   2.793   2.939   3.866
  164DPPC   C50 8200   2.846   2.903   4.005
  165DPPC    C1 8201   0.161   3.305   1.541
  165DPPC    C2 8202   0.342   3.427   1.666
  165DPPC    C3 8203   0.128   3.514   1.643
  165DPPC    N4 8204   0.201   3.387   1.656
  165DPPC    C5 8205   0.152   3.312   1.773
  165DPPC    C6 8206   0.215   3.175   1.799
  165DPPC    O7 8207   0.136   3.065   1.752
  165DPPC    P8 8208   0.220   2.930   1.728
  165DPPC    O9 8209   0.324   2.986   1.638
  165DPPC   O10 8210   0.117   2.828   1.696
  165DPPC   O11 8211   0.272   2.915   1.879
  165DPPC   C12 8212   0.160   2.872   1.958
  165DPPC   C13 8213   0.163   2.924   2.102
  165DPPC   O14 8214   0.159   3.066   2.123
  165DPPC   C15 8215   0.038   3.121   2.153
  165DPPC   O16 8216  -0.069   3.066   2.128
  165DPPC   C17 8217   0.045   3.271   2.181
  165DPPC   C18 8218   0.116   3.308   2.311
  165DPPC   C19 8219   0.034   3.277   2.437
  165DPPC   C20 8220   0.092   3.325   2.570
  165DPPC   C21 8221  -0.009   3.316   2.684
  165DPPC   C22 8222   0.045   3.321   2.827
  165DPPC   C23 8223  -0.071   3.303   2.925
  165DPPC   C24 8224   0.006   3.304   3.057
  165DPPC   C25 8225  -0.083   3.242   3.164
  165DPPC   C26 8226  -0.033   3.310   3.292
  165DPPC   C27 8227  -0.095   3.230   3.407
  165DPPC   C28 8228  -0.248   3.221   3.397
  165DPPC   C29 8229  -0.311   3.165   3.525
  165DPPC   C30 8230  -0.375   3.273   3.612
  165DPPC   C31 8231  -0.433   3.202   3.735
  165DPPC   C32 8232   0.292   2.865   2.161
  165DPPC   O33 8233   0.288   2.812   2.294
  165DPPC   C34 8234   0.244   2.685   2.310
  165DPPC   O35 8235   0.262   2.605   2.218
  165DPPC   C36 8236   0.253   2.640   2.456
  165DPPC   C37 8237   0.200   2.499   2.481
  165DPPC   C38 8238   0.241   2.476   2.627
  165DPPC   C39 8239   0.113   2.437   2.702
  165DPPC   C40 8240   0.131   2.450   2.853
  165DPPC   C41 8241   0.008   2.409   2.934
  165DPPC   C42 8242   0.025   2.440   3.083
  165DPPC   C43 8243  -0.093   2.410   3.175
  165DPPC   C44 8244  -0.081   2.504   3.295
  165DPPC   C45 8245  -0.194   2.466   3.391
  165DPPC   C46 8246  -0.185   2.555   3.515
  165DPPC   C47 8247  -0.291   2.503   3.611
  165DPPC   C48 8248  -0.269   2.361   3.664
  165DPPC   C49 8249  -0.375   2.300   3.756
  165DPPC   C50 8250  -0.320   2.172   3.819
  166DPPC    C1 8251   2.324   3.359   1.545
  166DPPC    C2 8252   2.547   3.385   1.644
  166DPPC    C3 8253   2.369   3.287   1.767
  166DPPC    N4 8254   2.426   3.301   1.632
  166DPPC    C5 8255   2.482   3.173   1.584
  166DPPC    C6 8256   2.422   3.037   1.618
  166DPPC    O7 8257   2.294   3.031   1.554
  166DPPC    P8 8258   2.214   2.897   1.592
  166DPPC    O9 8259   2.306   2.782   1.574
  166DPPC   O10 8260   2.082   2.899   1.526
  166DPPC   O11 8261   2.184   2.940   1.745
  166DPPC   C12 8262   2.090   2.843   1.792
  166DPPC   C13 8263   2.030   2.875   1.929
  166DPPC   O14 8264   1.913   2.799   1.963
  166DPPC   C15 8265   1.922   2.669   2.000
  166DPPC   O16 8266   2.028   2.607   2.012
  166DPPC   C17 8267   1.794   2.618   2.067
  166DPPC   C18 8268   1.824   2.581   2.212
  166DPPC   C19 8269   1.707   2.507   2.276
  166DPPC   C20 8270   1.721   2.526   2.427
  166DPPC   C21 8271   1.650   2.423   2.515
  166DPPC   C22 8272   1.679   2.448   2.663
  166DPPC   C23 8273   1.653   2.591   2.713
  166DPPC   C24 8274   1.651   2.592   2.866
  166DPPC   C25 8275   1.697   2.731   2.910
  166DPPC   C26 8276   1.717   2.736   3.062
  166DPPC   C27 8277   1.586   2.691   3.127
  166DPPC   C28 8278   1.608   2.683   3.278
  166DPPC   C29 8279   1.492   2.598   3.328
  166DPPC   C30 8280   1.475   2.600   3.480
  166DPPC   C31 8281   1.363   2.499   3.508
  166DPPC   C32 8282   2.018   3.028   1.925
  166DPPC   O33 8283   1.984   3.097   2.045
  166DPPC   C34 8284   1.992   3.233   2.036
  166DPPC   O35 8285   2.062   3.292   1.954
  166DPPC   C36 8286   1.915   3.317   2.138
  166DPPC   C37 8287   2.008   3.351   2.255
  166DPPC   C38 8288   1.948   3.441   2.362
  166DPPC   C39 8289   2.056   3.447   2.471
  166DPPC   C40 8290   1.995   3.545   2.572
  166DPPC   C41 8291   2.079   3.543   2.700
  166DPPC   C42 8292   1.978   3.527   2.814
  166DPPC   C43 8293   2.035   3.532   2.956
  166DPPC   C44 8294   1.927   3.485   3.054
  166DPPC   C45 8295   1.895   3.595   3.156
  166DPPC   C46 8296   1.869   3.732   3.094
  166DPPC   C47 8297   1.849   3.833   3.207
  166DPPC   C48 8298   1.970   3.855   3.299
  166DPPC   C49 8299   1.937   3.955   3.411
  166DPPC   C50 8300   2.055   3.966   3.507
  167DPPC    C1 8301   2.293   2.255   1.680
  167DPPC    C2 8302   2.469   2.113   1.758
  167DPPC    C3 8303   2.445   2.337   1.832
  167DPPC    N4 8304   2.370   2.215   1.798
  167DPPC    C5 8305   2.287   2.172   1.912
  167DPPC    C6 8306   2.185   2.059   1.899
  167DPPC    O7 8307   2.254   1.936   1.920
  167DPPC    P8 8308   2.147   1.822   1.882
  167DPPC    O9 8309   2.232   1.704   1.856
  167DPPC   O10 8310   2.067   1.888   1.776
  167DPPC   O11 8311   2.085   1.851   2.028
  167DPPC   C12 8312   2.157   1.801   2.141
  167DPPC   C13 8313   2.085   1.836   2.271
  167DPPC   O14 8314   1.970   1.756   2.300
  167DPPC   C15 8315   1.990   1.628   2.342
  167DPPC   O16 8316   2.085   1.562   2.302
  167DPPC   C17 8317   1.887   1.580   2.444
  167DPPC   C18 8318   1.941   1.597   2.586
  167DPPC   C19 8319   1.858   1.542   2.703
  167DPPC   C20 8320   1.909   1.583   2.841
  167DPPC   C21 8321   2.057   1.550   2.860
  167DPPC   C22 8322   2.114   1.636   2.973
  167DPPC   C23 8323   2.252   1.568   2.970
  167DPPC   C24 8324   2.331   1.665   3.057
  167DPPC   C25 8325   2.447   1.597   3.130
  167DPPC   C26 8326   2.388   1.513   3.243
  167DPPC   C27 8327   2.487   1.437   3.332
  167DPPC   C28 8328   2.443   1.302   3.389
  167DPPC   C29 8329   2.563   1.248   3.467
  167DPPC   C30 8330   2.523   1.127   3.551
  167DPPC   C31 8331   2.404   1.170   3.636
  167DPPC   C32 8332   2.072   1.988   2.256
  167DPPC   O33 8333   2.074   2.059   2.380
  167DPPC   C34 8334   2.007   2.178   2.382
  167DPPC   O35 8335   1.932   2.219   2.294
  167DPPC   C36 8336   2.006   2.255   2.514
  167DPPC   C37 8337   2.120   2.356   2.524
  167DPPC   C38 8338   2.086   2.456   2.634
  167DPPC   C39 8339   2.070   2.387   2.769
  167DPPC   C40 8340   2.068   2.502   2.870
  167DPPC   C41 8341   2.072   2.466   3.019
  167DPPC   C42 8342   2.068   2.593   3.105
  167DPPC   C43 8343   2.027   2.559   3.249
  167DPPC   C44 8344   2.004   2.681   3.339
  167DPPC   C45 8345   1.974   2.645   3.485
  167DPPC   C46 8346   1.973   2.776   3.563
  167DPPC   C47 8347   1.906   2.764   3.700
  167DPPC   C48 8348   1.942   2.891   3.778
  167DPPC   C49 8349   1.869   2.884   3.912
  167DPPC   C50 8350   1.928   2.978   4.016
  168DPPC    C1 8351   2.802   7.968   1.638
  168DPPC    C2 8352   2.581   7.929   1.560
  168DPPC    C3 8353   2.643   7.874   1.783
  168DPPC    N4 8354   2.660   7.973   1.676
  168DPPC    C5 8355   2.627   8.109   1.718
  168DPPC    C6 8356   2.692   8.183   1.835
  168DPPC    O7 8357   2.661   8.323   1.842
  168DPPC    P8 8358   2.749   8.392   1.957
  168DPPC    O9 8359   2.732   8.539   1.959
  168DPPC   O10 8360   2.878   8.324   1.931
  168DPPC   O11 8361   2.706   8.311   2.090
  168DPPC   C12 8362   2.584   8.364   2.144
  168DPPC   C13 8363   2.553   8.317   2.286
  168DPPC   O14 8364   2.426   8.368   2.330
  168DPPC   C15 8365   2.317   8.289   2.316
  168DPPC   O16 8366   2.303   8.228   2.210
  168DPPC   C17 8367   2.198   8.305   2.410
  168DPPC   C18 8368   2.184   8.452   2.450
  168DPPC   C19 8369   2.113   8.462   2.586
  168DPPC   C20 8370   2.090   8.611   2.611
  168DPPC   C21 8371   2.029   8.651   2.746
  168DPPC   C22 8372   1.947   8.779   2.727
  168DPPC   C23 8373   1.894   8.832   2.860
  168DPPC   C24 8374   1.777   8.752   2.918
  168DPPC   C25 8375   1.727   8.818   3.046
  168DPPC   C26 8376   1.649   8.721   3.135
  168DPPC   C27 8377   1.733   8.595   3.158
  168DPPC   C28 8378   1.683   8.481   3.248
  168DPPC   C29 8379   1.533   8.455   3.245
  168DPPC   C30 8380   1.511   8.348   3.352
  168DPPC   C31 8381   1.361   8.321   3.360
  168DPPC   C32 8382   2.674   8.365   2.365
  168DPPC   O33 8383   2.700   8.506   2.355
  168DPPC   C34 8384   2.829   8.548   2.364
  168DPPC   O35 8385   2.918   8.472   2.400
  168DPPC   C36 8386   2.841   8.699   2.346
  168DPPC   C37 8387   2.803   8.780   2.470
  168DPPC   C38 8388   2.807   8.923   2.416
  168DPPC   C39 8389   2.778   9.027   2.524
  168DPPC   C40 8390   2.862   9.004   2.649
  168DPPC   C41 8391   2.831   9.109   2.757
  168DPPC   C42 8392   2.915   9.081   2.881
  168DPPC   C43 8393   2.912   9.200   2.977
  168DPPC   C44 8394   2.998   9.179   3.102
  168DPPC   C45 8395   3.146   9.150   3.080
  168DPPC   C46 8396   3.220   9.156   3.214
  168DPPC   C47 8397   3.365   9.108   3.207
  168DPPC   C48 8398   3.431   9.208   3.112
  168DPPC   C49 8399   3.581   9.178   3.109
  168DPPC   C50 8400   3.625   9.075   3.005
  169DPPC    C1 8401   0.143   2.495   1.920
  169DPPC    C2 8402   0.361   2.437   1.904
  169DPPC    C3 8403   0.203   2.283   1.805
  169DPPC    N4 8404   0.235   2.425   1.829
  169DPPC    C5 8405   0.237   2.507   1.707
  169DPPC    C6 8406   0.331   2.482   1.589
  169DPPC    O7 8407   0.463   2.536   1.602
  169DPPC    P8 8408   0.484   2.682   1.537
  169DPPC    O9 8409   0.371   2.726   1.453
  169DPPC   O10 8410   0.618   2.661   1.477
  169DPPC   O11 8411   0.504   2.743   1.685
  169DPPC   C12 8412   0.632   2.714   1.743
  169DPPC   C13 8413   0.654   2.787   1.876
  169DPPC   O14 8414   0.602   2.726   1.994
  169DPPC   C15 8415   0.689   2.667   2.081
  169DPPC   O16 8416   0.792   2.615   2.039
  169DPPC   C17 8417   0.633   2.620   2.215
  169DPPC   C18 8418   0.700   2.492   2.265
  169DPPC   C19 8419   0.696   2.478   2.418
  169DPPC   C20 8420   0.769   2.353   2.465
  169DPPC   C21 8421   0.681   2.228   2.452
  169DPPC   C22 8422   0.566   2.247   2.551
  169DPPC   C23 8423   0.624   2.237   2.693
  169DPPC   C24 8424   0.514   2.264   2.796
  169DPPC   C25 8425   0.567   2.257   2.939
  169DPPC   C26 8426   0.460   2.272   3.047
  169DPPC   C27 8427   0.402   2.131   3.056
  169DPPC   C28 8428   0.289   2.130   3.158
  169DPPC   C29 8429   0.334   2.138   3.304
  169DPPC   C30 8430   0.213   2.138   3.397
  169DPPC   C31 8431   0.132   2.017   3.348
  169DPPC   C32 8432   0.616   2.933   1.847
  169DPPC   O33 8433   0.639   3.022   1.956
  169DPPC   C34 8434   0.596   3.151   1.945
  169DPPC   O35 8435   0.562   3.204   1.839
  169DPPC   C36 8436   0.617   3.231   2.073
  169DPPC   C37 8437   0.539   3.182   2.195
  169DPPC   C38 8438   0.540   3.301   2.291
  169DPPC   C39 8439   0.466   3.259   2.418
  169DPPC   C40 8440   0.445   3.378   2.511
  169DPPC   C41 8441   0.575   3.457   2.528
  169DPPC   C42 8442   0.656   3.406   2.647
  169DPPC   C43 8443   0.803   3.445   2.638
  169DPPC   C44 8444   0.884   3.417   2.765
  169DPPC   C45 8445   1.034   3.415   2.736
  169DPPC   C46 8446   1.083   3.553   2.692
  169DPPC   C47 8447   1.233   3.579   2.699
  169DPPC   C48 8448   1.272   3.716   2.645
  169DPPC   C49 8449   1.237   3.707   2.496
  169DPPC   C50 8450   1.217   3.836   2.416
  170DPPC    C1 8451   6.889   8.361   1.736
  170DPPC    C2 8452   7.065   8.248   1.670
  170DPPC    C3 8453   7.080   8.408   1.857
  170DPPC    N4 8454   7.006   8.296   1.796
  170DPPC    C5 8455   6.956   8.185   1.878
  170DPPC    C6 8456   7.054   8.095   1.954
  170DPPC    O7 8457   6.980   7.985   2.007
  170DPPC    P8 8458   7.067   7.850   1.996
  170DPPC    O9 8459   7.157   7.866   1.880
  170DPPC   O10 8460   6.977   7.733   2.007
  170DPPC   O11 8461   7.169   7.860   2.120
  170DPPC   C12 8462   7.082   7.829   2.229
  170DPPC   C13 8463   7.155   7.821   2.363
  170DPPC   O14 8464   7.084   7.745   2.463
  170DPPC   C15 8465   7.091   7.609   2.463
  170DPPC   O16 8466   7.127   7.547   2.363
  170DPPC   C17 8467   7.016   7.535   2.574
  170DPPC   C18 8468   6.983   7.613   2.701
  170DPPC   C19 8469   6.933   7.523   2.814
  170DPPC   C20 8470   6.874   7.606   2.929
  170DPPC   C21 8471   6.803   7.521   3.035
  170DPPC   C22 8472   6.754   7.602   3.155
  170DPPC   C23 8473   6.867   7.690   3.209
  170DPPC   C24 8474   6.810   7.783   3.316
  170DPPC   C25 8475   6.688   7.862   3.267
  170DPPC   C26 8476   6.624   7.944   3.380
  170DPPC   C27 8477   6.581   7.833   3.475
  170DPPC   C28 8478   6.505   7.890   3.595
  170DPPC   C29 8479   6.441   7.773   3.671
  170DPPC   C30 8480   6.549   7.675   3.715
  170DPPC   C31 8481   6.469   7.551   3.757
  170DPPC   C32 8482   7.194   7.961   2.410
  170DPPC   O33 8483   7.280   7.968   2.524
  170DPPC   C34 8484   7.306   8.090   2.577
  170DPPC   O35 8485   7.234   8.187   2.549
  170DPPC   C36 8486   7.426   8.104   2.670
  170DPPC   C37 8487   7.542   8.146   2.579
  170DPPC   C38 8488   7.674   8.148   2.655
  170DPPC   C39 8489   7.669   8.255   2.765
  170DPPC   C40 8490   7.803   8.276   2.836
  170DPPC   C41 8491   7.798   8.402   2.921
  170DPPC   C42 8492   7.945   8.429   2.953
  170DPPC   C43 8493   7.973   8.543   3.052
  170DPPC   C44 8494   8.118   8.530   3.098
  170DPPC   C45 8495   8.136   8.625   3.216
  170DPPC   C46 8496   8.269   8.615   3.291
  170DPPC   C47 8497   8.265   8.683   3.428
  170DPPC   C48 8498   8.388   8.630   3.502
  170DPPC   C49 8499   8.377   8.686   3.644
  170DPPC   C50 8500   8.494   8.659   3.739
  171DPPC    C1 8501   5.826   7.355   1.640
  171DPPC    C2 8502   5.762   7.150   1.569
  171DPPC    C3 8503   5.985   7.180   1.675
  171DPPC    N4 8504   5.842   7.213   1.676
  171DPPC    C5 8505   5.790   7.170   1.806
  171DPPC    C6 8506   5.670   7.247   1.861
  171DPPC    O7 8507   5.624   7.179   1.978
  171DPPC    P8 8508   5.497   7.229   2.063
  171DPPC    O9 8509   5.470   7.123   2.162
  171DPPC   O10 8510   5.395   7.248   1.957
  171DPPC   O11 8511   5.569   7.367   2.103
  171DPPC   C12 8512   5.634   7.343   2.228
  171DPPC   C13 8513   5.747   7.442   2.254
  171DPPC   O14 8514   5.841   7.402   2.355
  171DPPC   C15 8515   5.960   7.460   2.385
  171DPPC   O16 8516   6.014   7.545   2.315
  171DPPC   C17 8517   6.053   7.384   2.480
  171DPPC   C18 8518   6.181   7.464   2.503
  171DPPC   C19 8519   6.288   7.406   2.595
  171DPPC   C20 8520   6.247   7.452   2.735
  171DPPC   C21 8521   6.348   7.423   2.846
  171DPPC   C22 8522   6.304   7.501   2.970
  171DPPC   C23 8523   6.377   7.447   3.093
  171DPPC   C24 8524   6.354   7.299   3.122
  171DPPC   C25 8525   6.390   7.258   3.265
  171DPPC   C26 8526   6.280   7.284   3.368
  171DPPC   C27 8527   6.345   7.251   3.503
  171DPPC   C28 8528   6.242   7.253   3.616
  171DPPC   C29 8529   6.279   7.143   3.716
  171DPPC   C30 8530   6.153   7.091   3.784
  171DPPC   C31 8531   6.176   6.984   3.892
  171DPPC   C32 8532   5.690   7.578   2.295
  171DPPC   O33 8533   5.597   7.570   2.403
  171DPPC   C34 8534   5.544   7.688   2.445
  171DPPC   O35 8535   5.576   7.797   2.399
  171DPPC   C36 8536   5.459   7.693   2.572
  171DPPC   C37 8537   5.517   7.784   2.681
  171DPPC   C38 8538   5.426   7.786   2.804
  171DPPC   C39 8539   5.488   7.874   2.912
  171DPPC   C40 8540   5.504   8.017   2.862
  171DPPC   C41 8541   5.587   8.110   2.951
  171DPPC   C42 8542   5.572   8.252   2.898
  171DPPC   C43 8543   5.549   8.351   3.012
  171DPPC   C44 8544   5.672   8.354   3.104
  171DPPC   C45 8545   5.625   8.393   3.244
  171DPPC   C46 8546   5.509   8.301   3.285
  171DPPC   C47 8547   5.443   8.348   3.414
  171DPPC   C48 8548   5.301   8.294   3.434
  171DPPC   C49 8549   5.237   8.380   3.543
  171DPPC   C50 8550   5.087   8.362   3.522
  172DPPC    C1 8551   3.036   4.968   1.924
  172DPPC    C2 8552   3.023   4.961   2.177
  172DPPC    C3 8553   3.136   4.813   2.054
  172DPPC    N4 8554   3.104   4.956   2.054
  172DPPC    C5 8555   3.233   5.023   2.074
  172DPPC    C6 8556   3.230   5.175   2.065
  172DPPC    O7 8557   3.354   5.246   2.069
  172DPPC    P8 8558   3.325   5.394   2.012
  172DPPC    O9 8559   3.183   5.410   1.975
  172DPPC   O10 8560   3.434   5.464   1.940
  172DPPC   O11 8561   3.313   5.471   2.152
  172DPPC   C12 8562   3.447   5.444   2.195
  172DPPC   C13 8563   3.480   5.476   2.341
  172DPPC   O14 8564   3.456   5.365   2.428
  172DPPC   C15 8565   3.566   5.342   2.505
  172DPPC   O16 8566   3.675   5.336   2.448
  172DPPC   C17 8567   3.545   5.244   2.621
  172DPPC   C18 8568   3.500   5.313   2.749
  172DPPC   C19 8569   3.596   5.421   2.800
  172DPPC   C20 8570   3.555   5.472   2.938
  172DPPC   C21 8571   3.642   5.589   2.982
  172DPPC   C22 8572   3.598   5.651   3.115
  172DPPC   C23 8573   3.677   5.778   3.145
  172DPPC   C24 8574   3.599   5.861   3.247
  172DPPC   C25 8575   3.689   5.983   3.270
  172DPPC   C26 8576   3.634   6.069   3.383
  172DPPC   C27 8577   3.689   6.211   3.368
  172DPPC   C28 8578   3.642   6.293   3.489
  172DPPC   C29 8579   3.656   6.213   3.619
  172DPPC   C30 8580   3.672   6.292   3.749
  172DPPC   C31 8581   3.549   6.384   3.757
  172DPPC   C32 8582   3.404   5.606   2.371
  172DPPC   O33 8583   3.406   5.643   2.509
  172DPPC   C34 8584   3.327   5.741   2.560
  172DPPC   O35 8585   3.285   5.826   2.482
  172DPPC   C36 8586   3.325   5.773   2.710
  172DPPC   C37 8587   3.263   5.665   2.799
  172DPPC   C38 8588   3.244   5.715   2.943
  172DPPC   C39 8589   3.157   5.629   3.034
  172DPPC   C40 8590   3.159   5.682   3.177
  172DPPC   C41 8591   3.085   5.590   3.274
  172DPPC   C42 8592   3.105   5.628   3.421
  172DPPC   C43 8593   3.250   5.589   3.451
  172DPPC   C44 8594   3.298   5.656   3.580
  172DPPC   C45 8595   3.265   5.576   3.706
  172DPPC   C46 8596   3.311   5.652   3.831
  172DPPC   C47 8597   3.460   5.684   3.818
  172DPPC   C48 8598   3.515   5.761   3.938
  172DPPC   C49 8599   3.525   5.672   4.062
  172DPPC   C50 8600   3.616   5.549   4.046
  173DPPC    C1 8601   6.108   1.966   2.491
  173DPPC    C2 8602   5.975   1.981   2.300
  173DPPC    C3 8603   5.983   2.173   2.451
  173DPPC    N4 8604   6.059   2.062   2.391
  173DPPC    C5 8605   6.184   2.113   2.334
  173DPPC    C6 8606   6.187   2.219   2.223
  173DPPC    O7 8607   6.309   2.273   2.172
  173DPPC    P8 8608   6.300   2.418   2.103
  173DPPC    O9 8609   6.178   2.394   2.022
  173DPPC   O10 8610   6.426   2.474   2.050
  173DPPC   O11 8611   6.257   2.497   2.237
  173DPPC   C12 8612   6.376   2.556   2.290
  173DPPC   C13 8613   6.355   2.631   2.422
  173DPPC   O14 8614   6.476   2.677   2.484
  173DPPC   C15 8615   6.456   2.790   2.557
  173DPPC   O16 8616   6.369   2.865   2.514
  173DPPC   C17 8617   6.582   2.851   2.620
  173DPPC   C18 8618   6.553   2.937   2.743
  173DPPC   C19 8619   6.643   2.906   2.862
  173DPPC   C20 8620   6.628   2.768   2.926
  173DPPC   C21 8621   6.723   2.756   3.046
  173DPPC   C22 8622   6.694   2.625   3.119
  173DPPC   C23 8623   6.781   2.588   3.240
  173DPPC   C24 8624   6.726   2.681   3.348
  173DPPC   C25 8625   6.797   2.658   3.482
  173DPPC   C26 8626   6.706   2.735   3.578
  173DPPC   C27 8627   6.775   2.755   3.713
  173DPPC   C28 8628   6.804   2.627   3.792
  173DPPC   C29 8629   6.855   2.674   3.929
  173DPPC   C30 8630   6.745   2.758   3.993
  173DPPC   C31 8631   6.781   2.814   4.131
  173DPPC   C32 8632   6.300   2.512   2.501
  173DPPC   O33 8633   6.263   2.526   2.639
  173DPPC   C34 8634   6.241   2.415   2.714
  173DPPC   O35 8635   6.216   2.309   2.657
  173DPPC   C36 8636   6.207   2.436   2.862
  173DPPC   C37 8637   6.315   2.453   2.969
  173DPPC   C38 8638   6.259   2.527   3.091
  173DPPC   C39 8639   6.343   2.533   3.219
  173DPPC   C40 8640   6.296   2.637   3.320
  173DPPC   C41 8641   6.340   2.606   3.464
  173DPPC   C42 8642   6.275   2.707   3.558
  173DPPC   C43 8643   6.339   2.711   3.697
  173DPPC   C44 8644   6.326   2.568   3.750
  173DPPC   C45 8645   6.372   2.574   3.896
  173DPPC   C46 8646   6.294   2.679   3.975
  173DPPC   C47 8647   6.339   2.688   4.121
  173DPPC   C48 8648   6.292   2.822   4.179
  173DPPC   C49 8649   6.382   2.944   4.159
  173DPPC   C50 8650   6.311   3.078   4.173
  174DPPC    C1 8651   9.027   4.871   1.408
  174DPPC    C2 8652   9.173   4.813   1.568
  174DPPC    C3 8653   9.034   4.634   1.490
  174DPPC    N4 8654   9.107   4.756   1.450
  174DPPC    C5 8655   9.192   4.742   1.331
  174DPPC    C6 8656   9.280   4.617   1.330
  174DPPC    O7 8657   9.355   4.606   1.452
  174DPPC    P8 8658   9.425   4.462   1.432
  174DPPC    O9 8659   9.511   4.467   1.311
  174DPPC   O10 8660   9.310   4.369   1.433
  174DPPC   O11 8661   9.511   4.470   1.568
  174DPPC   C12 8662   9.427   4.433   1.678
  174DPPC   C13 8663   9.497   4.450   1.812
  174DPPC   O14 8664   9.417   4.416   1.926
  174DPPC   C15 8665   9.428   4.284   1.958
  174DPPC   O16 8666   9.477   4.201   1.881
  174DPPC   C17 8667   9.367   4.234   2.089
  174DPPC   C18 8668   9.361   4.340   2.199
  174DPPC   C19 8669   9.302   4.278   2.326
  174DPPC   C20 8670   9.294   4.374   2.445
  174DPPC   C21 8671   9.210   4.328   2.564
  174DPPC   C22 8672   9.211   4.418   2.688
  174DPPC   C23 8673   9.150   4.335   2.801
  174DPPC   C24 8674   9.151   4.400   2.940
  174DPPC   C25 8675   9.139   4.293   3.049
  174DPPC   C26 8676   9.113   4.347   3.190
  174DPPC   C27 8677   9.074   4.236   3.288
  174DPPC   C28 8678   8.945   4.167   3.243
  174DPPC   C29 8679   8.911   4.073   3.359
  174DPPC   C30 8680   8.792   3.982   3.326
  174DPPC   C31 8681   8.708   3.950   3.449
  174DPPC   C32 8682   9.566   4.587   1.813
  174DPPC   O33 8683   9.479   4.697   1.786
  174DPPC   C34 8684   9.541   4.818   1.792
  174DPPC   O35 8685   9.664   4.823   1.786
  174DPPC   C36 8686   9.445   4.937   1.787
  174DPPC   C37 8687   9.485   5.037   1.895
  174DPPC   C38 8688   9.391   5.158   1.892
  174DPPC   C39 8689   9.402   5.260   2.005
  174DPPC   C40 8690   9.393   5.198   2.145
  174DPPC   C41 8691   9.376   5.308   2.251
  174DPPC   C42 8692   9.358   5.239   2.386
  174DPPC   C43 8693   9.388   5.338   2.499
  174DPPC   C44 8694   9.352   5.275   2.634
  174DPPC   C45 8695   9.391   5.371   2.747
  174DPPC   C46 8696   9.333   5.327   2.882
  174DPPC   C47 8697   9.375   5.436   2.981
  174DPPC   C48 8698   9.303   5.403   3.112
  174DPPC   C49 8699   9.153   5.414   3.082
  174DPPC   C50 8700   9.060   5.367   3.194
  175DPPC    C1 8701   3.796   1.703   2.191
  175DPPC    C2 8702   3.986   1.819   2.268
  175DPPC    C3 8703   3.780   1.913   2.307
  175DPPC    N4 8704   3.848   1.783   2.303
  175DPPC    C5 8705   3.856   1.718   2.435
  175DPPC    C6 8706   3.725   1.649   2.477
  175DPPC    O7 8707   3.612   1.734   2.495
  175DPPC    P8 8708   3.474   1.653   2.514
  175DPPC    O9 8709   3.514   1.513   2.540
  175DPPC   O10 8710   3.374   1.705   2.417
  175DPPC   O11 8711   3.453   1.724   2.657
  175DPPC   C12 8712   3.486   1.629   2.759
  175DPPC   C13 8713   3.510   1.695   2.895
  175DPPC   O14 8714   3.593   1.627   2.990
  175DPPC   C15 8715   3.726   1.612   2.967
  175DPPC   O16 8716   3.786   1.680   2.884
  175DPPC   C17 8717   3.796   1.533   3.078
  175DPPC   C18 8718   3.780   1.617   3.205
  175DPPC   C19 8719   3.829   1.561   3.339
  175DPPC   C20 8720   3.842   1.671   3.445
  175DPPC   C21 8721   3.880   1.620   3.584
  175DPPC   C22 8722   4.012   1.545   3.602
  175DPPC   C23 8723   4.039   1.512   3.749
  175DPPC   C24 8724   4.051   1.626   3.850
  175DPPC   C25 8725   4.071   1.582   3.995
  175DPPC   C26 8726   4.099   1.708   4.078
  175DPPC   C27 8727   4.142   1.667   4.219
  175DPPC   C28 8728   4.211   1.781   4.295
  175DPPC   C29 8729   4.230   1.756   4.445
  175DPPC   C30 8730   4.322   1.634   4.448
  175DPPC   C31 8731   4.460   1.657   4.387
  175DPPC   C32 8732   3.375   1.752   2.940
  175DPPC   O33 8733   3.281   1.645   2.951
  175DPPC   C34 8734   3.165   1.664   3.020
  175DPPC   O35 8735   3.092   1.750   2.970
  175DPPC   C36 8736   3.110   1.526   3.057
  175DPPC   C37 8737   2.970   1.549   3.114
  175DPPC   C38 8738   2.905   1.414   3.147
  175DPPC   C39 8739   2.990   1.323   3.236
  175DPPC   C40 8740   2.913   1.192   3.250
  175DPPC   C41 8741   2.994   1.098   3.340
  175DPPC   C42 8742   3.019   1.163   3.476
  175DPPC   C43 8743   3.131   1.096   3.555
  175DPPC   C44 8744   3.188   1.173   3.674
  175DPPC   C45 8745   3.302   1.077   3.708
  175DPPC   C46 8746   3.390   1.133   3.819
  175DPPC   C47 8747   3.324   1.170   3.952
  175DPPC   C48 8748   3.440   1.170   4.052
  175DPPC   C49 8749   3.391   1.218   4.189
  175DPPC   C50 8750   3.485   1.190   4.306
  176DPPC    C1 8751   8.368   4.696   1.468
  176DPPC    C2 8752   8.437   4.723   1.237
  176DPPC    C3 8753   8.204   4.702   1.301
  176DPPC    N4 8754   8.336   4.757   1.338
  176DPPC    C5 8755   8.321   4.903   1.349
  176DPPC    C6 8756   8.451   4.984   1.361
  176DPPC    O7 8757   8.495   4.999   1.496
  176DPPC    P8 8758   8.651   5.038   1.505
  176DPPC    O9 8759   8.660   5.170   1.570
  176DPPC   O10 8760   8.707   5.030   1.368
  176DPPC   O11 8761   8.702   4.911   1.590
  176DPPC   C12 8762   8.631   4.889   1.713
  176DPPC   C13 8763   8.695   4.785   1.805
  176DPPC   O14 8764   8.613   4.752   1.918
  176DPPC   C15 8765   8.639   4.630   1.974
  176DPPC   O16 8766   8.698   4.545   1.909
  176DPPC   C17 8767   8.562   4.596   2.102
  176DPPC   C18 8768   8.421   4.538   2.086
  176DPPC   C19 8769   8.357   4.514   2.223
  176DPPC   C20 8770   8.212   4.465   2.233
  176DPPC   C21 8771   8.187   4.405   2.372
  176DPPC   C22 8772   8.044   4.353   2.381
  176DPPC   C23 8773   8.008   4.293   2.518
  176DPPC   C24 8774   7.975   4.405   2.617
  176DPPC   C25 8775   7.949   4.356   2.760
  176DPPC   C26 8776   7.877   4.457   2.849
  176DPPC   C27 8777   7.857   4.411   2.994
  176DPPC   C28 8778   7.778   4.516   3.072
  176DPPC   C29 8779   7.795   4.486   3.221
  176DPPC   C30 8780   7.946   4.506   3.232
  176DPPC   C31 8781   8.000   4.433   3.356
  176DPPC   C32 8782   8.838   4.830   1.833
  176DPPC   O33 8783   8.842   4.961   1.892
  176DPPC   C34 8784   8.966   5.011   1.919
  176DPPC   O35 8785   9.065   4.945   1.888
  176DPPC   C36 8786   8.956   5.134   2.009
  176DPPC   C37 8787   8.952   5.103   2.159
  176DPPC   C38 8788   8.966   5.238   2.228
  176DPPC   C39 8789   8.936   5.222   2.377
  176DPPC   C40 8790   8.970   5.345   2.462
  176DPPC   C41 8791   8.918   5.332   2.605
  176DPPC   C42 8792   8.905   5.463   2.682
  176DPPC   C43 8793   8.850   5.428   2.820
  176DPPC   C44 8794   8.814   5.565   2.878
  176DPPC   C45 8795   8.753   5.555   3.018
  176DPPC   C46 8796   8.627   5.468   3.024
  176DPPC   C47 8797   8.501   5.545   2.986
  176DPPC   C48 8798   8.378   5.454   2.976
  176DPPC   C49 8799   8.280   5.532   2.888
  176DPPC   C50 8800   8.240   5.652   2.974
  177DPPC    C1 8801   9.210   2.550   1.900
  177DPPC    C2 8802   9.021   2.555   1.747
  177DPPC    C3 8803   9.015   2.632   1.969
  177DPPC    N4 8804   9.098   2.629   1.847
  177DPPC    C5 8805   9.152   2.759   1.805
  177DPPC    C6 8806   9.090   2.831   1.686
  177DPPC    O7 8807   8.958   2.878   1.717
  177DPPC    P8 8808   8.970   3.035   1.751
  177DPPC    O9 8809   8.890   3.122   1.662
  177DPPC   O10 8810   9.107   3.064   1.799
  177DPPC   O11 8811   8.886   3.029   1.888
  177DPPC   C12 8812   8.970   3.034   2.004
  177DPPC   C13 8813   8.907   3.065   2.140
  177DPPC   O14 8814   8.852   2.949   2.203
  177DPPC   C15 8815   8.924   2.862   2.279
  177DPPC   O16 8816   9.047   2.855   2.277
  177DPPC   C17 8817   8.844   2.754   2.352
  177DPPC   C18 8818   8.824   2.789   2.500
  177DPPC   C19 8819   8.741   2.692   2.585
  177DPPC   C20 8820   8.714   2.749   2.724
  177DPPC   C21 8821   8.622   2.651   2.798
  177DPPC   C22 8822   8.635   2.656   2.950
  177DPPC   C23 8823   8.547   2.552   3.019
  177DPPC   C24 8824   8.534   2.557   3.172
  177DPPC   C25 8825   8.485   2.692   3.224
  177DPPC   C26 8826   8.450   2.683   3.373
  177DPPC   C27 8827   8.347   2.576   3.408
  177DPPC   C28 8828   8.326   2.558   3.558
  177DPPC   C29 8829   8.208   2.462   3.573
  177DPPC   C30 8830   8.193   2.436   3.723
  177DPPC   C31 8831   8.063   2.370   3.771
  177DPPC   C32 8832   8.802   3.175   2.123
  177DPPC   O33 8833   8.720   3.205   2.236
  177DPPC   C34 8834   8.617   3.129   2.280
  177DPPC   O35 8835   8.573   3.032   2.217
  177DPPC   C36 8836   8.540   3.174   2.404
  177DPPC   C37 8837   8.637   3.233   2.507
  177DPPC   C38 8838   8.559   3.287   2.628
  177DPPC   C39 8839   8.664   3.344   2.724
  177DPPC   C40 8840   8.757   3.231   2.768
  177DPPC   C41 8841   8.848   3.285   2.879
  177DPPC   C42 8842   8.957   3.178   2.888
  177DPPC   C43 8843   8.898   3.055   2.958
  177DPPC   C44 8844   8.998   2.949   3.001
  177DPPC   C45 8845   8.946   2.827   3.078
  177DPPC   C46 8846   9.054   2.755   3.158
  177DPPC   C47 8847   9.013   2.662   3.273
  177DPPC   C48 8848   8.911   2.555   3.235
  177DPPC   C49 8849   8.837   2.486   3.349
  177DPPC   C50 8850   8.922   2.382   3.422
  178DPPC    C1 8851   8.061   2.189   2.051
  178DPPC    C2 8852   8.163   2.402   2.112
  178DPPC    C3 8853   8.239   2.189   2.201
  178DPPC    N4 8854   8.185   2.259   2.084
  178DPPC    C5 8855   8.272   2.245   1.966
  178DPPC    C6 8856   8.423   2.254   1.990
  178DPPC    O7 8857   8.469   2.386   2.016
  178DPPC    P8 8858   8.618   2.388   2.077
  178DPPC    O9 8859   8.656   2.530   2.098
  178DPPC   O10 8860   8.707   2.312   1.987
  178DPPC   O11 8861   8.573   2.312   2.212
  178DPPC   C12 8862   8.536   2.398   2.320
  178DPPC   C13 8863   8.501   2.317   2.445
  178DPPC   O14 8864   8.472   2.396   2.561
  178DPPC   C15 8865   8.339   2.417   2.583
  178DPPC   O16 8866   8.262   2.417   2.487
  178DPPC   C17 8867   8.289   2.442   2.725
  178DPPC   C18 8868   8.137   2.433   2.738
  178DPPC   C19 8869   8.114   2.468   2.886
  178DPPC   C20 8870   8.155   2.613   2.915
  178DPPC   C21 8871   8.116   2.625   3.063
  178DPPC   C22 8872   8.094   2.773   3.095
  178DPPC   C23 8873   8.067   2.781   3.246
  178DPPC   C24 8874   8.055   2.930   3.280
  178DPPC   C25 8875   8.118   2.962   3.415
  178DPPC   C26 8876   8.151   3.110   3.433
  178DPPC   C27 8877   8.178   3.159   3.575
  178DPPC   C28 8878   8.311   3.096   3.618
  178DPPC   C29 8879   8.355   3.146   3.755
  178DPPC   C30 8880   8.493   3.085   3.779
  178DPPC   C31 8881   8.550   3.128   3.915
  178DPPC   C32 8882   8.624   2.229   2.466
  178DPPC   O33 8883   8.615   2.116   2.554
  178DPPC   C34 8884   8.544   2.002   2.536
  178DPPC   O35 8885   8.495   1.976   2.427
  178DPPC   C36 8886   8.538   1.912   2.660
  178DPPC   C37 8887   8.429   1.959   2.757
  178DPPC   C38 8888   8.435   1.888   2.893
  178DPPC   C39 8889   8.310   1.937   2.966
  178DPPC   C40 8890   8.291   1.866   3.100
  178DPPC   C41 8891   8.170   1.929   3.169
  178DPPC   C42 8892   8.153   1.851   3.299
  178DPPC   C43 8893   8.026   1.908   3.361
  178DPPC   C44 8894   7.996   1.854   3.501
  178DPPC   C45 8895   7.892   1.951   3.557
  178DPPC   C46 8896   7.809   1.894   3.673
  178DPPC   C47 8897   7.722   1.777   3.625
  178DPPC   C48 8898   7.640   1.717   3.739
  178DPPC   C49 8899   7.536   1.813   3.797
  178DPPC   C50 8900   7.401   1.741   3.808
  179DPPC    C1 8901   5.328   6.370   2.217
  179DPPC    C2 8902   5.445   6.270   2.399
  179DPPC    C3 8903   5.217   6.265   2.393
  179DPPC    N4 8904   5.334   6.252   2.304
  179DPPC    C5 8905   5.357   6.118   2.249
  179DPPC    C6 8906   5.237   6.061   2.172
  179DPPC    O7 8907   5.204   6.116   2.044
  179DPPC    P8 8908   5.045   6.110   2.022
  179DPPC    O9 8909   4.991   5.976   2.056
  179DPPC   O10 8910   5.002   6.191   1.906
  179DPPC   O11 8911   5.003   6.196   2.152
  179DPPC   C12 8912   4.887   6.279   2.144
  179DPPC   C13 8913   4.832   6.343   2.272
  179DPPC   O14 8914   4.922   6.441   2.326
  179DPPC   C15 8915   4.868   6.530   2.413
  179DPPC   O16 8916   4.760   6.583   2.385
  179DPPC   C17 8917   4.951   6.574   2.533
  179DPPC   C18 8918   4.919   6.493   2.658
  179DPPC   C19 8919   5.010   6.515   2.780
  179DPPC   C20 8920   5.156   6.503   2.736
  179DPPC   C21 8921   5.258   6.504   2.850
  179DPPC   C22 8922   5.239   6.365   2.912
  179DPPC   C23 8923   5.321   6.348   3.040
  179DPPC   C24 8924   5.257   6.439   3.145
  179DPPC   C25 8925   5.329   6.428   3.279
  179DPPC   C26 8926   5.321   6.285   3.335
  179DPPC   C27 8927   5.399   6.289   3.467
  179DPPC   C28 8928   5.367   6.171   3.559
  179DPPC   C29 8929   5.420   6.203   3.699
  179DPPC   C30 8930   5.419   6.081   3.792
  179DPPC   C31 8931   5.280   6.064   3.853
  179DPPC   C32 8932   4.802   6.213   2.347
  179DPPC   O33 8933   4.794   6.214   2.489
  179DPPC   C34 8934   4.764   6.101   2.559
  179DPPC   O35 8935   4.753   5.997   2.495
  179DPPC   C36 8936   4.773   6.101   2.712
  179DPPC   C37 8937   4.906   6.100   2.788
  179DPPC   C38 8938   4.882   6.092   2.939
  179DPPC   C39 8939   5.012   6.060   3.013
  179DPPC   C40 8940   5.003   6.082   3.164
  179DPPC   C41 8941   4.881   5.997   3.198
  179DPPC   C42 8942   4.861   5.969   3.347
  179DPPC   C43 8943   4.738   5.885   3.380
  179DPPC   C44 8944   4.694   5.905   3.525
  179DPPC   C45 8945   4.577   5.812   3.559
  179DPPC   C46 8946   4.524   5.827   3.702
  179DPPC   C47 8947   4.387   5.760   3.707
  179DPPC   C48 8948   4.396   5.608   3.687
  179DPPC   C49 8949   4.293   5.529   3.767
  179DPPC   C50 8950   4.146   5.570   3.758
  180DPPC    C1 8951   6.028   2.595   1.583
  180DPPC    C2 8952   6.251   2.578   1.652
  180DPPC    C3 8953   6.140   2.791   1.649
  180DPPC    N4 8954   6.125   2.648   1.680
  180DPPC    C5 8955   6.072   2.643   1.817
  180DPPC    C6 8956   6.150   2.716   1.925
  180DPPC    O7 8957   6.066   2.732   2.040
  180DPPC    P8 8958   6.139   2.827   2.148
  180DPPC    O9 8959   6.058   2.951   2.149
  180DPPC   O10 8960   6.286   2.828   2.131
  180DPPC   O11 8961   6.104   2.740   2.279
  180DPPC   C12 8962   6.000   2.809   2.349
  180DPPC   C13 8963   5.984   2.740   2.484
  180DPPC   O14 8964   5.848   2.708   2.515
  180DPPC   C15 8965   5.817   2.588   2.573
  180DPPC   O16 8966   5.840   2.487   2.506
  180DPPC   C17 8967   5.734   2.577   2.701
  180DPPC   C18 8968   5.807   2.476   2.790
  180DPPC   C19 8969   5.783   2.474   2.941
  180DPPC   C20 8970   5.848   2.349   3.000
  180DPPC   C21 8971   5.825   2.329   3.150
  180DPPC   C22 8972   5.884   2.192   3.186
  180DPPC   C23 8973   6.037   2.191   3.171
  180DPPC   C24 8974   6.083   2.047   3.193
  180DPPC   C25 8975   6.215   2.024   3.120
  180DPPC   C26 8976   6.310   2.128   3.179
  180DPPC   C27 8977   6.449   2.111   3.117
  180DPPC   C28 8978   6.555   2.204   3.179
  180DPPC   C29 8979   6.547   2.193   3.331
  180DPPC   C30 8980   6.630   2.301   3.400
  180DPPC   C31 8981   6.633   2.273   3.551
  180DPPC   C32 8982   6.077   2.818   2.577
  180DPPC   O33 8983   6.037   2.833   2.714
  180DPPC   C34 8984   6.104   2.924   2.791
  180DPPC   O35 8985   6.160   3.018   2.737
  180DPPC   C36 8986   6.065   2.932   2.939
  180DPPC   C37 8987   5.918   2.902   2.968
  180DPPC   C38 8988   5.887   2.927   3.115
  180DPPC   C39 8989   5.751   2.874   3.158
  180DPPC   C40 8990   5.727   2.888   3.308
  180DPPC   C41 8991   5.607   2.819   3.374
  180DPPC   C42 8992   5.616   2.820   3.527
  180DPPC   C43 8993   5.483   2.764   3.577
  180DPPC   C44 8994   5.463   2.770   3.729
  180DPPC   C45 8995   5.328   2.709   3.762
  180DPPC   C46 8996   5.227   2.797   3.689
  180DPPC   C47 8997   5.202   2.919   3.778
  180DPPC   C48 8998   5.084   3.001   3.726
  180DPPC   C49 8999   5.003   3.059   3.842
  180DPPC   C50 9000   5.093   3.118   3.951
  181DPPC    C1 9001   5.691   5.828   1.770
  181DPPC    C2 9002   5.851   5.792   1.955
  181DPPC    C3 9003   5.638   5.897   1.978
  181DPPC    N4 9004   5.712   5.790   1.910
  181DPPC    C5 9005   5.649   5.662   1.948
  181DPPC    C6 9006   5.670   5.529   1.877
  181DPPC    O7 9007   5.640   5.414   1.957
  181DPPC    P8 9008   5.722   5.282   1.916
  181DPPC    O9 9009   5.802   5.326   1.800
  181DPPC   O10 9010   5.622   5.175   1.894
  181DPPC   O11 9011   5.801   5.264   2.056
  181DPPC   C12 9012   5.704   5.268   2.161
  181DPPC   C13 9013   5.761   5.246   2.302
  181DPPC   O14 9014   5.671   5.297   2.402
  181DPPC   C15 9015   5.581   5.210   2.455
  181DPPC   O16 9016   5.573   5.091   2.428
  181DPPC   C17 9017   5.537   5.269   2.589
  181DPPC   C18 9018   5.402   5.337   2.569
  181DPPC   C19 9019   5.364   5.425   2.688
  181DPPC   C20 9020   5.304   5.342   2.802
  181DPPC   C21 9021   5.320   5.416   2.935
  181DPPC   C22 9022   5.252   5.349   3.054
  181DPPC   C23 9023   5.258   5.443   3.175
  181DPPC   C24 9024   5.224   5.376   3.309
  181DPPC   C25 9025   5.085   5.312   3.309
  181DPPC   C26 9026   4.974   5.416   3.322
  181DPPC   C27 9027   4.842   5.362   3.269
  181DPPC   C28 9028   4.721   5.436   3.328
  181DPPC   C29 9029   4.597   5.391   3.252
  181DPPC   C30 9030   4.476   5.479   3.286
  181DPPC   C31 9031   4.493   5.616   3.218
  181DPPC   C32 9032   5.902   5.305   2.312
  181DPPC   O33 9033   5.979   5.246   2.417
  181DPPC   C34 9034   6.113   5.267   2.419
  181DPPC   O35 9035   6.161   5.355   2.347
  181DPPC   C36 9036   6.194   5.187   2.521
  181DPPC   C37 9037   6.213   5.281   2.640
  181DPPC   C38 9038   6.267   5.221   2.770
  181DPPC   C39 9039   6.259   5.320   2.887
  181DPPC   C40 9040   6.324   5.258   3.011
  181DPPC   C41 9041   6.475   5.231   3.003
  181DPPC   C42 9042   6.522   5.169   3.135
  181DPPC   C43 9043   6.669   5.125   3.140
  181DPPC   C44 9044   6.686   5.017   3.247
  181DPPC   C45 9045   6.593   4.896   3.233
  181DPPC   C46 9046   6.649   4.770   3.299
  181DPPC   C47 9047   6.672   4.805   3.446
  181DPPC   C48 9048   6.750   4.702   3.528
  181DPPC   C49 9049   6.698   4.559   3.522
  181DPPC   C50 9050   6.784   4.452   3.588
  182DPPC    C1 9051   8.130   0.538   1.683
  182DPPC    C2 9052   8.351   0.631   1.660
  182DPPC    C3 9053   8.227   0.592   1.468
  182DPPC    N4 9054   8.214   0.633   1.608
  182DPPC    C5 9055   8.165   0.772   1.618
  182DPPC    C6 9056   8.021   0.805   1.579
  182DPPC    O7 9057   8.002   0.946   1.563
  182DPPC    P8 9058   7.861   0.958   1.486
  182DPPC    O9 9059   7.854   0.839   1.399
  182DPPC   O10 9060   7.846   1.099   1.444
  182DPPC   O11 9061   7.790   0.917   1.624
  182DPPC   C12 9062   7.777   1.036   1.702
  182DPPC   C13 9063   7.715   0.993   1.836
  182DPPC   O14 9064   7.685   1.109   1.914
  182DPPC   C15 9065   7.569   1.179   1.899
  182DPPC   O16 9066   7.481   1.150   1.819
  182DPPC   C17 9067   7.549   1.304   1.986
  182DPPC   C18 9068   7.432   1.288   2.083
  182DPPC   C19 9069   7.401   1.426   2.141
  182DPPC   C20 9070   7.296   1.417   2.251
  182DPPC   C21 9071   7.245   1.554   2.298
  182DPPC   C22 9072   7.146   1.533   2.413
  182DPPC   C23 9073   7.205   1.470   2.539
  182DPPC   C24 9074   7.097   1.446   2.644
  182DPPC   C25 9075   7.164   1.409   2.777
  182DPPC   C26 9076   7.067   1.396   2.895
  182DPPC   C27 9077   7.133   1.392   3.033
  182DPPC   C28 9078   7.048   1.333   3.145
  182DPPC   C29 9079   7.126   1.344   3.276
  182DPPC   C30 9080   7.042   1.266   3.378
  182DPPC   C31 9081   7.095   1.265   3.521
  182DPPC   C32 9082   7.814   0.889   1.890
  182DPPC   O33 9083   7.934   0.959   1.922
  182DPPC   C34 9084   8.038   0.884   1.967
  182DPPC   O35 9085   8.045   0.762   1.956
  182DPPC   C36 9086   8.135   0.970   2.048
  182DPPC   C37 9087   8.091   1.007   2.190
  182DPPC   C38 9088   8.193   1.097   2.260
  182DPPC   C39 9089   8.163   1.111   2.409
  182DPPC   C40 9090   8.274   1.195   2.472
  182DPPC   C41 9091   8.241   1.234   2.616
  182DPPC   C42 9092   8.146   1.354   2.610
  182DPPC   C43 9093   8.119   1.427   2.742
  182DPPC   C44 9094   8.054   1.560   2.703
  182DPPC   C45 9095   8.014   1.639   2.828
  182DPPC   C46 9096   7.888   1.566   2.874
  182DPPC   C47 9097   7.833   1.636   2.998
  182DPPC   C48 9098   7.700   1.574   3.044
  182DPPC   C49 9099   7.654   1.622   3.182
  182DPPC   C50 9100   7.752   1.597   3.296
  183DPPC    C1 9101   7.579   3.472   2.042
  183DPPC    C2 9102   7.612   3.663   1.919
  183DPPC    C3 9103   7.517   3.464   1.813
  183DPPC    N4 9104   7.519   3.550   1.933
  183DPPC    C5 9105   7.388   3.609   1.962
  183DPPC    C6 9106   7.259   3.527   1.966
  183DPPC    O7 9107   7.246   3.418   2.057
  183DPPC    P8 9108   7.106   3.339   2.055
  183DPPC    O9 9109   7.117   3.234   2.159
  183DPPC   O10 9110   7.072   3.314   1.914
  183DPPC   O11 9111   7.022   3.461   2.118
  183DPPC   C12 9112   6.995   3.433   2.256
  183DPPC   C13 9113   7.072   3.532   2.344
  183DPPC   O14 9114   7.088   3.477   2.475
  183DPPC   C15 9115   7.192   3.539   2.539
  183DPPC   O16 9116   7.296   3.573   2.483
  183DPPC   C17 9117   7.189   3.520   2.690
  183DPPC   C18 9118   7.300   3.429   2.744
  183DPPC   C19 9119   7.274   3.409   2.893
  183DPPC   C20 9120   7.370   3.323   2.976
  183DPPC   C21 9121   7.309   3.328   3.117
  183DPPC   C22 9122   7.406   3.252   3.208
  183DPPC   C23 9123   7.350   3.268   3.349
  183DPPC   C24 9124   7.440   3.222   3.464
  183DPPC   C25 9125   7.361   3.208   3.594
  183DPPC   C26 9126   7.432   3.158   3.720
  183DPPC   C27 9127   7.561   3.235   3.752
  183DPPC   C28 9128   7.619   3.202   3.890
  183DPPC   C29 9129   7.519   3.193   4.005
  183DPPC   C30 9130   7.591   3.139   4.129
  183DPPC   C31 9131   7.656   3.002   4.111
  183DPPC   C32 9132   6.997   3.664   2.330
  183DPPC   O33 9133   7.061   3.776   2.393
  183DPPC   C34 9134   7.169   3.831   2.332
  183DPPC   O35 9135   7.227   3.777   2.238
  183DPPC   C36 9136   7.230   3.954   2.399
  183DPPC   C37 9137   7.321   3.916   2.516
  183DPPC   C38 9138   7.233   3.903   2.640
  183DPPC   C39 9139   7.326   3.885   2.760
  183DPPC   C40 9140   7.235   3.873   2.883
  183DPPC   C41 9141   7.284   3.768   2.983
  183DPPC   C42 9142   7.418   3.824   3.033
  183DPPC   C43 9143   7.477   3.749   3.152
  183DPPC   C44 9144   7.377   3.757   3.268
  183DPPC   C45 9145   7.427   3.707   3.404
  183DPPC   C46 9146   7.326   3.743   3.513
  183DPPC   C47 9147   7.201   3.661   3.482
  183DPPC   C48 9148   7.091   3.673   3.587
  183DPPC   C49 9149   6.998   3.553   3.568
  183DPPC   C50 9150   6.917   3.568   3.439
  184DPPC    C1 9151   1.702   1.705   1.886
  184DPPC    C2 9152   1.492   1.732   1.994
  184DPPC    C3 9153   1.686   1.702   2.116
  184DPPC    N4 9154   1.634   1.772   1.997
  184DPPC    C5 9155   1.660   1.915   2.016
  184DPPC    C6 9156   1.604   2.001   1.902
  184DPPC    O7 9157   1.650   2.136   1.914
  184DPPC    P8 9158   1.577   2.201   1.787
  184DPPC    O9 9159   1.540   2.109   1.677
  184DPPC   O10 9160   1.628   2.340   1.779
  184DPPC   O11 9161   1.448   2.222   1.881
  184DPPC   C12 9162   1.471   2.322   1.981
  184DPPC   C13 9163   1.360   2.335   2.086
  184DPPC   O14 9164   1.378   2.455   2.163
  184DPPC   C15 9165   1.267   2.531   2.186
  184DPPC   O16 9166   1.173   2.509   2.110
  184DPPC   C17 9167   1.287   2.653   2.276
  184DPPC   C18 9168   1.318   2.600   2.416
  184DPPC   C19 9169   1.187   2.549   2.476
  184DPPC   C20 9170   1.204   2.528   2.627
  184DPPC   C21 9171   1.075   2.490   2.700
  184DPPC   C22 9172   1.097   2.505   2.850
  184DPPC   C23 9173   0.972   2.437   2.907
  184DPPC   C24 9174   0.952   2.485   3.051
  184DPPC   C25 9175   0.842   2.427   3.139
  184DPPC   C26 9176   0.829   2.483   3.281
  184DPPC   C27 9177   0.700   2.420   3.333
  184DPPC   C28 9178   0.668   2.446   3.481
  184DPPC   C29 9179   0.774   2.373   3.564
  184DPPC   C30 9180   0.748   2.222   3.558
  184DPPC   C31 9181   0.853   2.159   3.649
  184DPPC   C32 9182   1.349   2.199   2.155
  184DPPC   O33 9183   1.472   2.170   2.221
  184DPPC   C34 9184   1.481   2.051   2.287
  184DPPC   O35 9185   1.443   1.951   2.226
  184DPPC   C36 9186   1.606   2.039   2.375
  184DPPC   C37 9187   1.596   1.944   2.495
  184DPPC   C38 9188   1.722   1.958   2.581
  184DPPC   C39 9189   1.698   1.890   2.716
  184DPPC   C40 9190   1.828   1.919   2.791
  184DPPC   C41 9191   1.845   2.071   2.784
  184DPPC   C42 9192   1.762   2.139   2.893
  184DPPC   C43 9193   1.801   2.071   3.025
  184DPPC   C44 9194   1.763   2.151   3.150
  184DPPC   C45 9195   1.828   2.080   3.269
  184DPPC   C46 9196   1.807   1.930   3.247
  184DPPC   C47 9197   1.886   1.840   3.341
  184DPPC   C48 9198   1.860   1.691   3.321
  184DPPC   C49 9199   1.923   1.612   3.436
  184DPPC   C50 9200   1.874   1.467   3.439
  185DPPC    C1 9201   6.658   7.194   1.789
  185DPPC    C2 9202   6.608   7.281   2.024
  185DPPC    C3 9203   6.482   7.340   1.834
  185DPPC    N4 9204   6.562   7.233   1.894
  185DPPC    C5 9205   6.462   7.128   1.917
  185DPPC    C6 9206   6.495   6.982   1.947
  185DPPC    O7 9207   6.603   6.976   2.040
  185DPPC    P8 9208   6.709   6.862   1.999
  185DPPC    O9 9209   6.834   6.904   2.067
  185DPPC   O10 9210   6.705   6.848   1.852
  185DPPC   O11 9211   6.648   6.745   2.092
  185DPPC   C12 9212   6.663   6.786   2.228
  185DPPC   C13 9213   6.567   6.702   2.313
  185DPPC   O14 9214   6.558   6.727   2.454
  185DPPC   C15 9215   6.446   6.680   2.515
  185DPPC   O16 9216   6.355   6.628   2.450
  185DPPC   C17 9217   6.431   6.715   2.663
  185DPPC   C18 9218   6.296   6.781   2.690
  185DPPC   C19 9219   6.247   6.755   2.833
  185DPPC   C20 9220   6.329   6.820   2.945
  185DPPC   C21 9221   6.280   6.791   3.087
  185DPPC   C22 9222   6.375   6.862   3.183
  185DPPC   C23 9223   6.349   6.826   3.330
  185DPPC   C24 9224   6.446   6.890   3.430
  185DPPC   C25 9225   6.435   6.822   3.567
  185DPPC   C26 9226   6.518   6.910   3.661
  185DPPC   C27 9227   6.556   6.837   3.791
  185DPPC   C28 9228   6.636   6.915   3.895
  185DPPC   C29 9229   6.690   6.817   4.000
  185DPPC   C30 9230   6.585   6.788   4.107
  185DPPC   C31 9231   6.640   6.696   4.216
  185DPPC   C32 9232   6.632   6.565   2.290
  185DPPC   O33 9233   6.774   6.558   2.303
  185DPPC   C34 9234   6.826   6.447   2.244
  185DPPC   O35 9235   6.756   6.369   2.180
  185DPPC   C36 9236   6.977   6.446   2.272
  185DPPC   C37 9237   7.027   6.343   2.373
  185DPPC   C38 9238   7.030   6.395   2.516
  185DPPC   C39 9239   7.064   6.282   2.614
  185DPPC   C40 9240   7.075   6.334   2.757
  185DPPC   C41 9241   7.113   6.227   2.859
  185DPPC   C42 9242   7.243   6.147   2.842
  185DPPC   C43 9243   7.239   6.024   2.934
  185DPPC   C44 9244   7.360   5.935   2.906
  185DPPC   C45 9245   7.364   5.820   3.006
  185DPPC   C46 9246   7.490   5.733   3.009
  185DPPC   C47 9247   7.482   5.636   2.891
  185DPPC   C48 9248   7.602   5.542   2.883
  185DPPC   C49 9249   7.738   5.612   2.879
  185DPPC   C50 9250   7.847   5.510   2.847
  186DPPC    C1 9251   6.811   2.122   2.054
  186DPPC    C2 9252   6.808   2.351   2.048
  186DPPC    C3 9253   6.615   2.234   1.964
  186DPPC    N4 9254   6.719   2.236   2.068
  186DPPC    C5 9255   6.657   2.253   2.200
  186DPPC    C6 9256   6.557   2.147   2.246
  186DPPC    O7 9257   6.611   2.015   2.260
  186DPPC    P8 9258   6.502   1.898   2.272
  186DPPC    O9 9259   6.583   1.775   2.286
  186DPPC   O10 9260   6.418   1.921   2.152
  186DPPC   O11 9261   6.447   1.947   2.415
  186DPPC   C12 9262   6.532   1.872   2.502
  186DPPC   C13 9263   6.497   1.899   2.649
  186DPPC   O14 9264   6.381   1.831   2.697
  186DPPC   C15 9265   6.388   1.695   2.704
  186DPPC   O16 9266   6.478   1.640   2.642
  186DPPC   C17 9267   6.284   1.618   2.787
  186DPPC   C18 9268   6.333   1.556   2.918
  186DPPC   C19 9269   6.338   1.646   3.041
  186DPPC   C20 9270   6.354   1.560   3.167
  186DPPC   C21 9271   6.398   1.656   3.277
  186DPPC   C22 9272   6.382   1.606   3.420
  186DPPC   C23 9273   6.413   1.706   3.532
  186DPPC   C24 9274   6.309   1.818   3.542
  186DPPC   C25 9275   6.342   1.941   3.625
  186DPPC   C26 9276   6.265   2.066   3.583
  186DPPC   C27 9277   6.297   2.174   3.686
  186DPPC   C28 9278   6.221   2.143   3.815
  186DPPC   C29 9279   6.276   2.227   3.931
  186DPPC   C30 9280   6.204   2.192   4.061
  186DPPC   C31 9281   6.263   2.267   4.181
  186DPPC   C32 9282   6.499   2.050   2.671
  186DPPC   O33 9283   6.628   2.096   2.712
  186DPPC   C34 9284   6.638   2.231   2.724
  186DPPC   O35 9285   6.538   2.302   2.726
  186DPPC   C36 9286   6.771   2.289   2.773
  186DPPC   C37 9287   6.789   2.254   2.921
  186DPPC   C38 9288   6.929   2.281   2.975
  186DPPC   C39 9289   6.931   2.213   3.112
  186DPPC   C40 9290   7.079   2.205   3.151
  186DPPC   C41 9291   7.097   2.145   3.291
  186DPPC   C42 9292   7.057   2.238   3.405
  186DPPC   C43 9293   7.059   2.173   3.543
  186DPPC   C44 9294   7.060   2.277   3.655
  186DPPC   C45 9295   7.071   2.219   3.795
  186DPPC   C46 9296   7.018   2.325   3.892
  186DPPC   C47 9297   6.979   2.281   4.033
  186DPPC   C48 9298   6.869   2.174   4.035
  186DPPC   C49 9299   6.731   2.220   3.989
  186DPPC   C50 9300   6.630   2.130   4.061
  187DPPC    C1 9301   9.261   1.212   0.921
  187DPPC    C2 9302   9.038   1.183   0.941
  187DPPC    C3 9303   9.181   1.004   0.857
  187DPPC    N4 9304   9.164   1.109   0.959
  187DPPC    C5 9305   9.191   1.074   1.099
  187DPPC    C6 9306   9.112   0.956   1.155
  187DPPC    O7 9307   8.987   1.001   1.208
  187DPPC    P8 9308   8.935   0.869   1.285
  187DPPC    O9 9309   9.022   0.752   1.263
  187DPPC   O10 9310   8.789   0.845   1.278
  187DPPC   O11 9311   8.988   0.913   1.431
  187DPPC   C12 9312   8.888   0.927   1.532
  187DPPC   C13 9313   8.928   0.951   1.677
  187DPPC   O14 9314   8.836   0.930   1.786
  187DPPC   C15 9315   8.795   0.805   1.822
  187DPPC   O16 9316   8.852   0.710   1.770
  187DPPC   C17 9317   8.690   0.786   1.932
  187DPPC   C18 9318   8.707   0.665   2.023
  187DPPC   C19 9319   8.597   0.646   2.127
  187DPPC   C20 9320   8.459   0.620   2.065
  187DPPC   C21 9321   8.370   0.592   2.186
  187DPPC   C22 9322   8.363   0.726   2.259
  187DPPC   C23 9323   8.348   0.671   2.402
  187DPPC   C24 9324   8.350   0.799   2.486
  187DPPC   C25 9325   8.359   0.779   2.638
  187DPPC   C26 9326   8.375   0.917   2.700
  187DPPC   C27 9327   8.394   0.909   2.852
  187DPPC   C28 9328   8.371   1.041   2.926
  187DPPC   C29 9329   8.390   1.009   3.074
  187DPPC   C30 9330   8.541   0.999   3.099
  187DPPC   C31 9331   8.562   0.996   3.251
  187DPPC   C32 9332   8.975   1.096   1.673
  187DPPC   O33 9333   9.053   1.148   1.781
  187DPPC   C34 9334   9.178   1.094   1.788
  187DPPC   O35 9335   9.231   1.049   1.687
  187DPPC   C36 9336   9.243   1.096   1.927
  187DPPC   C37 9337   9.288   0.958   1.976
  187DPPC   C38 9338   9.176   0.884   2.047
  187DPPC   C39 9339   9.136   0.945   2.182
  187DPPC   C40 9340   9.025   0.857   2.239
  187DPPC   C41 9341   9.075   0.713   2.244
  187DPPC   C42 9342   8.965   0.615   2.285
  187DPPC   C43 9343   8.897   0.661   2.414
  187DPPC   C44 9344   8.795   0.560   2.467
  187DPPC   C45 9345   8.725   0.619   2.589
  187DPPC   C46 9346   8.670   0.517   2.689
  187DPPC   C47 9347   8.619   0.599   2.807
  187DPPC   C48 9348   8.603   0.511   2.931
  187DPPC   C49 9349   8.551   0.601   3.043
  187DPPC   C50 9350   8.479   0.529   3.157
  188DPPC    C1 9351   7.474   2.328   1.985
  188DPPC    C2 9352   7.578   2.122   1.919
  188DPPC    C3 9353   7.348   2.166   1.861
  188DPPC    N4 9354   7.481   2.226   1.879
  188DPPC    C5 9355   7.518   2.291   1.753
  188DPPC    C6 9356   7.654   2.350   1.714
  188DPPC    O7 9357   7.766   2.263   1.728
  188DPPC    P8 9358   7.895   2.359   1.717
  188DPPC    O9 9359   7.868   2.459   1.611
  188DPPC   O10 9360   8.020   2.280   1.724
  188DPPC   O11 9361   7.878   2.440   1.856
  188DPPC   C12 9362   7.897   2.578   1.823
  188DPPC   C13 9363   7.931   2.667   1.943
  188DPPC   O14 9364   8.073   2.674   1.961
  188DPPC   C15 9365   8.122   2.797   1.992
  188DPPC   O16 9366   8.093   2.894   1.923
  188DPPC   C17 9367   8.257   2.787   2.064
  188DPPC   C18 9368   8.255   2.740   2.210
  188DPPC   C19 9369   8.183   2.835   2.307
  188DPPC   C20 9370   8.233   2.815   2.451
  188DPPC   C21 9371   8.209   2.932   2.547
  188DPPC   C22 9372   8.286   2.886   2.670
  188DPPC   C23 9373   8.267   3.001   2.769
  188DPPC   C24 9374   8.353   2.964   2.890
  188DPPC   C25 9375   8.373   3.088   2.976
  188DPPC   C26 9376   8.451   3.063   3.105
  188DPPC   C27 9377   8.454   3.194   3.185
  188DPPC   C28 9378   8.524   3.162   3.317
  188DPPC   C29 9379   8.663   3.103   3.296
  188DPPC   C30 9380   8.714   3.071   3.437
  188DPPC   C31 9381   8.726   2.919   3.452
  188DPPC   C32 9382   7.844   2.609   2.055
  188DPPC   O33 9383   7.828   2.690   2.172
  188DPPC   C34 9384   7.723   2.655   2.251
  188DPPC   O35 9385   7.639   2.576   2.207
  188DPPC   C36 9386   7.693   2.739   2.375
  188DPPC   C37 9387   7.817   2.764   2.460
  188DPPC   C38 9388   7.820   2.867   2.574
  188DPPC   C39 9389   7.713   2.821   2.674
  188DPPC   C40 9390   7.719   2.922   2.788
  188DPPC   C41 9391   7.620   2.894   2.902
  188DPPC   C42 9392   7.678   2.929   3.039
  188DPPC   C43 9393   7.586   2.892   3.156
  188DPPC   C44 9394   7.675   2.915   3.278
  188DPPC   C45 9395   7.634   2.842   3.406
  188DPPC   C46 9396   7.739   2.872   3.513
  188DPPC   C47 9397   7.720   2.800   3.646
  188DPPC   C48 9398   7.851   2.809   3.723
  188DPPC   C49 9399   7.836   2.748   3.863
  188DPPC   C50 9400   7.951   2.776   3.959
  189DPPC    C1 9401   9.015   3.657   1.566
  189DPPC    C2 9402   8.894   3.467   1.656
  189DPPC    C3 9403   8.934   3.667   1.789
  189DPPC    N4 9404   8.906   3.614   1.655
  189DPPC    C5 9405   8.773   3.653   1.608
  189DPPC    C6 9406   8.725   3.797   1.628
  189DPPC    O7 9407   8.826   3.891   1.590
  189DPPC    P8 9408   8.785   4.046   1.579
  189DPPC    O9 9409   8.640   4.046   1.550
  189DPPC   O10 9410   8.882   4.114   1.490
  189DPPC   O11 9411   8.806   4.079   1.735
  189DPPC   C12 9412   8.947   4.071   1.759
  189DPPC   C13 9413   9.004   4.147   1.878
  189DPPC   O14 9414   8.977   4.096   2.009
  189DPPC   C15 9415   9.037   3.981   2.051
  189DPPC   O16 9416   9.092   3.908   1.969
  189DPPC   C17 9417   9.001   3.939   2.193
  189DPPC   C18 9418   9.042   4.045   2.296
  189DPPC   C19 9419   8.953   4.035   2.420
  189DPPC   C20 9420   8.808   4.068   2.386
  189DPPC   C21 9421   8.740   4.123   2.512
  189DPPC   C22 9422   8.591   4.147   2.489
  189DPPC   C23 9423   8.541   4.182   2.630
  189DPPC   C24 9424   8.400   4.240   2.616
  189DPPC   C25 9425   8.350   4.301   2.747
  189DPPC   C26 9426   8.348   4.215   2.874
  189DPPC   C27 9427   8.296   4.286   2.999
  189DPPC   C28 9428   8.275   4.197   3.122
  189DPPC   C29 9429   8.405   4.180   3.199
  189DPPC   C30 9430   8.403   4.214   3.348
  189DPPC   C31 9431   8.298   4.131   3.424
  189DPPC   C32 9432   8.980   4.297   1.857
  189DPPC   O33 9433   9.065   4.383   1.933
  189DPPC   C34 9434   9.082   4.511   1.892
  189DPPC   O35 9435   9.053   4.547   1.777
  189DPPC   C36 9436   9.163   4.603   1.984
  189DPPC   C37 9437   9.071   4.675   2.083
  189DPPC   C38 9438   9.027   4.594   2.206
  189DPPC   C39 9439   8.904   4.663   2.264
  189DPPC   C40 9440   8.881   4.634   2.412
  189DPPC   C41 9441   8.761   4.704   2.477
  189DPPC   C42 9442   8.790   4.697   2.626
  189DPPC   C43 9443   8.771   4.553   2.672
  189DPPC   C44 9444   8.748   4.552   2.823
  189DPPC   C45 9445   8.720   4.415   2.886
  189DPPC   C46 9446   8.673   4.449   3.028
  189DPPC   C47 9447   8.777   4.543   3.090
  189DPPC   C48 9448   8.714   4.601   3.216
  189DPPC   C49 9449   8.647   4.491   3.298
  189DPPC   C50 9450   8.585   4.561   3.419
  190DPPC    C1 9451   5.095   7.117   1.983
  190DPPC    C2 9452   4.862   7.184   1.942
  190DPPC    C3 9453   4.965   7.220   2.156
  190DPPC    N4 9454   4.988   7.213   2.011
  190DPPC    C5 9455   5.026   7.353   1.982
  190DPPC    C6 9456   5.157   7.404   2.042
  190DPPC    O7 9457   5.135   7.498   2.147
  190DPPC    P8 9458   5.281   7.552   2.186
  190DPPC    O9 9459   5.240   7.641   2.296
  190DPPC   O10 9460   5.358   7.590   2.065
  190DPPC   O11 9461   5.322   7.409   2.246
  190DPPC   C12 9462   5.261   7.397   2.374
  190DPPC   C13 9463   5.244   7.248   2.405
  190DPPC   O14 9464   5.127   7.202   2.475
  190DPPC   C15 9465   5.098   7.071   2.456
  190DPPC   O16 9466   5.148   6.993   2.375
  190DPPC   C17 9467   4.984   7.027   2.548
  190DPPC   C18 9468   5.042   6.934   2.654
  190DPPC   C19 9469   5.156   7.002   2.730
  190DPPC   C20 9470   5.241   6.886   2.780
  190DPPC   C21 9471   5.393   6.907   2.782
  190DPPC   C22 9472   5.452   6.828   2.899
  190DPPC   C23 9473   5.600   6.863   2.921
  190DPPC   C24 9474   5.635   6.819   3.063
  190DPPC   C25 9475   5.630   6.666   3.072
  190DPPC   C26 9476   5.728   6.589   2.983
  190DPPC   C27 9477   5.683   6.443   2.987
  190DPPC   C28 9478   5.714   6.381   3.123
  190DPPC   C29 9479   5.700   6.228   3.125
  190DPPC   C30 9480   5.760   6.179   3.257
  190DPPC   C31 9481   5.719   6.036   3.290
  190DPPC   C32 9482   5.381   7.212   2.462
  190DPPC   O33 9483   5.424   7.280   2.581
  190DPPC   C34 9484   5.556   7.245   2.587
  190DPPC   O35 9485   5.585   7.134   2.545
  190DPPC   C36 9486   5.652   7.356   2.631
  190DPPC   C37 9487   5.649   7.372   2.783
  190DPPC   C38 9488   5.717   7.502   2.826
  190DPPC   C39 9489   5.868   7.483   2.841
  190DPPC   C40 9490   5.932   7.600   2.916
  190DPPC   C41 9491   5.908   7.729   2.838
  190DPPC   C42 9492   5.953   7.853   2.916
  190DPPC   C43 9493   5.868   7.865   3.043
  190DPPC   C44 9494   5.919   7.971   3.141
  190DPPC   C45 9495   5.837   7.990   3.269
  190DPPC   C46 9496   5.903   8.090   3.364
  190DPPC   C47 9497   5.826   8.115   3.494
  190DPPC   C48 9498   5.905   8.205   3.589
  190DPPC   C49 9499   5.829   8.219   3.721
  190DPPC   C50 9500   5.906   8.265   3.845
  191DPPC    C1 9501   1.046   2.206   1.607
  191DPPC    C2 9502   1.231   2.086   1.501
  191DPPC    C3 9503   1.189   2.067   1.739
  191DPPC    N4 9504   1.128   2.084   1.606
  191DPPC    C5 9505   1.048   1.969   1.561
  191DPPC    C6 9506   0.955   1.899   1.660
  191DPPC    O7 9507   0.857   1.980   1.725
  191DPPC    P8 9508   0.762   1.891   1.820
  191DPPC    O9 9509   0.866   1.811   1.890
  191DPPC   O10 9510   0.682   1.841   1.707
  191DPPC   O11 9511   0.696   2.023   1.883
  191DPPC   C12 9512   0.757   2.027   2.012
  191DPPC   C13 9513   0.771   2.169   2.066
  191DPPC   O14 9514   0.852   2.195   2.182
  191DPPC   C15 9515   0.980   2.152   2.199
  191DPPC   O16 9516   1.051   2.135   2.100
  191DPPC   C17 9517   1.040   2.164   2.340
  191DPPC   C18 9518   1.050   2.026   2.404
  191DPPC   C19 9519   1.102   2.051   2.546
  191DPPC   C20 9520   1.232   2.132   2.553
  191DPPC   C21 9521   1.287   2.090   2.690
  191DPPC   C22 9522   1.346   2.207   2.767
  191DPPC   C23 9523   1.356   2.170   2.915
  191DPPC   C24 9524   1.416   2.283   2.998
  191DPPC   C25 9525   1.379   2.257   3.144
  191DPPC   C26 9526   1.228   2.242   3.167
  191DPPC   C27 9527   1.197   2.191   3.308
  191DPPC   C28 9528   1.282   2.067   3.337
  191DPPC   C29 9529   1.236   2.014   3.473
  191DPPC   C30 9530   1.300   1.882   3.519
  191DPPC   C31 9531   1.246   1.833   3.653
  191DPPC   C32 9532   0.624   2.208   2.085
  191DPPC   O33 9533   0.548   2.127   2.175
  191DPPC   C34 9534   0.412   2.130   2.168
  191DPPC   O35 9535   0.351   2.198   2.086
  191DPPC   C36 9536   0.344   2.018   2.247
  191DPPC   C37 9537   0.268   2.061   2.372
  191DPPC   C38 9538   0.230   1.933   2.447
  191DPPC   C39 9539   0.190   1.971   2.590
  191DPPC   C40 9540   0.064   2.057   2.587
  191DPPC   C41 9541   0.017   2.054   2.732
  191DPPC   C42 9542  -0.003   1.906   2.763
  191DPPC   C43 9543  -0.024   1.882   2.913
  191DPPC   C44 9544  -0.136   1.965   2.975
  191DPPC   C45 9545  -0.170   1.874   3.093
  191DPPC   C46 9546  -0.285   1.943   3.167
  191DPPC   C47 9547  -0.255   2.063   3.257
  191DPPC   C48 9548  -0.382   2.109   3.329
  191DPPC   C49 9549  -0.434   1.984   3.400
  191DPPC   C50 9550  -0.564   1.983   3.480
  192DPPC    C1 9551   4.861   1.008   1.993
  192DPPC    C2 9552   4.851   0.769   2.000
  192DPPC    C3 9553   5.063   0.877   1.977
  192DPPC    N4 9554   4.930   0.887   2.039
  192DPPC    C5 9555   4.944   0.873   2.185
  192DPPC    C6 9556   4.997   0.977   2.283
  192DPPC    O7 9557   4.931   1.103   2.271
  192DPPC    P8 9558   5.017   1.211   2.354
  192DPPC    O9 9559   4.955   1.340   2.318
  192DPPC   O10 9560   5.157   1.178   2.320
  192DPPC   O11 9561   4.980   1.186   2.508
  192DPPC   C12 9562   4.864   1.251   2.560
  192DPPC   C13 9563   4.870   1.243   2.712
  192DPPC   O14 9564   4.749   1.288   2.774
  192DPPC   C15 9565   4.642   1.205   2.760
  192DPPC   O16 9566   4.641   1.101   2.693
  192DPPC   C17 9567   4.510   1.258   2.817
  192DPPC   C18 9568   4.526   1.382   2.905
  192DPPC   C19 9569   4.396   1.434   2.966
  192DPPC   C20 9570   4.346   1.355   3.087
  192DPPC   C21 9571   4.226   1.421   3.156
  192DPPC   C22 9572   4.172   1.324   3.261
  192DPPC   C23 9573   4.255   1.314   3.389
  192DPPC   C24 9574   4.191   1.223   3.493
  192DPPC   C25 9575   4.289   1.204   3.608
  192DPPC   C26 9576   4.424   1.176   3.540
  192DPPC   C27 9577   4.500   1.089   3.641
  192DPPC   C28 9578   4.596   1.008   3.554
  192DPPC   C29 9579   4.672   0.908   3.642
  192DPPC   C30 9580   4.762   0.825   3.549
  192DPPC   C31 9581   4.897   0.888   3.516
  192DPPC   C32 9582   5.000   1.309   2.760
  192DPPC   O33 9583   5.039   1.263   2.889
  192DPPC   C34 9584   5.167   1.290   2.927
  192DPPC   O35 9585   5.259   1.280   2.846
  192DPPC   C36 9586   5.183   1.261   3.077
  192DPPC   C37 9587   5.241   1.120   3.086
  192DPPC   C38 9588   5.256   1.110   3.238
  192DPPC   C39 9589   5.221   0.968   3.283
  192DPPC   C40 9590   5.289   0.947   3.419
  192DPPC   C41 9591   5.325   0.803   3.453
  192DPPC   C42 9592   5.382   0.796   3.595
  192DPPC   C43 9593   5.421   0.655   3.639
  192DPPC   C44 9594   5.460   0.635   3.786
  192DPPC   C45 9595   5.447   0.489   3.829
  192DPPC   C46 9596   5.525   0.407   3.725
  192DPPC   C47 9597   5.524   0.261   3.770
  192DPPC   C48 9598   5.604   0.179   3.670
  192DPPC   C49 9599   5.638   0.039   3.721
  192DPPC   C50 9600   5.517  -0.037   3.775
  193DPPC    C1 9601   5.484   5.665   6.354
  193DPPC    C2 9602   5.349   5.477   6.349
  193DPPC    C3 9603   5.307   5.666   6.215
  193DPPC    N4 9604   5.413   5.576   6.262
  193DPPC    C5 9605   5.506   5.517   6.164
  193DPPC    C6 9606   5.459   5.391   6.092
  193DPPC    O7 9607   5.527   5.373   5.967
  193DPPC    P8 9608   5.496   5.217   5.938
  193DPPC    O9 9609   5.462   5.153   6.067
  193DPPC   O10 9610   5.603   5.158   5.855
  193DPPC   O11 9611   5.368   5.229   5.841
  193DPPC   C12 9612   5.392   5.192   5.705
  193DPPC   C13 9613   5.279   5.238   5.612
  193DPPC   O14 9614   5.270   5.143   5.505
  193DPPC   C15 9615   5.185   5.037   5.518
  193DPPC   O16 9616   5.096   5.044   5.602
  193DPPC   C17 9617   5.181   4.945   5.396
  193DPPC   C18 9618   5.321   4.929   5.337
  193DPPC   C19 9619   5.315   4.814   5.238
  193DPPC   C20 9620   5.415   4.835   5.124
  193DPPC   C21 9621   5.413   4.710   5.035
  193DPPC   C22 9622   5.529   4.722   4.936
  193DPPC   C23 9623   5.531   4.594   4.851
  193DPPC   C24 9624   5.616   4.639   4.732
  193DPPC   C25 9625   5.630   4.527   4.628
  193DPPC   C26 9626   5.690   4.591   4.502
  193DPPC   C27 9627   5.833   4.638   4.529
  193DPPC   C28 9628   5.886   4.721   4.411
  193DPPC   C29 9629   5.890   4.639   4.282
  193DPPC   C30 9630   5.962   4.723   4.177
  193DPPC   C31 9631   5.870   4.826   4.111
  193DPPC   C32 9632   5.300   5.384   5.572
  193DPPC   O33 9633   5.416   5.409   5.492
  193DPPC   C34 9634   5.369   5.432   5.367
  193DPPC   O35 9635   5.260   5.483   5.345
  193DPPC   C36 9636   5.481   5.424   5.262
  193DPPC   C37 9637   5.520   5.277   5.245
  193DPPC   C38 9638   5.662   5.267   5.188
  193DPPC   C39 9639   5.667   5.118   5.157
  193DPPC   C40 9640   5.805   5.070   5.110
  193DPPC   C41 9641   5.817   4.917   5.103
  193DPPC   C42 9642   5.946   4.869   5.037
  193DPPC   C43 9643   5.981   4.725   5.075
  193DPPC   C44 9644   6.099   4.690   4.984
  193DPPC   C45 9645   6.066   4.719   4.837
  193DPPC   C46 9646   6.176   4.668   4.743
  193DPPC   C47 9647   6.193   4.516   4.756
  193DPPC   C48 9648   6.308   4.467   4.669
  193DPPC   C49 9649   6.268   4.475   4.522
  193DPPC   C50 9650   6.379   4.401   4.446
  194DPPC    C1 9651   8.056   5.452   1.226
  194DPPC    C2 9652   7.893   5.626   1.265
  194DPPC    C3 9653   7.880   5.478   1.076
  194DPPC    N4 9654   7.914   5.488   1.219
  194DPPC    C5 9655   7.813   5.404   1.285
  194DPPC    C6 9656   7.822   5.251   1.287
  194DPPC    O7 9657   7.912   5.208   1.389
  194DPPC    P8 9658   7.909   5.048   1.405
  194DPPC    O9 9659   7.935   5.005   1.265
  194DPPC   O10 9660   7.776   5.020   1.464
  194DPPC   O11 9661   8.031   5.019   1.506
  194DPPC   C12 9662   7.999   5.074   1.634
  194DPPC   C13 9663   8.076   5.197   1.683
  194DPPC   O14 9664   8.167   5.166   1.789
  194DPPC   C15 9665   8.251   5.251   1.853
  194DPPC   O16 9666   8.264   5.365   1.809
  194DPPC   C17 9667   8.342   5.204   1.967
  194DPPC   C18 9668   8.287   5.097   2.061
  194DPPC   C19 9669   8.400   5.000   2.096
  194DPPC   C20 9670   8.457   4.984   2.237
  194DPPC   C21 9671   8.350   4.913   2.319
  194DPPC   C22 9672   8.391   4.896   2.465
  194DPPC   C23 9673   8.326   4.773   2.529
  194DPPC   C24 9674   8.294   4.810   2.673
  194DPPC   C25 9675   8.212   4.699   2.738
  194DPPC   C26 9676   8.215   4.727   2.889
  194DPPC   C27 9677   8.354   4.713   2.951
  194DPPC   C28 9678   8.334   4.716   3.102
  194DPPC   C29 9679   8.243   4.823   3.164
  194DPPC   C30 9680   8.260   4.834   3.316
  194DPPC   C31 9681   8.178   4.955   3.362
  194DPPC   C32 9682   7.965   5.290   1.731
  194DPPC   O33 9683   7.881   5.250   1.840
  194DPPC   C34 9684   7.768   5.323   1.857
  194DPPC   O35 9685   7.749   5.417   1.779
  194DPPC   C36 9686   7.686   5.287   1.980
  194DPPC   C37 9687   7.550   5.356   1.982
  194DPPC   C38 9688   7.476   5.335   2.114
  194DPPC   C39 9689   7.347   5.417   2.117
  194DPPC   C40 9690   7.252   5.392   2.234
  194DPPC   C41 9691   7.187   5.253   2.231
  194DPPC   C42 9692   7.109   5.235   2.361
  194DPPC   C43 9693   7.203   5.242   2.482
  194DPPC   C44 9694   7.130   5.246   2.617
  194DPPC   C45 9695   7.241   5.280   2.716
  194DPPC   C46 9696   7.194   5.254   2.859
  194DPPC   C47 9697   7.293   5.289   2.970
  194DPPC   C48 9698   7.228   5.253   3.103
  194DPPC   C49 9699   7.329   5.281   3.214
  194DPPC   C50 9700   7.454   5.196   3.192
  195DPPC    C1 9701   2.562   3.494   5.762
  195DPPC    C2 9702   2.352   3.555   5.707
  195DPPC    C3 9703   2.484   3.508   5.526
  195DPPC    N4 9704   2.458   3.462   5.663
  195DPPC    C5 9705   2.402   3.327   5.678
  195DPPC    C6 9706   2.463   3.208   5.604
  195DPPC    O7 9707   2.588   3.165   5.659
  195DPPC    P8 9708   2.632   3.019   5.607
  195DPPC    O9 9709   2.597   3.020   5.463
  195DPPC   O10 9710   2.578   2.921   5.705
  195DPPC   O11 9711   2.792   3.031   5.614
  195DPPC   C12 9712   2.823   3.138   5.525
  195DPPC   C13 9713   2.895   3.267   5.568
  195DPPC   O14 9714   2.875   3.365   5.465
  195DPPC   C15 9715   2.906   3.497   5.480
  195DPPC   O16 9716   2.888   3.542   5.593
  195DPPC   C17 9717   2.904   3.586   5.356
  195DPPC   C18 9718   3.011   3.544   5.256
  195DPPC   C19 9719   2.997   3.635   5.134
  195DPPC   C20 9720   3.061   3.573   5.010
  195DPPC   C21 9721   2.979   3.449   4.974
  195DPPC   C22 9722   3.010   3.393   4.836
  195DPPC   C23 9723   2.962   3.503   4.741
  195DPPC   C24 9724   2.992   3.483   4.592
  195DPPC   C25 9725   2.946   3.349   4.534
  195DPPC   C26 9726   2.981   3.330   4.386
  195DPPC   C27 9727   3.132   3.346   4.369
  195DPPC   C28 9728   3.154   3.354   4.218
  195DPPC   C29 9729   3.124   3.216   4.158
  195DPPC   C30 9730   3.218   3.121   4.232
  195DPPC   C31 9731   3.210   2.978   4.178
  195DPPC   C32 9732   3.041   3.229   5.592
  195DPPC   O33 9733   3.094   3.137   5.496
  195DPPC   C34 9734   3.225   3.105   5.514
  195DPPC   O35 9735   3.284   3.152   5.610
  195DPPC   C36 9736   3.292   3.007   5.418
  195DPPC   C37 9737   3.359   3.093   5.311
  195DPPC   C38 9738   3.377   3.011   5.182
  195DPPC   C39 9739   3.242   3.000   5.111
  195DPPC   C40 9740   3.276   2.944   4.972
  195DPPC   C41 9741   3.171   2.977   4.865
  195DPPC   C42 9742   3.233   2.935   4.732
  195DPPC   C43 9743   3.139   2.952   4.612
  195DPPC   C44 9744   2.997   2.898   4.625
  195DPPC   C45 9745   2.920   2.916   4.494
  195DPPC   C46 9746   2.772   2.879   4.509
  195DPPC   C47 9747   2.673   2.933   4.406
  195DPPC   C48 9748   2.673   3.085   4.388
  195DPPC   C49 9749   2.640   3.138   4.249
  195DPPC   C50 9750   2.642   3.289   4.274
  196DPPC    C1 9751   0.696   0.069   1.813
  196DPPC    C2 9752   0.557   0.223   1.714
  196DPPC    C3 9753   0.526   0.179   1.949
  196DPPC    N4 9754   0.625   0.194   1.841
  196DPPC    C5 9755   0.728   0.298   1.855
  196DPPC    C6 9756   0.689   0.446   1.861
  196DPPC    O7 9757   0.576   0.489   1.938
  196DPPC    P8 9758   0.574   0.650   1.933
  196DPPC    O9 9759   0.439   0.701   1.900
  196DPPC   O10 9760   0.689   0.697   1.851
  196DPPC   O11 9761   0.636   0.689   2.076
  196DPPC   C12 9762   0.523   0.674   2.161
  196DPPC   C13 9763   0.558   0.648   2.308
  196DPPC   O14 9764   0.446   0.604   2.386
  196DPPC   C15 9765   0.400   0.478   2.364
  196DPPC   O16 9766   0.465   0.396   2.300
  196DPPC   C17 9767   0.264   0.433   2.419
  196DPPC   C18 9768   0.274   0.414   2.571
  196DPPC   C19 9769   0.151   0.362   2.646
  196DPPC   C20 9770   0.194   0.359   2.793
  196DPPC   C21 9771   0.097   0.297   2.893
  196DPPC   C22 9772   0.198   0.230   2.987
  196DPPC   C23 9773   0.115   0.186   3.107
  196DPPC   C24 9774   0.207   0.132   3.216
  196DPPC   C25 9775   0.114   0.072   3.322
  196DPPC   C26 9776   0.183  -0.026   3.417
  196DPPC   C27 9777   0.216  -0.162   3.354
  196DPPC   C28 9778   0.269  -0.260   3.459
  196DPPC   C29 9779   0.315  -0.395   3.402
  196DPPC   C30 9780   0.330  -0.525   3.481
  196DPPC   C31 9781   0.361  -0.642   3.388
  196DPPC   C32 9782   0.644   0.766   2.353
  196DPPC   O33 9783   0.580   0.890   2.320
  196DPPC   C34 9784   0.648   1.008   2.318
  196DPPC   O35 9785   0.765   1.000   2.353
  196DPPC   C36 9786   0.568   1.133   2.282
  196DPPC   C37 9787   0.497   1.211   2.393
  196DPPC   C38 9788   0.400   1.314   2.336
  196DPPC   C39 9789   0.322   1.375   2.453
  196DPPC   C40 9790   0.252   1.268   2.536
  196DPPC   C41 9791   0.175   1.335   2.650
  196DPPC   C42 9792   0.110   1.229   2.739
  196DPPC   C43 9793   0.037   1.298   2.855
  196DPPC   C44 9794  -0.020   1.193   2.951
  196DPPC   C45 9795  -0.046   1.242   3.094
  196DPPC   C46 9796  -0.120   1.142   3.183
  196DPPC   C47 9797  -0.166   1.205   3.315
  196DPPC   C48 9798  -0.230   1.101   3.407
  196DPPC   C49 9799  -0.131   1.053   3.513
  196DPPC   C50 9800  -0.199   0.982   3.630
  197DPPC    C1 9801   8.881   1.989   5.964
  197DPPC    C2 9802   8.930   1.753   5.980
  197DPPC    C3 9803   8.770   1.839   5.830
  197DPPC    N4 9804   8.902   1.865   5.888
  197DPPC    C5 9805   9.016   1.880   5.797
  197DPPC    C6 9806   9.056   1.761   5.708
  197DPPC    O7 9807   8.956   1.706   5.622
  197DPPC    P8 9808   9.027   1.612   5.512
  197DPPC    O9 9809   8.928   1.521   5.449
  197DPPC   O10 9810   9.161   1.570   5.560
  197DPPC   O11 9811   9.056   1.732   5.410
  197DPPC   C12 9812   8.930   1.780   5.362
  197DPPC   C13 9813   8.931   1.925   5.311
  197DPPC   O14 9814   8.804   1.981   5.276
  197DPPC   C15 9815   8.786   2.114   5.299
  197DPPC   O16 9816   8.839   2.163   5.398
  197DPPC   C17 9817   8.674   2.184   5.223
  197DPPC   C18 9818   8.723   2.218   5.082
  197DPPC   C19 9819   8.598   2.234   4.995
  197DPPC   C20 9820   8.642   2.289   4.860
  197DPPC   C21 9821   8.524   2.320   4.768
  197DPPC   C22 9822   8.565   2.343   4.622
  197DPPC   C23 9823   8.440   2.383   4.544
  197DPPC   C24 9824   8.346   2.469   4.629
  197DPPC   C25 9825   8.233   2.516   4.537
  197DPPC   C26 9826   8.200   2.390   4.455
  197DPPC   C27 9827   8.082   2.434   4.368
  197DPPC   C28 9828   8.035   2.306   4.299
  197DPPC   C29 9829   7.909   2.349   4.224
  197DPPC   C30 9830   7.837   2.222   4.177
  197DPPC   C31 9831   7.918   2.124   4.092
  197DPPC   C32 9832   9.030   1.914   5.195
  197DPPC   O33 9833   9.065   2.035   5.128
  197DPPC   C34 9834   9.163   2.030   5.033
  197DPPC   O35 9835   9.246   1.939   5.029
  197DPPC   C36 9836   9.179   2.154   4.946
  197DPPC   C37 9837   9.057   2.171   4.854
  197DPPC   C38 9838   9.066   2.277   4.744
  197DPPC   C39 9839   8.951   2.285   4.644
  197DPPC   C40 9840   8.982   2.424   4.589
  197DPPC   C41 9841   8.952   2.538   4.686
  197DPPC   C42 9842   9.001   2.675   4.638
  197DPPC   C43 9843   8.965   2.785   4.737
  197DPPC   C44 9844   9.045   2.914   4.712
  197DPPC   C45 9845   9.018   3.016   4.822
  197DPPC   C46 9846   9.132   3.117   4.839
  197DPPC   C47 9847   9.067   3.216   4.935
  197DPPC   C48 9848   9.158   3.332   4.979
  197DPPC   C49 9849   9.099   3.415   5.093
  197DPPC   C50 9850   9.081   3.331   5.219
  198DPPC    C1 9851   4.009   4.782   5.550
  198DPPC    C2 9852   3.799   4.719   5.630
  198DPPC    C3 9853   3.983   4.710   5.778
  198DPPC    N4 9854   3.923   4.788   5.669
  198DPPC    C5 9855   3.893   4.925   5.714
  198DPPC    C6 9856   3.996   5.007   5.793
  198DPPC    O7 9857   4.097   5.059   5.707
  198DPPC    P8 9858   4.234   5.053   5.793
  198DPPC    O9 9859   4.259   4.908   5.772
  198DPPC   O10 9860   4.218   5.119   5.924
  198DPPC   O11 9861   4.320   5.138   5.687
  198DPPC   C12 9862   4.372   5.049   5.588
  198DPPC   C13 9863   4.447   5.110   5.469
  198DPPC   O14 9864   4.570   5.182   5.481
  198DPPC   C15 9865   4.677   5.099   5.498
  198DPPC   O16 9866   4.672   4.986   5.545
  198DPPC   C17 9867   4.818   5.152   5.472
  198DPPC   C18 9868   4.820   5.224   5.337
  198DPPC   C19 9869   4.949   5.273   5.271
  198DPPC   C20 9870   4.925   5.321   5.127
  198DPPC   C21 9871   5.060   5.350   5.062
  198DPPC   C22 9872   5.135   5.221   5.029
  198DPPC   C23 9873   5.249   5.263   4.936
  198DPPC   C24 9874   5.327   5.152   4.866
  198DPPC   C25 9875   5.471   5.192   4.833
  198DPPC   C26 9876   5.537   5.085   4.746
  198DPPC   C27 9877   5.682   5.114   4.708
  198DPPC   C28 9878   5.715   5.037   4.580
  198DPPC   C29 9879   5.857   5.074   4.539
  198DPPC   C30 9880   5.951   5.041   4.655
  198DPPC   C31 9881   6.104   5.040   4.646
  198DPPC   C32 9882   4.334   5.180   5.393
  198DPPC   O33 9883   4.230   5.095   5.346
  198DPPC   C34 9884   4.126   5.158   5.284
  198DPPC   O35 9885   4.129   5.278   5.257
  198DPPC   C36 9886   3.999   5.081   5.250
  198DPPC   C37 9887   4.057   4.948   5.201
  198DPPC   C38 9888   4.117   4.948   5.060
  198DPPC   C39 9889   4.179   4.811   5.034
  198DPPC   C40 9890   4.238   4.811   4.893
  198DPPC   C41 9891   4.295   4.674   4.858
  198DPPC   C42 9892   4.403   4.690   4.751
  198DPPC   C43 9893   4.500   4.573   4.738
  198DPPC   C44 9894   4.601   4.597   4.626
  198DPPC   C45 9895   4.719   4.500   4.615
  198DPPC   C46 9896   4.819   4.533   4.504
  198DPPC   C47 9897   4.936   4.435   4.495
  198DPPC   C48 9898   4.897   4.290   4.468
  198DPPC   C49 9899   5.018   4.204   4.431
  198DPPC   C50 9900   4.967   4.068   4.383
  199DPPC    C1 9901   6.997   6.245   5.592
  199DPPC    C2 9902   6.950   6.468   5.527
  199DPPC    C3 9903   6.863   6.294   5.404
  199DPPC    N4 9904   6.891   6.334   5.543
  199DPPC    C5 9905   6.774   6.324   5.632
  199DPPC    C6 9906   6.665   6.430   5.621
  199DPPC    O7 9907   6.581   6.405   5.508
  199DPPC    P8 9908   6.459   6.510   5.505
  199DPPC    O9 9909   6.532   6.639   5.493
  199DPPC   O10 9910   6.366   6.472   5.613
  199DPPC   O11 9911   6.392   6.455   5.370
  199DPPC   C12 9912   6.491   6.398   5.283
  199DPPC   C13 9913   6.459   6.421   5.135
  199DPPC   O14 9914   6.548   6.361   5.040
  199DPPC   C15 9915   6.532   6.230   5.008
  199DPPC   O16 9916   6.462   6.162   5.083
  199DPPC   C17 9917   6.599   6.170   4.885
  199DPPC   C18 9918   6.555   6.221   4.747
  199DPPC   C19 9919   6.642   6.146   4.646
  199DPPC   C20 9920   6.610   6.211   4.512
  199DPPC   C21 9921   6.692   6.128   4.413
  199DPPC   C22 9922   6.687   6.188   4.273
  199DPPC   C23 9923   6.786   6.304   4.264
  199DPPC   C24 9924   6.780   6.352   4.119
  199DPPC   C25 9925   6.868   6.278   4.020
  199DPPC   C26 9926   6.867   6.359   3.890
  199DPPC   C27 9927   6.922   6.500   3.914
  199DPPC   C28 9928   6.922   6.581   3.784
  199DPPC   C29 9929   7.005   6.708   3.801
  199DPPC   C30 9930   7.035   6.789   3.674
  199DPPC   C31 9931   7.109   6.917   3.711
  199DPPC   C32 9932   6.444   6.573   5.130
  199DPPC   O33 9933   6.549   6.660   5.174
  199DPPC   C34 9934   6.515   6.792   5.167
  199DPPC   O35 9935   6.401   6.825   5.138
  199DPPC   C36 9936   6.620   6.889   5.220
  199DPPC   C37 9937   6.620   7.019   5.139
  199DPPC   C38 9938   6.535   7.130   5.200
  199DPPC   C39 9939   6.507   7.249   5.107
  199DPPC   C40 9940   6.440   7.201   4.979
  199DPPC   C41 9941   6.421   7.323   4.889
  199DPPC   C42 9942   6.559   7.379   4.853
  199DPPC   C43 9943   6.635   7.293   4.752
  199DPPC   C44 9944   6.767   7.364   4.723
  199DPPC   C45 9945   6.755   7.504   4.662
  199DPPC   C46 9946   6.891   7.546   4.607
  199DPPC   C47 9947   6.949   7.447   4.505
  199DPPC   C48 9948   7.089   7.489   4.458
  199DPPC   C49 9949   7.179   7.500   4.581
  199DPPC   C50 9950   7.324   7.538   4.547
  200DPPC    C1 9951   2.695   7.506   5.317
  200DPPC    C2 9952   2.777   7.374   5.510
  200DPPC    C3 9953   2.827   7.594   5.474
  200DPPC    N4 9954   2.716   7.499   5.462
  200DPPC    C5 9955   2.612   7.562   5.546
  200DPPC    C6 9956   2.471   7.506   5.533
  200DPPC    O7 9957   2.450   7.366   5.556
  200DPPC    P8 9958   2.300   7.314   5.534
  200DPPC    O9 9959   2.204   7.421   5.568
  200DPPC   O10 9960   2.307   7.190   5.614
  200DPPC   O11 9961   2.308   7.297   5.374
  200DPPC   C12 9962   2.389   7.180   5.356
  200DPPC   C13 9963   2.370   7.121   5.216
  200DPPC   O14 9964   2.452   7.168   5.107
  200DPPC   C15 9965   2.587   7.152   5.108
  200DPPC   O16 9966   2.657   7.146   5.209
  200DPPC   C17 9967   2.638   7.177   4.966
  200DPPC   C18 9968   2.734   7.065   4.925
  200DPPC   C19 9969   2.783   7.104   4.785
  200DPPC   C20 9970   2.892   7.008   4.738
  200DPPC   C21 9971   2.943   7.029   4.596
  200DPPC   C22 9972   2.837   7.016   4.485
  200DPPC   C23 9973   2.912   7.022   4.352
  200DPPC   C24 9974   2.827   7.019   4.224
  200DPPC   C25 9975   2.903   7.032   4.093
  200DPPC   C26 9976   2.978   7.164   4.075
  200DPPC   C27 9977   3.053   7.174   3.941
  200DPPC   C28 9978   3.152   7.290   3.934
  200DPPC   C29 9979   3.219   7.291   3.797
  200DPPC   C30 9980   3.300   7.162   3.779
  200DPPC   C31 9981   3.398   7.151   3.662
  200DPPC   C32 9982   2.218   7.109   5.208
  200DPPC   O33 9983   2.170   7.028   5.101
  200DPPC   C34 9984   2.035   7.016   5.109
  200DPPC   O35 9985   1.968   7.032   5.211
  200DPPC   C36 9986   1.980   6.943   4.986
  200DPPC   C37 9987   1.940   7.028   4.866
  200DPPC   C38 9988   1.903   6.938   4.747
  200DPPC   C39 9989   2.031   6.884   4.683
  200DPPC   C40 9990   2.012   6.772   4.580
  200DPPC   C41 9991   2.140   6.722   4.513
  200DPPC   C42 9992   2.095   6.615   4.414
  200DPPC   C43 9993   1.976   6.669   4.334
  200DPPC   C44 9994   1.904   6.558   4.258
  200DPPC   C45 9995   1.756   6.593   4.237
  200DPPC   C46 9996   1.727   6.728   4.171
  200DPPC   C47 9997   1.583   6.741   4.120
  200DPPC   C48 9998   1.552   6.888   4.094
  200DPPC   C49 9999   1.410   6.924   4.049
  200DPPC   C5010000   1.391   7.075   4.031
  201DPPC    C110001   7.846   1.443   5.944
  201DPPC    C210002   7.856   1.510   6.177
  201DPPC    C310003   7.880   1.286   6.123
  201DPPC    N410004   7.911   1.421   6.074
  201DPPC    C510005   8.057   1.433   6.087
  201DPPC    C610006   8.131   1.544   6.011
  201DPPC    O710007   8.086   1.668   6.067
  201DPPC    P810008   8.139   1.791   5.978
  201DPPC    O910009   8.281   1.758   5.951
  201DPPC   O1010010   8.105   1.928   6.022
  201DPPC   O1110011   8.052   1.756   5.847
  201DPPC   C1210012   8.122   1.815   5.737
  201DPPC   C1310013   8.047   1.842   5.606
  201DPPC   O1410014   7.948   1.946   5.603
  201DPPC   C1510015   7.987   2.076   5.616
  201DPPC   O1610016   8.079   2.105   5.691
  201DPPC   C1710017   7.895   2.176   5.546
  201DPPC   C1810018   7.917   2.175   5.394
  201DPPC   C1910019   7.835   2.287   5.329
  201DPPC   C2010020   7.687   2.251   5.344
  201DPPC   C2110021   7.597   2.357   5.280
  201DPPC   C2210022   7.453   2.311   5.259
  201DPPC   C2310023   7.372   2.423   5.195
  201DPPC   C2410024   7.410   2.437   5.047
  201DPPC   C2510025   7.318   2.540   4.981
  201DPPC   C2610026   7.341   2.541   4.830
  201DPPC   C2710027   7.225   2.604   4.752
  201DPPC   C2810028   7.228   2.564   4.604
  201DPPC   C2910029   7.102   2.585   4.520
  201DPPC   C3010030   7.110   2.528   4.378
  201DPPC   C3110031   6.993   2.431   4.361
  201DPPC   C3210032   7.993   1.702   5.574
  201DPPC   O3310033   8.103   1.613   5.555
  201DPPC   C3410034   8.069   1.484   5.578
  201DPPC   O3510035   7.955   1.457   5.617
  201DPPC   C3610036   8.177   1.380   5.549
  201DPPC   C3710037   8.233   1.396   5.407
  201DPPC   C3810038   8.313   1.275   5.359
  201DPPC   C3910039   8.372   1.296   5.219
  201DPPC   C4010040   8.261   1.345   5.127
  201DPPC   C4110041   8.312   1.394   4.991
  201DPPC   C4210042   8.198   1.479   4.933
  201DPPC   C4310043   8.221   1.552   4.801
  201DPPC   C4410044   8.089   1.614   4.755
  201DPPC   C4510045   7.971   1.519   4.732
  201DPPC   C4610046   7.848   1.597   4.686
  201DPPC   C4710047   7.722   1.510   4.683
  201DPPC   C4810048   7.605   1.605   4.656
  201DPPC   C4910049   7.476   1.541   4.707
  201DPPC   C5010050   7.487   1.509   4.856
  202DPPC    C110051   0.722   2.537   5.859
  202DPPC    C210052   0.937   2.551   5.958
  202DPPC    C310053   0.735   2.622   6.061
  202DPPC    N410054   0.797   2.514   5.983
  202DPPC    C510055   0.775   2.384   6.048
  202DPPC    C610056   0.754   2.256   5.967
  202DPPC    O710057   0.626   2.249   5.904
  202DPPC    P810058   0.597   2.110   5.829
  202DPPC    O910059   0.453   2.078   5.835
  202DPPC   O1010060   0.710   2.030   5.882
  202DPPC   O1110061   0.642   2.168   5.685
  202DPPC   C1210062   0.541   2.236   5.610
  202DPPC   C1310063   0.600   2.341   5.516
  202DPPC   O1410064   0.499   2.383   5.424
  202DPPC   C1510065   0.495   2.510   5.376
  202DPPC   O1610066   0.487   2.603   5.457
  202DPPC   C1710067   0.440   2.529   5.235
  202DPPC   C1810068   0.403   2.668   5.182
  202DPPC   C1910069   0.377   2.662   5.031
  202DPPC   C2010070   0.318   2.801   5.007
  202DPPC   C2110071   0.261   2.826   4.867
  202DPPC   C2210072   0.371   2.825   4.760
  202DPPC   C2310073   0.305   2.865   4.628
  202DPPC   C2410074   0.400   2.824   4.516
  202DPPC   C2510075   0.340   2.833   4.375
  202DPPC   C2610076   0.436   2.768   4.276
  202DPPC   C2710077   0.393   2.787   4.130
  202DPPC   C2810078   0.506   2.734   4.042
  202DPPC   C2910079   0.483   2.759   3.892
  202DPPC   C3010080   0.608   2.738   3.807
  202DPPC   C3110081   0.602   2.807   3.671
  202DPPC   C3210082   0.713   2.257   5.456
  202DPPC   O3310083   0.768   2.288   5.327
  202DPPC   C3410084   0.855   2.199   5.273
  202DPPC   O3510085   0.872   2.093   5.332
  202DPPC   C3610086   0.886   2.216   5.124
  202DPPC   C3710087   0.836   2.352   5.077
  202DPPC   C3810088   0.830   2.368   4.925
  202DPPC   C3910089   0.820   2.520   4.913
  202DPPC   C4010090   0.775   2.570   4.775
  202DPPC   C4110091   0.746   2.721   4.778
  202DPPC   C4210092   0.736   2.764   4.632
  202DPPC   C4310093   0.863   2.725   4.557
  202DPPC   C4410094   0.838   2.725   4.406
  202DPPC   C4510095   0.959   2.691   4.318
  202DPPC   C4610096   0.914   2.676   4.173
  202DPPC   C4710097   1.039   2.683   4.084
  202DPPC   C4810098   0.994   2.654   3.940
  202DPPC   C4910099   1.097   2.665   3.827
  202DPPC   C5010100   1.030   2.613   3.699
  203DPPC    C110101   1.989   7.562   4.653
  203DPPC    C210102   1.778   7.507   4.548
  203DPPC    C310103   1.895   7.349   4.687
  203DPPC    N410104   1.861   7.491   4.668
  203DPPC    C510105   1.786   7.541   4.784
  203DPPC    C610106   1.810   7.503   4.930
  203DPPC    O710107   1.932   7.556   4.983
  203DPPC    P810108   2.001   7.441   5.072
  203DPPC    O910109   1.908   7.330   5.103
  203DPPC   O1010110   2.087   7.514   5.168
  203DPPC   O1110111   2.097   7.371   4.964
  203DPPC   C1210112   2.236   7.402   4.977
  203DPPC   C1310113   2.296   7.355   4.844
  203DPPC   O1410114   2.285   7.452   4.739
  203DPPC   C1510115   2.392   7.529   4.706
  203DPPC   O1610116   2.433   7.595   4.801
  203DPPC   C1710117   2.401   7.571   4.559
  203DPPC   C1810118   2.541   7.561   4.498
  203DPPC   C1910119   2.537   7.561   4.345
  203DPPC   C2010120   2.671   7.569   4.272
  203DPPC   C2110121   2.778   7.470   4.318
  203DPPC   C2210122   2.905   7.480   4.233
  203DPPC   C2310123   2.928   7.625   4.192
  203DPPC   C2410124   3.053   7.649   4.106
  203DPPC   C2510125   3.074   7.798   4.082
  203DPPC   C2610126   3.178   7.822   3.971
  203DPPC   C2710127   3.213   7.967   3.940
  203DPPC   C2810128   3.258   8.034   4.070
  203DPPC   C2910129   3.314   8.174   4.049
  203DPPC   C3010130   3.324   8.233   4.190
  203DPPC   C3110131   3.423   8.350   4.184
  203DPPC   C3210132   2.261   7.209   4.816
  203DPPC   O3310133   2.317   7.150   4.698
  203DPPC   C3410134   2.270   7.191   4.578
  203DPPC   O3510135   2.165   7.255   4.571
  203DPPC   C3610136   2.365   7.185   4.458
  203DPPC   C3710137   2.327   7.072   4.361
  203DPPC   C3810138   2.437   7.064   4.254
  203DPPC   C3910139   2.425   6.934   4.174
  203DPPC   C4010140   2.317   6.948   4.066
  203DPPC   C4110141   2.265   6.810   4.028
  203DPPC   C4210142   2.134   6.817   3.949
  203DPPC   C4310143   2.073   6.679   3.921
  203DPPC   C4410144   1.946   6.704   3.841
  203DPPC   C4510145   1.873   6.582   3.784
  203DPPC   C4610146   1.743   6.631   3.721
  203DPPC   C4710147   1.636   6.523   3.739
  203DPPC   C4810148   1.509   6.573   3.670
  203DPPC   C4910149   1.433   6.677   3.752
  203DPPC   C5010150   1.298   6.722   3.694
  204DPPC    C110151   9.476   7.629   4.899
  204DPPC    C210152   9.666   7.607   4.750
  204DPPC    C310153   9.679   7.533   4.972
  204DPPC    N410154   9.588   7.543   4.857
  204DPPC    C510155   9.551   7.410   4.807
  204DPPC    C610156   9.431   7.347   4.878
  204DPPC    O710157   9.380   7.235   4.806
  204DPPC    P810158   9.288   7.166   4.918
  204DPPC    O910159   9.249   7.262   5.023
  204DPPC   O1010160   9.354   7.036   4.947
  204DPPC   O1110161   9.164   7.149   4.816
  204DPPC   C1210162   9.181   7.021   4.753
  204DPPC   C1310163   9.059   6.976   4.673
  204DPPC   O1410164   9.046   6.839   4.631
  204DPPC   C1510165   9.018   6.743   4.723
  204DPPC   O1610166   8.999   6.773   4.841
  204DPPC   C1710167   9.004   6.601   4.667
  204DPPC   C1810168   8.866   6.559   4.618
  204DPPC   C1910169   8.867   6.421   4.552
  204DPPC   C2010170   8.959   6.420   4.430
  204DPPC   C2110171   8.921   6.299   4.343
  204DPPC   C2210172   8.982   6.333   4.207
  204DPPC   C2310173   8.886   6.296   4.093
  204DPPC   C2410174   8.954   6.349   3.966
  204DPPC   C2510175   9.088   6.277   3.951
  204DPPC   C2610176   9.155   6.323   3.822
  204DPPC   C2710177   9.054   6.337   3.707
  204DPPC   C2810178   9.114   6.400   3.581
  204DPPC   C2910179   8.996   6.465   3.508
  204DPPC   C3010180   8.932   6.369   3.407
  204DPPC   C3110181   8.822   6.441   3.329
  204DPPC   C3210182   9.034   7.085   4.570
  204DPPC   O3310183   9.139   7.119   4.479
  204DPPC   C3410184   9.102   7.211   4.387
  204DPPC   O3510185   8.991   7.263   4.381
  204DPPC   C3610186   9.217   7.250   4.293
  204DPPC   C3710187   9.172   7.294   4.153
  204DPPC   C3810188   9.288   7.311   4.055
  204DPPC   C3910189   9.341   7.171   4.022
  204DPPC   C4010190   9.229   7.098   3.948
  204DPPC   C4110191   9.288   6.969   3.892
  204DPPC   C4210192   9.186   6.894   3.805
  204DPPC   C4310193   9.264   6.780   3.739
  204DPPC   C4410194   9.382   6.828   3.655
  204DPPC   C4510195   9.468   6.711   3.607
  204DPPC   C4610196   9.511   6.618   3.720
  204DPPC   C4710197   9.590   6.505   3.656
  204DPPC   C4810198   9.508   6.459   3.535
  204DPPC   C4910199   9.581   6.358   3.447
  204DPPC   C5010200   9.654   6.248   3.525
  205DPPC    C110201   2.213   8.064   5.804
  205DPPC    C210202   2.433   7.960   5.798
  205DPPC    C310203   2.249   7.852   5.712
  205DPPC    N410204   2.309   7.986   5.724
  205DPPC    C510205   2.331   8.060   5.599
  205DPPC    C610206   2.219   8.063   5.494
  205DPPC    O710207   2.110   8.148   5.531
  205DPPC    P810208   1.972   8.093   5.468
  205DPPC    O910209   1.858   8.173   5.518
  205DPPC   O1010210   1.975   7.947   5.493
  205DPPC   O1110211   2.005   8.123   5.313
  205DPPC   C1210212   1.945   8.249   5.284
  205DPPC   C1310213   2.028   8.377   5.296
  205DPPC   O1410214   1.946   8.490   5.264
  205DPPC   C1510215   1.989   8.615   5.296
  205DPPC   O1610216   2.069   8.628   5.388
  205DPPC   C1710217   1.893   8.723   5.246
  205DPPC   C1810218   1.902   8.739   5.094
  205DPPC   C1910219   1.833   8.873   5.070
  205DPPC   C2010220   1.803   8.901   4.923
  205DPPC   C2110221   1.700   8.796   4.878
  205DPPC   C2210222   1.661   8.804   4.731
  205DPPC   C2310223   1.553   8.697   4.711
  205DPPC   C2410224   1.419   8.748   4.658
  205DPPC   C2510225   1.437   8.819   4.524
  205DPPC   C2610226   1.311   8.876   4.458
  205DPPC   C2710227   1.347   8.919   4.315
  205DPPC   C2810228   1.218   8.984   4.264
  205DPPC   C2910229   1.258   9.039   4.127
  205DPPC   C3010230   1.142   9.084   4.037
  205DPPC   C3110231   1.196   9.152   3.911
  205DPPC   C3210232   2.154   8.367   5.209
  205DPPC   O3310233   2.136   8.351   5.068
  205DPPC   C3410234   2.216   8.423   4.986
  205DPPC   O3510235   2.293   8.512   5.020
  205DPPC   C3610236   2.212   8.392   4.836
  205DPPC   C3710237   2.301   8.276   4.791
  205DPPC   C3810238   2.281   8.258   4.640
  205DPPC   C3910239   2.358   8.136   4.592
  205DPPC   C4010240   2.342   8.121   4.440
  205DPPC   C4110241   2.397   7.990   4.383
  205DPPC   C4210242   2.375   8.002   4.232
  205DPPC   C4310243   2.398   7.867   4.164
  205DPPC   C4410244   2.433   7.911   4.022
  205DPPC   C4510245   2.476   7.800   3.927
  205DPPC   C4610246   2.504   7.852   3.786
  205DPPC   C4710247   2.579   7.754   3.695
  205DPPC   C4810248   2.700   7.703   3.774
  205DPPC   C4910249   2.796   7.623   3.685
  205DPPC   C5010250   2.913   7.561   3.761
  206DPPC    C110251   2.057   5.309   5.152
  206DPPC    C210252   1.984   5.138   5.005
  206DPPC    C310253   2.097   5.072   5.210
  206DPPC    N410254   2.008   5.170   5.147
  206DPPC    C510255   1.893   5.139   5.233
  206DPPC    C610256   1.770   5.230   5.225
  206DPPC    O710257   1.702   5.239   5.100
  206DPPC    P810258   1.557   5.308   5.110
  206DPPC    O910259   1.575   5.384   5.235
  206DPPC   O1010260   1.439   5.218   5.102
  206DPPC   O1110261   1.570   5.412   4.988
  206DPPC   C1210262   1.526   5.341   4.871
  206DPPC   C1310263   1.548   5.416   4.740
  206DPPC   O1410264   1.480   5.359   4.627
  206DPPC   C1510265   1.344   5.369   4.618
  206DPPC   O1610266   1.276   5.433   4.697
  206DPPC   C1710267   1.276   5.293   4.504
  206DPPC   C1810268   1.228   5.381   4.389
  206DPPC   C1910269   1.200   5.279   4.278
  206DPPC   C2010270   1.162   5.355   4.150
  206DPPC   C2110271   1.135   5.258   4.035
  206DPPC   C2210272   1.100   5.347   3.915
  206DPPC   C2310273   1.066   5.270   3.788
  206DPPC   C2410274   1.040   5.366   3.672
  206DPPC   C2510275   1.167   5.449   3.649
  206DPPC   C2610276   1.152   5.556   3.541
  206DPPC   C2710277   1.274   5.639   3.503
  206DPPC   C2810278   1.307   5.757   3.594
  206DPPC   C2910279   1.443   5.821   3.563
  206DPPC   C3010280   1.492   5.911   3.677
  206DPPC   C3110281   1.535   5.830   3.799
  206DPPC   C3210282   1.700   5.400   4.730
  206DPPC   O3310283   1.748   5.281   4.666
  206DPPC   C3410284   1.884   5.273   4.663
  206DPPC   O3510285   1.962   5.333   4.738
  206DPPC   C3610286   1.935   5.146   4.596
  206DPPC   C3710287   1.983   5.179   4.455
  206DPPC   C3810288   2.036   5.051   4.390
  206DPPC   C3910289   2.135   4.981   4.483
  206DPPC   C4010290   2.166   4.860   4.394
  206DPPC   C4110291   2.269   4.762   4.451
  206DPPC   C4210292   2.295   4.665   4.335
  206DPPC   C4310293   2.363   4.736   4.218
  206DPPC   C4410294   2.504   4.783   4.255
  206DPPC   C4510295   2.598   4.803   4.137
  206DPPC   C4610296   2.744   4.837   4.170
  206DPPC   C4710297   2.838   4.832   4.050
  206DPPC   C4810298   2.975   4.885   4.091
  206DPPC   C4910299   3.066   4.898   3.969
  206DPPC   C5010300   3.211   4.918   4.014
  207DPPC    C110301   6.535   0.253   6.253
  207DPPC    C210302   6.742   0.275   6.144
  207DPPC    C310303   6.572   0.148   6.040
  207DPPC    N410304   6.597   0.268   6.121
  207DPPC    C510305   6.538   0.379   6.044
  207DPPC    C610306   6.584   0.524   6.067
  207DPPC    O710307   6.502   0.613   5.990
  207DPPC    P810308   6.562   0.762   6.000
  207DPPC    O910309   6.580   0.794   6.143
  207DPPC   O1010310   6.479   0.851   5.916
  207DPPC   O1110311   6.696   0.717   5.923
  207DPPC   C1210312   6.726   0.778   5.797
  207DPPC   C1310313   6.868   0.825   5.764
  207DPPC   O1410314   6.881   0.938   5.677
  207DPPC   C1510315   6.998   1.008   5.676
  207DPPC   O1610316   7.076   0.991   5.769
  207DPPC   C1710317   7.026   1.099   5.556
  207DPPC   C1810318   6.966   1.238   5.576
  207DPPC   C1910319   6.964   1.327   5.451
  207DPPC   C2010320   6.882   1.274   5.334
  207DPPC   C2110321   6.879   1.365   5.211
  207DPPC   C2210322   7.007   1.344   5.130
  207DPPC   C2310323   6.980   1.439   5.013
  207DPPC   C2410324   7.081   1.415   4.901
  207DPPC   C2510325   7.032   1.491   4.777
  207DPPC   C2610326   7.142   1.479   4.671
  207DPPC   C2710327   7.106   1.522   4.529
  207DPPC   C2810328   7.062   1.669   4.521
  207DPPC   C2910329   6.989   1.688   4.388
  207DPPC   C3010330   7.024   1.830   4.341
  207DPPC   C3110331   6.974   1.859   4.200
  207DPPC   C3210332   6.934   0.699   5.708
  207DPPC   O3310333   6.859   0.633   5.606
  207DPPC   C3410334   6.930   0.537   5.541
  207DPPC   O3510335   7.041   0.498   5.575
  207DPPC   C3610336   6.853   0.468   5.428
  207DPPC   C3710337   6.737   0.548   5.369
  207DPPC   C3810338   6.659   0.473   5.261
  207DPPC   C3910339   6.566   0.562   5.179
  207DPPC   C4010340   6.524   0.479   5.057
  207DPPC   C4110341   6.434   0.365   5.105
  207DPPC   C4210342   6.392   0.277   4.987
  207DPPC   C4310343   6.348   0.135   5.020
  207DPPC   C4410344   6.339   0.047   4.895
  207DPPC   C4510345   6.471   0.050   4.816
  207DPPC   C4610346   6.437  -0.013   4.681
  207DPPC   C4710347   6.555  -0.056   4.594
  207DPPC   C4810348   6.512  -0.094   4.452
  207DPPC   C4910349   6.642  -0.123   4.375
  207DPPC   C5010350   6.585  -0.190   4.250
  208DPPC    C110351   5.239   1.436   5.733
  208DPPC    C210352   5.386   1.337   5.579
  208DPPC    C310353   5.284   1.561   5.541
  208DPPC    N410354   5.344   1.466   5.635
  208DPPC    C510355   5.463   1.540   5.680
  208DPPC    C610356   5.551   1.482   5.791
  208DPPC    O710357   5.688   1.519   5.772
  208DPPC    P810358   5.796   1.480   5.884
  208DPPC    O910359   5.720   1.481   6.011
  208DPPC   O1010360   5.927   1.540   5.850
  208DPPC   O1110361   5.811   1.324   5.846
  208DPPC   C1210362   5.866   1.317   5.714
  208DPPC   C1310363   5.883   1.176   5.659
  208DPPC   O1410364   5.983   1.175   5.557
  208DPPC   C1510365   6.092   1.095   5.574
  208DPPC   O1610366   6.095   1.007   5.660
  208DPPC   C1710367   6.211   1.136   5.487
  208DPPC   C1810368   6.173   1.236   5.377
  208DPPC   C1910369   6.299   1.313   5.336
  208DPPC   C2010370   6.265   1.365   5.196
  208DPPC   C2110371   6.368   1.458   5.132
  208DPPC   C2210372   6.292   1.513   5.011
  208DPPC   C2310373   6.215   1.637   5.058
  208DPPC   C2410374   6.154   1.708   4.937
  208DPPC   C2510375   6.072   1.831   4.978
  208DPPC   C2610376   6.007   1.886   4.851
  208DPPC   C2710377   5.890   1.802   4.800
  208DPPC   C2810378   5.852   1.863   4.665
  208DPPC   C2910379   5.979   1.850   4.580
  208DPPC   C3010380   5.935   1.893   4.440
  208DPPC   C3110381   6.032   1.845   4.332
  208DPPC   C3210382   5.739   1.132   5.633
  208DPPC   O3310383   5.705   1.107   5.496
  208DPPC   C3410384   5.713   1.210   5.408
  208DPPC   O3510385   5.684   1.323   5.448
  208DPPC   C3610386   5.707   1.175   5.259
  208DPPC   C3710387   5.829   1.229   5.185
  208DPPC   C3810388   5.824   1.210   5.033
  208DPPC   C3910389   5.950   1.268   4.968
  208DPPC   C4010390   5.940   1.269   4.815
  208DPPC   C4110391   6.036   1.375   4.760
  208DPPC   C4210392   6.034   1.350   4.609
  208DPPC   C4310393   6.120   1.444   4.524
  208DPPC   C4410394   6.271   1.434   4.548
  208DPPC   C4510395   6.327   1.542   4.457
  208DPPC   C4610396   6.464   1.566   4.521
  208DPPC   C4710397   6.531   1.429   4.523
  208DPPC   C4810398   6.677   1.424   4.569
  208DPPC   C4910399   6.684   1.461   4.717
  208DPPC   C5010400   6.652   1.332   4.793
  209DPPC    C110401   4.796   3.790   6.251
  209DPPC    C210402   4.935   3.954   6.134
  209DPPC    C310403   4.929   3.716   6.078
  209DPPC    N410404   4.852   3.834   6.122
  209DPPC    C510405   4.746   3.842   6.021
  209DPPC    C610406   4.643   3.949   6.059
  209DPPC    O710407   4.524   3.958   5.980
  209DPPC    P810408   4.432   4.079   6.033
  209DPPC    O910409   4.483   4.106   6.170
  209DPPC   O1010410   4.292   4.040   6.005
  209DPPC   O1110411   4.494   4.200   5.946
  209DPPC   C1210412   4.511   4.162   5.810
  209DPPC   C1310413   4.379   4.141   5.736
  209DPPC   O1410414   4.390   4.080   5.606
  209DPPC   C1510415   4.277   4.022   5.556
  209DPPC   O1610416   4.188   3.992   5.635
  209DPPC   C1710417   4.288   3.958   5.418
  209DPPC   C1810418   4.151   3.926   5.359
  209DPPC   C1910419   4.169   3.932   5.207
  209DPPC   C2010420   4.277   3.831   5.168
  209DPPC   C2110421   4.291   3.823   5.016
  209DPPC   C2210422   4.400   3.722   4.980
  209DPPC   C2310423   4.433   3.704   4.832
  209DPPC   C2410424   4.555   3.612   4.833
  209DPPC   C2510425   4.550   3.476   4.902
  209DPPC   C2610426   4.675   3.387   4.902
  209DPPC   C2710427   4.721   3.350   4.760
  209DPPC   C2810428   4.847   3.265   4.768
  209DPPC   C2910429   4.889   3.230   4.625
  209DPPC   C3010430   5.027   3.165   4.607
  209DPPC   C3110431   5.068   3.124   4.465
  209DPPC   C3210432   4.297   4.269   5.748
  209DPPC   O3310433   4.346   4.389   5.687
  209DPPC   C3410434   4.289   4.510   5.714
  209DPPC   O3510435   4.251   4.539   5.827
  209DPPC   C3610436   4.336   4.622   5.621
  209DPPC   C3710437   4.360   4.564   5.482
  209DPPC   C3810438   4.443   4.659   5.396
  209DPPC   C3910439   4.453   4.600   5.255
  209DPPC   C4010440   4.575   4.650   5.177
  209DPPC   C4110441   4.541   4.799   5.167
  209DPPC   C4210442   4.656   4.861   5.088
  209DPPC   C4310443   4.787   4.851   5.166
  209DPPC   C4410444   4.914   4.887   5.088
  209DPPC   C4510445   4.915   4.810   4.956
  209DPPC   C4610446   5.016   4.871   4.858
  209DPPC   C4710447   4.987   4.807   4.722
  209DPPC   C4810448   5.063   4.865   4.603
  209DPPC   C4910449   5.212   4.833   4.612
  209DPPC   C5010450   5.232   4.681   4.614
  210DPPC    C110451   6.468   1.354   6.102
  210DPPC    C210452   6.427   1.397   6.339
  210DPPC    C310453   6.309   1.224   6.226
  210DPPC    N410454   6.438   1.295   6.234
  210DPPC    C510455   6.540   1.198   6.277
  210DPPC    C610456   6.615   1.129   6.163
  210DPPC    O710457   6.729   1.204   6.120
  210DPPC    P810458   6.815   1.133   6.004
  210DPPC    O910459   6.869   1.005   6.057
  210DPPC   O1010460   6.891   1.250   5.954
  210DPPC   O1110461   6.695   1.106   5.900
  210DPPC   C1210462   6.684   1.224   5.820
  210DPPC   C1310463   6.575   1.228   5.712
  210DPPC   O1410464   6.455   1.289   5.761
  210DPPC   C1510465   6.450   1.421   5.727
  210DPPC   O1610466   6.555   1.484   5.732
  210DPPC   C1710467   6.318   1.499   5.735
  210DPPC   C1810468   6.342   1.632   5.664
  210DPPC   C1910469   6.213   1.714   5.663
  210DPPC   C2010470   6.231   1.838   5.575
  210DPPC   C2110471   6.132   1.942   5.630
  210DPPC   C2210472   6.166   2.079   5.573
  210DPPC   C2310473   6.176   2.076   5.420
  210DPPC   C2410474   6.220   2.209   5.358
  210DPPC   C2510475   6.222   2.186   5.207
  210DPPC   C2610476   6.291   2.294   5.124
  210DPPC   C2710477   6.289   2.266   4.973
  210DPPC   C2810478   6.341   2.389   4.898
  210DPPC   C2910479   6.365   2.318   4.765
  210DPPC   C3010480   6.234   2.281   4.695
  210DPPC   C3110481   6.242   2.181   4.580
  210DPPC   C3210482   6.576   1.084   5.661
  210DPPC   O3310483   6.603   1.069   5.521
  210DPPC   C3410484   6.590   0.945   5.467
  210DPPC   O3510485   6.503   0.872   5.515
  210DPPC   C3610486   6.636   0.933   5.322
  210DPPC   C3710487   6.546   1.006   5.222
  210DPPC   C3810488   6.608   1.039   5.087
  210DPPC   C3910489   6.675   0.907   5.047
  210DPPC   C4010490   6.745   0.917   4.910
  210DPPC   C4110491   6.864   1.012   4.923
  210DPPC   C4210492   6.941   1.026   4.792
  210DPPC   C4310493   6.855   1.060   4.670
  210DPPC   C4410494   6.947   1.091   4.552
  210DPPC   C4510495   6.978   0.960   4.479
  210DPPC   C4610496   6.857   0.898   4.408
  210DPPC   C4710497   6.887   0.779   4.317
  210DPPC   C4810498   6.759   0.747   4.239
  210DPPC   C4910499   6.723   0.861   4.143
  210DPPC   C5010500   6.599   0.828   4.059
  211DPPC    C110501   1.418   7.912   5.511
  211DPPC    C210502   1.555   8.109   5.504
  211DPPC    C310503   1.599   7.922   5.661
  211DPPC    N410504   1.555   7.963   5.527
  211DPPC    C510505   1.648   7.921   5.421
  211DPPC    C610506   1.654   7.778   5.368
  211DPPC    O710507   1.552   7.752   5.272
  211DPPC    P810508   1.574   7.617   5.188
  211DPPC    O910509   1.436   7.566   5.203
  211DPPC   O1010510   1.693   7.554   5.250
  211DPPC   O1110511   1.612   7.715   5.066
  211DPPC   C1210512   1.492   7.769   5.010
  211DPPC   C1310513   1.519   7.872   4.900
  211DPPC   O1410514   1.537   7.819   4.768
  211DPPC   C1510515   1.425   7.787   4.699
  211DPPC   O1610516   1.318   7.780   4.760
  211DPPC   C1710517   1.450   7.714   4.567
  211DPPC   C1810518   1.434   7.823   4.461
  211DPPC   C1910519   1.286   7.860   4.448
  211DPPC   C2010520   1.251   7.933   4.318
  211DPPC   C2110521   1.111   7.992   4.334
  211DPPC   C2210522   1.073   8.089   4.221
  211DPPC   C2310523   1.114   8.021   4.090
  211DPPC   C2410524   1.091   8.123   3.979
  211DPPC   C2510525   1.105   8.066   3.838
  211DPPC   C2610526   0.984   7.986   3.789
  211DPPC   C2710527   0.892   8.075   3.704
  211DPPC   C2810528   0.971   8.145   3.593
  211DPPC   C2910529   0.867   8.205   3.499
  211DPPC   C3010530   0.917   8.301   3.391
  211DPPC   C3110531   1.014   8.238   3.291
  211DPPC   C3210532   1.630   7.962   4.954
  211DPPC   O3310533   1.651   8.077   4.873
  211DPPC   C3410534   1.719   8.166   4.950
  211DPPC   O3510535   1.767   8.131   5.058
  211DPPC   C3610536   1.733   8.309   4.896
  211DPPC   C3710537   1.852   8.318   4.800
  211DPPC   C3810538   1.836   8.447   4.719
  211DPPC   C3910539   1.935   8.450   4.602
  211DPPC   C4010540   1.895   8.581   4.535
  211DPPC   C4110541   1.860   8.555   4.388
  211DPPC   C4210542   1.812   8.682   4.319
  211DPPC   C4310543   1.777   8.657   4.173
  211DPPC   C4410544   1.759   8.779   4.082
  211DPPC   C4510545   1.619   8.838   4.102
  211DPPC   C4610546   1.598   8.969   4.026
  211DPPC   C4710547   1.640   8.946   3.881
  211DPPC   C4810548   1.621   9.081   3.812
  211DPPC   C4910549   1.718   9.193   3.853
  211DPPC   C5010550   1.653   9.313   3.783
  212DPPC    C110551   4.695   8.170   5.899
  212DPPC    C210552   4.749   8.385   5.820
  212DPPC    C310553   4.904   8.213   5.777
  212DPPC    N410554   4.761   8.242   5.789
  212DPPC    C510555   4.682   8.205   5.670
  212DPPC    C610556   4.690   8.286   5.541
  212DPPC    O710557   4.821   8.307   5.487
  212DPPC    P810558   4.807   8.453   5.419
  212DPPC    O910559   4.928   8.481   5.339
  212DPPC   O1010560   4.749   8.537   5.526
  212DPPC   O1110561   4.696   8.435   5.304
  212DPPC   C1210562   4.749   8.328   5.224
  212DPPC   C1310563   4.658   8.273   5.114
  212DPPC   O1410564   4.711   8.160   5.043
  212DPPC   C1510565   4.726   8.038   5.101
  212DPPC   O1610566   4.676   8.021   5.212
  212DPPC   C1710567   4.781   7.931   5.006
  212DPPC   C1810568   4.715   7.951   4.870
  212DPPC   C1910569   4.765   7.860   4.757
  212DPPC   C2010570   4.667   7.900   4.647
  212DPPC   C2110571   4.711   7.829   4.518
  212DPPC   C2210572   4.582   7.764   4.467
  212DPPC   C2310573   4.592   7.677   4.341
  212DPPC   C2410574   4.465   7.595   4.319
  212DPPC   C2510575   4.485   7.510   4.193
  212DPPC   C2610576   4.495   7.586   4.061
  212DPPC   C2710577   4.537   7.469   3.970
  212DPPC   C2810578   4.584   7.503   3.829
  212DPPC   C2910579   4.623   7.381   3.746
  212DPPC   C3010580   4.656   7.409   3.599
  212DPPC   C3110581   4.700   7.271   3.550
  212DPPC   C3210582   4.610   8.396   5.038
  212DPPC   O3310583   4.722   8.461   4.977
  212DPPC   C3410584   4.701   8.577   4.910
  212DPPC   O3510585   4.595   8.639   4.915
  212DPPC   C3610586   4.834   8.637   4.863
  212DPPC   C3710587   4.830   8.643   4.710
  212DPPC   C3810588   4.964   8.650   4.637
  212DPPC   C3910589   4.927   8.677   4.491
  212DPPC   C4010590   5.053   8.691   4.404
  212DPPC   C4110591   5.165   8.590   4.432
  212DPPC   C4210592   5.287   8.612   4.342
  212DPPC   C4310593   5.420   8.546   4.378
  212DPPC   C4410594   5.475   8.605   4.507
  212DPPC   C4510595   5.597   8.521   4.548
  212DPPC   C4610596   5.697   8.522   4.433
  212DPPC   C4710597   5.829   8.470   4.490
  212DPPC   C4810598   5.936   8.440   4.385
  212DPPC   C4910599   6.045   8.370   4.466
  212DPPC   C5010600   6.138   8.324   4.354
  213DPPC    C110601   7.701   1.896   6.176
  213DPPC    C210602   7.764   2.103   6.099
  213DPPC    C310603   7.786   1.934   5.944
  213DPPC    N410604   7.700   1.978   6.055
  213DPPC    C510605   7.568   2.007   5.996
  213DPPC    C610606   7.463   1.897   5.991
  213DPPC    O710607   7.511   1.777   5.929
  213DPPC    P810608   7.443   1.653   6.004
  213DPPC    O910609   7.363   1.700   6.120
  213DPPC   O1010610   7.548   1.550   6.020
  213DPPC   O1110611   7.346   1.598   5.887
  213DPPC   C1210612   7.412   1.580   5.761
  213DPPC   C1310613   7.323   1.554   5.639
  213DPPC   O1410614   7.393   1.499   5.527
  213DPPC   C1510615   7.429   1.368   5.539
  213DPPC   O1610616   7.406   1.302   5.640
  213DPPC   C1710617   7.490   1.302   5.415
  213DPPC   C1810618   7.392   1.281   5.300
  213DPPC   C1910619   7.442   1.190   5.187
  213DPPC   C2010620   7.333   1.164   5.083
  213DPPC   C2110621   7.374   1.068   4.971
  213DPPC   C2210622   7.495   1.120   4.893
  213DPPC   C2310623   7.560   1.001   4.822
  213DPPC   C2410624   7.471   0.985   4.699
  213DPPC   C2510625   7.453   1.114   4.619
  213DPPC   C2610626   7.574   1.115   4.525
  213DPPC   C2710627   7.565   1.241   4.439
  213DPPC   C2810628   7.447   1.221   4.344
  213DPPC   C2910629   7.428   1.329   4.236
  213DPPC   C3010630   7.286   1.335   4.180
  213DPPC   C3110631   7.295   1.432   4.063
  213DPPC   C3210632   7.229   1.675   5.629
  213DPPC   O3310633   7.115   1.656   5.546
  213DPPC   C3410634   7.027   1.758   5.524
  213DPPC   O3510635   7.027   1.857   5.598
  213DPPC   C3610636   6.914   1.737   5.424
  213DPPC   C3710637   6.789   1.700   5.504
  213DPPC   C3810638   6.666   1.715   5.413
  213DPPC   C3910639   6.658   1.849   5.341
  213DPPC   C4010640   6.622   1.953   5.447
  213DPPC   C4110641   6.621   2.098   5.399
  213DPPC   C4210642   6.598   2.204   5.507
  213DPPC   C4310643   6.592   2.345   5.448
  213DPPC   C4410644   6.711   2.400   5.368
  213DPPC   C4510645   6.697   2.547   5.329
  213DPPC   C4610646   6.565   2.564   5.254
  213DPPC   C4710647   6.552   2.705   5.196
  213DPPC   C4810648   6.425   2.733   5.114
  213DPPC   C4910649   6.426   2.879   5.068
  213DPPC   C5010650   6.377   2.965   5.184
  214DPPC    C110651   5.543   7.852   5.813
  214DPPC    C210652   5.559   7.674   5.965
  214DPPC    C310653   5.511   7.615   5.737
  214DPPC    N410654   5.581   7.710   5.824
  214DPPC    C510655   5.727   7.699   5.819
  214DPPC    C610656   5.807   7.741   5.695
  214DPPC    O710657   5.804   7.637   5.597
  214DPPC    P810658   5.890   7.682   5.468
  214DPPC    O910659   5.963   7.554   5.454
  214DPPC   O1010660   5.955   7.809   5.506
  214DPPC   O1110661   5.759   7.689   5.375
  214DPPC   C1210662   5.751   7.579   5.284
  214DPPC   C1310663   5.605   7.564   5.242
  214DPPC   O1410664   5.578   7.449   5.161
  214DPPC   C1510665   5.596   7.327   5.220
  214DPPC   O1610666   5.617   7.305   5.339
  214DPPC   C1710667   5.602   7.224   5.108
  214DPPC   C1810668   5.684   7.100   5.146
  214DPPC   C1910669   5.730   7.021   5.024
  214DPPC   C2010670   5.812   6.893   5.044
  214DPPC   C2110671   5.804   6.801   4.922
  214DPPC   C2210672   5.898   6.682   4.942
  214DPPC   C2310673   6.038   6.745   4.940
  214DPPC   C2410674   6.140   6.631   4.947
  214DPPC   C2510675   6.113   6.524   4.841
  214DPPC   C2610676   6.201   6.399   4.848
  214DPPC   C2710677   6.149   6.296   4.748
  214DPPC   C2810678   5.996   6.301   4.745
  214DPPC   C2910679   5.947   6.214   4.629
  214DPPC   C3010680   5.946   6.063   4.655
  214DPPC   C3110681   5.935   5.973   4.533
  214DPPC   C3210682   5.585   7.695   5.165
  214DPPC   O3310683   5.676   7.744   5.067
  214DPPC   C3410684   5.636   7.866   5.022
  214DPPC   O3510685   5.554   7.930   5.089
  214DPPC   C3610686   5.697   7.931   4.898
  214DPPC   C3710687   5.754   7.829   4.800
  214DPPC   C3810688   5.849   7.887   4.695
  214DPPC   C3910689   5.925   7.768   4.635
  214DPPC   C4010690   5.989   7.799   4.500
  214DPPC   C4110691   6.081   7.678   4.483
  214DPPC   C4210692   6.068   7.633   4.338
  214DPPC   C4310693   6.161   7.515   4.309
  214DPPC   C4410694   6.303   7.541   4.360
  214DPPC   C4510695   6.404   7.441   4.303
  214DPPC   C4610696   6.355   7.301   4.340
  214DPPC   C4710697   6.443   7.183   4.297
  214DPPC   C4810698   6.582   7.198   4.359
  214DPPC   C4910699   6.665   7.074   4.322
  214DPPC   C5010700   6.800   7.080   4.393
  215DPPC    C110701   8.108   0.239   5.452
  215DPPC    C210702   8.191   0.370   5.641
  215DPPC    C310703   8.002   0.244   5.651
  215DPPC    N410704   8.138   0.240   5.596
  215DPPC    C510705   8.200   0.119   5.653
  215DPPC    C610706   8.351   0.110   5.631
  215DPPC    O710707   8.394   0.042   5.513
  215DPPC    P810708   8.536   0.090   5.455
  215DPPC    O910709   8.635   0.003   5.522
  215DPPC   O1010710   8.527   0.232   5.496
  215DPPC   O1110711   8.503   0.059   5.300
  215DPPC   C1210712   8.443   0.174   5.242
  215DPPC   C1310713   8.424   0.149   5.092
  215DPPC   O1410714   8.393   0.267   5.016
  215DPPC   C1510715   8.287   0.348   5.041
  215DPPC   O1610716   8.234   0.352   5.151
  215DPPC   C1710717   8.260   0.451   4.931
  215DPPC   C1810718   8.221   0.366   4.810
  215DPPC   C1910719   8.199   0.439   4.677
  215DPPC   C2010720   8.161   0.334   4.573
  215DPPC   C2110721   8.121   0.392   4.437
  215DPPC   C2210722   8.240   0.472   4.386
  215DPPC   C2310723   8.195   0.539   4.255
  215DPPC   C2410724   8.131   0.672   4.294
  215DPPC   C2510725   8.079   0.746   4.170
  215DPPC   C2610726   8.014   0.877   4.215
  215DPPC   C2710727   7.953   0.928   4.084
  215DPPC   C2810728   7.875   0.816   4.014
  215DPPC   C2910729   7.792   0.852   3.891
  215DPPC   C3010730   7.665   0.920   3.940
  215DPPC   C3110731   7.598   0.851   4.059
  215DPPC   C3210732   8.311   0.046   5.085
  215DPPC   O3310733   8.266   0.027   4.951
  215DPPC   C3410734   8.342  -0.012   4.844
  215DPPC   O3510735   8.440  -0.080   4.875
  215DPPC   C3610736   8.279   0.005   4.706
  215DPPC   C3710737   8.201  -0.118   4.659
  215DPPC   C3810738   8.131  -0.071   4.531
  215DPPC   C3910739   8.027  -0.178   4.497
  215DPPC   C4010740   7.933  -0.142   4.382
  215DPPC   C4110741   7.855  -0.266   4.339
  215DPPC   C4210742   7.753  -0.228   4.231
  215DPPC   C4310743   7.827  -0.185   4.104
  215DPPC   C4410744   7.727  -0.178   3.988
  215DPPC   C4510745   7.620  -0.069   3.994
  215DPPC   C4610746   7.522  -0.075   3.876
  215DPPC   C4710747   7.449  -0.209   3.870
  215DPPC   C4810748   7.385  -0.212   3.731
  215DPPC   C4910749   7.322  -0.348   3.697
  215DPPC   C5010750   7.339  -0.380   3.548
  216DPPC    C110751   4.479   0.182   5.336
  216DPPC    C210752   4.544   0.377   5.194
  216DPPC    C310753   4.384   0.404   5.361
  216DPPC    N410754   4.504   0.326   5.326
  216DPPC    C510755   4.602   0.363   5.430
  216DPPC    C610756   4.663   0.503   5.438
  216DPPC    O710757   4.583   0.604   5.500
  216DPPC    P810758   4.667   0.740   5.483
  216DPPC    O910759   4.812   0.710   5.499
  216DPPC   O1010760   4.582   0.808   5.583
  216DPPC   O1110761   4.621   0.779   5.334
  216DPPC   C1210762   4.483   0.817   5.327
  216DPPC   C1310763   4.432   0.856   5.188
  216DPPC   O1410764   4.371   0.740   5.130
  216DPPC   C1510765   4.238   0.711   5.137
  216DPPC   O1610766   4.183   0.746   5.241
  216DPPC   C1710767   4.215   0.576   5.068
  216DPPC   C1810768   4.288   0.554   4.935
  216DPPC   C1910769   4.270   0.416   4.872
  216DPPC   C2010770   4.307   0.415   4.724
  216DPPC   C2110771   4.276   0.286   4.647
  216DPPC   C2210772   4.335   0.275   4.507
  216DPPC   C2310773   4.487   0.273   4.487
  216DPPC   C2410774   4.536   0.282   4.342
  216DPPC   C2510775   4.583   0.141   4.306
  216DPPC   C2610776   4.704   0.146   4.212
  216DPPC   C2710777   4.770   0.018   4.161
  216DPPC   C2810778   4.883   0.049   4.063
  216DPPC   C2910779   4.949  -0.078   4.007
  216DPPC   C3010780   4.862  -0.152   3.906
  216DPPC   C3110781   4.808  -0.066   3.791
  216DPPC   C3210782   4.537   0.929   5.105
  216DPPC   O3310783   4.555   1.070   5.123
  216DPPC   C3410784   4.656   1.122   5.048
  216DPPC   O3510785   4.746   1.051   5.004
  216DPPC   C3610786   4.635   1.266   5.000
  216DPPC   C3710787   4.544   1.280   4.878
  216DPPC   C3810788   4.479   1.419   4.888
  216DPPC   C3910789   4.360   1.436   4.794
  216DPPC   C4010790   4.268   1.323   4.840
  216DPPC   C4110791   4.166   1.280   4.734
  216DPPC   C4210792   4.055   1.385   4.722
  216DPPC   C4310793   3.949   1.331   4.625
  216DPPC   C4410794   3.997   1.305   4.482
  216DPPC   C4510795   3.884   1.343   4.386
  216DPPC   C4610796   3.908   1.300   4.241
  216DPPC   C4710797   3.809   1.360   4.141
  216DPPC   C4810798   3.826   1.277   4.013
  216DPPC   C4910799   3.738   1.329   3.899
  216DPPC   C5010800   3.747   1.239   3.775
  217DPPC    C110801   5.551   6.813   5.719
  217DPPC    C210802   5.570   6.982   5.561
  217DPPC    C310803   5.432   6.800   5.516
  217DPPC    N410804   5.472   6.892   5.624
  217DPPC    C510805   5.350   6.945   5.688
  217DPPC    C610806   5.362   7.086   5.746
  217DPPC    O710807   5.240   7.160   5.740
  217DPPC    P810808   5.256   7.298   5.821
  217DPPC    O910809   5.378   7.312   5.903
  217DPPC   O1010810   5.135   7.368   5.870
  217DPPC   O1110811   5.306   7.376   5.689
  217DPPC   C1210812   5.201   7.394   5.594
  217DPPC   C1310813   5.241   7.452   5.458
  217DPPC   O1410814   5.148   7.547   5.403
  217DPPC   C1510815   5.176   7.632   5.301
  217DPPC   O1610816   5.290   7.672   5.279
  217DPPC   C1710817   5.056   7.691   5.225
  217DPPC   C1810818   5.089   7.712   5.077
  217DPPC   C1910819   5.136   7.855   5.048
  217DPPC   C2010820   5.122   7.892   4.901
  217DPPC   C2110821   5.191   7.799   4.801
  217DPPC   C2210822   5.173   7.845   4.656
  217DPPC   C2310823   5.250   7.746   4.568
  217DPPC   C2410824   5.228   7.796   4.425
  217DPPC   C2510825   5.078   7.781   4.398
  217DPPC   C2610826   5.062   7.805   4.247
  217DPPC   C2710827   4.918   7.829   4.203
  217DPPC   C2810828   4.913   7.915   4.077
  217DPPC   C2910829   4.968   7.834   3.960
  217DPPC   C3010830   4.993   7.933   3.846
  217DPPC   C3110831   5.066   7.859   3.733
  217DPPC   C3210832   5.284   7.334   5.370
  217DPPC   O3310833   5.174   7.242   5.370
  217DPPC   C3410834   5.215   7.122   5.319
  217DPPC   O3510835   5.330   7.093   5.288
  217DPPC   C3610836   5.101   7.021   5.309
  217DPPC   C3710837   5.000   7.059   5.201
  217DPPC   C3810838   5.062   7.031   5.063
  217DPPC   C3910839   4.954   6.971   4.973
  217DPPC   C4010840   4.944   7.022   4.829
  217DPPC   C4110841   4.821   6.968   4.755
  217DPPC   C4210842   4.840   6.991   4.605
  217DPPC   C4310843   4.969   6.939   4.541
  217DPPC   C4410844   4.949   6.988   4.397
  217DPPC   C4510845   5.072   6.954   4.312
  217DPPC   C4610846   5.041   6.976   4.164
  217DPPC   C4710847   5.166   6.952   4.079
  217DPPC   C4810848   5.247   7.065   4.145
  217DPPC   C4910849   5.368   7.098   4.057
  217DPPC   C5010850   5.473   7.194   4.112
  218DPPC    C110851   2.049   4.227   6.050
  218DPPC    C210852   2.230   4.338   5.969
  218DPPC    C310853   2.253   4.202   6.167
  218DPPC    N410854   2.194   4.210   6.032
  218DPPC    C510855   2.211   4.097   5.940
  218DPPC    C610856   2.351   4.075   5.882
  218DPPC    O710857   2.361   3.968   5.788
  218DPPC    P810858   2.510   3.958   5.729
  218DPPC    O910859   2.535   3.813   5.713
  218DPPC   O1010860   2.611   4.034   5.806
  218DPPC   O1110861   2.479   3.998   5.576
  218DPPC   C1210862   2.432   3.889   5.496
  218DPPC   C1310863   2.279   3.896   5.486
  218DPPC   O1410864   2.237   3.778   5.417
  218DPPC   C1510865   2.107   3.739   5.427
  218DPPC   O1610866   2.032   3.798   5.505
  218DPPC   C1710867   2.058   3.624   5.338
  218DPPC   C1810868   1.988   3.680   5.215
  218DPPC   C1910869   1.942   3.561   5.130
  218DPPC   C2010870   1.886   3.598   4.992
  218DPPC   C2110871   1.901   3.479   4.896
  218DPPC   C2210872   1.854   3.528   4.759
  218DPPC   C2310873   1.799   3.410   4.678
  218DPPC   C2410874   1.775   3.454   4.533
  218DPPC   C2510875   1.690   3.355   4.454
  218DPPC   C2610876   1.674   3.410   4.312
  218DPPC   C2710877   1.612   3.305   4.220
  218DPPC   C2810878   1.580   3.366   4.084
  218DPPC   C2910879   1.702   3.438   4.026
  218DPPC   C3010880   1.688   3.466   3.876
  218DPPC   C3110881   1.815   3.538   3.830
  218DPPC   C3210882   2.251   4.030   5.417
  218DPPC   O3310883   2.323   4.043   5.294
  218DPPC   C3410884   2.306   4.161   5.228
  218DPPC   O3510885   2.201   4.223   5.231
  218DPPC   C3610886   2.390   4.170   5.100
  218DPPC   C3710887   2.299   4.194   4.980
  218DPPC   C3810888   2.373   4.179   4.847
  218DPPC   C3910889   2.492   4.272   4.819
  218DPPC   C4010890   2.533   4.252   4.673
  218DPPC   C4110891   2.646   4.349   4.638
  218DPPC   C4210892   2.657   4.381   4.489
  218DPPC   C4310893   2.789   4.456   4.468
  218DPPC   C4410894   2.790   4.582   4.556
  218DPPC   C4510895   2.930   4.642   4.538
  218DPPC   C4610896   2.943   4.776   4.612
  218DPPC   C4710897   3.088   4.825   4.609
  218DPPC   C4810898   3.144   4.830   4.466
  218DPPC   C4910899   3.294   4.861   4.473
  218DPPC   C5010900   3.358   4.846   4.334
  219DPPC    C110901   8.982   6.739   5.270
  219DPPC    C210902   9.160   6.845   5.184
  219DPPC    C310903   9.192   6.734   5.389
  219DPPC    N410904   9.127   6.722   5.258
  219DPPC    C510905   9.171   6.623   5.158
  219DPPC    C610906   9.099   6.497   5.108
  219DPPC    O710907   9.186   6.419   5.025
  219DPPC    P810908   9.088   6.299   4.984
  219DPPC    O910909   8.976   6.368   4.916
  219DPPC   O1010910   9.057   6.216   5.103
  219DPPC   O1110911   9.173   6.197   4.893
  219DPPC   C1210912   9.181   6.269   4.770
  219DPPC   C1310913   9.267   6.211   4.657
  219DPPC   O1410914   9.255   6.284   4.534
  219DPPC   C1510915   9.348   6.272   4.435
  219DPPC   O1610916   9.449   6.207   4.462
  219DPPC   C1710917   9.339   6.357   4.308
  219DPPC   C1810918   9.409   6.299   4.185
  219DPPC   C1910919   9.431   6.408   4.081
  219DPPC   C2010920   9.554   6.383   3.993
  219DPPC   C2110921   9.535   6.250   3.920
  219DPPC   C2210922   9.678   6.195   3.917
  219DPPC   C2310923   9.681   6.049   3.873
  219DPPC   C2410924   9.827   6.017   3.844
  219DPPC   C2510925   9.822   5.876   3.784
  219DPPC   C2610926   9.732   5.789   3.871
  219DPPC   C2710927   9.671   5.671   3.794
  219DPPC   C2810928   9.590   5.732   3.680
  219DPPC   C2910929   9.470   5.815   3.725
  219DPPC   C3010930   9.452   5.923   3.618
  219DPPC   C3110931   9.318   5.995   3.642
  219DPPC   C3210932   9.237   6.062   4.639
  219DPPC   O3310933   9.103   6.017   4.622
  219DPPC   C3410934   9.092   5.882   4.622
  219DPPC   O3510935   9.179   5.820   4.685
  219DPPC   C3610936   8.970   5.815   4.560
  219DPPC   C3710937   8.945   5.683   4.634
  219DPPC   C3810938   8.808   5.633   4.588
  219DPPC   C3910939   8.807   5.593   4.441
  219DPPC   C4010940   8.676   5.535   4.387
  219DPPC   C4110941   8.675   5.514   4.236
  219DPPC   C4210942   8.541   5.448   4.201
  219DPPC   C4310943   8.534   5.411   4.053
  219DPPC   C4410944   8.564   5.534   3.967
  219DPPC   C4510945   8.581   5.498   3.820
  219DPPC   C4610946   8.447   5.446   3.768
  219DPPC   C4710947   8.450   5.466   3.616
  219DPPC   C4810948   8.317   5.452   3.542
  219DPPC   C4910949   8.342   5.419   3.395
  219DPPC   C5010950   8.204   5.405   3.329
  220DPPC    C110951   4.611   6.660   5.505
  220DPPC    C210952   4.452   6.497   5.516
  220DPPC    C310953   4.464   6.641   5.332
  220DPPC    N410954   4.546   6.558   5.422
  220DPPC    C510955   4.625   6.457   5.349
  220DPPC    C610956   4.736   6.390   5.430
  220DPPC    O710957   4.685   6.298   5.526
  220DPPC    P810958   4.779   6.175   5.571
  220DPPC    O910959   4.706   6.125   5.690
  220DPPC   O1010960   4.916   6.230   5.563
  220DPPC   O1110961   4.730   6.088   5.445
  220DPPC   C1210962   4.837   6.050   5.357
  220DPPC   C1310963   4.798   6.012   5.214
  220DPPC   O1410964   4.915   5.986   5.134
  220DPPC   C1510965   4.954   5.855   5.135
  220DPPC   O1610966   4.906   5.774   5.213
  220DPPC   C1710967   5.081   5.833   5.052
  220DPPC   C1810968   5.066   5.839   4.900
  220DPPC   C1910969   5.192   5.829   4.814
  220DPPC   C2010970   5.262   5.694   4.828
  220DPPC   C2110971   5.373   5.654   4.731
  220DPPC   C2210972   5.317   5.615   4.594
  220DPPC   C2310973   5.439   5.597   4.504
  220DPPC   C2410974   5.549   5.502   4.550
  220DPPC   C2510975   5.649   5.463   4.441
  220DPPC   C2610976   5.601   5.353   4.347
  220DPPC   C2710977   5.713   5.313   4.251
  220DPPC   C2810978   5.652   5.220   4.146
  220DPPC   C2910979   5.760   5.178   4.046
  220DPPC   C3010980   5.723   5.223   3.905
  220DPPC   C3110981   5.851   5.229   3.821
  220DPPC   C3210982   4.721   6.131   5.158
  220DPPC   O3310983   4.668   6.127   5.025
  220DPPC   C3410984   4.603   6.238   4.981
  220DPPC   O3510985   4.600   6.344   5.042
  220DPPC   C3610986   4.530   6.215   4.848
  220DPPC   C3710987   4.636   6.233   4.739
  220DPPC   C3810988   4.691   6.095   4.703
  220DPPC   C3910989   4.791   6.114   4.589
  220DPPC   C4010990   4.758   6.049   4.454
  220DPPC   C4110991   4.617   6.084   4.406
  220DPPC   C4210992   4.590   5.993   4.286
  220DPPC   C4310993   4.700   6.004   4.180
  220DPPC   C4410994   4.667   5.918   4.057
  220DPPC   C4510995   4.794   5.897   3.975
  220DPPC   C4610996   4.866   6.029   3.948
  220DPPC   C4710997   4.788   6.126   3.859
  220DPPC   C4810998   4.868   6.255   3.842
  220DPPC   C4910999   4.801   6.353   3.746
  220DPPC   C5011000   4.884   6.481   3.761
  221DPPC    C111001   0.434   6.168   4.777
  221DPPC    C211002   0.383   5.974   4.658
  221DPPC    C311003   0.516   6.134   4.547
  221DPPC    N411004   0.489   6.074   4.679
  221DPPC    C511005   0.610   6.011   4.733
  221DPPC    C611006   0.735   6.089   4.775
  221DPPC    O711007   0.831   6.035   4.866
  221DPPC    P811008   0.940   6.151   4.891
  221DPPC    O911009   1.025   6.109   5.004
  221DPPC   O1011010   0.867   6.280   4.890
  221DPPC   O1111011   1.012   6.136   4.748
  221DPPC   C1211012   1.132   6.061   4.759
  221DPPC   C1311013   1.202   6.028   4.627
  221DPPC   O1411014   1.298   6.113   4.563
  221DPPC   C1511015   1.423   6.132   4.614
  221DPPC   O1611016   1.464   6.054   4.699
  221DPPC   C1711017   1.506   6.220   4.521
  221DPPC   C1811018   1.451   6.363   4.511
  221DPPC   C1911019   1.347   6.388   4.402
  221DPPC   C2011020   1.401   6.352   4.263
  221DPPC   C2111021   1.295   6.351   4.153
  221DPPC   C2211022   1.366   6.298   4.029
  221DPPC   C2311023   1.274   6.301   3.907
  221DPPC   C2411024   1.349   6.235   3.790
  221DPPC   C2511025   1.262   6.248   3.664
  221DPPC   C2611026   1.131   6.170   3.678
  221DPPC   C2711027   1.041   6.173   3.555
  221DPPC   C2811028   0.977   6.310   3.528
  221DPPC   C2911029   0.939   6.341   3.383
  221DPPC   C3011030   1.040   6.439   3.324
  221DPPC   C3111031   1.043   6.555   3.424
  221DPPC   C3211032   1.086   5.995   4.533
  221DPPC   O3311033   1.048   5.859   4.560
  221DPPC   C3411034   0.929   5.839   4.498
  221DPPC   O3511035   0.852   5.932   4.473
  221DPPC   C3611036   0.878   5.697   4.518
  221DPPC   C3711037   0.851   5.630   4.383
  221DPPC   C3811038   0.778   5.496   4.398
  221DPPC   C3911039   0.782   5.387   4.292
  221DPPC   C4011040   0.710   5.432   4.164
  221DPPC   C4111041   0.761   5.332   4.060
  221DPPC   C4211042   0.703   5.373   3.925
  221DPPC   C4311043   0.550   5.361   3.918
  221DPPC   C4411044   0.490   5.359   3.777
  221DPPC   C4511045   0.342   5.319   3.775
  221DPPC   C4611046   0.278   5.362   3.642
  221DPPC   C4711047   0.145   5.291   3.618
  221DPPC   C4811048   0.087   5.322   3.479
  221DPPC   C4911049  -0.043   5.244   3.456
  221DPPC   C5011050  -0.021   5.094   3.475
  222DPPC    C111051   5.898   4.042   6.625
  222DPPC    C211052   5.716   3.911   6.634
  222DPPC    C311053   5.757   4.030   6.427
  222DPPC    N411054   5.819   3.954   6.538
  222DPPC    C511055   5.923   3.866   6.485
  222DPPC    C611056   5.904   3.718   6.450
  222DPPC    O711057   5.787   3.693   6.372
  222DPPC    P811058   5.760   3.534   6.380
  222DPPC    O911059   5.613   3.528   6.397
  222DPPC   O1011060   5.851   3.463   6.472
  222DPPC   O1111061   5.817   3.502   6.233
  222DPPC   C1211062   5.725   3.551   6.135
  222DPPC   C1311063   5.763   3.548   5.987
  222DPPC   O1411064   5.648   3.563   5.901
  222DPPC   C1511065   5.612   3.678   5.837
  222DPPC   O1611066   5.676   3.779   5.865
  222DPPC   C1711067   5.537   3.649   5.707
  222DPPC   C1811068   5.555   3.740   5.585
  222DPPC   C1911069   5.691   3.750   5.516
  222DPPC   C2011070   5.676   3.856   5.408
  222DPPC   C2111071   5.565   3.823   5.308
  222DPPC   C2211072   5.603   3.891   5.176
  222DPPC   C2311073   5.493   3.890   5.070
  222DPPC   C2411074   5.535   3.983   4.956
  222DPPC   C2511075   5.425   3.998   4.852
  222DPPC   C2611076   5.355   4.134   4.855
  222DPPC   C2711077   5.282   4.155   4.722
  222DPPC   C2811078   5.210   4.290   4.725
  222DPPC   C2911079   5.136   4.294   4.859
  222DPPC   C3011080   5.063   4.423   4.895
  222DPPC   C3111081   5.065   4.422   5.048
  222DPPC   C3211082   5.844   3.419   5.969
  222DPPC   O3311083   5.939   3.423   5.862
  222DPPC   C3411084   5.981   3.307   5.806
  222DPPC   O3511085   5.927   3.198   5.819
  222DPPC   C3611086   6.098   3.323   5.707
  222DPPC   C3711087   6.046   3.321   5.564
  222DPPC   C3811088   5.930   3.410   5.520
  222DPPC   C3911089   5.904   3.384   5.371
  222DPPC   C4011090   5.805   3.478   5.303
  222DPPC   C4111091   5.812   3.459   5.152
  222DPPC   C4211092   5.720   3.555   5.076
  222DPPC   C4311093   5.726   3.532   4.925
  222DPPC   C4411094   5.635   3.641   4.868
  222DPPC   C4511095   5.634   3.632   4.716
  222DPPC   C4611096   5.533   3.719   4.641
  222DPPC   C4711097   5.568   3.723   4.492
  222DPPC   C4811098   5.475   3.813   4.410
  222DPPC   C4911099   5.323   3.796   4.422
  222DPPC   C5011100   5.249   3.858   4.304
  223DPPC    C111101   3.492   7.360   6.110
  223DPPC    C211102   3.574   7.138   6.131
  223DPPC    C311103   3.345   7.177   6.077
  223DPPC    N411104   3.483   7.224   6.055
  223DPPC    C511105   3.544   7.218   5.921
  223DPPC    C611106   3.489   7.310   5.811
  223DPPC    O711107   3.531   7.275   5.679
  223DPPC    P811108   3.448   7.357   5.569
  223DPPC    O911109   3.526   7.479   5.541
  223DPPC   O1011110   3.312   7.355   5.626
  223DPPC   O1111111   3.473   7.237   5.464
  223DPPC   C1211112   3.593   7.263   5.391
  223DPPC   C1311113   3.657   7.144   5.318
  223DPPC   O1411114   3.765   7.196   5.240
  223DPPC   C1511115   3.880   7.123   5.239
  223DPPC   O1611116   3.887   7.020   5.305
  223DPPC   C1711117   3.999   7.173   5.157
  223DPPC   C1811118   3.954   7.233   5.024
  223DPPC   C1911119   3.896   7.126   4.931
  223DPPC   C2011120   3.871   7.178   4.789
  223DPPC   C2111121   3.832   7.081   4.678
  223DPPC   C2211122   3.961   7.032   4.612
  223DPPC   C2311123   3.946   6.945   4.487
  223DPPC   C2411124   3.914   7.040   4.371
  223DPPC   C2511125   3.929   6.973   4.235
  223DPPC   C2611126   4.074   6.956   4.187
  223DPPC   C2711127   4.074   6.899   4.045
  223DPPC   C2811128   4.026   6.753   4.045
  223DPPC   C2911129   4.068   6.682   3.916
  223DPPC   C3011130   3.995   6.548   3.907
  223DPPC   C3111131   4.043   6.478   3.779
  223DPPC   C3211132   3.542   7.074   5.245
  223DPPC   O3311133   3.468   7.140   5.142
  223DPPC   C3411134   3.366   7.071   5.083
  223DPPC   O3511135   3.333   6.965   5.136
  223DPPC   C3611136   3.302   7.126   4.955
  223DPPC   C3711137   3.400   7.131   4.838
  223DPPC   C3811138   3.336   7.162   4.702
  223DPPC   C3911139   3.439   7.192   4.594
  223DPPC   C4011140   3.391   7.221   4.451
  223DPPC   C4111141   3.513   7.252   4.364
  223DPPC   C4211142   3.468   7.316   4.232
  223DPPC   C4311143   3.596   7.334   4.150
  223DPPC   C4411144   3.557   7.371   4.007
  223DPPC   C4511145   3.674   7.397   3.912
  223DPPC   C4611146   3.625   7.414   3.768
  223DPPC   C4711147   3.743   7.455   3.680
  223DPPC   C4811148   3.698   7.469   3.535
  223DPPC   C4911149   3.821   7.442   3.447
  223DPPC   C5011150   3.787   7.467   3.300
  224DPPC    C111151   3.596   3.406   6.296
  224DPPC    C211152   3.379   3.321   6.223
  224DPPC    C311153   3.394   3.534   6.309
  224DPPC    N411154   3.469   3.437   6.228
  224DPPC    C511155   3.489   3.506   6.100
  224DPPC    C611156   3.595   3.453   6.003
  224DPPC    O711157   3.582   3.317   5.963
  224DPPC    P811158   3.723   3.255   5.915
  224DPPC    O911159   3.670   3.117   5.918
  224DPPC   O1011160   3.821   3.311   6.010
  224DPPC   O1111161   3.721   3.322   5.769
  224DPPC   C1211162   3.709   3.215   5.675
  224DPPC   C1311163   3.708   3.255   5.527
  224DPPC   O1411164   3.700   3.145   5.436
  224DPPC   C1511165   3.792   3.045   5.428
  224DPPC   O1611166   3.890   3.047   5.502
  224DPPC   C1711167   3.800   2.972   5.294
  224DPPC   C1811168   3.784   3.071   5.179
  224DPPC   C1911169   3.787   2.994   5.046
  224DPPC   C2011170   3.781   3.088   4.925
  224DPPC   C2111171   3.784   3.034   4.782
  224DPPC   C2211172   3.668   2.941   4.744
  224DPPC   C2311173   3.689   2.895   4.600
  224DPPC   C2411174   3.575   2.811   4.543
  224DPPC   C2511175   3.593   2.796   4.392
  224DPPC   C2611176   3.720   2.717   4.360
  224DPPC   C2711177   3.708   2.637   4.230
  224DPPC   C2811178   3.683   2.721   4.104
  224DPPC   C2911179   3.700   2.643   3.974
  224DPPC   C3011180   3.683   2.731   3.850
  224DPPC   C3111181   3.699   2.652   3.720
  224DPPC   C3211182   3.836   3.338   5.515
  224DPPC   O3311183   3.822   3.439   5.415
  224DPPC   C3411184   3.938   3.503   5.383
  224DPPC   O3511185   4.040   3.495   5.451
  224DPPC   C3611186   3.928   3.592   5.259
  224DPPC   C3711187   3.845   3.538   5.141
  224DPPC   C3811188   3.859   3.638   5.026
  224DPPC   C3911189   3.792   3.586   4.898
  224DPPC   C4011190   3.801   3.685   4.782
  224DPPC   C4111191   3.757   3.618   4.651
  224DPPC   C4211192   3.803   3.684   4.521
  224DPPC   C4311193   3.724   3.624   4.405
  224DPPC   C4411194   3.755   3.705   4.279
  224DPPC   C4511195   3.700   3.629   4.158
  224DPPC   C4611196   3.687   3.725   4.040
  224DPPC   C4711197   3.687   3.646   3.909
  224DPPC   C4811198   3.806   3.551   3.899
  224DPPC   C4911199   3.778   3.473   3.771
  224DPPC   C5011200   3.871   3.355   3.739
  225DPPC    C111201   9.003   3.050   5.544
  225DPPC    C211202   9.191   3.181   5.544
  225DPPC    C311203   9.089   3.114   5.752
  225DPPC    N411204   9.129   3.070   5.618
  225DPPC    C511205   9.213   2.950   5.625
  225DPPC    C611206   9.343   2.954   5.706
  225DPPC    O711207   9.437   3.058   5.677
  225DPPC    P811208   9.563   3.031   5.773
  225DPPC    O911209   9.529   2.928   5.874
  225DPPC   O1011210   9.623   3.164   5.800
  225DPPC   O1111211   9.648   2.954   5.660
  225DPPC   C1211212   9.724   3.044   5.579
  225DPPC   C1311213   9.710   3.022   5.429
  225DPPC   O1411214   9.790   3.121   5.362
  225DPPC   C1511215   9.924   3.112   5.340
  225DPPC   O1611216   9.994   3.079   5.435
  225DPPC   C1711217   9.971   3.218   5.241
  225DPPC   C1811218   9.967   3.153   5.102
  225DPPC   C1911219  10.004   3.255   4.995
  225DPPC   C2011220   9.964   3.199   4.858
  225DPPC   C2111221  10.016   3.283   4.741
  225DPPC   C2211222   9.939   3.239   4.617
  225DPPC   C2311223   9.989   3.301   4.486
  225DPPC   C2411224   9.893   3.266   4.372
  225DPPC   C2511225   9.944   3.315   4.236
  225DPPC   C2611226   9.845   3.295   4.121
  225DPPC   C2711227   9.899   3.351   3.990
  225DPPC   C2811228   9.822   3.289   3.873
  225DPPC   C2911229   9.910   3.300   3.749
  225DPPC   C3011230   9.841   3.241   3.626
  225DPPC   C3111231   9.922   3.272   3.500
  225DPPC   C3211232   9.560   3.024   5.403
  225DPPC   O3311233   9.523   2.925   5.306
  225DPPC   C3411234   9.402   2.938   5.245
  225DPPC   O3511235   9.326   3.027   5.283
  225DPPC   C3611236   9.368   2.821   5.153
  225DPPC   C3711237   9.405   2.867   5.012
  225DPPC   C3811238   9.360   2.742   4.935
  225DPPC   C3911239   9.395   2.756   4.787
  225DPPC   C4011240   9.402   2.620   4.717
  225DPPC   C4111241   9.425   2.633   4.567
  225DPPC   C4211242   9.442   2.495   4.503
  225DPPC   C4311243   9.424   2.520   4.353
  225DPPC   C4411244   9.463   2.395   4.273
  225DPPC   C4511245   9.452   2.415   4.121
  225DPPC   C4611246   9.574   2.498   4.081
  225DPPC   C4711247   9.568   2.531   3.931
  225DPPC   C4811248   9.573   2.406   3.843
  225DPPC   C4911249   9.593   2.431   3.693
  225DPPC   C5011250   9.725   2.508   3.679
  226DPPC    C111251   3.875   7.888   5.806
  226DPPC    C211252   3.846   8.118   5.783
  226DPPC    C311253   4.063   8.044   5.765
  226DPPC    N411254   3.925   8.005   5.733
  226DPPC    C511255   3.891   7.986   5.591
  226DPPC    C611256   3.974   7.891   5.503
  226DPPC    O711257   4.081   7.960   5.438
  226DPPC    P811258   4.170   7.846   5.368
  226DPPC    O911259   4.063   7.791   5.283
  226DPPC   O1011260   4.215   7.777   5.492
  226DPPC   O1111261   4.256   7.973   5.321
  226DPPC   C1211262   4.215   8.039   5.201
  226DPPC   C1311263   4.315   8.053   5.086
  226DPPC   O1411264   4.270   8.127   4.971
  226DPPC   C1511265   4.293   8.261   4.962
  226DPPC   O1611266   4.327   8.322   5.063
  226DPPC   C1711267   4.246   8.327   4.833
  226DPPC   C1811268   4.355   8.396   4.750
  226DPPC   C1911269   4.483   8.314   4.728
  226DPPC   C2011270   4.573   8.356   4.612
  226DPPC   C2111271   4.712   8.292   4.624
  226DPPC   C2211272   4.786   8.308   4.491
  226DPPC   C2311273   4.928   8.254   4.504
  226DPPC   C2411274   4.988   8.243   4.364
  226DPPC   C2511275   5.133   8.196   4.357
  226DPPC   C2611276   5.193   8.197   4.216
  226DPPC   C2711277   5.332   8.135   4.226
  226DPPC   C2811278   5.410   8.160   4.098
  226DPPC   C2911279   5.337   8.093   3.981
  226DPPC   C3011280   5.437   8.071   3.868
  226DPPC   C3111281   5.546   7.974   3.912
  226DPPC   C3211282   4.378   7.917   5.057
  226DPPC   O3311283   4.281   7.813   5.046
  226DPPC   C3411284   4.334   7.688   5.047
  226DPPC   O3511285   4.452   7.663   5.069
  226DPPC   C3611286   4.238   7.571   5.021
  226DPPC   C3711287   4.208   7.545   4.873
  226DPPC   C3811288   4.319   7.479   4.792
  226DPPC   C3911289   4.267   7.353   4.723
  226DPPC   C4011290   4.387   7.310   4.639
  226DPPC   C4111291   4.352   7.219   4.521
  226DPPC   C4211292   4.474   7.199   4.432
  226DPPC   C4311293   4.429   7.132   4.302
  226DPPC   C4411294   4.548   7.126   4.207
  226DPPC   C4511295   4.493   7.089   4.069
  226DPPC   C4611296   4.606   7.025   3.989
  226DPPC   C4711297   4.564   6.978   3.849
  226DPPC   C4811298   4.688   6.921   3.780
  226DPPC   C4911299   4.663   6.882   3.635
  226DPPC   C5011300   4.793   6.850   3.559
  227DPPC    C111301   4.746   4.066   1.765
  227DPPC    C211302   4.802   4.281   1.719
  227DPPC    C311303   4.573   4.229   1.703
  227DPPC    N411304   4.694   4.202   1.781
  227DPPC    C511305   4.676   4.245   1.921
  227DPPC    C611306   4.659   4.395   1.947
  227DPPC    O711307   4.632   4.423   2.084
  227DPPC    P811308   4.691   4.565   2.132
  227DPPC    O911309   4.619   4.607   2.254
  227DPPC   O1011310   4.706   4.650   2.011
  227DPPC   O1111311   4.843   4.527   2.170
  227DPPC   C1211312   4.848   4.517   2.312
  227DPPC   C1311313   4.984   4.460   2.351
  227DPPC   O1411314   4.993   4.385   2.472
  227DPPC   C1511315   4.926   4.267   2.486
  227DPPC   O1611316   4.867   4.223   2.388
  227DPPC   C1711317   4.918   4.203   2.625
  227DPPC   C1811318   5.034   4.109   2.659
  227DPPC   C1911319   5.034   4.086   2.811
  227DPPC   C2011320   5.138   3.990   2.868
  227DPPC   C2111321   5.111   3.964   3.016
  227DPPC   C2211322   5.219   3.885   3.090
  227DPPC   C2311323   5.191   3.837   3.232
  227DPPC   C2411324   5.328   3.844   3.299
  227DPPC   C2511325   5.279   3.791   3.434
  227DPPC   C2611326   5.388   3.771   3.540
  227DPPC   C2711327   5.320   3.750   3.675
  227DPPC   C2811328   5.418   3.739   3.793
  227DPPC   C2911329   5.356   3.691   3.924
  227DPPC   C3011330   5.306   3.548   3.905
  227DPPC   C3111331   5.256   3.508   4.044
  227DPPC   C3211332   5.087   4.571   2.328
  227DPPC   O3311333   5.077   4.666   2.435
  227DPPC   C3411334   5.187   4.745   2.448
  227DPPC   O3511335   5.260   4.763   2.351
  227DPPC   C3611336   5.203   4.839   2.568
  227DPPC   C3711337   5.327   4.798   2.647
  227DPPC   C3811338   5.362   4.886   2.768
  227DPPC   C3911339   5.282   4.857   2.895
  227DPPC   C4011340   5.323   4.949   3.010
  227DPPC   C4111341   5.264   4.926   3.149
  227DPPC   C4211342   5.360   4.987   3.251
  227DPPC   C4311343   5.284   4.984   3.384
  227DPPC   C4411344   5.352   5.047   3.506
  227DPPC   C4511345   5.288   4.989   3.633
  227DPPC   C4611346   5.386   5.022   3.746
  227DPPC   C4711347   5.350   4.934   3.866
  227DPPC   C4811348   5.456   4.961   3.974
  227DPPC   C4911349   5.409   4.867   4.084
  227DPPC   C5011350   5.492   4.878   4.212
  228DPPC    C111351   5.577   2.685   2.293
  228DPPC    C211352   5.739   2.608   2.123
  228DPPC    C311353   5.543   2.502   2.139
  228DPPC    N411354   5.599   2.637   2.156
  228DPPC    C511355   5.522   2.712   2.056
  228DPPC    C611356   5.527   2.865   2.057
  228DPPC    O711357   5.651   2.909   2.002
  228DPPC    P811358   5.639   3.065   1.966
  228DPPC    O911359   5.503   3.086   1.913
  228DPPC   O1011360   5.758   3.099   1.884
  228DPPC   O1111361   5.640   3.138   2.109
  228DPPC   C1211362   5.765   3.108   2.171
  228DPPC   C1311363   5.771   3.126   2.323
  228DPPC   O1411364   5.700   3.025   2.395
  228DPPC   C1511365   5.718   3.031   2.530
  228DPPC   O1611366   5.816   3.078   2.587
  228DPPC   C1711367   5.624   2.935   2.604
  228DPPC   C1811368   5.573   3.009   2.728
  228DPPC   C1911369   5.492   2.912   2.813
  228DPPC   C2011370   5.440   2.997   2.928
  228DPPC   C2111371   5.353   2.917   3.026
  228DPPC   C2211372   5.309   3.026   3.124
  228DPPC   C2311373   5.246   2.969   3.252
  228DPPC   C2411374   5.113   2.904   3.212
  228DPPC   C2511375   5.020   2.885   3.332
  228DPPC   C2611376   4.906   2.786   3.305
  228DPPC   C2711377   4.869   2.705   3.430
  228DPPC   C2811378   4.987   2.621   3.479
  228DPPC   C2911379   4.935   2.554   3.606
  228DPPC   C3011380   5.045   2.456   3.649
  228DPPC   C3111381   4.996   2.352   3.750
  228DPPC   C3211382   5.730   3.269   2.358
  228DPPC   O3311383   5.835   3.366   2.360
  228DPPC   C3411384   5.794   3.493   2.387
  228DPPC   O3511385   5.681   3.527   2.351
  228DPPC   C3611386   5.911   3.579   2.434
  228DPPC   C3711387   5.889   3.671   2.554
  228DPPC   C3811388   5.912   3.600   2.688
  228DPPC   C3911389   5.906   3.713   2.791
  228DPPC   C4011390   5.904   3.653   2.931
  228DPPC   C4111391   5.899   3.770   3.029
  228DPPC   C4211392   5.896   3.690   3.160
  228DPPC   C4311393   5.877   3.788   3.276
  228DPPC   C4411394   5.857   3.706   3.403
  228DPPC   C4511395   5.808   3.806   3.509
  228DPPC   C4611396   5.842   3.768   3.653
  228DPPC   C4711397   5.977   3.831   3.686
  228DPPC   C4811398   6.098   3.759   3.625
  228DPPC   C4911399   6.218   3.840   3.675
  228DPPC   C5011400   6.347   3.792   3.609
  229DPPC    C111401   3.327   3.881   2.359
  229DPPC    C211402   3.559   3.922   2.348
  229DPPC    C311403   3.466   3.797   2.537
  229DPPC    N411404   3.458   3.825   2.392
  229DPPC    C511405   3.484   3.698   2.323
  229DPPC    C611406   3.383   3.585   2.347
  229DPPC    O711407   3.440   3.458   2.312
  229DPPC    P811408   3.353   3.327   2.345
  229DPPC    O911409   3.439   3.229   2.274
  229DPPC   O1011410   3.214   3.358   2.304
  229DPPC   O1111411   3.385   3.337   2.503
  229DPPC   C1211412   3.407   3.207   2.558
  229DPPC   C1311413   3.436   3.203   2.708
  229DPPC   O1411414   3.318   3.176   2.785
  229DPPC   C1511415   3.288   3.046   2.814
  229DPPC   O1611416   3.346   2.955   2.755
  229DPPC   C1711417   3.174   3.015   2.911
  229DPPC   C1811418   3.226   2.915   3.015
  229DPPC   C1911419   3.127   2.891   3.129
  229DPPC   C2011420   3.183   2.793   3.232
  229DPPC   C2111421   3.123   2.816   3.371
  229DPPC   C2211422   3.077   2.683   3.432
  229DPPC   C2311423   3.008   2.711   3.565
  229DPPC   C2411424   2.932   2.586   3.609
  229DPPC   C2511425   2.897   2.579   3.758
  229DPPC   C2611426   2.813   2.455   3.787
  229DPPC   C2711427   2.818   2.402   3.930
  229DPPC   C2811428   2.797   2.519   4.027
  229DPPC   C2911429   2.801   2.459   4.168
  229DPPC   C3011430   2.853   2.534   4.290
  229DPPC   C3111431   2.857   2.436   4.408
  229DPPC   C3211432   3.505   3.330   2.757
  229DPPC   O3311433   3.627   3.362   2.688
  229DPPC   C3411434   3.682   3.484   2.708
  229DPPC   O3511435   3.623   3.585   2.746
  229DPPC   C3611436   3.823   3.490   2.647
  229DPPC   C3711437   3.941   3.465   2.741
  229DPPC   C3811438   3.918   3.543   2.871
  229DPPC   C3911439   4.046   3.532   2.955
  229DPPC   C4011440   4.036   3.618   3.081
  229DPPC   C4111441   4.161   3.596   3.167
  229DPPC   C4211442   4.125   3.644   3.308
  229DPPC   C4311443   4.240   3.676   3.404
  229DPPC   C4411444   4.177   3.711   3.539
  229DPPC   C4511445   4.285   3.743   3.642
  229DPPC   C4611446   4.232   3.769   3.783
  229DPPC   C4711447   4.180   3.913   3.793
  229DPPC   C4811448   4.141   3.944   3.937
  229DPPC   C4911449   4.125   4.095   3.952
  229DPPC   C5011450   4.077   4.120   4.095
  230DPPC    C111451   5.581   1.045   2.504
  230DPPC    C211452   5.420   1.033   2.689
  230DPPC    C311453   5.402   1.190   2.508
  230DPPC    N411454   5.440   1.053   2.544
  230DPPC    C511455   5.368   0.941   2.482
  230DPPC    C611456   5.391   0.891   2.339
  230DPPC    O711457   5.280   0.836   2.269
  230DPPC    P811458   5.315   0.689   2.215
  230DPPC    O911459   5.443   0.706   2.144
  230DPPC   O1011460   5.202   0.640   2.132
  230DPPC   O1111461   5.330   0.624   2.361
  230DPPC   C1211462   5.200   0.577   2.399
  230DPPC   C1311463   5.163   0.592   2.547
  230DPPC   O1411464   5.122   0.721   2.593
  230DPPC   C1511465   4.997   0.770   2.568
  230DPPC   O1611466   4.923   0.731   2.478
  230DPPC   C1711467   4.942   0.879   2.660
  230DPPC   C1811468   4.927   0.823   2.802
  230DPPC   C1911469   4.885   0.943   2.886
  230DPPC   C2011470   4.885   0.903   3.034
  230DPPC   C2111471   4.849   1.030   3.112
  230DPPC   C2211472   4.699   1.060   3.117
  230DPPC   C2311473   4.690   1.172   3.221
  230DPPC   C2411474   4.791   1.282   3.188
  230DPPC   C2511475   4.770   1.389   3.295
  230DPPC   C2611476   4.817   1.332   3.430
  230DPPC   C2711477   4.799   1.416   3.556
  230DPPC   C2811478   4.832   1.318   3.669
  230DPPC   C2911479   4.966   1.246   3.658
  230DPPC   C3011480   4.981   1.173   3.791
  230DPPC   C3111481   5.100   1.078   3.804
  230DPPC   C3211482   5.284   0.534   2.621
  230DPPC   O3311483   5.289   0.517   2.762
  230DPPC   C3411484   5.335   0.630   2.821
  230DPPC   O3511485   5.386   0.724   2.760
  230DPPC   C3611486   5.322   0.639   2.973
  230DPPC   C3711487   5.330   0.500   3.036
  230DPPC   C3811488   5.353   0.511   3.187
  230DPPC   C3911489   5.326   0.376   3.252
  230DPPC   C4011490   5.346   0.375   3.404
  230DPPC   C4111491   5.310   0.232   3.447
  230DPPC   C4211492   5.163   0.195   3.433
  230DPPC   C4311493   5.092   0.264   3.550
  230DPPC   C4411494   4.941   0.242   3.549
  230DPPC   C4511495   4.863   0.313   3.661
  230DPPC   C4611496   4.711   0.300   3.654
  230DPPC   C4711497   4.644   0.382   3.765
  230DPPC   C4811498   4.652   0.530   3.730
  230DPPC   C4911499   4.513   0.583   3.693
  230DPPC   C5011500   4.406   0.552   3.798
  231DPPC    C111501   1.124   0.155   1.991
  231DPPC    C211502   1.205   0.335   1.893
  231DPPC    C311503   1.374   0.207   2.006
  231DPPC    N411504   1.249   0.199   1.928
  231DPPC    C511505   1.276   0.124   1.805
  231DPPC    C611506   1.358  -0.005   1.802
  231DPPC    O711507   1.292  -0.112   1.871
  231DPPC    P811508   1.398  -0.229   1.904
  231DPPC    O911509   1.493  -0.186   2.009
  231DPPC   O1011510   1.420  -0.310   1.782
  231DPPC   O1111511   1.282  -0.309   1.981
  231DPPC   C1211512   1.271  -0.254   2.113
  231DPPC   C1311513   1.135  -0.276   2.179
  231DPPC   O1411514   1.115  -0.206   2.303
  231DPPC   C1511515   1.014  -0.115   2.307
  231DPPC   O1611516   0.939  -0.102   2.210
  231DPPC   C1711517   1.004  -0.021   2.428
  231DPPC   C1811518   1.040   0.123   2.392
  231DPPC   C1911519   0.991   0.226   2.495
  231DPPC   C2011520   0.839   0.243   2.493
  231DPPC   C2111521   0.802   0.360   2.584
  231DPPC   C2211522   0.855   0.343   2.726
  231DPPC   C2311523   0.822   0.462   2.815
  231DPPC   C2411524   0.855   0.423   2.959
  231DPPC   C2511525   0.814   0.546   3.040
  231DPPC   C2611526   0.850   0.532   3.188
  231DPPC   C2711527   0.810   0.654   3.272
  231DPPC   C2811528   0.816   0.616   3.420
  231DPPC   C2911529   0.819   0.744   3.505
  231DPPC   C3011530   0.835   0.714   3.654
  231DPPC   C3111531   0.717   0.635   3.710
  231DPPC   C3211532   1.116  -0.428   2.174
  231DPPC   O3311533   1.237  -0.496   2.208
  231DPPC   C3411534   1.221  -0.629   2.233
  231DPPC   O3511535   1.155  -0.696   2.154
  231DPPC   C3611536   1.326  -0.687   2.328
  231DPPC   C3711537   1.255  -0.724   2.458
  231DPPC   C3811538   1.370  -0.793   2.530
  231DPPC   C3911539   1.342  -0.868   2.661
  231DPPC   C4011540   1.475  -0.925   2.711
  231DPPC   C4111541   1.459  -1.006   2.840
  231DPPC   C4211542   1.600  -1.046   2.883
  231DPPC   C4311543   1.670  -0.914   2.917
  231DPPC   C4411544   1.792  -0.924   3.008
  231DPPC   C4511545   1.856  -0.785   3.011
  231DPPC   C4611546   1.998  -0.798   2.955
  231DPPC   C4711547   2.081  -0.670   2.970
  231DPPC   C4811548   2.215  -0.707   3.034
  231DPPC   C4911549   2.335  -0.646   2.962
  231DPPC   C5011550   2.459  -0.722   3.011
  232DPPC    C111551   7.754   6.832   1.472
  232DPPC    C211552   7.858   6.959   1.653
  232DPPC    C311553   7.635   6.993   1.597
  232DPPC    N411554   7.738   6.888   1.607
  232DPPC    C511555   7.706   6.777   1.698
  232DPPC    C611556   7.817   6.676   1.730
  232DPPC    O711557   7.767   6.557   1.792
  232DPPC    P811558   7.839   6.421   1.744
  232DPPC    O911559   7.885   6.435   1.604
  232DPPC   O1011560   7.750   6.311   1.787
  232DPPC   O1111561   7.962   6.423   1.848
  232DPPC   C1211562   7.921   6.383   1.979
  232DPPC   C1311563   8.002   6.449   2.091
  232DPPC   O1411564   8.005   6.372   2.212
  232DPPC   C1511565   8.113   6.291   2.229
  232DPPC   O1611566   8.204   6.295   2.147
  232DPPC   C1711567   8.118   6.210   2.359
  232DPPC   C1811568   8.246   6.234   2.439
  232DPPC   C1911569   8.236   6.145   2.563
  232DPPC   C2011570   8.343   6.170   2.671
  232DPPC   C2111571   8.310   6.081   2.791
  232DPPC   C2211572   8.410   6.085   2.907
  232DPPC   C2311573   8.360   6.005   3.027
  232DPPC   C2411574   8.447   6.040   3.148
  232DPPC   C2511575   8.598   6.037   3.127
  232DPPC   C2611576   8.667   6.068   3.260
  232DPPC   C2711577   8.666   5.943   3.348
  232DPPC   C2811578   8.729   5.970   3.486
  232DPPC   C2911579   8.657   6.084   3.558
  232DPPC   C3011580   8.706   6.104   3.702
  232DPPC   C3111581   8.626   6.215   3.771
  232DPPC   C3211582   7.952   6.594   2.095
  232DPPC   O3311583   7.812   6.611   2.119
  232DPPC   C3411584   7.771   6.740   2.108
  232DPPC   O3511585   7.835   6.820   2.039
  232DPPC   C3611586   7.633   6.768   2.167
  232DPPC   C3711587   7.641   6.863   2.287
  232DPPC   C3811588   7.673   6.778   2.410
  232DPPC   C3911589   7.682   6.881   2.523
  232DPPC   C4011590   7.547   6.951   2.541
  232DPPC   C4111591   7.552   7.047   2.660
  232DPPC   C4211592   7.602   6.966   2.779
  232DPPC   C4311593   7.608   7.047   2.909
  232DPPC   C4411594   7.654   6.966   3.030
  232DPPC   C4511595   7.781   6.885   3.004
  232DPPC   C4611596   7.783   6.765   3.099
  232DPPC   C4711597   7.927   6.714   3.104
  232DPPC   C4811598   7.945   6.589   3.191
  232DPPC   C4911599   7.838   6.490   3.144
  232DPPC   C5011600   7.833   6.373   3.243
  233DPPC    C111601   0.465   5.309   1.438
  233DPPC    C211602   0.637   5.145   1.441
  233DPPC    C311603   0.673   5.362   1.380
  233DPPC    N411604   0.603   5.282   1.482
  233DPPC    C511605   0.638   5.305   1.623
  233DPPC    C611606   0.624   5.449   1.671
  233DPPC    O711607   0.746   5.504   1.722
  233DPPC    P811608   0.719   5.657   1.763
  233DPPC    O911609   0.630   5.702   1.653
  233DPPC   O1011610   0.844   5.730   1.793
  233DPPC   O1111611   0.629   5.634   1.895
  233DPPC   C1211612   0.584   5.751   1.964
  233DPPC   C1311613   0.464   5.834   1.917
  233DPPC   O1411614   0.446   5.954   1.994
  233DPPC   C1511615   0.510   6.068   1.957
  233DPPC   O1611616   0.590   6.060   1.864
  233DPPC   C1711617   0.504   6.186   2.054
  233DPPC   C1811618   0.639   6.226   2.113
  233DPPC   C1911619   0.607   6.331   2.219
  233DPPC   C2011620   0.738   6.383   2.280
  233DPPC   C2111621   0.815   6.274   2.354
  233DPPC   C2211622   0.942   6.325   2.423
  233DPPC   C2311623   1.008   6.204   2.489
  233DPPC   C2411624   1.154   6.234   2.521
  233DPPC   C2511625   1.214   6.124   2.609
  233DPPC   C2611626   1.212   5.991   2.533
  233DPPC   C2711627   1.309   5.890   2.595
  233DPPC   C2811628   1.301   5.903   2.747
  233DPPC   C2911629   1.405   5.810   2.811
  233DPPC   C3011630   1.383   5.804   2.963
  233DPPC   C3111631   1.459   5.688   3.028
  233DPPC   C3211632   0.345   5.740   1.940
  233DPPC   O3311633   0.359   5.662   2.059
  233DPPC   C3411634   0.250   5.585   2.085
  233DPPC   O3511635   0.159   5.583   2.002
  233DPPC   C3611636   0.245   5.509   2.218
  233DPPC   C3711637   0.177   5.590   2.329
  233DPPC   C3811638   0.246   5.723   2.359
  233DPPC   C3911639   0.172   5.811   2.459
  233DPPC   C4011640   0.257   5.933   2.497
  233DPPC   C4111641   0.392   5.887   2.552
  233DPPC   C4211642   0.483   6.005   2.588
  233DPPC   C4311643   0.615   5.948   2.638
  233DPPC   C4411644   0.713   6.042   2.709
  233DPPC   C4511645   0.811   5.965   2.798
  233DPPC   C4611646   0.862   6.054   2.911
  233DPPC   C4711647   0.986   5.992   2.976
  233DPPC   C4811648   1.042   6.081   3.088
  233DPPC   C4911649   1.133   5.998   3.179
  233DPPC   C5011650   1.038   5.888   3.228
  234DPPC    C111651   8.587   1.828   1.310
  234DPPC    C211652   8.516   1.607   1.359
  234DPPC    C311653   8.726   1.634   1.289
  234DPPC    N411654   8.627   1.702   1.374
  234DPPC    C511655   8.676   1.714   1.512
  234DPPC    C611656   8.785   1.807   1.566
  234DPPC    O711657   8.914   1.791   1.506
  234DPPC    P811658   9.010   1.916   1.537
  234DPPC    O911659   8.913   2.024   1.508
  234DPPC   O1011660   9.128   1.886   1.452
  234DPPC   O1111661   9.031   1.867   1.689
  234DPPC   C1211662   8.985   1.965   1.783
  234DPPC   C1311663   8.956   1.891   1.914
  234DPPC   O1411664   8.932   1.983   2.021
  234DPPC   C1511665   8.832   1.945   2.106
  234DPPC   O1611666   8.723   1.908   2.063
  234DPPC   C1711667   8.843   2.003   2.247
  234DPPC   C1811668   8.990   2.020   2.285
  234DPPC   C1911669   9.018   2.032   2.435
  234DPPC   C2011670   8.974   1.909   2.516
  234DPPC   C2111671   9.004   1.923   2.665
  234DPPC   C2211672   8.946   1.798   2.732
  234DPPC   C2311673   8.938   1.831   2.882
  234DPPC   C2411674   8.826   1.753   2.950
  234DPPC   C2511675   8.823   1.787   3.100
  234DPPC   C2611676   8.700   1.733   3.172
  234DPPC   C2711677   8.695   1.758   3.323
  234DPPC   C2811678   8.568   1.701   3.387
  234DPPC   C2911679   8.573   1.698   3.540
  234DPPC   C3011680   8.437   1.648   3.588
  234DPPC   C3111681   8.434   1.649   3.741
  234DPPC   C3211682   9.087   1.819   1.945
  234DPPC   O3311683   9.092   1.715   2.043
  234DPPC   C3411684   9.034   1.592   2.035
  234DPPC   O3511685   9.013   1.550   1.922
  234DPPC   C3611686   9.040   1.500   2.157
  234DPPC   C3711687   8.929   1.560   2.245
  234DPPC   C3811688   8.929   1.480   2.376
  234DPPC   C3911689   8.805   1.519   2.456
  234DPPC   C4011690   8.787   1.456   2.594
  234DPPC   C4111691   8.641   1.488   2.626
  234DPPC   C4211692   8.597   1.428   2.759
  234DPPC   C4311693   8.464   1.485   2.808
  234DPPC   C4411694   8.435   1.413   2.940
  234DPPC   C4511695   8.331   1.501   3.010
  234DPPC   C4611696   8.305   1.433   3.145
  234DPPC   C4711697   8.427   1.397   3.230
  234DPPC   C4811698   8.394   1.333   3.364
  234DPPC   C4911699   8.517   1.293   3.446
  234DPPC   C5011700   8.477   1.196   3.558
  235DPPC    C111701   2.648   3.995   2.197
  235DPPC    C211702   2.462   4.143   2.175
  235DPPC    C311703   2.552   4.093   2.388
  235DPPC    N411704   2.587   4.119   2.248
  235DPPC    C511705   2.681   4.232   2.253
  235DPPC    C611706   2.729   4.282   2.117
  235DPPC    O711707   2.806   4.401   2.130
  235DPPC    P811708   2.848   4.447   1.981
  235DPPC    O911709   2.824   4.336   1.886
  235DPPC   O1011710   2.981   4.510   1.968
  235DPPC   O1111711   2.729   4.553   1.956
  235DPPC   C1211712   2.752   4.654   2.054
  235DPPC   C1311713   2.635   4.746   2.091
  235DPPC   O1411714   2.680   4.860   2.166
  235DPPC   C1511715   2.593   4.963   2.172
  235DPPC   O1611716   2.500   4.971   2.091
  235DPPC   C1711717   2.609   5.061   2.289
  235DPPC   C1811718   2.641   4.976   2.412
  235DPPC   C1911719   2.527   4.893   2.470
  235DPPC   C2011720   2.591   4.835   2.597
  235DPPC   C2111721   2.500   4.743   2.679
  235DPPC   C2211722   2.560   4.741   2.820
  235DPPC   C2311723   2.523   4.866   2.899
  235DPPC   C2411724   2.597   4.858   3.032
  235DPPC   C2511725   2.582   4.997   3.093
  235DPPC   C2611726   2.434   5.037   3.103
  235DPPC   C2711727   2.407   5.176   3.160
  235DPPC   C2811728   2.436   5.162   3.310
  235DPPC   C2911729   2.409   5.284   3.397
  235DPPC   C3011730   2.421   5.241   3.544
  235DPPC   C3111731   2.361   5.338   3.645
  235DPPC   C3211732   2.522   4.655   2.140
  235DPPC   O3311733   2.525   4.577   2.259
  235DPPC   C3411734   2.411   4.513   2.296
  235DPPC   O3511735   2.334   4.488   2.204
  235DPPC   C3611736   2.417   4.447   2.434
  235DPPC   C3711737   2.285   4.377   2.467
  235DPPC   C3811738   2.293   4.295   2.596
  235DPPC   C3911739   2.341   4.366   2.722
  235DPPC   C4011740   2.327   4.281   2.849
  235DPPC   C4111741   2.374   4.345   2.980
  235DPPC   C4211742   2.280   4.451   3.037
  235DPPC   C4311743   2.360   4.513   3.152
  235DPPC   C4411744   2.254   4.599   3.220
  235DPPC   C4511745   2.304   4.655   3.354
  235DPPC   C4611746   2.238   4.786   3.399
  235DPPC   C4711747   2.300   4.840   3.528
  235DPPC   C4811748   2.285   4.736   3.640
  235DPPC   C4911749   2.347   4.797   3.766
  235DPPC   C5011750   2.493   4.836   3.741
  236DPPC    C111751   0.326   1.077   1.417
  236DPPC    C211752   0.193   1.203   1.259
  236DPPC    C311753   0.091   1.037   1.398
  236DPPC    N411754   0.196   1.141   1.393
  236DPPC    C511755   0.170   1.233   1.504
  236DPPC    C611756   0.236   1.371   1.511
  236DPPC    O711757   0.379   1.365   1.522
  236DPPC    P811758   0.445   1.512   1.519
  236DPPC    O911759   0.367   1.587   1.418
  236DPPC   O1011760   0.591   1.488   1.514
  236DPPC   O1111761   0.384   1.561   1.660
  236DPPC   C1211762   0.453   1.502   1.770
  236DPPC   C1311763   0.430   1.587   1.895
  236DPPC   O1411764   0.527   1.570   2.000
  236DPPC   C1511765   0.561   1.671   2.085
  236DPPC   O1611766   0.536   1.786   2.051
  236DPPC   C1711767   0.674   1.651   2.186
  236DPPC   C1811768   0.644   1.745   2.303
  236DPPC   C1911769   0.752   1.725   2.409
  236DPPC   C2011770   0.730   1.822   2.525
  236DPPC   C2111771   0.620   1.767   2.616
  236DPPC   C2211772   0.630   1.821   2.758
  236DPPC   C2311773   0.533   1.741   2.846
  236DPPC   C2411774   0.391   1.740   2.790
  236DPPC   C2511775   0.296   1.713   2.907
  236DPPC   C2611776   0.344   1.578   2.961
  236DPPC   C2711777   0.259   1.533   3.080
  236DPPC   C2811778   0.246   1.631   3.198
  236DPPC   C2911779   0.139   1.575   3.291
  236DPPC   C3011780   0.138   1.651   3.424
  236DPPC   C3111781   0.016   1.625   3.513
  236DPPC   C3211782   0.285   1.552   1.928
  236DPPC   O3311783   0.272   1.411   1.946
  236DPPC   C3411784   0.145   1.362   1.939
  236DPPC   O3511785   0.054   1.430   1.890
  236DPPC   C3611786   0.116   1.222   1.992
  236DPPC   C3711787   0.107   1.219   2.145
  236DPPC   C3811788  -0.040   1.242   2.183
  236DPPC   C3911789  -0.076   1.192   2.323
  236DPPC   C4011790  -0.219   1.215   2.372
  236DPPC   C4111791  -0.227   1.172   2.518
  236DPPC   C4211792  -0.207   1.021   2.533
  236DPPC   C4311793  -0.212   0.978   2.680
  236DPPC   C4411794  -0.202   0.827   2.698
  236DPPC   C4511795  -0.201   0.811   2.851
  236DPPC   C4611796  -0.168   0.670   2.899
  236DPPC   C4711797  -0.176   0.659   3.052
  236DPPC   C4811798  -0.049   0.720   3.113
  236DPPC   C4911799  -0.060   0.732   3.265
  236DPPC   C5011800   0.064   0.802   3.321
  237DPPC    C111801   7.419   7.677   1.935
  237DPPC    C211802   7.631   7.565   1.960
  237DPPC    C311803   7.476   7.494   1.813
  237DPPC    N411804   7.534   7.619   1.863
  237DPPC    C511805   7.604   7.689   1.754
  237DPPC    C611806   7.646   7.835   1.774
  237DPPC    O711807   7.537   7.928   1.777
  237DPPC    P811808   7.593   8.077   1.804
  237DPPC    O911809   7.496   8.178   1.758
  237DPPC   O1011810   7.736   8.076   1.768
  237DPPC   O1111811   7.573   8.061   1.963
  237DPPC   C1211812   7.438   8.065   2.010
  237DPPC   C1311813   7.433   8.081   2.163
  237DPPC   O1411814   7.433   8.215   2.213
  237DPPC   C1511815   7.322   8.293   2.198
  237DPPC   O1611816   7.222   8.241   2.148
  237DPPC   C1711817   7.333   8.439   2.242
  237DPPC   C1811818   7.425   8.440   2.364
  237DPPC   C1911819   7.434   8.579   2.428
  237DPPC   C2011820   7.498   8.568   2.566
  237DPPC   C2111821   7.391   8.538   2.671
  237DPPC   C2211822   7.457   8.554   2.808
  237DPPC   C2311823   7.361   8.539   2.926
  237DPPC   C2411824   7.423   8.598   3.052
  237DPPC   C2511825   7.439   8.749   3.033
  237DPPC   C2611826   7.535   8.797   3.142
  237DPPC   C2711827   7.526   8.736   3.283
  237DPPC   C2811828   7.632   8.788   3.380
  237DPPC   C2911829   7.777   8.772   3.333
  237DPPC   C3011830   7.865   8.837   3.440
  237DPPC   C3111831   7.835   8.986   3.452
  237DPPC   C3211832   7.528   7.974   2.217
  237DPPC   O3311833   7.454   7.855   2.241
  237DPPC   C3411834   7.533   7.759   2.296
  237DPPC   O3511835   7.651   7.742   2.264
  237DPPC   C3611836   7.472   7.647   2.380
  237DPPC   C3711837   7.469   7.683   2.529
  237DPPC   C3811838   7.437   7.566   2.623
  237DPPC   C3911839   7.418   7.609   2.768
  237DPPC   C4011840   7.369   7.493   2.856
  237DPPC   C4111841   7.307   7.557   2.980
  237DPPC   C4211842   7.248   7.446   3.067
  237DPPC   C4311843   7.348   7.337   3.107
  237DPPC   C4411844   7.458   7.405   3.189
  237DPPC   C4511845   7.558   7.301   3.241
  237DPPC   C4611846   7.651   7.370   3.341
  237DPPC   C4711847   7.770   7.276   3.364
  237DPPC   C4811848   7.730   7.136   3.411
  237DPPC   C4911849   7.858   7.062   3.373
  237DPPC   C5011850   7.970   7.108   3.467
  238DPPC    C111851   3.319   2.018   2.647
  238DPPC    C211852   3.396   2.076   2.431
  238DPPC    C311853   3.164   2.029   2.458
  238DPPC    N411854   3.282   2.088   2.523
  238DPPC    C511855   3.227   2.222   2.545
  238DPPC    C611856   3.303   2.316   2.638
  238DPPC    O711857   3.403   2.392   2.568
  238DPPC    P811858   3.476   2.498   2.665
  238DPPC    O911859   3.401   2.519   2.791
  238DPPC   O1011860   3.542   2.609   2.593
  238DPPC   O1111861   3.592   2.389   2.692
  238DPPC   C1211862   3.587   2.368   2.834
  238DPPC   C1311863   3.637   2.238   2.896
  238DPPC   O1411864   3.588   2.224   3.030
  238DPPC   C1511865   3.576   2.100   3.085
  238DPPC   O1611866   3.573   1.999   3.014
  238DPPC   C1711867   3.541   2.088   3.233
  238DPPC   C1811868   3.661   2.064   3.325
  238DPPC   C1911869   3.638   2.068   3.476
  238DPPC   C2011870   3.581   2.198   3.532
  238DPPC   C2111871   3.559   2.177   3.682
  238DPPC   C2211872   3.501   2.307   3.739
  238DPPC   C2311873   3.508   2.300   3.892
  238DPPC   C2411874   3.648   2.272   3.949
  238DPPC   C2511875   3.632   2.256   4.100
  238DPPC   C2611876   3.578   2.130   4.168
  238DPPC   C2711877   3.608   2.132   4.318
  238DPPC   C2811878   3.513   2.223   4.396
  238DPPC   C2911879   3.537   2.204   4.545
  238DPPC   C3011880   3.496   2.063   4.586
  238DPPC   C3111881   3.502   2.023   4.734
  238DPPC   C3211882   3.789   2.243   2.881
  238DPPC   O3311883   3.855   2.369   2.896
  238DPPC   C3411884   3.989   2.375   2.878
  238DPPC   O3511885   4.052   2.272   2.854
  238DPPC   C3611886   4.056   2.513   2.880
  238DPPC   C3711887   4.129   2.547   3.010
  238DPPC   C3811888   4.216   2.673   3.000
  238DPPC   C3911889   4.301   2.688   3.126
  238DPPC   C4011890   4.208   2.681   3.247
  238DPPC   C4111891   4.275   2.686   3.385
  238DPPC   C4211892   4.171   2.656   3.493
  238DPPC   C4311893   4.215   2.652   3.639
  238DPPC   C4411894   4.112   2.643   3.753
  238DPPC   C4511895   4.034   2.512   3.748
  238DPPC   C4611896   4.097   2.394   3.823
  238DPPC   C4711897   4.008   2.270   3.810
  238DPPC   C4811898   4.037   2.151   3.901
  238DPPC   C4911899   4.145   2.063   3.838
  238DPPC   C5011900   4.090   2.029   3.699
  239DPPC    C111901   3.349   2.578   2.310
  239DPPC    C211902   3.529   2.675   2.178
  239DPPC    C311903   3.363   2.531   2.083
  239DPPC    N411904   3.386   2.638   2.181
  239DPPC    C511905   3.318   2.763   2.145
  239DPPC    C611906   3.166   2.747   2.130
  239DPPC    O711907   3.098   2.841   2.047
  239DPPC    P811908   2.949   2.787   2.019
  239DPPC    O911909   2.980   2.648   1.981
  239DPPC   O1011910   2.898   2.885   1.920
  239DPPC   O1111911   2.900   2.810   2.171
  239DPPC   C1211912   2.778   2.885   2.174
  239DPPC   C1311913   2.665   2.783   2.186
  239DPPC   O1411914   2.530   2.823   2.158
  239DPPC   C1511915   2.426   2.736   2.158
  239DPPC   O1611916   2.431   2.614   2.145
  239DPPC   C1711917   2.288   2.800   2.178
  239DPPC   C1811918   2.234   2.769   2.318
  239DPPC   C1911919   2.110   2.855   2.342
  239DPPC   C2011920   2.043   2.841   2.478
  239DPPC   C2111921   2.135   2.901   2.585
  239DPPC   C2211922   2.050   2.895   2.712
  239DPPC   C2311923   2.112   2.989   2.816
  239DPPC   C2411924   2.039   2.988   2.950
  239DPPC   C2511925   1.912   3.073   2.948
  239DPPC   C2611926   1.847   3.097   3.085
  239DPPC   C2711927   1.944   3.157   3.187
  239DPPC   C2811928   1.861   3.168   3.315
  239DPPC   C2911929   1.938   3.268   3.402
  239DPPC   C3011930   1.847   3.306   3.518
  239DPPC   C3111931   1.745   3.409   3.467
  239DPPC   C3211932   2.694   2.749   2.332
  239DPPC   O3311933   2.663   2.847   2.431
  239DPPC   C3411934   2.657   2.800   2.559
  239DPPC   O3511935   2.673   2.682   2.588
  239DPPC   C3611936   2.616   2.905   2.663
  239DPPC   C3711937   2.603   2.835   2.799
  239DPPC   C3811938   2.505   2.913   2.886
  239DPPC   C3911939   2.504   2.853   3.027
  239DPPC   C4011940   2.428   2.942   3.126
  239DPPC   C4111941   2.484   2.911   3.265
  239DPPC   C4211942   2.402   2.985   3.370
  239DPPC   C4311943   2.441   2.964   3.516
  239DPPC   C4411944   2.348   3.020   3.625
  239DPPC   C4511945   2.379   3.163   3.669
  239DPPC   C4611946   2.260   3.235   3.732
  239DPPC   C4711947   2.273   3.277   3.879
  239DPPC   C4811948   2.139   3.314   3.942
  239DPPC   C4911949   2.166   3.369   4.082
  239DPPC   C5011950   2.211   3.255   4.173
  240DPPC    C111951   1.312   4.651   1.519
  240DPPC    C211952   1.514   4.665   1.405
  240DPPC    C311953   1.296   4.704   1.297
  240DPPC    N411954   1.382   4.727   1.415
  240DPPC    C511955   1.393   4.872   1.437
  240DPPC    C611956   1.453   4.908   1.573
  240DPPC    O711957   1.358   4.948   1.672
  240DPPC    P811958   1.448   4.975   1.803
  240DPPC    O911959   1.357   5.052   1.891
  240DPPC   O1011960   1.569   5.040   1.747
  240DPPC   O1111961   1.462   4.818   1.834
  240DPPC   C1211962   1.353   4.775   1.916
  240DPPC   C1311963   1.313   4.628   1.928
  240DPPC   O1411964   1.192   4.604   2.001
  240DPPC   C1511965   1.079   4.572   1.933
  240DPPC   O1611966   1.093   4.560   1.811
  240DPPC   C1711967   0.945   4.548   2.003
  240DPPC   C1811968   0.888   4.667   2.080
  240DPPC   C1911969   0.743   4.633   2.115
  240DPPC   C2011970   0.704   4.753   2.201
  240DPPC   C2111971   0.632   4.695   2.323
  240DPPC   C2211972   0.592   4.811   2.414
  240DPPC   C2311973   0.730   4.866   2.452
  240DPPC   C2411974   0.709   4.971   2.562
  240DPPC   C2511975   0.853   5.006   2.603
  240DPPC   C2611976   0.937   5.087   2.504
  240DPPC   C2711977   1.072   5.095   2.576
  240DPPC   C2811978   1.038   5.146   2.716
  240DPPC   C2911979   1.162   5.198   2.790
  240DPPC   C3011980   1.130   5.234   2.935
  240DPPC   C3111981   1.218   5.346   2.991
  240DPPC   C3211982   1.441   4.563   1.980
  240DPPC   O3311983   1.483   4.604   2.111
  240DPPC   C3411984   1.564   4.514   2.171
  240DPPC   O3511985   1.614   4.422   2.106
  240DPPC   C3611986   1.593   4.531   2.321
  240DPPC   C3711987   1.493   4.628   2.385
  240DPPC   C3811988   1.521   4.609   2.534
  240DPPC   C3911989   1.551   4.464   2.572
  240DPPC   C4011990   1.559   4.434   2.722
  240DPPC   C4111991   1.429   4.449   2.802
  240DPPC   C4211992   1.463   4.438   2.951
  240DPPC   C4311993   1.343   4.491   3.029
  240DPPC   C4411994   1.359   4.500   3.181
  240DPPC   C4511995   1.253   4.592   3.242
  240DPPC   C4611996   1.285   4.597   3.391
  240DPPC   C4711997   1.413   4.674   3.426
  240DPPC   C4811998   1.428   4.682   3.578
  240DPPC   C4911999   1.538   4.781   3.612
  240DPPC   C5012000   1.535   4.831   3.757
  241DPPC    C112001   3.086   3.173   2.047
  241DPPC    C212002   3.290   3.213   1.953
  241DPPC    C312003   3.093   3.232   1.821
  241DPPC    N412004   3.152   3.264   1.952
  241DPPC    C512005   3.150   3.409   1.972
  241DPPC    C612006   3.009   3.459   2.003
  241DPPC    O712007   3.012   3.602   2.006
  241DPPC    P812008   2.860   3.639   2.045
  241DPPC    O912009   2.775   3.538   1.980
  241DPPC   O1012010   2.826   3.782   2.026
  241DPPC   O1112011   2.864   3.604   2.202
  241DPPC   C1212012   2.945   3.712   2.249
  241DPPC   C1312013   2.943   3.720   2.402
  241DPPC   O1412014   3.024   3.830   2.445
  241DPPC   C1512015   2.964   3.949   2.473
  241DPPC   O1612016   2.889   3.996   2.388
  241DPPC   C1712017   3.036   4.034   2.577
  241DPPC   C1812018   3.125   3.969   2.684
  241DPPC   C1912019   3.182   4.083   2.768
  241DPPC   C2012020   3.300   4.041   2.855
  241DPPC   C2112021   3.262   3.946   2.969
  241DPPC   C2212022   3.383   3.937   3.063
  241DPPC   C2312023   3.409   3.791   3.100
  241DPPC   C2412024   3.528   3.797   3.196
  241DPPC   C2512025   3.573   3.663   3.255
  241DPPC   C2612026   3.693   3.683   3.347
  241DPPC   C2712027   3.740   3.545   3.394
  241DPPC   C2812028   3.752   3.444   3.280
  241DPPC   C2912029   3.809   3.316   3.342
  241DPPC   C3012030   3.833   3.213   3.231
  241DPPC   C3112031   3.706   3.206   3.146
  241DPPC   C3212032   3.005   3.587   2.446
  241DPPC   O3312033   3.002   3.554   2.585
  241DPPC   C3412034   3.105   3.595   2.663
  241DPPC   O3512035   3.217   3.633   2.628
  241DPPC   C3612036   3.073   3.558   2.808
  241DPPC   C3712037   3.183   3.476   2.875
  241DPPC   C3812038   3.145   3.438   3.018
  241DPPC   C3912039   3.247   3.348   3.088
  241DPPC   C4012040   3.192   3.322   3.228
  241DPPC   C4112041   3.283   3.242   3.322
  241DPPC   C4212042   3.209   3.214   3.452
  241DPPC   C4312043   3.299   3.132   3.545
  241DPPC   C4412044   3.254   3.172   3.685
  241DPPC   C4512045   3.240   3.324   3.695
  241DPPC   C4612046   3.143   3.345   3.811
  241DPPC   C4712047   3.103   3.485   3.859
  241DPPC   C4812048   2.978   3.480   3.947
  241DPPC   C4912049   2.941   3.621   3.994
  241DPPC   C5012050   2.813   3.622   4.077
  242DPPC    C112051   5.274   5.121   2.141
  242DPPC    C212052   5.269   5.104   1.911
  242DPPC    C312053   5.095   5.223   2.017
  242DPPC    N412054   5.239   5.198   2.020
  242DPPC    C512055   5.321   5.319   2.015
  242DPPC    C612056   5.293   5.426   2.121
  242DPPC    O712057   5.388   5.533   2.130
  242DPPC    P812058   5.316   5.677   2.130
  242DPPC    O912059   5.184   5.640   2.185
  242DPPC   O1012060   5.328   5.747   2.001
  242DPPC   O1112061   5.420   5.752   2.228
  242DPPC   C1212062   5.485   5.665   2.321
  242DPPC   C1312063   5.580   5.750   2.406
  242DPPC   O1412064   5.670   5.689   2.500
  242DPPC   C1512065   5.777   5.619   2.453
  242DPPC   O1612066   5.812   5.624   2.336
  242DPPC   C1712067   5.851   5.532   2.555
  242DPPC   C1812068   5.782   5.522   2.691
  242DPPC   C1912069   5.865   5.587   2.803
  242DPPC   C2012070   5.805   5.566   2.942
  242DPPC   C2112071   5.916   5.590   3.044
  242DPPC   C2212072   5.861   5.619   3.184
  242DPPC   C2312073   5.957   5.640   3.302
  242DPPC   C2412074   6.043   5.514   3.318
  242DPPC   C2512075   6.103   5.513   3.459
  242DPPC   C2612076   6.196   5.394   3.479
  242DPPC   C2712077   6.119   5.262   3.479
  242DPPC   C2812078   6.213   5.147   3.518
  242DPPC   C2912079   6.137   5.014   3.523
  242DPPC   C3012080   6.234   4.901   3.560
  242DPPC   C3112081   6.154   4.770   3.567
  242DPPC   C3212082   5.478   5.852   2.457
  242DPPC   O3312083   5.372   5.797   2.536
  242DPPC   C3412084   5.279   5.889   2.574
  242DPPC   O3512085   5.306   6.004   2.538
  242DPPC   C3612086   5.175   5.855   2.681
  242DPPC   C3712087   5.044   5.805   2.620
  242DPPC   C3812088   4.945   5.736   2.714
  242DPPC   C3912089   5.002   5.609   2.778
  242DPPC   C4012090   4.883   5.535   2.839
  242DPPC   C4112091   4.940   5.402   2.890
  242DPPC   C4212092   4.823   5.304   2.895
  242DPPC   C4312093   4.877   5.170   2.945
  242DPPC   C4412094   4.774   5.058   2.956
  242DPPC   C4512095   4.651   5.106   3.034
  242DPPC   C4612096   4.580   4.983   3.089
  242DPPC   C4712097   4.519   4.904   2.972
  242DPPC   C4812098   4.463   4.765   3.004
  242DPPC   C4912099   4.372   4.728   2.886
  242DPPC   C5012100   4.261   4.832   2.870
  243DPPC    C112101   8.294   6.144   1.827
  243DPPC    C212102   8.449   6.065   1.999
  243DPPC    C312103   8.224   5.970   1.955
  243DPPC    N412104   8.347   6.028   1.899
  243DPPC    C512105   8.396   5.916   1.817
  243DPPC    C612106   8.509   5.947   1.718
  243DPPC    O712107   8.565   5.832   1.654
  243DPPC    P812108   8.703   5.878   1.586
  243DPPC    O912109   8.710   6.014   1.528
  243DPPC   O1012110   8.752   5.758   1.514
  243DPPC   O1112111   8.787   5.904   1.721
  243DPPC   C1212112   8.847   5.781   1.763
  243DPPC   C1312113   8.852   5.750   1.913
  243DPPC   O1412114   8.753   5.657   1.957
  243DPPC   C1512115   8.763   5.522   1.938
  243DPPC   O1612116   8.831   5.479   1.845
  243DPPC   C1712117   8.651   5.450   2.013
  243DPPC   C1812118   8.700   5.433   2.156
  243DPPC   C1912119   8.597   5.382   2.257
  243DPPC   C2012120   8.478   5.478   2.272
  243DPPC   C2112121   8.409   5.409   2.390
  243DPPC   C2212122   8.503   5.388   2.509
  243DPPC   C2312123   8.484   5.253   2.577
  243DPPC   C2412124   8.557   5.229   2.710
  243DPPC   C2512125   8.550   5.077   2.720
  243DPPC   C2612126   8.628   5.030   2.843
  243DPPC   C2712127   8.562   5.093   2.966
  243DPPC   C2812128   8.629   5.058   3.100
  243DPPC   C2912129   8.573   5.123   3.226
  243DPPC   C3012130   8.659   5.075   3.343
  243DPPC   C3112131   8.614   5.141   3.474
  243DPPC   C3212132   8.847   5.888   1.980
  243DPPC   O3312133   8.839   5.890   2.122
  243DPPC   C3412134   8.801   6.011   2.174
  243DPPC   O3512135   8.773   6.105   2.101
  243DPPC   C3612136   8.770   6.003   2.324
  243DPPC   C3712137   8.856   5.899   2.396
  243DPPC   C3812138   8.814   5.880   2.542
  243DPPC   C3912139   8.841   6.010   2.617
  243DPPC   C4012140   8.821   5.980   2.766
  243DPPC   C4112141   8.856   6.101   2.852
  243DPPC   C4212142   8.775   6.221   2.801
  243DPPC   C4312143   8.798   6.326   2.910
  243DPPC   C4412144   8.946   6.364   2.898
  243DPPC   C4512145   8.981   6.476   2.997
  243DPPC   C4612146   9.130   6.496   3.024
  243DPPC   C4712147   9.169   6.351   3.056
  243DPPC   C4812148   9.294   6.343   3.145
  243DPPC   C4912149   9.363   6.208   3.166
  243DPPC   C5012150   9.297   6.122   3.274
  244DPPC    C112151   6.736   2.991   1.855
  244DPPC    C212152   6.860   2.807   1.771
  244DPPC    C312153   6.913   3.026   1.692
  244DPPC    N412154   6.869   2.948   1.809
  244DPPC    C512155   6.964   2.978   1.917
  244DPPC    C612156   7.103   2.915   1.927
  244DPPC    O712157   7.100   2.792   2.000
  244DPPC    P812158   7.238   2.712   1.983
  244DPPC    O912159   7.342   2.796   1.919
  244DPPC   O1012160   7.186   2.594   1.910
  244DPPC   O1112161   7.261   2.674   2.138
  244DPPC   C1212162   7.163   2.579   2.180
  244DPPC   C1312163   7.174   2.549   2.329
  244DPPC   O1412164   7.116   2.657   2.403
  244DPPC   C1512165   6.997   2.628   2.462
  244DPPC   O1612166   6.925   2.541   2.414
  244DPPC   C1712167   6.938   2.733   2.557
  244DPPC   C1812168   6.912   2.688   2.700
  244DPPC   C1912169   7.046   2.668   2.770
  244DPPC   C2012170   7.031   2.627   2.916
  244DPPC   C2112171   7.164   2.619   2.992
  244DPPC   C2212172   7.136   2.580   3.137
  244DPPC   C2312173   7.268   2.548   3.208
  244DPPC   C2412174   7.255   2.561   3.359
  244DPPC   C2512175   7.182   2.691   3.394
  244DPPC   C2612176   7.161   2.712   3.545
  244DPPC   C2712177   7.291   2.714   3.626
  244DPPC   C2812178   7.267   2.723   3.777
  244DPPC   C2912179   7.396   2.715   3.859
  244DPPC   C3012180   7.368   2.704   4.009
  244DPPC   C3112181   7.292   2.824   4.066
  244DPPC   C3212182   7.321   2.523   2.362
  244DPPC   O3312183   7.357   2.471   2.490
  244DPPC   C3412184   7.406   2.567   2.572
  244DPPC   O3512185   7.415   2.686   2.539
  244DPPC   C3612186   7.449   2.513   2.709
  244DPPC   C3712187   7.594   2.467   2.693
  244DPPC   C3812188   7.648   2.384   2.810
  244DPPC   C3912189   7.659   2.448   2.949
  244DPPC   C4012190   7.766   2.375   3.030
  244DPPC   C4112191   7.812   2.454   3.152
  244DPPC   C4212192   7.762   2.394   3.283
  244DPPC   C4312193   7.826   2.473   3.398
  244DPPC   C4412194   7.764   2.426   3.530
  244DPPC   C4512195   7.612   2.446   3.526
  244DPPC   C4612196   7.531   2.400   3.648
  244DPPC   C4712197   7.561   2.259   3.698
  244DPPC   C4812198   7.495   2.230   3.833
  244DPPC   C4912199   7.561   2.320   3.938
  244DPPC   C5012200   7.471   2.294   4.060
  245DPPC    C112201   5.442   3.533   1.819
  245DPPC    C212202   5.507   3.425   2.019
  245DPPC    C312203   5.646   3.594   1.938
  245DPPC    N412204   5.504   3.555   1.951
  245DPPC    C512205   5.441   3.659   2.034
  245DPPC    C612206   5.393   3.788   1.968
  245DPPC    O712207   5.491   3.891   1.959
  245DPPC    P812208   5.403   4.022   1.922
  245DPPC    O912209   5.321   3.983   1.805
  245DPPC   O1012210   5.483   4.145   1.907
  245DPPC   O1112211   5.310   4.030   2.054
  245DPPC   C1212212   5.382   4.076   2.169
  245DPPC   C1312213   5.291   4.116   2.285
  245DPPC   O1412214   5.354   4.185   2.394
  245DPPC   C1512215   5.364   4.321   2.395
  245DPPC   O1612216   5.353   4.386   2.291
  245DPPC   C1712217   5.439   4.366   2.520
  245DPPC   C1812218   5.348   4.354   2.643
  245DPPC   C1912219   5.412   4.432   2.757
  245DPPC   C2012220   5.334   4.428   2.889
  245DPPC   C2112221   5.398   4.513   2.999
  245DPPC   C2212222   5.294   4.512   3.110
  245DPPC   C2312223   5.366   4.573   3.231
  245DPPC   C2412224   5.264   4.564   3.345
  245DPPC   C2512225   5.327   4.609   3.477
  245DPPC   C2612226   5.245   4.553   3.593
  245DPPC   C2712227   5.330   4.542   3.720
  245DPPC   C2812228   5.250   4.504   3.845
  245DPPC   C2912229   5.331   4.505   3.975
  245DPPC   C3012230   5.255   4.452   4.097
  245DPPC   C3112231   5.353   4.447   4.215
  245DPPC   C3212232   5.210   3.991   2.316
  245DPPC   O3312233   5.296   3.890   2.370
  245DPPC   C3412234   5.233   3.769   2.373
  245DPPC   O3512235   5.120   3.762   2.327
  245DPPC   C3612236   5.322   3.651   2.413
  245DPPC   C3712237   5.316   3.601   2.557
  245DPPC   C3812238   5.436   3.512   2.590
  245DPPC   C3912239   5.444   3.476   2.738
  245DPPC   C4012240   5.565   3.389   2.775
  245DPPC   C4112241   5.553   3.331   2.916
  245DPPC   C4212242   5.690   3.290   2.970
  245DPPC   C4312243   5.670   3.277   3.121
  245DPPC   C4412244   5.625   3.416   3.168
  245DPPC   C4512245   5.633   3.419   3.321
  245DPPC   C4612246   5.557   3.306   3.390
  245DPPC   C4712247   5.565   3.315   3.543
  245DPPC   C4812248   5.480   3.212   3.617
  245DPPC   C4912249   5.499   3.237   3.767
  245DPPC   C5012250   5.646   3.241   3.808
  246DPPC    C112251   9.296   7.897   1.664
  246DPPC    C212252   9.466   8.024   1.751
  246DPPC    C312253   9.297   7.936   1.896
  246DPPC    N412254   9.384   7.906   1.781
  246DPPC    C512255   9.474   7.790   1.778
  246DPPC    C612256   9.547   7.735   1.900
  246DPPC    O712257   9.645   7.834   1.933
  246DPPC    P812258   9.738   7.770   2.047
  246DPPC    O912259   9.855   7.860   2.062
  246DPPC   O1012260   9.747   7.623   2.041
  246DPPC   O1112261   9.625   7.808   2.155
  246DPPC   C1212262   9.635   7.945   2.194
  246DPPC   C1312263   9.504   8.023   2.205
  246DPPC   O1412264   9.534   8.160   2.237
  246DPPC   C1512265   9.578   8.252   2.148
  246DPPC   O1612266   9.565   8.219   2.030
  246DPPC   C1712267   9.654   8.376   2.197
  246DPPC   C1812268   9.602   8.453   2.318
  246DPPC   C1912269   9.688   8.575   2.354
  246DPPC   C2012270   9.837   8.548   2.373
  246DPPC   C2112271   9.892   8.506   2.510
  246DPPC   C2212272  10.045   8.503   2.511
  246DPPC   C2312273  10.106   8.492   2.651
  246DPPC   C2412274  10.037   8.373   2.718
  246DPPC   C2512275  10.046   8.376   2.871
  246DPPC   C2612276   9.960   8.267   2.935
  246DPPC   C2712277   9.979   8.262   3.087
  246DPPC   C2812278  10.114   8.210   3.135
  246DPPC   C2912279  10.121   8.071   3.071
  246DPPC   C3012280  10.243   8.000   3.130
  246DPPC   C3112281  10.243   7.865   3.058
  246DPPC   C3212282   9.394   7.974   2.299
  246DPPC   O3312283   9.316   7.868   2.244
  246DPPC   C3412284   9.232   7.816   2.338
  246DPPC   O3512285   9.248   7.843   2.457
  246DPPC   C3612286   9.149   7.703   2.277
  246DPPC   C3712287   9.001   7.703   2.317
  246DPPC   C3812288   8.980   7.630   2.450
  246DPPC   C3912289   8.835   7.632   2.500
  246DPPC   C4012290   8.824   7.567   2.638
  246DPPC   C4112291   8.874   7.668   2.742
  246DPPC   C4212292   8.842   7.619   2.884
  246DPPC   C4312293   8.926   7.694   2.987
  246DPPC   C4412294   8.884   7.651   3.128
  246DPPC   C4512295   9.005   7.623   3.217
  246DPPC   C4612296   9.079   7.754   3.244
  246DPPC   C4712297   9.197   7.746   3.342
  246DPPC   C4812298   9.277   7.875   3.354
  246DPPC   C4912299   9.327   7.926   3.219
  246DPPC   C5012300   9.421   8.047   3.219
  247DPPC    C112301   7.079   1.211   1.284
  247DPPC    C212302   7.321   1.229   1.301
  247DPPC    C312303   7.206   1.093   1.457
  247DPPC    N412304   7.205   1.141   1.318
  247DPPC    C512305   7.194   1.026   1.227
  247DPPC    C612306   7.310   0.927   1.218
  247DPPC    O712307   7.343   0.862   1.341
  247DPPC    P812308   7.503   0.873   1.351
  247DPPC    O912309   7.521   0.978   1.454
  247DPPC   O1012310   7.570   0.884   1.220
  247DPPC   O1112311   7.529   0.729   1.418
  247DPPC   C1212312   7.518   0.753   1.559
  247DPPC   C1312313   7.526   0.630   1.649
  247DPPC   O1412314   7.489   0.661   1.785
  247DPPC   C1512315   7.358   0.652   1.819
  247DPPC   O1612316   7.261   0.646   1.744
  247DPPC   C1712317   7.336   0.682   1.968
  247DPPC   C1812318   7.418   0.805   2.005
  247DPPC   C1912319   7.403   0.833   2.155
  247DPPC   C2012320   7.488   0.945   2.216
  247DPPC   C2112321   7.441   0.989   2.355
  247DPPC   C2212322   7.436   0.871   2.452
  247DPPC   C2312323   7.356   0.903   2.579
  247DPPC   C2412324   7.414   1.033   2.635
  247DPPC   C2512325   7.414   1.030   2.788
  247DPPC   C2612326   7.481   1.141   2.869
  247DPPC   C2712327   7.474   1.110   3.019
  247DPPC   C2812328   7.555   1.211   3.101
  247DPPC   C2912329   7.520   1.212   3.250
  247DPPC   C3012330   7.589   1.104   3.333
  247DPPC   C3112331   7.564   1.119   3.483
  247DPPC   C3212332   7.673   0.599   1.621
  247DPPC   O3312333   7.763   0.561   1.725
  247DPPC   C3412334   7.736   0.438   1.776
  247DPPC   O3512335   7.678   0.352   1.710
  247DPPC   C3612336   7.798   0.407   1.912
  247DPPC   C3712337   7.758   0.518   2.010
  247DPPC   C3812338   7.857   0.542   2.124
  247DPPC   C3912339   7.800   0.652   2.214
  247DPPC   C4012340   7.876   0.668   2.346
  247DPPC   C4112341   7.830   0.773   2.447
  247DPPC   C4212342   7.911   0.788   2.576
  247DPPC   C4312343   7.875   0.922   2.640
  247DPPC   C4412344   7.937   0.936   2.779
  247DPPC   C4512345   7.921   1.080   2.828
  247DPPC   C4612346   7.975   1.082   2.971
  247DPPC   C4712347   7.955   1.211   3.050
  247DPPC   C4812348   7.987   1.192   3.199
  247DPPC   C4912349   7.941   1.305   3.291
  247DPPC   C5012350   7.981   1.279   3.436
  248DPPC    C112351   6.352   1.213   1.979
  248DPPC    C212352   6.490   1.384   2.090
  248DPPC    C312353   6.263   1.395   2.095
  248DPPC    N412354   6.372   1.296   2.099
  248DPPC    C512355   6.380   1.224   2.227
  248DPPC    C612356   6.274   1.117   2.251
  248DPPC    O712357   6.142   1.161   2.281
  248DPPC    P812358   6.030   1.052   2.241
  248DPPC    O912359   6.050   1.010   2.101
  248DPPC   O1012360   5.903   1.117   2.279
  248DPPC   O1112361   6.064   0.934   2.346
  248DPPC   C1212362   6.040   0.981   2.479
  248DPPC   C1312363   6.091   0.882   2.583
  248DPPC   O1412364   6.013   0.876   2.703
  248DPPC   C1512365   5.888   0.823   2.702
  248DPPC   O1612366   5.834   0.784   2.599
  248DPPC   C1712367   5.819   0.807   2.838
  248DPPC   C1812368   5.740   0.937   2.861
  248DPPC   C1912369   5.658   0.933   2.990
  248DPPC   C2012370   5.741   0.910   3.115
  248DPPC   C2112371   5.668   0.923   3.249
  248DPPC   C2212372   5.757   0.968   3.365
  248DPPC   C2312373   5.701   0.914   3.496
  248DPPC   C2412374   5.784   0.938   3.622
  248DPPC   C2512375   5.706   0.882   3.741
  248DPPC   C2612376   5.792   0.907   3.865
  248DPPC   C2712377   5.707   0.892   3.992
  248DPPC   C2812378   5.592   0.992   3.978
  248DPPC   C2912379   5.503   1.007   4.101
  248DPPC   C3012380   5.445   1.145   4.136
  248DPPC   C3112381   5.356   1.202   4.026
  248DPPC   C3212382   6.242   0.886   2.608
  248DPPC   O3312383   6.282   1.022   2.629
  248DPPC   C3412384   6.409   1.054   2.667
  248DPPC   O3512385   6.512   0.990   2.650
  248DPPC   C3612386   6.406   1.202   2.706
  248DPPC   C3712387   6.527   1.240   2.792
  248DPPC   C3812388   6.539   1.163   2.924
  248DPPC   C3912389   6.576   1.256   3.039
  248DPPC   C4012390   6.575   1.154   3.152
  248DPPC   C4112391   6.638   1.230   3.270
  248DPPC   C4212392   6.605   1.148   3.394
  248DPPC   C4312393   6.665   1.200   3.525
  248DPPC   C4412394   6.708   1.092   3.624
  248DPPC   C4512395   6.811   1.149   3.722
  248DPPC   C4612396   6.853   1.067   3.844
  248DPPC   C4712397   6.974   1.133   3.910
  248DPPC   C4812398   7.057   1.054   4.012
  248DPPC   C4912399   7.135   0.932   3.962
  248DPPC   C5012400   7.198   0.846   4.072
  249DPPC    C112401   1.877   5.538   1.875
  249DPPC    C212402   2.049   5.653   1.752
  249DPPC    C312403   2.039   5.418   1.753
  249DPPC    N412404   1.956   5.539   1.751
  249DPPC    C512405   1.880   5.551   1.625
  249DPPC    C612406   1.821   5.685   1.584
  249DPPC    O712407   1.708   5.732   1.659
  249DPPC    P812408   1.693   5.890   1.630
  249DPPC    O912409   1.552   5.928   1.654
  249DPPC   O1012410   1.790   5.937   1.529
  249DPPC   O1112411   1.765   5.913   1.772
  249DPPC   C1212412   1.682   5.870   1.880
  249DPPC   C1312413   1.757   5.849   2.012
  249DPPC   O1412414   1.668   5.840   2.125
  249DPPC   C1512415   1.603   5.722   2.141
  249DPPC   O1612416   1.624   5.631   2.061
  249DPPC   C1712417   1.515   5.696   2.264
  249DPPC   C1812418   1.594   5.691   2.395
  249DPPC   C1912419   1.666   5.556   2.407
  249DPPC   C2012420   1.748   5.567   2.535
  249DPPC   C2112421   1.651   5.592   2.652
  249DPPC   C2212422   1.715   5.600   2.791
  249DPPC   C2312423   1.777   5.469   2.841
  249DPPC   C2412424   1.848   5.504   2.972
  249DPPC   C2512425   1.943   5.394   3.019
  249DPPC   C2612426   1.985   5.428   3.162
  249DPPC   C2712427   2.011   5.304   3.248
  249DPPC   C2812428   2.018   5.349   3.395
  249DPPC   C2912429   2.006   5.222   3.479
  249DPPC   C3012430   1.869   5.155   3.489
  249DPPC   C3112431   1.872   5.009   3.536
  249DPPC   C3212432   1.852   5.969   2.020
  249DPPC   O3312433   1.953   5.976   2.121
  249DPPC   C3412434   2.045   5.876   2.126
  249DPPC   O3512435   2.056   5.788   2.040
  249DPPC   C3612436   2.148   5.885   2.239
  249DPPC   C3712437   2.109   5.785   2.348
  249DPPC   C3812438   2.214   5.750   2.452
  249DPPC   C3912439   2.158   5.677   2.575
  249DPPC   C4012440   2.263   5.688   2.686
  249DPPC   C4112441   2.201   5.616   2.806
  249DPPC   C4212442   2.308   5.602   2.915
  249DPPC   C4312443   2.360   5.739   2.957
  249DPPC   C4412444   2.265   5.812   3.053
  249DPPC   C4512445   2.302   5.776   3.197
  249DPPC   C4612446   2.445   5.792   3.250
  249DPPC   C4712447   2.448   5.809   3.402
  249DPPC   C4812448   2.594   5.818   3.445
  249DPPC   C4912449   2.621   5.850   3.592
  249DPPC   C5012450   2.522   5.765   3.671
  250DPPC    C112451   8.739   8.062   1.371
  250DPPC    C212452   8.927   8.116   1.502
  250DPPC    C312453   8.969   8.087   1.274
  250DPPC    N412454   8.867   8.135   1.369
  250DPPC    C512455   8.858   8.276   1.329
  250DPPC    C612456   8.843   8.392   1.427
  250DPPC    O712457   8.962   8.413   1.504
  250DPPC    P812458   8.931   8.504   1.633
  250DPPC    O912459   8.867   8.625   1.577
  250DPPC   O1012460   9.068   8.510   1.690
  250DPPC   O1112461   8.829   8.388   1.678
  250DPPC   C1212462   8.765   8.422   1.801
  250DPPC   C1312463   8.706   8.308   1.884
  250DPPC   O1412464   8.620   8.351   1.990
  250DPPC   C1512465   8.490   8.310   1.989
  250DPPC   O1612466   8.444   8.240   1.899
  250DPPC   C1712467   8.398   8.364   2.098
  250DPPC   C1812468   8.394   8.276   2.223
  250DPPC   C1912469   8.343   8.365   2.337
  250DPPC   C2012470   8.333   8.285   2.467
  250DPPC   C2112471   8.221   8.183   2.455
  250DPPC   C2212472   8.194   8.135   2.598
  250DPPC   C2312473   8.087   8.027   2.582
  250DPPC   C2412474   8.063   7.944   2.707
  250DPPC   C2512475   7.936   7.858   2.700
  250DPPC   C2612476   7.901   7.797   2.835
  250DPPC   C2712477   7.766   7.724   2.830
  250DPPC   C2812478   7.763   7.653   2.966
  250DPPC   C2912479   7.801   7.745   3.082
  250DPPC   C3012480   7.814   7.653   3.204
  250DPPC   C3112481   7.855   7.751   3.314
  250DPPC   C3212482   8.823   8.213   1.914
  250DPPC   O3312483   8.925   8.285   1.983
  250DPPC   C3412484   9.030   8.207   2.022
  250DPPC   O3512485   9.035   8.088   1.991
  250DPPC   C3612486   9.139   8.264   2.113
  250DPPC   C3712487   9.081   8.282   2.254
  250DPPC   C3812488   9.173   8.371   2.337
  250DPPC   C3912489   9.113   8.388   2.477
  250DPPC   C4012490   9.216   8.456   2.566
  250DPPC   C4112491   9.172   8.458   2.713
  250DPPC   C4212492   9.275   8.526   2.803
  250DPPC   C4312493   9.405   8.446   2.805
  250DPPC   C4412494   9.403   8.305   2.866
  250DPPC   C4512495   9.546   8.250   2.865
  250DPPC   C4612496   9.569   8.184   2.730
  250DPPC   C4712497   9.708   8.121   2.728
  250DPPC   C4812498   9.739   8.059   2.591
  250DPPC   C4912499   9.885   8.013   2.582
  250DPPC   C5012500   9.922   7.916   2.694
  251DPPC    C112501   6.564   5.633   1.746
  251DPPC    C212502   6.783   5.620   1.659
  251DPPC    C312503   6.630   5.775   1.568
  251DPPC    N412504   6.675   5.714   1.693
  251DPPC    C512505   6.718   5.815   1.791
  251DPPC    C612506   6.634   5.938   1.826
  251DPPC    O712507   6.518   5.911   1.906
  251DPPC    P812508   6.439   6.028   1.984
  251DPPC    O912509   6.334   5.946   2.048
  251DPPC   O1012510   6.403   6.137   1.891
  251DPPC   O1112511   6.543   6.087   2.092
  251DPPC   C1212512   6.590   5.968   2.155
  251DPPC   C1312513   6.682   5.998   2.274
  251DPPC   O1412514   6.742   5.877   2.321
  251DPPC   C1512515   6.877   5.866   2.316
  251DPPC   O1612516   6.946   5.915   2.226
  251DPPC   C1712517   6.932   5.762   2.414
  251DPPC   C1812518   6.978   5.833   2.541
  251DPPC   C1912519   7.033   5.733   2.643
  251DPPC   C2012520   7.155   5.659   2.587
  251DPPC   C2112521   7.268   5.757   2.559
  251DPPC   C2212522   7.388   5.681   2.501
  251DPPC   C2312523   7.519   5.755   2.474
  251DPPC   C2412524   7.620   5.655   2.417
  251DPPC   C2512525   7.757   5.723   2.418
  251DPPC   C2612526   7.836   5.654   2.529
  251DPPC   C2712527   7.962   5.741   2.539
  251DPPC   C2812528   8.052   5.747   2.416
  251DPPC   C2912529   8.182   5.818   2.453
  251DPPC   C3012530   8.282   5.827   2.338
  251DPPC   C3112531   8.419   5.864   2.395
  251DPPC   C3212532   6.604   6.089   2.369
  251DPPC   O3312533   6.690   6.179   2.439
  251DPPC   C3412534   6.616   6.264   2.516
  251DPPC   O3512535   6.494   6.267   2.503
  251DPPC   C3612536   6.681   6.360   2.615
  251DPPC   C3712537   6.585   6.367   2.734
  251DPPC   C3812538   6.659   6.441   2.847
  251DPPC   C3912539   6.605   6.406   2.986
  251DPPC   C4012540   6.646   6.502   3.098
  251DPPC   C4112541   6.607   6.435   3.230
  251DPPC   C4212542   6.649   6.528   3.345
  251DPPC   C4312543   6.635   6.469   3.485
  251DPPC   C4412544   6.496   6.410   3.508
  251DPPC   C4512545   6.475   6.360   3.652
  251DPPC   C4612546   6.492   6.490   3.731
  251DPPC   C4712547   6.494   6.463   3.882
  251DPPC   C4812548   6.355   6.449   3.943
  251DPPC   C4912549   6.282   6.584   3.940
  251DPPC   C5012550   6.138   6.580   3.991
  252DPPC    C112551   4.473   2.536   1.986
  252DPPC    C212552   4.670   2.561   2.133
  252DPPC    C312553   4.478   2.675   2.170
  252DPPC    N412554   4.524   2.544   2.123
  252DPPC    C512555   4.474   2.420   2.185
  252DPPC    C612556   4.328   2.381   2.209
  252DPPC    O712557   4.256   2.482   2.279
  252DPPC    P812558   4.122   2.415   2.339
  252DPPC    O912559   4.164   2.299   2.421
  252DPPC   O1012560   4.032   2.397   2.223
  252DPPC   O1112561   4.084   2.541   2.430
  252DPPC   C1212562   4.184   2.559   2.531
  252DPPC   C1312563   4.245   2.699   2.533
  252DPPC   O1412564   4.355   2.718   2.624
  252DPPC   C1512565   4.466   2.793   2.603
  252DPPC   O1612566   4.484   2.861   2.502
  252DPPC   C1712567   4.557   2.797   2.726
  252DPPC   C1812568   4.646   2.673   2.733
  252DPPC   C1912569   4.701   2.662   2.875
  252DPPC   C2012570   4.807   2.553   2.895
  252DPPC   C2112571   4.830   2.516   3.042
  252DPPC   C2212572   4.872   2.371   3.065
  252DPPC   C2312573   4.872   2.343   3.216
  252DPPC   C2412574   4.917   2.199   3.237
  252DPPC   C2512575   4.964   2.162   3.378
  252DPPC   C2612576   5.018   2.020   3.391
  252DPPC   C2712577   4.903   1.928   3.352
  252DPPC   C2812578   4.948   1.790   3.302
  252DPPC   C2912579   5.063   1.801   3.202
  252DPPC   C3012580   5.151   1.676   3.188
  252DPPC   C3112581   5.281   1.708   3.114
  252DPPC   C3212582   4.131   2.799   2.556
  252DPPC   O3312583   4.049   2.779   2.671
  252DPPC   C3412584   3.941   2.861   2.667
  252DPPC   O3512585   3.918   2.924   2.564
  252DPPC   C3612586   3.857   2.871   2.795
  252DPPC   C3712587   3.744   2.769   2.778
  252DPPC   C3812588   3.643   2.764   2.893
  252DPPC   C3912589   3.722   2.722   3.017
  252DPPC   C4012590   3.637   2.716   3.144
  252DPPC   C4112591   3.714   2.650   3.258
  252DPPC   C4212592   3.761   2.506   3.234
  252DPPC   C4312593   3.845   2.455   3.352
  252DPPC   C4412594   3.895   2.315   3.315
  252DPPC   C4512595   4.040   2.302   3.362
  252DPPC   C4612596   4.105   2.165   3.344
  252DPPC   C4712597   4.110   2.130   3.195
  252DPPC   C4812598   4.192   2.001   3.192
  252DPPC   C4912599   4.116   1.904   3.284
  252DPPC   C5012600   4.168   1.760   3.278
  253DPPC    C112601   3.820   7.474   2.032
  253DPPC    C212602   3.791   7.706   1.980
  253DPPC    C312603   3.613   7.544   1.933
  253DPPC    N412604   3.722   7.583   2.023
  253DPPC    C512605   3.663   7.597   2.157
  253DPPC    C612606   3.743   7.612   2.287
  253DPPC    O712607   3.800   7.738   2.325
  253DPPC    P812608   3.957   7.726   2.358
  253DPPC    O912609   4.028   7.855   2.348
  253DPPC   O1012610   4.009   7.622   2.266
  253DPPC   O1112611   3.950   7.679   2.512
  253DPPC   C1212612   3.876   7.774   2.589
  253DPPC   C1312613   3.799   7.705   2.702
  253DPPC   O1412614   3.703   7.782   2.776
  253DPPC   C1512615   3.572   7.783   2.737
  253DPPC   O1612616   3.536   7.723   2.636
  253DPPC   C1712617   3.474   7.858   2.827
  253DPPC   C1812618   3.330   7.818   2.796
  253DPPC   C1912619   3.243   7.902   2.891
  253DPPC   C2012620   3.099   7.854   2.909
  253DPPC   C2112621   3.056   7.916   3.041
  253DPPC   C2212622   2.917   7.861   3.076
  253DPPC   C2312623   2.868   7.943   3.195
  253DPPC   C2412624   2.717   7.945   3.218
  253DPPC   C2512625   2.674   8.000   3.354
  253DPPC   C2612626   2.529   7.965   3.391
  253DPPC   C2712627   2.432   8.035   3.295
  253DPPC   C2812628   2.379   8.174   3.331
  253DPPC   C2912629   2.308   8.236   3.210
  253DPPC   C3012630   2.263   8.372   3.264
  253DPPC   C3112631   2.182   8.466   3.176
  253DPPC   C3212632   3.906   7.643   2.791
  253DPPC   O3312633   4.009   7.718   2.856
  253DPPC   C3412634   4.108   7.652   2.921
  253DPPC   O3512635   4.104   7.529   2.930
  253DPPC   C3612636   4.228   7.732   2.973
  253DPPC   C3712637   4.217   7.794   3.113
  253DPPC   C3812638   4.346   7.872   3.133
  253DPPC   C3912639   4.358   8.009   3.065
  253DPPC   C4012640   4.486   8.081   3.110
  253DPPC   C4112641   4.612   7.995   3.098
  253DPPC   C4212642   4.719   8.051   3.192
  253DPPC   C4312643   4.822   7.939   3.203
  253DPPC   C4412644   4.935   7.990   3.294
  253DPPC   C4512645   5.062   7.910   3.265
  253DPPC   C4612646   5.176   7.956   3.355
  253DPPC   C4712647   5.295   7.865   3.324
  253DPPC   C4812648   5.404   7.893   3.427
  253DPPC   C4912649   5.521   7.795   3.447
  253DPPC   C5012650   5.610   7.822   3.568
  254DPPC    C112651   3.123   1.394   2.677
  254DPPC    C212652   3.030   1.614   2.658
  254DPPC    C312653   3.145   1.511   2.481
  254DPPC    N412654   3.048   1.486   2.588
  254DPPC    C512655   2.925   1.424   2.536
  254DPPC    C612656   2.848   1.480   2.416
  254DPPC    O712657   2.713   1.514   2.447
  254DPPC    P812658   2.663   1.584   2.311
  254DPPC    O912659   2.720   1.505   2.200
  254DPPC   O1012660   2.689   1.727   2.341
  254DPPC   O1112661   2.515   1.550   2.363
  254DPPC   C1212662   2.470   1.644   2.462
  254DPPC   C1312663   2.324   1.642   2.507
  254DPPC   O1412664   2.280   1.726   2.614
  254DPPC   C1512665   2.300   1.860   2.605
  254DPPC   O1612666   2.349   1.925   2.513
  254DPPC   C1712667   2.240   1.937   2.723
  254DPPC   C1812668   2.346   2.001   2.813
  254DPPC   C1912669   2.282   2.044   2.945
  254DPPC   C2012670   2.397   2.077   3.039
  254DPPC   C2112671   2.342   2.157   3.157
  254DPPC   C2212672   2.421   2.123   3.283
  254DPPC   C2312673   2.430   1.979   3.333
  254DPPC   C2412674   2.320   1.939   3.432
  254DPPC   C2512675   2.345   1.797   3.484
  254DPPC   C2612676   2.237   1.769   3.588
  254DPPC   C2712677   2.244   1.638   3.666
  254DPPC   C2812678   2.381   1.648   3.735
  254DPPC   C2912679   2.414   1.524   3.819
  254DPPC   C3012680   2.300   1.487   3.915
  254DPPC   C3112681   2.356   1.378   4.006
  254DPPC   C3212682   2.308   1.491   2.531
  254DPPC   O3312683   2.378   1.440   2.645
  254DPPC   C3412684   2.404   1.307   2.637
  254DPPC   O3512685   2.366   1.240   2.541
  254DPPC   C3612686   2.489   1.252   2.752
  254DPPC   C3712687   2.408   1.155   2.838
  254DPPC   C3812688   2.502   1.096   2.943
  254DPPC   C3912689   2.435   0.994   3.034
  254DPPC   C4012690   2.538   0.943   3.135
  254DPPC   C4112691   2.485   0.829   3.222
  254DPPC   C4212692   2.610   0.759   3.274
  254DPPC   C4312693   2.694   0.825   3.383
  254DPPC   C4412694   2.797   0.721   3.427
  254DPPC   C4512695   2.871   0.754   3.557
  254DPPC   C4612696   2.784   0.763   3.683
  254DPPC   C4712697   2.877   0.753   3.805
  254DPPC   C4812698   2.806   0.740   3.940
  254DPPC   C4912699   2.908   0.729   4.053
  254DPPC   C5012700   2.860   0.790   4.185
  255DPPC    C112701   1.551   7.628   1.996
  255DPPC    C212702   1.559   7.399   1.921
  255DPPC    C312703   1.395   7.536   1.840
  255DPPC    N412704   1.536   7.538   1.881
  255DPPC    C512705   1.618   7.588   1.770
  255DPPC    C612706   1.770   7.602   1.773
  255DPPC    O712707   1.860   7.491   1.770
  255DPPC    P812708   2.015   7.529   1.750
  255DPPC    O912709   2.019   7.650   1.666
  255DPPC   O1012710   2.084   7.402   1.717
  255DPPC   O1112711   2.024   7.556   1.909
  255DPPC   C1212712   2.008   7.429   1.974
  255DPPC   C1312713   2.027   7.431   2.125
  255DPPC   O1412714   2.035   7.301   2.184
  255DPPC   C1512715   2.160   7.248   2.198
  255DPPC   O1612716   2.260   7.292   2.143
  255DPPC   C1712717   2.169   7.115   2.274
  255DPPC   C1812718   2.054   7.074   2.365
  255DPPC   C1912719   2.094   6.960   2.459
  255DPPC   C2012720   1.971   6.896   2.524
  255DPPC   C2112721   1.900   6.802   2.426
  255DPPC   C2212722   1.771   6.745   2.484
  255DPPC   C2312723   1.792   6.643   2.597
  255DPPC   C2412724   1.662   6.619   2.675
  255DPPC   C2512725   1.693   6.495   2.759
  255DPPC   C2612726   1.584   6.467   2.862
  255DPPC   C2712727   1.593   6.319   2.901
  255DPPC   C2812728   1.475   6.279   2.990
  255DPPC   C2912729   1.481   6.362   3.118
  255DPPC   C3012730   1.406   6.270   3.214
  255DPPC   C3112731   1.471   6.136   3.248
  255DPPC   C3212732   1.921   7.531   2.173
  255DPPC   O3312733   1.929   7.597   2.300
  255DPPC   C3412734   1.807   7.646   2.335
  255DPPC   O3512735   1.712   7.629   2.259
  255DPPC   C3612736   1.774   7.697   2.475
  255DPPC   C3712737   1.846   7.829   2.500
  255DPPC   C3812738   1.802   7.887   2.634
  255DPPC   C3912739   1.872   8.020   2.663
  255DPPC   C4012740   1.836   8.054   2.808
  255DPPC   C4112741   1.893   8.194   2.831
  255DPPC   C4212742   1.870   8.246   2.973
  255DPPC   C4312743   1.961   8.164   3.065
  255DPPC   C4412744   1.886   8.098   3.181
  255DPPC   C4512745   1.995   8.017   3.252
  255DPPC   C4612746   1.945   7.955   3.382
  255DPPC   C4712747   2.046   7.862   3.449
  255DPPC   C4812748   2.012   7.715   3.424
  255DPPC   C4912749   2.121   7.630   3.489
  255DPPC   C5012750   2.116   7.659   3.639
  256DPPC    C112751   2.747   6.670   2.028
  256DPPC    C212752   2.709   6.444   2.078
  256DPPC    C312753   2.598   6.558   1.890
  256DPPC    N412754   2.722   6.539   1.967
  256DPPC    C512755   2.833   6.512   1.875
  256DPPC    C612756   2.874   6.365   1.865
  256DPPC    O712757   2.774   6.293   1.792
  256DPPC    P812758   2.820   6.140   1.777
  256DPPC    O912759   2.967   6.147   1.762
  256DPPC   O1012760   2.722   6.097   1.675
  256DPPC   O1112761   2.767   6.104   1.925
  256DPPC   C1212762   2.627   6.097   1.899
  256DPPC   C1312763   2.549   6.044   2.020
  256DPPC   O1412764   2.503   6.147   2.109
  256DPPC   C1512765   2.378   6.198   2.097
  256DPPC   O1612766   2.311   6.191   1.994
  256DPPC   C1712767   2.345   6.302   2.204
  256DPPC   C1812768   2.270   6.229   2.316
  256DPPC   C1912769   2.224   6.344   2.406
  256DPPC   C2012770   2.140   6.278   2.516
  256DPPC   C2112771   2.117   6.383   2.624
  256DPPC   C2212772   2.235   6.443   2.701
  256DPPC   C2312773   2.184   6.527   2.818
  256DPPC   C2412774   2.145   6.664   2.761
  256DPPC   C2512775   2.099   6.742   2.885
  256DPPC   C2612776   1.991   6.674   2.969
  256DPPC   C2712777   1.961   6.732   3.107
  256DPPC   C2812778   1.833   6.674   3.166
  256DPPC   C2912779   1.860   6.529   3.208
  256DPPC   C3012780   1.761   6.488   3.317
  256DPPC   C3112781   1.816   6.359   3.379
  256DPPC   C3212782   2.633   5.928   2.073
  256DPPC   O3312783   2.576   5.844   2.173
  256DPPC   C3412784   2.650   5.739   2.219
  256DPPC   O3512785   2.769   5.727   2.192
  256DPPC   C3612786   2.561   5.635   2.288
  256DPPC   C3712787   2.632   5.572   2.409
  256DPPC   C3812788   2.538   5.509   2.511
  256DPPC   C3912789   2.491   5.373   2.458
  256DPPC   C4012790   2.384   5.319   2.553
  256DPPC   C4112791   2.452   5.301   2.689
  256DPPC   C4212792   2.338   5.270   2.787
  256DPPC   C4312793   2.269   5.141   2.743
  256DPPC   C4412794   2.165   5.086   2.840
  256DPPC   C4512795   2.115   4.948   2.794
  256DPPC   C4612796   2.001   4.908   2.887
  256DPPC   C4712797   2.049   4.898   3.032
  256DPPC   C4812798   1.927   4.894   3.125
  256DPPC   C4912799   1.916   4.748   3.170
  256DPPC   C5012800   1.792   4.740   3.259
  257SOL     OW12801   9.589   0.674   6.149
  257SOL    HW112802   9.520   0.631   6.090
  257SOL    HW212803   9.550   0.690   6.239
  258SOL     OW12804   7.562   3.014   6.994
  258SOL    HW112805   7.506   2.946   6.947
  258SOL    HW212806   7.659   2.989   6.985
  259SOL     OW12807   3.773   2.382   0.968
  259SOL    HW112808   3.743   2.446   1.039
  259SOL    HW212809   3.871   2.368   0.976
  260SOL     OW12810   2.918   0.358   6.689
  260SOL    HW112811   2.995   0.422   6.678
  260SOL    HW212812   2.840   0.407   6.728
  261SOL     OW12813   1.010   5.497   4.734
  261SOL    HW112814   0.944   5.428   4.706
  261SOL    HW212815   1.102   5.457   4.738
  262SOL     OW12816   0.726   3.949   6.872
  262SOL    HW112817   0.729   3.850   6.883
  262SOL    HW212818   0.783   3.976   6.793
  263SOL     OW12819   4.092   1.902   1.160
  263SOL    HW112820   4.117   1.894   1.064
  263SOL    HW212821   4.121   1.992   1.194
  264SOL     OW12822   4.311   5.130   2.271
  264SOL    HW112823   4.348   5.091   2.356
  264SOL    HW212824   4.212   5.119   2.269
  265SOL     OW12825   4.147   7.382   2.221
  265SOL    HW112826   4.106   7.474   2.218
  265SOL    HW212827   4.075   7.314   2.234
  266SOL     OW12828   8.385   3.099   5.786
  266SOL    HW112829   8.386   3.160   5.707
  266SOL    HW212830   8.303   3.043   5.784
  267SOL     OW12831   3.520   1.466   0.715
  267SOL    HW112832   3.504   1.545   0.655
  267SOL    HW212833   3.471   1.478   0.801
  268SOL     OW12834   4.544   2.606   1.609
  268SOL    HW112835   4.498   2.679   1.660
  268SOL    HW212836   4.629   2.582   1.656
  269SOL     OW12837   9.271   1.054   6.586
  269SOL    HW112838   9.257   1.153   6.575
  269SOL    HW212839   9.368   1.036   6.599
  270SOL     OW12840   7.586   7.602   5.213
  270SOL    HW112841   7.644   7.655   5.275
  270SOL    HW212842   7.592   7.641   5.121
  271SOL     OW12843   2.522   6.580   7.130
  271SOL    HW112844   2.584   6.625   7.065
  271SOL    HW212845   2.468   6.649   7.178
  272SOL     OW12846   9.000   6.706   0.460
  272SOL    HW112847   9.049   6.790   0.437
  272SOL    HW212848   8.987   6.651   0.378
  273SOL     OW12849   9.373   0.662   6.707
  273SOL    HW112850   9.307   0.706   6.646
  273SOL    HW212851   9.331   0.650   6.797
  274SOL     OW12852   1.348   4.366   6.811
  274SOL    HW112853   1.415   4.291   6.804
  274SOL    HW212854   1.333   4.388   6.907
  275SOL     OW12855   5.900   3.019   1.605
  275SOL    HW112856   5.903   3.118   1.623
  275SOL    HW212857   5.960   2.998   1.528
  276SOL     OW12858   9.446   7.088   7.057
  276SOL    HW112859   9.454   7.152   7.134
  276SOL    HW212860   9.379   7.124   6.991
  277SOL     OW12861   9.293   3.349   0.885
  277SOL    HW112862   9.287   3.444   0.917
  277SOL    HW212863   9.332   3.293   0.958
  278SOL     OW12864   6.305   4.458   0.669
  278SOL    HW112865   6.344   4.513   0.595
  278SOL    HW212866   6.357   4.473   0.753
  279SOL     OW12867   6.054   0.482   2.017
  279SOL    HW112868   6.066   0.581   2.018
  279SOL    HW212869   6.040   0.449   2.110
  280SOL     OW12870   3.885   2.772   5.644
  280SOL    HW112871   3.921   2.821   5.723
  280SOL    HW212872   3.946   2.784   5.566
  281SOL     OW12873   3.095   6.532   5.224
  281SOL    HW112874   3.174   6.590   5.246
  281SOL    HW212875   3.012   6.588   5.223
  282SOL     OW12876   8.251   8.025   6.144
  282SOL    HW112877   8.301   8.085   6.208
  282SOL    HW212878   8.206   8.081   6.074
  283SOL     OW12879   2.496   1.408   7.132
  283SOL    HW112880   2.537   1.441   7.218
  283SOL    HW212881   2.475   1.486   7.073
  284SOL     OW12882   4.141   0.977   1.389
  284SOL    HW112883   4.095   0.924   1.318
  284SOL    HW212884   4.178   1.061   1.349
  285SOL     OW12885   6.971   7.096   1.860
  285SOL    HW112886   7.046   7.031   1.851
  285SOL    HW212887   6.938   7.096   1.954
  286SOL     OW12888   8.903   6.443   1.019
  286SOL    HW112889   8.832   6.489   1.072
  286SOL    HW212890   8.925   6.355   1.062
  287SOL     OW12891   0.820   2.499   1.172
  287SOL    HW112892   0.847   2.567   1.104
  287SOL    HW212893   0.842   2.532   1.264
  288SOL     OW12894   3.054   1.211   1.673
  288SOL    HW112895   2.982   1.167   1.620
  288SOL    HW212896   3.142   1.195   1.629
  289SOL     OW12897   7.729   2.394   6.933
  289SOL    HW112898   7.783   2.347   7.003
  289SOL    HW212899   7.690   2.477   6.971
  290SOL     OW12900   6.674   6.842   5.890
  290SOL    HW112901   6.734   6.835   5.971
  290SOL    HW212902   6.730   6.834   5.807
  291SOL     OW12903   1.153   0.848   6.550
  291SOL    HW112904   1.111   0.893   6.628
  291SOL    HW212905   1.229   0.905   6.516
  292SOL     OW12906   4.603   4.249   2.296
  292SOL    HW112907   4.591   4.304   2.213
  292SOL    HW212908   4.700   4.245   2.319
  293SOL     OW12909   8.718   6.009   6.663
  293SOL    HW112910   8.761   6.033   6.576
  293SOL    HW212911   8.626   5.974   6.645
  294SOL     OW12912   6.910   1.032   7.105
  294SOL    HW112913   6.931   0.985   7.020
  294SOL    HW212914   6.985   1.020   7.170
  295SOL     OW12915   4.327   0.333   6.053
  295SOL    HW112916   4.421   0.310   6.077
  295SOL    HW212917   4.319   0.431   6.036
  296SOL     OW12918   6.121   4.514   0.885
  296SOL    HW112919   6.157   4.488   0.795
  296SOL    HW212920   6.055   4.445   0.916
  297SOL     OW12921   1.013   8.245   7.119
  297SOL    HW112922   0.977   8.155   7.142
  297SOL    HW212923   0.986   8.311   7.189
  298SOL     OW12924   3.514   5.988   6.446
  298SOL    HW112925   3.415   5.992   6.449
  298SOL    HW212926   3.551   6.008   6.537
  299SOL     OW12927   3.222   0.357   5.460
  299SOL    HW112928   3.130   0.368   5.423
  299SOL    HW212929   3.218   0.307   5.546
  300SOL     OW12930   4.294   6.936   6.000
  300SOL    HW112931   4.262   6.848   6.034
  300SOL    HW212932   4.230   6.971   5.932
  301SOL     OW12933   2.588   3.521   1.326
  301SOL    HW112934   2.681   3.504   1.356
  301SOL    HW212935   2.559   3.612   1.357
  302SOL     OW12936   4.733   1.387   1.781
  302SOL    HW112937   4.783   1.303   1.761
  302SOL    HW212938   4.720   1.395   1.879
  303SOL     OW12939   6.979   4.697   6.425
  303SOL    HW112940   6.978   4.668   6.330
  303SOL    HW212941   6.924   4.780   6.435
  304SOL     OW12942   8.048   4.539   5.652
  304SOL    HW112943   7.949   4.528   5.661
  304SOL    HW212944   8.086   4.461   5.601
  305SOL     OW12945   3.072   6.196   6.623
  305SOL    HW112946   3.106   6.276   6.672
  305SOL    HW212947   3.011   6.224   6.549
  306SOL     OW12948   1.748   4.204   1.019
  306SOL    HW112949   1.669   4.215   0.959
  306SOL    HW212950   1.718   4.168   1.108
  307SOL     OW12951   4.417   0.051   6.939
  307SOL    HW112952   4.472   0.134   6.928
  307SOL    HW212953   4.353   0.043   6.863
  308SOL     OW12954   6.886   2.724   2.138
  308SOL    HW112955   6.861   2.799   2.198
  308SOL    HW212956   6.966   2.750   2.083
  309SOL     OW12957   7.632   7.564   1.431
  309SOL    HW112958   7.707   7.563   1.365
  309SOL    HW212959   7.545   7.547   1.383
  310SOL     OW12960   7.991   8.056   0.915
  310SOL    HW112961   8.080   8.101   0.910
  310SOL    HW212962   7.978   8.000   0.833
  311SOL     OW12963   3.188   8.403   2.363
  311SOL    HW112964   3.227   8.490   2.391
  311SOL    HW212965   3.090   8.402   2.381
  312SOL     OW12966   0.381   3.647   1.455
  312SOL    HW112967   0.409   3.689   1.542
  312SOL    HW212968   0.458   3.647   1.391
  313SOL     OW12969   7.148   3.155   0.752
  313SOL    HW112970   7.155   3.072   0.807
  313SOL    HW212971   7.103   3.227   0.805
  314SOL     OW12972   1.885   0.510   1.331
  314SOL    HW112973   1.936   0.587   1.292
  314SOL    HW212974   1.880   0.435   1.265
  315SOL     OW12975   0.245   3.053   0.722
  315SOL    HW112976   0.260   2.954   0.728
  315SOL    HW212977   0.147   3.073   0.722
  316SOL     OW12978   4.037   6.083   6.356
  316SOL    HW112979   4.000   6.006   6.409
  316SOL    HW212980   3.961   6.136   6.318
  317SOL     OW12981   2.464   6.007   6.589
  317SOL    HW112982   2.448   5.983   6.685
  317SOL    HW212983   2.377   6.033   6.547
  318SOL     OW12984   7.838   5.994   6.658
  318SOL    HW112985   7.768   5.996   6.729
  318SOL    HW212986   7.904   5.922   6.679
  319SOL     OW12987   7.286   1.471   1.634
  319SOL    HW112988   7.292   1.373   1.617
  319SOL    HW212989   7.330   1.493   1.721
  320SOL     OW12990   6.536   3.357   1.638
  320SOL    HW112991   6.615   3.311   1.677
  320SOL    HW212992   6.480   3.291   1.588
  321SOL     OW12993   7.408   2.910   6.520
  321SOL    HW112994   7.436   2.826   6.566
  321SOL    HW212995   7.470   2.984   6.546
  322SOL     OW12996   3.476   0.959   1.369
  322SOL    HW112997   3.382   0.970   1.336
  322SOL    HW212998   3.530   1.039   1.344
  323SOL     OW12999   4.229   8.321   6.550
  323SOL    HW113000   4.291   8.245   6.531
  323SOL    HW213001   4.139   8.302   6.511
  324SOL     OW13002   3.039   6.203   7.056
  324SOL    HW113003   2.984   6.184   6.975
  324SOL    HW213004   3.131   6.228   7.028
  325SOL     OW13005   2.630   3.206   5.943
  325SOL    HW113006   2.689   3.136   5.984
  325SOL    HW213007   2.635   3.201   5.844
  326SOL     OW13008   6.117   6.440   5.690
  326SOL    HW113009   6.202   6.441   5.637
  326SOL    HW213010   6.042   6.475   5.633
  327SOL     OW13011   5.435   2.507   1.779
  327SOL    HW113012   5.476   2.417   1.765
  327SOL    HW213013   5.358   2.518   1.716
  328SOL     OW13014   9.120   3.903   1.354
  328SOL    HW113015   9.215   3.875   1.340
  328SOL    HW213016   9.117   3.994   1.396
  329SOL     OW13017   0.381   3.145   5.881
  329SOL    HW113018   0.436   3.145   5.797
  329SOL    HW213019   0.298   3.200   5.866
  330SOL     OW13020   7.151   4.407   6.732
  330SOL    HW113021   7.065   4.359   6.746
  330SOL    HW213022   7.219   4.344   6.694
  331SOL     OW13023   1.072   7.974   1.847
  331SOL    HW113024   1.115   8.063   1.860
  331SOL    HW213025   0.978   7.977   1.881
  332SOL     OW13026   0.634   1.236   5.088
  332SOL    HW113027   0.575   1.317   5.083
  332SOL    HW213028   0.579   1.155   5.107
  333SOL     OW13029   4.661   5.820   7.059
  333SOL    HW113030   4.748   5.869   7.052
  333SOL    HW213031   4.678   5.728   7.094
  334SOL     OW13032   0.286   4.107   6.953
  334SOL    HW113033   0.258   4.014   6.977
  334SOL    HW213034   0.212   4.153   6.904
  335SOL     OW13035   7.614   6.261   7.127
  335SOL    HW113036   7.570   6.351   7.126
  335SOL    HW213037   7.693   6.262   7.065
  336SOL     OW13038   3.475   6.284   6.815
  336SOL    HW113039   3.531   6.226   6.755
  336SOL    HW213040   3.421   6.347   6.759
  337SOL     OW13041   6.531   3.675   7.009
  337SOL    HW113042   6.467   3.751   7.000
  337SOL    HW213043   6.624   3.707   6.989
  338SOL     OW13044   7.927   7.401   5.325
  338SOL    HW113045   7.966   7.414   5.416
  338SOL    HW213046   7.827   7.408   5.330
  339SOL     OW13047   4.029   5.910   1.171
  339SOL    HW113048   3.962   5.951   1.109
  339SOL    HW213049   4.115   5.895   1.123
  340SOL     OW13050   6.528   1.810   6.146
  340SOL    HW113051   6.533   1.895   6.093
  340SOL    HW213052   6.455   1.753   6.108
  341SOL     OW13053   5.723   3.625   1.020
  341SOL    HW113054   5.687   3.589   1.106
  341SOL    HW213055   5.681   3.714   1.001
  342SOL     OW13056   5.223   0.353   6.696
  342SOL    HW113057   5.316   0.377   6.669
  342SOL    HW213058   5.198   0.404   6.779
  343SOL     OW13059   7.529   3.522   1.205
  343SOL    HW113060   7.523   3.620   1.218
  343SOL    HW213061   7.563   3.478   1.288
  344SOL     OW13062   0.389   3.205   6.612
  344SOL    HW113063   0.332   3.123   6.604
  344SOL    HW213064   0.338   3.283   6.576
  345SOL     OW13065   2.509  -0.049   6.302
  345SOL    HW113066   2.444   0.027   6.292
  345SOL    HW213067   2.494  -0.115   6.229
  346SOL     OW13068   7.337   5.890   5.909
  346SOL    HW113069   7.343   5.812   5.847
  346SOL    HW213070   7.256   5.945   5.886
  347SOL     OW13071   7.610   3.730   6.761
  347SOL    HW113072   7.683   3.708   6.826
  347SOL    HW213073   7.627   3.684   6.674
  348SOL     OW13074   1.195   7.146   6.003
  348SOL    HW113075   1.216   7.085   6.079
  348SOL    HW213076   1.158   7.232   6.039
  349SOL     OW13077   4.853   0.495   0.799
  349SOL    HW113078   4.788   0.516   0.872
  349SOL    HW213079   4.831   0.407   0.758
  350SOL     OW13080   0.475   0.254   6.039
  350SOL    HW113081   0.573   0.235   6.045
  350SOL    HW213082   0.456   0.346   6.074
  351SOL     OW13083   3.926   4.257   1.010
  351SOL    HW113084   3.949   4.320   0.936
  351SOL    HW213085   4.009   4.237   1.063
  352SOL     OW13086   2.649   2.191   0.816
  352SOL    HW113087   2.719   2.151   0.875
  352SOL    HW213088   2.572   2.223   0.872
  353SOL     OW13089   8.102   1.072   6.333
  353SOL    HW113090   8.128   1.116   6.247
  353SOL    HW213091   8.093   0.973   6.318
  354SOL     OW13092   0.832   4.861   0.607
  354SOL    HW113093   0.769   4.919   0.554
  354SOL    HW213094   0.893   4.813   0.544
  355SOL     OW13095   7.050   5.446   6.183
  355SOL    HW113096   7.039   5.543   6.163
  355SOL    HW213097   7.121   5.408   6.124
  356SOL     OW13098   5.752   1.473   0.783
  356SOL    HW113099   5.777   1.401   0.848
  356SOL    HW213100   5.804   1.461   0.698
  357SOL     OW13101   5.133   7.403   6.694
  357SOL    HW113102   5.125   7.422   6.596
  357SOL    HW213103   5.124   7.305   6.710
  358SOL     OW13104   0.448   3.334   1.363
  358SOL    HW113105   0.532   3.386   1.346
  358SOL    HW213106   0.467   3.262   1.429
  359SOL     OW13107   6.525   4.903   1.278
  359SOL    HW113108   6.545   4.992   1.237
  359SOL    HW213109   6.600   4.839   1.259
  360SOL     OW13110   3.835   0.040   0.705
  360SOL    HW113111   3.816  -0.054   0.731
  360SOL    HW213112   3.933   0.051   0.687
  361SOL     OW13113   2.433   5.606   6.893
  361SOL    HW113114   2.528   5.612   6.924
  361SOL    HW213115   2.372   5.613   6.972
  362SOL     OW13116   8.473   3.915   5.674
  362SOL    HW113117   8.399   3.853   5.649
  362SOL    HW213118   8.495   3.974   5.596
  363SOL     OW13119   3.528   2.322   5.602
  363SOL    HW113120   3.465   2.399   5.616
  363SOL    HW213121   3.543   2.309   5.504
  364SOL     OW13122   8.456   1.808   0.832
  364SOL    HW113123   8.554   1.803   0.814
  364SOL    HW213124   8.414   1.873   0.770
  365SOL     OW13125   3.998   5.174   2.135
  365SOL    HW113126   3.934   5.249   2.151
  365SOL    HW213127   3.957   5.109   2.071
  366SOL     OW13128   6.173   0.950   1.747
  366SOL    HW113129   6.127   1.020   1.802
  366SOL    HW213130   6.108   0.912   1.681
  367SOL     OW13131   6.541   7.793   1.580
  367SOL    HW113132   6.606   7.800   1.657
  367SOL    HW213133   6.590   7.765   1.498
  368SOL     OW13134   5.890   0.434   5.653
  368SOL    HW113135   5.843   0.521   5.663
  368SOL    HW213136   5.939   0.413   5.738
  369SOL     OW13137   8.380   0.031   6.606
  369SOL    HW113138   8.359  -0.063   6.579
  369SOL    HW213139   8.303   0.069   6.657
  370SOL     OW13140   0.354   8.287   1.874
  370SOL    HW113141   0.426   8.314   1.938
  370SOL    HW213142   0.270   8.266   1.925
  371SOL     OW13143   6.637   1.063   1.011
  371SOL    HW113144   6.595   0.973   1.019
  371SOL    HW213145   6.567   1.133   1.011
  372SOL     OW13146   6.586   7.512   0.826
  372SOL    HW113147   6.626   7.597   0.860
  372SOL    HW213148   6.489   7.526   0.807
  373SOL     OW13149   6.540   2.701   1.417
  373SOL    HW113150   6.640   2.700   1.409
  373SOL    HW213151   6.513   2.770   1.484
  374SOL     OW13152   5.100   3.998   1.602
  374SOL    HW113153   5.053   4.086   1.590
  374SOL    HW213154   5.186   4.013   1.650
  375SOL     OW13155   6.485   3.368   0.909
  375SOL    HW113156   6.421   3.318   0.967
  375SOL    HW213157   6.567   3.391   0.962
  376SOL     OW13158   0.658   5.094   5.815
  376SOL    HW113159   0.663   5.032   5.737
  376SOL    HW213160   0.597   5.170   5.794
  377SOL     OW13161   3.608  -0.015   1.474
  377SOL    HW113162   3.706  -0.015   1.453
  377SOL    HW213163   3.557   0.015   1.394
  378SOL     OW13164   4.583   1.985   1.523
  378SOL    HW113165   4.656   1.989   1.455
  378SOL    HW213166   4.502   1.943   1.483
  379SOL     OW13167   8.360   4.966   6.646
  379SOL    HW113168   8.360   5.017   6.732
  379SOL    HW213169   8.391   5.025   6.571
  380SOL     OW13170   8.534   2.861   6.621
  380SOL    HW113171   8.579   2.866   6.711
  380SOL    HW213172   8.516   2.766   6.598
  381SOL     OW13173   6.860   5.855   5.787
  381SOL    HW113174   6.872   5.806   5.701
  381SOL    HW213175   6.910   5.808   5.860
  382SOL     OW13176   3.156   3.150   6.873
  382SOL    HW113177   3.150   3.154   6.774
  382SOL    HW213178   3.224   3.082   6.900
  383SOL     OW13179   1.632   5.700   5.837
  383SOL    HW113180   1.708   5.636   5.823
  383SOL    HW213181   1.548   5.660   5.802
  384SOL     OW13182   5.697   3.998   6.038
  384SOL    HW113183   5.659   3.955   6.120
  384SOL    HW213184   5.680   3.939   5.959
  385SOL     OW13185   6.464   2.424   1.020
  385SOL    HW113186   6.420   2.346   0.975
  385SOL    HW213187   6.486   2.493   0.951
  386SOL     OW13188   3.500   1.724   6.671
  386SOL    HW113189   3.490   1.699   6.768
  386SOL    HW213190   3.416   1.698   6.622
  387SOL     OW13191   0.341   4.640   1.690
  387SOL    HW113192   0.398   4.683   1.619
  387SOL    HW213193   0.284   4.710   1.733
  388SOL     OW13194   8.627   6.893   0.863
  388SOL    HW113195   8.653   6.810   0.813
  388SOL    HW213196   8.622   6.970   0.799
  389SOL     OW13197   1.580   7.201   0.641
  389SOL    HW113198   1.605   7.260   0.564
  389SOL    HW213199   1.649   7.210   0.713
  390SOL     OW13200   9.583   0.073   1.518
  390SOL    HW113201   9.484   0.066   1.534
  390SOL    HW213202   9.609   0.011   1.444
  391SOL     OW13203   8.642   2.034   0.932
  391SOL    HW113204   8.689   1.950   0.906
  391SOL    HW213205   8.703   2.112   0.914
  392SOL     OW13206   6.903   7.901   1.162
  392SOL    HW113207   6.965   7.826   1.139
  392SOL    HW213208   6.918   7.929   1.257
  393SOL     OW13209   1.257   0.003   5.516
  393SOL    HW113210   1.192   0.078   5.531
  393SOL    HW213211   1.220  -0.081   5.556
  394SOL     OW13212   3.146   0.968   6.940
  394SOL    HW113213   3.156   0.897   7.009
  394SOL    HW213214   3.072   1.030   6.965
  395SOL     OW13215   2.055   0.643   5.404
  395SOL    HW113216   2.111   0.606   5.330
  395SOL    HW213217   2.050   0.576   5.478
  396SOL     OW13218   0.539   6.909   1.445
  396SOL    HW113219   0.466   6.842   1.428
  396SOL    HW213220   0.570   6.900   1.540
  397SOL     OW13221   1.928   7.879   4.522
  397SOL    HW113222   1.841   7.917   4.551
  397SOL    HW213223   1.974   7.943   4.461
  398SOL     OW13224   7.670   6.464   6.823
  398SOL    HW113225   7.632   6.485   6.913
  398SOL    HW213226   7.738   6.533   6.799
  399SOL     OW13227   6.588   3.113   1.124
  399SOL    HW113228   6.574   3.035   1.062
  399SOL    HW213229   6.647   3.084   1.200
  400SOL     OW13230   0.711   3.360   5.543
  400SOL    HW113231   0.616   3.381   5.563
  400SOL    HW213232   0.743   3.417   5.467
  401SOL     OW13233   1.276   2.767   1.459
  401SOL    HW113234   1.188   2.743   1.500
  401SOL    HW213235   1.285   2.866   1.456
  402SOL     OW13236   5.636  -0.048   1.560
  402SOL    HW113237   5.681  -0.091   1.481
  402SOL    HW213238   5.702   0.008   1.609
  403SOL     OW13239   3.208   6.361   6.066
  403SOL    HW113240   3.222   6.284   6.004
  403SOL    HW213241   3.119   6.403   6.049
  404SOL     OW13242   0.348   0.469   6.175
  404SOL    HW113243   0.271   0.526   6.145
  404SOL    HW213244   0.330   0.435   6.267
  405SOL     OW13245   7.721   6.469   6.271
  405SOL    HW113246   7.719   6.568   6.282
  405SOL    HW213247   7.691   6.445   6.179
  406SOL     OW13248   1.352   5.074   6.105
  406SOL    HW113249   1.318   5.087   6.012
  406SOL    HW213250   1.282   5.100   6.170
  407SOL     OW13251   7.174   2.976   1.471
  407SOL    HW113252   7.216   2.952   1.559
  407SOL    HW213253   7.157   3.074   1.469
  408SOL     OW13254   2.169   6.473   5.818
  408SOL    HW113255   2.187   6.482   5.720
  408SOL    HW213256   2.089   6.526   5.843
  409SOL     OW13257   1.149   3.985   6.560
  409SOL    HW113258   1.209   3.907   6.542
  409SOL    HW213259   1.176   4.028   6.646
  410SOL     OW13260   0.503   1.750   1.090
  410SOL    HW113261   0.595   1.750   1.129
  410SOL    HW213262   0.449   1.823   1.133
  411SOL     OW13263   4.186   6.470   1.398
  411SOL    HW113264   4.275   6.478   1.443
  411SOL    HW213265   4.119   6.433   1.462
  412SOL     OW13266   0.452   7.252   6.676
  412SOL    HW113267   0.436   7.349   6.693
  412SOL    HW213268   0.485   7.239   6.582
  413SOL     OW13269   9.368   2.695   6.382
  413SOL    HW113270   9.332   2.721   6.472
  413SOL    HW213271   9.309   2.624   6.343
  414SOL     OW13272   4.484   6.444   0.522
  414SOL    HW113273   4.568   6.409   0.563
  414SOL    HW213274   4.506   6.525   0.467
  415SOL     OW13275   3.934   1.837   0.823
  415SOL    HW113276   3.909   1.796   0.736
  415SOL    HW213277   3.862   1.900   0.852
  416SOL     OW13278   4.850   7.143   6.953
  416SOL    HW113279   4.762   7.131   6.999
  416SOL    HW213280   4.911   7.067   6.978
  417SOL     OW13281   7.468   5.232   5.635
  417SOL    HW113282   7.425   5.300   5.576
  417SOL    HW213283   7.537   5.181   5.583
  418SOL     OW13284   4.275   6.381   0.786
  418SOL    HW113285   4.206   6.361   0.716
  418SOL    HW213286   4.290   6.300   0.843
  419SOL     OW13287   9.576   5.362   0.695
  419SOL    HW113288   9.520   5.293   0.649
  419SOL    HW213289   9.559   5.358   0.794
  420SOL     OW13290   6.814   3.183   5.975
  420SOL    HW113291   6.871   3.265   5.975
  420SOL    HW213292   6.723   3.207   5.941
  421SOL     OW13293   3.646   4.911   5.911
  421SOL    HW113294   3.655   4.932   6.008
  421SOL    HW213295   3.616   4.817   5.899
  422SOL     OW13296   3.652   3.602   1.055
  422SOL    HW113297   3.647   3.651   1.142
  422SOL    HW213298   3.658   3.667   0.980
  423SOL     OW13299   9.219   2.868   6.163
  423SOL    HW113300   9.193   2.957   6.198
  423SOL    HW213301   9.283   2.825   6.227
  424SOL     OW13302   2.033   1.432   6.921
  424SOL    HW113303   1.944   1.477   6.934
  424SOL    HW213304   2.099   1.473   6.984
  425SOL     OW13305   6.619   2.958   0.903
  425SOL    HW113306   6.553   2.963   0.828
  425SOL    HW213307   6.709   2.990   0.871
  426SOL     OW13308   2.422   5.699   1.560
  426SOL    HW113309   2.419   5.757   1.641
  426SOL    HW213310   2.516   5.694   1.526
  427SOL     OW13311   9.263   2.834   6.631
  427SOL    HW113312   9.205   2.902   6.586
  427SOL    HW213313   9.224   2.810   6.720
  428SOL     OW13314   6.370   7.610   0.499
  428SOL    HW113315   6.373   7.557   0.583
  428SOL    HW213316   6.342   7.551   0.423
  429SOL     OW13317   5.279   5.286   0.718
  429SOL    HW113318   5.204   5.231   0.756
  429SOL    HW213319   5.271   5.288   0.618
  430SOL     OW13320   9.280   5.340   6.513
  430SOL    HW113321   9.324   5.257   6.481
  430SOL    HW213322   9.250   5.328   6.608
  431SOL     OW13323   9.135   3.068   6.643
  431SOL    HW113324   9.170   3.153   6.604
  431SOL    HW213325   9.045   3.085   6.685
  432SOL     OW13326   1.137   0.362   6.786
  432SOL    HW113327   1.171   0.337   6.877
  432SOL    HW213328   1.132   0.462   6.780
  433SOL     OW13329   4.413   0.523   5.732
  433SOL    HW113330   4.363   0.442   5.700
  433SOL    HW213331   4.461   0.565   5.655
  434SOL     OW13332   2.150   8.342   1.384
  434SOL    HW113333   2.104   8.277   1.324
  434SOL    HW213334   2.246   8.316   1.395
  435SOL     OW13335   9.423   4.818   0.976
  435SOL    HW113336   9.473   4.759   1.040
  435SOL    HW213337   9.405   4.767   0.892
  436SOL     OW13338   6.394   6.638   0.552
  436SOL    HW113339   6.449   6.554   0.554
  436SOL    HW213340   6.452   6.715   0.528
  437SOL     OW13341   7.460   7.364   6.486
  437SOL    HW113342   7.395   7.289   6.500
  437SOL    HW213343   7.528   7.363   6.559
  438SOL     OW13344   3.138   7.599   6.583
  438SOL    HW113345   3.061   7.632   6.638
  438SOL    HW213346   3.146   7.654   6.500
  439SOL     OW13347   0.968   6.530   5.230
  439SOL    HW113348   1.059   6.490   5.229
  439SOL    HW213349   0.942   6.551   5.325
  440SOL     OW13350   0.355   6.890   0.877
  440SOL    HW113351   0.415   6.938   0.814
  440SOL    HW213352   0.397   6.803   0.903
  441SOL     OW13353   0.263   7.587   7.107
  441SOL    HW113354   0.299   7.580   7.200
  441SOL    HW213355   0.212   7.504   7.085
  442SOL     OW13356   5.004   7.906   5.875
  442SOL    HW113357   5.024   7.832   5.939
  442SOL    HW213358   5.030   7.878   5.783
  443SOL     OW13359   1.978   4.482   5.052
  443SOL    HW113360   1.958   4.385   5.062
  443SOL    HW213361   1.894   4.532   5.034
  444SOL     OW13362   0.664   4.675   5.807
  444SOL    HW113363   0.735   4.625   5.758
  444SOL    HW213364   0.707   4.733   5.877
  445SOL     OW13365   2.146   4.422   1.269
  445SOL    HW113366   2.205   4.397   1.346
  445SOL    HW213367   2.056   4.447   1.303
  446SOL     OW13368   5.979   7.795   2.486
  446SOL    HW113369   6.050   7.820   2.552
  446SOL    HW213370   5.999   7.705   2.448
  447SOL     OW13371   2.605   1.172   6.192
  447SOL    HW113372   2.565   1.252   6.147
  447SOL    HW213373   2.655   1.203   6.274
  448SOL     OW13374   5.850   1.924   1.973
  448SOL    HW113375   5.846   1.845   2.033
  448SOL    HW213376   5.945   1.940   1.945
  449SOL     OW13377   1.255   5.478   4.981
  449SOL    HW113378   1.180   5.415   5.001
  449SOL    HW213379   1.285   5.466   4.887
  450SOL     OW13380   8.124   6.141   5.978
  450SOL    HW113381   8.027   6.162   5.988
  450SOL    HW213382   8.179   6.211   6.023
  451SOL     OW13383   0.950   6.784   6.079
  451SOL    HW113384   1.018   6.794   6.006
  451SOL    HW213385   0.859   6.775   6.037
  452SOL     OW13386   0.157   7.485   6.857
  452SOL    HW113387   0.121   7.578   6.860
  452SOL    HW213388   0.091   7.424   6.813
  453SOL     OW13389   1.448   7.073   1.193
  453SOL    HW113390   1.380   7.139   1.224
  453SOL    HW213391   1.443   6.990   1.250
  454SOL     OW13392   5.642   1.901   0.452
  454SOL    HW113393   5.620   1.830   0.519
  454SOL    HW213394   5.599   1.880   0.365
  455SOL     OW13395   5.005   5.586   5.383
  455SOL    HW113396   4.965   5.648   5.315
  455SOL    HW213397   5.088   5.546   5.346
  456SOL     OW13398   9.106   4.648   5.473
  456SOL    HW113399   9.043   4.709   5.521
  456SOL    HW213400   9.080   4.553   5.489
  457SOL     OW13401   5.947   5.439   0.721
  457SOL    HW113402   5.862   5.468   0.766
  457SOL    HW213403   6.025   5.488   0.762
  458SOL     OW13404   1.725   1.173   1.323
  458SOL    HW113405   1.746   1.220   1.409
  458SOL    HW213406   1.630   1.144   1.322
  459SOL     OW13407   1.851   1.438   2.024
  459SOL    HW113408   1.946   1.417   2.049
  459SOL    HW213409   1.788   1.388   2.083
  460SOL     OW13410   8.557   2.563   6.890
  460SOL    HW113411   8.596   2.536   6.978
  460SOL    HW213412   8.495   2.491   6.857
  461SOL     OW13413   8.466   7.214   1.036
  461SOL    HW113414   8.485   7.137   1.097
  461SOL    HW213415   8.548   7.271   1.028
  462SOL     OW13416   1.299   4.242   1.577
  462SOL    HW113417   1.380   4.250   1.636
  462SOL    HW213418   1.222   4.290   1.620
  463SOL     OW13419   4.542   3.578   1.672
  463SOL    HW113420   4.531   3.544   1.766
  463SOL    HW213421   4.472   3.537   1.613
  464SOL     OW13422   3.691   1.971   0.483
  464SOL    HW113423   3.763   1.980   0.413
  464SOL    HW213424   3.603   1.959   0.438
  465SOL     OW13425   1.059   6.577   5.555
  465SOL    HW113426   1.008   6.622   5.628
  465SOL    HW213427   1.114   6.503   5.594
  466SOL     OW13428   6.058   3.581   1.045
  466SOL    HW113429   5.970   3.596   1.001
  466SOL    HW213430   6.059   3.627   1.134
  467SOL     OW13431   2.910   4.169   6.492
  467SOL    HW113432   2.950   4.259   6.474
  467SOL    HW213433   2.839   4.149   6.424
  468SOL     OW13434   8.800   2.586   1.214
  468SOL    HW113435   8.872   2.563   1.279
  468SOL    HW213436   8.771   2.681   1.227
  469SOL     OW13437   8.633   0.505   6.068
  469SOL    HW113438   8.656   0.603   6.068
  469SOL    HW213439   8.692   0.457   6.133
  470SOL     OW13440   3.000   6.954   1.193
  470SOL    HW113441   3.058   6.919   1.267
  470SOL    HW213442   2.904   6.950   1.222
  471SOL     OW13443   4.545   3.978   0.473
  471SOL    HW113444   4.598   3.915   0.416
  471SOL    HW213445   4.516   4.056   0.417
  472SOL     OW13446   3.332   7.944   0.540
  472SOL    HW113447   3.419   7.963   0.587
  472SOL    HW213448   3.324   8.006   0.462
  473SOL     OW13449   1.044   0.968   6.800
  473SOL    HW113450   1.069   0.959   6.896
  473SOL    HW213451   0.995   1.054   6.786
  474SOL     OW13452   1.628   1.716   0.659
  474SOL    HW113453   1.614   1.737   0.756
  474SOL    HW213454   1.725   1.706   0.641
  475SOL     OW13455   0.593   2.337   1.728
  475SOL    HW113456   0.570   2.414   1.668
  475SOL    HW213457   0.662   2.367   1.794
  476SOL     OW13458   5.678   7.584   1.328
  476SOL    HW113459   5.743   7.652   1.294
  476SOL    HW213460   5.637   7.617   1.413
  477SOL     OW13461   3.653   5.445   6.025
  477SOL    HW113462   3.648   5.452   6.124
  477SOL    HW213463   3.564   5.415   5.990
  478SOL     OW13464   4.182   3.308   6.815
  478SOL    HW113465   4.093   3.269   6.840
  478SOL    HW213466   4.244   3.234   6.789
  479SOL     OW13467   2.555   0.013   5.808
  479SOL    HW113468   2.652   0.024   5.828
  479SOL    HW213469   2.520   0.095   5.763
  480SOL     OW13470   5.652   3.203   0.925
  480SOL    HW113471   5.705   3.177   1.006
  480SOL    HW213472   5.627   3.120   0.874
  481SOL     OW13473   7.256   1.878   6.462
  481SOL    HW113474   7.289   1.868   6.368
  481SOL    HW213475   7.300   1.809   6.519
  482SOL     OW13476   2.702   1.456   6.470
  482SOL    HW113477   2.757   1.373   6.470
  482SOL    HW213478   2.642   1.456   6.389
  483SOL     OW13479   7.867   4.198   0.977
  483SOL    HW113480   7.887   4.279   1.032
  483SOL    HW213481   7.953   4.158   0.944
  484SOL     OW13482   0.189   3.198   6.094
  484SOL    HW113483   0.233   3.190   6.183
  484SOL    HW213484   0.259   3.207   6.023
  485SOL     OW13485   2.930   7.918   1.922
  485SOL    HW113486   2.970   8.000   1.963
  485SOL    HW213487   3.001   7.849   1.909
  486SOL     OW13488   1.039   5.382   1.785
  486SOL    HW113489   0.992   5.469   1.802
  486SOL    HW213490   1.131   5.386   1.822
  487SOL     OW13491   1.587   4.184   6.994
  487SOL    HW113492   1.620   4.091   7.006
  487SOL    HW213493   1.543   4.216   7.078
  488SOL     OW13494   3.662   6.091   6.651
  488SOL    HW113495   3.743   6.112   6.705
  488SOL    HW213496   3.667   6.139   6.563
  489SOL     OW13497   1.129   7.711   6.353
  489SOL    HW113498   1.173   7.795   6.323
  489SOL    HW213499   1.128   7.707   6.453
  490SOL     OW13500   7.319   7.103   1.529
  490SOL    HW113501   7.316   7.098   1.629
  490SOL    HW213502   7.336   7.198   1.501
  491SOL     OW13503   3.476   2.726   6.802
  491SOL    HW113504   3.565   2.726   6.756
  491SOL    HW213505   3.486   2.689   6.895
  492SOL     OW13506   2.792   6.997   1.947
  492SOL    HW113507   2.836   7.073   1.994
  492SOL    HW213508   2.695   6.994   1.971
  493SOL     OW13509   8.190   7.650   6.795
  493SOL    HW113510   8.177   7.601   6.709
  493SOL    HW213511   8.121   7.722   6.804
  494SOL     OW13512   6.942   3.511   6.771
  494SOL    HW113513   6.909   3.604   6.755
  494SOL    HW213514   6.863   3.452   6.790
  495SOL     OW13515   8.306   6.767   6.378
  495SOL    HW113516   8.345   6.794   6.290
  495SOL    HW213517   8.354   6.815   6.452
  496SOL     OW13518   0.784   6.001   1.358
  496SOL    HW113519   0.833   6.002   1.271
  496SOL    HW213520   0.700   6.054   1.349
  497SOL     OW13521   5.451   1.215   1.344
  497SOL    HW113522   5.531   1.160   1.318
  497SOL    HW213523   5.371   1.156   1.349
  498SOL     OW13524   8.523   7.986   5.847
  498SOL    HW113525   8.510   8.081   5.876
  498SOL    HW213526   8.497   7.977   5.750
  499SOL     OW13527   5.445   0.204   1.049
  499SOL    HW113528   5.482   0.285   1.095
  499SOL    HW213529   5.413   0.138   1.118
  500SOL     OW13530   9.197   7.655   6.625
  500SOL    HW113531   9.228   7.740   6.582
  500SOL    HW213532   9.100   7.662   6.645
  501SOL     OW13533   5.441   0.993   2.040
  501SOL    HW113534   5.481   0.910   2.000
  501SOL    HW213535   5.507   1.035   2.102
  502SOL     OW13536   0.759   2.944   5.747
  502SOL    HW113537   0.675   2.896   5.721
  502SOL    HW213538   0.801   2.983   5.665
  503SOL     OW13539   1.792   1.958   5.460
  503SOL    HW113540   1.767   1.906   5.378
  503SOL    HW213541   1.814   2.052   5.434
  504SOL     OW13542   6.175   0.901   6.024
  504SOL    HW113543   6.249   0.950   5.978
  504SOL    HW213544   6.109   0.870   5.957
  505SOL     OW13545   3.507   4.499   6.535
  505SOL    HW113546   3.602   4.527   6.523
  505SOL    HW213547   3.463   4.494   6.445
  506SOL     OW13548   6.191   2.400   6.673
  506SOL    HW113549   6.265   2.454   6.713
  506SOL    HW213550   6.103   2.435   6.705
  507SOL     OW13551   0.247   7.289   0.691
  507SOL    HW113552   0.243   7.379   0.735
  507SOL    HW213553   0.313   7.292   0.615
  508SOL     OW13554   3.400   6.526   1.197
  508SOL    HW113555   3.394   6.621   1.227
  508SOL    HW213556   3.435   6.469   1.271
  509SOL     OW13557   5.531   0.604   6.815
  509SOL    HW113558   5.489   0.689   6.783
  509SOL    HW213559   5.513   0.531   6.749
  510SOL     OW13560   7.799   1.997   0.763
  510SOL    HW113561   7.720   2.059   0.753
  510SOL    HW213562   7.772   1.917   0.818
  511SOL     OW13563   0.805   4.870   5.953
  511SOL    HW113564   0.896   4.830   5.957
  511SOL    HW213565   0.808   4.954   5.897
  512SOL     OW13566   9.458   7.547   5.836
  512SOL    HW113567   9.551   7.512   5.822
  512SOL    HW213568   9.446   7.569   5.933
  513SOL     OW13569   8.669   3.560   1.021
  513SOL    HW113570   8.588   3.510   0.991
  513SOL    HW213571   8.737   3.559   0.947
  514SOL     OW13572   8.684   6.818   6.186
  514SOL    HW113573   8.605   6.788   6.134
  514SOL    HW213574   8.767   6.808   6.130
  515SOL     OW13575   5.668   5.055   1.346
  515SOL    HW113576   5.764   5.072   1.367
  515SOL    HW213577   5.617   5.141   1.354
  516SOL     OW13578   0.221   5.812   1.172
  516SOL    HW113579   0.320   5.802   1.185
  516SOL    HW213580   0.197   5.909   1.173
  517SOL     OW13581   6.809   7.100   5.783
  517SOL    HW113582   6.866   7.055   5.852
  517SOL    HW213583   6.712   7.080   5.802
  518SOL     OW13584   8.805   5.520   5.873
  518SOL    HW113585   8.844   5.538   5.783
  518SOL    HW213586   8.875   5.536   5.943
  519SOL     OW13587   3.010   1.975   2.823
  519SOL    HW113588   3.044   1.903   2.884
  519SOL    HW213589   3.049   2.063   2.851
  520SOL     OW13590   5.699   5.121   5.609
  520SOL    HW113591   5.676   5.029   5.578
  520SOL    HW213592   5.659   5.137   5.699
  521SOL     OW13593   4.051   8.077   6.702
  521SOL    HW113594   4.042   8.035   6.612
  521SOL    HW213595   4.017   8.014   6.772
  522SOL     OW13596   6.550   6.700   1.013
  522SOL    HW113597   6.513   6.611   1.039
  522SOL    HW213598   6.599   6.692   0.927
  523SOL     OW13599   5.985   6.080   1.741
  523SOL    HW113600   6.030   6.166   1.719
  523SOL    HW213601   5.992   6.063   1.840
  524SOL     OW13602   3.313   6.001   5.688
  524SOL    HW113603   3.334   5.903   5.678
  524SOL    HW213604   3.387   6.055   5.649
  525SOL     OW13605   8.262   1.997   6.282
  525SOL    HW113606   8.229   2.054   6.206
  525SOL    HW213607   8.217   1.908   6.279
  526SOL     OW13608   5.040   5.278   6.418
  526SOL    HW113609   5.080   5.289   6.328
  526SOL    HW213610   5.027   5.181   6.437
  527SOL     OW13611   0.808   8.377   6.199
  527SOL    HW113612   0.719   8.345   6.167
  527SOL    HW213613   0.810   8.378   6.299
  528SOL     OW13614   0.529   8.179   6.646
  528SOL    HW113615   0.609   8.160   6.589
  528SOL    HW213616   0.525   8.111   6.720
  529SOL     OW13617   0.267   1.112   6.015
  529SOL    HW113618   0.225   1.085   6.101
  529SOL    HW213619   0.343   1.051   5.993
  530SOL     OW13620   8.009   5.866   0.993
  530SOL    HW113621   7.954   5.949   0.997
  530SOL    HW213622   8.077   5.868   1.067
  531SOL     OW13623   4.115   2.888   1.131
  531SOL    HW113624   4.134   2.947   1.052
  531SOL    HW213625   4.016   2.873   1.138
  532SOL     OW13626   8.476   6.263   6.043
  532SOL    HW113627   8.495   6.197   6.116
  532SOL    HW213628   8.562   6.297   6.005
  533SOL     OW13629   5.055   7.244   1.134
  533SOL    HW113630   5.106   7.325   1.164
  533SOL    HW213631   4.993   7.215   1.206
  534SOL     OW13632   8.616   2.136   6.545
  534SOL    HW113633   8.570   2.156   6.459
  534SOL    HW213634   8.635   2.038   6.551
  535SOL     OW13635   3.686   0.752   1.127
  535SOL    HW113636   3.613   0.701   1.174
  535SOL    HW213637   3.650   0.792   1.043
  536SOL     OW13638   7.194   5.048   5.953
  536SOL    HW113639   7.239   5.020   5.869
  536SOL    HW213640   7.140   4.972   5.989
  537SOL     OW13641   2.234   7.268   0.820
  537SOL    HW113642   2.286   7.227   0.745
  537SOL    HW213643   2.172   7.199   0.859
  538SOL     OW13644   5.294   6.940   2.156
  538SOL    HW113645   5.351   7.022   2.151
  538SOL    HW213646   5.246   6.938   2.244
  539SOL     OW13647   5.224   8.349   5.883
  539SOL    HW113648   5.211   8.405   5.801
  539SOL    HW213649   5.154   8.373   5.951
  540SOL     OW13650   8.032   0.282   6.680
  540SOL    HW113651   8.118   0.333   6.687
  540SOL    HW213652   7.999   0.286   6.586
  541SOL     OW13653   9.221   3.704   0.580
  541SOL    HW113654   9.225   3.643   0.501
  541SOL    HW213655   9.313   3.739   0.600
  542SOL     OW13656   7.468   6.211   5.837
  542SOL    HW113657   7.374   6.246   5.836
  542SOL    HW213658   7.502   6.204   5.744
  543SOL     OW13659   8.876   6.056   6.464
  543SOL    HW113660   8.912   6.144   6.494
  543SOL    HW213661   8.937   6.017   6.394
  544SOL     OW13662   2.414   7.662   1.866
  544SOL    HW113663   2.407   7.566   1.893
  544SOL    HW213664   2.408   7.720   1.947
  545SOL     OW13665   4.549   7.571   7.142
  545SOL    HW113666   4.453   7.573   7.167
  545SOL    HW213667   4.558   7.569   7.042
  546SOL     OW13668   8.621   5.361   1.119
  546SOL    HW113669   8.655   5.268   1.104
  546SOL    HW213670   8.696   5.426   1.104
  547SOL     OW13671   6.274   0.656   6.127
  547SOL    HW113672   6.267   0.756   6.121
  547SOL    HW213673   6.330   0.622   6.052
  548SOL     OW13674   9.032   6.258   5.371
  548SOL    HW113675   9.018   6.227   5.276
  548SOL    HW213676   8.996   6.189   5.434
  549SOL     OW13677   0.655   7.412   5.900
  549SOL    HW113678   0.649   7.327   5.953
  549SOL    HW213679   0.564   7.437   5.867
  550SOL     OW13680   5.877   2.670   6.596
  550SOL    HW113681   5.867   2.618   6.682
  550SOL    HW213682   5.967   2.651   6.557
  551SOL     OW13683   9.362   5.743   6.591
  551SOL    HW113684   9.364   5.816   6.659
  551SOL    HW213685   9.270   5.706   6.583
  552SOL     OW13686   7.207   3.225   7.093
  552SOL    HW113687   7.272   3.153   7.066
  552SOL    HW213688   7.128   3.183   7.138
  553SOL     OW13689   3.426   2.146   6.892
  553SOL    HW113690   3.383   2.110   6.975
  553SOL    HW213691   3.522   2.167   6.910
  554SOL     OW13692   1.924   3.629   1.230
  554SOL    HW113693   1.908   3.547   1.285
  554SOL    HW213694   1.959   3.602   1.140
  555SOL     OW13695   2.051   4.764   5.264
  555SOL    HW113696   2.141   4.733   5.234
  555SOL    HW213697   1.989   4.768   5.186
  556SOL     OW13698   2.746   3.913   6.969
  556SOL    HW113699   2.715   3.906   6.874
  556SOL    HW213700   2.690   3.980   7.017
  557SOL     OW13701   4.942   5.722   6.959
  557SOL    HW113702   4.928   5.630   6.997
  557SOL    HW213703   4.942   5.789   7.034
  558SOL     OW13704   7.998   3.636   1.232
  558SOL    HW113705   7.957   3.566   1.172
  558SOL    HW213706   7.988   3.608   1.327
  559SOL     OW13707   7.041   4.965   1.128
  559SOL    HW113708   6.956   5.014   1.150
  559SOL    HW213709   7.027   4.867   1.140
  560SOL     OW13710   4.572   1.904   7.007
  560SOL    HW113711   4.479   1.869   7.015
  560SOL    HW213712   4.570   2.000   6.979
  561SOL     OW13713   5.096   4.961   0.530
  561SOL    HW113714   5.174   5.011   0.492
  561SOL    HW213715   5.042   4.922   0.456
  562SOL     OW13716   7.658   7.415   0.569
  562SOL    HW113717   7.698   7.332   0.609
  562SOL    HW213718   7.660   7.408   0.469
  563SOL     OW13719   1.482   0.394   1.680
  563SOL    HW113720   1.535   0.477   1.697
  563SOL    HW213721   1.535   0.332   1.622
  564SOL     OW13722   5.941   4.978   6.274
  564SOL    HW113723   5.872   4.906   6.275
  564SOL    HW213724   6.031   4.938   6.260
  565SOL     OW13725   3.558   4.840   1.444
  565SOL    HW113726   3.551   4.902   1.522
  565SOL    HW213727   3.641   4.862   1.392
  566SOL     OW13728   3.444   3.370   1.425
  566SOL    HW113729   3.490   3.309   1.489
  566SOL    HW213730   3.347   3.375   1.448
  567SOL     OW13731   0.376   5.733   6.302
  567SOL    HW113732   0.351   5.769   6.212
  567SOL    HW213733   0.469   5.697   6.298
  568SOL     OW13734   6.831   1.980   1.494
  568SOL    HW113735   6.890   2.055   1.524
  568SOL    HW213736   6.794   2.001   1.404
  569SOL     OW13737   5.868   6.377   1.399
  569SOL    HW113738   5.849   6.314   1.323
  569SOL    HW213739   5.781   6.407   1.439
  570SOL     OW13740   4.042   7.512   5.294
  570SOL    HW113741   4.136   7.488   5.319
  570SOL    HW213742   4.041   7.602   5.251
  571SOL     OW13743   9.248   3.528   7.089
  571SOL    HW113744   9.287   3.455   7.145
  571SOL    HW213745   9.300   3.537   7.005
  572SOL     OW13746   6.042   0.534   6.081
  572SOL    HW113747   6.003   0.606   6.024
  572SOL    HW213748   6.133   0.561   6.112
  573SOL     OW13749   0.468   0.036   5.103
  573SOL    HW113750   0.376   0.010   5.074
  573SOL    HW213751   0.492   0.124   5.063
  574SOL     OW13752   2.975   1.473   1.695
  574SOL    HW113753   2.910   1.480   1.771
  574SOL    HW213754   3.009   1.379   1.689
  575SOL     OW13755   4.931   5.120   1.440
  575SOL    HW113756   4.914   5.163   1.352
  575SOL    HW213757   5.004   5.052   1.431
  576SOL     OW13758   2.559   1.851   6.965
  576SOL    HW113759   2.567   1.946   6.933
  576SOL    HW213760   2.513   1.849   7.053
  577SOL     OW13761   3.655   1.139   1.543
  577SOL    HW113762   3.695   1.128   1.634
  577SOL    HW213763   3.726   1.160   1.477
  578SOL     OW13764   1.713   6.525   4.991
  578SOL    HW113765   1.785   6.457   4.978
  578SOL    HW213766   1.685   6.563   4.903
  579SOL     OW13767   1.926   4.988   5.729
  579SOL    HW113768   1.920   4.940   5.642
  579SOL    HW213769   1.987   5.066   5.721
  580SOL     OW13770   6.664   7.619   2.120
  580SOL    HW113771   6.738   7.552   2.113
  580SOL    HW213772   6.689   7.690   2.187
  581SOL     OW13773   5.675   0.217   6.283
  581SOL    HW113774   5.588   0.219   6.233
  581SOL    HW213775   5.751   0.217   6.218
  582SOL     OW13776   1.972   6.169   1.300
  582SOL    HW113777   1.885   6.137   1.262
  582SOL    HW213778   2.032   6.198   1.225
  583SOL     OW13779   5.200   2.419   1.646
  583SOL    HW113780   5.151   2.392   1.563
  583SOL    HW213781   5.151   2.493   1.691
  584SOL     OW13782   7.151   7.658   6.482
  584SOL    HW113783   7.219   7.615   6.422
  584SOL    HW213784   7.129   7.749   6.446
  585SOL     OW13785   6.564   4.208   0.901
  585SOL    HW113786   6.654   4.166   0.911
  585SOL    HW213787   6.502   4.143   0.856
  586SOL     OW13788   5.722   6.263   0.813
  586SOL    HW113789   5.815   6.233   0.835
  586SOL    HW213790   5.690   6.216   0.731
  587SOL     OW13791   3.530   7.273   2.096
  587SOL    HW113792   3.598   7.255   2.167
  587SOL    HW213793   3.463   7.339   2.131
  588SOL     OW13794   1.980   1.707   6.599
  588SOL    HW113795   1.890   1.693   6.557
  588SOL    HW213796   1.973   1.694   6.698
  589SOL     OW13797   1.577   8.216   6.444
  589SOL    HW113798   1.655   8.178   6.396
  589SOL    HW213799   1.536   8.288   6.387
  590SOL     OW13800   1.824   1.644   6.034
  590SOL    HW113801   1.731   1.672   6.058
  590SOL    HW213802   1.889   1.682   6.099
  591SOL     OW13803   4.838   5.338   1.783
  591SOL    HW113804   4.912   5.287   1.742
  591SOL    HW213805   4.852   5.345   1.882
  592SOL     OW13806   3.713   8.286   6.073
  592SOL    HW113807   3.730   8.189   6.057
  592SOL    HW213808   3.640   8.297   6.140
  593SOL     OW13809   0.737   5.318   6.198
  593SOL    HW113810   0.647   5.276   6.185
  593SOL    HW213811   0.730   5.391   6.266
  594SOL     OW13812   8.344   7.219   1.279
  594SOL    HW113813   8.373   7.216   1.183
  594SOL    HW213814   8.399   7.287   1.328
  595SOL     OW13815   3.663   7.002   1.228
  595SOL    HW113816   3.729   6.987   1.155
  595SOL    HW213817   3.709   7.039   1.309
  596SOL     OW13818   9.312   1.311   6.832
  596SOL    HW113819   9.216   1.305   6.804
  596SOL    HW213820   9.324   1.264   6.919
  597SOL     OW13821   0.916   6.826   5.253
  597SOL    HW113822   0.830   6.832   5.203
  597SOL    HW213823   0.964   6.743   5.227
  598SOL     OW13824   6.685   8.118   6.475
  598SOL    HW113825   6.612   8.076   6.422
  598SOL    HW213826   6.707   8.208   6.437
  599SOL     OW13827   8.366   3.352   1.307
  599SOL    HW113828   8.299   3.331   1.378
  599SOL    HW213829   8.332   3.429   1.252
  600SOL     OW13830   6.998   7.367   1.475
  600SOL    HW113831   7.058   7.395   1.550
  600SOL    HW213832   6.980   7.269   1.482
  601SOL     OW13833   8.593   6.057   6.231
  601SOL    HW113834   8.548   5.989   6.289
  601SOL    HW213835   8.680   6.020   6.198
  602SOL     OW13836   4.207   2.927   1.855
  602SOL    HW113837   4.180   2.902   1.947
  602SOL    HW213838   4.129   2.966   1.806
  603SOL     OW13839   0.250   5.940   0.865
  603SOL    HW113840   0.281   5.924   0.772
  603SOL    HW213841   0.260   5.857   0.919
  604SOL     OW13842   7.448   2.679   6.684
  604SOL    HW113843   7.393   2.716   6.758
  604SOL    HW213844   7.421   2.584   6.665
  605SOL     OW13845   5.013   7.541   1.380
  605SOL    HW113846   4.959   7.605   1.325
  605SOL    HW213847   4.967   7.453   1.382
  606SOL     OW13848   8.758   1.619   6.624
  606SOL    HW113849   8.743   1.521   6.609
  606SOL    HW213850   8.824   1.653   6.556
  607SOL     OW13851   8.130   4.988   0.601
  607SOL    HW113852   8.180   5.046   0.537
  607SOL    HW213853   8.143   5.022   0.694
  608SOL     OW13854   4.690   6.360   1.374
  608SOL    HW113855   4.616   6.305   1.335
  608SOL    HW213856   4.729   6.418   1.302
  609SOL     OW13857   6.973   6.704   0.753
  609SOL    HW113858   6.912   6.706   0.674
  609SOL    HW213859   7.066   6.681   0.722
  610SOL     OW13860   4.493   3.091   2.071
  610SOL    HW113861   4.554   3.159   2.032
  610SOL    HW213862   4.509   3.002   2.028
  611SOL     OW13863   0.144   3.709   1.349
  611SOL    HW113864   0.227   3.678   1.396
  611SOL    HW213865   0.159   3.801   1.313
  612SOL     OW13866   8.149   3.776   0.982
  612SOL    HW113867   8.170   3.863   1.026
  612SOL    HW213868   8.055   3.778   0.948
  613SOL     OW13869   4.348   3.502   6.916
  613SOL    HW113870   4.265   3.448   6.899
  613SOL    HW213871   4.422   3.467   6.860
  614SOL     OW13872   1.908   3.151   5.706
  614SOL    HW113873   1.930   3.101   5.622
  614SOL    HW213874   1.808   3.156   5.716
  615SOL     OW13875   4.093   2.554   0.580
  615SOL    HW113876   3.999   2.520   0.583
  615SOL    HW213877   4.103   2.616   0.502
  616SOL     OW13878   0.173   4.912   6.364
  616SOL    HW113879   0.189   5.001   6.321
  616SOL    HW213880   0.191   4.919   6.463
  617SOL     OW13881   1.772   7.342   6.031
  617SOL    HW113882   1.694   7.376   6.082
  617SOL    HW213883   1.789   7.401   5.952
  618SOL     OW13884   4.695   5.106   6.599
  618SOL    HW113885   4.666   5.189   6.551
  618SOL    HW213886   4.615   5.052   6.623
  619SOL     OW13887   0.869   1.599   6.765
  619SOL    HW113888   0.841   1.647   6.682
  619SOL    HW213889   0.791   1.548   6.802
  620SOL     OW13890   4.646   3.291   1.960
  620SOL    HW113891   4.581   3.363   1.937
  620SOL    HW213892   4.737   3.318   1.930
  621SOL     OW13893   8.424   5.089   6.299
  621SOL    HW113894   8.516   5.102   6.336
  621SOL    HW213895   8.421   5.123   6.205
  622SOL     OW13896   0.744   1.492   5.479
  622SOL    HW113897   0.661   1.543   5.502
  622SOL    HW213898   0.775   1.519   5.388
  623SOL     OW13899   8.861   7.818   1.113
  623SOL    HW113900   8.765   7.847   1.104
  623SOL    HW213901   8.865   7.734   1.167
  624SOL     OW13902   9.131   8.201   5.725
  624SOL    HW113903   9.035   8.204   5.752
  624SOL    HW213904   9.157   8.288   5.682
  625SOL     OW13905   5.666   5.330   7.131
  625SOL    HW113906   5.624   5.409   7.176
  625SOL    HW213907   5.648   5.248   7.186
  626SOL     OW13908   8.719   2.615   6.316
  626SOL    HW113909   8.720   2.689   6.250
  626SOL    HW213910   8.703   2.652   6.408
  627SOL     OW13911   7.111   0.653   0.619
  627SOL    HW113912   7.017   0.669   0.589
  627SOL    HW213913   7.172   0.719   0.574
  628SOL     OW13914   2.671   6.713   1.488
  628SOL    HW113915   2.599   6.741   1.551
  628SOL    HW213916   2.725   6.640   1.529
  629SOL     OW13917   2.327   3.573   7.010
  629SOL    HW113918   2.329   3.516   6.928
  629SOL    HW213919   2.306   3.668   6.985
  630SOL     OW13920   6.280   4.155   5.729
  630SOL    HW113921   6.301   4.198   5.817
  630SOL    HW213922   6.302   4.058   5.733
  631SOL     OW13923   7.782   6.752   6.412
  631SOL    HW113924   7.708   6.772   6.348
  631SOL    HW213925   7.835   6.836   6.429
  632SOL     OW13926   1.843   4.592   5.971
  632SOL    HW113927   1.941   4.598   5.955
  632SOL    HW213928   1.793   4.630   5.893
  633SOL     OW13929   4.698   1.524   5.399
  633SOL    HW113930   4.693   1.440   5.452
  633SOL    HW213931   4.609   1.569   5.397
  634SOL     OW13932   3.661   0.500   0.849
  634SOL    HW113933   3.579   0.470   0.899
  634SOL    HW213934   3.730   0.428   0.851
  635SOL     OW13935   4.192   3.338   5.620
  635SOL    HW113936   4.167   3.242   5.631
  635SOL    HW213937   4.133   3.381   5.552
  636SOL     OW13938   5.308   2.152   1.687
  636SOL    HW113939   5.282   2.109   1.601
  636SOL    HW213940   5.275   2.247   1.689
  637SOL     OW13941   4.208   2.623   0.954
  637SOL    HW113942   4.214   2.640   1.052
  637SOL    HW213943   4.153   2.695   0.911
  638SOL     OW13944   5.445   8.120   2.279
  638SOL    HW113945   5.544   8.130   2.285
  638SOL    HW213946   5.406   8.114   2.370
  639SOL     OW13947   5.769   2.187   1.583
  639SOL    HW113948   5.681   2.214   1.621
  639SOL    HW213949   5.759   2.167   1.485
  640SOL     OW13950   2.710   0.519   6.864
  640SOL    HW113951   2.688   0.489   6.957
  640SOL    HW213952   2.625   0.538   6.814
  641SOL     OW13953   1.949   0.086   5.820
  641SOL    HW113954   1.914   0.000   5.783
  641SOL    HW213955   1.961   0.152   5.746
  642SOL     OW13956   5.701   5.500   1.380
  642SOL    HW113957   5.647   5.580   1.404
  642SOL    HW213958   5.640   5.424   1.354
  643SOL     OW13959   1.544   6.104   5.843
  643SOL    HW113960   1.510   6.042   5.772
  643SOL    HW213961   1.550   6.054   5.930
  644SOL     OW13962   5.912   1.413   1.804
  644SOL    HW113963   5.845   1.454   1.867
  644SOL    HW213964   5.942   1.325   1.840
  645SOL     OW13965   2.428   0.954   0.718
  645SOL    HW113966   2.427   1.006   0.804
  645SOL    HW213967   2.522   0.944   0.687
  646SOL     OW13968   5.876   0.086   5.909
  646SOL    HW113969   5.866   0.023   5.986
  646SOL    HW213970   5.789   0.135   5.894
  647SOL     OW13971   1.010   0.145   5.456
  647SOL    HW113972   1.086   0.207   5.434
  647SOL    HW213973   0.938   0.196   5.502
  648SOL     OW13974   6.460   3.197   1.936
  648SOL    HW113975   6.392   3.269   1.952
  648SOL    HW213976   6.530   3.231   1.873
  649SOL     OW13977   7.188   0.179   1.441
  649SOL    HW113978   7.265   0.182   1.505
  649SOL    HW213979   7.222   0.186   1.348
  650SOL     OW13980   3.043   4.424   6.598
  650SOL    HW113981   3.068   4.490   6.527
  650SOL    HW213982   3.126   4.390   6.642
  651SOL     OW13983   8.997   2.520   6.662
  651SOL    HW113984   9.092   2.492   6.673
  651SOL    HW213985   8.947   2.452   6.609
  652SOL     OW13986   7.289   4.343   7.144
  652SOL    HW113987   7.322   4.391   7.225
  652SOL    HW213988   7.196   4.310   7.160
  653SOL     OW13989   4.667   6.041   1.341
  653SOL    HW113990   4.592   6.060   1.278
  653SOL    HW213991   4.634   6.051   1.436
  654SOL     OW13992   4.800   6.927   0.484
  654SOL    HW113993   4.712   6.920   0.436
  654SOL    HW213994   4.784   6.934   0.582
  655SOL     OW13995   2.723   4.078   6.332
  655SOL    HW113996   2.663   3.998   6.348
  655SOL    HW213997   2.788   4.057   6.259
  656SOL     OW13998   4.452   7.070   2.282
  656SOL    HW113999   4.530   7.111   2.330
  656SOL    HW214000   4.389   7.031   2.349
  657SOL     OW14001   2.908   7.537   6.752
  657SOL    HW114002   2.906   7.560   6.849
  657SOL    HW214003   2.835   7.585   6.704
  658SOL     OW14004   5.559   4.380   0.857
  658SOL    HW114005   5.647   4.347   0.821
  658SOL    HW214006   5.495   4.303   0.860
  659SOL     OW14007   2.522   6.971   1.973
  659SOL    HW114008   2.450   7.038   1.958
  659SOL    HW214009   2.482   6.886   2.007
  660SOL     OW14010   3.189   6.775   1.751
  660SOL    HW114011   3.160   6.713   1.824
  660SOL    HW214012   3.271   6.824   1.780
  661SOL     OW14013   3.220   3.819   6.671
  661SOL    HW114014   3.150   3.854   6.608
  661SOL    HW214015   3.233   3.721   6.656
  662SOL     OW14016   5.181   8.150   0.479
  662SOL    HW114017   5.233   8.122   0.398
  662SOL    HW214018   5.203   8.245   0.501
  663SOL     OW14019   8.373   2.911   1.210
  663SOL    HW114020   8.338   2.835   1.265
  663SOL    HW214021   8.414   2.979   1.271
  664SOL     OW14022   5.116   5.352   6.836
  664SOL    HW114023   5.206   5.392   6.847
  664SOL    HW214024   5.050   5.398   6.896
  665SOL     OW14025   4.026   8.089   2.451
  665SOL    HW114026   3.960   8.092   2.526
  665SOL    HW214027   4.023   7.999   2.408
  666SOL     OW14028   8.234   6.312   6.165
  666SOL    HW114029   8.321   6.285   6.122
  666SOL    HW214030   8.232   6.280   6.259
  667SOL     OW14031   9.043   7.298   0.711
  667SOL    HW114032   9.135   7.289   0.749
  667SOL    HW214033   8.997   7.209   0.714
  668SOL     OW14034   2.307   6.754   1.254
  668SOL    HW114035   2.316   6.801   1.341
  668SOL    HW214036   2.385   6.693   1.240
  669SOL     OW14037   6.352   7.319   7.147
  669SOL    HW114038   6.312   7.284   7.062
  669SOL    HW214039   6.346   7.249   7.218
  670SOL     OW14040   1.715   2.401   1.191
  670SOL    HW114041   1.747   2.496   1.181
  670SOL    HW214042   1.793   2.341   1.208
  671SOL     OW14043   2.838   5.851   1.391
  671SOL    HW114044   2.840   5.763   1.439
  671SOL    HW214045   2.778   5.914   1.440
  672SOL     OW14046   3.237   5.094   0.556
  672SOL    HW114047   3.164   5.140   0.606
  672SOL    HW214048   3.210   5.001   0.533
  673SOL     OW14049   3.514   1.794   1.319
  673SOL    HW114050   3.444   1.787   1.247
  673SOL    HW214051   3.554   1.885   1.318
  674SOL     OW14052   9.530   6.627   6.875
  674SOL    HW114053   9.472   6.706   6.855
  674SOL    HW214054   9.597   6.614   6.801
  675SOL     OW14055   1.710   4.303   0.519
  675SOL    HW114056   1.786   4.261   0.469
  675SOL    HW214057   1.726   4.401   0.529
  676SOL     OW14058   2.760   8.399   6.550
  676SOL    HW114059   2.706   8.337   6.606
  676SOL    HW214060   2.699   8.460   6.499
  677SOL     OW14061   2.788   3.213   6.731
  677SOL    HW114062   2.866   3.266   6.697
  677SOL    HW214063   2.773   3.233   6.828
  678SOL     OW14064   3.551   7.822   6.012
  678SOL    HW114065   3.561   7.763   5.932
  678SOL    HW214066   3.638   7.865   6.033
  679SOL     OW14067   9.182  -0.042   5.664
  679SOL    HW114068   9.084  -0.021   5.658
  679SOL    HW214069   9.233   0.044   5.671
  680SOL     OW14070   7.141   7.575   5.530
  680SOL    HW114071   7.214   7.545   5.467
  680SOL    HW214072   7.061   7.601   5.477
  681SOL     OW14073   6.374   5.728   0.727
  681SOL    HW114074   6.473   5.733   0.741
  681SOL    HW214075   6.351   5.766   0.637
  682SOL     OW14076   8.570   4.074   5.443
  682SOL    HW114077   8.548   4.171   5.444
  682SOL    HW214078   8.624   4.052   5.362
  683SOL     OW14079   4.463   6.502   2.395
  683SOL    HW114080   4.418   6.585   2.363
  683SOL    HW214081   4.562   6.513   2.387
  684SOL     OW14082   4.179   3.419   6.337
  684SOL    HW114083   4.271   3.405   6.301
  684SOL    HW214084   4.122   3.340   6.315
  685SOL     OW14085   3.766   2.127   5.977
  685SOL    HW114086   3.810   2.041   5.953
  685SOL    HW214087   3.687   2.142   5.918
  686SOL     OW14088   0.496   5.188   0.568
  686SOL    HW114089   0.466   5.145   0.653
  686SOL    HW214090   0.557   5.265   0.589
  687SOL     OW14091   2.144   3.416   6.105
  687SOL    HW114092   2.195   3.500   6.090
  687SOL    HW214093   2.077   3.404   6.032
  688SOL     OW14094   0.537   4.780   6.098
  688SOL    HW114095   0.450   4.752   6.140
  688SOL    HW214096   0.534   4.762   6.000
  689SOL     OW14097   4.430   8.126   6.507
  689SOL    HW114098   4.423   8.029   6.482
  689SOL    HW214099   4.525   8.148   6.527
  690SOL     OW14100   1.558   8.272   6.752
  690SOL    HW114101   1.632   8.219   6.709
  690SOL    HW214102   1.470   8.242   6.715
  691SOL     OW14103   5.676   1.045   6.533
  691SOL    HW114104   5.702   1.057   6.437
  691SOL    HW214105   5.734   0.975   6.575
  692SOL     OW14106   7.953   4.742   6.562
  692SOL    HW114107   7.905   4.728   6.475
  692SOL    HW214108   8.051   4.729   6.548
  693SOL     OW14109   4.155   8.185   0.944
  693SOL    HW114110   4.239   8.139   0.973
  693SOL    HW214111   4.129   8.153   0.853
  694SOL     OW14112   3.833   4.238   1.855
  694SOL    HW114113   3.890   4.185   1.918
  694SOL    HW214114   3.764   4.289   1.907
  695SOL     OW14115   0.352   6.724   1.380
  695SOL    HW114116   0.329   6.647   1.440
  695SOL    HW214117   0.393   6.690   1.295
  696SOL     OW14118   6.339   1.668   0.932
  696SOL    HW114119   6.261   1.611   0.907
  696SOL    HW214120   6.386   1.628   1.010
  697SOL     OW14121   7.880   8.426   5.589
  697SOL    HW114122   7.909   8.431   5.494
  697SOL    HW214123   7.792   8.473   5.599
  698SOL     OW14124   3.814   4.207   1.587
  698SOL    HW114125   3.832   4.220   1.685
  698SOL    HW214126   3.760   4.123   1.574
  699SOL     OW14127   4.357   6.782   5.683
  699SOL    HW114128   4.269   6.739   5.702
  699SOL    HW214129   4.347   6.846   5.607
  700SOL     OW14130   9.082   4.515   6.219
  700SOL    HW114131   9.064   4.431   6.271
  700SOL    HW214132   9.130   4.492   6.135
  701SOL     OW14133   4.286   1.429   0.851
  701SOL    HW114134   4.310   1.513   0.900
  701SOL    HW214135   4.207   1.446   0.793
  702SOL     OW14136   3.802   2.075   1.959
  702SOL    HW114137   3.754   2.160   1.937
  702SOL    HW214138   3.896   2.095   1.984
  703SOL     OW14139   6.389   3.886   7.104
  703SOL    HW114140   6.303   3.927   7.136
  703SOL    HW214141   6.428   3.943   7.032
  704SOL     OW14142   5.537   0.798   1.793
  704SOL    HW114143   5.527   0.853   1.710
  704SOL    HW214144   5.613   0.734   1.782
  705SOL     OW14145   8.481   5.317   6.557
  705SOL    HW114146   8.532   5.381   6.615
  705SOL    HW214147   8.544   5.273   6.493
  706SOL     OW14148   4.753   6.940   6.794
  706SOL    HW114149   4.803   7.013   6.841
  706SOL    HW214150   4.719   6.975   6.706
  707SOL     OW14151   4.526   5.088   6.177
  707SOL    HW114152   4.560   5.026   6.106
  707SOL    HW214153   4.602   5.123   6.231
  708SOL     OW14154   7.889   3.730   6.080
  708SOL    HW114155   7.926   3.639   6.100
  708SOL    HW214156   7.817   3.723   6.011
  709SOL     OW14157   1.579   2.302   5.892
  709SOL    HW114158   1.627   2.352   5.820
  709SOL    HW214159   1.486   2.282   5.862
  710SOL     OW14160   7.675   6.015   6.872
  710SOL    HW114161   7.586   6.024   6.826
  710SOL    HW214162   7.714   6.106   6.885
  711SOL     OW14163   7.180   6.487   6.216
  711SOL    HW114164   7.179   6.581   6.181
  711SOL    HW214165   7.235   6.483   6.299
  712SOL     OW14166   2.173   1.095   1.082
  712SOL    HW114167   2.193   1.113   1.178
  712SOL    HW214168   2.074   1.095   1.068
  713SOL     OW14169   8.465   2.296   7.057
  713SOL    HW114170   8.370   2.273   7.078
  713SOL    HW214171   8.505   2.225   6.998
  714SOL     OW14172   1.679   4.837   1.191
  714SOL    HW114173   1.759   4.804   1.141
  714SOL    HW214174   1.619   4.887   1.129
  715SOL     OW14175   3.581   5.942   1.876
  715SOL    HW114176   3.641   5.966   1.952
  715SOL    HW214177   3.636   5.915   1.797
  716SOL     OW14178   3.515   5.194   1.401
  716SOL    HW114179   3.518   5.170   1.303
  716SOL    HW214180   3.475   5.286   1.411
  717SOL     OW14181   4.631   7.637   5.266
  717SOL    HW114182   4.550   7.620   5.211
  717SOL    HW214183   4.713   7.624   5.210
  718SOL     OW14184   6.376   1.096   5.937
  718SOL    HW114185   6.381   1.171   5.871
  718SOL    HW214186   6.439   1.023   5.910
  719SOL     OW14187   7.654   3.997   0.986
  719SOL    HW114188   7.717   4.064   0.948
  719SOL    HW214189   7.560   4.029   0.974
  720SOL     OW14190   5.862   0.379   7.139
  720SOL    HW114191   5.806   0.430   7.074
  720SOL    HW214192   5.810   0.299   7.171
  721SOL     OW14193   0.119   5.385   6.778
  721SOL    HW114194   0.127   5.328   6.697
  721SOL    HW214195   0.129   5.329   6.860
  722SOL     OW14196   8.737   6.775   0.466
  722SOL    HW114197   8.834   6.757   0.481
  722SOL    HW214198   8.688   6.688   0.457
  723SOL     OW14199   6.826   7.886   6.558
  723SOL    HW114200   6.778   7.973   6.549
  723SOL    HW214201   6.763   7.812   6.534
  724SOL     OW14202   6.885   7.417   2.100
  724SOL    HW114203   6.976   7.456   2.088
  724SOL    HW214204   6.893   7.320   2.122
  725SOL     OW14205   8.112   3.314   0.960
  725SOL    HW114206   8.044   3.382   0.987
  725SOL    HW214207   8.140   3.330   0.866
  726SOL     OW14208   1.215   2.994   7.012
  726SOL    HW114209   1.184   3.034   7.098
  726SOL    HW214210   1.136   2.963   6.959
  727SOL     OW14211   1.187   8.102   0.728
  727SOL    HW114212   1.239   8.170   0.779
  727SOL    HW214213   1.249   8.051   0.668
  728SOL     OW14214   7.218   4.945   1.601
  728SOL    HW114215   7.301   4.973   1.650
  728SOL    HW214216   7.237   4.862   1.549
  729SOL     OW14217   2.199   8.372   6.432
  729SOL    HW114218   2.221   8.275   6.435
  729SOL    HW214219   2.265   8.423   6.486
  730SOL     OW14220   0.870   2.435   6.483
  730SOL    HW114221   0.914   2.456   6.571
  730SOL    HW214222   0.774   2.412   6.499
  731SOL     OW14223   7.083   0.713   6.601
  731SOL    HW114224   6.995   0.755   6.620
  731SOL    HW214225   7.141   0.776   6.550
  732SOL     OW14226   2.383   8.389   5.445
  732SOL    HW114227   2.416   8.469   5.395
  732SOL    HW214228   2.429   8.307   5.410
  733SOL     OW14229   4.924   1.585   0.561
  733SOL    HW114230   5.015   1.627   0.566
  733SOL    HW214231   4.857   1.655   0.538
  734SOL     OW14232   0.153   5.564   1.544
  734SOL    HW114233   0.067   5.606   1.514
  734SOL    HW214234   0.223   5.634   1.552
  735SOL     OW14235   4.287   0.127   6.349
  735SOL    HW114236   4.330   0.188   6.282
  735SOL    HW214237   4.212   0.078   6.306
  736SOL     OW14238   3.030   1.857   1.882
  736SOL    HW114239   3.129   1.843   1.874
  736SOL    HW214240   2.994   1.891   1.795
  737SOL     OW14241   6.716   3.127   6.608
  737SOL    HW114242   6.747   3.117   6.513
  737SOL    HW214243   6.729   3.040   6.656
  738SOL     OW14244   8.855   3.835   0.844
  738SOL    HW114245   8.865   3.736   0.839
  738SOL    HW214246   8.777   3.863   0.788
  739SOL     OW14247   1.925  -0.003   7.071
  739SOL    HW114248   1.891  -0.030   7.162
  739SOL    HW214249   2.025   0.002   7.072
  740SOL     OW14250   4.563   0.793   2.126
  740SOL    HW114251   4.523   0.714   2.079
  740SOL    HW214252   4.607   0.763   2.211
  741SOL     OW14253   0.158   2.030   0.880
  741SOL    HW114254   0.128   2.041   0.975
  741SOL    HW214255   0.225   2.101   0.857
  742SOL     OW14256   3.292   1.899   1.888
  742SOL    HW114257   3.290   1.884   1.987
  742SOL    HW214258   3.299   1.996   1.869
  743SOL     OW14259   7.789   6.526   1.263
  743SOL    HW114260   7.780   6.437   1.307
  743SOL    HW214261   7.707   6.581   1.280
  744SOL     OW14262   3.455   1.638   1.517
  744SOL    HW114263   3.465   1.669   1.612
  744SOL    HW214264   3.488   1.709   1.455
  745SOL     OW14265   6.402   4.646   6.891
  745SOL    HW114266   6.359   4.595   6.816
  745SOL    HW214267   6.497   4.665   6.868
  746SOL     OW14268   8.372   1.330   0.980
  746SOL    HW114269   8.470   1.321   0.962
  746SOL    HW214270   8.336   1.408   0.931
  747SOL     OW14271   8.572   1.515   0.719
  747SOL    HW114272   8.625   1.561   0.791
  747SOL    HW214273   8.534   1.584   0.657
  748SOL     OW14274   9.068   3.087   1.143
  748SOL    HW114275   9.088   2.991   1.164
  748SOL    HW214276   9.098   3.107   1.049
  749SOL     OW14277   1.764   3.548   1.527
  749SOL    HW114278   1.757   3.564   1.625
  749SOL    HW214279   1.818   3.466   1.510
  750SOL     OW14280   5.398   0.702   7.146
  750SOL    HW114281   5.408   0.660   7.236
  750SOL    HW214282   5.445   0.645   7.078
  751SOL     OW14283   0.828   6.723   2.029
  751SOL    HW114284   0.875   6.657   2.087
  751SOL    HW214285   0.882   6.808   2.026
  752SOL     OW14286   0.892   7.429   7.116
  752SOL    HW114287   0.951   7.365   7.069
  752SOL    HW214288   0.876   7.398   7.210
  753SOL     OW14289   6.118   8.237   6.800
  753SOL    HW114290   6.092   8.320   6.849
  753SOL    HW214291   6.143   8.166   6.865
  754SOL     OW14292   3.989   2.090   6.674
  754SOL    HW114293   3.954   2.002   6.644
  754SOL    HW214294   4.018   2.084   6.769
  755SOL     OW14295   1.831   1.794   0.455
  755SOL    HW114296   1.875   1.883   0.460
  755SOL    HW214297   1.733   1.806   0.441
  756SOL     OW14298   4.554   1.355   1.160
  756SOL    HW114299   4.575   1.372   1.256
  756SOL    HW214300   4.523   1.261   1.149
  757SOL     OW14301   8.008   1.104   1.062
  757SOL    HW114302   7.947   1.035   1.101
  757SOL    HW214303   8.004   1.100   0.963
  758SOL     OW14304   3.506   0.506   6.768
  758SOL    HW114305   3.550   0.594   6.783
  758SOL    HW214306   3.426   0.497   6.828
  759SOL     OW14307   0.313   5.651   0.890
  759SOL    HW114308   0.222   5.640   0.930
  759SOL    HW214309   0.316   5.603   0.802
  760SOL     OW14310   5.011   1.551   1.328
  760SOL    HW114311   4.949   1.619   1.366
  760SOL    HW214312   5.028   1.571   1.232
  761SOL     OW14313   3.572   2.233   0.831
  761SOL    HW114314   3.478   2.255   0.856
  761SOL    HW214315   3.635   2.291   0.883
  762SOL     OW14316   5.310   1.210   2.066
  762SOL    HW114317   5.341   1.117   2.050
  762SOL    HW214318   5.257   1.215   2.151
  763SOL     OW14319   1.702   2.413   1.506
  763SOL    HW114320   1.619   2.387   1.555
  763SOL    HW214321   1.687   2.403   1.407
  764SOL     OW14322   5.996   6.416   1.107
  764SOL    HW114323   5.943   6.366   1.176
  764SOL    HW214324   5.939   6.485   1.063
  765SOL     OW14325   7.654   6.367   5.991
  765SOL    HW114326   7.622   6.282   5.949
  765SOL    HW214327   7.581   6.434   5.991
  766SOL     OW14328   1.173   0.308   7.046
  766SOL    HW114329   1.238   0.275   7.114
  766SOL    HW214330   1.081   0.307   7.084
  767SOL     OW14331   3.873   3.509   6.191
  767SOL    HW114332   3.937   3.487   6.264
  767SOL    HW214333   3.861   3.430   6.131
  768SOL     OW14334   0.386   8.428   1.636
  768SOL    HW114335   0.338   8.515   1.633
  768SOL    HW214336   0.358   8.377   1.717
  769SOL     OW14337   9.320   6.561   6.112
  769SOL    HW114338   9.388   6.556   6.040
  769SOL    HW214339   9.359   6.606   6.192
  770SOL     OW14340   5.940   6.298   6.364
  770SOL    HW114341   6.006   6.283   6.437
  770SOL    HW214342   5.913   6.211   6.323
  771SOL     OW14343   0.997   7.734   6.826
  771SOL    HW114344   0.975   7.752   6.922
  771SOL    HW214345   0.966   7.642   6.801
  772SOL     OW14346   2.682   1.797   5.911
  772SOL    HW114347   2.749   1.836   5.848
  772SOL    HW214348   2.611   1.749   5.860
  773SOL     OW14349   4.895   3.529   1.714
  773SOL    HW114350   4.831   3.594   1.754
  773SOL    HW214351   4.948   3.574   1.642
  774SOL     OW14352   2.176   0.911   6.116
  774SOL    HW114353   2.151   0.908   6.213
  774SOL    HW214354   2.275   0.901   6.107
  775SOL     OW14355   4.092   3.892   1.315
  775SOL    HW114356   4.087   3.911   1.217
  775SOL    HW214357   4.086   3.978   1.366
  776SOL     OW14358   7.917   8.390   6.884
  776SOL    HW114359   7.879   8.456   6.949
  776SOL    HW214360   7.923   8.300   6.927
  777SOL     OW14361   7.570   5.504   6.622
  777SOL    HW114362   7.597   5.425   6.677
  777SOL    HW214363   7.597   5.588   6.668
  778SOL     OW14364   6.558   6.067   1.219
  778SOL    HW114365   6.486   6.046   1.285
  778SOL    HW214366   6.647   6.054   1.262
  779SOL     OW14367   5.186   1.822   1.987
  779SOL    HW114368   5.149   1.758   2.054
  779SOL    HW214369   5.208   1.908   2.032
  780SOL     OW14370   1.735   5.265   5.785
  780SOL    HW114371   1.738   5.228   5.692
  780SOL    HW214372   1.644   5.252   5.824
  781SOL     OW14373   2.920   2.275   1.238
  781SOL    HW114374   2.987   2.349   1.234
  781SOL    HW214375   2.828   2.313   1.230
  782SOL     OW14376   4.212   0.637   2.487
  782SOL    HW114377   4.129   0.616   2.436
  782SOL    HW214378   4.193   0.633   2.585
  783SOL     OW14379   9.527   6.913   5.131
  783SOL    HW114380   9.617   6.919   5.088
  783SOL    HW214381   9.460   6.959   5.074
  784SOL     OW14382   2.790   3.106   1.759
  784SOL    HW114383   2.733   3.166   1.814
  784SOL    HW214384   2.812   3.024   1.811
  785SOL     OW14385   4.812   0.615   6.329
  785SOL    HW114386   4.909   0.621   6.305
  785SOL    HW214387   4.794   0.671   6.410
  786SOL     OW14388   9.019   4.510   0.754
  786SOL    HW114389   8.944   4.452   0.783
  786SOL    HW214390   9.006   4.603   0.789
  787SOL     OW14391   4.157   4.052   6.221
  787SOL    HW114392   4.062   4.036   6.194
  787SOL    HW214393   4.213   4.063   6.139
  788SOL     OW14394   5.521   4.443   1.855
  788SOL    HW114395   5.491   4.358   1.897
  788SOL    HW214396   5.443   4.504   1.843
  789SOL     OW14397   0.714   6.082   0.692
  789SOL    HW114398   0.801   6.132   0.698
  789SOL    HW214399   0.718   6.020   0.614
  790SOL     OW14400   5.615   5.976   6.496
  790SOL    HW114401   5.561   5.940   6.573
  790SOL    HW214402   5.598   6.074   6.487
  791SOL     OW14403   1.392   7.532   6.637
  791SOL    HW114404   1.370   7.446   6.683
  791SOL    HW214405   1.307   7.578   6.612
  792SOL     OW14406   8.810   5.823   7.041
  792SOL    HW114407   8.753   5.793   6.965
  792SOL    HW214408   8.799   5.921   7.055
  793SOL     OW14409   9.228   4.964   1.092
  793SOL    HW114410   9.253   5.004   1.180
  793SOL    HW214411   9.309   4.924   1.048
  794SOL     OW14412   4.313   0.652   0.464
  794SOL    HW114413   4.236   0.713   0.444
  794SOL    HW214414   4.316   0.578   0.397
  795SOL     OW14415   6.117   5.444   1.095
  795SOL    HW114416   6.164   5.518   1.144
  795SOL    HW214417   6.021   5.442   1.121
  796SOL     OW14418   1.234   1.905   5.355
  796SOL    HW114419   1.330   1.898   5.327
  796SOL    HW214420   1.209   2.001   5.366
  797SOL     OW14421   8.722   6.370   6.021
  797SOL    HW114422   8.772   6.376   5.935
  797SOL    HW214423   8.786   6.376   6.098
  798SOL     OW14424   0.752   6.411   6.623
  798SOL    HW114425   0.678   6.355   6.584
  798SOL    HW214426   0.713   6.487   6.674
  799SOL     OW14427   5.971   6.859   0.877
  799SOL    HW114428   6.049   6.808   0.841
  799SOL    HW214429   5.897   6.858   0.809
  800SOL     OW14430   3.514   5.004   5.690
  800SOL    HW114431   3.566   4.956   5.761
  800SOL    HW214432   3.425   4.959   5.677
  801SOL     OW14433   8.424  -0.001   7.113
  801SOL    HW114434   8.499   0.008   7.178
  801SOL    HW214435   8.373  -0.085   7.133
  802SOL     OW14436   1.227   0.840   1.494
  802SOL    HW114437   1.182   0.784   1.563
  802SOL    HW214438   1.184   0.824   1.405
  803SOL     OW14439   8.395   4.004   1.175
  803SOL    HW114440   8.459   3.930   1.159
  803SOL    HW214441   8.333   3.979   1.250
  804SOL     OW14442   2.250   8.111   6.541
  804SOL    HW114443   2.215   8.142   6.629
  804SOL    HW214444   2.350   8.114   6.542
  805SOL     OW14445   6.514   8.133   1.449
  805SOL    HW114446   6.537   8.154   1.354
  805SOL    HW214447   6.534   8.036   1.468
  806SOL     OW14448   0.415   2.581   6.653
  806SOL    HW114449   0.343   2.511   6.658
  806SOL    HW214450   0.390   2.650   6.585
  807SOL     OW14451   5.216   8.145   1.862
  807SOL    HW114452   5.204   8.085   1.783
  807SOL    HW214453   5.295   8.114   1.916
  808SOL     OW14454   4.908   1.334   0.672
  808SOL    HW114455   4.900   1.423   0.628
  808SOL    HW214456   4.930   1.265   0.603
  809SOL     OW14457   8.392   5.038   6.917
  809SOL    HW114458   8.457   5.056   6.991
  809SOL    HW214459   8.355   5.125   6.884
  810SOL     OW14460   1.940   1.656   1.194
  810SOL    HW114461   1.848   1.646   1.231
  810SOL    HW214462   2.003   1.597   1.245
  811SOL     OW14463   0.901   7.988   1.184
  811SOL    HW114464   0.862   7.907   1.139
  811SOL    HW214465   0.982   7.961   1.237
  812SOL     OW14466   6.301   4.714   0.933
  812SOL    HW114467   6.361   4.635   0.918
  812SOL    HW214468   6.206   4.688   0.917
  813SOL     OW14469   2.316   5.651   0.485
  813SOL    HW114470   2.276   5.637   0.575
  813SOL    HW214471   2.399   5.707   0.493
  814SOL     OW14472   8.832   0.872   6.188
  814SOL    HW114473   8.890   0.953   6.181
  814SOL    HW214474   8.769   0.869   6.110
  815SOL     OW14475   4.703   4.805   0.812
  815SOL    HW114476   4.738   4.850   0.894
  815SOL    HW214477   4.646   4.727   0.837
  816SOL     OW14478   1.252   6.189   5.512
  816SOL    HW114479   1.213   6.228   5.595
  816SOL    HW214480   1.255   6.260   5.441
  817SOL     OW14481   4.273   5.125   6.459
  817SOL    HW114482   4.255   5.105   6.362
  817SOL    HW214483   4.365   5.161   6.469
  818SOL     OW14484   5.220   7.567   0.863
  818SOL    HW114485   5.211   7.470   0.888
  818SOL    HW214486   5.287   7.575   0.789
  819SOL     OW14487   9.455   4.801   6.218
  819SOL    HW114488   9.442   4.870   6.147
  819SOL    HW214489   9.537   4.821   6.271
  820SOL     OW14490   6.951   0.951   0.713
  820SOL    HW114491   6.907   0.870   0.674
  820SOL    HW214492   7.029   0.977   0.656
  821SOL     OW14493   3.640   0.196   6.175
  821SOL    HW114494   3.676   0.212   6.267
  821SOL    HW214495   3.541   0.212   6.174
  822SOL     OW14496   8.306   7.692   6.384
  822SOL    HW114497   8.342   7.622   6.322
  822SOL    HW214498   8.359   7.691   6.469
  823SOL     OW14499   2.449   3.305   6.147
  823SOL    HW114500   2.516   3.257   6.091
  823SOL    HW214501   2.468   3.403   6.146
  824SOL     OW14502   1.955   5.415   1.334
  824SOL    HW114503   2.009   5.344   1.379
  824SOL    HW214504   1.860   5.385   1.325
  825SOL     OW14505   9.392   6.444   0.930
  825SOL    HW114506   9.316   6.499   0.966
  825SOL    HW214507   9.440   6.399   1.005
  826SOL     OW14508   8.742   4.832   5.520
  826SOL    HW114509   8.666   4.873   5.469
  826SOL    HW214510   8.738   4.732   5.511
  827SOL     OW14511   0.398   5.039   0.763
  827SOL    HW114512   0.350   5.037   0.851
  827SOL    HW214513   0.352   4.979   0.699
  828SOL     OW14514   9.274   7.474   6.401
  828SOL    HW114515   9.351   7.417   6.430
  828SOL    HW214516   9.222   7.504   6.481
  829SOL     OW14517   6.928   7.587   1.328
  829SOL    HW114518   6.930   7.498   1.375
  829SOL    HW214519   6.903   7.573   1.232
  830SOL     OW14520   9.387   6.715   4.934
  830SOL    HW114521   9.389   6.812   4.958
  830SOL    HW214522   9.413   6.704   4.838
  831SOL     OW14523   1.782   2.378   0.883
  831SOL    HW114524   1.880   2.394   0.894
  831SOL    HW214525   1.737   2.385   0.972
  832SOL     OW14526   8.821   1.170   6.714
  832SOL    HW114527   8.767   1.108   6.771
  832SOL    HW214528   8.917   1.166   6.742
  833SOL     OW14529   6.195   4.598   6.704
  833SOL    HW114530   6.258   4.609   6.627
  833SOL    HW214531   6.176   4.687   6.744
  834SOL     OW14532   4.421   7.622   5.535
  834SOL    HW114533   4.338   7.677   5.522
  834SOL    HW214534   4.396   7.526   5.543
  835SOL     OW14535   4.297   4.744   2.070
  835SOL    HW114536   4.217   4.801   2.049
  835SOL    HW214537   4.331   4.767   2.161
  836SOL     OW14538   0.631   7.951   5.924
  836SOL    HW114539   0.593   7.880   5.984
  836SOL    HW214540   0.560   7.981   5.860
  837SOL     OW14541   2.922   3.111   1.532
  837SOL    HW114542   2.887   3.125   1.624
  837SOL    HW214543   2.865   3.044   1.484
  838SOL     OW14544   8.933   4.951   1.041
  838SOL    HW114545   8.927   5.004   1.125
  838SOL    HW214546   9.026   4.916   1.031
  839SOL     OW14547   4.875   0.002   6.253
  839SOL    HW114548   4.871  -0.071   6.321
  839SOL    HW214549   4.892   0.089   6.298
  840SOL     OW14550   1.103   1.894   1.995
  840SOL    HW114551   1.091   1.971   2.058
  840SOL    HW214552   1.014   1.869   1.956
  841SOL     OW14553   4.510   7.378   0.728
  841SOL    HW114554   4.561   7.338   0.652
  841SOL    HW214555   4.545   7.469   0.748
  842SOL     OW14556   8.128   5.683   0.489
  842SOL    HW114557   8.197   5.751   0.514
  842SOL    HW214558   8.047   5.730   0.453
  843SOL     OW14559   7.292   5.021   5.707
  843SOL    HW114560   7.245   4.961   5.642
  843SOL    HW214561   7.340   5.093   5.657
  844SOL     OW14562   6.229   4.231   7.125
  844SOL    HW114563   6.179   4.304   7.079
  844SOL    HW214564   6.243   4.256   7.221
  845SOL     OW14565   5.490  -0.026   1.942
  845SOL    HW114566   5.399  -0.006   1.980
  845SOL    HW214567   5.536   0.060   1.921
  846SOL     OW14568   2.585   3.803   6.000
  846SOL    HW114569   2.668   3.851   5.971
  846SOL    HW214570   2.533   3.774   5.919
  847SOL     OW14571   3.884   0.976   5.699
  847SOL    HW114572   3.823   1.026   5.638
  847SOL    HW214573   3.895   1.027   5.785
  848SOL     OW14574   4.781   1.475   7.036
  848SOL    HW114575   4.735   1.390   7.061
  848SOL    HW214576   4.832   1.509   7.115
  849SOL     OW14577   2.156   0.935   6.372
  849SOL    HW114578   2.221   1.011   6.362
  849SOL    HW214579   2.140   0.917   6.469
  850SOL     OW14580   5.787   1.042   5.978
  850SOL    HW114581   5.707   0.982   5.983
  850SOL    HW214582   5.762   1.127   5.932
  851SOL     OW14583   8.513   1.604   1.028
  851SOL    HW114584   8.497   1.671   0.955
  851SOL    HW214585   8.601   1.560   1.012
  852SOL     OW14586   4.448   2.492   6.869
  852SOL    HW114587   4.358   2.483   6.827
  852SOL    HW214588   4.507   2.548   6.810
  853SOL     OW14589   5.605   0.198   0.779
  853SOL    HW114590   5.545   0.278   0.791
  853SOL    HW214591   5.555   0.115   0.805
  854SOL     OW14592   1.506   7.413   6.054
  854SOL    HW114593   1.451   7.414   6.137
  854SOL    HW214594   1.476   7.488   5.993
  855SOL     OW14595   0.177   2.196   1.440
  855SOL    HW114596   0.222   2.118   1.483
  855SOL    HW214597   0.225   2.221   1.356
  856SOL     OW14598   2.167   5.668   5.699
  856SOL    HW114599   2.137   5.599   5.632
  856SOL    HW214600   2.201   5.748   5.650
  857SOL     OW14601   6.802   1.659   1.098
  857SOL    HW114602   6.813   1.641   1.196
  857SOL    HW214603   6.825   1.576   1.047
  858SOL     OW14604   0.252   8.419   4.936
  858SOL    HW114605   0.296   8.330   4.925
  858SOL    HW214606   0.218   8.450   4.848
  859SOL     OW14607   3.024   2.648   1.018
  859SOL    HW114608   3.102   2.638   0.955
  859SOL    HW214609   2.962   2.718   0.982
  860SOL     OW14610   4.303   1.457   1.538
  860SOL    HW114611   4.371   1.427   1.605
  860SOL    HW214612   4.320   1.411   1.451
  861SOL     OW14613   4.622   7.890   1.949
  861SOL    HW114614   4.648   7.972   2.001
  861SOL    HW214615   4.694   7.868   1.884
  862SOL     OW14616   1.456   6.325   6.370
  862SOL    HW114617   1.379   6.389   6.375
  862SOL    HW214618   1.491   6.308   6.462
  863SOL     OW14619   1.049   0.257   5.794
  863SOL    HW114620   1.061   0.262   5.893
  863SOL    HW214621   0.975   0.318   5.766
  864SOL     OW14622   4.447   7.190   2.021
  864SOL    HW114623   4.383   7.137   1.966
  864SOL    HW214624   4.448   7.155   2.115
  865SOL     OW14625   0.468   4.797   1.444
  865SOL    HW114626   0.543   4.797   1.377
  865SOL    HW214627   0.497   4.845   1.526
  866SOL     OW14628   4.760   7.743   6.061
  866SOL    HW114629   4.841   7.801   6.071
  866SOL    HW214630   4.760   7.703   5.969
  867SOL     OW14631   5.612   6.506   1.472
  867SOL    HW114632   5.630   6.581   1.409
  867SOL    HW214633   5.531   6.528   1.528
  868SOL     OW14634   0.834   7.905   5.242
  868SOL    HW114635   0.887   7.989   5.233
  868SOL    HW214636   0.739   7.929   5.263
  869SOL     OW14637   7.336   1.553   1.390
  869SOL    HW114638   7.284   1.538   1.474
  869SOL    HW214639   7.277   1.597   1.322
  870SOL     OW14640   6.017   2.091   1.605
  870SOL    HW114641   5.920   2.110   1.585
  870SOL    HW214642   6.050   2.158   1.672
  871SOL     OW14643   0.435   3.523   5.893
  871SOL    HW114644   0.359   3.492   5.836
  871SOL    HW214645   0.416   3.615   5.928
  872SOL     OW14646   1.073   5.539   5.811
  872SOL    HW114647   1.069   5.547   5.910
  872SOL    HW214648   1.091   5.444   5.786
  873SOL     OW14649   4.036   6.472   1.164
  873SOL    HW114650   3.957   6.416   1.188
  873SOL    HW214651   4.103   6.469   1.237
  874SOL     OW14652   4.426   6.017   1.873
  874SOL    HW114653   4.463   5.941   1.819
  874SOL    HW214654   4.496   6.051   1.935
  875SOL     OW14655   0.946   4.666   6.767
  875SOL    HW114656   0.860   4.714   6.784
  875SOL    HW214657   1.006   4.723   6.711
  876SOL     OW14658   3.753   1.846   5.870
  876SOL    HW114659   3.677   1.818   5.812
  876SOL    HW214660   3.839   1.809   5.835
  877SOL     OW14661   5.415   3.353   1.408
  877SOL    HW114662   5.395   3.288   1.482
  877SOL    HW214663   5.493   3.409   1.434
  878SOL     OW14664   7.592   3.797   1.181
  878SOL    HW114665   7.680   3.802   1.228
  878SOL    HW214666   7.592   3.861   1.104
  879SOL     OW14667   1.344   8.292   7.138
  879SOL    HW114668   1.279   8.272   7.211
  879SOL    HW214669   1.318   8.242   7.055
  880SOL     OW14670   3.432   4.814   0.858
  880SOL    HW114671   3.459   4.907   0.883
  880SOL    HW214672   3.452   4.752   0.933
  881SOL     OW14673   2.656   5.194   0.487
  881SOL    HW114674   2.664   5.287   0.523
  881SOL    HW214675   2.689   5.192   0.393
  882SOL     OW14676   5.729   4.228   6.941
  882SOL    HW114677   5.762   4.311   6.987
  882SOL    HW214678   5.714   4.248   6.844
  883SOL     OW14679   5.985   5.962   5.174
  883SOL    HW114680   6.047   5.888   5.200
  883SOL    HW214681   6.020   6.008   5.093
  884SOL     OW14682   1.568   7.955   0.995
  884SOL    HW114683   1.533   7.956   1.089
  884SOL    HW214684   1.668   7.956   0.997
  885SOL     OW14685   5.083   8.252   1.434
  885SOL    HW114686   5.059   8.219   1.526
  885SOL    HW214687   5.086   8.175   1.371
  886SOL     OW14688   4.397   2.801   1.453
  886SOL    HW114689   4.434   2.731   1.514
  886SOL    HW214690   4.339   2.758   1.384
  887SOL     OW14691   9.094   6.923   6.822
  887SOL    HW114692   9.011   6.947   6.873
  887SOL    HW214693   9.113   6.995   6.755
  888SOL     OW14694   1.451   5.337   6.987
  888SOL    HW114695   1.502   5.423   6.997
  888SOL    HW214696   1.429   5.300   7.077
  889SOL     OW14697   6.368   2.482   6.033
  889SOL    HW114698   6.407   2.422   5.964
  889SOL    HW214699   6.305   2.429   6.090
  890SOL     OW14700   1.122   7.551   1.571
  890SOL    HW114701   1.113   7.603   1.656
  890SOL    HW214702   1.131   7.453   1.592
  891SOL     OW14703   2.770   0.145   1.120
  891SOL    HW114704   2.679   0.154   1.161
  891SOL    HW214705   2.839   0.155   1.192
  892SOL     OW14706   5.826   7.946   2.128
  892SOL    HW114707   5.805   8.013   2.057
  892SOL    HW214708   5.766   7.960   2.206
  893SOL     OW14709   6.576   6.255   1.009
  893SOL    HW114710   6.551   6.186   1.077
  893SOL    HW214711   6.654   6.308   1.043
  894SOL     OW14712   8.166   5.102   0.856
  894SOL    HW114713   8.099   5.062   0.919
  894SOL    HW214714   8.249   5.125   0.906
  895SOL     OW14715   0.284   5.227   1.864
  895SOL    HW114716   0.228   5.306   1.839
  895SOL    HW214717   0.292   5.223   1.964
  896SOL     OW14718   2.651   0.076   0.485
  896SOL    HW114719   2.632   0.158   0.538
  896SOL    HW214720   2.585   0.004   0.508
  897SOL     OW14721   6.105   6.389   0.515
  897SOL    HW114722   6.141   6.375   0.608
  897SOL    HW214723   6.165   6.344   0.449
  898SOL     OW14724   4.263   3.586   1.177
  898SOL    HW114725   4.168   3.615   1.186
  898SOL    HW214726   4.319   3.634   1.245
  899SOL     OW14727   0.360   8.139   1.530
  899SOL    HW114728   0.335   8.090   1.614
  899SOL    HW214729   0.357   8.238   1.548
  900SOL     OW14730   8.685   4.977   6.659
  900SOL    HW114731   8.631   4.893   6.657
  900SOL    HW214732   8.694   5.009   6.754
  901SOL     OW14733   9.197   2.808   6.903
  901SOL    HW114734   9.173   2.900   6.935
  901SOL    HW214735   9.117   2.749   6.909
  902SOL     OW14736   1.500   0.187   6.635
  902SOL    HW114737   1.484   0.122   6.561
  902SOL    HW214738   1.559   0.145   6.704
  903SOL     OW14739   7.105   0.124   6.025
  903SOL    HW114740   7.057   0.090   5.943
  903SOL    HW214741   7.086   0.221   6.036
  904SOL     OW14742   1.365   7.749   1.496
  904SOL    HW114743   1.366   7.649   1.486
  904SOL    HW214744   1.458   7.782   1.510
  905SOL     OW14745   9.375   1.569   6.518
  905SOL    HW114746   9.310   1.601   6.449
  905SOL    HW214747   9.421   1.648   6.560
  906SOL     OW14748   7.569   2.358   6.324
  906SOL    HW114749   7.601   2.357   6.229
  906SOL    HW214750   7.648   2.369   6.386
  907SOL     OW14751   0.844   4.742   5.311
  907SOL    HW114752   0.855   4.647   5.340
  907SOL    HW214753   0.926   4.772   5.261
  908SOL     OW14754   3.495   7.489   2.547
  908SOL    HW114755   3.576   7.433   2.568
  908SOL    HW214756   3.514   7.584   2.570
  909SOL     OW14757   6.351   0.943   6.706
  909SOL    HW114758   6.388   1.018   6.651
  909SOL    HW214759   6.290   0.888   6.650
  910SOL     OW14760   8.708   3.103   6.859
  910SOL    HW114761   8.629   3.146   6.816
  910SOL    HW214762   8.686   3.008   6.882
  911SOL     OW14763   0.835   7.505   5.708
  911SOL    HW114764   0.926   7.486   5.746
  911SOL    HW214765   0.765   7.477   5.773
  912SOL     OW14766   0.985   5.701   0.645
  912SOL    HW114767   1.003   5.782   0.701
  912SOL    HW214768   0.971   5.621   0.705
  913SOL     OW14769   1.570   6.078   7.007
  913SOL    HW114770   1.514   6.161   7.006
  913SOL    HW214771   1.620   6.070   6.921
  914SOL     OW14772   6.861   6.550   7.007
  914SOL    HW114773   6.899   6.567   6.916
  914SOL    HW214774   6.764   6.576   7.009
  915SOL     OW14775   7.521   6.733   1.219
  915SOL    HW114776   7.457   6.800   1.256
  915SOL    HW214777   7.558   6.765   1.132
  916SOL     OW14778   5.429   0.105   1.542
  916SOL    HW114779   5.413   0.132   1.636
  916SOL    HW214780   5.502   0.037   1.538
  917SOL     OW14781   4.992   7.282   6.114
  917SOL    HW114782   5.019   7.323   6.027
  917SOL    HW214783   4.912   7.224   6.100
  918SOL     OW14784   6.472   3.016   0.651
  918SOL    HW114785   6.426   3.098   0.685
  918SOL    HW214786   6.511   3.034   0.561
  919SOL     OW14787   3.316   2.361   1.156
  919SOL    HW114788   3.232   2.407   1.185
  919SOL    HW214789   3.301   2.317   1.067
  920SOL     OW14790   5.404   8.065   1.029
  920SOL    HW114791   5.384   7.988   1.089
  920SOL    HW214792   5.320   8.116   1.011
  921SOL     OW14793   3.966   5.616   1.620
  921SOL    HW114794   4.020   5.542   1.660
  921SOL    HW214795   3.972   5.611   1.520
  922SOL     OW14796   1.296   5.956   5.404
  922SOL    HW114797   1.254   5.939   5.315
  922SOL    HW214798   1.282   6.051   5.431
  923SOL     OW14799   6.992   1.751   1.987
  923SOL    HW114800   6.892   1.758   1.983
  923SOL    HW214801   7.031   1.793   1.906
  924SOL     OW14802   1.187   5.358   6.845
  924SOL    HW114803   1.187   5.405   6.757
  924SOL    HW214804   1.275   5.374   6.891
  925SOL     OW14805   3.750   1.436   1.123
  925SOL    HW114806   3.817   1.497   1.080
  925SOL    HW214807   3.692   1.489   1.185
  926SOL     OW14808   8.662   7.864   1.727
  926SOL    HW114809   8.565   7.889   1.722
  926SOL    HW214810   8.674   7.773   1.686
  927SOL     OW14811   2.654   7.725   0.565
  927SOL    HW114812   2.659   7.697   0.469
  927SOL    HW214813   2.737   7.695   0.613
  928SOL     OW14814   2.952   6.672   6.258
  928SOL    HW114815   2.918   6.763   6.237
  928SOL    HW214816   3.049   6.678   6.283
  929SOL     OW14817   8.273   2.809   1.687
  929SOL    HW114818   8.178   2.829   1.708
  929SOL    HW214819   8.300   2.723   1.731
  930SOL     OW14820   4.404   8.429   5.565
  930SOL    HW114821   4.308   8.421   5.591
  930SOL    HW214822   4.414   8.403   5.469
  931SOL     OW14823   5.092   4.675   1.944
  931SOL    HW114824   5.085   4.580   1.975
  931SOL    HW214825   5.041   4.734   2.006
  932SOL     OW14826   3.769   4.560   1.165
  932SOL    HW114827   3.729   4.470   1.182
  932SOL    HW214828   3.829   4.585   1.241
  933SOL     OW14829   8.911   7.443   0.900
  933SOL    HW114830   8.949   7.375   0.837
  933SOL    HW214831   8.843   7.399   0.959
  934SOL     OW14832   5.720   1.369   1.445
  934SOL    HW114833   5.758   1.277   1.443
  934SOL    HW214834   5.642   1.371   1.507
  935SOL     OW14835   7.183   6.150   6.327
  935SOL    HW114836   7.251   6.131   6.256
  935SOL    HW214837   7.193   6.083   6.401
  936SOL     OW14838   5.083   7.161   6.364
  936SOL    HW114839   5.083   7.198   6.271
  936SOL    HW214840   5.146   7.084   6.369
  937SOL     OW14841   2.613   0.593   5.846
  937SOL    HW114842   2.519   0.616   5.868
  937SOL    HW214843   2.619   0.498   5.816
  938SOL     OW14844   0.894   7.023   1.456
  938SOL    HW114845   0.952   7.022   1.538
  938SOL    HW214846   0.861   7.117   1.441
  939SOL     OW14847   8.607   0.739   1.410
  939SOL    HW114848   8.661   0.677   1.467
  939SOL    HW214849   8.666   0.781   1.341
  940SOL     OW14850   8.048   3.883   5.839
  940SOL    HW114851   7.968   3.832   5.871
  940SOL    HW214852   8.069   3.857   5.745
  941SOL     OW14853   6.161   3.868   6.715
  941SOL    HW114854   6.127   3.871   6.809
  941SOL    HW214855   6.225   3.791   6.705
  942SOL     OW14856   4.506   2.217   1.614
  942SOL    HW114857   4.574   2.254   1.678
  942SOL    HW214858   4.543   2.134   1.572
  943SOL     OW14859   2.056   4.838   5.522
  943SOL    HW114860   2.065   4.750   5.569
  943SOL    HW214861   2.053   4.823   5.423
  944SOL     OW14862   2.600   4.376   0.956
  944SOL    HW114863   2.672   4.315   0.989
  944SOL    HW214864   2.612   4.467   0.995
  945SOL     OW14865   5.030   0.011   6.525
  945SOL    HW114866   4.960  -0.048   6.566
  945SOL    HW214867   4.997   0.105   6.523
  946SOL     OW14868   6.868   5.453   6.437
  946SOL    HW114869   6.908   5.426   6.349
  946SOL    HW214870   6.788   5.510   6.421
  947SOL     OW14871   4.303   4.293   1.347
  947SOL    HW114872   4.322   4.364   1.415
  947SOL    HW214873   4.386   4.275   1.295
  948SOL     OW14874   6.465   4.483   0.884
  948SOL    HW114875   6.537   4.546   0.857
  948SOL    HW214876   6.504   4.393   0.901
  949SOL     OW14877   0.216   5.451   1.254
  949SOL    HW114878   0.196   5.472   1.350
  949SOL    HW214879   0.218   5.535   1.201
  950SOL     OW14880   1.002   3.266   1.322
  950SOL    HW114881   0.947   3.273   1.239
  950SOL    HW214882   0.943   3.281   1.402
  951SOL     OW14883   8.281   8.010   6.515
  951SOL    HW114884   8.195   8.010   6.567
  951SOL    HW214885   8.275   7.942   6.441
  952SOL     OW14886   0.490   7.968   7.112
  952SOL    HW114887   0.406   7.939   7.158
  952SOL    HW214888   0.476   7.968   7.013
  953SOL     OW14889   3.220   0.740   7.123
  953SOL    HW114890   3.301   0.762   7.177
  953SOL    HW214891   3.144   0.799   7.151
  954SOL     OW14892   6.949  -0.026   6.207
  954SOL    HW114893   7.027   0.035   6.192
  954SOL    HW214894   6.981  -0.120   6.215
  955SOL     OW14895   9.531   5.678   0.653
  955SOL    HW114896   9.477   5.697   0.735
  955SOL    HW214897   9.539   5.580   0.640
  956SOL     OW14898   8.341   4.792   5.998
  956SOL    HW114899   8.321   4.743   5.913
  956SOL    HW214900   8.387   4.731   6.062
  957SOL     OW14901   0.185   6.467   5.259
  957SOL    HW114902   0.098   6.451   5.212
  957SOL    HW214903   0.260   6.465   5.192
  958SOL     OW14904   3.696   6.829   6.004
  958SOL    HW114905   3.666   6.771   6.080
  958SOL    HW214906   3.617   6.856   5.950
  959SOL     OW14907   2.010   4.941   5.985
  959SOL    HW114908   1.995   4.967   5.890
  959SOL    HW214909   2.044   4.847   5.989
  960SOL     OW14910   6.009   1.791   1.296
  960SOL    HW114911   5.974   1.699   1.313
  960SOL    HW214912   6.055   1.825   1.378
  961SOL     OW14913   2.106   4.765   0.612
  961SOL    HW114914   2.097   4.726   0.521
  961SOL    HW214915   2.191   4.732   0.654
  962SOL     OW14916   3.341   2.419   3.028
  962SOL    HW114917   3.364   2.477   2.950
  962SOL    HW214918   3.394   2.449   3.108
  963SOL     OW14919   2.366   3.906   6.880
  963SOL    HW114920   2.315   3.872   6.959
  963SOL    HW214921   2.394   4.001   6.896
  964SOL     OW14922   8.800   3.390   6.632
  964SOL    HW114923   8.771   3.474   6.587
  964SOL    HW214924   8.772   3.392   6.728
  965SOL     OW14925   6.187   6.031   6.337
  965SOL    HW114926   6.114   5.983   6.289
  965SOL    HW214927   6.165   6.037   6.434
  966SOL     OW14928   9.484   7.938   1.362
  966SOL    HW114929   9.447   7.923   1.271
  966SOL    HW214930   9.483   8.036   1.383
  967SOL     OW14931   8.694   6.238   1.252
  967SOL    HW114932   8.661   6.154   1.209
  967SOL    HW214933   8.754   6.214   1.329
  968SOL     OW14934   4.778   4.809   5.683
  968SOL    HW114935   4.861   4.852   5.719
  968SOL    HW214936   4.728   4.876   5.629
  969SOL     OW14937   1.298   7.486   6.319
  969SOL    HW114938   1.217   7.542   6.302
  969SOL    HW214939   1.306   7.466   6.416
  970SOL     OW14940   4.333   1.499   6.277
  970SOL    HW114941   4.279   1.417   6.258
  970SOL    HW214942   4.396   1.516   6.201
  971SOL     OW14943   1.655   8.403   5.303
  971SOL    HW114944   1.745   8.415   5.263
  971SOL    HW214945   1.603   8.337   5.248
  972SOL     OW14946   3.066   1.924   2.152
  972SOL    HW114947   3.044   1.900   2.057
  972SOL    HW214948   3.135   1.997   2.153
  973SOL     OW14949   6.942   0.845   0.999
  973SOL    HW114950   6.912   0.754   0.972
  973SOL    HW214951   6.955   0.901   0.917
  974SOL     OW14952   9.423   5.229   6.179
  974SOL    HW114953   9.431   5.327   6.198
  974SOL    HW214954   9.410   5.180   6.265
  975SOL     OW14955   7.824   3.566   6.824
  975SOL    HW114956   7.784   3.486   6.869
  975SOL    HW214957   7.888   3.537   6.754
  976SOL     OW14958   4.834   5.768   0.662
  976SOL    HW114959   4.764   5.822   0.615
  976SOL    HW214960   4.903   5.829   0.701
  977SOL     OW14961   6.727   1.465   0.584
  977SOL    HW114962   6.668   1.423   0.654
  977SOL    HW214963   6.769   1.394   0.528
  978SOL     OW14964   4.513   7.765   6.174
  978SOL    HW114965   4.598   7.755   6.123
  978SOL    HW214966   4.464   7.678   6.173
  979SOL     OW14967   2.592   5.332   6.297
  979SOL    HW114968   2.562   5.417   6.341
  979SOL    HW214969   2.688   5.341   6.271
  980SOL     OW14970   0.864   5.624   6.645
  980SOL    HW114971   0.962   5.637   6.633
  980SOL    HW214972   0.848   5.555   6.716
  981SOL     OW14973   3.147   1.657   2.199
  981SOL    HW114974   3.121   1.753   2.190
  981SOL    HW214975   3.234   1.641   2.152
  982SOL     OW14976   7.182   1.026   0.567
  982SOL    HW114977   7.237   1.106   0.591
  982SOL    HW214978   7.241   0.958   0.522
  983SOL     OW14979   9.524   5.632   0.934
  983SOL    HW114980   9.511   5.534   0.950
  983SOL    HW214981   9.450   5.683   0.976
  984SOL     OW14982   2.521   4.325   1.642
  984SOL    HW114983   2.605   4.351   1.593
  984SOL    HW214984   2.542   4.255   1.710
  985SOL     OW14985   9.026   5.194   7.115
  985SOL    HW114986   9.003   5.234   7.026
  985SOL    HW214987   8.957   5.219   7.182
  986SOL     OW14988   4.848   6.032   6.582
  986SOL    HW114989   4.882   6.018   6.489
  986SOL    HW214990   4.821   5.945   6.622
  987SOL     OW14991   5.750   7.478   0.546
  987SOL    HW114992   5.697   7.462   0.462
  987SOL    HW214993   5.688   7.475   0.625
  988SOL     OW14994   1.297   2.933   6.208
  988SOL    HW114995   1.356   2.960   6.132
  988SOL    HW214996   1.232   3.007   6.227
  989SOL     OW14997   1.640   6.585   5.982
  989SOL    HW114998   1.603   6.667   5.938
  989SOL    HW214999   1.633   6.595   6.081
  990SOL     OW15000   4.671   5.446   0.892
  990SOL    HW115001   4.690   5.537   0.930
  990SOL    HW215002   4.734   5.380   0.933
  991SOL     OW15003   2.107   5.977   6.510
  991SOL    HW115004   2.022   5.982   6.458
  991SOL    HW215005   2.128   6.067   6.549
  992SOL     OW15006   6.147   1.818   6.274
  992SOL    HW115007   6.148   1.827   6.174
  992SOL    HW215008   6.228   1.863   6.311
  993SOL     OW15009   0.837   0.996   6.188
  993SOL    HW115010   0.845   1.076   6.128
  993SOL    HW215011   0.909   1.000   6.257
  994SOL     OW15012   0.472   0.298   6.974
  994SOL    HW115013   0.540   0.337   6.912
  994SOL    HW215014   0.515   0.275   7.061
  995SOL     OW15015   4.479   2.864   6.851
  995SOL    HW115016   4.461   2.809   6.932
  995SOL    HW215017   4.509   2.804   6.776
  996SOL     OW15018   1.550   7.716   6.753
  996SOL    HW115019   1.497   7.637   6.722
  996SOL    HW215020   1.596   7.759   6.675
  997SOL     OW15021   5.523   8.311   7.014
  997SOL    HW115022   5.548   8.365   7.095
  997SOL    HW215023   5.522   8.371   6.934
  998SOL     OW15024   7.186   7.179   1.038
  998SOL    HW115025   7.167   7.095   0.988
  998SOL    HW215026   7.128   7.253   1.003
  999SOL     OW15027   6.668   4.405   6.313
  999SOL    HW115028   6.753   4.360   6.341
  999SOL    HW215029   6.681   4.504   6.311
 1000SOL     OW15030   0.618   6.907   6.162
 1000SOL    HW115031   0.627   6.846   6.083
 1000SOL    HW215032   0.679   6.874   6.235
 1001SOL     OW15033   0.640   7.652   0.692
 1001SOL    HW115034   0.739   7.643   0.680
 1001SOL    HW215035   0.613   7.747   0.677
 1002SOL     OW15036   8.733   7.760   0.732
 1002SOL    HW115037   8.695   7.669   0.752
 1002SOL    HW215038   8.832   7.757   0.738
 1003SOL     OW15039   8.427   6.991   2.094
 1003SOL    HW115040   8.339   7.036   2.076
 1003SOL    HW215041   8.459   7.017   2.185
 1004SOL     OW15042   2.581   0.772   6.566
 1004SOL    HW115043   2.579   0.672   6.567
 1004SOL    HW215044   2.649   0.805   6.631
 1005SOL     OW15045   7.714   8.127   0.890
 1005SOL    HW115046   7.804   8.084   0.877
 1005SOL    HW215047   7.727   8.223   0.917
 1006SOL     OW15048   2.309   4.329   1.471
 1006SOL    HW115049   2.233   4.320   1.535
 1006SOL    HW215050   2.395   4.332   1.521
 1007SOL     OW15051   4.003   7.805   0.850
 1007SOL    HW115052   4.038   7.730   0.905
 1007SOL    HW215053   3.922   7.844   0.894
 1008SOL     OW15054   6.203   1.931   0.922
 1008SOL    HW115055   6.145   1.923   0.841
 1008SOL    HW215056   6.270   1.857   0.922
 1009SOL     OW15057   1.229   2.167   6.479
 1009SOL    HW115058   1.287   2.236   6.436
 1009SOL    HW215059   1.134   2.200   6.482
 1010SOL     OW15060   4.286   3.949   2.359
 1010SOL    HW115061   4.293   3.870   2.419
 1010SOL    HW215062   4.375   3.994   2.353
 1011SOL     OW15063   0.146   0.521   0.529
 1011SOL    HW115064   0.125   0.615   0.500
 1011SOL    HW215065   0.177   0.468   0.451
 1012SOL     OW15066   7.859   5.808   5.541
 1012SOL    HW115067   7.929   5.852   5.485
 1012SOL    HW215068   7.788   5.875   5.563
 1013SOL     OW15069   8.766   7.376   1.701
 1013SOL    HW115070   8.819   7.351   1.782
 1013SOL    HW215071   8.673   7.340   1.711
 1014SOL     OW15072   9.173   6.534   1.035
 1014SOL    HW115073   9.084   6.488   1.034
 1014SOL    HW215074   9.160   6.633   1.045
 1015SOL     OW15075   5.150   7.647   1.595
 1015SOL    HW115076   5.091   7.610   1.524
 1015SOL    HW215077   5.211   7.575   1.629
 1016SOL     OW15078   8.618   6.231   5.193
 1016SOL    HW115079   8.555   6.254   5.118
 1016SOL    HW215080   8.702   6.193   5.155
 1017SOL     OW15081   4.740   4.281   0.469
 1017SOL    HW115082   4.838   4.271   0.455
 1017SOL    HW215083   4.714   4.235   0.554
 1018SOL     OW15084   7.642   4.854   1.651
 1018SOL    HW115085   7.697   4.803   1.717
 1018SOL    HW215086   7.703   4.907   1.591
 1019SOL     OW15087   5.836   5.415   1.125
 1019SOL    HW115088   5.750   5.438   1.170
 1019SOL    HW215089   5.871   5.329   1.163
 1020SOL     OW15090   3.522   3.126   0.978
 1020SOL    HW115091   3.449   3.179   0.935
 1020SOL    HW215092   3.551   3.171   1.062
 1021SOL     OW15093   2.693   5.227   6.011
 1021SOL    HW115094   2.789   5.202   5.999
 1021SOL    HW215095   2.661   5.194   6.100
 1022SOL     OW15096   0.187   6.797   4.390
 1022SOL    HW115097   0.148   6.749   4.311
 1022SOL    HW215098   0.117   6.853   4.434
 1023SOL     OW15099   2.433   8.320   1.451
 1023SOL    HW115100   2.394   8.243   1.501
 1023SOL    HW215101   2.512   8.288   1.397
 1024SOL     OW15102   6.813   1.049   1.632
 1024SOL    HW115103   6.836   0.957   1.663
 1024SOL    HW215104   6.887   1.112   1.654
 1025SOL     OW15105   7.819   3.114   1.548
 1025SOL    HW115106   7.893   3.078   1.493
 1025SOL    HW215107   7.822   3.073   1.640
 1026SOL     OW15108   4.634   1.196   6.596
 1026SOL    HW115109   4.656   1.200   6.693
 1026SOL    HW215110   4.718   1.177   6.544
 1027SOL     OW15111   6.926   2.722   6.908
 1027SOL    HW115112   6.992   2.767   6.968
 1027SOL    HW215113   6.919   2.626   6.933
 1028SOL     OW15114   9.108   6.573   0.692
 1028SOL    HW115115   9.061   6.619   0.617
 1028SOL    HW215116   9.205   6.565   0.672
 1029SOL     OW15117   2.959   0.941   1.385
 1029SOL    HW115118   2.920   0.902   1.302
 1029SOL    HW215119   2.894   1.005   1.426
 1030SOL     OW15120   3.859   3.161   6.395
 1030SOL    HW115121   3.776   3.107   6.380
 1030SOL    HW215122   3.934   3.124   6.341
 1031SOL     OW15123   5.524   4.369   6.268
 1031SOL    HW115124   5.484   4.278   6.256
 1031SOL    HW215125   5.540   4.410   6.179
 1032SOL     OW15126   5.286   7.644   1.125
 1032SOL    HW115127   5.248   7.640   1.032
 1032SOL    HW215128   5.362   7.709   1.126
 1033SOL     OW15129   5.700   6.170   1.764
 1033SOL    HW115130   5.637   6.185   1.689
 1033SOL    HW215131   5.786   6.133   1.728
 1034SOL     OW15132   4.899   0.872   1.654
 1034SOL    HW115133   4.817   0.815   1.662
 1034SOL    HW215134   4.976   0.814   1.626
 1035SOL     OW15135   0.197   8.138   7.141
 1035SOL    HW115136   0.119   8.107   7.195
 1035SOL    HW215137   0.270   8.168   7.202
 1036SOL     OW15138   4.616   0.189   6.420
 1036SOL    HW115139   4.630   0.211   6.323
 1036SOL    HW215140   4.572   0.099   6.427
 1037SOL     OW15141   9.290   4.651   5.901
 1037SOL    HW115142   9.295   4.613   5.808
 1037SOL    HW215143   9.382   4.673   5.932
 1038SOL     OW15144   4.776   1.534   2.364
 1038SOL    HW115145   4.816   1.623   2.385
 1038SOL    HW215146   4.848   1.466   2.356
 1039SOL     OW15147   0.691   7.647   6.018
 1039SOL    HW115148   0.701   7.564   5.964
 1039SOL    HW215149   0.606   7.642   6.071
 1040SOL     OW15150   0.222   0.231   1.118
 1040SOL    HW115151   0.283   0.240   1.197
 1040SOL    HW215152   0.277   0.228   1.035
 1041SOL     OW15153   8.596   0.981   5.686
 1041SOL    HW115154   8.648   0.896   5.695
 1041SOL    HW215155   8.553   0.984   5.596
 1042SOL     OW15156   6.878   4.968   6.081
 1042SOL    HW115157   6.900   4.896   6.015
 1042SOL    HW215158   6.918   5.054   6.051
 1043SOL     OW15159   3.026   0.620   2.053
 1043SOL    HW115160   3.016   0.643   2.150
 1043SOL    HW215161   3.116   0.579   2.038
 1044SOL     OW15162   7.382   2.459   7.147
 1044SOL    HW115163   7.407   2.441   7.242
 1044SOL    HW215164   7.424   2.390   7.088
 1045SOL     OW15165   5.264   5.010   6.324
 1045SOL    HW115166   5.238   5.071   6.250
 1045SOL    HW215167   5.364   5.003   6.329
 1046SOL     OW15168   1.336   3.210   0.747
 1046SOL    HW115169   1.369   3.128   0.699
 1046SOL    HW215170   1.412   3.253   0.796
 1047SOL     OW15171   2.489   1.589   6.919
 1047SOL    HW115172   2.415   1.582   6.852
 1047SOL    HW215173   2.526   1.682   6.920
 1048SOL     OW15174   9.013   5.163   5.817
 1048SOL    HW115175   8.949   5.172   5.740
 1048SOL    HW215176   8.962   5.172   5.903
 1049SOL     OW15177   9.237   6.863   5.737
 1049SOL    HW115178   9.329   6.851   5.700
 1049SOL    HW215179   9.219   6.792   5.806
 1050SOL     OW15180   1.865   6.249   0.828
 1050SOL    HW115181   1.936   6.287   0.888
 1050SOL    HW215182   1.908   6.202   0.752
 1051SOL     OW15183   5.710   0.429   5.295
 1051SOL    HW115184   5.772   0.479   5.234
 1051SOL    HW215185   5.644   0.378   5.240
 1052SOL     OW15186   8.757   7.640   1.388
 1052SOL    HW115187   8.735   7.632   1.485
 1052SOL    HW215188   8.674   7.660   1.336
 1053SOL     OW15189   2.985   0.676   6.644
 1053SOL    HW115190   2.940   0.613   6.582
 1053SOL    HW215191   2.917   0.737   6.686
 1054SOL     OW15192   9.303   8.302   5.935
 1054SOL    HW115193   9.272   8.228   5.874
 1054SOL    HW215194   9.231   8.321   6.003
 1055SOL     OW15195   8.456   2.332   6.687
 1055SOL    HW115196   8.495   2.250   6.645
 1055SOL    HW215197   8.377   2.307   6.743
 1056SOL     OW15198   9.289   0.526   6.478
 1056SOL    HW115199   9.337   0.508   6.393
 1056SOL    HW215200   9.354   0.561   6.546
 1057SOL     OW15201   0.731   1.303   1.665
 1057SOL    HW115202   0.668   1.253   1.723
 1057SOL    HW215203   0.680   1.358   1.599
 1058SOL     OW15204   6.186   5.777   1.223
 1058SOL    HW115205   6.273   5.731   1.239
 1058SOL    HW215206   6.204   5.868   1.185
 1059SOL     OW15207   0.124   1.596   1.293
 1059SOL    HW115208   0.216   1.606   1.333
 1059SOL    HW215209   0.120   1.645   1.206
 1060SOL     OW15210   3.954   2.620   1.329
 1060SOL    HW115211   3.927   2.546   1.391
 1060SOL    HW215212   3.889   2.626   1.253
 1061SOL     OW15213   7.953   3.541   0.813
 1061SOL    HW115214   7.881   3.579   0.755
 1061SOL    HW215215   8.024   3.610   0.827
 1062SOL     OW15216   4.818   5.772   6.729
 1062SOL    HW115217   4.885   5.766   6.803
 1062SOL    HW215218   4.733   5.730   6.759
 1063SOL     OW15219   4.164   8.231   1.742
 1063SOL    HW115220   4.195   8.253   1.834
 1063SOL    HW215221   4.093   8.295   1.714
 1064SOL     OW15222   8.550   1.761   6.123
 1064SOL    HW115223   8.560   1.697   6.046
 1064SOL    HW215224   8.459   1.803   6.120
 1065SOL     OW15225   8.405   0.406   5.957
 1065SOL    HW115226   8.478   0.456   6.003
 1065SOL    HW215227   8.413   0.419   5.858
 1066SOL     OW15228   8.178   4.543   6.197
 1066SOL    HW115229   8.193   4.466   6.136
 1066SOL    HW215230   8.253   4.550   6.262
 1067SOL     OW15231   1.928   5.507   6.040
 1067SOL    HW115232   1.895   5.416   6.065
 1067SOL    HW215233   1.919   5.521   5.942
 1068SOL     OW15234   4.472   2.094   2.151
 1068SOL    HW115235   4.516   2.022   2.205
 1068SOL    HW215236   4.541   2.145   2.101
 1069SOL     OW15237   3.710   1.969   2.665
 1069SOL    HW115238   3.671   1.885   2.626
 1069SOL    HW215239   3.748   1.949   2.756
 1070SOL     OW15240   1.406   0.184   5.813
 1070SOL    HW115241   1.361   0.095   5.806
 1070SOL    HW215242   1.345   0.247   5.861
 1071SOL     OW15243   3.399   7.570   1.475
 1071SOL    HW115244   3.491   7.532   1.470
 1071SOL    HW215245   3.349   7.548   1.392
 1072SOL     OW15246   2.092   7.561   0.914
 1072SOL    HW115247   2.123   7.472   0.880
 1072SOL    HW215248   2.101   7.629   0.842
 1073SOL     OW15249   4.881   1.292   1.429
 1073SOL    HW115250   4.957   1.352   1.407
 1073SOL    HW215251   4.885   1.266   1.526
 1074SOL     OW15252   7.882   0.698   6.646
 1074SOL    HW115253   7.808   0.744   6.597
 1074SOL    HW215254   7.910   0.616   6.595
 1075SOL     OW15255   1.875   4.965   1.626
 1075SOL    HW115256   1.857   5.006   1.537
 1075SOL    HW215257   1.863   4.866   1.620
 1076SOL     OW15258   6.075   2.240   1.835
 1076SOL    HW115259   6.138   2.301   1.883
 1076SOL    HW215260   5.986   2.284   1.825
 1077SOL     OW15261   9.231   0.556   0.561
 1077SOL    HW115262   9.280   0.631   0.605
 1077SOL    HW215263   9.295   0.484   0.535
 1078SOL     OW15264   0.709   5.889   6.334
 1078SOL    HW115265   0.655   5.971   6.354
 1078SOL    HW215266   0.649   5.810   6.324
 1079SOL     OW15267   6.331   1.995   1.226
 1079SOL    HW115268   6.231   2.000   1.219
 1079SOL    HW215269   6.371   2.018   1.137
 1080SOL     OW15270   4.503   3.271   6.427
 1080SOL    HW115271   4.511   3.315   6.338
 1080SOL    HW215272   4.438   3.322   6.484
 1081SOL     OW15273   5.983   6.202   6.878
 1081SOL    HW115274   6.033   6.288   6.877
 1081SOL    HW215275   5.961   6.174   6.785
 1082SOL     OW15276   6.303   7.412   1.394
 1082SOL    HW115277   6.211   7.372   1.392
 1082SOL    HW215278   6.343   7.407   1.303
 1083SOL     OW15279   1.306   5.801   0.909
 1083SOL    HW115280   1.319   5.886   0.858
 1083SOL    HW215281   1.253   5.820   0.992
 1084SOL     OW15282   8.417   4.507   6.300
 1084SOL    HW115283   8.462   4.579   6.354
 1084SOL    HW215284   8.487   4.455   6.251
 1085SOL     OW15285   1.628   3.540   6.401
 1085SOL    HW115286   1.585   3.588   6.324
 1085SOL    HW215287   1.726   3.556   6.399
 1086SOL     OW15288   4.166   7.283   6.894
 1086SOL    HW115289   4.109   7.348   6.845
 1086SOL    HW215290   4.193   7.208   6.833
 1087SOL     OW15291   1.400   6.272   7.002
 1087SOL    HW115292   1.331   6.329   6.957
 1087SOL    HW215293   1.396   6.286   7.101
 1088SOL     OW15294   7.088   6.006   5.813
 1088SOL    HW115295   7.152   6.006   5.735
 1088SOL    HW215296   7.007   5.952   5.790
 1089SOL     OW15297   7.476   7.784   6.486
 1089SOL    HW115298   7.518   7.873   6.467
 1089SOL    HW215299   7.434   7.748   6.403
 1090SOL     OW15300   4.662   1.210   6.011
 1090SOL    HW115301   4.642   1.289   5.954
 1090SOL    HW215302   4.580   1.154   6.022
 1091SOL     OW15303   2.317   0.312   2.446
 1091SOL    HW115304   2.249   0.326   2.518
 1091SOL    HW215305   2.320   0.393   2.387
 1092SOL     OW15306   9.346   7.914   0.798
 1092SOL    HW115307   9.404   7.951   0.871
 1092SOL    HW215308   9.377   7.823   0.774
 1093SOL     OW15309   6.464   1.986   1.480
 1093SOL    HW115310   6.408   1.984   1.398
 1093SOL    HW215311   6.497   2.080   1.496
 1094SOL     OW15312   8.408   6.419   2.062
 1094SOL    HW115313   8.325   6.372   2.094
 1094SOL    HW215314   8.473   6.424   2.137
 1095SOL     OW15315   3.010   3.922   6.535
 1095SOL    HW115316   3.089   3.928   6.474
 1095SOL    HW215317   2.964   4.011   6.539
 1096SOL     OW15318   5.465   0.010   6.826
 1096SOL    HW115319   5.481   0.102   6.861
 1096SOL    HW215320   5.417   0.014   6.739
 1097SOL     OW15321   8.563   5.674   6.859
 1097SOL    HW115322   8.541   5.742   6.789
 1097SOL    HW215323   8.530   5.706   6.948
 1098SOL     OW15324   5.845   0.130   1.774
 1098SOL    HW115325   5.878   0.038   1.794
 1098SOL    HW215326   5.912   0.178   1.718
 1099SOL     OW15327   0.389   7.276   0.475
 1099SOL    HW115328   0.436   7.187   0.471
 1099SOL    HW215329   0.375   7.310   0.382
 1100SOL     OW15330   9.363   7.651   0.752
 1100SOL    HW115331   9.418   7.583   0.800
 1100SOL    HW215332   9.320   7.609   0.672
 1101SOL     OW15333   2.578   7.243   6.189
 1101SOL    HW115334   2.506   7.261   6.256
 1101SOL    HW215335   2.588   7.322   6.128
 1102SOL     OW15336   8.183   3.928   6.785
 1102SOL    HW115337   8.235   3.891   6.862
 1102SOL    HW215338   8.088   3.895   6.791
 1103SOL     OW15339   0.850   8.158   5.416
 1103SOL    HW115340   0.805   8.242   5.385
 1103SOL    HW215341   0.782   8.098   5.458
 1104SOL     OW15342   3.432   1.533   6.355
 1104SOL    HW115343   3.489   1.460   6.316
 1104SOL    HW215344   3.412   1.601   6.284
 1105SOL     OW15345   7.923   7.658   0.623
 1105SOL    HW115346   8.018   7.678   0.645
 1105SOL    HW215347   7.888   7.589   0.686
 1106SOL     OW15348   4.751   1.487   1.026
 1106SOL    HW115349   4.681   1.444   1.084
 1106SOL    HW215350   4.832   1.429   1.022
 1107SOL     OW15351   1.986   2.961   1.269
 1107SOL    HW115352   2.015   2.949   1.364
 1107SOL    HW215353   1.913   2.897   1.248
 1108SOL     OW15354   0.301   0.263   1.405
 1108SOL    HW115355   0.260   0.342   1.450
 1108SOL    HW215356   0.251   0.181   1.430
 1109SOL     OW15357   7.656   0.136   1.503
 1109SOL    HW115358   7.661   0.199   1.580
 1109SOL    HW215359   7.740   0.082   1.499
 1110SOL     OW15360   7.284   3.700   1.547
 1110SOL    HW115361   7.187   3.680   1.548
 1110SOL    HW215362   7.311   3.743   1.633
 1111SOL     OW15363   1.128   3.048   6.438
 1111SOL    HW115364   1.059   2.989   6.480
 1111SOL    HW215365   1.144   3.128   6.497
 1112SOL     OW15366   8.697   3.031   5.851
 1112SOL    HW115367   8.628   3.007   5.920
 1112SOL    HW215368   8.674   2.988   5.764
 1113SOL     OW15369   2.394   6.068   6.134
 1113SOL    HW115370   2.329   5.994   6.151
 1113SOL    HW215371   2.443   6.050   6.049
 1114SOL     OW15372   4.189   8.364   1.366
 1114SOL    HW115373   4.120   8.333   1.430
 1114SOL    HW215374   4.145   8.403   1.285
 1115SOL     OW15375   5.029   6.939   7.087
 1115SOL    HW115376   5.095   6.974   7.154
 1115SOL    HW215377   4.938   6.933   7.130
 1116SOL     OW15378   2.869   6.147   6.329
 1116SOL    HW115379   2.790   6.086   6.339
 1116SOL    HW215380   2.841   6.240   6.352
 1117SOL     OW15381   6.439   4.966   7.068
 1117SOL    HW115382   6.355   4.920   7.039
 1117SOL    HW215383   6.451   5.051   7.016
 1118SOL     OW15384   9.307   5.616   7.051
 1118SOL    HW115385   9.218   5.660   7.063
 1118SOL    HW215386   9.380   5.682   7.068
 1119SOL     OW15387   8.015   3.801   0.501
 1119SOL    HW115388   7.955   3.866   0.455
 1119SOL    HW215389   8.064   3.848   0.574
 1120SOL     OW15390   9.260   3.226   1.978
 1120SOL    HW115391   9.322   3.174   2.038
 1120SOL    HW215392   9.217   3.165   1.912
 1121SOL     OW15393   4.960   0.964   6.684
 1121SOL    HW115394   4.976   0.889   6.747
 1121SOL    HW215395   5.034   0.968   6.617
 1122SOL     OW15396   5.858   0.034   2.496
 1122SOL    HW115397   5.908   0.100   2.551
 1122SOL    HW215398   5.863  -0.056   2.539
 1123SOL     OW15399   8.067   4.079   0.842
 1123SOL    HW115400   8.103   4.170   0.825
 1123SOL    HW215401   8.122   4.011   0.794
 1124SOL     OW15402   4.652   1.308   0.710
 1124SOL    HW115403   4.617   1.401   0.721
 1124SOL    HW215404   4.752   1.311   0.701
 1125SOL     OW15405   1.808   8.177   1.230
 1125SOL    HW115406   1.761   8.241   1.169
 1125SOL    HW215407   1.885   8.223   1.273
 1126SOL     OW15408   3.029   5.180   6.688
 1126SOL    HW115409   2.960   5.250   6.674
 1126SOL    HW215410   3.031   5.154   6.785
 1127SOL     OW15411   9.172   1.497   1.688
 1127SOL    HW115412   9.108   1.507   1.611
 1127SOL    HW215413   9.126   1.520   1.773
 1128SOL     OW15414   6.703   2.759   6.139
 1128SOL    HW115415   6.762   2.690   6.182
 1128SOL    HW215416   6.756   2.842   6.124
 1129SOL     OW15417   4.768   6.854   2.307
 1129SOL    HW115418   4.755   6.758   2.330
 1129SOL    HW215419   4.749   6.911   2.387
 1130SOL     OW15420   1.515   3.591   7.015
 1130SOL    HW115421   1.472   3.552   7.096
 1130SOL    HW215422   1.535   3.519   6.949
 1131SOL     OW15423   8.059   1.105   7.148
 1131SOL    HW115424   8.150   1.063   7.138
 1131SOL    HW215425   8.038   1.117   7.245
 1132SOL     OW15426   9.235   1.924   6.427
 1132SOL    HW115427   9.289   1.937   6.510
 1132SOL    HW215428   9.141   1.956   6.443
 1133SOL     OW15429   4.221   6.428   6.649
 1133SOL    HW115430   4.205   6.523   6.673
 1133SOL    HW215431   4.157   6.400   6.577
 1134SOL     OW15432   5.035   4.891   5.852
 1134SOL    HW115433   5.070   4.797   5.849
 1134SOL    HW215434   5.061   4.940   5.769
 1135SOL     OW15435   3.889   1.513   0.485
 1135SOL    HW115436   3.979   1.532   0.446
 1135SOL    HW215437   3.880   1.414   0.500
 1136SOL     OW15438   7.397   6.535   1.940
 1136SOL    HW115439   7.394   6.551   2.039
 1136SOL    HW215440   7.416   6.621   1.893
 1137SOL     OW15441   6.089   3.864   6.978
 1137SOL    HW115442   5.998   3.845   6.940
 1137SOL    HW215443   6.119   3.786   7.032
 1138SOL     OW15444   7.303   5.391   6.632
 1138SOL    HW115445   7.381   5.447   6.604
 1138SOL    HW215446   7.219   5.446   6.627
 1139SOL     OW15447   3.626   3.293   1.921
 1139SOL    HW115448   3.627   3.367   1.987
 1139SOL    HW215449   3.634   3.205   1.969
 1140SOL     OW15450   5.505   0.389   1.646
 1140SOL    HW115451   5.412   0.352   1.654
 1140SOL    HW215452   5.502   0.473   1.591
 1141SOL     OW15453   3.858   3.815   1.055
 1141SOL    HW115454   3.899   3.792   0.966
 1141SOL    HW215455   3.785   3.881   1.041
 1142SOL     OW15456   4.091   7.575   0.616
 1142SOL    HW115457   4.108   7.512   0.692
 1142SOL    HW215458   4.153   7.653   0.624
 1143SOL     OW15459   0.574   1.925   6.317
 1143SOL    HW115460   0.596   2.022   6.329
 1143SOL    HW215461   0.541   1.910   6.223
 1144SOL     OW15462   2.389   6.565   0.835
 1144SOL    HW115463   2.331   6.628   0.783
 1144SOL    HW215464   2.434   6.615   0.909
 1145SOL     OW15465   2.270   4.223   0.616
 1145SOL    HW115466   2.358   4.212   0.570
 1145SOL    HW215467   2.269   4.164   0.697
 1146SOL     OW15468   3.364   4.758   0.472
 1146SOL    HW115469   3.317   4.738   0.558
 1146SOL    HW215470   3.437   4.824   0.489
 1147SOL     OW15471   8.626   1.854   6.572
 1147SOL    HW115472   8.659   1.776   6.625
 1147SOL    HW215473   8.606   1.825   6.478
 1148SOL     OW15474   6.731   2.384   0.758
 1148SOL    HW115475   6.708   2.454   0.825
 1148SOL    HW215476   6.723   2.293   0.800
 1149SOL     OW15477   4.710   6.230   7.088
 1149SOL    HW115478   4.762   6.259   7.168
 1149SOL    HW215479   4.746   6.275   7.007
 1150SOL     OW15480   2.235   1.619   1.584
 1150SOL    HW115481   2.220   1.642   1.680
 1150SOL    HW215482   2.257   1.702   1.533
 1151SOL     OW15483   8.218   5.628   6.713
 1151SOL    HW115484   8.241   5.613   6.617
 1151SOL    HW215485   8.134   5.682   6.720
 1152SOL     OW15486   1.155   5.425   6.118
 1152SOL    HW115487   1.056   5.435   6.106
 1152SOL    HW215488   1.194   5.514   6.143
 1153SOL     OW15489   6.616   4.683   0.798
 1153SOL    HW115490   6.595   4.775   0.833
 1153SOL    HW215491   6.663   4.690   0.710
 1154SOL     OW15492   3.792   1.161   1.268
 1154SOL    HW115493   3.764   1.240   1.214
 1154SOL    HW215494   3.840   1.095   1.209
 1155SOL     OW15495   6.366   6.116   6.157
 1155SOL    HW115496   6.445   6.165   6.193
 1155SOL    HW215497   6.309   6.084   6.232
 1156SOL     OW15498   3.748   2.564   2.428
 1156SOL    HW115499   3.676   2.608   2.481
 1156SOL    HW215500   3.833   2.563   2.481
 1157SOL     OW15501   5.706   6.284   5.569
 1157SOL    HW115502   5.682   6.194   5.606
 1157SOL    HW215503   5.755   6.271   5.482
 1158SOL     OW15504   4.145   1.155   0.701
 1158SOL    HW115505   4.067   1.123   0.647
 1158SOL    HW215506   4.147   1.105   0.788
 1159SOL     OW15507   8.783   1.553   6.897
 1159SOL    HW115508   8.767   1.579   6.802
 1159SOL    HW215509   8.714   1.487   6.926
 1160SOL     OW15510   0.572   7.856   6.273
 1160SOL    HW115511   0.651   7.917   6.266
 1160SOL    HW215512   0.499   7.902   6.325
 1161SOL     OW15513   8.545   1.749   0.547
 1161SOL    HW115514   8.456   1.762   0.505
 1161SOL    HW215515   8.584   1.838   0.571
 1162SOL     OW15516   1.853   3.303   1.010
 1162SOL    HW115517   1.911   3.221   1.016
 1162SOL    HW215518   1.860   3.342   0.918
 1163SOL     OW15519   4.458   0.674   6.144
 1163SOL    HW115520   4.362   0.659   6.122
 1163SOL    HW215521   4.466   0.707   6.239
 1164SOL     OW15522   6.075   0.355   0.760
 1164SOL    HW115523   6.062   0.371   0.662
 1164SOL    HW215524   6.135   0.425   0.798
 1165SOL     OW15525   3.189   6.503   5.556
 1165SOL    HW115526   3.143   6.492   5.468
 1165SOL    HW215527   3.270   6.560   5.545
 1166SOL     OW15528   0.608   7.737   5.377
 1166SOL    HW115529   0.600   7.822   5.326
 1166SOL    HW215530   0.544   7.669   5.340
 1167SOL     OW15531   4.442   5.195   0.657
 1167SOL    HW115532   4.379   5.256   0.610
 1167SOL    HW215533   4.392   5.116   0.693
 1168SOL     OW15534   1.905   5.289   5.518
 1168SOL    HW115535   1.960   5.266   5.598
 1168SOL    HW215536   1.825   5.229   5.513
 1169SOL     OW15537   2.697   6.724   6.947
 1169SOL    HW115538   2.708   6.820   6.971
 1169SOL    HW215539   2.744   6.667   7.014
 1170SOL     OW15540   9.554   8.315   1.657
 1170SOL    HW115541   9.593   8.401   1.623
 1170SOL    HW215542   9.514   8.331   1.747
 1171SOL     OW15543   6.795   5.384   6.048
 1171SOL    HW115544   6.798   5.298   5.997
 1171SOL    HW215545   6.886   5.405   6.083
 1172SOL     OW15546   4.770   5.295   5.847
 1172SOL    HW115547   4.730   5.205   5.866
 1172SOL    HW215548   4.709   5.347   5.787
 1173SOL     OW15549   1.203   5.678   6.426
 1173SOL    HW115550   1.242   5.647   6.339
 1173SOL    HW215551   1.123   5.735   6.408
 1174SOL     OW15552   8.955   5.635   1.418
 1174SOL    HW115553   9.042   5.678   1.443
 1174SOL    HW215554   8.879   5.690   1.453
 1175SOL     OW15555   9.384   1.230   0.532
 1175SOL    HW115556   9.301   1.264   0.575
 1175SOL    HW215557   9.360   1.168   0.458
 1176SOL     OW15558   6.940   3.598   6.341
 1176SOL    HW115559   6.972   3.641   6.256
 1176SOL    HW215560   6.916   3.503   6.322
 1177SOL     OW15561   4.003   1.642   2.721
 1177SOL    HW115562   3.919   1.669   2.769
 1177SOL    HW215563   4.013   1.542   2.725
 1178SOL     OW15564   8.714   4.304   2.050
 1178SOL    HW115565   8.717   4.382   1.987
 1178SOL    HW215566   8.806   4.279   2.076
 1179SOL     OW15567   1.932   0.005   2.072
 1179SOL    HW115568   1.964  -0.089   2.063
 1179SOL    HW215569   2.010   0.066   2.087
 1180SOL     OW15570   2.487   1.690   6.618
 1180SOL    HW115571   2.397   1.669   6.580
 1180SOL    HW215572   2.543   1.734   6.547
 1181SOL     OW15573   4.211   1.170   5.836
 1181SOL    HW115574   4.299   1.125   5.855
 1181SOL    HW215575   4.211   1.261   5.876
 1182SOL     OW15576   1.989   0.355   6.346
 1182SOL    HW115577   1.901   0.350   6.299
 1182SOL    HW215578   2.063   0.351   6.280
 1183SOL     OW15579   8.018   7.048   6.723
 1183SOL    HW115580   8.073   6.965   6.709
 1183SOL    HW215581   8.057   7.101   6.798
 1184SOL     OW15582   8.831   2.904   0.486
 1184SOL    HW115583   8.747   2.942   0.446
 1184SOL    HW215584   8.910   2.936   0.433
 1185SOL     OW15585   0.333   3.448   6.523
 1185SOL    HW115586   0.319   3.502   6.606
 1185SOL    HW215587   0.398   3.494   6.463
 1186SOL     OW15588   6.099   0.403   5.204
 1186SOL    HW115589   6.122   0.495   5.236
 1186SOL    HW215590   6.004   0.401   5.174
 1187SOL     OW15591   7.603   3.354   1.400
 1187SOL    HW115592   7.675   3.394   1.458
 1187SOL    HW215593   7.604   3.254   1.410
 1188SOL     OW15594   3.750   6.710   1.283
 1188SOL    HW115595   3.667   6.688   1.333
 1188SOL    HW215596   3.828   6.665   1.326
 1189SOL     OW15597   7.889   8.049   6.227
 1189SOL    HW115598   7.919   8.000   6.309
 1189SOL    HW215599   7.942   8.133   6.216
 1190SOL     OW15600   3.258   5.156   2.389
 1190SOL    HW115601   3.340   5.106   2.362
 1190SOL    HW215602   3.276   5.254   2.389
 1191SOL     OW15603   5.459   3.091   1.240
 1191SOL    HW115604   5.446   3.176   1.291
 1191SOL    HW215605   5.551   3.055   1.258
 1192SOL     OW15606   7.678   7.314   6.019
 1192SOL    HW115607   7.740   7.331   6.095
 1192SOL    HW215608   7.713   7.238   5.964
 1193SOL     OW15609   1.605   5.566   6.952
 1193SOL    HW115610   1.681   5.536   6.894
 1193SOL    HW215611   1.622   5.660   6.982
 1194SOL     OW15612   0.582   6.591   5.401
 1194SOL    HW115613   0.623   6.556   5.485
 1194SOL    HW215614   0.588   6.521   5.329
 1195SOL     OW15615   8.602   7.811   1.047
 1195SOL    HW115616   8.626   7.782   0.954
 1195SOL    HW215617   8.526   7.875   1.042
 1196SOL     OW15618   0.984   5.170   0.579
 1196SOL    HW115619   1.066   5.221   0.552
 1196SOL    HW215620   0.907   5.198   0.523
 1197SOL     OW15621   4.500   7.379   6.801
 1197SOL    HW115622   4.429   7.345   6.739
 1197SOL    HW215623   4.486   7.477   6.817
 1198SOL     OW15624   7.578   2.721   1.873
 1198SOL    HW115625   7.628   2.797   1.913
 1198SOL    HW215626   7.482   2.726   1.901
 1199SOL     OW15627   5.143   7.424   6.431
 1199SOL    HW115628   5.241   7.435   6.447
 1199SOL    HW215629   5.126   7.334   6.390
 1200SOL     OW15630   0.330   2.586   0.893
 1200SOL    HW115631   0.270   2.510   0.921
 1200SOL    HW215632   0.425   2.555   0.892
 1201SOL     OW15633   4.499   5.464   1.988
 1201SOL    HW115634   4.570   5.499   1.926
 1201SOL    HW215635   4.528   5.477   2.082
 1202SOL     OW15636   6.705   8.097   1.132
 1202SOL    HW115637   6.683   8.102   1.034
 1202SOL    HW215638   6.754   8.012   1.151
 1203SOL     OW15639   8.512   0.850   7.071
 1203SOL    HW115640   8.589   0.859   7.134
 1203SOL    HW215641   8.495   0.753   7.054
 1204SOL     OW15642   0.157   7.065   6.378
 1204SOL    HW115643   0.181   6.995   6.446
 1204SOL    HW215644   0.231   7.075   6.312
 1205SOL     OW15645   4.174   1.695   6.344
 1205SOL    HW115646   4.122   1.716   6.261
 1205SOL    HW215647   4.244   1.627   6.323
 1206SOL     OW15648   3.233   1.788   6.990
 1206SOL    HW115649   3.176   1.750   6.917
 1206SOL    HW215650   3.174   1.825   7.062
 1207SOL     OW15651   3.855   1.231   0.961
 1207SOL    HW115652   3.816   1.308   1.012
 1207SOL    HW215653   3.952   1.221   0.984
 1208SOL     OW15654   3.513   6.136   5.564
 1208SOL    HW115655   3.589   6.179   5.613
 1208SOL    HW215656   3.538   6.126   5.468
 1209SOL     OW15657   5.556   1.635   1.088
 1209SOL    HW115658   5.475   1.587   1.055
 1209SOL    HW215659   5.634   1.612   1.029
 1210SOL     OW15660   0.864   7.781   6.571
 1210SOL    HW115661   0.842   7.753   6.665
 1210SOL    HW215662   0.926   7.859   6.573
 1211SOL     OW15663   2.965   6.554   1.293
 1211SOL    HW115664   3.048   6.610   1.298
 1211SOL    HW215665   2.911   6.583   1.214
 1212SOL     OW15666   5.855   1.346   2.112
 1212SOL    HW115667   5.848   1.278   2.186
 1212SOL    HW215668   5.771   1.347   2.059
 1213SOL     OW15669   0.538   6.244   6.567
 1213SOL    HW115670   0.483   6.260   6.649
 1213SOL    HW215671   0.518   6.153   6.530
 1214SOL     OW15672   3.418   8.112   6.595
 1214SOL    HW115673   3.454   8.077   6.509
 1214SOL    HW215674   3.361   8.042   6.638
 1215SOL     OW15675   5.200   3.457   6.258
 1215SOL    HW115676   5.218   3.518   6.180
 1215SOL    HW215677   5.284   3.409   6.283
 1216SOL     OW15678   1.382   0.790   4.928
 1216SOL    HW115679   1.308   0.852   4.957
 1216SOL    HW215680   1.469   0.839   4.929
 1217SOL     OW15681   4.009   2.788   1.524
 1217SOL    HW115682   4.084   2.852   1.511
 1217SOL    HW215683   3.985   2.746   1.437
 1218SOL     OW15684   7.446   5.400   5.871
 1218SOL    HW115685   7.433   5.333   5.798
 1218SOL    HW215686   7.514   5.468   5.844
 1219SOL     OW15687   5.131   5.752   5.570
 1219SOL    HW115688   5.100   5.709   5.485
 1219SOL    HW215689   5.133   5.851   5.558
 1220SOL     OW15690   6.577   4.870   1.940
 1220SOL    HW115691   6.483   4.848   1.915
 1220SOL    HW215692   6.582   4.893   2.037
 1221SOL     OW15693   8.154   5.588   0.952
 1221SOL    HW115694   8.161   5.551   0.860
 1221SOL    HW215695   8.105   5.675   0.950
 1222SOL     OW15696   2.677   3.863   6.706
 1222SOL    HW115697   2.579   3.859   6.685
 1222SOL    HW215698   2.707   3.958   6.705
 1223SOL     OW15699   5.915   4.875   0.737
 1223SOL    HW115700   5.945   4.851   0.829
 1223SOL    HW215701   5.877   4.967   0.737
 1224SOL     OW15702   0.550   5.452   6.889
 1224SOL    HW115703   0.649   5.434   6.892
 1224SOL    HW215704   0.534   5.545   6.856
 1225SOL     OW15705   4.702   1.818   0.750
 1225SOL    HW115706   4.644   1.890   0.788
 1225SOL    HW215707   4.766   1.786   0.821
 1226SOL     OW15708   3.925   4.422   0.696
 1226SOL    HW115709   3.998   4.407   0.629
 1226SOL    HW215710   3.963   4.467   0.777
 1227SOL     OW15711   4.351   5.780   1.347
 1227SOL    HW115712   4.344   5.861   1.288
 1227SOL    HW215713   4.355   5.698   1.290
 1228SOL     OW15714   5.459   6.639   6.944
 1228SOL    HW115715   5.553   6.626   6.911
 1228SOL    HW215716   5.456   6.623   7.043
 1229SOL     OW15717   4.215   8.327   2.019
 1229SOL    HW115718   4.147   8.373   2.076
 1229SOL    HW215719   4.297   8.308   2.073
 1230SOL     OW15720   3.477   2.619   7.063
 1230SOL    HW115721   3.420   2.537   7.074
 1230SOL    HW215722   3.532   2.632   7.145
 1231SOL     OW15723   9.228   7.074   5.967
 1231SOL    HW115724   9.263   7.038   5.880
 1231SOL    HW215725   9.252   7.171   5.974
 1232SOL     OW15726   4.107   1.585   0.708
 1232SOL    HW115727   4.165   1.569   0.628
 1232SOL    HW215728   4.015   1.609   0.679
 1233SOL     OW15729   3.973   6.433   5.970
 1233SOL    HW115730   4.055   6.439   5.913
 1233SOL    HW215731   3.914   6.359   5.937
 1234SOL     OW15732   5.084   0.598   6.599
 1234SOL    HW115733   5.177   0.631   6.618
 1234SOL    HW215734   5.080   0.561   6.506
 1235SOL     OW15735   1.693   0.331   6.978
 1235SOL    HW115736   1.655   0.419   7.008
 1235SOL    HW215737   1.785   0.321   7.017
 1236SOL     OW15738   6.790   4.504   1.373
 1236SOL    HW115739   6.739   4.419   1.384
 1236SOL    HW215740   6.887   4.488   1.389
 1237SOL     OW15741   6.765   0.721   6.608
 1237SOL    HW115742   6.704   0.675   6.672
 1237SOL    HW215743   6.711   0.769   6.539
 1238SOL     OW15744   1.483   6.828   4.540
 1238SOL    HW115745   1.450   6.761   4.473
 1238SOL    HW215746   1.560   6.879   4.501
 1239SOL     OW15747   7.609   1.130   5.775
 1239SOL    HW115748   7.615   1.196   5.849
 1239SOL    HW215749   7.543   1.162   5.707
 1240SOL     OW15750   0.345   0.807   6.114
 1240SOL    HW115751   0.260   0.755   6.118
 1240SOL    HW215752   0.395   0.795   6.200
 1241SOL     OW15753   0.363   5.721   1.595
 1241SOL    HW115754   0.457   5.722   1.630
 1241SOL    HW215755   0.313   5.799   1.631
 1242SOL     OW15756   5.526   4.556   6.502
 1242SOL    HW115757   5.600   4.593   6.558
 1242SOL    HW215758   5.565   4.501   6.428
 1243SOL     OW15759   3.885   0.255   6.837
 1243SOL    HW115760   3.885   0.155   6.834
 1243SOL    HW215761   3.851   0.286   6.926
 1244SOL     OW15762   4.164   7.033   6.363
 1244SOL    HW115763   4.185   7.018   6.266
 1244SOL    HW215764   4.232   7.095   6.402
 1245SOL     OW15765   2.733   5.362   6.601
 1245SOL    HW115766   2.683   5.398   6.680
 1245SOL    HW215767   2.770   5.437   6.548
 1246SOL     OW15768   2.020   6.949   6.296
 1246SOL    HW115769   1.999   7.035   6.343
 1246SOL    HW215770   2.074   6.967   6.214
 1247SOL     OW15771   3.784   8.039   6.479
 1247SOL    HW115772   3.825   8.129   6.464
 1247SOL    HW215773   3.761   8.028   6.575
 1248SOL     OW15774   6.790   7.104   6.202
 1248SOL    HW115775   6.785   7.014   6.160
 1248SOL    HW215776   6.833   7.168   6.139
 1249SOL     OW15777   6.838   5.329   0.972
 1249SOL    HW115778   6.877   5.239   0.994
 1249SOL    HW215779   6.778   5.321   0.893
 1250SOL     OW15780   4.131   2.400   1.824
 1250SOL    HW115781   4.206   2.395   1.758
 1250SOL    HW215782   4.097   2.494   1.828
 1251SOL     OW15783   0.591   6.548   0.699
 1251SOL    HW115784   0.592   6.478   0.628
 1251SOL    HW215785   0.669   6.609   0.687
 1252SOL     OW15786   7.081   5.461   1.835
 1252SOL    HW115787   7.095   5.514   1.918
 1252SOL    HW215788   7.162   5.406   1.816
 1253SOL     OW15789   4.587   4.559   1.097
 1253SOL    HW115790   4.615   4.466   1.074
 1253SOL    HW215791   4.508   4.585   1.043
 1254SOL     OW15792   5.609   3.830   6.255
 1254SOL    HW115793   5.671   3.773   6.308
 1254SOL    HW215794   5.517   3.827   6.296
 1255SOL     OW15795   0.828   1.821   6.232
 1255SOL    HW115796   0.735   1.851   6.251
 1255SOL    HW215797   0.877   1.893   6.183
 1256SOL     OW15798   8.740   0.586   1.570
 1256SOL    HW115799   8.675   0.530   1.622
 1256SOL    HW215800   8.803   0.631   1.634
 1257SOL     OW15801   6.624   0.210   1.627
 1257SOL    HW115802   6.625   0.273   1.549
 1257SOL    HW215803   6.712   0.213   1.674
 1258SOL     OW15804   8.688   6.502   1.189
 1258SOL    HW115805   8.676   6.545   1.278
 1258SOL    HW215806   8.689   6.403   1.200
 1259SOL     OW15807   8.834   2.320   1.032
 1259SOL    HW115808   8.775   2.319   1.112
 1259SOL    HW215809   8.782   2.292   0.951
 1260SOL     OW15810   8.411   4.726   6.916
 1260SOL    HW115811   8.338   4.666   6.883
 1260SOL    HW215812   8.386   4.821   6.901
 1261SOL     OW15813   2.055   5.308   6.588
 1261SOL    HW115814   2.055   5.347   6.496
 1261SOL    HW215815   2.094   5.373   6.652
 1262SOL     OW15816   1.588   3.334   0.783
 1262SOL    HW115817   1.575   3.419   0.732
 1262SOL    HW215818   1.673   3.290   0.755
 1263SOL     OW15819   0.288   3.693   6.644
 1263SOL    HW115820   0.384   3.712   6.621
 1263SOL    HW215821   0.244   3.778   6.673
 1264SOL     OW15822   5.046   3.273   6.766
 1264SOL    HW115823   5.084   3.328   6.692
 1264SOL    HW215824   5.057   3.323   6.852
 1265SOL     OW15825   6.039   2.322   5.743
 1265SOL    HW115826   5.960   2.378   5.720
 1265SOL    HW215827   6.116   2.381   5.767
 1266SOL     OW15828   3.619   7.406   1.350
 1266SOL    HW115829   3.638   7.400   1.252
 1266SOL    HW215830   3.555   7.333   1.376
 1267SOL     OW15831   6.187   7.338   6.723
 1267SOL    HW115832   6.204   7.415   6.660
 1267SOL    HW215833   6.097   7.348   6.764
 1268SOL     OW15834   7.884   7.610   5.493
 1268SOL    HW115835   7.809   7.662   5.454
 1268SOL    HW215836   7.966   7.668   5.499
 1269SOL     OW15837   2.565   1.214   6.974
 1269SOL    HW115838   2.593   1.238   6.880
 1269SOL    HW215839   2.541   1.297   7.023
 1270SOL     OW15840   1.256   4.094   6.765
 1270SOL    HW115841   1.222   4.183   6.794
 1270SOL    HW215842   1.350   4.102   6.733
 1271SOL     OW15843   7.640   3.256   0.934
 1271SOL    HW115844   7.557   3.310   0.922
 1271SOL    HW215845   7.643   3.219   1.027
 1272SOL     OW15846   4.668   4.140   0.679
 1272SOL    HW115847   4.695   4.120   0.773
 1272SOL    HW215848   4.587   4.087   0.656
 1273SOL     OW15849   2.088   5.199   5.679
 1273SOL    HW115850   2.169   5.150   5.648
 1273SOL    HW215851   2.115   5.277   5.735
 1274SOL     OW15852   2.863   3.774   5.985
 1274SOL    HW115853   2.927   3.847   5.962
 1274SOL    HW215854   2.897   3.687   5.949
 1275SOL     OW15855   2.962   0.347   5.360
 1275SOL    HW115856   2.959   0.281   5.284
 1275SOL    HW215857   2.873   0.392   5.368
 1276SOL     OW15858   1.158   4.913   0.952
 1276SOL    HW115859   1.233   4.875   0.898
 1276SOL    HW215860   1.117   4.990   0.903
 1277SOL     OW15861   6.716   0.092   0.489
 1277SOL    HW115862   6.695  -0.006   0.491
 1277SOL    HW215863   6.726   0.122   0.394
 1278SOL     OW15864   1.151   6.235   1.445
 1278SOL    HW115865   1.197   6.165   1.390
 1278SOL    HW215866   1.094   6.292   1.386
 1279SOL     OW15867   7.477   8.001   1.008
 1279SOL    HW115868   7.568   8.042   0.996
 1279SOL    HW215869   7.459   7.937   0.933
 1280SOL     OW15870   1.240   0.666   1.084
 1280SOL    HW115871   1.173   0.695   1.152
 1280SOL    HW215872   1.223   0.713   0.997
 1281SOL     OW15873   9.034   7.633   6.011
 1281SOL    HW115874   8.973   7.556   5.994
 1281SOL    HW215875   9.071   7.628   6.103
 1282SOL     OW15876   1.126   5.313   7.126
 1282SOL    HW115877   1.150   5.231   7.074
 1282SOL    HW215878   1.111   5.389   7.063
 1283SOL     OW15879   4.557   7.139   6.264
 1283SOL    HW115880   4.530   7.234   6.246
 1283SOL    HW215881   4.588   7.131   6.359
 1284SOL     OW15882   4.537   4.000   2.108
 1284SOL    HW115883   4.560   3.951   2.024
 1284SOL    HW215884   4.618   4.006   2.167
 1285SOL     OW15885   1.434   6.014   6.321
 1285SOL    HW115886   1.464   6.108   6.338
 1285SOL    HW215887   1.349   5.996   6.371
 1286SOL     OW15888   0.804   5.588   0.478
 1286SOL    HW115889   0.865   5.645   0.532
 1286SOL    HW215890   0.710   5.600   0.510
 1287SOL     OW15891   1.235   4.714   5.566
 1287SOL    HW115892   1.276   4.624   5.577
 1287SOL    HW215893   1.216   4.731   5.469
 1288SOL     OW15894   0.654   8.416   5.260
 1288SOL    HW115895   0.586   8.460   5.201
 1288SOL    HW215896   0.612   8.338   5.306
 1289SOL     OW15897   1.005   3.810   5.573
 1289SOL    HW115898   0.926   3.787   5.516
 1289SOL    HW215899   1.089   3.782   5.526
 1290SOL     OW15900   6.173   5.250   2.100
 1290SOL    HW115901   6.265   5.226   2.070
 1290SOL    HW215902   6.177   5.327   2.163
 1291SOL     OW15903   4.939   7.511   0.630
 1291SOL    HW115904   4.991   7.575   0.574
 1291SOL    HW215905   4.922   7.551   0.720
 1292SOL     OW15906   2.068   3.504   1.030
 1292SOL    HW115907   2.086   3.495   0.932
 1292SOL    HW215908   2.026   3.419   1.063
 1293SOL     OW15909   2.541   6.712   6.571
 1293SOL    HW115910   2.509   6.675   6.658
 1293SOL    HW215911   2.638   6.691   6.560
 1294SOL     OW15912   1.480   0.183   7.027
 1294SOL    HW115913   1.546   0.258   7.031
 1294SOL    HW215914   1.501   0.123   6.951
 1295SOL     OW15915   3.429   5.180   0.747
 1295SOL    HW115916   3.363   5.140   0.683
 1295SOL    HW215917   3.381   5.215   0.827
 1296SOL     OW15918   7.464   5.086   5.072
 1296SOL    HW115919   7.527   5.042   5.136
 1296SOL    HW215920   7.457   5.031   4.989
 1297SOL     OW15921   8.707   7.397   1.123
 1297SOL    HW115922   8.652   7.473   1.159
 1297SOL    HW215923   8.791   7.388   1.176
 1298SOL     OW15924   7.487   5.548   5.527
 1298SOL    HW115925   7.543   5.539   5.445
 1298SOL    HW215926   7.423   5.472   5.532
 1299SOL     OW15927   4.567   0.140   0.641
 1299SOL    HW115928   4.521   0.063   0.595
 1299SOL    HW215929   4.524   0.226   0.614
 1300SOL     OW15930   1.487   5.794   4.814
 1300SOL    HW115931   1.418   5.750   4.756
 1300SOL    HW215932   1.484   5.893   4.799
 1301SOL     OW15933   6.386   0.554   0.653
 1301SOL    HW115934   6.382   0.493   0.732
 1301SOL    HW215935   6.459   0.525   0.591
 1302SOL     OW15936   5.429   2.069   1.916
 1302SOL    HW115937   5.375   2.071   1.832
 1302SOL    HW215938   5.368   2.067   1.995
 1303SOL     OW15939   8.986   4.881   5.568
 1303SOL    HW115940   9.024   4.958   5.517
 1303SOL    HW215941   8.887   4.878   5.554
 1304SOL     OW15942   5.765   8.107   1.916
 1304SOL    HW115943   5.701   8.109   1.840
 1304SOL    HW215944   5.804   8.198   1.929
 1305SOL     OW15945   7.229   0.646   6.845
 1305SOL    HW115946   7.162   0.616   6.913
 1305SOL    HW215947   7.183   0.666   6.759
 1306SOL     OW15948   7.716   1.792   0.567
 1306SOL    HW115949   7.719   1.849   0.485
 1306SOL    HW215950   7.792   1.816   0.627
 1307SOL     OW15951   1.629   3.551   0.584
 1307SOL    HW115952   1.562   3.495   0.534
 1307SOL    HW215953   1.718   3.544   0.538
 1308SOL     OW15954   3.342   4.909   6.516
 1308SOL    HW115955   3.298   4.912   6.605
 1308SOL    HW215956   3.273   4.892   6.445
 1309SOL     OW15957   0.565   6.338   6.330
 1309SOL    HW115958   0.565   6.308   6.425
 1309SOL    HW215959   0.484   6.393   6.311
 1310SOL     OW15960   0.635   6.346   0.532
 1310SOL    HW115961   0.688   6.358   0.448
 1310SOL    HW215962   0.657   6.258   0.573
 1311SOL     OW15963   6.616   0.587   2.021
 1311SOL    HW115964   6.634   0.496   2.058
 1311SOL    HW215965   6.692   0.647   2.041
 1312SOL     OW15966   6.016   1.159   1.892
 1312SOL    HW115967   5.921   1.159   1.859
 1312SOL    HW215968   6.019   1.122   1.985
 1313SOL     OW15969   7.405   7.538   0.567
 1313SOL    HW115970   7.402   7.522   0.469
 1313SOL    HW215971   7.500   7.545   0.597
 1314SOL     OW15972   8.615   0.047   0.593
 1314SOL    HW115973   8.679   0.120   0.571
 1314SOL    HW215974   8.666  -0.036   0.615
 1315SOL     OW15975   6.366   8.420   1.114
 1315SOL    HW115976   6.276   8.379   1.105
 1315SOL    HW215977   6.367   8.509   1.069
 1316SOL     OW15978   6.206   1.597   2.419
 1316SOL    HW115979   6.207   1.656   2.338
 1316SOL    HW215980   6.300   1.571   2.442
 1317SOL     OW15981   2.040   1.279   5.337
 1317SOL    HW115982   2.062   1.375   5.350
 1317SOL    HW215983   2.125   1.226   5.333
 1318SOL     OW15984   5.256   1.137   6.113
 1318SOL    HW115985   5.191   1.207   6.081
 1318SOL    HW215986   5.347   1.158   6.078
 1319SOL     OW15987   8.049   7.885   1.301
 1319SOL    HW115988   8.043   7.809   1.366
 1319SOL    HW215989   7.987   7.868   1.224
 1320SOL     OW15990   6.317   7.182   6.899
 1320SOL    HW115991   6.268   7.227   6.824
 1320SOL    HW215992   6.306   7.083   6.891
 1321SOL     OW15993   0.594   2.484   0.869
 1321SOL    HW115994   0.684   2.514   0.838
 1321SOL    HW215995   0.604   2.423   0.947
 1322SOL     OW15996   5.821   1.237   2.494
 1322SOL    HW115997   5.840   1.193   2.406
 1322SOL    HW215998   5.906   1.276   2.530
 1323SOL     OW15999   0.867   7.228   5.125
 1323SOL    HW116000   0.849   7.157   5.192
 1323SOL    HW216001   0.966   7.240   5.114
 1324SOL     OW16002   1.255   3.526   5.511
 1324SOL    HW116003   1.215   3.435   5.499
 1324SOL    HW216004   1.219   3.587   5.440
 1325SOL     OW16005   7.960   3.912   6.250
 1325SOL    HW116006   7.913   3.863   6.177
 1325SOL    HW216007   7.919   3.888   6.338
 1326SOL     OW16008   3.328   7.174   1.627
 1326SOL    HW116009   3.385   7.115   1.570
 1326SOL    HW216010   3.373   7.190   1.715
 1327SOL     OW16011   6.692   5.130   6.687
 1327SOL    HW116012   6.780   5.142   6.641
 1327SOL    HW216013   6.685   5.196   6.762
 1328SOL     OW16014   4.035   6.528   0.466
 1328SOL    HW116015   4.007   6.450   0.521
 1328SOL    HW216016   4.113   6.502   0.409
 1329SOL     OW16017   3.811   7.780   5.220
 1329SOL    HW116018   3.803   7.683   5.241
 1329SOL    HW216019   3.907   7.803   5.203
 1330SOL     OW16020   4.962   1.169   0.457
 1330SOL    HW116021   4.943   1.078   0.420
 1330SOL    HW216022   5.050   1.202   0.422
 1331SOL     OW16023   8.837   0.121   6.592
 1331SOL    HW116024   8.746   0.150   6.561
 1331SOL    HW216025   8.872   0.050   6.532
 1332SOL     OW16026   0.668   7.144   6.032
 1332SOL    HW116027   0.654   7.054   6.073
 1332SOL    HW216028   0.728   7.198   6.091
 1333SOL     OW16029   1.676   5.281   0.533
 1333SOL    HW116030   1.643   5.350   0.598
 1333SOL    HW216031   1.645   5.191   0.561
 1334SOL     OW16032   9.587   6.081   6.824
 1334SOL    HW116033   9.600   6.144   6.747
 1334SOL    HW216034   9.666   6.020   6.831
 1335SOL     OW16035   8.045   1.936   1.380
 1335SOL    HW116036   8.104   1.861   1.351
 1335SOL    HW216037   8.094   2.023   1.367
 1336SOL     OW16038   1.215   6.761   5.188
 1336SOL    HW116039   1.239   6.666   5.165
 1336SOL    HW216040   1.210   6.771   5.287
 1337SOL     OW16041   9.165   0.407   6.176
 1337SOL    HW116042   9.109   0.475   6.225
 1337SOL    HW216043   9.260   0.438   6.174
 1338SOL     OW16044   7.228   3.259   1.153
 1338SOL    HW116045   7.272   3.171   1.168
 1338SOL    HW216046   7.257   3.323   1.224
 1339SOL     OW16047   4.103   2.013   5.792
 1339SOL    HW116048   4.027   2.074   5.769
 1339SOL    HW216049   4.188   2.052   5.760
 1340SOL     OW16050   5.740   6.542   0.828
 1340SOL    HW116051   5.706   6.450   0.851
 1340SOL    HW216052   5.783   6.582   0.909
 1341SOL     OW16053   9.193   7.690   6.229
 1341SOL    HW116054   9.153   7.764   6.284
 1341SOL    HW216055   9.233   7.622   6.290
 1342SOL     OW16056   7.248   5.753   2.171
 1342SOL    HW116057   7.309   5.775   2.095
 1342SOL    HW216058   7.266   5.814   2.248
 1343SOL     OW16059   2.139   1.018   6.648
 1343SOL    HW116060   2.068   1.070   6.695
 1343SOL    HW216061   2.183   0.955   6.712
 1344SOL     OW16062   2.410   4.912   1.161
 1344SOL    HW116063   2.393   4.948   1.252
 1344SOL    HW216064   2.412   4.812   1.164
 1345SOL     OW16065   1.996   1.773   6.206
 1345SOL    HW116066   2.038   1.684   6.226
 1345SOL    HW216067   2.064   1.833   6.165
 1346SOL     OW16068   1.948   0.404   1.592
 1346SOL    HW116069   1.864   0.395   1.646
 1346SOL    HW216070   1.930   0.457   1.509
 1347SOL     OW16071   0.360   7.013   6.797
 1347SOL    HW116072   0.347   7.036   6.894
 1347SOL    HW216073   0.391   7.094   6.748
 1348SOL     OW16074   4.257   6.581   0.999
 1348SOL    HW116075   4.256   6.543   0.906
 1348SOL    HW216076   4.188   6.533   1.054
 1349SOL     OW16077   0.155   6.841   1.049
 1349SOL    HW116078   0.213   6.876   0.975
 1349SOL    HW216079   0.194   6.757   1.085
 1350SOL     OW16080   7.369   2.421   6.593
 1350SOL    HW116081   7.436   2.350   6.574
 1350SOL    HW216082   7.282   2.380   6.620
 1351SOL     OW16083   3.495   8.300   5.783
 1351SOL    HW116084   3.479   8.399   5.784
 1351SOL    HW216085   3.407   8.252   5.780
 1352SOL     OW16086   1.295   0.075   1.463
 1352SOL    HW116087   1.330   0.157   1.418
 1352SOL    HW216088   1.195   0.074   1.458
 1353SOL     OW16089   6.391   5.533   0.516
 1353SOL    HW116090   6.405   5.485   0.603
 1353SOL    HW216091   6.462   5.603   0.506
 1354SOL     OW16092   5.999   2.143   6.776
 1354SOL    HW116093   6.080   2.155   6.718
 1354SOL    HW216094   6.028   2.123   6.870
 1355SOL     OW16095   7.143   4.038   0.511
 1355SOL    HW116096   7.125   3.989   0.425
 1355SOL    HW216097   7.056   4.055   0.558
 1356SOL     OW16098   4.066   2.859   0.603
 1356SOL    HW116099   4.119   2.914   0.667
 1356SOL    HW216100   4.124   2.827   0.529
 1357SOL     OW16101   7.314   3.378   1.378
 1357SOL    HW116102   7.344   3.473   1.368
 1357SOL    HW216103   7.384   3.326   1.427
 1358SOL     OW16104   3.914   2.597   6.362
 1358SOL    HW116105   3.855   2.523   6.393
 1358SOL    HW216106   3.871   2.685   6.381
 1359SOL     OW16107   3.520   0.801   5.568
 1359SOL    HW116108   3.478   0.721   5.526
 1359SOL    HW216109   3.593   0.836   5.509
 1360SOL     OW16110   8.109   5.194   6.155
 1360SOL    HW116111   8.166   5.276   6.162
 1360SOL    HW216112   8.114   5.142   6.240
 1361SOL     OW16113   0.417   2.950   0.971
 1361SOL    HW116114   0.448   3.033   1.018
 1361SOL    HW216115   0.463   2.943   0.883
 1362SOL     OW16116   4.397   2.615   6.476
 1362SOL    HW116117   4.453   2.555   6.418
 1362SOL    HW216118   4.300   2.604   6.452
 1363SOL     OW16119   6.059   7.239   1.986
 1363SOL    HW116120   6.120   7.159   1.983
 1363SOL    HW216121   6.111   7.319   2.014
 1364SOL     OW16122   1.072   1.214   0.562
 1364SOL    HW116123   1.051   1.290   0.623
 1364SOL    HW216124   1.000   1.206   0.493
 1365SOL     OW16125   3.657   3.985   1.576
 1365SOL    HW116126   3.558   3.983   1.563
 1365SOL    HW216127   3.700   3.917   1.516
 1366SOL     OW16128   1.544   2.010   0.693
 1366SOL    HW116129   1.590   2.099   0.695
 1366SOL    HW216130   1.570   1.961   0.609
 1367SOL     OW16131   4.199   8.123   6.245
 1367SOL    HW116132   4.290   8.142   6.282
 1367SOL    HW216133   4.157   8.047   6.296
 1368SOL     OW16134   6.309   7.070   6.031
 1368SOL    HW116135   6.349   6.997   5.976
 1368SOL    HW216136   6.364   7.083   6.114
 1369SOL     OW16137   1.805   2.669   1.219
 1369SOL    HW116138   1.853   2.647   1.304
 1369SOL    HW216139   1.731   2.733   1.239
 1370SOL     OW16140   6.054   6.308   1.637
 1370SOL    HW116141   6.074   6.393   1.686
 1370SOL    HW216142   5.997   6.328   1.557
 1371SOL     OW16143   5.885   7.844   0.638
 1371SOL    HW116144   5.953   7.770   0.635
 1371SOL    HW216145   5.928   7.926   0.676
 1372SOL     OW16146   6.196  -0.018   5.944
 1372SOL    HW116147   6.213   0.054   5.877
 1372SOL    HW216148   6.196  -0.107   5.898
 1373SOL     OW16149   4.308   5.188   1.539
 1373SOL    HW116150   4.295   5.116   1.470
 1373SOL    HW216151   4.228   5.191   1.599
 1374SOL     OW16152   6.897   1.696   5.872
 1374SOL    HW116153   6.952   1.772   5.837
 1374SOL    HW216154   6.944   1.610   5.854
 1375SOL     OW16155   9.437   6.354   5.101
 1375SOL    HW116156   9.346   6.380   5.068
 1375SOL    HW216157   9.495   6.329   5.023
 1376SOL     OW16158   7.975   7.934   0.695
 1376SOL    HW116159   7.919   7.854   0.675
 1376SOL    HW216160   8.060   7.929   0.642
 1377SOL     OW16161   4.543   3.845   1.870
 1377SOL    HW116162   4.546   3.835   1.770
 1377SOL    HW216163   4.474   3.783   1.908
 1378SOL     OW16164   3.539   2.993   6.124
 1378SOL    HW116165   3.592   3.047   6.057
 1378SOL    HW216166   3.444   2.986   6.093
 1379SOL     OW16167   0.987   4.785   1.354
 1379SOL    HW116168   0.918   4.716   1.332
 1379SOL    HW216169   1.006   4.782   1.452
 1380SOL     OW16170   3.346   7.310   6.748
 1380SOL    HW116171   3.265   7.277   6.700
 1380SOL    HW216172   3.419   7.329   6.683
 1381SOL     OW16173   7.675   0.964   6.755
 1381SOL    HW116174   7.602   1.018   6.798
 1381SOL    HW216175   7.647   0.938   6.663
 1382SOL     OW16176   9.142   5.690   0.724
 1382SOL    HW116177   9.164   5.669   0.819
 1382SOL    HW216178   9.133   5.605   0.672
 1383SOL     OW16179   7.341   0.802   0.539
 1383SOL    HW116180   7.372   0.832   0.629
 1383SOL    HW216181   7.387   0.717   0.515
 1384SOL     OW16182   3.083  -0.057   1.366
 1384SOL    HW116183   3.125  -0.142   1.398
 1384SOL    HW216184   3.005  -0.034   1.425
 1385SOL     OW16185   3.959   5.876   1.605
 1385SOL    HW116186   3.998   5.784   1.610
 1385SOL    HW216187   3.860   5.869   1.592
 1386SOL     OW16188   0.356   2.004   1.566
 1386SOL    HW116189   0.427   2.071   1.546
 1386SOL    HW216190   0.392   1.934   1.627
 1387SOL     OW16191   6.947   6.009   6.053
 1387SOL    HW116192   6.892   6.088   6.080
 1387SOL    HW216193   6.993   6.027   5.966
 1388SOL     OW16194   4.317   1.076   1.790
 1388SOL    HW116195   4.400   1.079   1.845
 1388SOL    HW216196   4.328   1.133   1.709
 1389SOL     OW16197   8.195   3.768   6.322
 1389SOL    HW116198   8.105   3.811   6.322
 1389SOL    HW216199   8.266   3.838   6.311
 1390SOL     OW16200   7.078   2.301   6.536
 1390SOL    HW116201   7.042   2.217   6.576
 1390SOL    HW216202   7.028   2.322   6.452
 1391SOL     OW16203   4.583   1.077   0.566
 1391SOL    HW116204   4.486   1.083   0.547
 1391SOL    HW216205   4.609   1.149   0.632
 1392SOL     OW16206   1.327   4.946   5.811
 1392SOL    HW116207   1.366   4.871   5.865
 1392SOL    HW216208   1.374   4.951   5.722
 1393SOL     OW16209   5.277   0.084   0.715
 1393SOL    HW116210   5.260   0.026   0.636
 1393SOL    HW216211   5.227   0.049   0.794
 1394SOL     OW16212   6.535   1.779   1.248
 1394SOL    HW116213   6.458   1.841   1.263
 1394SOL    HW216214   6.620   1.832   1.256
 1395SOL     OW16215   6.717   6.922   0.663
 1395SOL    HW116216   6.746   6.944   0.756
 1395SOL    HW216217   6.790   6.942   0.599
 1396SOL     OW16218   7.770   5.189   6.965
 1396SOL    HW116219   7.807   5.104   7.004
 1396SOL    HW216220   7.808   5.267   7.014
 1397SOL     OW16221   8.752   7.514   5.649
 1397SOL    HW116222   8.784   7.515   5.743
 1397SOL    HW216223   8.750   7.420   5.615
 1398SOL     OW16224   9.098   8.006   0.934
 1398SOL    HW116225   9.091   7.925   0.991
 1398SOL    HW216226   9.173   7.996   0.869
 1399SOL     OW16227   4.276   2.295   7.069
 1399SOL    HW116228   4.281   2.340   7.158
 1399SOL    HW216229   4.281   2.364   6.997
 1400SOL     OW16230   2.680   3.435   1.005
 1400SOL    HW116231   2.748   3.435   1.079
 1400SOL    HW216232   2.666   3.528   0.972
 1401SOL     OW16233   4.080   6.312   6.452
 1401SOL    HW116234   4.082   6.214   6.435
 1401SOL    HW216235   4.002   6.353   6.404
 1402SOL     OW16236   7.909   5.830   0.438
 1402SOL    HW116237   7.826   5.775   0.426
 1402SOL    HW216238   7.883   5.921   0.471
 1403SOL     OW16239   5.904   7.460   1.165
 1403SOL    HW116240   5.836   7.532   1.183
 1403SOL    HW216241   5.987   7.502   1.129
 1404SOL     OW16242   9.382   2.619   6.806
 1404SOL    HW116243   9.415   2.679   6.734
 1404SOL    HW216244   9.306   2.662   6.854
 1405SOL     OW16245   0.902   1.111   5.703
 1405SOL    HW116246   0.856   1.170   5.768
 1405SOL    HW216247   0.871   1.132   5.610
 1406SOL     OW16248   1.106   7.688   1.788
 1406SOL    HW116249   1.063   7.633   1.861
 1406SOL    HW216250   1.107   7.784   1.816
 1407SOL     OW16251   8.635   5.770   6.482
 1407SOL    HW116252   8.687   5.754   6.566
 1407SOL    HW216253   8.541   5.797   6.505
 1408SOL     OW16254   7.134   7.516   1.931
 1408SOL    HW116255   7.162   7.474   2.017
 1408SOL    HW216256   7.055   7.575   1.946
 1409SOL     OW16257   3.494   6.990   1.485
 1409SOL    HW116258   3.473   7.053   1.410
 1409SOL    HW216259   3.593   6.979   1.493
 1410SOL     OW16260   1.708   0.135   1.733
 1410SOL    HW116261   1.734   0.039   1.739
 1410SOL    HW216262   1.739   0.184   1.814
 1411SOL     OW16263   7.333   1.837   7.033
 1411SOL    HW116264   7.358   1.875   6.944
 1411SOL    HW216265   7.285   1.750   7.019
 1412SOL     OW16266   5.425   4.614   0.671
 1412SOL    HW116267   5.453   4.604   0.576
 1412SOL    HW216268   5.490   4.565   0.730
 1413SOL     OW16269   7.586   1.055   6.190
 1413SOL    HW116270   7.558   1.128   6.127
 1413SOL    HW216271   7.534   1.063   6.275
 1414SOL     OW16272   8.275   4.443   0.610
 1414SOL    HW116273   8.240   4.511   0.547
 1414SOL    HW216274   8.325   4.372   0.560
 1415SOL     OW16275   7.596   7.176   0.862
 1415SOL    HW116276   7.661   7.181   0.786
 1415SOL    HW216277   7.620   7.100   0.922
 1416SOL     OW16278   0.350   1.416   0.994
 1416SOL    HW116279   0.364   1.508   0.958
 1416SOL    HW216280   0.412   1.352   0.948
 1417SOL     OW16281   1.940   3.417   0.768
 1417SOL    HW116282   1.926   3.339   0.707
 1417SOL    HW216283   2.036   3.446   0.763
 1418SOL     OW16284   4.025   1.382   1.418
 1418SOL    HW116285   4.059   1.390   1.512
 1418SOL    HW216286   3.926   1.369   1.420
 1419SOL     OW16287   8.083   2.881   7.024
 1419SOL    HW116288   8.118   2.960   7.074
 1419SOL    HW216289   8.082   2.901   6.926
 1420SOL     OW16290   5.650   7.642   0.963
 1420SOL    HW116291   5.592   7.686   1.032
 1420SOL    HW216292   5.633   7.544   0.964
 1421SOL     OW16293   8.321   2.506   1.011
 1421SOL    HW116294   8.393   2.570   1.039
 1421SOL    HW216295   8.335   2.481   0.915
 1422SOL     OW16296   2.432   3.962   6.620
 1422SOL    HW116297   2.414   3.957   6.719
 1422SOL    HW216298   2.358   4.014   6.576
 1423SOL     OW16299   5.834   6.039   5.377
 1423SOL    HW116300   5.779   6.116   5.347
 1423SOL    HW216301   5.889   6.005   5.300
 1424SOL     OW16302   7.185   7.728   1.400
 1424SOL    HW116303   7.195   7.777   1.487
 1424SOL    HW216304   7.110   7.662   1.408
 1425SOL     OW16305   5.666   7.920   1.308
 1425SOL    HW116306   5.721   8.000   1.283
 1425SOL    HW216307   5.647   7.921   1.406
 1426SOL     OW16308   7.351   1.090   0.960
 1426SOL    HW116309   7.298   1.175   0.961
 1426SOL    HW216310   7.449   1.113   0.958
 1427SOL     OW16311   1.122   7.282   6.249
 1427SOL    HW116312   1.156   7.221   6.320
 1427SOL    HW216313   1.185   7.360   6.239
 1428SOL     OW16314   0.816   7.636   1.191
 1428SOL    HW116315   0.899   7.644   1.246
 1428SOL    HW216316   0.778   7.544   1.201
 1429SOL     OW16317   1.561   2.378   6.153
 1429SOL    HW116318   1.589   2.318   6.079
 1429SOL    HW216319   1.518   2.460   6.116
 1430SOL     OW16320   4.250   6.192   1.496
 1430SOL    HW116321   4.239   6.171   1.594
 1430SOL    HW216322   4.184   6.139   1.443
 1431SOL     OW16323   8.021   2.069   7.148
 1431SOL    HW116324   8.085   2.146   7.147
 1431SOL    HW216325   8.066   1.989   7.107
 1432SOL     OW16326   3.245   6.034   6.477
 1432SOL    HW116327   3.206   6.054   6.387
 1432SOL    HW216328   3.197   6.086   6.547
 1433SOL     OW16329   9.328   1.520   5.764
 1433SOL    HW116330   9.333   1.421   5.775
 1433SOL    HW216331   9.264   1.542   5.690
 1434SOL     OW16332   0.256   7.064   5.547
 1434SOL    HW116333   0.249   6.989   5.613
 1434SOL    HW216334   0.294   7.029   5.462
 1435SOL     OW16335   1.206   0.324   6.527
 1435SOL    HW116336   1.148   0.315   6.607
 1435SOL    HW216337   1.203   0.240   6.472
 1436SOL     OW16338   4.711   0.434   2.149
 1436SOL    HW116339   4.811   0.441   2.139
 1436SOL    HW216340   4.688   0.437   2.246
 1437SOL     OW16341   3.365   8.395   6.170
 1437SOL    HW116342   3.452   8.400   6.218
 1437SOL    HW216343   3.332   8.300   6.171
 1438SOL     OW16344   1.930   0.544   5.712
 1438SOL    HW116345   1.868   0.502   5.779
 1438SOL    HW216346   2.003   0.592   5.759
 1439SOL     OW16347   1.014   0.419   5.142
 1439SOL    HW116348   0.924   0.405   5.102
 1439SOL    HW216349   1.083   0.424   5.069
 1440SOL     OW16350   0.715   0.837   6.951
 1440SOL    HW116351   0.738   0.813   6.857
 1440SOL    HW216352   0.799   0.857   7.002
 1441SOL     OW16353   8.198   1.124   6.079
 1441SOL    HW116354   8.121   1.067   6.049
 1441SOL    HW216355   8.251   1.153   5.999
 1442SOL     OW16356   5.773   2.940   0.768
 1442SOL    HW116357   5.749   2.859   0.821
 1442SOL    HW216358   5.869   2.934   0.739
 1443SOL     OW16359   5.568   0.374   5.554
 1443SOL    HW116360   5.604   0.401   5.465
 1443SOL    HW216361   5.618   0.423   5.626
 1444SOL     OW16362   2.300   1.812   1.421
 1444SOL    HW116363   2.215   1.802   1.368
 1444SOL    HW216364   2.344   1.898   1.396
 1445SOL     OW16365   7.336   2.729   0.451
 1445SOL    HW116366   7.417   2.781   0.479
 1445SOL    HW216367   7.358   2.632   0.446
 1446SOL     OW16368   5.096   2.202   1.433
 1446SOL    HW116369   4.998   2.202   1.453
 1446SOL    HW216370   5.134   2.112   1.454
 1447SOL     OW16371   6.117   1.967   1.858
 1447SOL    HW116372   6.214   1.951   1.873
 1447SOL    HW216373   6.101   2.064   1.841
 1448SOL     OW16374   7.347   1.197   6.389
 1448SOL    HW116375   7.326   1.256   6.467
 1448SOL    HW216376   7.282   1.216   6.315
 1449SOL     OW16377   1.590   1.413   6.903
 1449SOL    HW116378   1.628   1.360   6.979
 1449SOL    HW216379   1.632   1.383   6.818
 1450SOL     OW16380   6.636   3.421   2.057
 1450SOL    HW116381   6.673   3.477   2.130
 1450SOL    HW216382   6.633   3.325   2.086
 1451SOL     OW16383   6.189   6.351   0.780
 1451SOL    HW116384   6.227   6.440   0.803
 1451SOL    HW216385   6.255   6.279   0.802
 1452SOL     OW16386   1.815   0.238   6.038
 1452SOL    HW116387   1.796   0.205   5.946
 1452SOL    HW216388   1.912   0.228   6.058
 1453SOL     OW16389   9.458   0.360   6.896
 1453SOL    HW116390   9.432   0.454   6.920
 1453SOL    HW216391   9.506   0.319   6.974
 1454SOL     OW16392   4.645   3.287   1.154
 1454SOL    HW116393   4.629   3.374   1.108
 1454SOL    HW216394   4.560   3.234   1.154
 1455SOL     OW16395   8.490   4.208   6.595
 1455SOL    HW116396   8.517   4.113   6.610
 1455SOL    HW216397   8.564   4.257   6.548
 1456SOL     OW16398   8.989   2.327   2.017
 1456SOL    HW116399   8.906   2.286   1.980
 1456SOL    HW216400   9.069   2.292   1.967
 1457SOL     OW16401   0.215   6.773   6.227
 1457SOL    HW116402   0.132   6.763   6.282
 1457SOL    HW216403   0.242   6.869   6.223
 1458SOL     OW16404   7.767   2.697   6.269
 1458SOL    HW116405   7.746   2.600   6.277
 1458SOL    HW216406   7.837   2.710   6.199
 1459SOL     OW16407   4.051   5.139   1.651
 1459SOL    HW116408   4.017   5.231   1.665
 1459SOL    HW216409   3.974   5.075   1.646
 1460SOL     OW16410   4.184   5.099   7.129
 1460SOL    HW116411   4.207   5.103   7.032
 1460SOL    HW216412   4.260   5.057   7.180
 1461SOL     OW16413   7.184   7.300   6.282
 1461SOL    HW116414   7.276   7.332   6.261
 1461SOL    HW216415   7.139   7.364   6.344
 1462SOL     OW16416   7.741   8.075   6.703
 1462SOL    HW116417   7.702   8.061   6.794
 1462SOL    HW216418   7.725   7.993   6.647
 1463SOL     OW16419   3.535   5.172   5.393
 1463SOL    HW116420   3.455   5.154   5.336
 1463SOL    HW216421   3.596   5.236   5.345
 1464SOL     OW16422   5.741   5.737   7.041
 1464SOL    HW116423   5.772   5.736   7.136
 1464SOL    HW216424   5.676   5.662   7.026
 1465SOL     OW16425   6.578   4.478   7.108
 1465SOL    HW116426   6.508   4.486   7.038
 1465SOL    HW216427   6.561   4.544   7.181
 1466SOL     OW16428   3.274   5.239   7.065
 1466SOL    HW116429   3.249   5.190   7.148
 1466SOL    HW216430   3.281   5.175   6.989
 1467SOL     OW16431   4.075   4.076   5.876
 1467SOL    HW116432   4.148   4.046   5.938
 1467SOL    HW216433   4.080   4.022   5.791
 1468SOL     OW16434   5.212   1.952   1.507
 1468SOL    HW116435   5.266   1.876   1.472
 1468SOL    HW216436   5.168   1.926   1.592
 1469SOL     OW16437   0.563   7.046   0.743
 1469SOL    HW116438   0.662   7.035   0.757
 1469SOL    HW216439   0.545   7.061   0.646
 1470SOL     OW16440   6.101   0.202   7.131
 1470SOL    HW116441   6.081   0.105   7.146
 1470SOL    HW216442   6.018   0.248   7.099
 1471SOL     OW16443   6.911   8.371   0.974
 1471SOL    HW116444   6.906   8.272   0.993
 1471SOL    HW216445   6.821   8.403   0.944
 1472SOL     OW16446   3.244   1.046   2.749
 1472SOL    HW116447   3.202   1.041   2.658
 1472SOL    HW216448   3.310   1.121   2.751
 1473SOL     OW16449   2.852   4.973   0.722
 1473SOL    HW116450   2.830   5.033   0.799
 1473SOL    HW216451   2.769   4.957   0.668
 1474SOL     OW16452   2.214   2.379   6.895
 1474SOL    HW116453   2.280   2.454   6.898
 1474SOL    HW216454   2.209   2.342   6.803
 1475SOL     OW16455   2.681   4.584   1.137
 1475SOL    HW116456   2.701   4.667   1.084
 1475SOL    HW216457   2.766   4.535   1.154
 1476SOL     OW16458   5.042   4.328   0.454
 1476SOL    HW116459   5.098   4.266   0.400
 1476SOL    HW216460   5.100   4.392   0.503
 1477SOL     OW16461   9.167   4.385   5.986
 1477SOL    HW116462   9.209   4.434   5.909
 1477SOL    HW216463   9.068   4.379   5.971
 1478SOL     OW16464   0.776   0.813   0.675
 1478SOL    HW116465   0.728   0.725   0.677
 1478SOL    HW216466   0.844   0.815   0.748
 1479SOL     OW16467   4.280   0.675   6.435
 1479SOL    HW116468   4.237   0.683   6.525
 1479SOL    HW216469   4.211   0.682   6.363
 1480SOL     OW16470   0.678   1.731   1.455
 1480SOL    HW116471   0.672   1.785   1.539
 1480SOL    HW216472   0.662   1.634   1.477
 1481SOL     OW16473   3.852   4.954   1.587
 1481SOL    HW116474   3.838   4.913   1.497
 1481SOL    HW216475   3.781   4.923   1.650
 1482SOL     OW16476   1.182   0.622   4.872
 1482SOL    HW116477   1.096   0.673   4.876
 1482SOL    HW216478   1.259   0.687   4.869
 1483SOL     OW16479   1.890   6.934   1.567
 1483SOL    HW116480   1.910   7.023   1.527
 1483SOL    HW216481   1.861   6.946   1.662
 1484SOL     OW16482   3.152   5.630   7.150
 1484SOL    HW116483   3.090   5.689   7.098
 1484SOL    HW216484   3.203   5.571   7.087
 1485SOL     OW16485   3.949   4.565   1.573
 1485SOL    HW116486   3.863   4.518   1.551
 1485SOL    HW216487   3.936   4.622   1.653
 1486SOL     OW16488   3.601   3.970   1.231
 1486SOL    HW116489   3.664   3.898   1.258
 1486SOL    HW216490   3.507   3.939   1.244
 1487SOL     OW16491   0.565   1.144   1.796
 1487SOL    HW116492   0.603   1.068   1.744
 1487SOL    HW216493   0.487   1.111   1.850
 1488SOL     OW16494   3.516   3.477   6.990
 1488SOL    HW116495   3.425   3.511   7.012
 1488SOL    HW216496   3.583   3.549   7.007
 1489SOL     OW16497   5.579   2.311   1.212
 1489SOL    HW116498   5.576   2.376   1.136
 1489SOL    HW216499   5.486   2.285   1.238
 1490SOL     OW16500   6.605   7.256   6.983
 1490SOL    HW116501   6.526   7.204   6.953
 1490SOL    HW216502   6.689   7.213   6.949
 1491SOL     OW16503   3.353   4.912   6.224
 1491SOL    HW116504   3.427   4.848   6.205
 1491SOL    HW216505   3.275   4.864   6.264
 1492SOL     OW16506   0.443   2.823   5.902
 1492SOL    HW116507   0.450   2.831   5.803
 1492SOL    HW216508   0.497   2.895   5.945
 1493SOL     OW16509   5.342   8.211   6.467
 1493SOL    HW116510   5.358   8.127   6.518
 1493SOL    HW216511   5.422   8.233   6.412
 1494SOL     OW16512   4.156   3.959   1.044
 1494SOL    HW116513   4.202   3.872   1.023
 1494SOL    HW216514   4.094   3.982   0.970
 1495SOL     OW16515   9.566   6.697   5.404
 1495SOL    HW116516   9.556   6.634   5.481
 1495SOL    HW216517   9.611   6.649   5.328
 1496SOL     OW16518   0.829   8.265   6.869
 1496SOL    HW116519   0.780   8.179   6.851
 1496SOL    HW216520   0.879   8.256   6.955
 1497SOL     OW16521   3.675  -0.033   1.107
 1497SOL    HW116522   3.744   0.034   1.134
 1497SOL    HW216523   3.719  -0.110   1.062
 1498SOL     OW16524   5.670   2.815   1.469
 1498SOL    HW116525   5.642   2.823   1.564
 1498SOL    HW216526   5.738   2.885   1.448
 1499SOL     OW16527   4.761   6.406   0.573
 1499SOL    HW116528   4.778   6.363   0.662
 1499SOL    HW216529   4.820   6.487   0.564
 1500SOL     OW16530   5.851   0.764   1.887
 1500SOL    HW116531   5.943   0.801   1.875
 1500SOL    HW216532   5.854   0.664   1.888
 1501SOL     OW16533   6.843   2.276   6.792
 1501SOL    HW116534   6.834   2.360   6.845
 1501SOL    HW216535   6.870   2.299   6.698
 1502SOL     OW16536   8.937   3.217   6.489
 1502SOL    HW116537   8.879   3.142   6.458
 1502SOL    HW216538   8.887   3.275   6.554
 1503SOL     OW16539   2.272   3.110   6.954
 1503SOL    HW116540   2.274   3.010   6.944
 1503SOL    HW216541   2.349   3.150   6.906
 1504SOL     OW16542   4.228   0.004   6.752
 1504SOL    HW116543   4.137   0.006   6.793
 1504SOL    HW216544   4.236  -0.076   6.693
 1505SOL     OW16545   7.401   3.718   0.836
 1505SOL    HW116546   7.483   3.771   0.813
 1505SOL    HW216547   7.334   3.778   0.881
 1506SOL     OW16548   0.606   7.662   6.467
 1506SOL    HW116549   0.675   7.725   6.504
 1506SOL    HW216550   0.590   7.682   6.371
 1507SOL     OW16551   3.234   7.940   6.690
 1507SOL    HW116552   3.274   7.853   6.718
 1507SOL    HW216553   3.152   7.923   6.636
 1508SOL     OW16554   6.269   8.285   5.758
 1508SOL    HW116555   6.366   8.308   5.773
 1508SOL    HW216556   6.254   8.270   5.660
 1509SOL     OW16557   3.763   0.871   6.031
 1509SOL    HW116558   3.682   0.886   5.975
 1509SOL    HW216559   3.735   0.841   6.122
 1510SOL     OW16560   1.575   5.034   6.303
 1510SOL    HW116561   1.490   5.023   6.251
 1510SOL    HW216562   1.653   5.006   6.247
 1511SOL     OW16563   6.727   2.052   1.238
 1511SOL    HW116564   6.782   2.134   1.226
 1511SOL    HW216565   6.670   2.037   1.157
 1512SOL     OW16566   2.725   1.822   6.168
 1512SOL    HW116567   2.794   1.760   6.204
 1512SOL    HW216568   2.722   1.814   6.069
 1513SOL     OW16569   9.455   7.921   7.035
 1513SOL    HW116570   9.460   7.955   7.129
 1513SOL    HW216571   9.455   7.999   6.972
 1514SOL     OW16572   0.341   0.695   6.426
 1514SOL    HW116573   0.292   0.723   6.508
 1514SOL    HW216574   0.425   0.749   6.417
 1515SOL     OW16575   4.023   8.018   1.119
 1515SOL    HW116576   4.080   8.064   1.050
 1515SOL    HW216577   3.927   8.020   1.089
 1516SOL     OW16578   0.482   5.974   6.518
 1516SOL    HW116579   0.417   5.900   6.503
 1516SOL    HW216580   0.561   5.939   6.569
 1517SOL     OW16581   3.406   5.374   6.387
 1517SOL    HW116582   3.482   5.435   6.368
 1517SOL    HW216583   3.407   5.297   6.323
 1518SOL     OW16584   5.626   4.815   2.078
 1518SOL    HW116585   5.643   4.827   2.176
 1518SOL    HW216586   5.529   4.830   2.058
 1519SOL     OW16587   5.806   8.426   0.953
 1519SOL    HW116588   5.718   8.459   0.918
 1519SOL    HW216589   5.863   8.398   0.876
 1520SOL     OW16590   0.798   6.766   6.606
 1520SOL    HW116591   0.813   6.747   6.509
 1520SOL    HW216592   0.701   6.777   6.624
 1521SOL     OW16593   6.516   5.058   5.149
 1521SOL    HW116594   6.608   5.020   5.152
 1521SOL    HW216595   6.449   4.984   5.145
 1522SOL     OW16596   4.076   1.459   2.407
 1522SOL    HW116597   4.061   1.375   2.355
 1522SOL    HW216598   4.066   1.440   2.504
 1523SOL     OW16599   5.680   8.117   0.975
 1523SOL    HW116600   5.583   8.100   0.993
 1523SOL    HW216601   5.713   8.188   1.038
 1524SOL     OW16602   4.328   6.929   5.438
 1524SOL    HW116603   4.333   7.025   5.411
 1524SOL    HW216604   4.236   6.894   5.420
 1525SOL     OW16605   0.964   7.760   6.080
 1525SOL    HW116606   0.962   7.757   6.180
 1525SOL    HW216607   0.871   7.759   6.044
 1526SOL     OW16608   0.592   3.240   7.071
 1526SOL    HW116609   0.536   3.323   7.080
 1526SOL    HW216610   0.582   3.185   7.154
 1527SOL     OW16611   8.106   7.434   6.596
 1527SOL    HW116612   8.076   7.467   6.506
 1527SOL    HW216613   8.052   7.354   6.621
 1528SOL     OW16614   3.481   0.762   0.480
 1528SOL    HW116615   3.528   0.677   0.500
 1528SOL    HW216616   3.513   0.798   0.392
 1529SOL     OW16617   4.763   8.355   1.037
 1529SOL    HW116618   4.801   8.313   1.120
 1529SOL    HW216619   4.812   8.320   0.957
 1530SOL     OW16620   7.229   8.050   5.650
 1530SOL    HW116621   7.314   8.096   5.624
 1530SOL    HW216622   7.167   8.115   5.692
 1531SOL     OW16623   6.346   6.372   5.862
 1531SOL    HW116624   6.289   6.290   5.867
 1531SOL    HW216625   6.346   6.408   5.769
 1532SOL     OW16626   5.949   1.627   2.044
 1532SOL    HW116627   5.944   1.530   2.067
 1532SOL    HW216628   5.882   1.677   2.099
 1533SOL     OW16629   5.912   0.150   0.686
 1533SOL    HW116630   5.820   0.164   0.723
 1533SOL    HW216631   5.968   0.230   0.708
 1534SOL     OW16632   2.461   3.743   1.420
 1534SOL    HW116633   2.488   3.813   1.485
 1534SOL    HW216634   2.411   3.785   1.344
 1535SOL     OW16635   6.613   1.050   2.400
 1535SOL    HW116636   6.613   0.982   2.474
 1535SOL    HW216637   6.627   1.004   2.312
 1536SOL     OW16638   9.217   0.891   0.550
 1536SOL    HW116639   9.288   0.835   0.592
 1536SOL    HW216640   9.204   0.864   0.455
 1537SOL     OW16641   6.104   0.142   5.275
 1537SOL    HW116642   6.147   0.123   5.363
 1537SOL    HW216643   6.152   0.218   5.231
 1538SOL     OW16644   9.295   4.748   7.006
 1538SOL    HW116645   9.226   4.814   6.980
 1538SOL    HW216646   9.378   4.795   7.035
 1539SOL     OW16647   5.412   2.655   0.892
 1539SOL    HW116648   5.355   2.664   0.811
 1539SOL    HW216649   5.431   2.746   0.930
 1540SOL     OW16650   6.049   1.346   2.443
 1540SOL    HW116651   6.087   1.277   2.381
 1540SOL    HW216652   6.088   1.435   2.419
 1541SOL     OW16653   0.228   6.977   1.716
 1541SOL    HW116654   0.177   6.908   1.768
 1541SOL    HW216655   0.211   6.964   1.619
 1542SOL     OW16656   5.468   2.998   0.672
 1542SOL    HW116657   5.503   3.092   0.670
 1542SOL    HW216658   5.545   2.935   0.675
 1543SOL     OW16659   9.199   4.402   6.572
 1543SOL    HW116660   9.225   4.352   6.490
 1543SOL    HW216661   9.251   4.487   6.577
 1544SOL     OW16662   3.954   6.302   2.730
 1544SOL    HW116663   3.938   6.400   2.742
 1544SOL    HW216664   3.874   6.251   2.761
 1545SOL     OW16665   8.628   2.825   6.904
 1545SOL    HW116666   8.589   2.846   6.993
 1545SOL    HW216667   8.619   2.728   6.885
 1546SOL     OW16668   5.827   2.831   6.346
 1546SOL    HW116669   5.846   2.768   6.421
 1546SOL    HW216670   5.777   2.910   6.382
 1547SOL     OW16671   8.654   1.033   6.907
 1547SOL    HW116672   8.618   0.969   6.974
 1547SOL    HW216673   8.627   1.004   6.815
 1548SOL     OW16674   0.358   0.085   6.212
 1548SOL    HW116675   0.422   0.069   6.288
 1548SOL    HW216676   0.398   0.151   6.149
 1549SOL     OW16677   6.169   2.662   6.485
 1549SOL    HW116678   6.143   2.602   6.409
 1549SOL    HW216679   6.232   2.613   6.546
 1550SOL     OW16680   1.137   5.598   6.665
 1550SOL    HW116681   1.205   5.633   6.730
 1550SOL    HW216682   1.160   5.629   6.573
 1551SOL     OW16683   7.668   1.242   1.280
 1551SOL    HW116684   7.608   1.252   1.360
 1551SOL    HW216685   7.755   1.202   1.308
 1552SOL     OW16686   6.639   4.853   6.857
 1552SOL    HW116687   6.618   4.946   6.827
 1552SOL    HW216688   6.594   4.835   6.944
 1553SOL     OW16689   5.433   1.439   0.709
 1553SOL    HW116690   5.437   1.502   0.632
 1553SOL    HW216691   5.491   1.360   0.691
 1554SOL     OW16692   3.825   7.121   6.583
 1554SOL    HW116693   3.747   7.071   6.547
 1554SOL    HW216694   3.794   7.187   6.652
 1555SOL     OW16695   8.135   6.556   6.822
 1555SOL    HW116696   8.186   6.514   6.747
 1555SOL    HW216697   8.054   6.602   6.785
 1556SOL     OW16698   3.760   7.808   1.359
 1556SOL    HW116699   3.699   7.865   1.413
 1556SOL    HW216700   3.847   7.797   1.407
 1557SOL     OW16701   0.548   3.749   6.539
 1557SOL    HW116702   0.576   3.719   6.448
 1557SOL    HW216703   0.600   3.699   6.608
 1558SOL     OW16704   3.102   6.081   1.518
 1558SOL    HW116705   3.044   6.106   1.596
 1558SOL    HW216706   3.063   6.117   1.434
 1559SOL     OW16707   0.765   2.779   6.847
 1559SOL    HW116708   0.693   2.784   6.917
 1559SOL    HW216709   0.807   2.689   6.849
 1560SOL     OW16710   2.640   6.761   0.922
 1560SOL    HW116711   2.719   6.729   0.976
 1560SOL    HW216712   2.615   6.853   0.951
 1561SOL     OW16713   5.543   1.808   6.927
 1561SOL    HW116714   5.637   1.814   6.893
 1561SOL    HW216715   5.484   1.771   6.855
 1562SOL     OW16716   0.558   5.862   0.644
 1562SOL    HW116717   0.559   5.767   0.611
 1562SOL    HW216718   0.576   5.863   0.742
 1563SOL     OW16719   3.890   1.588   1.776
 1563SOL    HW116720   3.972   1.620   1.729
 1563SOL    HW216721   3.915   1.523   1.848
 1564SOL     OW16722   9.190   8.357   7.042
 1564SOL    HW116723   9.192   8.351   7.141
 1564SOL    HW216724   9.204   8.452   7.013
 1565SOL     OW16725   0.234   7.849   0.442
 1565SOL    HW116726   0.180   7.900   0.375
 1565SOL    HW216727   0.247   7.755   0.411
 1566SOL     OW16728   4.910   1.178   1.683
 1566SOL    HW116729   4.899   1.080   1.665
 1566SOL    HW216730   4.980   1.191   1.753
 1567SOL     OW16731   2.770   3.187   0.903
 1567SOL    HW116732   2.861   3.204   0.866
 1567SOL    HW216733   2.730   3.273   0.935
 1568SOL     OW16734   2.070   1.465   1.352
 1568SOL    HW116735   2.057   1.374   1.314
 1568SOL    HW216736   2.167   1.483   1.365
 1569SOL     OW16737   3.518   3.537   6.725
 1569SOL    HW116738   3.514   3.519   6.823
 1569SOL    HW216739   3.611   3.524   6.693
 1570SOL     OW16740   8.005   5.024   5.716
 1570SOL    HW116741   7.994   5.087   5.793
 1570SOL    HW216742   7.975   4.932   5.743
 1571SOL     OW16743   0.120   6.733   0.642
 1571SOL    HW116744   0.138   6.821   0.687
 1571SOL    HW216745   0.109   6.747   0.544
 1572SOL     OW16746   3.165   0.881   6.679
 1572SOL    HW116747   3.141   0.922   6.767
 1572SOL    HW216748   3.107   0.801   6.662
 1573SOL     OW16749   3.763   1.335   0.709
 1573SOL    HW116750   3.780   1.318   0.806
 1573SOL    HW216751   3.682   1.392   0.698
 1574SOL     OW16752   3.943   7.422   7.159
 1574SOL    HW116753   4.006   7.482   7.209
 1574SOL    HW216754   3.977   7.328   7.163
 1575SOL     OW16755   2.083   0.775   1.434
 1575SOL    HW116756   2.045   0.767   1.342
 1575SOL    HW216757   2.082   0.871   1.462
 1576SOL     OW16758   1.855   5.003   7.086
 1576SOL    HW116759   1.810   5.074   7.033
 1576SOL    HW216760   1.948   5.033   7.109
 1577SOL     OW16761   0.957   6.101   0.454
 1577SOL    HW116762   1.005   6.080   0.369
 1577SOL    HW216763   0.859   6.102   0.437
 1578SOL     OW16764   7.326  -0.045   5.974
 1578SOL    HW116765   7.298  -0.044   5.878
 1578SOL    HW216766   7.272   0.023   6.025
 1579SOL     OW16767   2.693   2.119   1.451
 1579SOL    HW116768   2.766   2.176   1.487
 1579SOL    HW216769   2.722   2.023   1.453
 1580SOL     OW16770   3.550   1.609   0.459
 1580SOL    HW116771   3.549   1.518   0.416
 1580SOL    HW216772   3.585   1.676   0.393
 1581SOL     OW16773   0.872   5.983   1.084
 1581SOL    HW116774   0.929   6.049   1.034
 1581SOL    HW216775   0.909   5.891   1.070
 1582SOL     OW16776   4.265   7.558   6.745
 1582SOL    HW116777   4.278   7.583   6.840
 1582SOL    HW216778   4.186   7.497   6.737
 1583SOL     OW16779   6.514   1.541   1.105
 1583SOL    HW116780   6.533   1.625   1.156
 1583SOL    HW216781   6.530   1.462   1.164
 1584SOL     OW16782   1.392   2.025   1.033
 1584SOL    HW116783   1.433   1.955   1.091
 1584SOL    HW216784   1.358   1.983   0.949
 1585SOL     OW16785   9.540   8.357   0.531
 1585SOL    HW116786   9.466   8.400   0.479
 1585SOL    HW216787   9.626   8.370   0.482
 1586SOL     OW16788   6.355   5.149   0.715
 1586SOL    HW116789   6.433   5.142   0.654
 1586SOL    HW216790   6.275   5.181   0.664
 1587SOL     OW16791   8.003   7.371   5.683
 1587SOL    HW116792   8.077   7.430   5.651
 1587SOL    HW216793   7.929   7.428   5.719
 1588SOL     OW16794   2.617   2.969   0.923
 1588SOL    HW116795   2.647   2.916   0.844
 1588SOL    HW216796   2.680   3.046   0.937
 1589SOL     OW16797   3.566   1.090   1.067
 1589SOL    HW116798   3.637   1.107   0.998
 1589SOL    HW216799   3.609   1.072   1.155
 1590SOL     OW16800   7.873   0.547   5.288
 1590SOL    HW116801   7.808   0.606   5.240
 1590SOL    HW216802   7.966   0.575   5.267
 1591SOL     OW16803   7.137   0.665   6.049
 1591SOL    HW116804   7.136   0.765   6.038
 1591SOL    HW216805   7.231   0.633   6.053
 1592SOL     OW16806   0.276   2.196   6.353
 1592SOL    HW116807   0.246   2.152   6.438
 1592SOL    HW216808   0.273   2.295   6.364
 1593SOL     OW16809   4.235   5.844   6.706
 1593SOL    HW116810   4.266   5.771   6.645
 1593SOL    HW216811   4.302   5.855   6.780
 1594SOL     OW16812   4.204   7.909   2.605
 1594SOL    HW116813   4.162   7.901   2.695
 1594SOL    HW216814   4.153   7.974   2.549
 1595SOL     OW16815   5.542   6.226   1.980
 1595SOL    HW116816   5.573   6.296   2.045
 1595SOL    HW216817   5.603   6.226   1.900
 1596SOL     OW16818   7.088   8.296   5.593
 1596SOL    HW116819   7.012   8.358   5.576
 1596SOL    HW216820   7.110   8.247   5.508
 1597SOL     OW16821   4.661   0.516   0.978
 1597SOL    HW116822   4.628   0.443   1.038
 1597SOL    HW216823   4.668   0.601   1.031
 1598SOL     OW16824   0.705   7.355   1.206
 1598SOL    HW116825   0.740   7.279   1.152
 1598SOL    HW216826   0.606   7.345   1.217
 1599SOL     OW16827   6.070   5.441   1.412
 1599SOL    HW116828   6.001   5.483   1.352
 1599SOL    HW216829   6.042   5.452   1.507
 1600SOL     OW16830   1.230   6.128   5.970
 1600SOL    HW116831   1.190   6.107   6.059
 1600SOL    HW216832   1.303   6.196   5.981
 1601SOL     OW16833   5.907   8.368   0.689
 1601SOL    HW116834   5.908   8.467   0.673
 1601SOL    HW216835   5.932   8.320   0.605
 1602SOL     OW16836   4.934   4.269   6.551
 1602SOL    HW116837   4.980   4.186   6.584
 1602SOL    HW216838   4.844   4.245   6.516
 1603SOL     OW16839   7.174   7.686   0.665
 1603SOL    HW116840   7.082   7.660   0.635
 1603SOL    HW216841   7.240   7.662   0.594
 1604SOL     OW16842   0.564   8.186   0.863
 1604SOL    HW116843   0.609   8.140   0.786
 1604SOL    HW216844   0.607   8.156   0.948
 1605SOL     OW16845   7.947   4.363   6.726
 1605SOL    HW116846   8.002   4.421   6.667
 1605SOL    HW216847   7.851   4.391   6.720
 1606SOL     OW16848   2.315   4.680   0.736
 1606SOL    HW116849   2.270   4.621   0.803
 1606SOL    HW216850   2.407   4.645   0.717
 1607SOL     OW16851   5.344   8.227   1.292
 1607SOL    HW116852   5.277   8.223   1.218
 1607SOL    HW216853   5.427   8.177   1.266
 1608SOL     OW16854   6.815   3.094   6.988
 1608SOL    HW116855   6.735   3.081   7.046
 1608SOL    HW216856   6.898   3.082   7.044
 1609SOL     OW16857   0.653   6.694   4.894
 1609SOL    HW116858   0.734   6.636   4.907
 1609SOL    HW216859   0.575   6.637   4.870
 1610SOL     OW16860   0.945   6.483   0.831
 1610SOL    HW116861   0.887   6.557   0.796
 1610SOL    HW216862   1.025   6.522   0.876
 1611SOL     OW16863   2.974   4.162   0.447
 1611SOL    HW116864   2.905   4.234   0.452
 1611SOL    HW216865   2.980   4.127   0.353
 1612SOL     OW16866   1.361   2.393   6.323
 1612SOL    HW116867   1.340   2.476   6.374
 1612SOL    HW216868   1.446   2.406   6.271
 1613SOL     OW16869   4.899   6.042   6.316
 1613SOL    HW116870   4.886   6.064   6.219
 1613SOL    HW216871   4.972   6.100   6.353
 1614SOL     OW16872   1.475   6.162   1.768
 1614SOL    HW116873   1.399   6.220   1.737
 1614SOL    HW216874   1.473   6.075   1.718
 1615SOL     OW16875   9.124   2.189   5.761
 1615SOL    HW116876   9.119   2.289   5.757
 1615SOL    HW216877   9.146   2.160   5.854
 1616SOL     OW16878   1.589   5.796   0.867
 1616SOL    HW116879   1.618   5.762   0.778
 1616SOL    HW216880   1.495   5.769   0.885
 1617SOL     OW16881   9.435   3.476   1.365
 1617SOL    HW116882   9.363   3.426   1.414
 1617SOL    HW216883   9.413   3.573   1.364
 1618SOL     OW16884   3.750   2.415   6.773
 1618SOL    HW116885   3.768   2.508   6.806
 1618SOL    HW216886   3.826   2.384   6.716
 1619SOL     OW16887   3.267   4.996   1.099
 1619SOL    HW116888   3.287   4.898   1.105
 1619SOL    HW216889   3.184   5.016   1.151
 1620SOL     OW16890   2.885   7.927   6.700
 1620SOL    HW116891   2.810   7.863   6.686
 1620SOL    HW216892   2.880   7.963   6.793
 1621SOL     OW16893   7.899   3.839   0.877
 1621SOL    HW116894   7.913   3.919   0.820
 1621SOL    HW216895   7.801   3.820   0.886
 1622SOL     OW16896   0.391   0.686   6.767
 1622SOL    HW116897   0.432   0.650   6.851
 1622SOL    HW216898   0.459   0.684   6.694
 1623SOL     OW16899   3.608   1.374   7.068
 1623SOL    HW116900   3.694   1.402   7.025
 1623SOL    HW216901   3.616   1.279   7.098
 1624SOL     OW16902   7.670   7.997   6.964
 1624SOL    HW116903   7.643   7.901   6.973
 1624SOL    HW216904   7.609   8.055   7.018
 1625SOL     OW16905   5.246   5.811   6.799
 1625SOL    HW116906   5.212   5.891   6.848
 1625SOL    HW216907   5.192   5.731   6.824
 1626SOL     OW16908   8.670   6.466   5.341
 1626SOL    HW116909   8.665   6.378   5.294
 1626SOL    HW216910   8.614   6.533   5.292
 1627SOL     OW16911   9.432   0.517   5.993
 1627SOL    HW116912   9.504   0.517   5.925
 1627SOL    HW216913   9.343   0.531   5.949
 1628SOL     OW16914   8.621   0.894   1.063
 1628SOL    HW116915   8.691   0.890   1.135
 1628SOL    HW216916   8.540   0.941   1.098
 1629SOL     OW16917   8.490   6.581   0.980
 1629SOL    HW116918   8.560   6.614   1.044
 1629SOL    HW216919   8.422   6.653   0.966
 1630SOL     OW16920   8.013   3.340   1.507
 1630SOL    HW116921   8.028   3.244   1.483
 1630SOL    HW216922   7.917   3.354   1.532
 1631SOL     OW16923   6.966   5.874   6.333
 1631SOL    HW116924   6.985   5.923   6.248
 1631SOL    HW216925   6.867   5.868   6.348
 1632SOL     OW16926   6.596   6.379   1.564
 1632SOL    HW116927   6.539   6.458   1.542
 1632SOL    HW216928   6.581   6.352   1.659
 1633SOL     OW16929   7.762   1.926   7.022
 1633SOL    HW116930   7.803   1.842   6.986
 1633SOL    HW216931   7.819   2.004   6.996
 1634SOL     OW16932   0.805   7.426   5.355
 1634SOL    HW116933   0.743   7.363   5.400
 1634SOL    HW216934   0.849   7.485   5.423
 1635SOL     OW16935   4.293   2.403   0.653
 1635SOL    HW116936   4.207   2.448   0.631
 1635SOL    HW216937   4.352   2.467   0.703
 1636SOL     OW16938   0.430   2.079   6.742
 1636SOL    HW116939   0.408   2.020   6.665
 1636SOL    HW216940   0.519   2.122   6.726
 1637SOL     OW16941   1.128   6.786   0.879
 1637SOL    HW116942   1.133   6.696   0.921
 1637SOL    HW216943   1.204   6.842   0.912
 1638SOL     OW16944   2.582   5.427   1.040
 1638SOL    HW116945   2.669   5.381   1.022
 1638SOL    HW216946   2.533   5.440   0.954
 1639SOL     OW16947   1.371   3.057   5.851
 1639SOL    HW116948   1.392   3.077   5.755
 1639SOL    HW216949   1.431   3.112   5.909
 1640SOL     OW16950   0.378   6.808   7.107
 1640SOL    HW116951   0.392   6.749   7.187
 1640SOL    HW216952   0.280   6.814   7.087
 1641SOL     OW16953   2.759   5.096   6.570
 1641SOL    HW116954   2.674   5.066   6.613
 1641SOL    HW216955   2.761   5.195   6.563
 1642SOL     OW16956   7.714   6.041   5.598
 1642SOL    HW116957   7.649   6.114   5.615
 1642SOL    HW216958   7.773   6.065   5.521
 1643SOL     OW16959   4.282   0.069   1.895
 1643SOL    HW116960   4.249  -0.023   1.876
 1643SOL    HW216961   4.334   0.069   1.980
 1644SOL     OW16962   4.273   5.087   1.226
 1644SOL    HW116963   4.331   5.056   1.151
 1644SOL    HW216964   4.221   5.167   1.196
 1645SOL     OW16965   1.173   3.728   5.344
 1645SOL    HW116966   1.201   3.813   5.298
 1645SOL    HW216967   1.158   3.657   5.275
 1646SOL     OW16968   1.416   5.591   5.710
 1646SOL    HW116969   1.369   5.669   5.750
 1646SOL    HW216970   1.402   5.592   5.610
 1647SOL     OW16971   8.448   1.113   5.892
 1647SOL    HW116972   8.500   1.069   5.819
 1647SOL    HW216973   8.450   1.212   5.880
 1648SOL     OW16974   0.697   8.105   1.070
 1648SOL    HW116975   0.636   8.132   1.145
 1648SOL    HW216976   0.782   8.069   1.108
 1649SOL     OW16977   4.493   8.186   6.818
 1649SOL    HW116978   4.532   8.136   6.740
 1649SOL    HW216979   4.561   8.250   6.854
 1650SOL     OW16980   2.288   0.491   1.808
 1650SOL    HW116981   2.287   0.580   1.853
 1650SOL    HW216982   2.200   0.446   1.820
 1651SOL     OW16983   4.586   4.743   6.942
 1651SOL    HW116984   4.525   4.787   6.876
 1651SOL    HW216985   4.677   4.733   6.902
 1652SOL     OW16986   9.026   3.371   1.981
 1652SOL    HW116987   9.113   3.323   1.993
 1652SOL    HW216988   9.002   3.419   2.066
 1653SOL     OW16989   1.234   7.298   5.584
 1653SOL    HW116990   1.259   7.228   5.650
 1653SOL    HW216991   1.145   7.275   5.543
 1654SOL     OW16992   4.484  -0.060   6.476
 1654SOL    HW116993   4.399  -0.073   6.527
 1654SOL    HW216994   4.485  -0.120   6.396
 1655SOL     OW16995   7.636   5.223   5.411
 1655SOL    HW116996   7.597   5.286   5.344
 1655SOL    HW216997   7.707   5.269   5.464
 1656SOL     OW16998   7.096   3.102   5.899
 1656SOL    HW116999   7.080   3.011   5.860
 1656SOL    HW217000   7.148   3.157   5.834
 1657SOL     OW17001   0.170   3.894   1.778
 1657SOL    HW117002   0.260   3.849   1.784
 1657SOL    HW217003   0.137   3.915   1.869
 1658SOL     OW17004   4.984   8.100   6.095
 1658SOL    HW117005   4.982   8.028   6.025
 1658SOL    HW217006   5.062   8.084   6.156
 1659SOL     OW17007   2.356   2.193   0.625
 1659SOL    HW117008   2.387   2.279   0.585
 1659SOL    HW217009   2.428   2.124   0.616
 1660SOL     OW17010   9.303   3.241   6.486
 1660SOL    HW117011   9.374   3.181   6.523
 1660SOL    HW217012   9.280   3.211   6.393
 1661SOL     OW17013   2.847   4.570   7.089
 1661SOL    HW117014   2.890   4.568   6.999
 1661SOL    HW217015   2.799   4.484   7.105
 1662SOL     OW17016   3.685   4.374   2.247
 1662SOL    HW117017   3.593   4.404   2.271
 1662SOL    HW217018   3.725   4.325   2.324
 1663SOL     OW17019   8.701   3.624   6.518
 1663SOL    HW117020   8.627   3.648   6.455
 1663SOL    HW217021   8.691   3.678   6.602
 1664SOL     OW17022   2.468   4.655   1.313
 1664SOL    HW117023   2.541   4.670   1.247
 1664SOL    HW217024   2.398   4.596   1.273
 1665SOL     OW17025   7.541   1.220   1.567
 1665SOL    HW117026   7.549   1.128   1.527
 1665SOL    HW217027   7.522   1.212   1.665
 1666SOL     OW17028   6.251   7.345   5.749
 1666SOL    HW117029   6.164   7.305   5.776
 1666SOL    HW217030   6.257   7.347   5.649
 1667SOL     OW17031   0.620   1.864   5.616
 1667SOL    HW117032   0.699   1.847   5.558
 1667SOL    HW217033   0.549   1.911   5.564
 1668SOL     OW17034   3.710   7.073   1.742
 1668SOL    HW117035   3.619   7.107   1.765
 1668SOL    HW217036   3.772   7.150   1.729
 1669SOL     OW17037   3.787   6.207   2.124
 1669SOL    HW117038   3.701   6.257   2.124
 1669SOL    HW217039   3.769   6.110   2.107
 1670SOL     OW17040   1.493   6.562   5.300
 1670SOL    HW117041   1.586   6.564   5.337
 1670SOL    HW217042   1.487   6.623   5.221
 1671SOL     OW17043   4.136   1.539   1.202
 1671SOL    HW117044   4.086   1.486   1.270
 1671SOL    HW217045   4.102   1.633   1.201
 1672SOL     OW17046   6.051   4.750   6.432
 1672SOL    HW117047   6.023   4.818   6.499
 1672SOL    HW217048   6.148   4.728   6.444
 1673SOL     OW17049   1.502   8.382   1.513
 1673SOL    HW117050   1.456   8.294   1.501
 1673SOL    HW217051   1.434   8.455   1.521
 1674SOL     OW17052   9.527   1.704   1.058
 1674SOL    HW117053   9.432   1.729   1.038
 1674SOL    HW217054   9.567   1.659   0.978
 1675SOL     OW17055   9.238   2.395   6.751
 1675SOL    HW117056   9.288   2.477   6.780
 1675SOL    HW217057   9.199   2.350   6.832
 1676SOL     OW17058   6.251   7.703   1.286
 1676SOL    HW117059   6.317   7.647   1.337
 1676SOL    HW217060   6.184   7.742   1.349
 1677SOL     OW17061   1.032   5.597   5.525
 1677SOL    HW117062   1.054   5.685   5.484
 1677SOL    HW217063   1.038   5.604   5.625
 1678SOL     OW17064   3.658   3.289   7.123
 1678SOL    HW117065   3.677   3.339   7.208
 1678SOL    HW217066   3.586   3.337   7.072
 1679SOL     OW17067   2.637   6.955   5.402
 1679SOL    HW117068   2.597   6.870   5.369
 1679SOL    HW217069   2.636   7.023   5.328
 1680SOL     OW17070   6.814   5.084   1.211
 1680SOL    HW117071   6.862   5.094   1.298
 1680SOL    HW217072   6.718   5.113   1.222
 1681SOL     OW17073   9.465   3.166   0.561
 1681SOL    HW117074   9.430   3.137   0.650
 1681SOL    HW217075   9.478   3.087   0.502
 1682SOL     OW17076   9.495   2.430   1.508
 1682SOL    HW117077   9.536   2.360   1.449
 1682SOL    HW217078   9.440   2.385   1.578
 1683SOL     OW17079   1.522   7.516   0.879
 1683SOL    HW117080   1.504   7.536   0.783
 1683SOL    HW217081   1.580   7.435   0.886
 1684SOL     OW17082   5.931   4.987   1.312
 1684SOL    HW117083   6.002   5.004   1.244
 1684SOL    HW217084   5.870   4.915   1.279
 1685SOL     OW17085   5.152   0.322   6.421
 1685SOL    HW117086   5.143   0.354   6.516
 1685SOL    HW217087   5.063   0.287   6.390
 1686SOL     OW17088   7.813   3.981   7.051
 1686SOL    HW117089   7.755   3.901   7.069
 1686SOL    HW217090   7.755   4.061   7.033
 1687SOL     OW17091   6.452   5.015   6.359
 1687SOL    HW117092   6.524   5.022   6.290
 1687SOL    HW217093   6.487   4.968   6.439
 1688SOL     OW17094   0.461   5.715   7.063
 1688SOL    HW117095   0.497   5.799   7.024
 1688SOL    HW217096   0.377   5.690   7.016
 1689SOL     OW17097   4.385   6.289   2.542
 1689SOL    HW117098   4.436   6.373   2.525
 1689SOL    HW217099   4.401   6.258   2.635
 1690SOL     OW17100   3.144   1.114   0.651
 1690SOL    HW117101   3.076   1.043   0.670
 1690SOL    HW217102   3.099   1.203   0.647
 1691SOL     OW17103   7.398   8.131   6.140
 1691SOL    HW117104   7.340   8.211   6.158
 1691SOL    HW217105   7.348   8.048   6.163
 1692SOL     OW17106   1.240   2.773   1.170
 1692SOL    HW117107   1.299   2.853   1.179
 1692SOL    HW217108   1.231   2.727   1.258
 1693SOL     OW17109   5.726   2.051   6.680
 1693SOL    HW117110   5.813   2.095   6.700
 1693SOL    HW217111   5.652   2.098   6.728
 1694SOL     OW17112   7.140   4.001   1.601
 1694SOL    HW117113   7.074   3.935   1.638
 1694SOL    HW217114   7.097   4.051   1.525
 1695SOL     OW17115   0.212   5.019   0.571
 1695SOL    HW117116   0.287   5.082   0.549
 1695SOL    HW217117   0.131   5.072   0.595
 1696SOL     OW17118   4.100   4.906   1.359
 1696SOL    HW117119   4.119   4.920   1.456
 1696SOL    HW217120   4.165   4.959   1.304
 1697SOL     OW17121   8.219   3.742   6.022
 1697SOL    HW117122   8.177   3.766   5.935
 1697SOL    HW217123   8.149   3.710   6.085
 1698SOL     OW17124   4.577   1.066   2.209
 1698SOL    HW117125   4.544   1.090   2.301
 1698SOL    HW217126   4.577   0.966   2.199
 1699SOL     OW17127   2.587   2.090   6.842
 1699SOL    HW117128   2.497   2.122   6.871
 1699SOL    HW217129   2.585   2.073   6.743
 1700SOL     OW17130   3.471   1.920   7.055
 1700SOL    HW117131   3.391   1.865   7.031
 1700SOL    HW217132   3.545   1.901   6.991
 1701SOL     OW17133   8.211   0.111   6.221
 1701SOL    HW117134   8.193   0.015   6.244
 1701SOL    HW217135   8.221   0.164   6.305
 1702SOL     OW17136   6.642   8.025   7.046
 1702SOL    HW117137   6.636   7.966   6.965
 1702SOL    HW217138   6.620   7.971   7.128
 1703SOL     OW17139   8.449   4.524   5.977
 1703SOL    HW117140   8.392   4.452   6.016
 1703SOL    HW217141   8.399   4.568   5.902
 1704SOL     OW17142   7.060   5.307   7.029
 1704SOL    HW117143   6.968   5.347   7.032
 1704SOL    HW217144   7.057   5.214   7.064
 1705SOL     OW17145   3.447   4.431   0.620
 1705SOL    HW117146   3.419   4.488   0.543
 1705SOL    HW217147   3.529   4.469   0.662
 1706SOL     OW17148   8.817   6.169   4.798
 1706SOL    HW117149   8.908   6.208   4.811
 1706SOL    HW217150   8.760   6.233   4.747
 1707SOL     OW17151   8.907   3.249   0.650
 1707SOL    HW117152   8.962   3.284   0.574
 1707SOL    HW217153   8.824   3.305   0.660
 1708SOL     OW17154   4.061   8.059   0.719
 1708SOL    HW117155   4.096   8.041   0.627
 1708SOL    HW217156   4.055   7.973   0.769
 1709SOL     OW17157   3.929   1.825   6.753
 1709SOL    HW117158   3.862   1.793   6.686
 1709SOL    HW217159   4.009   1.764   6.752
 1710SOL     OW17160   3.368   3.188   5.856
 1710SOL    HW117161   3.348   3.188   5.758
 1710SOL    HW217162   3.446   3.249   5.874
 1711SOL     OW17163   1.515   7.927   1.809
 1711SOL    HW117164   1.478   8.018   1.790
 1711SOL    HW217165   1.593   7.934   1.871
 1712SOL     OW17166   9.417   7.297   0.522
 1712SOL    HW117167   9.509   7.315   0.556
 1712SOL    HW217168   9.376   7.383   0.491
 1713SOL     OW17169   6.342   5.306   6.216
 1713SOL    HW117170   6.354   5.212   6.184
 1713SOL    HW217171   6.403   5.366   6.163
 1714SOL     OW17172   8.282   0.721   0.555
 1714SOL    HW117173   8.201   0.756   0.602
 1714SOL    HW217174   8.364   0.755   0.602
 1715SOL     OW17175   5.009   3.765   0.499
 1715SOL    HW117176   4.939   3.803   0.560
 1715SOL    HW217177   5.052   3.839   0.448
 1716SOL     OW17178   1.470   2.164   5.497
 1716SOL    HW117179   1.381   2.128   5.468
 1716SOL    HW217180   1.531   2.169   5.418
 1717SOL     OW17181   3.004   5.305   7.008
 1717SOL    HW117182   3.033   5.389   6.962
 1717SOL    HW217183   3.071   5.282   7.079
 1718SOL     OW17184   7.099   7.621   6.758
 1718SOL    HW117185   7.109   7.631   6.659
 1718SOL    HW217186   7.014   7.664   6.788
 1719SOL     OW17187   5.783   0.907   6.230
 1719SOL    HW117188   5.772   0.825   6.174
 1719SOL    HW217189   5.789   0.987   6.171
 1720SOL     OW17190   8.172   1.636   0.908
 1720SOL    HW117191   8.179   1.536   0.899
 1720SOL    HW217192   8.264   1.674   0.920
 1721SOL     OW17193   5.083   3.060   1.746
 1721SOL    HW117194   5.040   2.976   1.781
 1721SOL    HW217195   5.159   3.086   1.806
 1722SOL     OW17196   1.637   3.024   5.633
 1722SOL    HW117197   1.542   3.051   5.619
 1722SOL    HW217198   1.687   3.030   5.546
 1723SOL     OW17199   9.545   6.104   4.702
 1723SOL    HW117200   9.545   6.188   4.756
 1723SOL    HW217201   9.508   6.122   4.611
 1724SOL     OW17202   6.497   7.802   0.861
 1724SOL    HW117203   6.401   7.779   0.844
 1724SOL    HW217204   6.508   7.901   0.858
 1725SOL     OW17205   7.997   4.317   0.525
 1725SOL    HW117206   8.038   4.240   0.476
 1725SOL    HW217207   8.069   4.371   0.569
 1726SOL     OW17208   2.320   7.602   5.244
 1726SOL    HW117209   2.374   7.594   5.160
 1726SOL    HW217210   2.229   7.564   5.229
 1727SOL     OW17211   1.272   2.187   0.472
 1727SOL    HW117212   1.322   2.126   0.410
 1727SOL    HW217213   1.219   2.133   0.537
 1728SOL     OW17214   4.528   1.890   1.886
 1728SOL    HW117215   4.586   1.971   1.896
 1728SOL    HW217216   4.500   1.858   1.976
 1729SOL     OW17217   1.140   4.405   6.550
 1729SOL    HW117218   1.140   4.393   6.649
 1729SOL    HW217219   1.235   4.403   6.517
 1730SOL     OW17220   4.531   2.451   6.310
 1730SOL    HW117221   4.627   2.480   6.301
 1730SOL    HW217222   4.501   2.408   6.225
 1731SOL     OW17223   9.346   7.135   0.757
 1731SOL    HW117224   9.350   7.185   0.671
 1731SOL    HW217225   9.438   7.129   0.796
 1732SOL     OW17226   3.995   7.593   5.928
 1732SOL    HW117227   4.051   7.605   5.847
 1732SOL    HW217228   4.031   7.649   6.003
 1733SOL     OW17229   1.043   5.065   6.738
 1733SOL    HW117230   1.097   5.145   6.763
 1733SOL    HW217231   1.097   5.005   6.679
 1734SOL     OW17232   3.779   0.881   1.464
 1734SOL    HW117233   3.693   0.849   1.503
 1734SOL    HW217234   3.761   0.958   1.403
 1735SOL     OW17235   5.778   0.546   0.936
 1735SOL    HW117236   5.707   0.503   0.992
 1735SOL    HW217237   5.770   0.646   0.944
 1736SOL     OW17238   0.256   6.532   6.688
 1736SOL    HW117239   0.351   6.541   6.657
 1736SOL    HW217240   0.233   6.435   6.695
 1737SOL     OW17241   7.561   5.675   0.571
 1737SOL    HW117242   7.465   5.690   0.549
 1737SOL    HW217243   7.587   5.581   0.549
 1738SOL     OW17244   5.594   0.634   1.537
 1738SOL    HW117245   5.675   0.601   1.489
 1738SOL    HW217246   5.551   0.706   1.484
 1739SOL     OW17247   7.373   6.074   5.390
 1739SOL    HW117248   7.303   6.099   5.322
 1739SOL    HW217249   7.458   6.050   5.342
 1740SOL     OW17250   0.638   3.511   6.690
 1740SOL    HW117251   0.719   3.505   6.747
 1740SOL    HW217252   0.642   3.440   6.619
 1741SOL     OW17253   7.950   4.536   1.072
 1741SOL    HW117254   7.907   4.608   1.127
 1741SOL    HW217255   8.024   4.493   1.124
 1742SOL     OW17256   1.189   3.038   0.909
 1742SOL    HW117257   1.207   3.117   0.850
 1742SOL    HW217258   1.158   2.962   0.853
 1743SOL     OW17259   3.690   2.180   2.518
 1743SOL    HW117260   3.725   2.103   2.571
 1743SOL    HW217261   3.654   2.249   2.580
 1744SOL     OW17262   7.306   5.008   1.169
 1744SOL    HW117263   7.323   5.104   1.146
 1744SOL    HW217264   7.209   4.987   1.158
 1745SOL     OW17265   5.677   3.434   0.815
 1745SOL    HW117266   5.655   3.346   0.857
 1745SOL    HW217267   5.702   3.500   0.886
 1746SOL     OW17268   5.381   1.138   1.736
 1746SOL    HW117269   5.427   1.224   1.758
 1746SOL    HW217270   5.322   1.111   1.813
 1747SOL     OW17271   9.365   4.948   0.663
 1747SOL    HW117272   9.278   4.960   0.616
 1747SOL    HW217273   9.369   4.857   0.703
 1748SOL     OW17274   4.158   0.169   5.913
 1748SOL    HW117275   4.220   0.233   5.959
 1748SOL    HW217276   4.064   0.200   5.923
 1749SOL     OW17277   4.194   6.158   2.381
 1749SOL    HW117278   4.156   6.081   2.434
 1749SOL    HW217279   4.265   6.203   2.435
 1750SOL     OW17280   3.610   6.409   7.040
 1750SOL    HW117281   3.661   6.346   7.098
 1750SOL    HW217282   3.562   6.358   6.968
 1751SOL     OW17283   5.825   6.676   1.811
 1751SOL    HW117284   5.737   6.646   1.848
 1751SOL    HW217285   5.877   6.723   1.882
 1752SOL     OW17286   1.782   3.947   0.651
 1752SOL    HW117287   1.838   3.871   0.686
 1752SOL    HW217288   1.831   4.033   0.664
 1753SOL     OW17289   8.826   2.883   1.232
 1753SOL    HW117290   8.923   2.861   1.225
 1753SOL    HW217291   8.786   2.885   1.140
 1754SOL     OW17292   5.897   5.576   5.255
 1754SOL    HW117293   5.960   5.638   5.208
 1754SOL    HW217294   5.804   5.612   5.250
 1755SOL     OW17295   2.236   5.067   6.273
 1755SOL    HW117296   2.189   5.150   6.245
 1755SOL    HW217297   2.333   5.086   6.289
 1756SOL     OW17298   3.795   3.818   6.422
 1756SOL    HW117299   3.893   3.799   6.432
 1756SOL    HW217300   3.766   3.798   6.329
 1757SOL     OW17301   3.908   5.124   7.072
 1757SOL    HW117302   3.927   5.209   7.023
 1757SOL    HW217303   3.993   5.071   7.081
 1758SOL     OW17304   5.765   3.879   1.756
 1758SOL    HW117305   5.791   3.909   1.848
 1758SOL    HW217306   5.843   3.836   1.711
 1759SOL     OW17307   2.519   5.696   6.218
 1759SOL    HW117308   2.529   5.782   6.266
 1759SOL    HW217309   2.604   5.643   6.225
 1760SOL     OW17310   1.889   6.741   1.176
 1760SOL    HW117311   1.942   6.714   1.257
 1760SOL    HW217312   1.804   6.784   1.204
 1761SOL     OW17313   1.153   7.896   1.310
 1761SOL    HW117314   1.178   7.905   1.406
 1761SOL    HW217315   1.157   7.799   1.283
 1762SOL     OW17316   4.192   3.022   1.401
 1762SOL    HW117317   4.138   3.015   1.317
 1762SOL    HW217318   4.261   2.949   1.403
 1763SOL     OW17319   4.645   2.372   0.665
 1763SOL    HW117320   4.557   2.412   0.639
 1763SOL    HW217321   4.635   2.322   0.751
 1764SOL     OW17322   4.705   6.990   6.536
 1764SOL    HW117323   4.757   6.932   6.474
 1764SOL    HW217324   4.756   7.075   6.552
 1765SOL     OW17325   7.672   5.213   0.870
 1765SOL    HW117326   7.587   5.232   0.821
 1765SOL    HW217327   7.704   5.121   0.847
 1766SOL     OW17328   8.204   5.432   6.501
 1766SOL    HW117329   8.212   5.512   6.441
 1766SOL    HW217330   8.294   5.389   6.512
 1767SOL     OW17331   0.336   7.224   5.119
 1767SOL    HW117332   0.412   7.238   5.182
 1767SOL    HW217333   0.336   7.129   5.087
 1768SOL     OW17334   9.542   8.290   5.243
 1768SOL    HW117335   9.443   8.299   5.234
 1768SOL    HW217336   9.586   8.377   5.219
 1769SOL     OW17337   8.170   6.013   6.231
 1769SOL    HW117338   8.154   6.067   6.148
 1769SOL    HW217339   8.219   6.068   6.298
 1770SOL     OW17340   4.379   1.107   6.905
 1770SOL    HW117341   4.446   1.117   6.979
 1770SOL    HW217342   4.346   1.198   6.879
 1771SOL     OW17343   5.430   3.293   1.038
 1771SOL    HW117344   5.460   3.369   1.096
 1771SOL    HW217345   5.508   3.253   0.990
 1772SOL     OW17346   0.604   0.785   6.590
 1772SOL    HW117347   0.683   0.723   6.588
 1772SOL    HW217348   0.635   0.878   6.573
 1773SOL     OW17349   3.166   5.795   1.499
 1773SOL    HW117350   3.264   5.816   1.509
 1773SOL    HW217351   3.113   5.879   1.507
 1774SOL     OW17352   2.100   8.148   7.132
 1774SOL    HW117353   2.182   8.144   7.189
 1774SOL    HW217354   2.023   8.181   7.187
 1775SOL     OW17355   4.543   6.324   6.665
 1775SOL    HW117356   4.515   6.238   6.623
 1775SOL    HW217357   4.472   6.393   6.652
 1776SOL     OW17358   7.019   7.942   6.779
 1776SOL    HW117359   7.115   7.919   6.762
 1776SOL    HW217360   6.966   7.928   6.696
 1777SOL     OW17361   1.328   3.698   6.823
 1777SOL    HW117362   1.352   3.639   6.900
 1777SOL    HW217363   1.386   3.675   6.744
 1778SOL     OW17364   4.996   5.563   1.382
 1778SOL    HW117365   5.037   5.480   1.421
 1778SOL    HW217366   5.052   5.595   1.306
 1779SOL     OW17367   6.927   5.193   5.914
 1779SOL    HW117368   6.907   5.132   5.837
 1779SOL    HW217369   7.027   5.198   5.927
 1780SOL     OW17370   1.203   4.742   2.234
 1780SOL    HW117371   1.302   4.743   2.246
 1780SOL    HW217372   1.179   4.688   2.154
 1781SOL     OW17373   7.833   8.254   5.901
 1781SOL    HW117374   7.765   8.312   5.945
 1781SOL    HW217375   7.893   8.309   5.844
 1782SOL     OW17376   1.264   2.851   6.609
 1782SOL    HW117377   1.304   2.939   6.582
 1782SOL    HW217378   1.173   2.843   6.568
 1783SOL     OW17379   1.220   3.519   6.384
 1783SOL    HW117380   1.129   3.558   6.397
 1783SOL    HW217381   1.256   3.548   6.295
 1784SOL     OW17382   1.270   7.817   5.250
 1784SOL    HW117383   1.363   7.785   5.229
 1784SOL    HW217384   1.272   7.916   5.264
 1785SOL     OW17385   9.414   3.193   6.057
 1785SOL    HW117386   9.514   3.187   6.061
 1785SOL    HW217387   9.387   3.242   5.974
 1786SOL     OW17388   8.456   2.784   6.240
 1786SOL    HW117389   8.539   2.839   6.229
 1786SOL    HW217390   8.421   2.759   6.149
 1787SOL     OW17391   8.441   1.520   6.795
 1787SOL    HW117392   8.360   1.483   6.750
 1787SOL    HW217393   8.507   1.447   6.809
 1788SOL     OW17394   7.034   1.530   6.549
 1788SOL    HW117395   6.951   1.560   6.503
 1788SOL    HW217396   7.109   1.524   6.482
 1789SOL     OW17397   4.540   1.752   1.230
 1789SOL    HW117398   4.486   1.697   1.166
 1789SOL    HW217399   4.481   1.786   1.303
 1790SOL     OW17400   3.818   4.213   6.969
 1790SOL    HW117401   3.796   4.291   7.027
 1790SOL    HW217402   3.880   4.241   6.896
 1791SOL     OW17403   3.489   7.253   2.416
 1791SOL    HW117404   3.494   7.309   2.499
 1791SOL    HW217405   3.578   7.253   2.370
 1792SOL     OW17406   3.098   4.485   0.434
 1792SOL    HW117407   3.155   4.505   0.354
 1792SOL    HW217408   3.002   4.507   0.413
 1793SOL     OW17409   3.315   1.285   1.195
 1793SOL    HW117410   3.414   1.296   1.204
 1793SOL    HW217411   3.271   1.301   1.283
 1794SOL     OW17412   1.033   5.502   1.246
 1794SOL    HW117413   0.977   5.475   1.324
 1794SOL    HW217414   1.117   5.448   1.245
 1795SOL     OW17415   5.437   3.398   5.955
 1795SOL    HW117416   5.451   3.308   5.997
 1795SOL    HW217417   5.518   3.422   5.902
 1796SOL     OW17418   0.854   3.596   6.882
 1796SOL    HW117419   0.927   3.658   6.852
 1796SOL    HW217420   0.892   3.504   6.896
 1797SOL     OW17421   3.161   5.543   6.327
 1797SOL    HW117422   3.249   5.530   6.281
 1797SOL    HW217423   3.170   5.614   6.397
 1798SOL     OW17424   0.473   2.278   7.069
 1798SOL    HW117425   0.569   2.259   7.046
 1798SOL    HW217426   0.458   2.377   7.069
 1799SOL     OW17427   0.462   6.607   6.468
 1799SOL    HW117428   0.410   6.608   6.383
 1799SOL    HW217429   0.479   6.700   6.498
 1800SOL     OW17430   1.529   2.880   0.975
 1800SOL    HW117431   1.619   2.879   0.929
 1800SOL    HW217432   1.512   2.970   1.014
 1801SOL     OW17433   7.051   5.496   6.608
 1801SOL    HW117434   6.982   5.467   6.542
 1801SOL    HW217435   7.028   5.588   6.642
 1802SOL     OW17436   7.448   2.101   6.314
 1802SOL    HW117437   7.488   2.192   6.325
 1802SOL    HW217438   7.370   2.106   6.252
 1803SOL     OW17439   6.052   2.970   0.731
 1803SOL    HW117440   6.033   3.066   0.711
 1803SOL    HW217441   6.076   2.960   0.828
 1804SOL     OW17442   3.455  -0.003   1.268
 1804SOL    HW117443   3.522  -0.006   1.194
 1804SOL    HW217444   3.369  -0.044   1.237
 1805SOL     OW17445   8.948   5.352   1.416
 1805SOL    HW117446   8.959   5.451   1.417
 1805SOL    HW217447   8.913   5.321   1.505
 1806SOL     OW17448   1.711   5.755   0.594
 1806SOL    HW117449   1.699   5.665   0.635
 1806SOL    HW217450   1.689   5.751   0.497
 1807SOL     OW17451   6.173   5.576   7.067
 1807SOL    HW117452   6.118   5.493   7.062
 1807SOL    HW217453   6.243   5.566   7.138
 1808SOL     OW17454   0.577   7.171   6.992
 1808SOL    HW117455   0.496   7.221   6.962
 1808SOL    HW217456   0.647   7.236   7.023
 1809SOL     OW17457   5.835   7.212   0.734
 1809SOL    HW117458   5.803   7.118   0.723
 1809SOL    HW217459   5.762   7.267   0.773
 1810SOL     OW17460   2.718   0.789   6.998
 1810SOL    HW117461   2.643   0.835   7.047
 1810SOL    HW217462   2.684   0.706   6.955
 1811SOL     OW17463   5.826   0.608   0.630
 1811SOL    HW117464   5.836   0.583   0.726
 1811SOL    HW217465   5.799   0.528   0.577
 1812SOL     OW17466   5.105   7.783   5.641
 1812SOL    HW117467   5.182   7.745   5.589
 1812SOL    HW217468   5.044   7.832   5.579
 1813SOL     OW17469   3.013   8.226   1.089
 1813SOL    HW117470   2.974   8.288   1.022
 1813SOL    HW217471   3.099   8.188   1.054
 1814SOL     OW17472   9.574   7.436   2.158
 1814SOL    HW117473   9.530   7.471   2.240
 1814SOL    HW217474   9.633   7.506   2.118
 1815SOL     OW17475   5.362   7.782   5.510
 1815SOL    HW117476   5.326   7.736   5.429
 1815SOL    HW217477   5.456   7.811   5.493
 1816SOL     OW17478   6.297   0.647   1.892
 1816SOL    HW117479   6.377   0.634   1.950
 1816SOL    HW217480   6.220   0.679   1.948
 1817SOL     OW17481   3.485   7.140   1.839
 1817SOL    HW117482   3.444   7.051   1.856
 1817SOL    HW217483   3.490   7.191   1.925
 1818SOL     OW17484   8.399   5.835   6.662
 1818SOL    HW117485   8.354   5.759   6.709
 1818SOL    HW217486   8.338   5.872   6.592
 1819SOL     OW17487   9.449   8.184   1.440
 1819SOL    HW117488   9.482   8.221   1.527
 1819SOL    HW217489   9.408   8.258   1.386
 1820SOL     OW17490   4.821   3.499   6.874
 1820SOL    HW117491   4.849   3.424   6.934
 1820SOL    HW217492   4.875   3.581   6.895
 1821SOL     OW17493   4.238   5.230   1.983
 1821SOL    HW117494   4.159   5.223   2.045
 1821SOL    HW217495   4.313   5.275   2.031
 1822SOL     OW17496   8.475   1.358   0.473
 1822SOL    HW117497   8.493   1.397   0.563
 1822SOL    HW217498   8.379   1.334   0.465
 1823SOL     OW17499   9.260   4.195   6.122
 1823SOL    HW117500   9.283   4.124   6.056
 1823SOL    HW217501   9.208   4.267   6.076
 1824SOL     OW17502   1.082   4.655   1.005
 1824SOL    HW117503   1.105   4.751   0.986
 1824SOL    HW217504   1.131   4.597   0.940
 1825SOL     OW17505   3.085   7.853   1.416
 1825SOL    HW117506   3.010   7.893   1.362
 1825SOL    HW217507   3.054   7.767   1.456
 1826SOL     OW17508   6.056   8.159   1.711
 1826SOL    HW117509   6.088   8.136   1.803
 1826SOL    HW217510   6.003   8.083   1.674
 1827SOL     OW17511   7.020   7.914   6.348
 1827SOL    HW117512   6.979   7.857   6.277
 1827SOL    HW217513   6.957   7.923   6.425
 1828SOL     OW17514   8.413   7.831   6.042
 1828SOL    HW117515   8.341   7.879   6.092
 1828SOL    HW217516   8.449   7.891   5.970
 1829SOL     OW17517   4.181   2.415   6.800
 1829SOL    HW117518   4.152   2.347   6.733
 1829SOL    HW217519   4.143   2.504   6.776
 1830SOL     OW17520   7.134   6.801   1.213
 1830SOL    HW117521   7.061   6.869   1.219
 1830SOL    HW217522   7.210   6.828   1.273
 1831SOL     OW17523   6.454   1.358   1.453
 1831SOL    HW117524   6.486   1.296   1.524
 1831SOL    HW217525   6.500   1.447   1.463
 1832SOL     OW17526   7.229   2.839   5.939
 1832SOL    HW117527   7.148   2.791   5.904
 1832SOL    HW217528   7.310   2.806   5.891
 1833SOL     OW17529   5.721   3.803   1.288
 1833SOL    HW117530   5.821   3.797   1.285
 1833SOL    HW217531   5.693   3.857   1.367
 1834SOL     OW17532   7.034   5.351   1.541
 1834SOL    HW117533   7.006   5.367   1.635
 1834SOL    HW217534   7.113   5.408   1.519
 1835SOL     OW17535   0.601   5.920   6.878
 1835SOL    HW117536   0.635   6.013   6.862
 1835SOL    HW217537   0.645   5.858   6.814
 1836SOL     OW17538   3.652   3.590   1.691
 1836SOL    HW117539   3.668   3.621   1.785
 1836SOL    HW217540   3.563   3.623   1.660
 1837SOL     OW17541   6.701   3.363   1.093
 1837SOL    HW117542   6.657   3.273   1.102
 1837SOL    HW217543   6.798   3.355   1.116
 1838SOL     OW17544   6.244   7.888   6.553
 1838SOL    HW117545   6.270   7.833   6.632
 1838SOL    HW217546   6.172   7.952   6.579
 1839SOL     OW17547   5.490   5.342   1.314
 1839SOL    HW117548   5.496   5.316   1.217
 1839SOL    HW217549   5.403   5.388   1.331
 1840SOL     OW17550   1.581   7.755   0.694
 1840SOL    HW117551   1.648   7.824   0.720
 1840SOL    HW217552   1.616   7.701   0.617
 1841SOL     OW17553   4.152   4.904   1.850
 1841SOL    HW117554   4.138   5.001   1.830
 1841SOL    HW217555   4.162   4.853   1.764
 1842SOL     OW17556   8.181   0.400   7.020
 1842SOL    HW117557   8.127   0.430   6.941
 1842SOL    HW217558   8.144   0.313   7.054
 1843SOL     OW17559   3.631   1.105   7.141
 1843SOL    HW117560   3.622   1.028   7.078
 1843SOL    HW217561   3.578   1.087   7.224
 1844SOL     OW17562   0.917   2.535   6.780
 1844SOL    HW117563   1.013   2.505   6.782
 1844SOL    HW217564   0.871   2.504   6.863
 1845SOL     OW17565   6.409   0.854   0.718
 1845SOL    HW117566   6.429   0.759   0.695
 1845SOL    HW217567   6.327   0.884   0.669
 1846SOL     OW17568   7.176   1.309   0.965
 1846SOL    HW117569   7.143   1.264   0.882
 1846SOL    HW217570   7.200   1.404   0.944
 1847SOL     OW17571   1.799   1.816   6.359
 1847SOL    HW117572   1.888   1.821   6.313
 1847SOL    HW217573   1.734   1.766   6.301
 1848SOL     OW17574   2.949   6.905   1.744
 1848SOL    HW117575   2.892   6.946   1.816
 1848SOL    HW217576   3.017   6.845   1.787
 1849SOL     OW17577   1.019   2.745   5.741
 1849SOL    HW117578   1.111   2.782   5.747
 1849SOL    HW217579   0.956   2.816   5.711
 1850SOL     OW17580   2.616   1.234   1.817
 1850SOL    HW117581   2.681   1.187   1.878
 1850SOL    HW217582   2.595   1.175   1.739
 1851SOL     OW17583   2.364   2.953   0.777
 1851SOL    HW117584   2.413   2.878   0.823
 1851SOL    HW217585   2.321   2.918   0.694
 1852SOL     OW17586   6.963   3.380   1.165
 1852SOL    HW117587   6.956   3.479   1.177
 1852SOL    HW217588   7.044   3.346   1.213
 1853SOL     OW17589   0.360   5.772   6.029
 1853SOL    HW117590   0.422   5.791   5.953
 1853SOL    HW217591   0.269   5.750   5.994
 1854SOL     OW17592   5.614   2.334   0.651
 1854SOL    HW117593   5.670   2.286   0.584
 1854SOL    HW217594   5.603   2.429   0.625
 1855SOL     OW17595   5.512   2.503   6.052
 1855SOL    HW117596   5.412   2.500   6.050
 1855SOL    HW217597   5.548   2.414   6.079
 1856SOL     OW17598   4.220   1.654   1.980
 1856SOL    HW117599   4.300   1.624   1.928
 1856SOL    HW217600   4.214   1.754   1.977
 1857SOL     OW17601   4.623   4.521   0.496
 1857SOL    HW117602   4.541   4.513   0.439
 1857SOL    HW217603   4.671   4.433   0.496
 1858SOL     OW17604   6.249   4.203   5.451
 1858SOL    HW117605   6.203   4.291   5.442
 1858SOL    HW217606   6.274   4.188   5.547
 1859SOL     OW17607   7.948   0.273   1.561
 1859SOL    HW117608   7.946   0.216   1.644
 1859SOL    HW217609   7.993   0.223   1.487
 1860SOL     OW17610   3.536   0.422   1.196
 1860SOL    HW117611   3.501   0.414   1.103
 1860SOL    HW217612   3.509   0.510   1.235
 1861SOL     OW17613   8.375   6.651   5.475
 1861SOL    HW117614   8.375   6.580   5.404
 1861SOL    HW217615   8.334   6.614   5.558
 1862SOL     OW17616   7.469   8.300   1.016
 1862SOL    HW117617   7.424   8.215   1.043
 1862SOL    HW217618   7.442   8.323   0.922
 1863SOL     OW17619   1.665   4.936   5.871
 1863SOL    HW117620   1.628   4.843   5.860
 1863SOL    HW217621   1.735   4.952   5.802
 1864SOL     OW17622   1.709   7.833   6.952
 1864SOL    HW117623   1.659   7.916   6.976
 1864SOL    HW217624   1.649   7.772   6.900
 1865SOL     OW17625   2.573   7.286   5.776
 1865SOL    HW117626   2.637   7.209   5.766
 1865SOL    HW217627   2.526   7.301   5.689
 1866SOL     OW17628   0.587   0.313   0.534
 1866SOL    HW117629   0.672   0.279   0.572
 1866SOL    HW217630   0.586   0.413   0.539
 1867SOL     OW17631   4.228   5.549   6.577
 1867SOL    HW117632   4.135   5.552   6.615
 1867SOL    HW217633   4.235   5.612   6.501
 1868SOL     OW17634   0.199   4.239   0.962
 1868SOL    HW117635   0.109   4.258   1.000
 1868SOL    HW217636   0.222   4.143   0.978
 1869SOL     OW17637   5.412   4.765   6.393
 1869SOL    HW117638   5.451   4.683   6.433
 1869SOL    HW217639   5.335   4.796   6.448
 1870SOL     OW17640   7.631   3.620   6.510
 1870SOL    HW117641   7.595   3.685   6.444
 1870SOL    HW217642   7.722   3.591   6.481
 1871SOL     OW17643   4.002   1.777   1.387
 1871SOL    HW117644   3.919   1.730   1.357
 1871SOL    HW217645   4.035   1.837   1.314
 1872SOL     OW17646   6.796   6.716   5.417
 1872SOL    HW117647   6.703   6.684   5.432
 1872SOL    HW217648   6.820   6.704   5.320
 1873SOL     OW17649   0.925   7.494   6.769
 1873SOL    HW117650   0.990   7.421   6.746
 1873SOL    HW217651   0.832   7.461   6.756
 1874SOL     OW17652   0.864   2.110   1.272
 1874SOL    HW117653   0.833   2.182   1.334
 1874SOL    HW217654   0.961   2.120   1.254
 1875SOL     OW17655   4.652   1.220   7.040
 1875SOL    HW117656   4.696   1.177   6.961
 1875SOL    HW217657   4.640   1.152   7.112
 1876SOL     OW17658   8.878   8.420   5.593
 1876SOL    HW117659   8.797   8.457   5.547
 1876SOL    HW217660   8.855   8.332   5.634
 1877SOL     OW17661   0.413   6.610   0.912
 1877SOL    HW117662   0.460   6.609   0.824
 1877SOL    HW217663   0.320   6.575   0.901
 1878SOL     OW17664   2.761   1.777   0.898
 1878SOL    HW117665   2.704   1.695   0.891
 1878SOL    HW217666   2.847   1.755   0.944
 1879SOL     OW17667   7.336   0.037   0.581
 1879SOL    HW117668   7.357   0.072   0.673
 1879SOL    HW217669   7.372  -0.056   0.572
 1880SOL     OW17670   3.236   0.707   2.247
 1880SOL    HW117671   3.268   0.802   2.248
 1880SOL    HW217672   3.312   0.647   2.221
 1881SOL     OW17673   6.040   7.116   7.070
 1881SOL    HW117674   6.013   7.046   7.003
 1881SOL    HW217675   6.134   7.098   7.101
 1882SOL     OW17676   1.085   3.224   6.246
 1882SOL    HW117677   1.095   3.137   6.293
 1882SOL    HW217678   1.093   3.299   6.311
 1883SOL     OW17679   2.838   2.462   0.910
 1883SOL    HW117680   2.921   2.517   0.914
 1883SOL    HW217681   2.860   2.372   0.873
 1884SOL     OW17682   3.571   1.315   6.208
 1884SOL    HW117683   3.584   1.226   6.252
 1884SOL    HW217684   3.479   1.319   6.170
 1885SOL     OW17685   4.056   0.221   1.933
 1885SOL    HW117686   3.995   0.227   1.853
 1885SOL    HW217687   4.140   0.173   1.907
 1886SOL     OW17688   2.731   1.959   2.101
 1886SOL    HW117689   2.728   1.909   2.015
 1886SOL    HW217690   2.651   1.936   2.156
 1887SOL     OW17691   1.233   0.378   1.529
 1887SOL    HW117692   1.146   0.421   1.554
 1887SOL    HW217693   1.299   0.392   1.603
 1888SOL     OW17694   4.894   7.434   5.341
 1888SOL    HW117695   4.980   7.482   5.357
 1888SOL    HW217696   4.848   7.473   5.261
 1889SOL     OW17697   4.420   1.347   6.689
 1889SOL    HW117698   4.476   1.283   6.635
 1889SOL    HW217699   4.480   1.412   6.736
 1890SOL     OW17700   1.692   1.346   7.152
 1890SOL    HW117701   1.777   1.377   7.195
 1890SOL    HW217702   1.615   1.394   7.192
 1891SOL     OW17703   7.475  -0.023   6.812
 1891SOL    HW117704   7.538  -0.099   6.794
 1891SOL    HW217705   7.468  -0.010   6.911
 1892SOL     OW17706   2.584   6.961   6.171
 1892SOL    HW117707   2.588   7.060   6.181
 1892SOL    HW217708   2.566   6.919   6.260
 1893SOL     OW17709   7.437   4.593   7.030
 1893SOL    HW117710   7.443   4.663   7.101
 1893SOL    HW217711   7.367   4.526   7.054
 1894SOL     OW17712   6.570   6.326   1.834
 1894SOL    HW117713   6.661   6.288   1.851
 1894SOL    HW217714   6.500   6.257   1.854
 1895SOL     OW17715   2.050   0.792   0.892
 1895SOL    HW117716   2.106   0.724   0.844
 1895SOL    HW217717   2.073   0.884   0.859
 1896SOL     OW17718   4.255   6.198   6.782
 1896SOL    HW117719   4.329   6.211   6.849
 1896SOL    HW217720   4.235   6.285   6.737
 1897SOL     OW17721   1.411   7.994   0.603
 1897SOL    HW117722   1.457   7.906   0.619
 1897SOL    HW217723   1.450   8.062   0.665
 1898SOL     OW17724   0.118   6.512   4.708
 1898SOL    HW117725   0.045   6.578   4.690
 1898SOL    HW217726   0.184   6.515   4.633
 1899SOL     OW17727   6.246   3.427   0.594
 1899SOL    HW117728   6.190   3.439   0.676
 1899SOL    HW217729   6.332   3.383   0.619
 1900SOL     OW17730   8.607   6.974   5.078
 1900SOL    HW117731   8.671   6.929   5.016
 1900SOL    HW217732   8.514   6.941   5.060
 1901SOL     OW17733   9.440   2.741   5.996
 1901SOL    HW117734   9.356   2.782   6.031
 1901SOL    HW217735   9.488   2.808   5.938
 1902SOL     OW17736   5.226   1.306   1.108
 1902SOL    HW117737   5.131   1.305   1.076
 1902SOL    HW217738   5.227   1.300   1.208
 1903SOL     OW17739   3.460   1.417   6.602
 1903SOL    HW117740   3.387   1.430   6.669
 1903SOL    HW217741   3.431   1.454   6.514
 1904SOL     OW17742   5.474   1.194   6.370
 1904SOL    HW117743   5.395   1.251   6.349
 1904SOL    HW217744   5.506   1.214   6.463
 1905SOL     OW17745   3.196   0.045   1.693
 1905SOL    HW117746   3.182   0.117   1.626
 1905SOL    HW217747   3.278  -0.007   1.670
 1906SOL     OW17748   8.335   3.036   6.693
 1906SOL    HW117749   8.246   2.997   6.717
 1906SOL    HW217750   8.404   2.963   6.690
 1907SOL     OW17751   8.585   8.238   6.207
 1907SOL    HW117752   8.641   8.321   6.210
 1907SOL    HW217753   8.489   8.263   6.217
 1908SOL     OW17754   8.311   7.879   1.053
 1908SOL    HW117755   8.340   7.951   0.989
 1908SOL    HW217756   8.288   7.919   1.141
 1909SOL     OW17757   8.281   3.602   0.805
 1909SOL    HW117758   8.308   3.511   0.837
 1909SOL    HW217759   8.233   3.649   0.879
 1910SOL     OW17760   6.733   2.050   6.571
 1910SOL    HW117761   6.731   2.011   6.663
 1910SOL    HW217762   6.693   2.141   6.573
 1911SOL     OW17763   3.103   2.485   1.237
 1911SOL    HW117764   3.081   2.549   1.163
 1911SOL    HW217765   3.095   2.531   1.325
 1912SOL     OW17766   4.993   3.423   0.826
 1912SOL    HW117767   5.066   3.464   0.770
 1912SOL    HW217768   5.034   3.376   0.904
 1913SOL     OW17769   9.067   3.157   0.839
 1913SOL    HW117770   9.155   3.203   0.855
 1913SOL    HW217771   9.022   3.199   0.760
 1914SOL     OW17772   1.089   5.828   0.433
 1914SOL    HW117773   1.048   5.752   0.485
 1914SOL    HW217774   1.180   5.847   0.469
 1915SOL     OW17775   9.423   2.170   1.215
 1915SOL    HW117776   9.505   2.115   1.200
 1915SOL    HW217777   9.440   2.263   1.182
 1916SOL     OW17778   6.173   1.913   5.970
 1916SOL    HW117779   6.081   1.884   5.946
 1916SOL    HW217780   6.182   2.012   5.960
 1917SOL     OW17781   3.723   1.823   1.878
 1917SOL    HW117782   3.775   1.908   1.890
 1917SOL    HW217783   3.780   1.756   1.830
 1918SOL     OW17784   7.419   8.154   5.874
 1918SOL    HW117785   7.350   8.226   5.862
 1918SOL    HW217786   7.440   8.144   5.971
 1919SOL     OW17787   1.054   8.074   6.249
 1919SOL    HW117788   1.104   8.144   6.301
 1919SOL    HW217789   1.119   8.016   6.201
 1920SOL     OW17790   9.378   6.815   1.096
 1920SOL    HW117791   9.477   6.816   1.082
 1920SOL    HW217792   9.333   6.778   1.014
 1921SOL     OW17793   0.363   3.448   0.687
 1921SOL    HW117794   0.338   3.523   0.748
 1921SOL    HW217795   0.378   3.365   0.741
 1922SOL     OW17796   8.275   2.640   6.940
 1922SOL    HW117797   8.340   2.564   6.948
 1922SOL    HW217798   8.290   2.705   7.014
 1923SOL     OW17799   7.120   8.244   1.228
 1923SOL    HW117800   7.185   8.167   1.220
 1923SOL    HW217801   7.169   8.330   1.210
 1924SOL     OW17802   4.273   8.425   0.924
 1924SOL    HW117803   4.228   8.336   0.928
 1924SOL    HW217804   4.352   8.425   0.985
 1925SOL     OW17805   6.575   5.160   0.536
 1925SOL    HW117806   6.536   5.207   0.457
 1925SOL    HW217807   6.643   5.093   0.506
 1926SOL     OW17808   0.399   6.699   0.611
 1926SOL    HW117809   0.485   6.649   0.611
 1926SOL    HW217810   0.323   6.635   0.619
 1927SOL     OW17811   3.338   1.281   0.461
 1927SOL    HW117812   3.370   1.203   0.516
 1927SOL    HW217813   3.414   1.346   0.449
 1928SOL     OW17814   9.412   3.618   1.004
 1928SOL    HW117815   9.454   3.706   1.026
 1928SOL    HW217816   9.329   3.606   1.060
 1929SOL     OW17817   3.417   4.000   7.143
 1929SOL    HW117818   3.417   3.918   7.086
 1929SOL    HW217819   3.430   3.975   7.239
 1930SOL     OW17820   2.731   8.291   0.454
 1930SOL    HW117821   2.742   8.385   0.424
 1930SOL    HW217822   2.708   8.289   0.552
 1931SOL     OW17823   1.997   4.009   1.063
 1931SOL    HW117824   1.918   3.963   1.103
 1931SOL    HW217825   1.969   4.057   0.980
 1932SOL     OW17826   2.352   2.507   5.828
 1932SOL    HW117827   2.347   2.503   5.928
 1932SOL    HW217828   2.302   2.430   5.789
 1933SOL     OW17829   3.883   1.895   6.268
 1933SOL    HW117830   3.898   1.808   6.314
 1933SOL    HW217831   3.968   1.925   6.225
 1934SOL     OW17832   1.496   5.327   6.129
 1934SOL    HW117833   1.592   5.310   6.152
 1934SOL    HW217834   1.448   5.239   6.119
 1935SOL     OW17835   6.651   1.073   1.364
 1935SOL    HW117836   6.627   1.018   1.443
 1935SOL    HW217837   6.747   1.059   1.341
 1936SOL     OW17838   0.233   1.753   0.755
 1936SOL    HW117839   0.195   1.828   0.809
 1936SOL    HW217840   0.199   1.758   0.661
 1937SOL     OW17841   6.732   3.297   1.840
 1937SOL    HW117842   6.815   3.340   1.802
 1937SOL    HW217843   6.721   3.326   1.935
 1938SOL     OW17844   5.600   6.572   1.920
 1938SOL    HW117845   5.614   6.508   1.996
 1938SOL    HW217846   5.520   6.544   1.868
 1939SOL     OW17847   4.832   6.766   5.276
 1939SOL    HW117848   4.807   6.748   5.181
 1939SOL    HW217849   4.769   6.833   5.315
 1940SOL     OW17850   7.045   0.099   2.150
 1940SOL    HW117851   6.947   0.080   2.152
 1940SOL    HW217852   7.062   0.187   2.194
 1941SOL     OW17853   2.972   1.340   6.606
 1941SOL    HW117854   3.004   1.400   6.678
 1941SOL    HW217855   3.027   1.354   6.523
 1942SOL     OW17856   4.638   1.918   5.918
 1942SOL    HW117857   4.636   1.819   5.906
 1942SOL    HW217858   4.546   1.951   5.938
 1943SOL     OW17859   6.471  -0.017   1.527
 1943SOL    HW117860   6.519  -0.062   1.452
 1943SOL    HW217861   6.523   0.061   1.559
 1944SOL     OW17862   3.043   8.135   0.781
 1944SOL    HW117863   3.127   8.096   0.819
 1944SOL    HW217864   3.048   8.235   0.785
 1945SOL     OW17865   3.279   1.479   0.916
 1945SOL    HW117866   3.230   1.485   0.829
 1945SOL    HW217867   3.224   1.428   0.982
 1946SOL     OW17868   1.292   2.693   0.926
 1946SOL    HW117869   1.366   2.760   0.917
 1946SOL    HW217870   1.238   2.714   1.007
 1947SOL     OW17871   4.932   0.208   5.730
 1947SOL    HW117872   4.902   0.206   5.634
 1947SOL    HW217873   4.895   0.290   5.775
 1948SOL     OW17874   2.751   1.818   6.727
 1948SOL    HW117875   2.664   1.772   6.708
 1948SOL    HW217876   2.735   1.915   6.743
 1949SOL     OW17877   9.084   2.169   1.029
 1949SOL    HW117878   9.114   2.111   1.105
 1949SOL    HW217879   9.010   2.229   1.060
 1950SOL     OW17880   0.719   4.794   6.785
 1950SOL    HW117881   0.679   4.812   6.695
 1950SOL    HW217882   0.714   4.876   6.841
 1951SOL     OW17883   8.052   7.331   1.007
 1951SOL    HW117884   8.022   7.249   1.055
 1951SOL    HW217885   8.092   7.395   1.073
 1952SOL     OW17886   9.558   4.791   5.752
 1952SOL    HW117887   9.575   4.722   5.681
 1952SOL    HW217888   9.518   4.872   5.709
 1953SOL     OW17889   4.338   7.901   6.834
 1953SOL    HW117890   4.267   7.888   6.904
 1953SOL    HW217891   4.332   7.993   6.798
 1954SOL     OW17892   3.882   1.159   0.556
 1954SOL    HW117893   3.848   1.223   0.625
 1954SOL    HW217894   3.808   1.133   0.495
 1955SOL     OW17895   9.222   2.786   0.575
 1955SOL    HW117896   9.215   2.874   0.624
 1955SOL    HW217897   9.273   2.799   0.491
 1956SOL     OW17898   9.154   5.196   1.626
 1956SOL    HW117899   9.059   5.227   1.628
 1956SOL    HW217900   9.186   5.179   1.719
 1957SOL     OW17901   8.724   2.558   0.680
 1957SOL    HW117902   8.653   2.621   0.713
 1957SOL    HW217903   8.813   2.589   0.715
 1958SOL     OW17904   4.554   0.512   1.936
 1958SOL    HW117905   4.618   0.537   1.863
 1958SOL    HW217906   4.605   0.471   2.011
 1959SOL     OW17907   0.771   7.735   5.584
 1959SOL    HW117908   0.713   7.721   5.503
 1959SOL    HW217909   0.796   7.647   5.623
 1960SOL     OW17910   4.549   2.199   6.949
 1960SOL    HW117911   4.480   2.269   6.930
 1960SOL    HW217912   4.603   2.227   7.029
 1961SOL     OW17913   4.218   2.705   1.279
 1961SOL    HW117914   4.186   2.780   1.221
 1961SOL    HW217915   4.142   2.643   1.299
 1962SOL     OW17916   4.205   6.097   2.777
 1962SOL    HW117917   4.122   6.125   2.824
 1962SOL    HW217918   4.269   6.173   2.773
 1963SOL     OW17919   6.850   3.962   0.668
 1963SOL    HW117920   6.810   3.971   0.760
 1963SOL    HW217921   6.876   3.867   0.653
 1964SOL     OW17922   8.386   4.093   1.531
 1964SOL    HW117923   8.481   4.084   1.558
 1964SOL    HW217924   8.338   4.006   1.544
 1965SOL     OW17925   2.931   5.865   5.684
 1965SOL    HW117926   2.947   5.800   5.610
 1965SOL    HW217927   2.878   5.942   5.650
 1966SOL     OW17928   4.536   0.865   2.633
 1966SOL    HW117929   4.581   0.954   2.645
 1966SOL    HW217930   4.443   0.879   2.601
 1967SOL     OW17931   6.409   5.172   2.012
 1967SOL    HW117932   6.437   5.168   1.916
 1967SOL    HW217933   6.459   5.103   2.064
 1968SOL     OW17934   1.077   4.849   5.857
 1968SOL    HW117935   1.047   4.825   5.765
 1968SOL    HW217936   1.177   4.849   5.861
 1969SOL     OW17937   4.993   6.581   0.619
 1969SOL    HW117938   5.073   6.640   0.613
 1969SOL    HW217939   5.022   6.488   0.643
 1970SOL     OW17940   7.981   3.531   6.598
 1970SOL    HW117941   7.944   3.568   6.513
 1970SOL    HW217942   8.073   3.495   6.582
 1971SOL     OW17943   8.396   2.741   1.435
 1971SOL    HW117944   8.489   2.708   1.451
 1971SOL    HW217945   8.352   2.763   1.522
 1972SOL     OW17946   5.508   7.397   1.142
 1972SOL    HW117947   5.550   7.463   1.204
 1972SOL    HW217948   5.473   7.319   1.194
 1973SOL     OW17949   4.880   6.145   1.201
 1973SOL    HW117950   4.805   6.133   1.266
 1973SOL    HW217951   4.870   6.234   1.155
 1974SOL     OW17952   5.267   1.725   6.402
 1974SOL    HW117953   5.223   1.798   6.452
 1974SOL    HW217954   5.252   1.638   6.449
 1975SOL     OW17955   8.713   2.633   6.642
 1975SOL    HW117956   8.775   2.555   6.635
 1975SOL    HW217957   8.637   2.610   6.703
 1976SOL     OW17958   6.049   7.926   6.272
 1976SOL    HW117959   6.022   7.882   6.358
 1976SOL    HW217960   6.142   7.898   6.249
 1977SOL     OW17961   3.438   8.139   1.112
 1977SOL    HW117962   3.457   8.192   1.195
 1977SOL    HW217963   3.518   8.084   1.089
 1978SOL     OW17964   8.871   7.102   1.519
 1978SOL    HW117965   8.908   7.072   1.607
 1978SOL    HW217966   8.913   7.189   1.493
 1979SOL     OW17967   8.916   2.689   6.895
 1979SOL    HW117968   8.869   2.776   6.877
 1979SOL    HW217969   8.935   2.643   6.809
 1980SOL     OW17970   1.671   5.805   7.060
 1980SOL    HW117971   1.602   5.874   7.038
 1980SOL    HW217972   1.759   5.849   7.076
 1981SOL     OW17973   0.122   7.059   1.245
 1981SOL    HW117974   0.130   7.000   1.164
 1981SOL    HW217975   0.099   7.002   1.325
 1982SOL     OW17976   3.444   0.790   6.125
 1982SOL    HW117977   3.390   0.760   6.204
 1982SOL    HW217978   3.391   0.858   6.073
 1983SOL     OW17979   3.075   5.216   0.721
 1983SOL    HW117980   3.122   5.203   0.809
 1983SOL    HW217981   3.007   5.288   0.730
 1984SOL     OW17982   6.402   7.563   5.471
 1984SOL    HW117983   6.423   7.660   5.468
 1984SOL    HW217984   6.486   7.510   5.458
 1985SOL     OW17985   8.146   3.642   6.978
 1985SOL    HW117986   8.114   3.661   7.071
 1985SOL    HW217987   8.097   3.702   6.913
 1986SOL     OW17988   5.760   0.461   6.892
 1986SOL    HW117989   5.687   0.525   6.913
 1986SOL    HW217990   5.844   0.511   6.873
 1987SOL     OW17991   4.609   4.476   0.793
 1987SOL    HW117992   4.512   4.454   0.803
 1987SOL    HW217993   4.645   4.429   0.712
 1988SOL     OW17994   3.391   5.925   6.043
 1988SOL    HW117995   3.389   5.865   6.124
 1988SOL    HW217996   3.446   5.882   5.972
 1989SOL     OW17997   2.990   0.319   5.975
 1989SOL    HW117998   2.921   0.289   6.040
 1989SOL    HW217999   3.081   0.297   6.011
 1990SOL     OW18000   9.356   3.766   1.382
 1990SOL    HW118001   9.453   3.745   1.368
 1990SOL    HW218002   9.334   3.758   1.479
 1991SOL     OW18003   2.965   1.658   0.605
 1991SOL    HW118004   3.001   1.601   0.679
 1991SOL    HW218005   2.934   1.599   0.530
 1992SOL     OW18006   2.351   1.856   0.761
 1992SOL    HW118007   2.285   1.886   0.830
 1992SOL    HW218008   2.413   1.932   0.739
 1993SOL     OW18009   4.032   7.110   2.898
 1993SOL    HW118010   4.095   7.052   2.847
 1993SOL    HW218011   3.956   7.054   2.932
 1994SOL     OW18012   0.391   7.574   0.603
 1994SOL    HW118013   0.342   7.582   0.690
 1994SOL    HW218014   0.485   7.607   0.615
 1995SOL     OW18015   2.363   6.286   0.914
 1995SOL    HW118016   2.419   6.231   0.976
 1995SOL    HW218017   2.406   6.376   0.902
 1996SOL     OW18018   7.169   5.394   0.649
 1996SOL    HW118019   7.127   5.444   0.724
 1996SOL    HW218020   7.265   5.378   0.670
 1997SOL     OW18021   5.590   6.445   5.946
 1997SOL    HW118022   5.633   6.355   5.939
 1997SOL    HW218023   5.538   6.464   5.862
 1998SOL     OW18024   0.608   2.113   1.596
 1998SOL    HW118025   0.679   2.066   1.650
 1998SOL    HW218026   0.577   2.194   1.645
 1999SOL     OW18027   3.199   0.522   2.550
 1999SOL    HW118028   3.195   0.609   2.599
 1999SOL    HW218029   3.245   0.454   2.608
 2000SOL     OW18030   5.515   3.562   0.625
 2000SOL    HW118031   5.419   3.535   0.624
 2000SOL    HW218032   5.560   3.524   0.706
 2001SOL     OW18033   3.326   7.547   5.918
 2001SOL    HW118034   3.240   7.512   5.881
 2001SOL    HW218035   3.309   7.631   5.969
 2002SOL     OW18036   4.355   4.565   1.865
 2002SOL    HW118037   4.309   4.603   1.786
 2002SOL    HW218038   4.317   4.604   1.949
 2003SOL     OW18039   2.352   6.629   6.305
 2003SOL    HW118040   2.343   6.537   6.343
 2003SOL    HW218041   2.445   6.663   6.323
 2004SOL     OW18042   0.508   4.089   6.771
 2004SOL    HW118043   0.438   4.092   6.842
 2004SOL    HW218044   0.594   4.058   6.811
 2005SOL     OW18045   4.165   0.634   5.478
 2005SOL    HW118046   4.167   0.712   5.540
 2005SOL    HW218047   4.177   0.666   5.384
 2006SOL     OW18048   2.704   1.630   2.709
 2006SOL    HW118049   2.694   1.620   2.610
 2006SOL    HW218050   2.710   1.540   2.752
 2007SOL     OW18051   3.266   0.145   1.051
 2007SOL    HW118052   3.265   0.220   1.117
 2007SOL    HW218053   3.176   0.102   1.047
 2008SOL     OW18054   2.820   7.574   5.812
 2008SOL    HW118055   2.767   7.529   5.884
 2008SOL    HW218056   2.883   7.509   5.772
 2009SOL     OW18057   4.331   5.775   1.617
 2009SOL    HW118058   4.337   5.764   1.518
 2009SOL    HW218059   4.331   5.685   1.661
 2010SOL     OW18060   4.236   3.054   7.043
 2010SOL    HW118061   4.328   3.091   7.030
 2010SOL    HW218062   4.240   2.954   7.045
 2011SOL     OW18063   3.885   5.333   1.471
 2011SOL    HW118064   3.861   5.251   1.419
 2011SOL    HW218065   3.816   5.349   1.542
 2012SOL     OW18066   7.326   6.732   0.437
 2012SOL    HW118067   7.265   6.731   0.358
 2012SOL    HW218068   7.271   6.726   0.521
 2013SOL     OW18069   2.543   4.019   0.683
 2013SOL    HW118070   2.524   3.997   0.778
 2013SOL    HW218071   2.566   3.936   0.633
 2014SOL     OW18072   8.516   7.557   5.974
 2014SOL    HW118073   8.447   7.542   6.045
 2014SOL    HW218074   8.500   7.645   5.930
 2015SOL     OW18075   4.903   6.996   1.369
 2015SOL    HW118076   4.929   6.958   1.280
 2015SOL    HW218077   4.803   7.006   1.373
 2016SOL     OW18078   6.591   5.539   1.023
 2016SOL    HW118079   6.680   5.494   1.035
 2016SOL    HW218080   6.603   5.638   1.028
 2017SOL     OW18081   5.932   3.202   0.507
 2017SOL    HW118082   5.873   3.263   0.456
 2017SOL    HW218083   5.997   3.158   0.445
 2018SOL     OW18084   2.736   0.861   2.370
 2018SOL    HW118085   2.683   0.793   2.320
 2018SOL    HW218086   2.828   0.827   2.387
 2019SOL     OW18087   4.709   2.442   1.356
 2019SOL    HW118088   4.692   2.527   1.407
 2019SOL    HW218089   4.625   2.413   1.311
 2020SOL     OW18090   0.112   5.661   5.917
 2020SOL    HW118091   0.163   5.588   5.871
 2020SOL    HW218092   0.081   5.728   5.850
 2021SOL     OW18093   2.456   0.046   5.254
 2021SOL    HW118094   2.428   0.038   5.158
 2021SOL    HW218095   2.535   0.107   5.261
 2022SOL     OW18096   8.071   7.227   0.744
 2022SOL    HW118097   8.048   7.276   0.827
 2022SOL    HW218098   8.170   7.229   0.730
 2023SOL     OW18099   2.744   2.365   1.894
 2023SOL    HW118100   2.824   2.306   1.906
 2023SOL    HW218101   2.710   2.393   1.983
 2024SOL     OW18102   3.239   0.979   1.251
 2024SOL    HW118103   3.148   0.965   1.291
 2024SOL    HW218104   3.239   1.064   1.198
 2025SOL     OW18105   5.114   2.811   7.067
 2025SOL    HW118106   5.183   2.813   6.995
 2025SOL    HW218107   5.160   2.799   7.156
 2026SOL     OW18108   2.669   5.489   0.492
 2026SOL    HW118109   2.748   5.471   0.551
 2026SOL    HW218110   2.595   5.527   0.547
 2027SOL     OW18111   9.435   0.475   1.253
 2027SOL    HW118112   9.525   0.515   1.238
 2027SOL    HW218113   9.424   0.395   1.193
 2028SOL     OW18114   0.979   2.204   6.405
 2028SOL    HW118115   1.004   2.198   6.309
 2028SOL    HW218116   0.956   2.298   6.428
 2029SOL     OW18117   0.989   5.893   6.338
 2029SOL    HW118118   0.889   5.886   6.342
 2029SOL    HW218119   1.024   5.906   6.431
 2030SOL     OW18120   5.760   4.255   6.143
 2030SOL    HW118121   5.677   4.300   6.175
 2030SOL    HW218122   5.736   4.178   6.085
 2031SOL     OW18123   9.456   6.874   1.467
 2031SOL    HW118124   9.361   6.903   1.450
 2031SOL    HW218125   9.469   6.859   1.565
 2032SOL     OW18126   7.714   3.735   7.087
 2032SOL    HW118127   7.780   3.665   7.117
 2032SOL    HW218128   7.622   3.695   7.086
 2033SOL     OW18129   2.532   0.502   6.584
 2033SOL    HW118130   2.611   0.449   6.553
 2033SOL    HW218131   2.464   0.441   6.624
 2034SOL     OW18132   3.444   0.704   2.495
 2034SOL    HW118133   3.367   0.673   2.439
 2034SOL    HW218134   3.529   0.675   2.452
 2035SOL     OW18135   1.153   8.124   5.831
 2035SOL    HW118136   1.121   8.031   5.843
 2035SOL    HW218137   1.106   8.185   5.895
 2036SOL     OW18138   1.067   5.956   5.766
 2036SOL    HW118139   0.997   5.942   5.836
 2036SOL    HW218140   1.148   5.996   5.807
 2037SOL     OW18141   2.218   1.605   5.932
 2037SOL    HW118142   2.227   1.646   5.841
 2037SOL    HW218143   2.125   1.621   5.966
 2038SOL     OW18144   8.676   3.423   1.375
 2038SOL    HW118145   8.730   3.457   1.298
 2038SOL    HW218146   8.580   3.420   1.350
 2039SOL     OW18147   2.288   7.251   1.653
 2039SOL    HW118148   2.252   7.204   1.573
 2039SOL    HW218149   2.220   7.316   1.687
 2040SOL     OW18150   4.569   2.072   6.711
 2040SOL    HW118151   4.570   2.129   6.628
 2040SOL    HW218152   4.583   2.130   6.791
 2041SOL     OW18153   2.353   3.540   1.206
 2041SOL    HW118154   2.308   3.620   1.245
 2041SOL    HW218155   2.449   3.539   1.234
 2042SOL     OW18156   6.138   5.969   2.233
 2042SOL    HW118157   6.220   5.962   2.176
 2042SOL    HW218158   6.159   6.021   2.316
 2043SOL     OW18159   0.562   5.809   5.052
 2043SOL    HW118160   0.569   5.751   5.133
 2043SOL    HW218161   0.474   5.795   5.007
 2044SOL     OW18162   8.230   7.935   0.548
 2044SOL    HW118163   8.269   7.962   0.459
 2044SOL    HW218164   8.272   7.849   0.577
 2045SOL     OW18165   3.676   3.457   0.592
 2045SOL    HW118166   3.701   3.395   0.667
 2045SOL    HW218167   3.715   3.548   0.610
 2046SOL     OW18168   3.664   0.784   0.821
 2046SOL    HW118169   3.714   0.831   0.748
 2046SOL    HW218170   3.668   0.685   0.806
 2047SOL     OW18171   5.969   7.515   6.460
 2047SOL    HW118172   5.888   7.564   6.427
 2047SOL    HW218173   5.948   7.418   6.469
 2048SOL     OW18174   0.822   0.951   1.870
 2048SOL    HW118175   0.901   0.921   1.924
 2048SOL    HW218176   0.750   0.882   1.876
 2049SOL     OW18177   4.480   2.341   1.253
 2049SOL    HW118178   4.381   2.326   1.264
 2049SOL    HW218179   4.522   2.258   1.216
 2050SOL     OW18180   3.486   2.938   1.580
 2050SOL    HW118181   3.422   2.871   1.542
 2050SOL    HW218182   3.571   2.936   1.529
 2051SOL     OW18183   8.585   1.361   6.308
 2051SOL    HW118184   8.574   1.268   6.274
 2051SOL    HW218185   8.601   1.360   6.406
 2052SOL     OW18186   4.969   8.219   1.701
 2052SOL    HW118187   4.872   8.210   1.725
 2052SOL    HW218188   5.019   8.252   1.780
 2053SOL     OW18189   0.130   6.301   4.879
 2053SOL    HW118190   0.211   6.319   4.936
 2053SOL    HW218191   0.114   6.379   4.819
 2054SOL     OW18192   2.941   3.526   5.849
 2054SOL    HW118193   2.910   3.531   5.755
 2054SOL    HW218194   3.041   3.535   5.852
 2055SOL     OW18195   8.580   5.209   5.823
 2055SOL    HW118196   8.519   5.134   5.798
 2055SOL    HW218197   8.657   5.212   5.759
 2056SOL     OW18198   0.909   6.806   0.441
 2056SOL    HW118199   0.865   6.891   0.468
 2056SOL    HW218200   0.995   6.825   0.395
 2057SOL     OW18201   4.842   4.791   6.327
 2057SOL    HW118202   4.796   4.879   6.333
 2057SOL    HW218203   4.774   4.718   6.322
 2058SOL     OW18204   3.521   5.108   1.126
 2058SOL    HW118205   3.565   5.121   1.037
 2058SOL    HW218206   3.438   5.053   1.115
 2059SOL     OW18207   4.182   7.840   1.700
 2059SOL    HW118208   4.241   7.773   1.745
 2059SOL    HW218209   4.238   7.904   1.646
 2060SOL     OW18210   4.394   3.445   0.465
 2060SOL    HW118211   4.427   3.352   0.446
 2060SOL    HW218212   4.361   3.487   0.380
 2061SOL     OW18213   0.870   0.924   7.158
 2061SOL    HW118214   0.855   0.891   7.251
 2061SOL    HW218215   0.862   1.024   7.156
 2062SOL     OW18216   0.857   2.929   0.684
 2062SOL    HW118217   0.835   3.023   0.708
 2062SOL    HW218218   0.937   2.898   0.736
 2063SOL     OW18219   1.759   6.498   5.371
 2063SOL    HW118220   1.783   6.434   5.298
 2063SOL    HW218221   1.836   6.560   5.387
 2064SOL     OW18222   4.035   5.877   5.990
 2064SOL    HW118223   4.019   5.779   6.002
 2064SOL    HW218224   4.100   5.891   5.915
 2065SOL     OW18225   2.523   1.518   6.253
 2065SOL    HW118226   2.504   1.465   6.170
 2065SOL    HW218227   2.462   1.597   6.258
 2066SOL     OW18228   1.121   0.612   6.724
 2066SOL    HW118229   1.029   0.651   6.724
 2066SOL    HW218230   1.170   0.642   6.642
 2067SOL     OW18231   9.442   6.807   1.821
 2067SOL    HW118232   9.347   6.832   1.837
 2067SOL    HW218233   9.453   6.708   1.832
 2068SOL     OW18234   7.663   4.236   0.510
 2068SOL    HW118235   7.603   4.178   0.455
 2068SOL    HW218236   7.685   4.319   0.459
 2069SOL     OW18237   7.068   5.055   7.113
 2069SOL    HW118238   7.030   4.970   7.151
 2069SOL    HW218239   7.166   5.059   7.133
 2070SOL     OW18240   8.755   2.940   6.485
 2070SOL    HW118241   8.671   2.912   6.531
 2070SOL    HW218242   8.823   2.868   6.493
 2071SOL     OW18243   3.839   3.294   0.765
 2071SOL    HW118244   3.889   3.367   0.719
 2071SOL    HW218245   3.857   3.207   0.719
 2072SOL     OW18246   7.224   1.379   6.822
 2072SOL    HW118247   7.137   1.328   6.822
 2072SOL    HW218248   7.262   1.378   6.730
 2073SOL     OW18249   9.575   0.879   5.314
 2073SOL    HW118250   9.538   0.970   5.328
 2073SOL    HW218251   9.606   0.870   5.219
 2074SOL     OW18252   6.291   7.668   6.718
 2074SOL    HW118253   6.202   7.625   6.734
 2074SOL    HW218254   6.353   7.601   6.676
 2075SOL     OW18255   9.372   8.369   5.479
 2075SOL    HW118256   9.288   8.402   5.522
 2075SOL    HW218257   9.365   8.378   5.380
 2076SOL     OW18258   5.597   0.659   2.581
 2076SOL    HW118259   5.676   0.718   2.596
 2076SOL    HW218260   5.523   0.686   2.643
 2077SOL     OW18261   0.631   7.526   6.719
 2077SOL    HW118262   0.577   7.534   6.803
 2077SOL    HW218263   0.611   7.603   6.659
 2078SOL     OW18264   7.398   0.482   0.572
 2078SOL    HW118265   7.483   0.514   0.529
 2078SOL    HW218266   7.415   0.462   0.669
 2079SOL     OW18267   7.569   5.618   0.840
 2079SOL    HW118268   7.566   5.659   0.749
 2079SOL    HW218269   7.636   5.665   0.896
 2080SOL     OW18270   4.009   5.722   7.165
 2080SOL    HW118271   3.957   5.708   7.249
 2080SOL    HW218272   4.061   5.639   7.144
 2081SOL     OW18273   1.878   6.116   0.535
 2081SOL    HW118274   1.924   6.074   0.456
 2081SOL    HW218275   1.846   6.207   0.511
 2082SOL     OW18276   7.507   6.226   5.579
 2082SOL    HW118277   7.466   6.156   5.520
 2082SOL    HW218278   7.509   6.313   5.530
 2083SOL     OW18279   2.646   1.428   6.741
 2083SOL    HW118280   2.650   1.456   6.645
 2083SOL    HW218281   2.590   1.493   6.792
 2084SOL     OW18282   3.419   1.084   6.602
 2084SOL    HW118283   3.355   1.017   6.641
 2084SOL    HW218284   3.367   1.161   6.565
 2085SOL     OW18285   4.931   5.957   7.115
 2085SOL    HW118286   4.941   5.948   7.214
 2085SOL    HW218287   5.020   5.977   7.073
 2086SOL     OW18288   6.710   6.479   5.938
 2086SOL    HW118289   6.789   6.539   5.924
 2086SOL    HW218290   6.692   6.470   6.036
 2087SOL     OW18291   6.759   4.942   0.608
 2087SOL    HW118292   6.794   5.026   0.650
 2087SOL    HW218293   6.756   4.953   0.509
 2088SOL     OW18294   2.805   4.774   0.959
 2088SOL    HW118295   2.853   4.862   0.955
 2088SOL    HW218296   2.803   4.734   0.867
 2089SOL     OW18297   8.823   2.441   5.420
 2089SOL    HW118298   8.830   2.341   5.419
 2089SOL    HW218299   8.727   2.468   5.422
 2090SOL     OW18300   5.903   2.417   6.395
 2090SOL    HW118301   5.911   2.488   6.325
 2090SOL    HW218302   5.902   2.327   6.352
 2091SOL     OW18303   8.230   8.379   5.322
 2091SOL    HW118304   8.149   8.432   5.299
 2091SOL    HW218305   8.289   8.433   5.383
 2092SOL     OW18306   3.692   0.046   5.955
 2092SOL    HW118307   3.691  -0.045   5.996
 2092SOL    HW218308   3.668   0.114   6.025
 2093SOL     OW18309   7.151   0.378   6.322
 2093SOL    HW118310   7.083   0.448   6.299
 2093SOL    HW218311   7.105   0.291   6.340
 2094SOL     OW18312   5.957   6.037   1.068
 2094SOL    HW118313   5.914   5.958   1.024
 2094SOL    HW218314   6.010   6.006   1.147
 2095SOL     OW18315   9.054   6.667   6.719
 2095SOL    HW118316   8.982   6.686   6.652
 2095SOL    HW218317   9.086   6.753   6.760
 2096SOL     OW18318   6.801   4.005   7.123
 2096SOL    HW118319   6.808   3.968   7.216
 2096SOL    HW218320   6.783   4.103   7.127
 2097SOL     OW18321   2.520   5.621   1.237
 2097SOL    HW118322   2.553   5.535   1.199
 2097SOL    HW218323   2.435   5.606   1.288
 2098SOL     OW18324   3.665   1.744   6.975
 2098SOL    HW118325   3.711   1.665   6.934
 2098SOL    HW218326   3.722   1.825   6.965
 2099SOL     OW18327   6.505   1.741   1.646
 2099SOL    HW118328   6.574   1.671   1.627
 2099SOL    HW218329   6.492   1.798   1.565
 2100SOL     OW18330   4.760   7.940   1.103
 2100SOL    HW118331   4.825   7.945   1.027
 2100SOL    HW218332   4.744   8.032   1.139
 2101SOL     OW18333   2.000   0.897   7.162
 2101SOL    HW118334   1.955   0.966   7.218
 2101SOL    HW218335   1.956   0.808   7.177
 2102SOL     OW18336   0.865   7.294   6.185
 2102SOL    HW118337   0.963   7.297   6.203
 2102SOL    HW218338   0.823   7.381   6.212
 2103SOL     OW18339   4.784   6.339   6.837
 2103SOL    HW118340   4.703   6.328   6.778
 2103SOL    HW218341   4.846   6.405   6.796
 2104SOL     OW18342   5.515   6.211   1.366
 2104SOL    HW118343   5.551   6.304   1.361
 2104SOL    HW218344   5.505   6.184   1.462
 2105SOL     OW18345   5.476   0.609   6.391
 2105SOL    HW118346   5.435   0.700   6.394
 2105SOL    HW218347   5.575   0.617   6.399
 2106SOL     OW18348   5.094   0.217   5.960
 2106SOL    HW118349   5.025   0.196   5.891
 2106SOL    HW218350   5.090   0.149   6.033
 2107SOL     OW18351   2.068   1.018   1.550
 2107SOL    HW118352   2.046   1.114   1.570
 2107SOL    HW218353   2.086   0.970   1.636
 2108SOL     OW18354   1.026   8.316   6.021
 2108SOL    HW118355   0.965   8.307   6.099
 2108SOL    HW218356   1.115   8.349   6.053
 2109SOL     OW18357   4.893   8.211   6.332
 2109SOL    HW118358   4.944   8.168   6.406
 2109SOL    HW218359   4.894   8.152   6.251
 2110SOL     OW18360   5.980   4.298   6.300
 2110SOL    HW118361   6.065   4.244   6.303
 2110SOL    HW218362   5.918   4.259   6.233
 2111SOL     OW18363   0.512   7.028   0.478
 2111SOL    HW118364   0.462   6.943   0.466
 2111SOL    HW218365   0.552   7.056   0.390
 2112SOL     OW18366   1.370   0.553   6.423
 2112SOL    HW118367   1.438   0.572   6.495
 2112SOL    HW218368   1.285   0.523   6.465
 2113SOL     OW18369   4.226   0.859   2.156
 2113SOL    HW118370   4.204   0.922   2.230
 2113SOL    HW218371   4.314   0.815   2.175
 2114SOL     OW18372   6.312   4.941   5.889
 2114SOL    HW118373   6.350   4.849   5.882
 2114SOL    HW218374   6.259   4.962   5.808
 2115SOL     OW18375   0.741   1.031   6.521
 2115SOL    HW118376   0.763   1.009   6.426
 2115SOL    HW218377   0.818   1.080   6.562
 2116SOL     OW18378   2.296   3.135   0.997
 2116SOL    HW118379   2.323   3.072   0.925
 2116SOL    HW218380   2.332   3.226   0.977
 2117SOL     OW18381   0.202   5.132   6.194
 2117SOL    HW118382   0.257   5.111   6.114
 2117SOL    HW218383   0.113   5.169   6.165
 2118SOL     OW18384   8.339   3.666   5.558
 2118SOL    HW118385   8.252   3.638   5.600
 2118SOL    HW218386   8.376   3.591   5.505
 2119SOL     OW18387   6.584   2.030   1.010
 2119SOL    HW118388   6.522   2.095   0.967
 2119SOL    HW218389   6.598   1.951   0.950
 2120SOL     OW18390   0.776   3.074   5.500
 2120SOL    HW118391   0.806   3.169   5.495
 2120SOL    HW218392   0.704   3.059   5.432
 2121SOL     OW18393   0.567   0.216   1.261
 2121SOL    HW118394   0.616   0.299   1.235
 2121SOL    HW218395   0.481   0.241   1.306
 2122SOL     OW18396   3.734   2.636   0.822
 2122SOL    HW118397   3.704   2.549   0.861
 2122SOL    HW218398   3.667   2.668   0.755
 2123SOL     OW18399   5.782   6.516   6.290
 2123SOL    HW118400   5.857   6.450   6.289
 2123SOL    HW218401   5.699   6.472   6.255
 2124SOL     OW18402   7.388   0.896   5.876
 2124SOL    HW118403   7.404   0.995   5.869
 2124SOL    HW218404   7.306   0.872   5.824
 2125SOL     OW18405   3.535   5.071   1.652
 2125SOL    HW118406   3.609   5.126   1.692
 2125SOL    HW218407   3.509   5.111   1.564
 2126SOL     OW18408   2.750   6.238   1.374
 2126SOL    HW118409   2.826   6.180   1.345
 2126SOL    HW218410   2.705   6.277   1.294
 2127SOL     OW18411   7.084   6.997   0.819
 2127SOL    HW118412   7.077   6.898   0.810
 2127SOL    HW218413   7.151   7.031   0.752
 2128SOL     OW18414   5.007   2.832   1.485
 2128SOL    HW118415   4.956   2.792   1.561
 2128SOL    HW218416   5.017   2.765   1.412
 2129SOL     OW18417   6.990   7.820   1.652
 2129SOL    HW118418   7.049   7.859   1.723
 2129SOL    HW218419   6.922   7.761   1.695
 2130SOL     OW18420   6.536   4.904   6.586
 2130SOL    HW118421   6.601   4.977   6.603
 2130SOL    HW218422   6.584   4.816   6.586
 2131SOL     OW18423   4.235   8.072   1.539
 2131SOL    HW118424   4.204   8.093   1.446
 2131SOL    HW218425   4.204   8.144   1.601
 2132SOL     OW18426   1.832   7.969   0.674
 2132SOL    HW118427   1.842   8.009   0.765
 2132SOL    HW218428   1.807   8.040   0.608
 2133SOL     OW18429   5.656   1.119   2.182
 2133SOL    HW118430   5.750   1.102   2.212
 2133SOL    HW218431   5.656   1.190   2.111
 2134SOL     OW18432   3.583   0.503   0.569
 2134SOL    HW118433   3.613   0.500   0.665
 2134SOL    HW218434   3.663   0.498   0.509
 2135SOL     OW18435   2.244   6.432   1.861
 2135SOL    HW118436   2.222   6.342   1.898
 2135SOL    HW218437   2.163   6.470   1.817
 2136SOL     OW18438   1.045   7.035   1.710
 2136SOL    HW118439   1.119   7.098   1.687
 2136SOL    HW218440   0.972   7.083   1.758
 2137SOL     OW18441   3.604   0.097   0.536
 2137SOL    HW118442   3.551   0.018   0.569
 2137SOL    HW218443   3.631   0.154   0.613
 2138SOL     OW18444   3.755   2.011   0.894
 2138SOL    HW118445   3.697   2.086   0.863
 2138SOL    HW218446   3.698   1.936   0.929
 2139SOL     OW18447   9.574   4.650   1.129
 2139SOL    HW118448   9.633   4.714   1.179
 2139SOL    HW218449   9.555   4.570   1.186
 2140SOL     OW18450   2.225   5.322   0.530
 2140SOL    HW118451   2.266   5.308   0.440
 2140SOL    HW218452   2.137   5.275   0.535
 2141SOL     OW18453   4.777   2.218   0.982
 2141SOL    HW118454   4.691   2.182   0.945
 2141SOL    HW218455   4.788   2.188   1.077
 2142SOL     OW18456   4.052   4.801   6.921
 2142SOL    HW118457   4.000   4.790   7.006
 2142SOL    HW218458   4.001   4.859   6.858
 2143SOL     OW18459   9.344   6.320   0.447
 2143SOL    HW118460   9.342   6.389   0.519
 2143SOL    HW218461   9.251   6.287   0.431
 2144SOL     OW18462   7.590   3.869   0.672
 2144SOL    HW118463   7.503   3.900   0.634
 2144SOL    HW218464   7.652   3.947   0.681
 2145SOL     OW18465   1.811   6.202   6.473
 2145SOL    HW118466   1.875   6.231   6.402
 2145SOL    HW218467   1.855   6.212   6.563
 2146SOL     OW18468   4.791   1.155   6.825
 2146SOL    HW118469   4.825   1.097   6.750
 2146SOL    HW218470   4.865   1.213   6.859
 2147SOL     OW18471   4.059   4.448   1.830
 2147SOL    HW118472   4.012   4.366   1.863
 2147SOL    HW218473   3.993   4.519   1.809
 2148SOL     OW18474   2.117   3.908   2.104
 2148SOL    HW118475   2.018   3.900   2.092
 2148SOL    HW218476   2.164   3.849   2.039
 2149SOL     OW18477   6.423   4.025   0.731
 2149SOL    HW118478   6.389   3.931   0.733
 2149SOL    HW218479   6.346   4.088   0.719
 2150SOL     OW18480   5.283   0.413   5.993
 2150SOL    HW118481   5.305   0.413   6.090
 2150SOL    HW218482   5.219   0.338   5.973
 2151SOL     OW18483   3.209   6.172   1.817
 2151SOL    HW118484   3.238   6.233   1.890
 2151SOL    HW218485   3.109   6.174   1.809
 2152SOL     OW18486   9.000   1.782   6.550
 2152SOL    HW118487   8.986   1.879   6.565
 2152SOL    HW218488   9.068   1.747   6.614
 2153SOL     OW18489   4.995   3.930   2.003
 2153SOL    HW118490   5.016   3.833   1.990
 2153SOL    HW218491   4.967   3.946   2.097
 2154SOL     OW18492   5.693   2.145   1.940
 2154SOL    HW118493   5.735   2.055   1.946
 2154SOL    HW218494   5.595   2.135   1.921
 2155SOL     OW18495   5.101   0.070   1.201
 2155SOL    HW118496   5.183   0.031   1.241
 2155SOL    HW218497   5.090   0.165   1.232
 2156SOL     OW18498   1.822   4.923   6.533
 2156SOL    HW118499   1.776   5.009   6.556
 2156SOL    HW218500   1.882   4.936   6.454
 2157SOL     OW18501   4.078   6.826   5.378
 2157SOL    HW118502   4.035   6.783   5.457
 2157SOL    HW218503   4.013   6.888   5.334
 2158SOL     OW18504   0.375   1.030   6.367
 2158SOL    HW118505   0.368   1.020   6.467
 2158SOL    HW218506   0.468   1.056   6.343
 2159SOL     OW18507   7.323   7.811   5.471
 2159SOL    HW118508   7.390   7.859   5.414
 2159SOL    HW218509   7.236   7.860   5.470
 2160SOL     OW18510   4.500   4.900   6.428
 2160SOL    HW118511   4.493   4.958   6.347
 2160SOL    HW218512   4.493   4.956   6.510
 2161SOL     OW18513   0.633   4.103   7.137
 2161SOL    HW118514   0.595   4.037   7.202
 2161SOL    HW218515   0.662   4.054   7.054
 2162SOL     OW18516   3.220   4.711   0.707
 2162SOL    HW118517   3.305   4.729   0.758
 2162SOL    HW218518   3.174   4.631   0.747
 2163SOL     OW18519   3.265   1.209   6.386
 2163SOL    HW118520   3.209   1.161   6.319
 2163SOL    HW218521   3.223   1.297   6.408
 2164SOL     OW18522   4.719   5.004   7.078
 2164SOL    HW118523   4.637   5.023   7.025
 2164SOL    HW218524   4.716   4.910   7.112
 2165SOL     OW18525   5.060   5.019   6.120
 2165SOL    HW118526   5.015   4.983   6.038
 2165SOL    HW218527   5.095   4.943   6.175
 2166SOL     OW18528   8.370  -0.047   0.789
 2166SOL    HW118529   8.310   0.030   0.812
 2166SOL    HW218530   8.448  -0.014   0.736
 2167SOL     OW18531   1.240   3.414   6.919
 2167SOL    HW118532   1.204   3.408   7.012
 2167SOL    HW218533   1.296   3.334   6.899
 2168SOL     OW18534   3.953   6.090   1.896
 2168SOL    HW118535   3.932   6.107   1.800
 2168SOL    HW218536   3.895   6.149   1.953
 2169SOL     OW18537   3.084   2.495   5.920
 2169SOL    HW118538   3.059   2.421   5.858
 2169SOL    HW218539   3.001   2.538   5.956
 2170SOL     OW18540   8.228   0.331   6.393
 2170SOL    HW118541   8.305   0.375   6.348
 2170SOL    HW218542   8.214   0.373   6.483
 2171SOL     OW18543   8.925   4.359   6.521
 2171SOL    HW118544   8.965   4.305   6.447
 2171SOL    HW218545   8.997   4.410   6.568
 2172SOL     OW18546   6.245   0.270   6.076
 2172SOL    HW118547   6.162   0.292   6.025
 2172SOL    HW218548   6.232   0.183   6.124
 2173SOL     OW18549   3.797   4.901   0.702
 2173SOL    HW118550   3.783   4.999   0.693
 2173SOL    HW218551   3.814   4.879   0.798
 2174SOL     OW18552   1.850   8.215   0.487
 2174SOL    HW118553   1.842   8.311   0.513
 2174SOL    HW218554   1.779   8.192   0.420
 2175SOL     OW18555   3.928   7.243   6.141
 2175SOL    HW118556   3.923   7.290   6.229
 2175SOL    HW218557   3.971   7.154   6.153
 2176SOL     OW18558   8.204   0.647   6.822
 2176SOL    HW118559   8.134   0.642   6.894
 2176SOL    HW218560   8.170   0.705   6.748
 2177SOL     OW18561   3.223   2.762   7.102
 2177SOL    HW118562   3.188   2.821   7.029
 2177SOL    HW218563   3.244   2.671   7.064
 2178SOL     OW18564   9.039   5.468   6.452
 2178SOL    HW118565   9.123   5.414   6.459
 2178SOL    HW218566   8.988   5.441   6.370
 2179SOL     OW18567   3.278   7.219   0.759
 2179SOL    HW118568   3.197   7.165   0.782
 2179SOL    HW218569   3.301   7.205   0.663
 2180SOL     OW18570   6.355   2.949   1.877
 2180SOL    HW118571   6.347   2.916   1.971
 2180SOL    HW218572   6.374   3.048   1.877
 2181SOL     OW18573   8.636   5.068   1.119
 2181SOL    HW118574   8.698   5.050   1.195
 2181SOL    HW218575   8.649   4.999   1.048
 2182SOL     OW18576   7.184   7.400   2.149
 2182SOL    HW118577   7.284   7.400   2.160
 2182SOL    HW218578   7.144   7.460   2.218
 2183SOL     OW18579   9.204   7.739   1.003
 2183SOL    HW118580   9.245   7.706   0.918
 2183SOL    HW218581   9.177   7.662   1.060
 2184SOL     OW18582   4.727   6.207   0.800
 2184SOL    HW118583   4.809   6.152   0.810
 2184SOL    HW218584   4.646   6.148   0.800
 2185SOL     OW18585   0.539   5.776   0.952
 2185SOL    HW118586   0.616   5.713   0.936
 2185SOL    HW218587   0.454   5.724   0.954
 2186SOL     OW18588   5.101   4.903   1.425
 2186SOL    HW118589   5.090   4.804   1.430
 2186SOL    HW218590   5.161   4.934   1.498
 2187SOL     OW18591   3.213   1.963   1.157
 2187SOL    HW118592   3.249   1.980   1.249
 2187SOL    HW218593   3.249   1.876   1.123
 2188SOL     OW18594   3.590   5.445   0.638
 2188SOL    HW118595   3.567   5.386   0.715
 2188SOL    HW218596   3.510   5.500   0.614
 2189SOL     OW18597   1.416   5.950   5.646
 2189SOL    HW118598   1.382   5.938   5.553
 2189SOL    HW218599   1.349   5.916   5.711
 2190SOL     OW18600   7.706   3.352   6.963
 2190SOL    HW118601   7.735   3.275   7.020
 2190SOL    HW218602   7.606   3.359   6.967
 2191SOL     OW18603   8.357   3.536   6.659
 2191SOL    HW118604   8.335   3.535   6.562
 2191SOL    HW218605   8.440   3.590   6.674
 2192SOL     OW18606   6.525   4.014   6.845
 2192SOL    HW118607   6.612   4.035   6.801
 2192SOL    HW218608   6.465   4.094   6.842
 2193SOL     OW18609   0.423   7.435   5.498
 2193SOL    HW118610   0.420   7.453   5.399
 2193SOL    HW218611   0.334   7.402   5.528
 2194SOL     OW18612   2.437   5.837   0.851
 2194SOL    HW118613   2.386   5.803   0.930
 2194SOL    HW218614   2.374   5.856   0.776
 2195SOL     OW18615   8.535   6.920   5.810
 2195SOL    HW118616   8.559   6.936   5.714
 2195SOL    HW218617   8.435   6.915   5.818
 2196SOL     OW18618   2.966   1.356   2.134
 2196SOL    HW118619   2.973   1.309   2.046
 2196SOL    HW218620   2.948   1.453   2.119
 2197SOL     OW18621   1.164   7.558   2.050
 2197SOL    HW118622   1.176   7.643   2.101
 2197SOL    HW218623   1.075   7.557   2.005
 2198SOL     OW18624   2.083   5.735   5.998
 2198SOL    HW118625   2.142   5.772   6.069
 2198SOL    HW218626   2.010   5.681   6.040
 2199SOL     OW18627   0.690   5.027   0.462
 2199SOL    HW118628   0.613   5.080   0.499
 2199SOL    HW218629   0.769   5.087   0.450
 2200SOL     OW18630   7.176   5.114   6.585
 2200SOL    HW118631   7.250   5.067   6.535
 2200SOL    HW218632   7.213   5.196   6.629
 2201SOL     OW18633   1.207   0.367   4.954
 2201SOL    HW118634   1.143   0.336   4.884
 2201SOL    HW218635   1.234   0.461   4.934
 2202SOL     OW18636   0.412   1.908   6.534
 2202SOL    HW118637   0.321   1.909   6.492
 2202SOL    HW218638   0.482   1.907   6.462
 2203SOL     OW18639   5.070   3.285   1.551
 2203SOL    HW118640   5.114   3.375   1.560
 2203SOL    HW218641   5.100   3.226   1.625
 2204SOL     OW18642   9.253   0.900   6.353
 2204SOL    HW118643   9.346   0.868   6.372
 2204SOL    HW218644   9.233   0.981   6.407
 2205SOL     OW18645   8.463   1.206   6.611
 2205SOL    HW118646   8.518   1.125   6.595
 2205SOL    HW218647   8.395   1.187   6.682
 2206SOL     OW18648   1.616   7.878   6.054
 2206SOL    HW118649   1.545   7.817   6.018
 2206SOL    HW218650   1.702   7.861   6.006
 2207SOL     OW18651   0.649   2.011   0.994
 2207SOL    HW118652   0.652   1.983   1.090
 2207SOL    HW218653   0.618   1.935   0.938
 2208SOL     OW18654   9.331   1.806   5.850
 2208SOL    HW118655   9.411   1.852   5.812
 2208SOL    HW218656   9.350   1.709   5.862
 2209SOL     OW18657   8.494   0.436   5.674
 2209SOL    HW118658   8.505   0.371   5.598
 2209SOL    HW218659   8.583   0.473   5.699
 2210SOL     OW18660   5.473   7.339   1.482
 2210SOL    HW118661   5.492   7.437   1.481
 2210SOL    HW218662   5.387   7.322   1.530
 2211SOL     OW18663   6.835   4.034   1.176
 2211SOL    HW118664   6.860   4.111   1.235
 2211SOL    HW218665   6.918   3.992   1.139
 2212SOL     OW18666   3.527   0.956   6.951
 2212SOL    HW118667   3.573   1.043   6.934
 2212SOL    HW218668   3.431   0.963   6.923
 2213SOL     OW18669   0.517   7.881   1.164
 2213SOL    HW118670   0.512   7.981   1.171
 2213SOL    HW218671   0.600   7.856   1.114
 2214SOL     OW18672   8.914   5.618   5.609
 2214SOL    HW118673   8.856   5.542   5.580
 2214SOL    HW218674   8.985   5.634   5.541
 2215SOL     OW18675   3.082   3.642   6.367
 2215SOL    HW118676   3.128   3.727   6.392
 2215SOL    HW218677   3.071   3.638   6.268
 2216SOL     OW18678   1.616   1.260   0.771
 2216SOL    HW118679   1.580   1.325   0.704
 2216SOL    HW218680   1.595   1.167   0.741
 2217SOL     OW18681   4.974   2.200   0.768
 2217SOL    HW118682   5.009   2.290   0.744
 2217SOL    HW218683   4.906   2.209   0.840
 2218SOL     OW18684   6.206   6.071   5.012
 2218SOL    HW118685   6.295   6.095   5.052
 2218SOL    HW218686   6.221   6.013   4.931
 2219SOL     OW18687   0.389   6.967   4.454
 2219SOL    HW118688   0.311   6.915   4.420
 2219SOL    HW218689   0.448   6.993   4.377
 2220SOL     OW18690   1.624   1.092   6.758
 2220SOL    HW118691   1.670   1.099   6.846
 2220SOL    HW218692   1.615   1.183   6.717
 2221SOL     OW18693   2.913   3.931   6.212
 2221SOL    HW118694   2.882   3.885   6.129
 2221SOL    HW218695   2.944   3.864   6.279
 2222SOL     OW18696   1.632   6.630   4.760
 2222SOL    HW118697   1.535   6.609   4.778
 2222SOL    HW218698   1.638   6.695   4.684
 2223SOL     OW18699   1.292   5.381   1.283
 2223SOL    HW118700   1.375   5.327   1.268
 2223SOL    HW218701   1.285   5.403   1.380
 2224SOL     OW18702   3.676   2.191   6.954
 2224SOL    HW118703   3.721   2.260   6.899
 2224SOL    HW218704   3.733   2.109   6.958
 2225SOL     OW18705   5.614   7.787   6.922
 2225SOL    HW118706   5.595   7.880   6.893
 2225SOL    HW218707   5.691   7.787   6.987
 2226SOL     OW18708   1.075   7.104   1.185
 2226SOL    HW118709   1.019   7.032   1.145
 2226SOL    HW218710   1.085   7.088   1.283
 2227SOL     OW18711   6.118   6.728   6.065
 2227SOL    HW118712   6.190   6.679   6.016
 2227SOL    HW218713   6.051   6.763   5.999
 2228SOL     OW18714   8.172   8.116   6.888
 2228SOL    HW118715   8.186   8.215   6.888
 2228SOL    HW218716   8.092   8.094   6.943
 2229SOL     OW18717   6.993   6.540   6.729
 2229SOL    HW118718   7.030   6.448   6.737
 2229SOL    HW218719   7.048   6.604   6.783
 2230SOL     OW18720   1.097   7.092   0.847
 2230SOL    HW118721   1.071   7.164   0.911
 2230SOL    HW218722   1.174   7.041   0.884
 2231SOL     OW18723   0.974   5.438   0.788
 2231SOL    HW118724   0.906   5.369   0.811
 2231SOL    HW218725   1.056   5.393   0.751
 2232SOL     OW18726   2.932   1.812   2.365
 2232SOL    HW118727   2.836   1.784   2.360
 2232SOL    HW218728   2.960   1.847   2.276
 2233SOL     OW18729   5.800   6.587   6.000
 2233SOL    HW118730   5.844   6.554   6.084
 2233SOL    HW218731   5.721   6.529   5.980
 2234SOL     OW18732   2.654   0.237   5.238
 2234SOL    HW118733   2.712   0.205   5.163
 2234SOL    HW218734   2.667   0.335   5.251
 2235SOL     OW18735   3.724   2.162   1.366
 2235SOL    HW118736   3.754   2.070   1.341
 2235SOL    HW218737   3.637   2.183   1.320
 2236SOL     OW18738   8.206   8.236   0.826
 2236SOL    HW118739   8.126   8.252   0.769
 2236SOL    HW218740   8.259   8.320   0.835
 2237SOL     OW18741   8.436   3.862   6.128
 2237SOL    HW118742   8.503   3.879   6.055
 2237SOL    HW218743   8.350   3.831   6.087
 2238SOL     OW18744   2.803   4.012   1.353
 2238SOL    HW118745   2.740   3.982   1.281
 2238SOL    HW218746   2.791   3.954   1.434
 2239SOL     OW18747   5.633   7.681   1.609
 2239SOL    HW118748   5.728   7.708   1.622
 2239SOL    HW218749   5.592   7.659   1.698
 2240SOL     OW18750   2.998   0.727   2.405
 2240SOL    HW118751   3.062   0.723   2.328
 2240SOL    HW218752   3.043   0.691   2.487
 2241SOL     OW18753   9.397   6.918   6.351
 2241SOL    HW118754   9.309   6.957   6.327
 2241SOL    HW218755   9.466   6.990   6.357
 2242SOL     OW18756   3.685   6.658   7.007
 2242SOL    HW118757   3.621   6.727   7.042
 2242SOL    HW218758   3.664   6.569   7.048
 2243SOL     OW18759   4.669   0.856   0.856
 2243SOL    HW118760   4.603   0.930   0.866
 2243SOL    HW218761   4.639   0.794   0.783
 2244SOL     OW18762   5.709   8.153   6.312
 2244SOL    HW118763   5.776   8.167   6.385
 2244SOL    HW218764   5.737   8.076   6.254
 2245SOL     OW18765   4.181   1.447   6.553
 2245SOL    HW118766   4.249   1.413   6.618
 2245SOL    HW218767   4.224   1.516   6.495
 2246SOL     OW18768   9.388   3.151   6.950
 2246SOL    HW118769   9.422   3.244   6.938
 2246SOL    HW218770   9.450   3.099   7.009
 2247SOL     OW18771   1.271   5.710   4.687
 2247SOL    HW118772   1.214   5.767   4.628
 2247SOL    HW218773   1.248   5.614   4.673
 2248SOL     OW18774   3.264   7.371   6.458
 2248SOL    HW118775   3.193   7.431   6.495
 2248SOL    HW218776   3.247   7.277   6.489
 2249SOL     OW18777   6.876   6.642   6.252
 2249SOL    HW118778   6.797   6.580   6.254
 2249SOL    HW218779   6.960   6.588   6.242
 2250SOL     OW18780   5.993   7.041   1.321
 2250SOL    HW118781   6.090   7.064   1.327
 2250SOL    HW218782   5.976   6.956   1.369
 2251SOL     OW18783   9.038   7.940   7.081
 2251SOL    HW118784   9.130   7.903   7.099
 2251SOL    HW218785   9.024   7.947   6.983
 2252SOL     OW18786   2.829   2.647   5.923
 2252SOL    HW118787   2.847   2.737   5.883
 2252SOL    HW218788   2.739   2.616   5.895
 2253SOL     OW18789   0.448   7.448   4.610
 2253SOL    HW118790   0.506   7.478   4.534
 2253SOL    HW218791   0.420   7.353   4.595
 2254SOL     OW18792   6.585   3.240   6.247
 2254SOL    HW118793   6.580   3.252   6.148
 2254SOL    HW218794   6.629   3.153   6.268
 2255SOL     OW18795   5.238   0.526   7.039
 2255SOL    HW118796   5.261   0.604   7.098
 2255SOL    HW218797   5.143   0.533   7.010
 2256SOL     OW18798   1.624   2.904   1.278
 2256SOL    HW118799   1.527   2.883   1.292
 2256SOL    HW218800   1.655   2.969   1.347
 2257SOL     OW18801   5.837   2.618   0.557
 2257SOL    HW118802   5.820   2.616   0.655
 2257SOL    HW218803   5.928   2.655   0.539
 2258SOL     OW18804   0.340   5.408   7.110
 2258SOL    HW118805   0.424   5.422   7.057
 2258SOL    HW218806   0.362   5.404   7.207
 2259SOL     OW18807   5.695   0.753   2.117
 2259SOL    HW118808   5.596   0.746   2.132
 2259SOL    HW218809   5.713   0.766   2.019
 2260SOL     OW18810   2.761   1.136   1.207
 2260SOL    HW118811   2.745   1.098   1.298
 2260SOL    HW218812   2.819   1.073   1.154
 2261SOL     OW18813   4.120   0.724   0.706
 2261SOL    HW118814   4.109   0.626   0.691
 2261SOL    HW218815   4.030   0.766   0.719
 2262SOL     OW18816   0.880   0.417   1.503
 2262SOL    HW118817   0.892   0.376   1.413
 2262SOL    HW218818   0.804   0.483   1.501
 2263SOL     OW18819   9.140   3.058   7.031
 2263SOL    HW118820   9.081   3.098   6.960
 2263SOL    HW218821   9.233   3.094   7.020
 2264SOL     OW18822   6.082   7.796   6.969
 2264SOL    HW118823   6.119   7.707   6.999
 2264SOL    HW218824   6.119   7.818   6.879
 2265SOL     OW18825   3.665   5.097   0.875
 2265SOL    HW118826   3.733   5.168   0.891
 2265SOL    HW218827   3.586   5.135   0.827
 2266SOL     OW18828   5.176   7.815   2.485
 2266SOL    HW118829   5.216   7.756   2.415
 2266SOL    HW218830   5.161   7.761   2.568
 2267SOL     OW18831   0.331   5.198   1.162
 2267SOL    HW118832   0.257   5.132   1.173
 2267SOL    HW218833   0.295   5.290   1.174
 2268SOL     OW18834   0.576   8.303   2.021
 2268SOL    HW118835   0.538   8.238   2.087
 2268SOL    HW218836   0.598   8.388   2.068
 2269SOL     OW18837   8.315   1.802   1.150
 2269SOL    HW118838   8.382   1.737   1.113
 2269SOL    HW218839   8.269   1.762   1.229
 2270SOL     OW18840   7.316   5.285   1.803
 2270SOL    HW118841   7.246   5.221   1.770
 2270SOL    HW218842   7.376   5.238   1.868
 2271SOL     OW18843   1.726   6.757   5.133
 2271SOL    HW118844   1.746   6.665   5.101
 2271SOL    HW218845   1.690   6.811   5.057
 2272SOL     OW18846   5.142   1.013   6.438
 2272SOL    HW118847   5.106   1.095   6.394
 2272SOL    HW218848   5.167   0.946   6.368
 2273SOL     OW18849   3.606   2.722   0.575
 2273SOL    HW118850   3.641   2.801   0.524
 2273SOL    HW218851   3.518   2.746   0.617
 2274SOL     OW18852   1.657   7.366   7.164
 2274SOL    HW118853   1.633   7.369   7.067
 2274SOL    HW218854   1.748   7.326   7.175
 2275SOL     OW18855   8.665   2.794   2.025
 2275SOL    HW118856   8.695   2.700   2.042
 2275SOL    HW218857   8.680   2.849   2.107
 2276SOL     OW18858   7.060   8.030   6.024
 2276SOL    HW118859   7.139   7.979   5.991
 2276SOL    HW218860   6.976   7.979   6.005
 2277SOL     OW18861   5.274   0.706   1.783
 2277SOL    HW118862   5.282   0.606   1.778
 2277SOL    HW218863   5.363   0.745   1.807
 2278SOL     OW18864   0.650   6.075   5.120
 2278SOL    HW118865   0.617   5.985   5.090
 2278SOL    HW218866   0.742   6.066   5.158
 2279SOL     OW18867   2.570   5.081   1.018
 2279SOL    HW118868   2.524   5.099   0.932
 2279SOL    HW218869   2.516   5.016   1.072
 2280SOL     OW18870   5.749   1.752   2.161
 2280SOL    HW118871   5.660   1.777   2.122
 2280SOL    HW218872   5.736   1.715   2.253
 2281SOL     OW18873   8.981   3.196   6.856
 2281SOL    HW118874   9.003   3.292   6.838
 2281SOL    HW218875   8.882   3.186   6.866
 2282SOL     OW18876   0.834   5.403   6.822
 2282SOL    HW118877   0.825   5.335   6.748
 2282SOL    HW218878   0.904   5.373   6.886
 2283SOL     OW18879   6.071   4.668   1.201
 2283SOL    HW118880   6.167   4.691   1.186
 2283SOL    HW218881   6.053   4.664   1.299
 2284SOL     OW18882   6.951   4.450   1.706
 2284SOL    HW118883   6.989   4.361   1.731
 2284SOL    HW218884   6.989   4.520   1.767
 2285SOL     OW18885   5.676   6.163   6.901
 2285SOL    HW118886   5.610   6.222   6.947
 2285SOL    HW218887   5.758   6.155   6.958
 2286SOL     OW18888   8.286   4.623   5.781
 2286SOL    HW118889   8.209   4.570   5.746
 2286SOL    HW218890   8.334   4.667   5.705
 2287SOL     OW18891   5.226   7.426   1.232
 2287SOL    HW118892   5.158   7.454   1.299
 2287SOL    HW218893   5.258   7.507   1.182
 2288SOL     OW18894   9.042   0.561   7.084
 2288SOL    HW118895   9.075   0.533   6.994
 2288SOL    HW218896   9.109   0.534   7.154
 2289SOL     OW18897   3.538   4.277   1.350
 2289SOL    HW118898   3.528   4.286   1.251
 2289SOL    HW218899   3.560   4.182   1.373
 2290SOL     OW18900   7.159  -0.037   0.928
 2290SOL    HW118901   7.073  -0.080   0.956
 2290SOL    HW218902   7.209  -0.006   1.009
 2291SOL     OW18903   0.880   6.129   5.695
 2291SOL    HW118904   0.953   6.062   5.707
 2291SOL    HW218905   0.792   6.083   5.694
 2292SOL     OW18906   9.361   1.257   5.783
 2292SOL    HW118907   9.408   1.205   5.855
 2292SOL    HW218908   9.399   1.231   5.694
 2293SOL     OW18909   0.752   1.000   0.978
 2293SOL    HW118910   0.725   1.072   1.041
 2293SOL    HW218911   0.822   1.034   0.915
 2294SOL     OW18912   8.919  -0.027   0.987
 2294SOL    HW118913   8.931   0.035   0.909
 2294SOL    HW218914   8.825  -0.063   0.987
 2295SOL     OW18915   0.335   4.228   0.710
 2295SOL    HW118916   0.265   4.232   0.781
 2295SOL    HW218917   0.352   4.319   0.675
 2296SOL     OW18918   2.271   5.402   5.429
 2296SOL    HW118919   2.332   5.473   5.394
 2296SOL    HW218920   2.192   5.443   5.473
 2297SOL     OW18921   0.209   2.341   7.122
 2297SOL    HW118922   0.248   2.345   7.214
 2297SOL    HW218923   0.276   2.300   7.059
 2298SOL     OW18924   0.921   6.029   5.997
 2298SOL    HW118925   0.824   6.008   6.012
 2298SOL    HW218926   0.950   6.100   6.061
 2299SOL     OW18927   2.919   4.295   1.647
 2299SOL    HW118928   2.893   4.367   1.583
 2299SOL    HW218929   2.865   4.304   1.731
 2300SOL     OW18930   7.138   0.097   7.149
 2300SOL    HW118931   7.081   0.025   7.110
 2300SOL    HW218932   7.203   0.056   7.213
 2301SOL     OW18933   4.921   8.164   7.092
 2301SOL    HW118934   5.008   8.153   7.139
 2301SOL    HW218935   4.892   8.260   7.098
 2302SOL     OW18936   7.980   8.362   0.691
 2302SOL    HW118937   8.016   8.455   0.681
 2302SOL    HW218938   7.881   8.367   0.708
 2303SOL     OW18939   1.702   2.997   6.878
 2303SOL    HW118940   1.645   2.992   6.796
 2303SOL    HW218941   1.732   3.091   6.892
 2304SOL     OW18942   7.941   0.448   6.058
 2304SOL    HW118943   7.902   0.498   5.981
 2304SOL    HW218944   7.994   0.370   6.024
 2305SOL     OW18945   0.763   5.588   0.901
 2305SOL    HW118946   0.830   5.527   0.860
 2305SOL    HW218947   0.789   5.607   0.996
 2306SOL     OW18948   0.132   3.872   6.766
 2306SOL    HW118949   0.171   3.920   6.845
 2306SOL    HW218950   0.043   3.910   6.743
 2307SOL     OW18951   7.250   1.243   5.844
 2307SOL    HW118952   7.314   1.273   5.773
 2307SOL    HW218953   7.194   1.168   5.808
 2308SOL     OW18954   5.959   5.162   5.516
 2308SOL    HW118955   5.859   5.151   5.523
 2308SOL    HW218956   5.979   5.240   5.456
 2309SOL     OW18957   0.502   3.853   0.802
 2309SOL    HW118958   0.435   3.781   0.822
 2309SOL    HW218959   0.588   3.832   0.848
 2310SOL     OW18960   5.156   6.280   1.346
 2310SOL    HW118961   5.191   6.294   1.439
 2310SOL    HW218962   5.079   6.216   1.349
 2311SOL     OW18963   9.443   2.651   2.124
 2311SOL    HW118964   9.370   2.718   2.141
 2311SOL    HW218965   9.438   2.580   2.194
 2312SOL     OW18966   4.493   6.044   0.855
 2312SOL    HW118967   4.526   5.950   0.867
 2312SOL    HW218968   4.394   6.046   0.870
 2313SOL     OW18969   5.079   0.452   0.633
 2313SOL    HW118970   4.983   0.434   0.658
 2313SOL    HW218971   5.106   0.391   0.559
 2314SOL     OW18972   0.647   6.573   1.610
 2314SOL    HW118973   0.647   6.673   1.597
 2314SOL    HW218974   0.662   6.553   1.707
 2315SOL     OW18975   2.749   3.879   1.578
 2315SOL    HW118976   2.739   3.788   1.618
 2315SOL    HW218977   2.775   3.945   1.649
 2316SOL     OW18978   1.636   5.428   0.982
 2316SOL    HW118979   1.642   5.523   1.013
 2316SOL    HW218980   1.719   5.405   0.931
 2317SOL     OW18981   0.158   6.527   0.850
 2317SOL    HW118982   0.071   6.531   0.899
 2317SOL    HW218983   0.146   6.562   0.757
 2318SOL     OW18984   6.170   6.718   0.755
 2318SOL    HW118985   6.199   6.760   0.840
 2318SOL    HW218986   6.245   6.717   0.690
 2319SOL     OW18987   6.820   5.439   5.715
 2319SOL    HW118988   6.745   5.489   5.757
 2319SOL    HW218989   6.905   5.458   5.765
 2320SOL     OW18990   8.384   6.561   6.960
 2320SOL    HW118991   8.307   6.606   6.915
 2320SOL    HW218992   8.382   6.463   6.941
 2321SOL     OW18993   4.231   6.764   2.056
 2321SOL    HW118994   4.177   6.846   2.077
 2321SOL    HW218995   4.206   6.730   1.966
 2322SOL     OW18996   9.405   7.564   6.110
 2322SOL    HW118997   9.344   7.641   6.089
 2322SOL    HW218998   9.422   7.562   6.209
 2323SOL     OW18999   5.581   4.598   6.974
 2323SOL    HW119000   5.510   4.669   6.970
 2323SOL    HW219001   5.542   4.510   6.949
 2324SOL     OW19002   0.399   8.217   0.581
 2324SOL    HW119003   0.473   8.178   0.637
 2324SOL    HW219004   0.406   8.317   0.583
 2325SOL     OW19005   6.322   5.021   6.748
 2325SOL    HW119006   6.408   4.972   6.731
 2325SOL    HW219007   6.289   5.061   6.662
 2326SOL     OW19008   7.673   3.130   1.177
 2326SOL    HW119009   7.692   3.188   1.256
 2326SOL    HW219010   7.722   3.044   1.186
 2327SOL     OW19011   0.122   1.023   6.258
 2327SOL    HW119012   0.093   1.118   6.270
 2327SOL    HW219013   0.218   1.013   6.284
 2328SOL     OW19014   9.383   5.093   6.419
 2328SOL    HW119015   9.295   5.054   6.448
 2328SOL    HW219016   9.457   5.048   6.467
 2329SOL     OW19017   9.407   1.384   1.658
 2329SOL    HW119018   9.315   1.423   1.662
 2329SOL    HW219019   9.450   1.391   1.748
 2330SOL     OW19020   5.017   2.433   1.020
 2330SOL    HW119021   4.956   2.355   1.035
 2330SOL    HW219022   4.963   2.513   0.993
 2331SOL     OW19023   9.115   2.586   6.264
 2331SOL    HW119024   9.079   2.652   6.199
 2331SOL    HW219025   9.145   2.504   6.216
 2332SOL     OW19026   1.436   5.756   6.578
 2332SOL    HW119027   1.389   5.708   6.503
 2332SOL    HW219028   1.535   5.746   6.566
 2333SOL     OW19029   2.785   1.840   1.364
 2333SOL    HW119030   2.816   1.903   1.293
 2333SOL    HW219031   2.701   1.795   1.334
 2334SOL     OW19032   3.225   0.366   6.110
 2334SOL    HW119033   3.205   0.460   6.136
 2334SOL    HW219034   3.282   0.323   6.180
 2335SOL     OW19035   7.698   6.466   5.293
 2335SOL    HW119036   7.730   6.544   5.239
 2335SOL    HW219037   7.770   6.398   5.301
 2336SOL     OW19038   4.507   6.700   5.945
 2336SOL    HW119039   4.436   6.631   5.959
 2336SOL    HW219040   4.477   6.764   5.874
 2337SOL     OW19041   7.548   5.682   6.231
 2337SOL    HW119042   7.558   5.583   6.245
 2337SOL    HW219043   7.496   5.721   6.307
 2338SOL     OW19044   1.784   3.693   5.657
 2338SOL    HW119045   1.804   3.736   5.569
 2338SOL    HW219046   1.858   3.629   5.681
 2339SOL     OW19047   9.159   1.692   6.757
 2339SOL    HW119048   9.243   1.719   6.804
 2339SOL    HW219049   9.146   1.593   6.765
 2340SOL     OW19050   0.237   4.699   5.949
 2340SOL    HW119051   0.297   4.651   5.885
 2340SOL    HW219052   0.162   4.742   5.898
 2341SOL     OW19053   4.527   6.534   6.963
 2341SOL    HW119054   4.570   6.447   6.987
 2341SOL    HW219055   4.572   6.572   6.882
 2342SOL     OW19056   6.479   2.573   5.758
 2342SOL    HW119057   6.445   2.646   5.817
 2342SOL    HW219058   6.565   2.601   5.716
 2343SOL     OW19059   2.110   3.004   6.314
 2343SOL    HW119060   2.050   3.072   6.272
 2343SOL    HW219061   2.143   3.038   6.402
 2344SOL     OW19062   2.457   0.781   1.225
 2344SOL    HW119063   2.423   0.844   1.155
 2344SOL    HW219064   2.474   0.832   1.310
 2345SOL     OW19065   5.069   7.711   0.459
 2345SOL    HW119066   5.114   7.641   0.403
 2345SOL    HW219067   5.033   7.783   0.400
 2346SOL     OW19068   0.872   8.351   1.970
 2346SOL    HW119069   0.904   8.362   2.065
 2346SOL    HW219070   0.788   8.297   1.970
 2347SOL     OW19071   1.426   5.075   0.569
 2347SOL    HW119072   1.349   5.066   0.507
 2347SOL    HW219073   1.425   5.166   0.611
 2348SOL     OW19074   4.199   1.443   5.938
 2348SOL    HW119075   4.267   1.509   5.972
 2348SOL    HW219076   4.179   1.464   5.842
 2349SOL     OW19077   8.544   6.210   1.531
 2349SOL    HW119078   8.623   6.153   1.510
 2349SOL    HW219079   8.557   6.253   1.620
 2350SOL     OW19080   5.550   1.266   6.669
 2350SOL    HW119081   5.598   1.180   6.651
 2350SOL    HW219082   5.454   1.246   6.689
 2351SOL     OW19083   1.837   1.585   7.012
 2351SOL    HW119084   1.756   1.631   6.975
 2351SOL    HW219085   1.872   1.636   7.091
 2352SOL     OW19086   3.538   7.978   1.502
 2352SOL    HW119087   3.449   7.989   1.457
 2352SOL    HW219088   3.524   7.970   1.601
 2353SOL     OW19089   5.016   0.715   6.829
 2353SOL    HW119090   4.995   0.646   6.899
 2353SOL    HW219091   5.031   0.670   6.741
 2354SOL     OW19092   5.585   6.840   1.743
 2354SOL    HW119093   5.673   6.795   1.759
 2354SOL    HW219094   5.519   6.774   1.709
 2355SOL     OW19095   4.084   3.598   1.462
 2355SOL    HW119096   4.018   3.616   1.389
 2355SOL    HW219097   4.164   3.656   1.449
 2356SOL     OW19098   2.217   7.002   6.782
 2356SOL    HW119099   2.184   6.910   6.760
 2356SOL    HW219100   2.193   7.024   6.877
 2357SOL     OW19101   0.858   2.622   1.412
 2357SOL    HW119102   0.906   2.710   1.415
 2357SOL    HW219103   0.761   2.637   1.430
 2358SOL     OW19104   1.499   5.939   6.070
 2358SOL    HW119105   1.449   5.975   6.148
 2358SOL    HW219106   1.546   5.854   6.097
 2359SOL     OW19107   6.601   6.832   1.251
 2359SOL    HW119108   6.577   6.927   1.270
 2359SOL    HW219109   6.559   6.803   1.165
 2360SOL     OW19110   2.049   5.659   1.330
 2360SOL    HW119111   2.008   5.726   1.268
 2360SOL    HW219112   2.016   5.568   1.307
 2361SOL     OW19113   4.883   4.702   1.517
 2361SOL    HW119114   4.973   4.660   1.523
 2361SOL    HW219115   4.845   4.712   1.609
 2362SOL     OW19116   3.869   2.985   0.936
 2362SOL    HW119117   3.918   3.068   0.959
 2362SOL    HW219118   3.934   2.911   0.919
 2363SOL     OW19119   9.538   7.615   1.201
 2363SOL    HW119120   9.600   7.629   1.278
 2363SOL    HW219121   9.494   7.526   1.210
 2364SOL     OW19122   1.850   7.184   5.387
 2364SOL    HW119123   1.859   7.273   5.342
 2364SOL    HW219124   1.895   7.114   5.331
 2365SOL     OW19125   6.332   3.183   1.071
 2365SOL    HW119126   6.288   3.227   1.149
 2365SOL    HW219127   6.422   3.150   1.097
 2366SOL     OW19128   2.130   1.563   0.703
 2366SOL    HW119129   2.220   1.540   0.741
 2366SOL    HW219130   2.063   1.565   0.777
 2367SOL     OW19131   3.790   5.457   2.219
 2367SOL    HW119132   3.769   5.554   2.229
 2367SOL    HW219133   3.762   5.408   2.301
 2368SOL     OW19134   7.809   5.994   6.206
 2368SOL    HW119135   7.836   5.916   6.151
 2368SOL    HW219136   7.713   5.985   6.232
 2369SOL     OW19137   5.324   6.795   1.924
 2369SOL    HW119138   5.356   6.855   1.850
 2369SOL    HW219139   5.326   6.845   2.011
 2370SOL     OW19140   5.160   7.999   1.614
 2370SOL    HW119141   5.143   7.973   1.519
 2370SOL    HW219142   5.079   8.042   1.652
 2371SOL     OW19143   8.975   4.620   6.742
 2371SOL    HW119144   8.987   4.713   6.707
 2371SOL    HW219145   9.064   4.582   6.767
 2372SOL     OW19146   6.146   4.913   0.530
 2372SOL    HW119147   6.233   4.908   0.580
 2372SOL    HW219148   6.070   4.904   0.594
 2373SOL     OW19149   1.890   6.638   6.424
 2373SOL    HW119150   1.839   6.707   6.372
 2373SOL    HW219151   1.984   6.669   6.435
 2374SOL     OW19152   5.097   4.794   6.464
 2374SOL    HW119153   5.139   4.873   6.419
 2374SOL    HW219154   5.012   4.770   6.417
 2375SOL     OW19155   5.876   7.985   1.570
 2375SOL    HW119156   5.786   7.962   1.607
 2375SOL    HW219157   5.868   8.063   1.508
 2376SOL     OW19158   1.241   0.539   5.896
 2376SOL    HW119159   1.305   0.474   5.936
 2376SOL    HW219160   1.225   0.516   5.800
 2377SOL     OW19161   0.565   5.360   0.772
 2377SOL    HW119162   0.631   5.300   0.818
 2377SOL    HW219163   0.565   5.450   0.814
 2378SOL     OW19164   4.125   1.654   1.618
 2378SOL    HW119165   4.185   1.578   1.590
 2378SOL    HW219166   4.068   1.681   1.541
 2379SOL     OW19167   1.855   5.533   5.782
 2379SOL    HW119168   1.839   5.435   5.790
 2379SOL    HW219169   1.932   5.548   5.719
 2380SOL     OW19170   7.616   7.588   5.952
 2380SOL    HW119171   7.615   7.495   5.987
 2380SOL    HW219172   7.620   7.586   5.852
 2381SOL     OW19173   5.037   0.008   5.108
 2381SOL    HW119174   5.018  -0.073   5.053
 2381SOL    HW219175   4.983   0.004   5.192
 2382SOL     OW19176   0.853   5.233   6.630
 2382SOL    HW119177   0.928   5.169   6.650
 2382SOL    HW219178   0.777   5.182   6.589
 2383SOL     OW19179   2.429   3.941   0.931
 2383SOL    HW119180   2.399   4.037   0.939
 2383SOL    HW219181   2.357   3.881   0.966
 2384SOL     OW19182   1.230   0.383   1.048
 2384SOL    HW119183   1.240   0.477   1.081
 2384SOL    HW219184   1.162   0.380   0.975
 2385SOL     OW19185   5.001   7.580   5.909
 2385SOL    HW119186   5.042   7.608   5.996
 2385SOL    HW219187   5.051   7.502   5.871
 2386SOL     OW19188   3.798   0.721   5.711
 2386SOL    HW119189   3.851   0.804   5.693
 2386SOL    HW219190   3.703   0.747   5.728
 2387SOL     OW19191   8.031   4.807   6.120
 2387SOL    HW119192   8.088   4.735   6.158
 2387SOL    HW219193   8.037   4.805   6.020
 2388SOL     OW19194   8.117   1.158   1.312
 2388SOL    HW119195   8.087   1.156   1.217
 2388SOL    HW219196   8.037   1.157   1.372
 2389SOL     OW19197   6.843   2.470   7.004
 2389SOL    HW119198   6.755   2.512   7.024
 2389SOL    HW219199   6.840   2.374   7.031
 2390SOL     OW19200   4.979   7.959   0.926
 2390SOL    HW119201   4.908   7.963   0.856
 2390SOL    HW219202   5.047   7.889   0.901
 2391SOL     OW19203   0.927   5.343   5.100
 2391SOL    HW119204   0.860   5.349   5.026
 2391SOL    HW219205   0.893   5.395   5.179
 2392SOL     OW19206   6.100   1.837   6.744
 2392SOL    HW119207   6.116   1.756   6.688
 2392SOL    HW219208   6.177   1.899   6.736
 2393SOL     OW19209   2.062   0.630   6.067
 2393SOL    HW119210   2.101   0.671   5.984
 2393SOL    HW219211   2.109   0.667   6.147
 2394SOL     OW19212   4.400   1.203   1.451
 2394SOL    HW119213   4.455   1.120   1.457
 2394SOL    HW219214   4.344   1.200   1.369
 2395SOL     OW19215   5.984   7.457   1.418
 2395SOL    HW119216   5.968   7.444   1.320
 2395SOL    HW219217   6.024   7.547   1.434
 2396SOL     OW19218   8.134   3.135   7.095
 2396SOL    HW119219   8.148   3.152   7.193
 2396SOL    HW219220   8.040   3.157   7.071
 2397SOL     OW19221   7.384   2.131   6.575
 2397SOL    HW119222   7.390   2.099   6.481
 2397SOL    HW219223   7.291   2.119   6.608
 2398SOL     OW19224   7.065   0.233   0.972
 2398SOL    HW119225   7.002   0.283   0.913
 2398SOL    HW219226   7.102   0.154   0.922
 2399SOL     OW19227   8.608   8.180   6.900
 2399SOL    HW119228   8.613   8.132   6.812
 2399SOL    HW219229   8.528   8.239   6.901
 2400SOL     OW19230   8.815   7.277   6.063
 2400SOL    HW119231   8.908   7.289   6.099
 2400SOL    HW219232   8.793   7.180   6.059
 2401SOL     OW19233   2.162   4.481   7.138
 2401SOL    HW119234   2.150   4.534   7.053
 2401SOL    HW219235   2.258   4.482   7.165
 2402SOL     OW19236   7.885   0.839   7.146
 2402SOL    HW119237   7.940   0.900   7.089
 2402SOL    HW219238   7.795   0.827   7.105
 2403SOL     OW19239   2.455   3.433   6.590
 2403SOL    HW119240   2.473   3.335   6.585
 2403SOL    HW219241   2.542   3.482   6.598
 2404SOL     OW19242   7.715   3.614   0.691
 2404SOL    HW119243   7.688   3.710   0.700
 2404SOL    HW219244   7.639   3.561   0.652
 2405SOL     OW19245   4.198   1.905   0.900
 2405SOL    HW119246   4.109   1.867   0.873
 2405SOL    HW219247   4.207   1.997   0.863
 2406SOL     OW19248   5.431   3.307   6.352
 2406SOL    HW119249   5.499   3.378   6.370
 2406SOL    HW219250   5.403   3.265   6.438
 2407SOL     OW19251   6.547   6.443   0.670
 2407SOL    HW119252   6.560   6.352   0.710
 2407SOL    HW219253   6.593   6.511   0.728
 2408SOL     OW19254   7.069   4.435   1.363
 2408SOL    HW119255   7.149   4.453   1.421
 2408SOL    HW219256   7.056   4.512   1.301
 2409SOL     OW19257   4.088   6.988   5.825
 2409SOL    HW119258   3.992   7.017   5.822
 2409SOL    HW219259   4.124   6.982   5.732
 2410SOL     OW19260   7.926   1.116   0.801
 2410SOL    HW119261   7.871   1.048   0.754
 2410SOL    HW219262   7.914   1.205   0.757
 2411SOL     OW19263   5.072   0.703   0.517
 2411SOL    HW119264   5.094   0.610   0.549
 2411SOL    HW219265   5.021   0.751   0.588
 2412SOL     OW19266   0.376   6.097   5.236
 2412SOL    HW119267   0.458   6.112   5.181
 2412SOL    HW219268   0.400   6.092   5.332
 2413SOL     OW19269   1.190   4.891   6.573
 2413SOL    HW119270   1.108   4.845   6.538
 2413SOL    HW219271   1.246   4.825   6.622
 2414SOL     OW19272   0.448   2.940   7.057
 2414SOL    HW119273   0.475   2.948   6.961
 2414SOL    HW219274   0.441   3.031   7.097
 2415SOL     OW19275   1.281   6.379   5.295
 2415SOL    HW119276   1.255   6.426   5.211
 2415SOL    HW219277   1.372   6.410   5.323
 2416SOL     OW19278   6.458   2.291   5.813
 2416SOL    HW119279   6.475   2.380   5.770
 2416SOL    HW219280   6.539   2.233   5.803
 2417SOL     OW19281   3.795   0.200   6.433
 2417SOL    HW119282   3.822   0.271   6.498
 2417SOL    HW219283   3.870   0.184   6.369
 2418SOL     OW19284   7.489   8.168   5.605
 2418SOL    HW119285   7.548   8.095   5.572
 2418SOL    HW219286   7.504   8.181   5.703
 2419SOL     OW19287   1.620   5.687   5.026
 2419SOL    HW119288   1.586   5.730   4.942
 2419SOL    HW219289   1.598   5.589   5.025
 2420SOL     OW19290   9.477   8.047   5.762
 2420SOL    HW119291   9.497   8.140   5.794
 2420SOL    HW219292   9.426   8.052   5.676
 2421SOL     OW19293   3.296   2.956   5.980
 2421SOL    HW119294   3.199   2.963   6.003
 2421SOL    HW219295   3.323   3.035   5.924
 2422SOL     OW19296   7.784   6.835   6.074
 2422SOL    HW119297   7.764   6.897   5.998
 2422SOL    HW219298   7.879   6.847   6.104
 2423SOL     OW19299   4.212   3.303   1.769
 2423SOL    HW119300   4.125   3.254   1.770
 2423SOL    HW219301   4.214   3.370   1.843
 2424SOL     OW19302   6.868   7.707   6.833
 2424SOL    HW119303   6.781   7.661   6.852
 2424SOL    HW219304   6.853   7.805   6.825
 2425SOL     OW19305   6.231   7.204   0.720
 2425SOL    HW119306   6.306   7.138   0.724
 2425SOL    HW219307   6.167   7.187   0.794
 2426SOL     OW19308   8.860   5.280   1.686
 2426SOL    HW119309   8.773   5.249   1.646
 2426SOL    HW219310   8.841   5.349   1.756
 2427SOL     OW19311   1.656   8.196   7.048
 2427SOL    HW119312   1.575   8.224   7.101
 2427SOL    HW219313   1.650   8.233   6.956
 2428SOL     OW19314   5.338   4.812   2.045
 2428SOL    HW119315   5.272   4.775   1.981
 2428SOL    HW219316   5.306   4.797   2.139
 2429SOL     OW19317   2.311   7.121   1.912
 2429SOL    HW119318   2.305   7.179   1.831
 2429SOL    HW219319   2.290   7.175   1.994
 2430SOL     OW19320   4.947   6.578   6.736
 2430SOL    HW119321   5.032   6.526   6.749
 2430SOL    HW219322   4.960   6.671   6.771
 2431SOL     OW19323   9.210   7.384   1.229
 2431SOL    HW119324   9.231   7.359   1.135
 2431SOL    HW219325   9.258   7.322   1.291
 2432SOL     OW19326   8.954   6.996   5.008
 2432SOL    HW119327   8.971   6.913   4.954
 2432SOL    HW219328   8.941   7.073   4.946
 2433SOL     OW19329   6.706   8.368   2.058
 2433SOL    HW119330   6.659   8.348   2.143
 2433SOL    HW219331   6.743   8.460   2.061
 2434SOL     OW19332   1.568   2.025   6.310
 2434SOL    HW119333   1.564   1.931   6.346
 2434SOL    HW219334   1.582   2.089   6.386
 2435SOL     OW19335   8.555   0.232   6.201
 2435SOL    HW119336   8.563   0.220   6.300
 2435SOL    HW219337   8.459   0.252   6.178
 2436SOL     OW19338   3.293   2.363   6.808
 2436SOL    HW119339   3.333   2.275   6.833
 2436SOL    HW219340   3.193   2.355   6.805
 2437SOL     OW19341   3.341   7.963   5.719
 2437SOL    HW119342   3.294   8.024   5.655
 2437SOL    HW219343   3.436   7.992   5.729
 2438SOL     OW19344   4.032   1.254   5.605
 2438SOL    HW119345   4.021   1.216   5.513
 2438SOL    HW219346   4.084   1.190   5.662
 2439SOL     OW19347   9.271   6.273   6.637
 2439SOL    HW119348   9.225   6.216   6.570
 2439SOL    HW219349   9.211   6.288   6.716
 2440SOL     OW19350   8.888   3.093   6.054
 2440SOL    HW119351   8.896   3.176   6.108
 2440SOL    HW219352   8.818   3.106   5.984
 2441SOL     OW19353   1.024   6.435   6.663
 2441SOL    HW119354   0.928   6.416   6.683
 2441SOL    HW219355   1.034   6.530   6.633
 2442SOL     OW19356   8.392   1.089   1.830
 2442SOL    HW119357   8.437   1.011   1.786
 2442SOL    HW219358   8.440   1.112   1.914
 2443SOL     OW19359   7.787   2.202   0.461
 2443SOL    HW119360   7.876   2.157   0.448
 2443SOL    HW219361   7.715   2.144   0.422
 2444SOL     OW19362   3.165   0.359   1.520
 2444SOL    HW119363   3.097   0.424   1.485
 2444SOL    HW219364   3.203   0.394   1.606
 2445SOL     OW19365   1.357   7.810   0.888
 2445SOL    HW119366   1.446   7.854   0.893
 2445SOL    HW219367   1.356   7.745   0.811
 2446SOL     OW19368   4.516   8.027   0.787
 2446SOL    HW119369   4.571   8.108   0.766
 2446SOL    HW219370   4.478   8.036   0.879
 2447SOL     OW19371   1.597   2.358   7.162
 2447SOL    HW119372   1.499   2.368   7.179
 2447SOL    HW219373   1.631   2.442   7.120
 2448SOL     OW19374   4.296   7.870   5.959
 2448SOL    HW119375   4.359   7.906   6.027
 2448SOL    HW219376   4.346   7.819   5.890
 2449SOL     OW19377   7.978   5.782   6.735
 2449SOL    HW119378   7.943   5.739   6.819
 2449SOL    HW219379   7.963   5.721   6.658
 2450SOL     OW19380   5.162   1.783   6.821
 2450SOL    HW119381   5.235   1.717   6.802
 2450SOL    HW219382   5.202   1.864   6.864
 2451SOL     OW19383   4.264   8.271   6.999
 2451SOL    HW119384   4.321   8.227   6.930
 2451SOL    HW219385   4.282   8.370   6.998
 2452SOL     OW19386   1.099   2.040   0.696
 2452SOL    HW119387   1.036   2.020   0.771
 2452SOL    HW219388   1.084   1.975   0.622
 2453SOL     OW19389   3.262   8.272   5.628
 2453SOL    HW119390   3.273   8.345   5.561
 2453SOL    HW219391   3.224   8.191   5.583
 2454SOL     OW19392   8.378   1.549   6.281
 2454SOL    HW119393   8.316   1.478   6.249
 2454SOL    HW219394   8.472   1.516   6.280
 2455SOL     OW19395   2.830   1.841   6.999
 2455SOL    HW119396   2.883   1.771   6.951
 2455SOL    HW219397   2.733   1.827   6.983
 2456SOL     OW19398   8.739   4.781   1.049
 2456SOL    HW119399   8.827   4.828   1.045
 2456SOL    HW219400   8.735   4.727   1.133
 2457SOL     OW19401   4.180   5.954   2.545
 2457SOL    HW119402   4.149   5.859   2.548
 2457SOL    HW219403   4.196   5.987   2.638
 2458SOL     OW19404   3.840   5.229   6.035
 2458SOL    HW119405   3.924   5.279   6.017
 2458SOL    HW219406   3.764   5.294   6.046
 2459SOL     OW19407   2.461   8.222   6.105
 2459SOL    HW119408   2.560   8.218   6.104
 2459SOL    HW219409   2.428   8.265   6.021
 2460SOL     OW19410   8.609   3.085   0.481
 2460SOL    HW119411   8.662   3.164   0.449
 2460SOL    HW219412   8.515   3.093   0.450
 2461SOL     OW19413   1.899   7.590   6.873
 2461SOL    HW119414   1.844   7.672   6.889
 2461SOL    HW219415   1.944   7.563   6.958
 2462SOL     OW19416   6.623   7.700   6.543
 2462SOL    HW119417   6.603   7.611   6.583
 2462SOL    HW219418   6.552   7.725   6.477
 2463SOL     OW19419   6.488   2.713   5.997
 2463SOL    HW119420   6.440   2.631   6.029
 2463SOL    HW219421   6.572   2.725   6.049
 2464SOL     OW19422   7.768   4.097   0.728
 2464SOL    HW119423   7.724   4.144   0.652
 2464SOL    HW219424   7.857   4.139   0.747
 2465SOL     OW19425   4.640   6.986   5.371
 2465SOL    HW119426   4.696   7.067   5.389
 2465SOL    HW219427   4.552   7.014   5.335
 2466SOL     OW19428   3.092   1.383   1.071
 2466SOL    HW119429   3.172   1.347   1.121
 2466SOL    HW219430   3.042   1.446   1.130
 2467SOL     OW19431   0.865   1.115   5.141
 2467SOL    HW119432   0.783   1.160   5.104
 2467SOL    HW219433   0.938   1.182   5.153
 2468SOL     OW19434   1.931   7.269   1.524
 2468SOL    HW119435   1.998   7.278   1.597
 2468SOL    HW219436   1.840   7.259   1.564
 2469SOL     OW19437   2.920   0.371   1.052
 2469SOL    HW119438   2.919   0.271   1.046
 2469SOL    HW219439   2.862   0.400   1.129
 2470SOL     OW19440   7.939   0.618   1.304
 2470SOL    HW119441   7.867   0.551   1.326
 2470SOL    HW219442   7.909   0.709   1.331
 2471SOL     OW19443   1.144   8.307   6.867
 2471SOL    HW119444   1.129   8.245   6.944
 2471SOL    HW219445   1.167   8.398   6.902
 2472SOL     OW19446   2.160   4.924   1.510
 2472SOL    HW119447   2.251   4.918   1.470
 2472SOL    HW219448   2.092   4.925   1.436
 2473SOL     OW19449   9.247   7.727   7.022
 2473SOL    HW119450   9.182   7.751   6.950
 2473SOL    HW219451   9.315   7.799   7.031
 2474SOL     OW19452   7.677   2.612   7.070
 2474SOL    HW119453   7.727   2.696   7.046
 2474SOL    HW219454   7.636   2.622   7.160
 2475SOL     OW19455   1.108   7.136   0.491
 2475SOL    HW119456   1.027   7.094   0.533
 2475SOL    HW219457   1.190   7.095   0.531
 2476SOL     OW19458   2.095   2.506   6.214
 2476SOL    HW119459   2.108   2.577   6.283
 2476SOL    HW219460   2.001   2.510   6.179
 2477SOL     OW19461   3.198   1.703   6.619
 2477SOL    HW119462   3.173   1.691   6.715
 2477SOL    HW219463   3.115   1.702   6.563
 2478SOL     OW19464   7.986   1.792   0.731
 2478SOL    HW119465   8.026   1.731   0.800
 2478SOL    HW219466   8.008   1.886   0.754
 2479SOL     OW19467   7.081   3.696   1.183
 2479SOL    HW119468   7.051   3.724   1.092
 2479SOL    HW219469   7.170   3.737   1.203
 2480SOL     OW19470   9.316   0.841   1.448
 2480SOL    HW119471   9.359   0.829   1.537
 2480SOL    HW219472   9.219   0.861   1.461
 2481SOL     OW19473   5.336   5.992   1.832
 2481SOL    HW119474   5.335   5.900   1.872
 2481SOL    HW219475   5.286   6.055   1.890
 2482SOL     OW19476   5.497   4.153   1.021
 2482SOL    HW119477   5.545   4.075   0.981
 2482SOL    HW219478   5.420   4.178   0.963
 2483SOL     OW19479   2.972   5.964   5.981
 2483SOL    HW119480   3.020   5.951   5.894
 2483SOL    HW219481   2.997   5.890   6.043
 2484SOL     OW19482   3.609   8.044   7.144
 2484SOL    HW119483   3.532   8.095   7.106
 2484SOL    HW219484   3.643   7.979   7.075
 2485SOL     OW19485   1.062   4.160   6.356
 2485SOL    HW119486   1.102   4.088   6.411
 2485SOL    HW219487   0.972   4.184   6.392
 2486SOL     OW19488   0.310   5.920   6.852
 2486SOL    HW119489   0.293   5.824   6.830
 2486SOL    HW219490   0.408   5.934   6.864
 2487SOL     OW19491   6.855   0.138   0.770
 2487SOL    HW119492   6.889   0.088   0.691
 2487SOL    HW219493   6.765   0.103   0.795
 2488SOL     OW19494   3.283   1.009   2.248
 2488SOL    HW119495   3.368   1.028   2.298
 2488SOL    HW219496   3.272   1.076   2.175
 2489SOL     OW19497   1.257   5.058   7.072
 2489SOL    HW119498   1.301   5.078   6.984
 2489SOL    HW219499   1.254   4.959   7.085
 2490SOL     OW19500   5.604   2.470   0.919
 2490SOL    HW119501   5.536   2.542   0.916
 2490SOL    HW219502   5.578   2.397   0.854
 2491SOL     OW19503   5.894   2.406   6.670
 2491SOL    HW119504   5.897   2.419   6.571
 2491SOL    HW219505   5.925   2.313   6.692
 2492SOL     OW19506   8.981   4.288   1.021
 2492SOL    HW119507   9.077   4.281   0.994
 2492SOL    HW219508   8.943   4.196   1.034
 2493SOL     OW19509   6.193   5.164   7.153
 2493SOL    HW119510   6.195   5.074   7.196
 2493SOL    HW219511   6.100   5.201   7.156
 2494SOL     OW19512   5.733   5.470   6.500
 2494SOL    HW119513   5.826   5.441   6.482
 2494SOL    HW219514   5.674   5.390   6.514
 2495SOL     OW19515   4.255   0.278   5.659
 2495SOL    HW119516   4.254   0.225   5.744
 2495SOL    HW219517   4.209   0.226   5.587
 2496SOL     OW19518   1.022   3.972   6.938
 2496SOL    HW119519   0.934   3.929   6.958
 2496SOL    HW219520   1.007   4.064   6.902
 2497SOL     OW19521   7.446   7.425   7.055
 2497SOL    HW119522   7.372   7.442   6.990
 2497SOL    HW219523   7.502   7.350   7.022
 2498SOL     OW19524   7.106   4.659   6.134
 2498SOL    HW119525   7.073   4.694   6.046
 2498SOL    HW219526   7.163   4.728   6.178
 2499SOL     OW19527   7.719   8.396   0.662
 2499SOL    HW119528   7.703   8.487   0.625
 2499SOL    HW219529   7.648   8.333   0.628
 2500SOL     OW19530   4.647   3.617   1.294
 2500SOL    HW119531   4.590   3.577   1.222
 2500SOL    HW219532   4.740   3.579   1.286
 2501SOL     OW19533   3.423   7.185   1.282
 2501SOL    HW119534   3.462   7.124   1.213
 2501SOL    HW219535   3.329   7.208   1.258
 2502SOL     OW19536   1.110   7.995   6.831
 2502SOL    HW119537   1.197   7.949   6.812
 2502SOL    HW219538   1.110   8.027   6.926
 2503SOL     OW19539   9.577   2.539   6.110
 2503SOL    HW119540   9.542   2.622   6.066
 2503SOL    HW219541   9.542   2.534   6.204
 2504SOL     OW19542   4.222   7.745   6.549
 2504SOL    HW119543   4.295   7.782   6.492
 2504SOL    HW219544   4.261   7.694   6.625
 2505SOL     OW19545   1.422   3.400   0.488
 2505SOL    HW119546   1.324   3.386   0.471
 2505SOL    HW219547   1.468   3.312   0.491
 2506SOL     OW19548   1.972   0.771   1.171
 2506SOL    HW119549   2.031   0.781   1.091
 2506SOL    HW219550   1.877   0.762   1.141
 2507SOL     OW19551   9.147   6.818   6.017
 2507SOL    HW119552   9.195   6.738   6.053
 2507SOL    HW219553   9.201   6.900   6.034
 2508SOL     OW19554   8.937   7.408   1.270
 2508SOL    HW119555   8.938   7.416   1.370
 2508SOL    HW219556   9.030   7.418   1.235
 2509SOL     OW19557   6.889   4.724   6.815
 2509SOL    HW119558   6.805   4.777   6.822
 2509SOL    HW219559   6.914   4.714   6.718
 2510SOL     OW19560   4.737   7.003   0.774
 2510SOL    HW119561   4.781   7.092   0.783
 2510SOL    HW219562   4.651   7.003   0.826
 2511SOL     OW19563   0.427   7.290   0.954
 2511SOL    HW119564   0.465   7.225   0.887
 2511SOL    HW219565   0.402   7.240   1.037
 2512SOL     OW19566   9.280   5.838   5.469
 2512SOL    HW119567   9.206   5.779   5.437
 2512SOL    HW219568   9.354   5.781   5.504
 2513SOL     OW19569   8.270   3.304   0.717
 2513SOL    HW119570   8.265   3.358   0.633
 2513SOL    HW219571   8.233   3.212   0.700
 2514SOL     OW19572   2.283   6.391   5.508
 2514SOL    HW119573   2.264   6.480   5.467
 2514SOL    HW219574   2.381   6.372   5.503
 2515SOL     OW19575   9.080   4.548   1.072
 2515SOL    HW119576   9.100   4.584   0.980
 2515SOL    HW219577   9.042   4.456   1.064
 2516SOL     OW19578   4.429   2.168   6.143
 2516SOL    HW119579   4.374   2.249   6.122
 2516SOL    HW219580   4.526   2.191   6.134
 2517SOL     OW19581   7.769   6.565   7.076
 2517SOL    HW119582   7.718   6.598   7.156
 2517SOL    HW219583   7.834   6.495   7.106
 2518SOL     OW19584   7.420   2.918   0.981
 2518SOL    HW119585   7.462   2.830   1.002
 2518SOL    HW219586   7.414   2.973   1.065
 2519SOL     OW19587   7.070   0.861   1.776
 2519SOL    HW119588   7.128   0.942   1.781
 2519SOL    HW219589   7.126   0.779   1.791
 2520SOL     OW19590   1.521   2.038   6.939
 2520SOL    HW119591   1.497   2.043   6.842
 2520SOL    HW219592   1.472   1.961   6.981
 2521SOL     OW19593   6.444   4.864   0.576
 2521SOL    HW119594   6.521   4.902   0.628
 2521SOL    HW219595   6.441   4.908   0.486
 2522SOL     OW19596   4.242   7.266   0.652
 2522SOL    HW119597   4.247   7.224   0.561
 2522SOL    HW219598   4.314   7.334   0.661
 2523SOL     OW19599   4.110   3.233   0.470
 2523SOL    HW119600   4.167   3.176   0.410
 2523SOL    HW219601   4.162   3.258   0.552
 2524SOL     OW19602   6.345   4.376   1.164
 2524SOL    HW119603   6.280   4.365   1.239
 2524SOL    HW219604   6.311   4.446   1.100
 2525SOL     OW19605   5.058   6.645   5.345
 2525SOL    HW119606   4.982   6.700   5.310
 2525SOL    HW219607   5.144   6.679   5.307
 2526SOL     OW19608   5.549   0.878   6.029
 2526SOL    HW119609   5.620   0.811   6.052
 2526SOL    HW219610   5.541   0.885   5.930
 2527SOL     OW19611   9.416   2.659   1.635
 2527SOL    HW119612   9.459   2.579   1.594
 2527SOL    HW219613   9.487   2.720   1.672
 2528SOL     OW19614   8.984   3.283   6.216
 2528SOL    HW119615   8.976   3.382   6.227
 2528SOL    HW219616   8.965   3.238   6.303
 2529SOL     OW19617   6.315   0.631   6.478
 2529SOL    HW119618   6.258   0.550   6.492
 2529SOL    HW219619   6.257   0.710   6.463
 2530SOL     OW19620   5.370   6.406   1.855
 2530SOL    HW119621   5.310   6.385   1.778
 2530SOL    HW219622   5.418   6.323   1.883
 2531SOL     OW19623   5.666   3.980   0.852
 2531SOL    HW119624   5.579   3.933   0.867
 2531SOL    HW219625   5.711   3.941   0.772
 2532SOL     OW19626   2.919   1.291   6.191
 2532SOL    HW119627   2.963   1.208   6.157
 2532SOL    HW219628   2.844   1.267   6.253
 2533SOL     OW19629   8.282   6.224   1.128
 2533SOL    HW119630   8.284   6.235   1.227
 2533SOL    HW219631   8.364   6.264   1.088
 2534SOL     OW19632   8.752   2.731   1.776
 2534SOL    HW119633   8.831   2.791   1.769
 2534SOL    HW219634   8.705   2.747   1.863
 2535SOL     OW19635   4.637   1.557   2.119
 2535SOL    HW119636   4.685   1.548   2.206
 2535SOL    HW219637   4.576   1.636   2.122
 2536SOL     OW19638   3.947   7.492   1.735
 2536SOL    HW119639   3.874   7.502   1.668
 2536SOL    HW219640   4.030   7.535   1.701
 2537SOL     OW19641   9.331   0.075   1.657
 2537SOL    HW119642   9.237   0.042   1.663
 2537SOL    HW219643   9.386   0.031   1.729
 2538SOL     OW19644   8.642   2.494   0.434
 2538SOL    HW119645   8.583   2.414   0.438
 2538SOL    HW219646   8.678   2.514   0.525
 2539SOL     OW19647   4.992   5.783   1.530
 2539SOL    HW119648   5.021   5.698   1.486
 2539SOL    HW219649   4.892   5.786   1.535
 2540SOL     OW19650   6.019   5.415   1.686
 2540SOL    HW119651   5.938   5.370   1.721
 2540SOL    HW219652   6.091   5.413   1.755
 2541SOL     OW19653   3.417   1.047   0.558
 2541SOL    HW119654   3.333   1.069   0.607
 2541SOL    HW219655   3.432   0.948   0.561
 2542SOL     OW19656   3.077   6.621   6.935
 2542SOL    HW119657   3.080   6.706   6.883
 2542SOL    HW219658   3.161   6.610   6.987
 2543SOL     OW19659   7.008   3.705   0.582
 2543SOL    HW119660   7.027   3.694   0.680
 2543SOL    HW219661   6.957   3.625   0.549
 2544SOL     OW19662   1.577   6.243   6.593
 2544SOL    HW119663   1.660   6.219   6.543
 2544SOL    HW219664   1.532   6.159   6.626
 2545SOL     OW19665   9.339   6.851   6.939
 2545SOL    HW119666   9.379   6.935   6.976
 2545SOL    HW219667   9.246   6.870   6.907
 2546SOL     OW19668   1.074   0.998   6.328
 2546SOL    HW119669   1.100   0.916   6.379
 2546SOL    HW219670   1.127   1.002   6.243
 2547SOL     OW19671   0.649   7.292   5.542
 2547SOL    HW119672   0.699   7.348   5.608
 2547SOL    HW219673   0.565   7.338   5.515
 2548SOL     OW19674   1.902   6.520   0.747
 2548SOL    HW119675   2.001   6.514   0.737
 2548SOL    HW219676   1.859   6.511   0.656
 2549SOL     OW19677   1.910   5.111   1.095
 2549SOL    HW119678   1.852   5.104   1.014
 2549SOL    HW219679   1.947   5.203   1.102
 2550SOL     OW19680   3.654   7.038   5.627
 2550SOL    HW119681   3.585   7.108   5.608
 2550SOL    HW219682   3.731   7.080   5.676
 2551SOL     OW19683   3.623   5.648   1.917
 2551SOL    HW119684   3.562   5.568   1.919
 2551SOL    HW219685   3.618   5.695   2.005
 2552SOL     OW19686   7.786   7.307   1.255
 2552SOL    HW119687   7.857   7.257   1.305
 2552SOL    HW219688   7.805   7.405   1.260
 2553SOL     OW19689   7.741   0.108   5.851
 2553SOL    HW119690   7.694   0.093   5.764
 2553SOL    HW219691   7.710   0.039   5.918
 2554SOL     OW19692   8.172   3.130   1.174
 2554SOL    HW119693   8.214   3.053   1.125
 2554SOL    HW219694   8.141   3.199   1.108
 2555SOL     OW19695   5.020   8.361   6.065
 2555SOL    HW119696   4.955   8.401   6.130
 2555SOL    HW219697   5.002   8.263   6.057
 2556SOL     OW19698   3.980   4.647   2.077
 2556SOL    HW119699   3.985   4.730   2.132
 2556SOL    HW219700   4.064   4.637   2.024
 2557SOL     OW19701   4.028   8.307   2.285
 2557SOL    HW119702   3.954   8.289   2.219
 2557SOL    HW219703   4.026   8.237   2.356
 2558SOL     OW19704   8.838   8.379   0.655
 2558SOL    HW119705   8.888   8.314   0.597
 2558SOL    HW219706   8.902   8.420   0.720
 2559SOL     OW19707   8.537   2.718   0.819
 2559SOL    HW119708   8.480   2.796   0.794
 2559SOL    HW219709   8.528   2.700   0.917
 2560SOL     OW19710   4.385   8.328   5.312
 2560SOL    HW119711   4.355   8.328   5.216
 2560SOL    HW219712   4.326   8.267   5.365
 2561SOL     OW19713   8.500   5.749   2.049
 2561SOL    HW119714   8.432   5.681   2.021
 2561SOL    HW219715   8.591   5.715   2.029
 2562SOL     OW19716   7.407   1.738   6.662
 2562SOL    HW119717   7.430   1.677   6.738
 2562SOL    HW219718   7.432   1.832   6.686
 2563SOL     OW19719   6.050   0.273   6.765
 2563SOL    HW119720   5.972   0.285   6.703
 2563SOL    HW219721   6.134   0.264   6.712
 2564SOL     OW19722   4.358   7.395   1.114
 2564SOL    HW119723   4.450   7.380   1.151
 2564SOL    HW219724   4.307   7.310   1.115
 2565SOL     OW19725   6.945   4.421   6.350
 2565SOL    HW119726   6.954   4.444   6.447
 2565SOL    HW219727   7.030   4.441   6.302
 2566SOL     OW19728   2.971   5.540   6.833
 2566SOL    HW119729   2.985   5.608   6.905
 2566SOL    HW219730   2.890   5.564   6.779
 2567SOL     OW19731   8.762   5.851   5.599
 2567SOL    HW119732   8.674   5.832   5.642
 2567SOL    HW219733   8.820   5.769   5.602
 2568SOL     OW19734   8.428   5.811   1.004
 2568SOL    HW119735   8.372   5.740   1.046
 2568SOL    HW219736   8.386   5.841   0.918
 2569SOL     OW19737   5.085   0.624   6.277
 2569SOL    HW119738   5.116   0.637   6.183
 2569SOL    HW219739   5.140   0.681   6.338
 2570SOL     OW19740   1.898   5.810   1.156
 2570SOL    HW119741   1.950   5.815   1.070
 2570SOL    HW219742   1.827   5.741   1.148
 2571SOL     OW19743   6.680   1.556   1.593
 2571SOL    HW119744   6.723   1.496   1.662
 2571SOL    HW219745   6.750   1.590   1.531
 2572SOL     OW19746   5.347   1.510   0.959
 2572SOL    HW119747   5.287   1.451   1.012
 2572SOL    HW219748   5.376   1.462   0.876
 2573SOL     OW19749   2.220   7.917   6.866
 2573SOL    HW119750   2.122   7.914   6.885
 2573SOL    HW219751   2.253   7.826   6.845
 2574SOL     OW19752   2.623   4.942   0.564
 2574SOL    HW119753   2.544   4.952   0.624
 2574SOL    HW219754   2.640   5.029   0.517
 2575SOL     OW19755   5.007   4.122   1.140
 2575SOL    HW119756   5.065   4.040   1.143
 2575SOL    HW219757   5.031   4.176   1.059
 2576SOL     OW19758   3.263   3.311   1.112
 2576SOL    HW119759   3.298   3.318   1.019
 2576SOL    HW219760   3.264   3.401   1.154
 2577SOL     OW19761   7.901   1.696   6.963
 2577SOL    HW119762   7.930   1.718   7.056
 2577SOL    HW219763   7.969   1.636   6.920
 2578SOL     OW19764   3.957   1.092   5.937
 2578SOL    HW119765   3.948   1.062   6.033
 2578SOL    HW219766   4.052   1.116   5.919
 2579SOL     OW19767   6.417   7.086   6.543
 2579SOL    HW119768   6.445   6.990   6.541
 2579SOL    HW219769   6.320   7.093   6.563
 2580SOL     OW19770   7.005   3.771   1.843
 2580SOL    HW119771   7.033   3.835   1.914
 2580SOL    HW219772   6.962   3.822   1.768
 2581SOL     OW19773   6.766   6.359   1.159
 2581SOL    HW119774   6.829   6.340   1.083
 2581SOL    HW219775   6.767   6.457   1.179
 2582SOL     OW19776   9.015   5.447   1.014
 2582SOL    HW119777   9.050   5.432   1.106
 2582SOL    HW219778   9.090   5.467   0.952
 2583SOL     OW19779   6.703   8.411   6.343
 2583SOL    HW119780   6.779   8.437   6.284
 2583SOL    HW219781   6.694   8.477   6.418
 2584SOL     OW19782   2.935   1.167   2.341
 2584SOL    HW119783   2.929   1.241   2.273
 2584SOL    HW219784   2.929   1.079   2.295
 2585SOL     OW19785   4.077   7.927   7.020
 2585SOL    HW119786   4.096   8.014   7.065
 2585SOL    HW219787   3.983   7.899   7.040
 2586SOL     OW19788   3.999   8.396   1.183
 2586SOL    HW119789   4.018   8.317   1.125
 2586SOL    HW219790   3.985   8.477   1.126
 2587SOL     OW19791   1.805   3.963   6.311
 2587SOL    HW119792   1.822   4.058   6.337
 2587SOL    HW219793   1.846   3.945   6.221
 2588SOL     OW19794   8.379   4.108   6.979
 2588SOL    HW119795   8.333   4.152   6.902
 2588SOL    HW219796   8.476   4.133   6.979
 2589SOL     OW19797   3.616   7.690   5.774
 2589SOL    HW119798   3.539   7.645   5.727
 2589SOL    HW219799   3.701   7.667   5.727
 2590SOL     OW19800   0.900   5.495   6.074
 2590SOL    HW119801   0.853   5.414   6.109
 2590SOL    HW219802   0.834   5.568   6.057
 2591SOL     OW19803   8.657   2.455   1.761
 2591SOL    HW119804   8.635   2.541   1.806
 2591SOL    HW219805   8.652   2.380   1.828
 2592SOL     OW19806   7.887   6.219   6.079
 2592SOL    HW119807   7.873   6.129   6.119
 2592SOL    HW219808   7.802   6.271   6.082
 2593SOL     OW19809   8.672   2.350   1.249
 2593SOL    HW119810   8.629   2.339   1.339
 2593SOL    HW219811   8.711   2.441   1.242
 2594SOL     OW19812   4.662   0.118   0.888
 2594SOL    HW119813   4.633   0.130   0.793
 2594SOL    HW219814   4.700   0.027   0.901
 2595SOL     OW19815   3.436   0.527   5.468
 2595SOL    HW119816   3.356   0.467   5.466
 2595SOL    HW219817   3.500   0.499   5.396
 2596SOL     OW19818   7.415   0.005   1.449
 2596SOL    HW119819   7.506   0.045   1.447
 2596SOL    HW219820   7.388  -0.014   1.543
 2597SOL     OW19821   0.707   0.088   5.769
 2597SOL    HW119822   0.686   0.170   5.714
 2597SOL    HW219823   0.779   0.036   5.723
 2598SOL     OW19824   7.467   1.549   6.825
 2598SOL    HW119825   7.551   1.532   6.878
 2598SOL    HW219826   7.407   1.470   6.832
 2599SOL     OW19827   5.305   3.617   6.073
 2599SOL    HW119828   5.362   3.552   6.023
 2599SOL    HW219829   5.304   3.704   6.024
 2600SOL     OW19830   2.876   3.704   0.500
 2600SOL    HW119831   2.830   3.626   0.544
 2600SOL    HW219832   2.939   3.671   0.430
 2601SOL     OW19833   6.988   3.077   1.103
 2601SOL    HW119834   7.045   3.072   1.021
 2601SOL    HW219835   7.023   3.148   1.164
 2602SOL     OW19836   1.077   5.664   1.916
 2602SOL    HW119837   1.114   5.745   1.961
 2602SOL    HW219838   1.002   5.691   1.855
 2603SOL     OW19839   1.302   7.590   5.442
 2603SOL    HW119840   1.331   7.631   5.356
 2603SOL    HW219841   1.208   7.558   5.434
 2604SOL     OW19842   9.543   4.050   1.575
 2604SOL    HW119843   9.453   4.065   1.616
 2604SOL    HW219844   9.596   3.987   1.633
 2605SOL     OW19845   7.432   4.290   6.258
 2605SOL    HW119846   7.511   4.230   6.272
 2605SOL    HW219847   7.439   4.335   6.169
 2606SOL     OW19848   6.077   5.822   7.115
 2606SOL    HW119849   6.095   5.724   7.110
 2606SOL    HW219850   5.981   5.839   7.095
 2607SOL     OW19851   1.877   6.321   5.188
 2607SOL    HW119852   1.898   6.225   5.166
 2607SOL    HW219853   1.916   6.380   5.118
 2608SOL     OW19854   7.296   4.465   0.656
 2608SOL    HW119855   7.210   4.472   0.706
 2608SOL    HW219856   7.370   4.442   0.719
 2609SOL     OW19857   0.151   0.503   5.806
 2609SOL    HW119858   0.144   0.405   5.821
 2609SOL    HW219859   0.176   0.520   5.710
 2610SOL     OW19860   5.990   3.759   1.681
 2610SOL    HW119861   6.067   3.732   1.739
 2610SOL    HW219862   6.009   3.733   1.586
 2611SOL     OW19863   2.419   4.974   1.455
 2611SOL    HW119864   2.476   5.049   1.424
 2611SOL    HW219865   2.431   4.961   1.553
 2612SOL     OW19866   3.795   4.214   2.431
 2612SOL    HW119867   3.895   4.218   2.426
 2612SOL    HW219868   3.767   4.206   2.526
 2613SOL     OW19869   3.974   6.985   6.930
 2613SOL    HW119870   4.072   7.007   6.935
 2613SOL    HW219871   3.959   6.894   6.969
 2614SOL     OW19872   7.489   1.613   1.153
 2614SOL    HW119873   7.435   1.530   1.135
 2614SOL    HW219874   7.449   1.664   1.229
 2615SOL     OW19875   8.474   4.056   0.741
 2615SOL    HW119876   8.541   4.124   0.714
 2615SOL    HW219877   8.509   3.965   0.721
 2616SOL     OW19878   1.632   0.412   2.220
 2616SOL    HW119879   1.719   0.456   2.240
 2616SOL    HW219880   1.569   0.479   2.180
 2617SOL     OW19881   7.002   6.311   7.098
 2617SOL    HW119882   6.988   6.399   7.053
 2617SOL    HW219883   6.924   6.291   7.157
 2618SOL     OW19884   6.994   2.680   0.881
 2618SOL    HW119885   6.975   2.644   0.790
 2618SOL    HW219886   7.019   2.605   0.942
 2619SOL     OW19887   8.241   3.564   1.128
 2619SOL    HW119888   8.144   3.577   1.146
 2619SOL    HW219889   8.280   3.648   1.090
 2620SOL     OW19890   1.633   1.609   6.654
 2620SOL    HW119891   1.533   1.614   6.666
 2620SOL    HW219892   1.675   1.695   6.681
 2621SOL     OW19893   8.004   6.569   5.258
 2621SOL    HW119894   7.987   6.471   5.267
 2621SOL    HW219895   7.929   6.611   5.208
 2622SOL     OW19896   3.310   5.569   6.066
 2622SOL    HW119897   3.211   5.555   6.061
 2622SOL    HW219898   3.330   5.665   6.086
 2623SOL     OW19899   8.266   0.558   5.324
 2623SOL    HW119900   8.230   0.503   5.249
 2623SOL    HW219901   8.364   0.574   5.309
 2624SOL     OW19902   9.146   0.620   1.785
 2624SOL    HW119903   9.162   0.555   1.860
 2624SOL    HW219904   9.054   0.657   1.791
 2625SOL     OW19905   4.680   8.240   1.727
 2625SOL    HW119906   4.608   8.177   1.698
 2625SOL    HW219907   4.694   8.230   1.825
 2626SOL     OW19908   4.642   1.292   2.056
 2626SOL    HW119909   4.619   1.232   2.133
 2626SOL    HW219910   4.634   1.388   2.085
 2627SOL     OW19911   2.391   5.266   5.640
 2627SOL    HW119912   2.368   5.170   5.624
 2627SOL    HW219913   2.360   5.321   5.563
 2628SOL     OW19914   3.494   1.751   1.765
 2628SOL    HW119915   3.574   1.775   1.821
 2628SOL    HW219916   3.415   1.804   1.796
 2629SOL     OW19917   6.897   6.633   5.179
 2629SOL    HW119918   6.863   6.551   5.132
 2629SOL    HW219919   6.997   6.635   5.175
 2630SOL     OW19920   7.818   0.066   7.046
 2630SOL    HW119921   7.730   0.026   7.072
 2630SOL    HW219922   7.806   0.164   7.032
 2631SOL     OW19923   8.993   7.065   1.754
 2631SOL    HW119924   8.966   6.981   1.802
 2631SOL    HW219925   8.982   7.143   1.815
 2632SOL     OW19926   0.985  -0.002   5.805
 2632SOL    HW119927   1.000   0.096   5.794
 2632SOL    HW219928   0.983  -0.025   5.903
 2633SOL     OW19929   5.689   0.267   1.479
 2633SOL    HW119930   5.712   0.178   1.519
 2633SOL    HW219931   5.644   0.323   1.548
 2634SOL     OW19932   7.530   3.056   0.757
 2634SOL    HW119933   7.499   2.983   0.818
 2634SOL    HW219934   7.591   3.117   0.807
 2635SOL     OW19935   8.575   6.808   1.961
 2635SOL    HW119936   8.538   6.716   1.948
 2635SOL    HW219937   8.512   6.861   2.018
 2636SOL     OW19938   0.736   2.223   6.992
 2636SOL    HW119939   0.802   2.173   7.047
 2636SOL    HW219940   0.753   2.321   7.000
 2637SOL     OW19941   5.594   0.166   5.933
 2637SOL    HW119942   5.535   0.133   6.006
 2637SOL    HW219943   5.542   0.224   5.871
 2638SOL     OW19944   8.168   5.918   1.214
 2638SOL    HW119945   8.152   5.941   1.310
 2638SOL    HW219946   8.252   5.963   1.183
 2639SOL     OW19947   5.290   2.421   0.991
 2639SOL    HW119948   5.194   2.397   0.977
 2639SOL    HW219949   5.306   2.515   0.961
 2640SOL     OW19950   5.867   2.690   1.272
 2640SOL    HW119951   5.792   2.740   1.315
 2640SOL    HW219952   5.857   2.592   1.291
 2641SOL     OW19953   6.534   6.752   6.237
 2641SOL    HW119954   6.524   6.840   6.190
 2641SOL    HW219955   6.531   6.766   6.335
 2642SOL     OW19956   8.441   5.340   7.145
 2642SOL    HW119957   8.452   5.320   7.047
 2642SOL    HW219958   8.348   5.373   7.163
 2643SOL     OW19959   7.404   7.251   1.206
 2643SOL    HW119960   7.345   7.295   1.274
 2643SOL    HW219961   7.347   7.197   1.143
 2644SOL     OW19962   6.580   1.451   6.901
 2644SOL    HW119963   6.673   1.414   6.901
 2644SOL    HW219964   6.571   1.518   6.975
 2645SOL     OW19965   1.896   1.431   0.591
 2645SOL    HW119966   1.923   1.366   0.661
 2645SOL    HW219967   1.954   1.513   0.598
 2646SOL     OW19968   6.392   8.307   1.768
 2646SOL    HW119969   6.463   8.240   1.790
 2646SOL    HW219970   6.411   8.348   1.679
 2647SOL     OW19971   4.741   2.662   0.467
 2647SOL    HW119972   4.714   2.635   0.559
 2647SOL    HW219973   4.752   2.762   0.463
 2648SOL     OW19974   7.080   5.156   0.903
 2648SOL    HW119975   7.055   5.080   0.963
 2648SOL    HW219976   7.120   5.120   0.819
 2649SOL     OW19977   3.654   6.425   1.036
 2649SOL    HW119978   3.713   6.361   1.085
 2649SOL    HW219979   3.585   6.462   1.099
 2650SOL     OW19980   1.178   2.719   6.293
 2650SOL    HW119981   1.212   2.807   6.261
 2650SOL    HW219982   1.096   2.733   6.347
 2651SOL     OW19983   2.465   1.395   5.692
 2651SOL    HW119984   2.482   1.309   5.740
 2651SOL    HW219985   2.395   1.380   5.621
 2652SOL     OW19986   4.185   8.207   5.478
 2652SOL    HW119987   4.111   8.269   5.455
 2652SOL    HW219988   4.158   8.113   5.456
 2653SOL     OW19989   5.998   6.090   5.844
 2653SOL    HW119990   5.963   6.180   5.867
 2653SOL    HW219991   5.960   6.060   5.756
 2654SOL     OW19992   1.288   5.361   1.582
 2654SOL    HW119993   1.374   5.347   1.631
 2654SOL    HW219994   1.233   5.429   1.629
 2655SOL     OW19995   9.037   7.694   1.689
 2655SOL    HW119996   9.034   7.720   1.592
 2655SOL    HW219997   8.984   7.758   1.743
 2656SOL     OW19998   6.567   3.968   6.315
 2656SOL    HW119999   6.575   3.880   6.360
 2656SOL    HW220000   6.542   3.954   6.219
 2657SOL     OW20001   6.935   3.348   0.814
 2657SOL    HW120002   6.863   3.412   0.786
 2657SOL    HW220003   7.006   3.399   0.862
 2658SOL     OW20004   8.413   3.467   1.619
 2658SOL    HW120005   8.444   3.531   1.689
 2658SOL    HW220006   8.472   3.475   1.538
 2659SOL     OW20007   6.414   7.358   6.394
 2659SOL    HW120008   6.357   7.406   6.327
 2659SOL    HW220009   6.487   7.308   6.347
 2660SOL     OW20010   3.394   3.127   7.049
 2660SOL    HW120011   3.328   3.159   7.117
 2660SOL    HW220012   3.482   3.113   7.094
 2661SOL     OW20013   5.348   2.732   0.612
 2661SOL    HW120014   5.350   2.832   0.613
 2661SOL    HW220015   5.253   2.701   0.609
 2662SOL     OW20016   8.555   8.084   6.623
 2662SOL    HW120017   8.592   7.996   6.595
 2662SOL    HW220018   8.471   8.102   6.572
 2663SOL     OW20019   0.282   6.558   4.489
 2663SOL    HW120020   0.375   6.548   4.454
 2663SOL    HW220021   0.251   6.652   4.474
 2664SOL     OW20022   0.288   6.926   5.317
 2664SOL    HW120023   0.305   6.960   5.225
 2664SOL    HW220024   0.198   6.883   5.320
 2665SOL     OW20025   8.639   7.076   6.546
 2665SOL    HW120026   8.561   7.124   6.506
 2665SOL    HW220027   8.614   6.981   6.564
 2666SOL     OW20028   6.090   2.401   0.977
 2666SOL    HW120029   6.066   2.490   1.017
 2666SOL    HW220030   6.190   2.392   0.973
 2667SOL     OW20031   1.287   4.690   6.834
 2667SOL    HW120032   1.207   4.631   6.849
 2667SOL    HW220033   1.371   4.637   6.847
 2668SOL     OW20034   9.285   2.261   0.883
 2668SOL    HW120035   9.289   2.358   0.906
 2668SOL    HW220036   9.206   2.220   0.928
 2669SOL     OW20037   3.943   7.021   0.830
 2669SOL    HW120038   3.924   6.964   0.910
 2669SOL    HW220039   4.028   6.991   0.787
 2670SOL     OW20040   6.017   2.265   1.222
 2670SOL    HW120041   6.060   2.296   1.137
 2670SOL    HW220042   6.003   2.166   1.218
 2671SOL     OW20043   0.202   7.567   0.801
 2671SOL    HW120044   0.109   7.538   0.822
 2671SOL    HW220045   0.257   7.567   0.884
 2672SOL     OW20046   2.634  -0.033   0.952
 2672SOL    HW120047   2.666   0.034   1.019
 2672SOL    HW220048   2.610  -0.118   0.999
 2673SOL     OW20049   0.444   1.909   1.837
 2673SOL    HW120050   0.478   1.842   1.904
 2673SOL    HW220051   0.503   1.989   1.837
 2674SOL     OW20052   5.346   1.899   5.800
 2674SOL    HW120053   5.310   1.990   5.781
 2674SOL    HW220054   5.431   1.885   5.749
 2675SOL     OW20055   6.883   1.668   0.677
 2675SOL    HW120056   6.823   1.592   0.651
 2675SOL    HW220057   6.977   1.633   0.690
 2676SOL     OW20058   5.270   4.184   7.118
 2676SOL    HW120059   5.335   4.247   7.076
 2676SOL    HW220060   5.318   4.119   7.177
 2677SOL     OW20061   2.579   2.300   6.388
 2677SOL    HW120062   2.566   2.209   6.425
 2677SOL    HW220063   2.528   2.366   6.442
 2678SOL     OW20064   8.093   3.077   1.421
 2678SOL    HW120065   8.150   3.095   1.341
 2678SOL    HW220066   8.132   3.000   1.472
 2679SOL     OW20067   1.067   0.885   2.018
 2679SOL    HW120068   1.146   0.825   2.024
 2679SOL    HW220069   1.073   0.955   2.090
 2680SOL     OW20070   6.347   2.771   0.567
 2680SOL    HW120071   6.397   2.844   0.612
 2680SOL    HW220072   6.391   2.749   0.480
 2681SOL     OW20073   8.093   1.801   6.308
 2681SOL    HW120074   8.082   1.735   6.234
 2681SOL    HW220075   8.007   1.809   6.358
 2682SOL     OW20076   2.301   0.688   6.496
 2682SOL    HW120077   2.322   0.695   6.399
 2682SOL    HW220078   2.382   0.713   6.549
 2683SOL     OW20079   4.294   6.283   7.160
 2683SOL    HW120080   4.360   6.238   7.101
 2683SOL    HW220081   4.341   6.344   7.224
 2684SOL     OW20082   0.259   7.528   6.134
 2684SOL    HW120083   0.307   7.509   6.220
 2684SOL    HW220084   0.305   7.602   6.085
 2685SOL     OW20085   8.490   3.167   0.856
 2685SOL    HW120086   8.423   3.241   0.855
 2685SOL    HW220087   8.578   3.200   0.821
 2686SOL     OW20088   3.043   7.293   6.635
 2686SOL    HW120089   3.032   7.369   6.698
 2686SOL    HW220090   2.963   7.287   6.575
 2687SOL     OW20091   7.565   0.595   1.098
 2687SOL    HW120092   7.520   0.536   1.165
 2687SOL    HW220093   7.551   0.691   1.123
 2688SOL     OW20094   6.453   2.906   1.596
 2688SOL    HW120095   6.439   2.914   1.694
 2688SOL    HW220096   6.445   2.996   1.553
 2689SOL     OW20097   1.614   6.921   0.662
 2689SOL    HW120098   1.673   6.916   0.582
 2689SOL    HW220099   1.576   7.014   0.670
 2690SOL     OW20100   2.870   8.266   5.873
 2690SOL    HW120101   2.927   8.186   5.853
 2690SOL    HW220102   2.858   8.273   5.972
 2691SOL     OW20103   7.774   0.947   0.679
 2691SOL    HW120104   7.727   0.892   0.748
 2691SOL    HW220105   7.779   0.896   0.593
 2692SOL     OW20106   4.127   2.170   1.212
 2692SOL    HW120107   4.164   2.227   1.139
 2692SOL    HW220108   4.122   2.223   1.297
 2693SOL     OW20109   2.679   0.361   5.672
 2693SOL    HW120110   2.759   0.312   5.707
 2693SOL    HW220111   2.696   0.391   5.578
 2694SOL     OW20112   5.794   7.952   6.154
 2694SOL    HW120113   5.864   7.893   6.196
 2694SOL    HW220114   5.834   7.999   6.075
 2695SOL     OW20115   0.146   7.913   6.487
 2695SOL    HW120116   0.106   7.996   6.449
 2695SOL    HW220117   0.112   7.834   6.435
 2696SOL     OW20118   6.665   5.309   0.755
 2696SOL    HW120119   6.651   5.256   0.672
 2696SOL    HW220120   6.577   5.325   0.800
 2697SOL     OW20121   9.430   6.542   1.863
 2697SOL    HW120122   9.446   6.450   1.829
 2697SOL    HW220123   9.360   6.540   1.935
 2698SOL     OW20124   3.977   5.268   2.479
 2698SOL    HW120125   3.988   5.169   2.471
 2698SOL    HW220126   3.887   5.294   2.442
 2699SOL     OW20127   4.881   2.211   6.919
 2699SOL    HW120128   4.875   2.112   6.920
 2699SOL    HW220129   4.812   2.249   6.980
 2700SOL     OW20130   8.518   7.730   4.911
 2700SOL    HW120131   8.556   7.677   4.836
 2700SOL    HW220132   8.421   7.710   4.921
 2701SOL     OW20133   8.837   2.222   6.182
 2701SOL    HW120134   8.743   2.256   6.178
 2701SOL    HW220135   8.839   2.135   6.231
 2702SOL     OW20136   7.785   4.130   6.634
 2702SOL    HW120137   7.695   4.173   6.625
 2702SOL    HW220138   7.854   4.201   6.647
 2703SOL     OW20139   7.675   2.559   1.446
 2703SOL    HW120140   7.751   2.505   1.483
 2703SOL    HW220141   7.673   2.648   1.491
 2704SOL     OW20142   0.949   7.971   0.811
 2704SOL    HW120143   0.895   8.042   0.856
 2704SOL    HW220144   1.032   8.012   0.772
 2705SOL     OW20145   5.489   5.905   6.988
 2705SOL    HW120146   5.560   5.938   7.051
 2705SOL    HW220147   5.523   5.911   6.894
 2706SOL     OW20148   8.359   6.330   0.720
 2706SOL    HW120149   8.425   6.312   0.793
 2706SOL    HW220150   8.295   6.400   0.751
 2707SOL     OW20151   2.855   4.822   1.678
 2707SOL    HW120152   2.865   4.880   1.597
 2707SOL    HW220153   2.800   4.742   1.655
 2708SOL     OW20154   5.399   4.013   0.570
 2708SOL    HW120155   5.483   3.995   0.519
 2708SOL    HW220156   5.349   3.928   0.583
 2709SOL     OW20157   4.063   0.327   0.949
 2709SOL    HW120158   4.095   0.418   0.976
 2709SOL    HW220159   4.137   0.279   0.901
 2710SOL     OW20160   3.765   3.526   6.609
 2710SOL    HW120161   3.823   3.606   6.594
 2710SOL    HW220162   3.813   3.444   6.577
 2711SOL     OW20163   7.860   5.856   5.809
 2711SOL    HW120164   7.794   5.930   5.824
 2711SOL    HW220165   7.848   5.820   5.716
 2712SOL     OW20166   4.350   1.027   0.995
 2712SOL    HW120167   4.338   0.958   0.923
 2712SOL    HW220168   4.415   1.096   0.964
 2713SOL     OW20169   6.408   8.291   0.756
 2713SOL    HW120170   6.335   8.230   0.785
 2713SOL    HW220171   6.371   8.383   0.740
 2714SOL     OW20172   1.621   6.356   5.574
 2714SOL    HW120173   1.592   6.261   5.557
 2714SOL    HW220174   1.673   6.390   5.495
 2715SOL     OW20175   5.160   0.273   0.436
 2715SOL    HW120176   5.201   0.186   0.463
 2715SOL    HW220177   5.220   0.318   0.370
 2716SOL     OW20178   6.988   1.616   6.782
 2716SOL    HW120179   7.013   1.591   6.689
 2716SOL    HW220180   7.065   1.598   6.843
 2717SOL     OW20181   5.844   0.528   5.072
 2717SOL    HW120182   5.757   0.510   5.026
 2717SOL    HW220183   5.875   0.621   5.051
 2718SOL     OW20184   1.768   7.605   6.314
 2718SOL    HW120185   1.711   7.573   6.239
 2718SOL    HW220186   1.723   7.681   6.360
 2719SOL     OW20187   5.829   0.869   0.763
 2719SOL    HW120188   5.839   0.776   0.728
 2719SOL    HW220189   5.733   0.897   0.759
 2720SOL     OW20190   1.672   8.201   1.694
 2720SOL    HW120191   1.578   8.194   1.725
 2720SOL    HW220192   1.688   8.135   1.620
 2721SOL     OW20193   9.280   6.786   0.839
 2721SOL    HW120194   9.193   6.737   0.851
 2721SOL    HW220195   9.265   6.884   0.853
 2722SOL     OW20196   7.017   2.075   6.889
 2722SOL    HW120197   7.024   2.156   6.830
 2722SOL    HW220198   6.924   2.040   6.885
 2723SOL     OW20199   5.242   5.853   6.483
 2723SOL    HW120200   5.148   5.822   6.502
 2723SOL    HW220201   5.291   5.865   6.569
 2724SOL     OW20202   6.809   6.285   1.415
 2724SOL    HW120203   6.800   6.264   1.317
 2724SOL    HW220204   6.718   6.303   1.453
 2725SOL     OW20205   0.466   1.664   0.839
 2725SOL    HW120206   0.372   1.690   0.819
 2725SOL    HW220207   0.495   1.706   0.925
 2726SOL     OW20208   5.798   5.836   0.937
 2726SOL    HW120209   5.854   5.802   0.861
 2726SOL    HW220210   5.789   5.764   1.006
 2727SOL     OW20211   6.871   1.420   0.969
 2727SOL    HW120212   6.875   1.322   0.953
 2727SOL    HW220213   6.953   1.463   0.932
 2728SOL     OW20214   6.086   1.533   7.090
 2728SOL    HW120215   6.076   1.624   7.050
 2728SOL    HW220216   6.036   1.529   7.177
 2729SOL     OW20217   8.482   6.866   6.628
 2729SOL    HW120218   8.529   6.786   6.591
 2729SOL    HW220219   8.450   6.846   6.721
 2730SOL     OW20220   2.072   5.682   6.734
 2730SOL    HW120221   2.106   5.736   6.811
 2730SOL    HW220222   2.113   5.591   6.736
 2731SOL     OW20223   1.713   5.217   1.888
 2731SOL    HW120224   1.648   5.146   1.860
 2731SOL    HW220225   1.806   5.182   1.879
 2732SOL     OW20226   8.856   6.100   7.057
 2732SOL    HW120227   8.805   6.174   7.102
 2732SOL    HW220228   8.947   6.093   7.098
 2733SOL     OW20229   1.703   4.997   0.582
 2733SOL    HW120230   1.605   4.991   0.567
 2733SOL    HW220231   1.751   4.981   0.495
 2734SOL     OW20232   6.963   0.031   5.807
 2734SOL    HW120233   6.983  -0.056   5.851
 2734SOL    HW220234   6.935   0.016   5.712
 2735SOL     OW20235   2.070   7.466   5.792
 2735SOL    HW120236   2.107   7.428   5.707
 2735SOL    HW220237   1.970   7.467   5.786
 2736SOL     OW20238   4.439   2.561   0.816
 2736SOL    HW120239   4.510   2.621   0.852
 2736SOL    HW220240   4.361   2.560   0.878
 2737SOL     OW20241   2.891   6.427   6.436
 2737SOL    HW120242   2.846   6.484   6.504
 2737SOL    HW220243   2.940   6.485   6.371
 2738SOL     OW20244   6.499   3.626   6.252
 2738SOL    HW120245   6.415   3.634   6.197
 2738SOL    HW220246   6.575   3.598   6.193
 2739SOL     OW20247   5.863   1.273   6.715
 2739SOL    HW120248   5.792   1.318   6.660
 2739SOL    HW220249   5.923   1.342   6.756
 2740SOL     OW20250   0.919   0.245   6.241
 2740SOL    HW120251   0.858   0.191   6.183
 2740SOL    HW220252   0.865   0.301   6.304
 2741SOL     OW20253   3.177   1.367   1.430
 2741SOL    HW120254   3.136   1.458   1.425
 2741SOL    HW220255   3.215   1.353   1.521
 2742SOL     OW20256   3.572   4.921   0.538
 2742SOL    HW120257   3.550   5.019   0.539
 2742SOL    HW220258   3.640   4.902   0.609
 2743SOL     OW20259   6.639   3.661   6.735
 2743SOL    HW120260   6.565   3.726   6.718
 2743SOL    HW220261   6.706   3.703   6.797
 2744SOL     OW20262   0.500   2.562   6.918
 2744SOL    HW120263   0.423   2.600   6.970
 2744SOL    HW220264   0.480   2.570   6.820
 2745SOL     OW20265   8.274   2.463   1.366
 2745SOL    HW120266   8.344   2.530   1.393
 2745SOL    HW220267   8.297   2.425   1.276
 2746SOL     OW20268   2.002   1.157   6.863
 2746SOL    HW120269   2.007   1.257   6.870
 2746SOL    HW220270   2.075   1.116   6.918
 2747SOL     OW20271   9.202   3.498   6.442
 2747SOL    HW120272   9.216   3.403   6.468
 2747SOL    HW220273   9.107   3.510   6.412
 2748SOL     OW20274   4.296   5.792   7.045
 2748SOL    HW120275   4.342   5.777   7.133
 2748SOL    HW220276   4.362   5.826   6.978
 2749SOL     OW20277   3.803   3.834   1.364
 2749SOL    HW120278   3.814   3.750   1.418
 2749SOL    HW220279   3.892   3.865   1.331
 2750SOL     OW20280   4.332   2.939   2.284
 2750SOL    HW120281   4.400   2.903   2.347
 2750SOL    HW220282   4.374   3.008   2.224
 2751SOL     OW20283   1.168   0.288   6.055
 2751SOL    HW120284   1.082   0.290   6.106
 2751SOL    HW220285   1.245   0.285   6.119
 2752SOL     OW20286   1.910   6.166   1.568
 2752SOL    HW120287   1.862   6.078   1.563
 2752SOL    HW220288   1.955   6.184   1.481
 2753SOL     OW20289   1.267   5.317   1.919
 2753SOL    HW120290   1.292   5.221   1.908
 2753SOL    HW220291   1.350   5.372   1.927
 2754SOL     OW20292   2.787   2.011   6.448
 2754SOL    HW120293   2.845   2.052   6.378
 2754SOL    HW220294   2.755   1.921   6.418
 2755SOL     OW20295   7.223   6.389   5.829
 2755SOL    HW120296   7.156   6.356   5.895
 2755SOL    HW220297   7.297   6.437   5.876
 2756SOL     OW20298   2.360   1.941   6.442
 2756SOL    HW120299   2.304   1.858   6.442
 2756SOL    HW220300   2.311   2.015   6.397
 2757SOL     OW20301   4.258   4.183   6.856
 2757SOL    HW120302   4.176   4.177   6.799
 2757SOL    HW220303   4.339   4.179   6.797
 2758SOL     OW20304   0.431   5.583   6.616
 2758SOL    HW120305   0.348   5.640   6.615
 2758SOL    HW220306   0.406   5.487   6.602
 2759SOL     OW20307   2.502   6.071   5.880
 2759SOL    HW120308   2.461   6.061   5.789
 2759SOL    HW220309   2.586   6.124   5.873
 2760SOL     OW20310   4.097   1.514   5.652
 2760SOL    HW120311   4.057   1.426   5.628
 2760SOL    HW220312   4.159   1.544   5.579
 2761SOL     OW20313   0.654   2.853   6.602
 2761SOL    HW120314   0.590   2.779   6.583
 2761SOL    HW220315   0.701   2.836   6.689
 2762SOL     OW20316   8.841   2.033   6.889
 2762SOL    HW120317   8.844   1.935   6.908
 2762SOL    HW220318   8.927   2.061   6.846
 2763SOL     OW20319   9.221   6.940   1.317
 2763SOL    HW120320   9.218   7.011   1.387
 2763SOL    HW220321   9.299   6.957   1.256
 2764SOL     OW20322   7.705   2.040   6.586
 2764SOL    HW120323   7.612   2.075   6.593
 2764SOL    HW220324   7.718   1.964   6.650
 2765SOL     OW20325   2.863   4.872   7.083
 2765SOL    HW120326   2.884   4.919   7.168
 2765SOL    HW220327   2.854   4.774   7.100
 2766SOL     OW20328   5.793   2.639   0.831
 2766SOL    HW120329   5.721   2.578   0.864
 2766SOL    HW220330   5.857   2.659   0.905
 2767SOL     OW20331   1.800   1.392   5.944
 2767SOL    HW120332   1.790   1.488   5.972
 2767SOL    HW220333   1.749   1.333   6.007
 2768SOL     OW20334   2.425   3.401   0.967
 2768SOL    HW120335   2.524   3.401   0.953
 2768SOL    HW220336   2.401   3.462   1.042
 2769SOL     OW20337   4.142   7.600   5.686
 2769SOL    HW120338   4.156   7.681   5.630
 2769SOL    HW220339   4.091   7.532   5.634
 2770SOL     OW20340   3.405   5.321   5.995
 2770SOL    HW120341   3.362   5.246   6.044
 2770SOL    HW220342   3.362   5.408   6.021
 2771SOL     OW20343   9.575   6.810   7.114
 2771SOL    HW120344   9.557   6.757   7.031
 2771SOL    HW220345   9.497   6.870   7.132
 2772SOL     OW20346   4.552   0.698   0.648
 2772SOL    HW120347   4.460   0.667   0.625
 2772SOL    HW220348   4.592   0.744   0.569
 2773SOL     OW20349   0.479   1.866   6.061
 2773SOL    HW120350   0.385   1.883   6.029
 2773SOL    HW220351   0.527   1.809   5.994
 2774SOL     OW20352   9.000   2.305   1.491
 2774SOL    HW120353   9.036   2.253   1.413
 2774SOL    HW220354   8.948   2.243   1.550
 2775SOL     OW20355   4.620   1.492   6.367
 2775SOL    HW120356   4.606   1.590   6.382
 2775SOL    HW220357   4.535   1.443   6.381
 2776SOL     OW20358   6.070   2.021   1.160
 2776SOL    HW120359   6.121   2.002   1.076
 2776SOL    HW220360   6.029   1.936   1.194
 2777SOL     OW20361   5.989   1.023   0.591
 2777SOL    HW120362   6.029   1.089   0.654
 2777SOL    HW220363   5.933   0.958   0.642
 2778SOL     OW20364   3.159   1.620   6.123
 2778SOL    HW120365   3.251   1.659   6.122
 2778SOL    HW220366   3.092   1.693   6.132
 2779SOL     OW20367   0.216   6.417   0.586
 2779SOL    HW120368   0.196   6.473   0.506
 2779SOL    HW220369   0.216   6.320   0.561
 2780SOL     OW20370   7.318   1.417   6.568
 2780SOL    HW120371   7.288   1.472   6.489
 2780SOL    HW220372   7.403   1.455   6.604
 2781SOL     OW20373   3.600   1.047   6.310
 2781SOL    HW120374   3.642   1.013   6.394
 2781SOL    HW220375   3.549   0.972   6.266
 2782SOL     OW20376   6.041   8.010   5.646
 2782SOL    HW120377   5.982   8.090   5.659
 2782SOL    HW220378   6.007   7.956   5.569
 2783SOL     OW20379   9.589   6.498   7.097
 2783SOL    HW120380   9.504   6.445   7.103
 2783SOL    HW220381   9.584   6.558   7.017
 2784SOL     OW20382   3.658   0.730   6.854
 2784SOL    HW120383   3.694   0.696   6.941
 2784SOL    HW220384   3.633   0.827   6.864
 2785SOL     OW20385   1.158   0.586   0.690
 2785SOL    HW120386   1.185   0.588   0.594
 2785SOL    HW220387   1.154   0.679   0.726
 2786SOL     OW20388   8.146   4.350   0.830
 2786SOL    HW120389   8.213   4.393   0.770
 2786SOL    HW220390   8.064   4.408   0.836
 2787SOL     OW20391   9.221   8.371   1.364
 2787SOL    HW120392   9.203   8.324   1.278
 2787SOL    HW220393   9.135   8.385   1.413
 2788SOL     OW20394   7.796   4.486   0.512
 2788SOL    HW120395   7.763   4.477   0.606
 2788SOL    HW220396   7.860   4.412   0.491
 2789SOL     OW20397   1.041   0.571   6.124
 2789SOL    HW120398   1.077   0.554   6.032
 2789SOL    HW220399   0.947   0.606   6.116
 2790SOL     OW20400   3.725   7.638   6.597
 2790SOL    HW120401   3.800   7.682   6.646
 2790SOL    HW220402   3.642   7.643   6.653
 2791SOL     OW20403   3.486   5.159   6.820
 2791SOL    HW120404   3.442   5.211   6.747
 2791SOL    HW220405   3.539   5.221   6.877
 2792SOL     OW20406   2.458   5.704   6.616
 2792SOL    HW120407   2.467   5.692   6.715
 2792SOL    HW220408   2.476   5.799   6.592
 2793SOL     OW20409   1.212   5.619   5.225
 2793SOL    HW120410   1.117   5.645   5.242
 2793SOL    HW220411   1.218   5.572   5.137
 2794SOL     OW20412   0.113   1.976   1.146
 2794SOL    HW120413   0.203   1.935   1.156
 2794SOL    HW220414   0.045   1.904   1.132
 2795SOL     OW20415   7.586   4.615   6.191
 2795SOL    HW120416   7.522   4.625   6.267
 2795SOL    HW220417   7.536   4.617   6.105
 2796SOL     OW20418   3.949   4.466   6.902
 2796SOL    HW120419   3.861   4.461   6.948
 2796SOL    HW220420   3.941   4.520   6.818
 2797SOL     OW20421   6.275   6.909   0.954
 2797SOL    HW120422   6.223   6.982   0.998
 2797SOL    HW220423   6.357   6.947   0.911
 2798SOL     OW20424   3.930   2.345   6.602
 2798SOL    HW120425   3.993   2.358   6.525
 2798SOL    HW220426   3.939   2.253   6.639
 2799SOL     OW20427   2.184   1.280   6.214
 2799SOL    HW120428   2.259   1.227   6.252
 2799SOL    HW220429   2.098   1.229   6.225
 2800SOL     OW20430   5.148   4.215   6.722
 2800SOL    HW120431   5.066   4.255   6.762
 2800SOL    HW220432   5.179   4.271   6.645
 2801SOL     OW20433   3.104   7.336   1.009
 2801SOL    HW120434   3.082   7.257   0.952
 2801SOL    HW220435   3.122   7.305   1.103
 2802SOL     OW20436   6.876   4.312   6.720
 2802SOL    HW120437   6.828   4.225   6.703
 2802SOL    HW220438   6.809   4.383   6.740
 2803SOL     OW20439   4.299   0.908   2.498
 2803SOL    HW120440   4.278   0.813   2.521
 2803SOL    HW220441   4.224   0.947   2.444
 2804SOL     OW20442   5.873   0.667   2.329
 2804SOL    HW120443   5.822   0.693   2.247
 2804SOL    HW220444   5.838   0.717   2.407
 2805SOL     OW20445   0.240   6.280   4.502
 2805SOL    HW120446   0.159   6.229   4.473
 2805SOL    HW220447   0.231   6.376   4.474
 2806SOL     OW20448   8.071   3.160   1.904
 2806SOL    HW120449   8.131   3.223   1.954
 2806SOL    HW220450   8.094   3.066   1.927
 2807SOL     OW20451   3.259   7.765   6.070
 2807SOL    HW120452   3.334   7.826   6.046
 2807SOL    HW220453   3.179   7.819   6.095
 2808SOL     OW20454   5.285   0.456   1.906
 2808SOL    HW120455   5.233   0.504   1.976
 2808SOL    HW220456   5.382   0.479   1.915
 2809SOL     OW20457   7.108   1.329   0.688
 2809SOL    HW120458   7.206   1.321   0.671
 2809SOL    HW220459   7.058   1.308   0.604
 2810SOL     OW20460   1.273   5.044   5.007
 2810SOL    HW120461   1.318   5.120   5.054
 2810SOL    HW220462   1.342   4.984   4.967
 2811SOL     OW20463   0.141   1.825   5.766
 2811SOL    HW120464   0.177   1.744   5.720
 2811SOL    HW220465   0.194   1.906   5.738
 2812SOL     OW20466   1.463   0.813   1.228
 2812SOL    HW120467   1.383   0.758   1.205
 2812SOL    HW220468   1.482   0.804   1.326
 2813SOL     OW20469   3.923   2.200   5.701
 2813SOL    HW120470   3.887   2.130   5.640
 2813SOL    HW220471   3.873   2.285   5.686
 2814SOL     OW20472   1.360   3.543   6.136
 2814SOL    HW120473   1.436   3.538   6.071
 2814SOL    HW220474   1.314   3.631   6.127
 2815SOL     OW20475   5.341   7.000   6.099
 2815SOL    HW120476   5.361   6.903   6.086
 2815SOL    HW220477   5.248   7.019   6.066
 2816SOL     OW20478   5.177   8.227   1.057
 2816SOL    HW120479   5.087   8.245   1.097
 2816SOL    HW220480   5.191   8.286   0.978
 2817SOL     OW20481   6.305   5.754   1.513
 2817SOL    HW120482   6.277   5.658   1.508
 2817SOL    HW220483   6.288   5.789   1.605
 2818SOL     OW20484   3.678   3.437   2.179
 2818SOL    HW120485   3.721   3.519   2.218
 2818SOL    HW220486   3.601   3.409   2.235
 2819SOL     OW20487   5.437   6.163   1.637
 2819SOL    HW120488   5.407   6.119   1.721
 2819SOL    HW220489   5.362   6.165   1.571
 2820SOL     OW20490   3.947   0.352   5.892
 2820SOL    HW120491   3.973   0.410   5.815
 2820SOL    HW220492   3.951   0.404   5.977
 2821SOL     OW20493   8.185   1.707   1.351
 2821SOL    HW120494   8.213   1.741   1.440
 2821SOL    HW220495   8.118   1.634   1.362
 2822SOL     OW20496   8.921   5.395   6.207
 2822SOL    HW120497   8.831   5.437   6.215
 2822SOL    HW220498   8.921   5.326   6.135
 2823SOL     OW20499   8.120   5.021   6.378
 2823SOL    HW120500   8.097   4.940   6.324
 2823SOL    HW220501   8.219   5.027   6.388
 2824SOL     OW20502   7.570   3.044   1.473
 2824SOL    HW120503   7.512   2.984   1.528
 2824SOL    HW220504   7.653   3.065   1.524
 2825SOL     OW20505   6.851   4.720   0.956
 2825SOL    HW120506   6.867   4.628   0.993
 2825SOL    HW220507   6.794   4.713   0.874
 2826SOL     OW20508   1.611   8.419   5.590
 2826SOL    HW120509   1.517   8.451   5.574
 2826SOL    HW220510   1.654   8.396   5.503
 2827SOL     OW20511   4.094   2.197   2.056
 2827SOL    HW120512   4.121   2.248   1.975
 2827SOL    HW220513   4.062   2.260   2.126
 2828SOL     OW20514   8.135   6.516   1.409
 2828SOL    HW120515   8.082   6.529   1.493
 2828SOL    HW220516   8.149   6.418   1.392
 2829SOL     OW20517   2.527   7.590   5.056
 2829SOL    HW120518   2.517   7.588   4.956
 2829SOL    HW220519   2.593   7.661   5.081
 2830SOL     OW20520   2.756   7.067   0.502
 2830SOL    HW120521   2.739   7.040   0.407
 2830SOL    HW220522   2.710   7.002   0.564
 2831SOL     OW20523   4.909   0.585   1.389
 2831SOL    HW120524   4.999   0.628   1.385
 2831SOL    HW220525   4.890   0.554   1.483
 2832SOL     OW20526   2.237   2.419   2.164
 2832SOL    HW120527   2.144   2.455   2.149
 2832SOL    HW220528   2.303   2.494   2.157
 2833SOL     OW20529   0.662   1.479   5.857
 2833SOL    HW120530   0.577   1.456   5.810
 2833SOL    HW220531   0.663   1.576   5.880
 2834SOL     OW20532   0.140   7.026   5.884
 2834SOL    HW120533   0.191   6.977   5.813
 2834SOL    HW220534   0.076   7.090   5.841
 2835SOL     OW20535   7.190   4.617   6.549
 2835SOL    HW120536   7.165   4.524   6.577
 2835SOL    HW220537   7.114   4.659   6.500
 2836SOL     OW20538   8.404   1.923   6.725
 2836SOL    HW120539   8.350   1.848   6.764
 2836SOL    HW220540   8.482   1.885   6.675
 2837SOL     OW20541   1.624   6.379   0.873
 2837SOL    HW120542   1.695   6.321   0.834
 2837SOL    HW220543   1.665   6.462   0.910
 2838SOL     OW20544   0.847   1.211   7.140
 2838SOL    HW120545   0.750   1.237   7.150
 2838SOL    HW220546   0.884   1.254   7.059
 2839SOL     OW20547   3.171   8.197   1.441
 2839SOL    HW120548   3.161   8.099   1.423
 2839SOL    HW220549   3.192   8.212   1.538
 2840SOL     OW20550   6.689   3.482   1.377
 2840SOL    HW120551   6.649   3.568   1.345
 2840SOL    HW220552   6.680   3.412   1.306
 2841SOL     OW20553   1.188   0.602   6.985
 2841SOL    HW120554   1.192   0.506   7.015
 2841SOL    HW220555   1.153   0.605   6.891
 2842SOL     OW20556   7.467   6.958   0.598
 2842SOL    HW120557   7.516   6.990   0.680
 2842SOL    HW220558   7.511   6.874   0.565
 2843SOL     OW20559   8.132   4.055   6.044
 2843SOL    HW120560   8.111   4.024   6.137
 2843SOL    HW220561   8.107   3.983   5.979
 2844SOL     OW20562   3.368   7.466   2.238
 2844SOL    HW120563   3.401   7.417   2.319
 2844SOL    HW220564   3.368   7.564   2.257
 2845SOL     OW20565   3.420   6.797   6.521
 2845SOL    HW120566   3.515   6.782   6.491
 2845SOL    HW220567   3.405   6.751   6.608
 2846SOL     OW20568   6.857   6.804   5.691
 2846SOL    HW120569   6.930   6.873   5.688
 2846SOL    HW220570   6.842   6.768   5.599
 2847SOL     OW20571   1.290   5.827   1.516
 2847SOL    HW120572   1.257   5.737   1.544
 2847SOL    HW220573   1.378   5.845   1.561
 2848SOL     OW20574   7.270   7.170   0.677
 2848SOL    HW120575   7.354   7.136   0.635
 2848SOL    HW220576   7.293   7.237   0.747
 2849SOL     OW20577   4.081   0.540   1.836
 2849SOL    HW120578   4.162   0.481   1.838
 2849SOL    HW220579   4.110   0.636   1.828
 2850SOL     OW20580   8.045   2.973   6.764
 2850SOL    HW120581   8.006   3.054   6.809
 2850SOL    HW220582   7.976   2.933   6.703
 2851SOL     OW20583   8.651   5.966   1.160
 2851SOL    HW120584   8.606   5.905   1.095
 2851SOL    HW220585   8.745   5.984   1.129
 2852SOL     OW20586   5.278   8.081   2.488
 2852SOL    HW120587   5.363   8.116   2.526
 2852SOL    HW220588   5.277   7.981   2.495
 2853SOL     OW20589   1.825   2.391   6.678
 2853SOL    HW120590   1.726   2.391   6.664
 2853SOL    HW220591   1.849   2.460   6.746
 2854SOL     OW20592   8.870  -0.063   6.290
 2854SOL    HW120593   8.857  -0.112   6.376
 2854SOL    HW220594   8.927   0.018   6.306
 2855SOL     OW20595   1.868   8.098   0.913
 2855SOL    HW120596   1.844   8.195   0.919
 2855SOL    HW220597   1.854   8.055   1.002
 2856SOL     OW20598   8.701   2.694   1.523
 2856SOL    HW120599   8.740   2.680   1.614
 2856SOL    HW220600   8.775   2.706   1.457
 2857SOL     OW20601   1.621   2.348   5.635
 2857SOL    HW120602   1.576   2.271   5.590
 2857SOL    HW220603   1.701   2.375   5.582
 2858SOL     OW20604   6.586   1.807   5.778
 2858SOL    HW120605   6.622   1.715   5.795
 2858SOL    HW220606   6.487   1.805   5.781
 2859SOL     OW20607   4.497   0.812   1.822
 2859SOL    HW120608   4.401   0.786   1.826
 2859SOL    HW220609   4.508   0.904   1.860
 2860SOL     OW20610   6.250   6.128   5.903
 2860SOL    HW120611   6.295   6.101   5.988
 2860SOL    HW220612   6.157   6.092   5.902
 2861SOL     OW20613   9.443   1.099   5.993
 2861SOL    HW120614   9.379   1.025   6.015
 2861SOL    HW220615   9.535   1.073   6.023
 2862SOL     OW20616   5.362   7.999   0.655
 2862SOL    HW120617   5.450   8.044   0.670
 2862SOL    HW220618   5.314   8.043   0.579
 2863SOL     OW20619   2.565   4.084   7.113
 2863SOL    HW120620   2.501   4.044   7.179
 2863SOL    HW220621   2.514   4.119   7.034
 2864SOL     OW20622   1.345   3.027   1.363
 2864SOL    HW120623   1.384   3.101   1.417
 2864SOL    HW220624   1.290   3.064   1.289
 2865SOL     OW20625   8.382   2.143   0.985
 2865SOL    HW120626   8.389   2.210   0.912
 2865SOL    HW220627   8.466   2.090   0.990
 2866SOL     OW20628   1.321   2.437   0.640
 2866SOL    HW120629   1.301   2.450   0.737
 2866SOL    HW220630   1.285   2.349   0.610
 2867SOL     OW20631   4.668   0.238   5.920
 2867SOL    HW120632   4.728   0.317   5.910
 2867SOL    HW220633   4.635   0.209   5.830
 2868SOL     OW20634   6.773   1.587   2.271
 2868SOL    HW120635   6.765   1.507   2.331
 2868SOL    HW220636   6.693   1.645   2.282
 2869SOL     OW20637   7.360   2.644   1.507
 2869SOL    HW120638   7.435   2.709   1.491
 2869SOL    HW220639   7.306   2.674   1.586
 2870SOL     OW20640   1.118   2.823   0.747
 2870SOL    HW120641   1.168   2.814   0.661
 2870SOL    HW220642   1.136   2.744   0.805
 2871SOL     OW20643   1.655   0.015   2.039
 2871SOL    HW120644   1.594  -0.063   2.052
 2871SOL    HW220645   1.750  -0.014   2.051
 2872SOL     OW20646   3.238   4.765   1.592
 2872SOL    HW120647   3.249   4.721   1.504
 2872SOL    HW220648   3.185   4.706   1.653
 2873SOL     OW20649   5.484   4.791   6.139
 2873SOL    HW120650   5.471   4.799   6.238
 2873SOL    HW220651   5.396   4.803   6.093
 2874SOL     OW20652   5.302   6.804   6.727
 2874SOL    HW120653   5.358   6.754   6.793
 2874SOL    HW220654   5.283   6.746   6.649
 2875SOL     OW20655   6.795   2.230   1.689
 2875SOL    HW120656   6.740   2.146   1.692
 2875SOL    HW220657   6.736   2.308   1.669
 2876SOL     OW20658   2.233   6.349   6.230
 2876SOL    HW120659   2.318   6.314   6.270
 2876SOL    HW220660   2.208   6.292   6.151
 2877SOL     OW20661   2.937   0.998   0.870
 2877SOL    HW120662   2.855   0.941   0.866
 2877SOL    HW220663   3.017   0.939   0.885
 2878SOL     OW20664   8.681   6.678   6.907
 2878SOL    HW120665   8.712   6.766   6.870
 2878SOL    HW220666   8.601   6.693   6.965
 2879SOL     OW20667   7.371   1.281   0.601
 2879SOL    HW120668   7.415   1.331   0.526
 2879SOL    HW220669   7.428   1.286   0.683
 2880SOL     OW20670   4.033   6.908   6.569
 2880SOL    HW120671   4.080   6.928   6.483
 2880SOL    HW220672   3.943   6.952   6.568
 2881SOL     OW20673   8.921   5.492   6.705
 2881SOL    HW120674   8.929   5.587   6.736
 2881SOL    HW220675   8.953   5.486   6.610
 2882SOL     OW20676   4.504   6.911   7.071
 2882SOL    HW120677   4.481   6.844   7.000
 2882SOL    HW220678   4.496   7.003   7.034
 2883SOL     OW20679   4.992   6.160   6.773
 2883SOL    HW120680   4.942   6.089   6.723
 2883SOL    HW220681   4.930   6.210   6.833
 2884SOL     OW20682   5.574   0.472   4.994
 2884SOL    HW120683   5.554   0.406   5.066
 2884SOL    HW220684   5.526   0.445   4.910
 2885SOL     OW20685   0.677   5.748   1.387
 2885SOL    HW120686   0.722   5.837   1.381
 2885SOL    HW220687   0.648   5.731   1.481
 2886SOL     OW20688   7.066   5.652   2.011
 2886SOL    HW120689   6.970   5.667   2.037
 2886SOL    HW220690   7.126   5.683   2.084
 2887SOL     OW20691   0.346   8.030   5.938
 2887SOL    HW120692   0.329   8.111   5.881
 2887SOL    HW220693   0.345   8.055   6.034
 2888SOL     OW20694   2.698   2.208   7.081
 2888SOL    HW120695   2.635   2.199   7.004
 2888SOL    HW220696   2.656   2.167   7.162
 2889SOL     OW20697   2.257   6.246   7.153
 2889SOL    HW120698   2.344   6.229   7.108
 2889SOL    HW220699   2.263   6.219   7.249
 2890SOL     OW20700   8.036   6.880   6.186
 2890SOL    HW120701   8.067   6.787   6.205
 2890SOL    HW220702   8.116   6.938   6.168
 2891SOL     OW20703   4.094   7.508   6.464
 2891SOL    HW120704   4.178   7.457   6.480
 2891SOL    HW220705   4.113   7.606   6.468
 2892SOL     OW20706   6.283   5.182   6.514
 2892SOL    HW120707   6.355   5.127   6.472
 2892SOL    HW220708   6.196   5.165   6.466
 2893SOL     OW20709   4.890   1.349   5.803
 2893SOL    HW120710   4.797   1.314   5.814
 2893SOL    HW220711   4.889   1.428   5.742
 2894SOL     OW20712   4.342   3.199   6.113
 2894SOL    HW120713   4.329   3.224   6.017
 2894SOL    HW220714   4.351   3.282   6.168
 2895SOL     OW20715   8.647   4.248   0.574
 2895SOL    HW120716   8.664   4.346   0.562
 2895SOL    HW220717   8.731   4.204   0.608
 2896SOL     OW20718   4.378   6.085   6.575
 2896SOL    HW120719   4.332   6.106   6.662
 2896SOL    HW220720   4.321   6.023   6.521
 2897SOL     OW20721   6.665   7.070   5.478
 2897SOL    HW120722   6.750   7.056   5.427
 2897SOL    HW220723   6.610   6.986   5.474
 2898SOL     OW20724   1.515   3.714   1.745
 2898SOL    HW120725   1.452   3.677   1.677
 2898SOL    HW220726   1.572   3.640   1.782
 2899SOL     OW20727   5.787   7.318   5.555
 2899SOL    HW120728   5.831   7.408   5.548
 2899SOL    HW220729   5.709   7.314   5.493
 2900SOL     OW20730   8.362   4.422   1.672
 2900SOL    HW120731   8.289   4.356   1.653
 2900SOL    HW220732   8.322   4.513   1.684
 2901SOL     OW20733   2.679   3.907   1.130
 2901SOL    HW120734   2.751   3.889   1.063
 2901SOL    HW220735   2.590   3.892   1.088
 2902SOL     OW20736   7.562   6.278   6.426
 2902SOL    HW120737   7.598   6.352   6.368
 2902SOL    HW220738   7.562   6.192   6.375
 2903SOL     OW20739   1.055   0.526   6.407
 2903SOL    HW120740   1.085   0.531   6.312
 2903SOL    HW220741   1.099   0.449   6.452
 2904SOL     OW20742   5.014   1.329   6.855
 2904SOL    HW120743   5.096   1.304   6.908
 2904SOL    HW220744   4.963   1.400   6.903
 2905SOL     OW20745   2.690   2.789   1.749
 2905SOL    HW120746   2.767   2.852   1.753
 2905SOL    HW220747   2.719   2.703   1.705
 2906SOL     OW20748   8.854   3.559   0.809
 2906SOL    HW120749   8.915   3.481   0.826
 2906SOL    HW220750   8.794   3.536   0.732
 2907SOL     OW20751   6.895   4.643   7.070
 2907SOL    HW120752   6.911   4.683   6.980
 2907SOL    HW220753   6.891   4.543   7.061
 2908SOL     OW20754   1.027   2.642   1.938
 2908SOL    HW120755   0.934   2.635   1.974
 2908SOL    HW220756   1.093   2.615   2.009
 2909SOL     OW20757   4.824   4.048   5.739
 2909SOL    HW120758   4.746   3.988   5.722
 2909SOL    HW220759   4.895   3.999   5.789
 2910SOL     OW20760   8.732   7.267   0.624
 2910SOL    HW120761   8.773   7.284   0.534
 2910SOL    HW220762   8.684   7.179   0.623
 2911SOL     OW20763   7.979   7.212   1.414
 2911SOL    HW120764   7.984   7.287   1.479
 2911SOL    HW220765   8.070   7.195   1.376
 2912SOL     OW20766   5.836   3.291   1.686
 2912SOL    HW120767   5.917   3.320   1.737
 2912SOL    HW220768   5.796   3.211   1.731
 2913SOL     OW20769   8.393   7.683   5.416
 2913SOL    HW120770   8.341   7.757   5.374
 2913SOL    HW220771   8.461   7.720   5.478
 2914SOL     OW20772   1.712   0.384   6.331
 2914SOL    HW120773   1.663   0.428   6.256
 2914SOL    HW220774   1.681   0.422   6.418
 2915SOL     OW20775   4.844   5.415   2.042
 2915SOL    HW120776   4.798   5.355   2.107
 2915SOL    HW220777   4.798   5.504   2.039
 2916SOL     OW20778   9.247   2.674   1.400
 2916SOL    HW120779   9.302   2.701   1.479
 2916SOL    HW220780   9.271   2.581   1.373
 2917SOL     OW20781   4.252   4.741   1.620
 2917SOL    HW120782   4.184   4.673   1.592
 2917SOL    HW220783   4.335   4.730   1.566
 2918SOL     OW20784   6.406   1.514   1.786
 2918SOL    HW120785   6.325   1.481   1.738
 2918SOL    HW220786   6.462   1.568   1.723
 2919SOL     OW20787   3.458   6.109   1.692
 2919SOL    HW120788   3.360   6.121   1.712
 2919SOL    HW220789   3.497   6.041   1.754
 2920SOL     OW20790   8.739   6.080   5.726
 2920SOL    HW120791   8.705   6.055   5.817
 2920SOL    HW220792   8.762   5.997   5.675
 2921SOL     OW20793   4.531   5.993   1.567
 2921SOL    HW120794   4.504   6.077   1.612
 2921SOL    HW220795   4.461   5.923   1.579
 2922SOL     OW20796   7.512   5.937   1.561
 2922SOL    HW120797   7.527   5.999   1.484
 2922SOL    HW220798   7.577   5.958   1.634
 2923SOL     OW20799   8.275   4.252   6.761
 2923SOL    HW120800   8.346   4.224   6.697
 2923SOL    HW220801   8.189   4.266   6.712
 2924SOL     OW20802   0.944   6.718   5.754
 2924SOL    HW120803   0.869   6.757   5.701
 2924SOL    HW220804   1.000   6.792   5.792
 2925SOL     OW20805   7.642   5.600   1.588
 2925SOL    HW120806   7.625   5.551   1.673
 2925SOL    HW220807   7.732   5.643   1.591
 2926SOL     OW20808   5.493   4.850   1.360
 2926SOL    HW120809   5.533   4.761   1.334
 2926SOL    HW220810   5.563   4.921   1.351
 2927SOL     OW20811   4.145   6.656   5.763
 2927SOL    HW120812   4.078   6.701   5.821
 2927SOL    HW220813   4.137   6.557   5.773
 2928SOL     OW20814   4.334   0.196   0.949
 2928SOL    HW120815   4.362   0.181   1.044
 2928SOL    HW220816   4.290   0.114   0.914
 2929SOL     OW20817   5.042   8.146   6.589
 2929SOL    HW120818   5.127   8.196   6.607
 2929SOL    HW220819   5.006   8.109   6.675
 2930SOL     OW20820   0.337   5.441   0.666
 2930SOL    HW120821   0.241   5.412   0.664
 2930SOL    HW220822   0.392   5.369   0.709
 2931SOL     OW20823   0.604   8.418   6.854
 2931SOL    HW120824   0.538   8.346   6.833
 2931SOL    HW220825   0.695   8.378   6.860
 2932SOL     OW20826   2.360   2.491   6.102
 2932SOL    HW120827   2.424   2.550   6.150
 2932SOL    HW220828   2.279   2.477   6.158
 2933SOL     OW20829   5.131  -0.032   0.933
 2933SOL    HW120830   5.120   0.010   1.023
 2933SOL    HW220831   5.041  -0.042   0.891
 2934SOL     OW20832   0.297   4.812   1.219
 2934SOL    HW120833   0.320   4.826   1.315
 2934SOL    HW220834   0.365   4.857   1.161
 2935SOL     OW20835   7.277   7.902   6.693
 2935SOL    HW120836   7.263   7.998   6.670
 2935SOL    HW220837   7.332   7.858   6.622
 2936SOL     OW20838   0.988   2.036   6.128
 2936SOL    HW120839   1.072   2.000   6.170
 2936SOL    HW220840   1.013   2.102   6.057
 2937SOL     OW20841   6.599   4.356   6.746
 2937SOL    HW120842   6.535   4.335   6.820
 2937SOL    HW220843   6.570   4.310   6.663
 2938SOL     OW20844   1.194   5.622   1.662
 2938SOL    HW120845   1.294   5.624   1.660
 2938SOL    HW220846   1.162   5.650   1.753
 2939SOL     OW20847   3.658   4.230   1.102
 2939SOL    HW120848   3.663   4.162   1.176
 2939SOL    HW220849   3.748   4.237   1.058
 2940SOL     OW20850   8.662   0.775   5.988
 2940SOL    HW120851   8.568   0.809   5.988
 2940SOL    HW220852   8.685   0.741   5.896
 2941SOL     OW20853   0.158   5.397   5.489
 2941SOL    HW120854   0.238   5.354   5.447
 2941SOL    HW220855   0.091   5.327   5.513
 2942SOL     OW20856   4.409   7.986   0.526
 2942SOL    HW120857   4.496   7.961   0.484
 2942SOL    HW220858   4.423   8.006   0.623
 2943SOL     OW20859   3.155   6.334   0.711
 2943SOL    HW120860   3.205   6.385   0.781
 2943SOL    HW220861   3.083   6.279   0.754
 2944SOL     OW20862   1.593   6.916   4.907
 2944SOL    HW120863   1.527   6.877   4.843
 2944SOL    HW220864   1.569   7.011   4.927
 2945SOL     OW20865   8.698   2.310   0.791
 2945SOL    HW120866   8.600   2.322   0.810
 2945SOL    HW220867   8.734   2.391   0.746
 2946SOL     OW20868   2.052   1.884   1.308
 2946SOL    HW120869   2.001   1.922   1.385
 2946SOL    HW220870   2.004   1.804   1.273
 2947SOL     OW20871   7.098   4.020   5.828
 2947SOL    HW120872   7.112   3.921   5.826
 2947SOL    HW220873   7.183   4.065   5.853
 2948SOL     OW20874   9.592   3.830   0.894
 2948SOL    HW120875   9.540   3.815   0.811
 2948SOL    HW220876   9.557   3.910   0.942
 2949SOL     OW20877   2.235   4.929   0.930
 2949SOL    HW120878   2.156   4.868   0.941
 2949SOL    HW220879   2.289   4.929   1.015
 2950SOL     OW20880   3.753   6.372   1.842
 2950SOL    HW120881   3.851   6.380   1.860
 2950SOL    HW220882   3.703   6.381   1.928
 2951SOL     OW20883   2.243   1.336   5.568
 2951SOL    HW120884   2.213   1.417   5.517
 2951SOL    HW220885   2.243   1.256   5.508
 2952SOL     OW20886   6.088   7.652   0.635
 2952SOL    HW120887   6.017   7.585   0.614
 2952SOL    HW220888   6.164   7.642   0.570
 2953SOL     OW20889   8.832   7.141   5.648
 2953SOL    HW120890   8.831   7.056   5.595
 2953SOL    HW220891   8.831   7.120   5.746
 2954SOL     OW20892   7.959   7.786   6.857
 2954SOL    HW120893   7.869   7.809   6.818
 2954SOL    HW220894   7.953   7.785   6.957
 2955SOL     OW20895   5.921   7.760   1.356
 2955SOL    HW120896   5.923   7.739   1.453
 2955SOL    HW220897   5.905   7.857   1.343
 2956SOL     OW20898   4.478   0.598   2.700
 2956SOL    HW120899   4.382   0.612   2.724
 2956SOL    HW220900   4.515   0.681   2.659
 2957SOL     OW20901   1.976   7.970   6.939
 2957SOL    HW120902   2.014   8.023   7.015
 2957SOL    HW220903   1.887   7.933   6.966
 2958SOL     OW20904   1.092   7.798   0.954
 2958SOL    HW120905   1.025   7.851   0.901
 2958SOL    HW220906   1.181   7.843   0.948
 2959SOL     OW20907   2.825   3.994   1.858
 2959SOL    HW120908   2.914   4.038   1.848
 2959SOL    HW220909   2.834   3.914   1.918
 2960SOL     OW20910   1.667   3.172   6.123
 2960SOL    HW120911   1.702   3.216   6.206
 2960SOL    HW220912   1.667   3.238   6.047
 2961SOL     OW20913   6.064   6.545   1.802
 2961SOL    HW120914   6.122   6.608   1.750
 2961SOL    HW220915   5.976   6.589   1.821
 2962SOL     OW20916   0.189   4.737   0.606
 2962SOL    HW120917   0.232   4.670   0.545
 2962SOL    HW220918   0.214   4.830   0.576
 2963SOL     OW20919   3.482   0.054   6.528
 2963SOL    HW120920   3.570   0.021   6.562
 2963SOL    HW220921   3.411  -0.014   6.548
 2964SOL     OW20922   4.642   5.503   1.668
 2964SOL    HW120923   4.655   5.495   1.569
 2964SOL    HW220924   4.708   5.443   1.715
 2965SOL     OW20925   7.252   1.008   6.765
 2965SOL    HW120926   7.178   0.943   6.746
 2965SOL    HW220927   7.270   1.011   6.863
 2966SOL     OW20928   4.124   6.246   0.617
 2966SOL    HW120929   4.051   6.187   0.583
 2966SOL    HW220930   4.193   6.259   0.546
 2967SOL     OW20931   2.982   1.672   1.016
 2967SOL    HW120932   3.009   1.669   1.112
 2967SOL    HW220933   3.057   1.709   0.962
 2968SOL     OW20934   7.227   3.278   5.754
 2968SOL    HW120935   7.228   3.373   5.723
 2968SOL    HW220936   7.305   3.230   5.716
 2969SOL     OW20937   1.126   0.092   6.348
 2969SOL    HW120938   1.099   0.033   6.424
 2969SOL    HW220939   1.044   0.120   6.297
 2970SOL     OW20940   5.553   7.354   6.797
 2970SOL    HW120941   5.582   7.324   6.706
 2970SOL    HW220942   5.488   7.288   6.835
 2971SOL     OW20943   8.069   6.576   6.229
 2971SOL    HW120944   8.164   6.560   6.258
 2971SOL    HW220945   8.009   6.512   6.276
 2972SOL     OW20946   8.516   3.704   6.344
 2972SOL    HW120947   8.490   3.764   6.268
 2972SOL    HW220948   8.434   3.678   6.396
 2973SOL     OW20949   8.685   5.118   6.419
 2973SOL    HW120950   8.678   5.056   6.497
 2973SOL    HW220951   8.764   5.093   6.363
 2974SOL     OW20952   5.340   7.711   1.405
 2974SOL    HW120953   5.282   7.680   1.481
 2974SOL    HW220954   5.304   7.674   1.319
 2975SOL     OW20955   2.228   6.001   1.804
 2975SOL    HW120956   2.261   6.068   1.870
 2975SOL    HW220957   2.294   5.926   1.795
 2976SOL     OW20958   0.821   8.385   6.471
 2976SOL    HW120959   0.812   8.286   6.483
 2976SOL    HW220960   0.905   8.415   6.518
 2977SOL     OW20961   5.345   4.923   1.598
 2977SOL    HW120962   5.391   5.011   1.604
 2977SOL    HW220963   5.399   4.861   1.541
 2978SOL     OW20964   2.058   8.086   1.323
 2978SOL    HW120965   2.058   7.995   1.281
 2978SOL    HW220966   2.042   8.078   1.421
 2979SOL     OW20967   6.579   5.524   6.604
 2979SOL    HW120968   6.589   5.520   6.504
 2979SOL    HW220969   6.568   5.431   6.640
 2980SOL     OW20970   4.895   1.473   5.168
 2980SOL    HW120971   4.833   1.452   5.243
 2980SOL    HW220972   4.861   1.553   5.118
 2981SOL     OW20973   2.785   6.154   5.876
 2981SOL    HW120974   2.845   6.102   5.937
 2981SOL    HW220975   2.799   6.124   5.782
 2982SOL     OW20976   1.446   0.502   0.581
 2982SOL    HW120977   1.421   0.409   0.554
 2982SOL    HW220978   1.461   0.505   0.680
 2983SOL     OW20979   6.010   4.437   6.045
 2983SOL    HW120980   5.918   4.443   6.006
 2983SOL    HW220981   6.004   4.401   6.138
 2984SOL     OW20982   3.982   1.767   5.764
 2984SOL    HW120983   3.997   1.852   5.713
 2984SOL    HW220984   4.025   1.691   5.715
 2985SOL     OW20985   4.898   6.767   0.811
 2985SOL    HW120986   4.912   6.690   0.750
 2985SOL    HW220987   4.825   6.826   0.776
 2986SOL     OW20988   2.036   5.826   0.929
 2986SOL    HW120989   1.996   5.850   0.840
 2986SOL    HW220990   2.125   5.872   0.938
 2987SOL     OW20991   4.285   4.124   2.142
 2987SOL    HW120992   4.368   4.090   2.099
 2987SOL    HW220993   4.267   4.072   2.225
 2988SOL     OW20994   8.610   3.839   6.962
 2988SOL    HW120995   8.651   3.797   7.043
 2988SOL    HW220996   8.652   3.928   6.946
 2989SOL     OW20997   4.371   0.333   0.534
 2989SOL    HW120998   4.414   0.362   0.449
 2989SOL    HW220999   4.404   0.390   0.609
 2990SOL     OW21000   5.279   6.298   5.782
 2990SOL    HW121001   5.268   6.261   5.875
 2990SOL    HW221002   5.367   6.346   5.776
 2991SOL     OW21003   5.772   4.428   1.412
 2991SOL    HW121004   5.768   4.357   1.341
 2991SOL    HW221005   5.824   4.394   1.490
 2992SOL     OW21006   7.375   7.832   0.808
 2992SOL    HW121007   7.301   7.803   0.747
 2992SOL    HW221008   7.384   7.765   0.883
 2993SOL     OW21009   6.999   4.357   0.821
 2993SOL    HW121010   7.093   4.326   0.836
 2993SOL    HW221011   6.959   4.305   0.745
 2994SOL     OW21012   2.190   3.338   6.409
 2994SOL    HW121013   2.267   3.391   6.445
 2994SOL    HW221014   2.209   3.313   6.314
 2995SOL     OW21015   0.946   0.413   2.225
 2995SOL    HW121016   0.940   0.513   2.216
 2995SOL    HW221017   1.035   0.389   2.263
 2996SOL     OW21018   4.911   1.638   6.760
 2996SOL    HW121019   4.843   1.703   6.727
 2996SOL    HW221020   4.997   1.686   6.781
 2997SOL     OW21021   4.001   5.667   1.348
 2997SOL    HW121022   4.027   5.757   1.314
 2997SOL    HW221023   3.930   5.628   1.290
 2998SOL     OW21024   3.762   7.185   6.857
 2998SOL    HW121025   3.692   7.154   6.921
 2998SOL    HW221026   3.852   7.158   6.892
 2999SOL     OW21027   1.637   2.252   0.676
 2999SOL    HW121028   1.631   2.296   0.586
 2999SOL    HW221029   1.703   2.301   0.733
 3000SOL     OW21030   5.275   1.410   6.308
 3000SOL    HW121031   5.332   1.473   6.256
 3000SOL    HW221032   5.220   1.355   6.245
 3001SOL     OW21033   6.855   0.948   1.225
 3001SOL    HW121034   6.875   0.917   1.132
 3001SOL    HW221035   6.757   0.944   1.241
 3002SOL     OW21036   5.531   5.998   0.872
 3002SOL    HW121037   5.615   5.958   0.908
 3002SOL    HW221038   5.552   6.054   0.792
 3003SOL     OW21039   2.177   2.222   0.851
 3003SOL    HW121040   2.212   2.225   0.758
 3003SOL    HW221041   2.246   2.180   0.911
 3004SOL     OW21042   0.943   6.217   0.816
 3004SOL    HW121043   1.003   6.189   0.891
 3004SOL    HW221044   0.937   6.317   0.814
 3005SOL     OW21045   6.986   7.435   5.831
 3005SOL    HW121046   6.947   7.399   5.746
 3005SOL    HW221047   7.037   7.518   5.811
 3006SOL     OW21048   8.602   1.328   6.963
 3006SOL    HW121049   8.560   1.317   7.053
 3006SOL    HW221050   8.574   1.252   6.904
 3007SOL     OW21051   3.999   7.432   1.434
 3007SOL    HW121052   3.910   7.461   1.469
 3007SOL    HW221053   3.991   7.413   1.336
 3008SOL     OW21054   0.218   6.883   6.581
 3008SOL    HW121055   0.235   6.944   6.658
 3008SOL    HW221056   0.175   6.799   6.614
 3009SOL     OW21057   4.566   7.185   7.035
 3009SOL    HW121058   4.601   7.247   7.105
 3009SOL    HW221059   4.550   7.237   6.950
 3010SOL     OW21060   3.876   0.008   1.420
 3010SOL    HW121061   3.946   0.078   1.432
 3010SOL    HW221062   3.879  -0.027   1.326
 3011SOL     OW21063   5.720   7.626   6.382
 3011SOL    HW121064   5.663   7.657   6.306
 3011SOL    HW221065   5.662   7.602   6.460
 3012SOL     OW21066   7.720   0.320   7.029
 3012SOL    HW121067   7.649   0.284   7.090
 3012SOL    HW221068   7.678   0.353   6.945
 3013SOL     OW21069   6.169   3.986   0.504
 3013SOL    HW121070   6.117   4.006   0.421
 3013SOL    HW221071   6.174   4.068   0.561
 3014SOL     OW21072   6.137   8.346   5.260
 3014SOL    HW121073   6.107   8.305   5.174
 3014SOL    HW221074   6.141   8.446   5.249
 3015SOL     OW21075   4.526   2.225   6.501
 3015SOL    HW121076   4.545   2.312   6.457
 3015SOL    HW221077   4.432   2.196   6.480
 3016SOL     OW21078   3.293   6.589   7.074
 3016SOL    HW121079   3.363   6.518   7.061
 3016SOL    HW221080   3.253   6.580   7.166
 3017SOL     OW21081   0.862   3.008   5.989
 3017SOL    HW121082   0.819   3.009   5.898
 3017SOL    HW221083   0.961   3.017   5.979
 3018SOL     OW21084   4.192   2.793   6.534
 3018SOL    HW121085   4.291   2.784   6.539
 3018SOL    HW221086   4.167   2.838   6.448
 3019SOL     OW21087   5.080   3.989   7.044
 3019SOL    HW121088   5.155   4.053   7.057
 3019SOL    HW221089   4.999   4.038   7.011
 3020SOL     OW21090   2.837   7.871   5.833
 3020SOL    HW121091   2.770   7.892   5.762
 3020SOL    HW221092   2.873   7.779   5.818
 3021SOL     OW21093   6.745   1.946   7.112
 3021SOL    HW121094   6.701   2.030   7.081
 3021SOL    HW221095   6.789   1.901   7.034
 3022SOL     OW21096   2.884   0.630   7.136
 3022SOL    HW121097   2.846   0.694   7.069
 3022SOL    HW221098   2.954   0.677   7.191
 3023SOL     OW21099   8.480   5.835   5.680
 3023SOL    HW121100   8.496   5.750   5.629
 3023SOL    HW221101   8.409   5.888   5.634
 3024SOL     OW21102   6.026   3.213   2.607
 3024SOL    HW121103   6.079   3.167   2.678
 3024SOL    HW221104   5.944   3.160   2.586
 3025SOL     OW21105   8.402   3.928   6.617
 3025SOL    HW121106   8.367   3.980   6.539
 3025SOL    HW221107   8.332   3.924   6.688
 3026SOL     OW21108   9.337   4.260   6.376
 3026SOL    HW121109   9.309   4.272   6.281
 3026SOL    HW221110   9.383   4.172   6.387
 3027SOL     OW21111   6.957   8.286   5.916
 3027SOL    HW121112   7.000   8.198   5.937
 3027SOL    HW221113   6.869   8.292   5.963
 3028SOL     OW21114   3.821   4.857   1.306
 3028SOL    HW121115   3.789   4.833   1.214
 3028SOL    HW221116   3.906   4.806   1.326
 3029SOL     OW21117   6.923   2.610   0.625
 3029SOL    HW121118   6.936   2.684   0.559
 3029SOL    HW221119   6.903   2.525   0.577
 3030SOL     OW21120   2.635   5.961   6.270
 3030SOL    HW121121   2.698   5.971   6.193
 3030SOL    HW221122   2.542   5.986   6.240
 3031SOL     OW21123   6.159   1.499   1.621
 3031SOL    HW121124   6.098   1.543   1.687
 3031SOL    HW221125   6.155   1.548   1.534
 3032SOL     OW21126   3.241   5.612   6.742
 3032SOL    HW121127   3.255   5.599   6.840
 3032SOL    HW221128   3.167   5.551   6.711
 3033SOL     OW21129   0.641   1.734   5.861
 3033SOL    HW121130   0.666   1.816   5.913
 3033SOL    HW221131   0.615   1.760   5.768
 3034SOL     OW21132   7.249   4.653   5.714
 3034SOL    HW121133   7.201   4.708   5.645
 3034SOL    HW221134   7.344   4.639   5.685
 3035SOL     OW21135   2.525   5.088   6.216
 3035SOL    HW121136   2.551   5.181   6.244
 3035SOL    HW221137   2.583   5.022   6.262
 3036SOL     OW21138   0.796   8.346   5.676
 3036SOL    HW121139   0.874   8.390   5.722
 3036SOL    HW221140   0.829   8.295   5.596
 3037SOL     OW21141   0.417   3.466   7.073
 3037SOL    HW121142   0.349   3.449   7.144
 3037SOL    HW221143   0.374   3.511   6.995
 3038SOL     OW21144   3.128   8.199   6.089
 3038SOL    HW121145   3.123   8.148   6.003
 3038SOL    HW221146   3.120   8.135   6.166
 3039SOL     OW21147   4.400   0.117   2.133
 3039SOL    HW121148   4.492   0.084   2.153
 3039SOL    HW221149   4.383   0.201   2.185
 3040SOL     OW21150   3.277   2.310   0.852
 3040SOL    HW121151   3.251   2.405   0.835
 3040SOL    HW221152   3.200   2.251   0.829
 3041SOL     OW21153   9.385   5.049   1.300
 3041SOL    HW121154   9.359   5.140   1.331
 3041SOL    HW221155   9.455   5.012   1.362
 3042SOL     OW21156   7.383   3.254   0.658
 3042SOL    HW121157   7.452   3.195   0.701
 3042SOL    HW221158   7.292   3.215   0.672
 3043SOL     OW21159   1.559   6.343   1.344
 3043SOL    HW121160   1.594   6.309   1.432
 3043SOL    HW221161   1.509   6.270   1.298
 3044SOL     OW21162   8.894   0.300   1.239
 3044SOL    HW121163   8.831   0.297   1.316
 3044SOL    HW221164   8.935   0.210   1.226
 3045SOL     OW21165   3.177   3.390   5.939
 3045SOL    HW121166   3.084   3.354   5.935
 3045SOL    HW221167   3.242   3.318   5.916
 3046SOL     OW21168   4.364   8.261   5.800
 3046SOL    HW121169   4.421   8.327   5.750
 3046SOL    HW221170   4.377   8.170   5.761
 3047SOL     OW21171   2.986   4.500   0.708
 3047SOL    HW121172   3.035   4.490   0.622
 3047SOL    HW221173   2.918   4.428   0.716
 3048SOL     OW21174   8.443   6.998   6.299
 3048SOL    HW121175   8.506   6.935   6.343
 3048SOL    HW221176   8.482   7.028   6.212
 3049SOL     OW21177   0.821   8.001   1.963
 3049SOL    HW121178   0.731   8.001   1.919
 3049SOL    HW221179   0.810   8.009   2.062
 3050SOL     OW21180   7.483   8.398   5.463
 3050SOL    HW121181   7.504   8.321   5.524
 3050SOL    HW221182   7.447   8.363   5.376
 3051SOL     OW21183   1.358   0.249   0.532
 3051SOL    HW121184   1.410   0.190   0.470
 3051SOL    HW221185   1.374   0.220   0.627
 3052SOL     OW21186   2.228   7.099   1.439
 3052SOL    HW121187   2.129   7.101   1.429
 3052SOL    HW221188   2.257   7.007   1.466
 3053SOL     OW21189   4.777   3.199   6.729
 3053SOL    HW121190   4.870   3.227   6.754
 3053SOL    HW221191   4.733   3.272   6.677
 3054SOL     OW21192   4.075   2.662   6.729
 3054SOL    HW121193   3.978   2.638   6.722
 3054SOL    HW221194   4.103   2.714   6.648
 3055SOL     OW21195   3.420   6.783   1.291
 3055SOL    HW121196   3.452   6.845   1.362
 3055SOL    HW221197   3.470   6.800   1.206
 3056SOL     OW21198   5.373   7.945   6.625
 3056SOL    HW121199   5.375   7.995   6.711
 3056SOL    HW221200   5.460   7.897   6.613
 3057SOL     OW21201   2.157   4.505   0.892
 3057SOL    HW121202   2.079   4.502   0.954
 3057SOL    HW221203   2.130   4.470   0.802
 3058SOL     OW21204   6.195   4.303   6.707
 3058SOL    HW121205   6.223   4.257   6.623
 3058SOL    HW221206   6.201   4.402   6.695
 3059SOL     OW21207   4.890   4.424   6.772
 3059SOL    HW121208   4.890   4.350   6.704
 3059SOL    HW221209   4.919   4.509   6.728
 3060SOL     OW21210   7.268   3.178   1.780
 3060SOL    HW121211   7.356   3.155   1.822
 3060SOL    HW221212   7.209   3.222   1.848
 3061SOL     OW21213   0.158   0.243   5.844
 3061SOL    HW121214   0.081   0.194   5.885
 3061SOL    HW221215   0.230   0.256   5.913
 3062SOL     OW21216   3.722   6.612   1.664
 3062SOL    HW121217   3.627   6.641   1.649
 3062SOL    HW221218   3.726   6.546   1.738
 3063SOL     OW21219   1.694   5.210   6.461
 3063SOL    HW121220   1.648   5.154   6.391
 3063SOL    HW221221   1.645   5.201   6.548
 3064SOL     OW21222   2.459   4.477   0.474
 3064SOL    HW121223   2.470   4.477   0.573
 3064SOL    HW221224   2.479   4.568   0.438
 3065SOL     OW21225   6.919   5.486   0.471
 3065SOL    HW121226   6.942   5.583   0.456
 3065SOL    HW221227   7.004   5.432   0.475
 3066SOL     OW21228   4.934   8.278   0.841
 3066SOL    HW121229   5.027   8.251   0.817
 3066SOL    HW221230   4.870   8.239   0.775
 3067SOL     OW21231   6.523   6.840   0.445
 3067SOL    HW121232   6.572   6.892   0.514
 3067SOL    HW221233   6.538   6.881   0.355
 3068SOL     OW21234   8.343   8.233   1.167
 3068SOL    HW121235   8.442   8.246   1.162
 3068SOL    HW221236   8.324   8.139   1.195
 3069SOL     OW21237   7.612   8.408   6.018
 3069SOL    HW121238   7.523   8.398   5.974
 3069SOL    HW221239   7.600   8.442   6.112
 3070SOL     OW21240   0.793   2.983   6.312
 3070SOL    HW121241   0.694   2.976   6.301
 3070SOL    HW221242   0.837   2.983   6.222
 3071SOL     OW21243   3.576   7.986   0.845
 3071SOL    HW121244   3.569   7.918   0.771
 3071SOL    HW221245   3.519   8.065   0.822
 3072SOL     OW21246   8.895   8.200   5.892
 3072SOL    HW121247   8.820   8.202   5.825
 3072SOL    HW221248   8.865   8.153   5.974
 3073SOL     OW21249   2.315   3.506   0.528
 3073SOL    HW121250   2.295   3.408   0.534
 3073SOL    HW221251   2.291   3.539   0.436
 3074SOL     OW21252   5.414  -0.012   2.309
 3074SOL    HW121253   5.435  -0.008   2.406
 3074SOL    HW221254   5.324   0.028   2.292
 3075SOL     OW21255   5.085   1.838   5.675
 3075SOL    HW121256   5.083   1.881   5.765
 3075SOL    HW221257   5.144   1.890   5.614
 3076SOL     OW21258   4.237   0.609   0.991
 3076SOL    HW121259   4.297   0.578   0.917
 3076SOL    HW221260   4.243   0.545   1.068
 3077SOL     OW21261   2.531   4.539   0.738
 3077SOL    HW121262   2.613   4.593   0.723
 3077SOL    HW221263   2.550   4.468   0.806
 3078SOL     OW21264   1.622   0.699   6.482
 3078SOL    HW121265   1.595   0.683   6.387
 3078SOL    HW221266   1.610   0.796   6.504
 3079SOL     OW21267   1.660   2.842   5.062
 3079SOL    HW121268   1.730   2.892   5.010
 3079SOL    HW221269   1.676   2.856   5.160
 3080SOL     OW21270   2.826   4.476   1.496
 3080SOL    HW121271   2.775   4.558   1.521
 3080SOL    HW221272   2.816   4.459   1.398
 3081SOL     OW21273   4.470   7.722   5.775
 3081SOL    HW121274   4.526   7.656   5.824
 3081SOL    HW221275   4.448   7.686   5.684
 3082SOL     OW21276   4.894   1.891   1.170
 3082SOL    HW121277   4.982   1.915   1.130
 3082SOL    HW221278   4.842   1.835   1.105
 3083SOL     OW21279   8.417   7.973   1.543
 3083SOL    HW121280   8.396   7.877   1.523
 3083SOL    HW221281   8.387   7.994   1.636
 3084SOL     OW21282   1.069   6.953   5.859
 3084SOL    HW121283   1.111   7.024   5.915
 3084SOL    HW221284   1.028   6.994   5.777
 3085SOL     OW21285   9.211   2.132   0.493
 3085SOL    HW121286   9.237   2.053   0.549
 3085SOL    HW221287   9.281   2.203   0.501
 3086SOL     OW21288   6.860   4.008   5.551
 3086SOL    HW121289   6.787   4.001   5.482
 3086SOL    HW221290   6.945   3.971   5.512
 3087SOL     OW21291   6.401   7.449   2.231
 3087SOL    HW121292   6.455   7.499   2.298
 3087SOL    HW221293   6.394   7.353   2.259
 3088SOL     OW21294   7.019   6.392   6.012
 3088SOL    HW121295   6.991   6.475   5.964
 3088SOL    HW221296   7.080   6.417   6.088
 3089SOL     OW21297   0.821   0.771   1.608
 3089SOL    HW121298   0.920   0.763   1.601
 3089SOL    HW221299   0.792   0.756   1.703
 3090SOL     OW21300   2.291   5.271   1.611
 3090SOL    HW121301   2.369   5.333   1.601
 3090SOL    HW221302   2.323   5.181   1.640
 3091SOL     OW21303   1.401   2.550   6.021
 3091SOL    HW121304   1.307   2.577   6.043
 3091SOL    HW221305   1.416   2.561   5.923
 3092SOL     OW21306   7.162   7.649   5.802
 3092SOL    HW121307   7.165   7.641   5.702
 3092SOL    HW221308   7.203   7.736   5.829
 3093SOL     OW21309   4.315   0.136   1.218
 3093SOL    HW121310   4.373   0.090   1.286
 3093SOL    HW221311   4.221   0.142   1.253
 3094SOL     OW21312   8.722   0.907   0.486
 3094SOL    HW121313   8.743   1.004   0.495
 3094SOL    HW221314   8.798   0.861   0.439
 3095SOL     OW21315   8.334   7.084   6.534
 3095SOL    HW121316   8.327   7.061   6.437
 3095SOL    HW221317   8.352   7.001   6.587
 3096SOL     OW21318   1.352   7.057   0.587
 3096SOL    HW121319   1.419   7.120   0.626
 3096SOL    HW221320   1.351   6.972   0.639
 3097SOL     OW21321   5.838   5.152   0.752
 3097SOL    HW121322   5.905   5.225   0.763
 3097SOL    HW221323   5.779   5.148   0.833
 3098SOL     OW21324   3.109   0.814   1.051
 3098SOL    HW121325   3.195   0.837   1.006
 3098SOL    HW221326   3.115   0.722   1.089
 3099SOL     OW21327   1.726   1.906   1.345
 3099SOL    HW121328   1.820   1.940   1.340
 3099SOL    HW221329   1.663   1.980   1.324
 3100SOL     OW21330   4.485   5.283   6.525
 3100SOL    HW121331   4.489   5.336   6.610
 3100SOL    HW221332   4.477   5.346   6.447
 3101SOL     OW21333   5.002   1.415   5.427
 3101SOL    HW121334   4.912   1.386   5.458
 3101SOL    HW221335   4.995   1.452   5.334
 3102SOL     OW21336   9.102   0.103   0.609
 3102SOL    HW121337   9.021   0.109   0.550
 3102SOL    HW221338   9.100   0.177   0.676
 3103SOL     OW21339   3.278   3.593   7.025
 3103SOL    HW121340   3.244   3.678   6.985
 3103SOL    HW221341   3.219   3.517   6.995
 3104SOL     OW21342   7.577   3.123   6.579
 3104SOL    HW121343   7.664   3.166   6.552
 3104SOL    HW221344   7.555   3.149   6.673
 3105SOL     OW21345   2.195   1.927   6.104
 3105SOL    HW121346   2.224   2.015   6.142
 3105SOL    HW221347   2.204   1.929   6.004
 3106SOL     OW21348   3.286   3.797   1.770
 3106SOL    HW121349   3.295   3.698   1.780
 3106SOL    HW221350   3.193   3.818   1.737
 3107SOL     OW21351   4.472   1.414   1.730
 3107SOL    HW121352   4.570   1.414   1.747
 3107SOL    HW221353   4.431   1.496   1.770
 3108SOL     OW21354   4.862   7.200   6.520
 3108SOL    HW121355   4.859   7.287   6.570
 3108SOL    HW221356   4.930   7.207   6.446
 3109SOL     OW21357   3.635   4.402   1.993
 3109SOL    HW121358   3.653   4.399   2.092
 3109SOL    HW221359   3.603   4.494   1.968
 3110SOL     OW21360   0.310   5.639   5.544
 3110SOL    HW121361   0.272   5.728   5.570
 3110SOL    HW221362   0.261   5.567   5.593
 3111SOL     OW21363   1.480   0.887   7.088
 3111SOL    HW121364   1.451   0.979   7.060
 3111SOL    HW221365   1.483   0.827   7.008
 3112SOL     OW21366   3.343   6.517   1.812
 3112SOL    HW121367   3.309   6.510   1.906
 3112SOL    HW221368   3.279   6.472   1.750
 3113SOL     OW21369   4.351   0.348   2.586
 3113SOL    HW121370   4.351   0.254   2.621
 3113SOL    HW221371   4.375   0.411   2.660
 3114SOL     OW21372   3.243   5.756   6.502
 3114SOL    HW121373   3.215   5.718   6.590
 3114SOL    HW221374   3.224   5.854   6.499
 3115SOL     OW21375   6.978   4.369   6.994
 3115SOL    HW121376   7.057   4.428   6.979
 3115SOL    HW221377   6.947   4.331   6.907
 3116SOL     OW21378   7.070   4.672   1.176
 3116SOL    HW121379   7.102   4.668   1.082
 3116SOL    HW221380   7.149   4.682   1.237
 3117SOL     OW21381   4.594  -0.002   6.090
 3117SOL    HW121382   4.644   0.008   6.176
 3117SOL    HW221383   4.619   0.074   6.029
 3118SOL     OW21384   2.108   4.545   6.694
 3118SOL    HW121385   2.101   4.456   6.739
 3118SOL    HW221386   2.016   4.576   6.669
 3119SOL     OW21387   6.154   2.301   1.474
 3119SOL    HW121388   6.119   2.305   1.380
 3119SOL    HW221389   6.159   2.205   1.503
 3120SOL     OW21390   4.611   5.954   0.595
 3120SOL    HW121391   4.569   5.982   0.681
 3120SOL    HW221392   4.599   6.027   0.527
 3121SOL     OW21393   2.530   6.144   1.072
 3121SOL    HW121394   2.570   6.095   0.995
 3121SOL    HW221395   2.522   6.083   1.151
 3122SOL     OW21396   1.344   7.382   0.452
 3122SOL    HW121397   1.431   7.381   0.404
 3122SOL    HW221398   1.314   7.288   0.469
 3123SOL     OW21399   6.233   2.480   0.594
 3123SOL    HW121400   6.316   2.441   0.555
 3123SOL    HW221401   6.252   2.572   0.628
 3124SOL     OW21402   3.276   0.774   0.749
 3124SOL    HW121403   3.287   0.682   0.711
 3124SOL    HW221404   3.351   0.792   0.813
 3125SOL     OW21405   4.429   7.383   6.210
 3125SOL    HW121406   4.410   7.398   6.307
 3125SOL    HW221407   4.382   7.452   6.155
 3126SOL     OW21408   7.646   5.798   7.053
 3126SOL    HW121409   7.616   5.789   7.148
 3126SOL    HW221410   7.626   5.889   7.019
 3127SOL     OW21411   8.297   5.410   6.105
 3127SOL    HW121412   8.274   5.486   6.166
 3127SOL    HW221413   8.389   5.424   6.068
 3128SOL     OW21414   1.285   5.174   1.093
 3128SOL    HW121415   1.233   5.093   1.119
 3128SOL    HW221416   1.249   5.254   1.141
 3129SOL     OW21417   3.603   4.707   1.036
 3129SOL    HW121418   3.653   4.629   1.073
 3129SOL    HW221419   3.668   4.773   0.997
 3130SOL     OW21420   3.885   6.626   5.574
 3130SOL    HW121421   3.904   6.554   5.508
 3130SOL    HW221422   3.963   6.638   5.635
 3131SOL     OW21423   1.929   2.143   0.777
 3131SOL    HW121424   2.026   2.155   0.802
 3131SOL    HW221425   1.876   2.219   0.814
 3132SOL     OW21426   2.521   6.584   5.350
 3132SOL    HW121427   2.507   6.505   5.292
 3132SOL    HW221428   2.575   6.652   5.301
 3133SOL     OW21429   7.978   1.290   6.976
 3133SOL    HW121430   7.946   1.253   6.889
 3133SOL    HW221431   8.006   1.215   7.036
 3134SOL     OW21432   4.933   5.785   1.881
 3134SOL    HW121433   4.951   5.866   1.936
 3134SOL    HW221434   4.856   5.734   1.920
 3135SOL     OW21435   5.716   4.037   1.512
 3135SOL    HW121436   5.762   4.017   1.599
 3135SOL    HW221437   5.659   4.119   1.523
 3136SOL     OW21438   4.753   1.657   1.367
 3136SOL    HW121439   4.707   1.569   1.376
 3136SOL    HW221440   4.699   1.718   1.309
 3137SOL     OW21441   5.082   5.237   2.421
 3137SOL    HW121442   5.137   5.215   2.501
 3137SOL    HW221443   5.045   5.153   2.381
 3138SOL     OW21444   0.526   5.604   0.559
 3138SOL    HW121445   0.494   5.618   0.465
 3138SOL    HW221446   0.462   5.544   0.607
 3139SOL     OW21447   3.001   5.708   6.098
 3139SOL    HW121448   2.990   5.627   6.041
 3139SOL    HW221449   3.017   5.681   6.193
 3140SOL     OW21450   3.902   2.442   7.009
 3140SOL    HW121451   3.828   2.391   6.965
 3140SOL    HW221452   3.865   2.493   7.086
 3141SOL     OW21453   1.330   6.767   5.773
 3141SOL    HW121454   1.393   6.745   5.698
 3141SOL    HW221455   1.271   6.843   5.745
 3142SOL     OW21456   1.548   7.402   6.935
 3142SOL    HW121457   1.579   7.368   6.846
 3142SOL    HW221458   1.476   7.470   6.921
 3143SOL     OW21459   0.791   7.039   6.866
 3143SOL    HW121460   0.762   6.944   6.850
 3143SOL    HW221461   0.719   7.088   6.916
 3144SOL     OW21462   1.657   0.551   1.836
 3144SOL    HW121463   1.735   0.533   1.895
 3144SOL    HW221464   1.573   0.551   1.890
 3145SOL     OW21465   7.469   3.989   6.453
 3145SOL    HW121466   7.533   4.066   6.454
 3145SOL    HW221467   7.483   3.935   6.371
 3146SOL     OW21468   5.702   1.271   6.993
 3146SOL    HW121469   5.606   1.277   7.019
 3146SOL    HW221470   5.710   1.265   6.893
 3147SOL     OW21471   8.927   7.035   0.748
 3147SOL    HW121472   8.943   6.956   0.807
 3147SOL    HW221473   8.839   7.025   0.702
 3148SOL     OW21474   4.401   1.583   1.056
 3148SOL    HW121475   4.311   1.568   1.097
 3148SOL    HW221476   4.461   1.506   1.079
 3149SOL     OW21477   6.832   1.913   0.635
 3149SOL    HW121478   6.842   1.816   0.657
 3149SOL    HW221479   6.825   1.924   0.536
 3150SOL     OW21480   7.561   1.350   6.380
 3150SOL    HW121481   7.490   1.284   6.357
 3150SOL    HW221482   7.583   1.344   6.477
 3151SOL     OW21483   9.442   2.726   7.111
 3151SOL    HW121484   9.470   2.685   7.198
 3151SOL    HW221485   9.400   2.657   7.053
 3152SOL     OW21486   8.043   2.552   7.139
 3152SOL    HW121487   8.079   2.598   7.058
 3152SOL    HW221488   8.026   2.620   7.211
 3153SOL     OW21489   0.764   6.802   2.330
 3153SOL    HW121490   0.761   6.799   2.430
 3153SOL    HW221491   0.854   6.770   2.299
 3154SOL     OW21492   5.532   0.169   6.517
 3154SOL    HW121493   5.597   0.173   6.442
 3154SOL    HW221494   5.472   0.090   6.506
 3155SOL     OW21495   0.671   0.137   5.452
 3155SOL    HW121496   0.692   0.060   5.392
 3155SOL    HW221497   0.705   0.221   5.411
 3156SOL     OW21498   5.437   6.571   0.493
 3156SOL    HW121499   5.353   6.624   0.505
 3156SOL    HW221500   5.508   6.604   0.555
 3157SOL     OW21501   5.357   5.813   1.370
 3157SOL    HW121502   5.308   5.863   1.441
 3157SOL    HW221503   5.345   5.858   1.282
 3158SOL     OW21504   8.722   4.489   0.512
 3158SOL    HW121505   8.808   4.535   0.489
 3158SOL    HW221506   8.656   4.506   0.439
 3159SOL     OW21507   4.395   6.734   2.273
 3159SOL    HW121508   4.383   6.818   2.326
 3159SOL    HW221509   4.347   6.742   2.185
 3160SOL     OW21510   4.450   6.160   6.971
 3160SOL    HW121511   4.531   6.189   7.021
 3160SOL    HW221512   4.463   6.066   6.939
 3161SOL     OW21513   0.289   4.699   6.215
 3161SOL    HW121514   0.282   4.789   6.258
 3161SOL    HW221515   0.266   4.706   6.118
 3162SOL     OW21516   6.081   8.111   1.231
 3162SOL    HW121517   6.138   8.136   1.309
 3162SOL    HW221518   6.131   8.048   1.172
 3163SOL     OW21519   3.775   5.663   1.135
 3163SOL    HW121520   3.729   5.742   1.094
 3163SOL    HW221521   3.858   5.642   1.085
 3164SOL     OW21522   6.082   7.663   1.863
 3164SOL    HW121523   6.169   7.701   1.830
 3164SOL    HW221524   6.100   7.604   1.941
 3165SOL     OW21525   3.161   0.016   6.027
 3165SOL    HW121526   3.225  -0.053   6.059
 3165SOL    HW221527   3.128  -0.009   5.936
 3166SOL     OW21528   1.301   4.224   1.292
 3166SOL    HW121529   1.320   4.231   1.390
 3166SOL    HW221530   1.360   4.287   1.242
 3167SOL     OW21531   1.659   1.679   1.471
 3167SOL    HW121532   1.709   1.759   1.436
 3167SOL    HW221533   1.638   1.617   1.396
 3168SOL     OW21534   1.211   1.685   6.478
 3168SOL    HW121535   1.200   1.784   6.471
 3168SOL    HW221536   1.126   1.640   6.452
 3169SOL     OW21537   2.891   1.191   2.832
 3169SOL    HW121538   2.869   1.128   2.757
 3169SOL    HW221539   2.866   1.148   2.919
 3170SOL     OW21540   3.898   3.309   1.784
 3170SOL    HW121541   3.876   3.257   1.701
 3170SOL    HW221542   3.824   3.298   1.851
 3171SOL     OW21543   1.338   5.675   6.831
 3171SOL    HW121544   1.384   5.696   6.745
 3171SOL    HW221545   1.400   5.624   6.891
 3172SOL     OW21546   2.811   3.704   1.240
 3172SOL    HW121547   2.870   3.754   1.303
 3172SOL    HW221548   2.749   3.767   1.194
 3173SOL     OW21549   8.728   6.437   4.893
 3173SOL    HW121550   8.821   6.403   4.906
 3173SOL    HW221551   8.664   6.379   4.943
 3174SOL     OW21552   8.425   3.416   0.996
 3174SOL    HW121553   8.346   3.461   1.038
 3174SOL    HW221554   8.444   3.330   1.044
 3175SOL     OW21555   9.382   5.156   0.870
 3175SOL    HW121556   9.403   5.069   0.824
 3175SOL    HW221557   9.283   5.169   0.872
 3176SOL     OW21558   4.531   1.075   1.940
 3176SOL    HW121559   4.528   1.040   2.034
 3176SOL    HW221560   4.582   1.161   1.939
 3177SOL     OW21561   4.000   8.324   6.838
 3177SOL    HW121562   4.073   8.332   6.906
 3177SOL    HW221563   3.992   8.228   6.809
 3178SOL     OW21564   4.974   0.508   7.015
 3178SOL    HW121565   4.965   0.413   6.987
 3178SOL    HW221566   4.911   0.526   7.091
 3179SOL     OW21567   7.301   8.338   6.402
 3179SOL    HW121568   7.249   8.319   6.319
 3179SOL    HW221569   7.330   8.252   6.444
 3180SOL     OW21570   6.710   4.233   1.914
 3180SOL    HW121571   6.651   4.191   1.982
 3180SOL    HW221572   6.691   4.332   1.910
 3181SOL     OW21573   7.141   6.182   0.834
 3181SOL    HW121574   7.232   6.151   0.807
 3181SOL    HW221575   7.121   6.150   0.926
 3182SOL     OW21576   1.723   1.873   6.731
 3182SOL    HW121577   1.801   1.844   6.786
 3182SOL    HW221578   1.754   1.937   6.660
 3183SOL     OW21579   0.822   7.105   5.710
 3183SOL    HW121580   0.796   7.142   5.799
 3183SOL    HW221581   0.743   7.062   5.667
 3184SOL     OW21582   6.733   2.106   0.806
 3184SOL    HW121583   6.803   2.052   0.760
 3184SOL    HW221584   6.724   2.073   0.901
 3185SOL     OW21585   4.451   1.403   0.454
 3185SOL    HW121586   4.488   1.452   0.533
 3185SOL    HW221587   4.518   1.336   0.423
 3186SOL     OW21588   2.969   6.476   6.070
 3186SOL    HW121589   2.887   6.420   6.083
 3186SOL    HW221590   2.956   6.565   6.113
 3187SOL     OW21591   7.099   4.849   5.571
 3187SOL    HW121592   7.155   4.832   5.489
 3187SOL    HW221593   7.014   4.894   5.543
 3188SOL     OW21594   6.731   3.973   5.807
 3188SOL    HW121595   6.783   3.994   5.724
 3188SOL    HW221596   6.669   4.048   5.828
 3189SOL     OW21597   7.156   3.012   6.600
 3189SOL    HW121598   7.188   3.096   6.645
 3189SOL    HW221599   7.231   2.946   6.595
 3190SOL     OW21600   6.428   3.304   6.447
 3190SOL    HW121601   6.477   3.242   6.385
 3190SOL    HW221602   6.475   3.392   6.451
 3191SOL     OW21603   5.103   0.305   5.053
 3191SOL    HW121604   5.075   0.218   5.095
 3191SOL    HW221605   5.154   0.287   4.969
 3192SOL     OW21606   1.336   4.473   0.583
 3192SOL    HW121607   1.299   4.471   0.490
 3192SOL    HW221608   1.435   4.460   0.579
 3193SOL     OW21609   9.139   4.989   6.931
 3193SOL    HW121610   9.088   5.041   6.999
 3193SOL    HW221611   9.224   5.038   6.909
 3194SOL     OW21612   6.265   4.171   6.478
 3194SOL    HW121613   6.349   4.225   6.472
 3194SOL    HW221614   6.253   4.119   6.393
 3195SOL     OW21615   3.922   8.309   6.352
 3195SOL    HW121616   3.957   8.391   6.306
 3195SOL    HW221617   3.929   8.231   6.289
 3196SOL     OW21618   0.653   5.959   6.004
 3196SOL    HW121619   0.612   6.019   5.935
 3196SOL    HW221620   0.586   5.940   6.076
 3197SOL     OW21621   1.316   2.602   6.493
 3197SOL    HW121622   1.320   2.680   6.556
 3197SOL    HW221623   1.254   2.623   6.418
 3198SOL     OW21624   7.747   0.347   5.478
 3198SOL    HW121625   7.754   0.411   5.401
 3198SOL    HW221626   7.738   0.399   5.563
 3199SOL     OW21627   8.241   1.420   0.750
 3199SOL    HW121628   8.303   1.483   0.704
 3199SOL    HW221629   8.172   1.387   0.686
 3200SOL     OW21630   8.117   4.460   1.512
 3200SOL    HW121631   8.172   4.413   1.443
 3200SOL    HW221632   8.079   4.393   1.576
 3201SOL     OW21633   1.126   7.319   4.668
 3201SOL    HW121634   1.194   7.322   4.741
 3201SOL    HW221635   1.149   7.389   4.600
 3202SOL     OW21636   4.874   5.492   5.597
 3202SOL    HW121637   4.926   5.428   5.653
 3202SOL    HW221638   4.924   5.510   5.512
 3203SOL     OW21639   6.897   8.164   6.906
 3203SOL    HW121640   6.963   8.105   6.860
 3203SOL    HW221641   6.835   8.109   6.962
 3204SOL     OW21642   6.487   6.638   1.484
 3204SOL    HW121643   6.441   6.654   1.396
 3204SOL    HW221644   6.542   6.717   1.508
 3205SOL     OW21645   1.683   2.068   0.988
 3205SOL    HW121646   1.724   2.105   0.905
 3205SOL    HW221647   1.589   2.039   0.968
 3206SOL     OW21648   6.196   4.065   6.236
 3206SOL    HW121649   6.273   4.032   6.182
 3206SOL    HW221650   6.113   4.017   6.207
 3207SOL     OW21651   2.049   5.024   0.682
 3207SOL    HW121652   2.077   4.934   0.646
 3207SOL    HW221653   2.114   5.052   0.753
 3208SOL     OW21654   7.130   7.582   6.072
 3208SOL    HW121655   7.138   7.627   5.983
 3208SOL    HW221656   7.034   7.556   6.087
 3209SOL     OW21657   2.389   6.742   0.548
 3209SOL    HW121658   2.322   6.756   0.621
 3209SOL    HW221659   2.345   6.752   0.459
 3210SOL     OW21660   8.454   8.321   1.426
 3210SOL    HW121661   8.413   8.274   1.347
 3210SOL    HW221662   8.395   8.309   1.506
 3211SOL     OW21663   8.900   0.945   5.502
 3211SOL    HW121664   8.942   0.951   5.412
 3211SOL    HW221665   8.800   0.949   5.492
 3212SOL     OW21666   6.810   7.047   0.888
 3212SOL    HW121667   6.891   7.055   0.830
 3212SOL    HW221668   6.790   7.135   0.930
 3213SOL     OW21669   9.575   8.368   5.699
 3213SOL    HW121670   9.515   8.336   5.626
 3213SOL    HW221671   9.528   8.438   5.753
 3214SOL     OW21672   8.514   2.731   0.449
 3214SOL    HW121673   8.548   2.638   0.435
 3214SOL    HW221674   8.572   2.778   0.515
 3215SOL     OW21675   4.791   7.207   5.446
 3215SOL    HW121676   4.861   7.172   5.508
 3215SOL    HW221677   4.820   7.294   5.408
 3216SOL     OW21678   2.836   7.728   6.416
 3216SOL    HW121679   2.822   7.762   6.510
 3216SOL    HW221680   2.869   7.633   6.420
 3217SOL     OW21681   5.790   2.481   6.912
 3217SOL    HW121682   5.861   2.543   6.947
 3217SOL    HW221683   5.833   2.402   6.868
 3218SOL     OW21684   6.641   4.482   1.932
 3218SOL    HW121685   6.697   4.532   1.998
 3218SOL    HW221686   6.545   4.502   1.949
 3219SOL     OW21687   0.999   4.705   7.074
 3219SOL    HW121688   1.080   4.763   7.084
 3219SOL    HW221689   0.969   4.706   6.979
 3220SOL     OW21690   7.850   6.613   6.676
 3220SOL    HW121691   7.781   6.673   6.635
 3220SOL    HW221692   7.929   6.606   6.614
 3221SOL     OW21693   8.275   6.250   1.404
 3221SOL    HW121694   8.370   6.253   1.435
 3221SOL    HW221695   8.233   6.165   1.434
 3222SOL     OW21696   9.137   2.278   6.999
 3222SOL    HW121697   9.148   2.232   7.087
 3222SOL    HW221698   9.100   2.370   7.014
 3223SOL     OW21699   3.054   8.040   5.860
 3223SOL    HW121700   3.131   7.991   5.819
 3223SOL    HW221701   2.972   7.981   5.858
 3224SOL     OW21702   5.948   8.379   1.860
 3224SOL    HW121703   6.005   8.305   1.825
 3224SOL    HW221704   5.969   8.393   1.957
 3225SOL     OW21705   7.029   1.226   1.685
 3225SOL    HW121706   7.087   1.195   1.760
 3225SOL    HW221707   6.993   1.317   1.706
 3226SOL     OW21708   0.876   0.764   6.695
 3226SOL    HW121709   0.876   0.748   6.597
 3226SOL    HW221710   0.949   0.829   6.718
 3227SOL     OW21711   4.783   4.315   6.186
 3227SOL    HW121712   4.717   4.390   6.180
 3227SOL    HW221713   4.744   4.240   6.239
 3228SOL     OW21714   3.321   7.904   1.266
 3228SOL    HW121715   3.241   7.852   1.298
 3228SOL    HW221716   3.290   7.984   1.215
 3229SOL     OW21717   2.202   5.873   6.203
 3229SOL    HW121718   2.115   5.917   6.228
 3229SOL    HW221719   2.220   5.798   6.266
 3230SOL     OW21720   4.767   0.480   0.456
 3230SOL    HW121721   4.796   0.422   0.532
 3230SOL    HW221722   4.718   0.560   0.491
 3231SOL     OW21723   6.818   5.522   6.862
 3231SOL    HW121724   6.736   5.572   6.831
 3231SOL    HW221725   6.894   5.586   6.872
 3232SOL     OW21726   3.668   0.498   1.493
 3232SOL    HW121727   3.585   0.524   1.444
 3232SOL    HW221728   3.737   0.468   1.427
 3233SOL     OW21729   1.535   6.936   6.291
 3233SOL    HW121730   1.484   6.885   6.222
 3233SOL    HW221731   1.480   6.943   6.374
 3234SOL     OW21732   6.231   8.263   5.513
 3234SOL    HW121733   6.239   8.166   5.488
 3234SOL    HW221734   6.196   8.314   5.434
 3235SOL     OW21735   8.686  -0.001   6.102
 3235SOL    HW121736   8.622   0.067   6.137
 3235SOL    HW221737   8.757  -0.018   6.170
 3236SOL     OW21738   2.502   2.690   6.233
 3236SOL    HW121739   2.527   2.770   6.179
 3236SOL    HW221740   2.466   2.720   6.322
 3237SOL     OW21741   4.493   6.229   2.160
 3237SOL    HW121742   4.504   6.132   2.140
 3237SOL    HW221743   4.466   6.241   2.256
 3238SOL     OW21744   8.847   1.977   6.346
 3238SOL    HW121745   8.814   1.888   6.317
 3238SOL    HW221746   8.858   1.979   6.446
 3239SOL     OW21747   6.282   0.595   1.629
 3239SOL    HW121748   6.378   0.581   1.605
 3239SOL    HW221749   6.276   0.618   1.726
 3240SOL     OW21750   2.567   4.324   6.730
 3240SOL    HW121751   2.486   4.330   6.672
 3240SOL    HW221752   2.636   4.390   6.699
 3241SOL     OW21753   0.831   3.294   6.937
 3241SOL    HW121754   0.861   3.304   7.032
 3241SOL    HW221755   0.734   3.273   6.934
 3242SOL     OW21756   0.496   2.498   1.193
 3242SOL    HW121757   0.591   2.468   1.194
 3242SOL    HW221758   0.492   2.598   1.186
 3243SOL     OW21759   9.231   0.876   6.064
 3243SOL    HW121760   9.257   0.861   6.159
 3243SOL    HW221761   9.185   0.794   6.029
 3244SOL     OW21762   3.286   5.610   0.653
 3244SOL    HW121763   3.306   5.707   0.664
 3244SOL    HW221764   3.238   5.596   0.566
 3245SOL     OW21765   6.208   6.913   6.840
 3245SOL    HW121766   6.146   6.839   6.812
 3245SOL    HW221767   6.223   6.908   6.938
 3246SOL     OW21768   0.801   3.550   1.152
 3246SOL    HW121769   0.775   3.520   1.244
 3246SOL    HW221770   0.835   3.472   1.100
 3247SOL     OW21771   1.998   7.232   1.073
 3247SOL    HW121772   1.913   7.180   1.064
 3247SOL    HW221773   1.980   7.318   1.120
 3248SOL     OW21774   2.438   0.264   5.737
 3248SOL    HW121775   2.382   0.251   5.655
 3248SOL    HW221776   2.524   0.308   5.711
 3249SOL     OW21777   8.412   3.411   0.466
 3249SOL    HW121778   8.411   3.479   0.393
 3249SOL    HW221779   8.406   3.320   0.426
 3250SOL     OW21780   1.571   2.691   6.244
 3250SOL    HW121781   1.593   2.789   6.248
 3250SOL    HW221782   1.499   2.676   6.176
 3251SOL     OW21783   4.109   2.349   1.418
 3251SOL    HW121784   4.011   2.370   1.418
 3251SOL    HW221785   4.148   2.372   1.508
 3252SOL     OW21786   2.138   1.360   2.120
 3252SOL    HW121787   2.196   1.402   2.050
 3252SOL    HW221788   2.123   1.425   2.195
 3253SOL     OW21789   6.116   0.004   6.890
 3253SOL    HW121790   6.214   0.011   6.869
 3253SOL    HW221791   6.075   0.095   6.886
 3254SOL     OW21792   5.678   6.205   5.906
 3254SOL    HW121793   5.769   6.235   5.878
 3254SOL    HW221794   5.651   6.127   5.850
 3255SOL     OW21795   4.950   0.897   7.082
 3255SOL    HW121796   4.978   0.898   6.986
 3255SOL    HW221797   5.005   0.830   7.132
 3256SOL     OW21798   6.782   6.227   6.088
 3256SOL    HW121799   6.708   6.221   6.020
 3256SOL    HW221800   6.845   6.300   6.061
 3257SOL     OW21801   1.190   0.358   5.345
 3257SOL    HW121802   1.116   0.392   5.287
 3257SOL    HW221803   1.266   0.328   5.288
 3258SOL     OW21804   9.421   0.795   5.845
 3258SOL    HW121805   9.361   0.843   5.909
 3258SOL    HW221806   9.516   0.809   5.872
 3259SOL     OW21807   3.356   6.474   1.487
 3259SOL    HW121808   3.271   6.467   1.540
 3259SOL    HW221809   3.429   6.425   1.534
 3260SOL     OW21810   2.081   3.418   1.728
 3260SOL    HW121811   2.101   3.380   1.819
 3260SOL    HW221812   2.016   3.359   1.681
 3261SOL     OW21813   2.935   3.814   5.639
 3261SOL    HW121814   2.895   3.726   5.614
 3261SOL    HW221815   3.015   3.798   5.697
 3262SOL     OW21816   8.136   6.809   1.457
 3262SOL    HW121817   8.152   6.724   1.407
 3262SOL    HW221818   8.156   6.886   1.396
 3263SOL     OW21819   3.007   1.168   1.934
 3263SOL    HW121820   3.044   1.184   1.843
 3263SOL    HW221821   3.063   1.100   1.982
 3264SOL     OW21822   0.646   1.611   6.378
 3264SOL    HW121823   0.693   1.662   6.450
 3264SOL    HW221824   0.579   1.671   6.333
 3265SOL     OW21825   1.430   2.104   6.064
 3265SOL    HW121826   1.473   2.175   6.008
 3265SOL    HW221827   1.476   2.101   6.153
 3266SOL     OW21828   3.983   2.043   0.616
 3266SOL    HW121829   3.969   1.999   0.705
 3266SOL    HW221830   3.915   2.115   0.604
 3267SOL     OW21831   1.282   3.929   7.022
 3267SOL    HW121832   1.351   3.898   6.956
 3267SOL    HW221833   1.209   3.977   6.973
 3268SOL     OW21834   4.038   3.163   1.021
 3268SOL    HW121835   4.125   3.198   0.985
 3268SOL    HW221836   3.973   3.238   1.028
 3269SOL     OW21837   6.497   4.930   0.920
 3269SOL    HW121838   6.459   5.019   0.896
 3269SOL    HW221839   6.425   4.860   0.916
 3270SOL     OW21840   9.361   6.092   6.261
 3270SOL    HW121841   9.311   6.069   6.344
 3270SOL    HW221842   9.337   6.184   6.232
 3271SOL     OW21843   8.562   8.314   5.697
 3271SOL    HW121844   8.637   8.249   5.681
 3271SOL    HW221845   8.577   8.396   5.643
 3272SOL     OW21846   2.917   2.105   6.959
 3272SOL    HW121847   2.859   2.163   7.015
 3272SOL    HW221848   2.891   2.009   6.973
 3273SOL     OW21849   7.227   8.391   6.799
 3273SOL    HW121850   7.231   8.368   6.896
 3273SOL    HW221851   7.299   8.458   6.778
 3274SOL     OW21852   0.581   8.001   0.623
 3274SOL    HW121853   0.504   7.942   0.649
 3274SOL    HW221854   0.574   8.024   0.526
 3275SOL     OW21855   3.906   0.931   1.156
 3275SOL    HW121856   3.844   0.860   1.190
 3275SOL    HW221857   3.991   0.889   1.126
 3276SOL     OW21858   8.945   0.042   6.837
 3276SOL    HW121859   8.885  -0.033   6.864
 3276SOL    HW221860   8.934   0.060   6.740
 3277SOL     OW21861   6.549   4.760   6.181
 3277SOL    HW121862   6.571   4.857   6.175
 3277SOL    HW221863   6.597   4.710   6.109
 3278SOL     OW21864   3.888   3.283   1.364
 3278SOL    HW121865   3.847   3.214   1.422
 3278SOL    HW221866   3.818   3.324   1.305
 3279SOL     OW21867   1.480   2.299   1.059
 3279SOL    HW121868   1.541   2.333   1.131
 3279SOL    HW221869   1.473   2.199   1.065
 3280SOL     OW21870   5.908   3.952   0.660
 3280SOL    HW121871   5.848   3.907   0.594
 3280SOL    HW221872   5.972   4.011   0.611
 3281SOL     OW21873   9.482   1.478   6.090
 3281SOL    HW121874   9.531   1.474   6.003
 3281SOL    HW221875   9.463   1.385   6.121
 3282SOL     OW21876   0.505   3.843   0.443
 3282SOL    HW121877   0.567   3.795   0.381
 3282SOL    HW221878   0.506   3.798   0.532
 3283SOL     OW21879   5.079   5.157   0.845
 3283SOL    HW121880   5.027   5.225   0.897
 3283SOL    HW221881   5.036   5.067   0.856
 3284SOL     OW21882   4.669   5.759   1.372
 3284SOL    HW121883   4.621   5.847   1.362
 3284SOL    HW221884   4.671   5.734   1.469
 3285SOL     OW21885   3.150   0.363   2.309
 3285SOL    HW121886   3.145   0.425   2.387
 3285SOL    HW221887   3.071   0.377   2.250
 3286SOL     OW21888   5.805   1.292   6.396
 3286SOL    HW121889   5.800   1.219   6.464
 3286SOL    HW221890   5.850   1.259   6.313
 3287SOL     OW21891   7.822   0.905   1.147
 3287SOL    HW121892   7.847   0.857   1.231
 3287SOL    HW221893   7.731   0.946   1.158
 3288SOL     OW21894   5.243  -0.057   0.463
 3288SOL    HW121895   5.339  -0.075   0.486
 3288SOL    HW221896   5.233  -0.054   0.363
 3289SOL     OW21897   5.962   8.375   6.378
 3289SOL    HW121898   6.029   8.437   6.419
 3289SOL    HW221899   5.883   8.367   6.438
 3290SOL     OW21900   6.932   3.518   1.792
 3290SOL    HW121901   6.976   3.449   1.850
 3290SOL    HW221902   6.964   3.609   1.820
 3291SOL     OW21903   5.056   8.291   2.427
 3291SOL    HW121904   4.983   8.293   2.495
 3291SOL    HW221905   5.132   8.234   2.460
 3292SOL     OW21906   8.076   7.677   6.161
 3292SOL    HW121907   8.111   7.621   6.086
 3292SOL    HW221908   8.149   7.694   6.227
 3293SOL     OW21909   1.731   6.317   5.954
 3293SOL    HW121910   1.688   6.408   5.957
 3293SOL    HW221911   1.662   6.248   5.933
 3294SOL     OW21912   6.887   2.926   6.051
 3294SOL    HW121913   6.907   2.865   5.974
 3294SOL    HW221914   6.895   3.021   6.022
 3295SOL     OW21915   1.418   6.846   6.010
 3295SOL    HW121916   1.421   6.945   5.993
 3295SOL    HW221917   1.388   6.799   5.927
 3296SOL     OW21918   4.902   0.293   5.422
 3296SOL    HW121919   4.973   0.225   5.404
 3296SOL    HW221920   4.893   0.354   5.343
 3297SOL     OW21921   0.765   4.152   5.602
 3297SOL    HW121922   0.741   4.059   5.573
 3297SOL    HW221923   0.824   4.195   5.533
 3298SOL     OW21924   7.211   6.737   6.147
 3298SOL    HW121925   7.279   6.805   6.175
 3298SOL    HW221926   7.168   6.766   6.062
 3299SOL     OW21927   2.063   1.950   6.457
 3299SOL    HW121928   1.993   1.882   6.480
 3299SOL    HW221929   2.093   1.997   6.540
 3300SOL     OW21930   3.952   6.710   7.003
 3300SOL    HW121931   3.856   6.704   7.028
 3300SOL    HW221932   4.004   6.640   7.052
 3301SOL     OW21933   6.564   5.178   1.258
 3301SOL    HW121934   6.525   5.264   1.225
 3301SOL    HW221935   6.541   5.166   1.354
 3302SOL     OW21936   3.840   3.185   6.701
 3302SOL    HW121937   3.923   3.136   6.723
 3302SOL    HW221938   3.819   3.174   6.604
 3303SOL     OW21939   3.799   7.574   5.624
 3303SOL    HW121940   3.714   7.523   5.611
 3303SOL    HW221941   3.876   7.521   5.589
 3304SOL     OW21942   3.584   5.817   5.842
 3304SOL    HW121943   3.654   5.888   5.848
 3304SOL    HW221944   3.529   5.831   5.759
 3305SOL     OW21945   8.247   1.301   6.412
 3305SOL    HW121946   8.343   1.296   6.437
 3305SOL    HW221947   8.205   1.210   6.422
 3306SOL     OW21948   3.105   8.114   1.999
 3306SOL    HW121949   3.151   8.136   2.085
 3306SOL    HW221950   3.057   8.195   1.965
 3307SOL     OW21951   2.880   8.430   1.571
 3307SOL    HW121952   2.848   8.524   1.561
 3307SOL    HW221953   2.928   8.421   1.659
 3308SOL     OW21954   3.221   3.844   6.926
 3308SOL    HW121955   3.162   3.921   6.950
 3308SOL    HW221956   3.209   3.822   6.829
 3309SOL     OW21957   2.011   3.639   7.141
 3309SOL    HW121958   1.938   3.614   7.078
 3309SOL    HW221959   1.976   3.702   7.210
 3310SOL     OW21960   5.580   5.026   6.319
 3310SOL    HW121961   5.565   5.052   6.224
 3310SOL    HW221962   5.638   4.945   6.323
 3311SOL     OW21963   1.267   4.398   7.064
 3311SOL    HW121964   1.170   4.423   7.064
 3311SOL    HW221965   1.276   4.299   7.073
 3312SOL     OW21966   8.790   1.374   0.586
 3312SOL    HW121967   8.862   1.443   0.597
 3312SOL    HW221968   8.704   1.409   0.623
 3313SOL     OW21969   5.810   6.078   6.315
 3313SOL    HW121970   5.731   6.107   6.260
 3313SOL    HW221971   5.781   6.007   6.379
 3314SOL     OW21972   1.058   1.554   1.175
 3314SOL    HW121973   1.089   1.463   1.205
 3314SOL    HW221974   1.008   1.545   1.089
 3315SOL     OW21975   9.318   1.945   1.078
 3315SOL    HW121976   9.343   2.033   1.117
 3315SOL    HW221977   9.263   1.894   1.144
 3316SOL     OW21978   7.900   3.546   0.497
 3316SOL    HW121979   7.968   3.618   0.507
 3316SOL    HW221980   7.828   3.558   0.565
 3317SOL     OW21981   2.304   0.425   6.324
 3317SOL    HW121982   2.299   0.499   6.258
 3317SOL    HW221983   2.257   0.451   6.409
 3318SOL     OW21984   1.163   7.780   7.149
 3318SOL    HW121985   1.214   7.703   7.111
 3318SOL    HW221986   1.159   7.771   7.248
 3319SOL     OW21987   8.837   6.935   1.288
 3319SOL    HW121988   8.849   6.979   1.378
 3319SOL    HW221989   8.756   6.974   1.244
 3320SOL     OW21990   1.537   7.215   6.281
 3320SOL    HW121991   1.550   7.116   6.287
 3320SOL    HW221992   1.506   7.239   6.189
 3321SOL     OW21993   0.461   2.771   1.187
 3321SOL    HW121994   0.425   2.787   1.279
 3321SOL    HW221995   0.458   2.856   1.134
 3322SOL     OW21996   1.781   1.428   1.774
 3322SOL    HW121997   1.683   1.414   1.786
 3322SOL    HW221998   1.826   1.426   1.864
 3323SOL     OW21999   6.707   4.707   0.528
 3323SOL    HW122000   6.770   4.679   0.455
 3323SOL    HW222001   6.730   4.800   0.558
 3324SOL     OW22002   6.560   2.143   6.261
 3324SOL    HW122003   6.530   2.106   6.173
 3324SOL    HW222004   6.572   2.242   6.253
 3325SOL     OW22005   1.841   2.607   6.128
 3325SOL    HW122006   1.763   2.591   6.189
 3325SOL    HW222007   1.808   2.639   6.040
 3326SOL     OW22008   7.584   3.195   0.483
 3326SOL    HW122009   7.506   3.231   0.535
 3326SOL    HW222010   7.552   3.158   0.396
 3327SOL     OW22011   8.727   3.344   7.113
 3327SOL    HW122012   8.668   3.356   7.033
 3327SOL    HW222013   8.823   3.347   7.084
 3328SOL     OW22014   1.392   6.549   0.993
 3328SOL    HW122015   1.473   6.490   0.998
 3328SOL    HW222016   1.413   6.629   0.936
 3329SOL     OW22017   7.374   4.967   5.392
 3329SOL    HW122018   7.325   4.880   5.383
 3329SOL    HW222019   7.471   4.953   5.369
 3330SOL     OW22020   1.285   5.770   4.978
 3330SOL    HW122021   1.351   5.793   4.906
 3330SOL    HW222022   1.260   5.674   4.969
 3331SOL     OW22023   2.858   6.069   6.874
 3331SOL    HW122024   2.785   6.016   6.917
 3331SOL    HW222025   2.818   6.147   6.826
 3332SOL     OW22026   8.968   6.316   6.872
 3332SOL    HW122027   8.913   6.256   6.930
 3332SOL    HW222028   8.946   6.412   6.893
 3333SOL     OW22029   4.971   7.141   5.677
 3333SOL    HW122030   4.944   7.045   5.686
 3333SOL    HW222031   5.071   7.146   5.667
 3334SOL     OW22032   0.153   3.989   6.279
 3334SOL    HW122033   0.219   3.916   6.295
 3334SOL    HW222034   0.174   4.066   6.339
 3335SOL     OW22035   7.819   7.170   0.650
 3335SOL    HW122036   7.820   7.158   0.551
 3335SOL    HW222037   7.911   7.193   0.681
 3336SOL     OW22038   7.748   2.317   2.152
 3336SOL    HW122039   7.708   2.249   2.213
 3336SOL    HW222040   7.720   2.409   2.180
 3337SOL     OW22041   1.255   7.539   6.975
 3337SOL    HW122042   1.170   7.528   6.924
 3337SOL    HW222043   1.250   7.485   7.059
 3338SOL     OW22044   7.835   5.602   6.292
 3338SOL    HW122045   7.754   5.638   6.337
 3338SOL    HW222046   7.860   5.662   6.216
 3339SOL     OW22047   2.230   5.917   0.643
 3339SOL    HW122048   2.131   5.906   0.656
 3339SOL    HW222049   2.266   5.838   0.593
 3340SOL     OW22050   5.503   2.841   1.686
 3340SOL    HW122051   5.527   2.923   1.737
 3340SOL    HW222052   5.429   2.862   1.621
 3341SOL     OW22053   0.903   7.596   0.774
 3341SOL    HW122054   0.983   7.610   0.832
 3341SOL    HW222055   0.925   7.530   0.702
 3342SOL     OW22056   2.449   7.186   0.600
 3342SOL    HW122057   2.524   7.249   0.582
 3342SOL    HW222058   2.484   7.092   0.601
 3343SOL     OW22059   3.367   0.564   5.736
 3343SOL    HW122060   3.430   0.594   5.808
 3343SOL    HW222061   3.418   0.548   5.651
 3344SOL     OW22062   3.404   1.543   6.912
 3344SOL    HW122063   3.387   1.620   6.973
 3344SOL    HW222064   3.495   1.505   6.931
 3345SOL     OW22065   3.988   2.744   0.852
 3345SOL    HW122066   4.010   2.790   0.766
 3345SOL    HW222067   3.900   2.698   0.843
 3346SOL     OW22068   7.914   4.194   6.330
 3346SOL    HW122069   7.951   4.109   6.368
 3346SOL    HW222070   7.960   4.272   6.372
 3347SOL     OW22071   4.316   2.405   6.119
 3347SOL    HW122072   4.251   2.460   6.171
 3347SOL    HW222073   4.291   2.406   6.022
 3348SOL     OW22074   2.905   5.422   0.707
 3348SOL    HW122075   2.882   5.411   0.803
 3348SOL    HW222076   2.946   5.512   0.693
 3349SOL     OW22077   8.342   0.304   0.648
 3349SOL    HW122078   8.265   0.338   0.593
 3349SOL    HW222079   8.307   0.250   0.724
 3350SOL     OW22080   3.138   7.198   1.240
 3350SOL    HW122081   3.101   7.223   1.330
 3350SOL    HW222082   3.102   7.109   1.212
 3351SOL     OW22083   3.063   3.739   1.393
 3351SOL    HW122084   3.035   3.809   1.458
 3351SOL    HW222085   3.134   3.681   1.434
 3352SOL     OW22086   6.620   3.874   6.021
 3352SOL    HW122087   6.664   3.910   5.939
 3352SOL    HW222088   6.645   3.778   6.034
 3353SOL     OW22089   7.687   7.557   6.428
 3353SOL    HW122090   7.661   7.461   6.437
 3353SOL    HW222091   7.627   7.603   6.362
 3354SOL     OW22092   3.826   3.364   6.921
 3354SOL    HW122093   3.840   3.311   6.837
 3354SOL    HW222094   3.748   3.326   6.970
 3355SOL     OW22095   8.263   6.192   6.413
 3355SOL    HW122096   8.211   6.189   6.498
 3355SOL    HW222097   8.347   6.244   6.427
 3356SOL     OW22098   6.636   0.895   6.392
 3356SOL    HW122099   6.595   0.864   6.306
 3356SOL    HW222100   6.733   0.914   6.377
 3357SOL     OW22101   2.155   2.308   5.804
 3357SOL    HW122102   2.196   2.227   5.764
 3357SOL    HW222103   2.128   2.289   5.898
 3358SOL     OW22104   5.154   1.012   0.654
 3358SOL    HW122105   5.082   1.071   0.690
 3358SOL    HW222106   5.134   0.916   0.677
 3359SOL     OW22107   0.270   5.026   5.943
 3359SOL    HW122108   0.182   4.984   5.964
 3359SOL    HW222109   0.285   5.023   5.844
 3360SOL     OW22110   8.668   3.070   5.489
 3360SOL    HW122111   8.661   3.157   5.537
 3360SOL    HW222112   8.585   3.054   5.435
 3361SOL     OW22113   6.892   1.148   0.914
 3361SOL    HW122114   6.915   1.107   0.826
 3361SOL    HW222115   6.802   1.115   0.944
 3362SOL     OW22116   9.414   0.751   0.687
 3362SOL    HW122117   9.376   0.737   0.779
 3362SOL    HW222118   9.511   0.728   0.687
 3363SOL     OW22119   5.224   6.251   7.110
 3363SOL    HW122120   5.164   6.331   7.107
 3363SOL    HW222121   5.283   6.257   7.190
 3364SOL     OW22122   8.656   3.174   6.425
 3364SOL    HW122123   8.617   3.220   6.505
 3364SOL    HW222124   8.694   3.086   6.451
 3365SOL     OW22125   3.153   1.668   1.531
 3365SOL    HW122126   3.250   1.661   1.555
 3365SOL    HW222127   3.097   1.655   1.613
 3366SOL     OW22128   1.074   7.753   5.631
 3366SOL    HW122129   0.986   7.708   5.610
 3366SOL    HW222130   1.073   7.846   5.594
 3367SOL     OW22131   6.811   4.439   5.864
 3367SOL    HW122132   6.776   4.516   5.917
 3367SOL    HW222133   6.911   4.435   5.874
 3368SOL     OW22134   4.721   2.934   6.611
 3368SOL    HW122135   4.803   2.886   6.579
 3368SOL    HW222136   4.747   3.001   6.681
 3369SOL     OW22137   5.586   6.210   6.160
 3369SOL    HW122138   5.514   6.270   6.195
 3369SOL    HW222139   5.604   6.231   6.064
 3370SOL     OW22140   8.538   0.794   0.663
 3370SOL    HW122141   8.582   0.721   0.714
 3370SOL    HW222142   8.606   0.845   0.610
 3371SOL     OW22143   6.018   0.777   0.952
 3371SOL    HW122144   5.986   0.812   1.040
 3371SOL    HW222145   5.973   0.827   0.878
 3372SOL     OW22146   8.177   7.033   1.267
 3372SOL    HW122147   8.226   7.120   1.270
 3372SOL    HW222148   8.227   6.969   1.209
 3373SOL     OW22149   7.843   2.439   0.931
 3373SOL    HW122150   7.801   2.433   0.841
 3373SOL    HW222151   7.875   2.533   0.947
 3374SOL     OW22152   9.052   7.173   7.072
 3374SOL    HW122153   9.079   7.113   7.147
 3374SOL    HW222154   9.132   7.193   7.015
 3375SOL     OW22155   0.937   4.787   6.470
 3375SOL    HW122156   0.855   4.842   6.452
 3375SOL    HW222157   0.960   4.735   6.387
 3376SOL     OW22158   8.695   6.703   1.382
 3376SOL    HW122159   8.728   6.665   1.468
 3376SOL    HW222160   8.745   6.787   1.361
 3377SOL     OW22161   1.602   3.730   6.170
 3377SOL    HW122162   1.633   3.753   6.078
 3377SOL    HW222163   1.541   3.802   6.204
 3378SOL     OW22164   7.018   0.443   6.588
 3378SOL    HW122165   7.036   0.541   6.594
 3378SOL    HW222166   7.092   0.400   6.536
 3379SOL     OW22167   1.492   1.453   0.617
 3379SOL    HW122168   1.556   1.526   0.593
 3379SOL    HW222169   1.406   1.494   0.647
 3380SOL     OW22170   0.123   0.051   5.160
 3380SOL    HW122171   0.157   0.045   5.066
 3380SOL    HW222172   0.076   0.138   5.173
 3381SOL     OW22173   1.788   8.030   1.499
 3381SOL    HW122174   1.887   8.031   1.512
 3381SOL    HW222175   1.767   8.066   1.409
 3382SOL     OW22176   6.250   3.761   0.645
 3382SOL    HW122177   6.207   3.851   0.632
 3382SOL    HW222178   6.228   3.702   0.568
 3383SOL     OW22179   8.155   6.890   6.991
 3383SOL    HW122180   8.119   6.983   6.984
 3383SOL    HW222181   8.091   6.833   7.042
 3384SOL     OW22182   4.107   4.740   1.030
 3384SOL    HW122183   4.094   4.836   1.006
 3384SOL    HW222184   4.052   4.719   1.112
 3385SOL     OW22185   0.593   0.421   5.654
 3385SOL    HW122186   0.568   0.427   5.557
 3385SOL    HW222187   0.541   0.488   5.707
 3386SOL     OW22188   3.128   2.809   1.559
 3386SOL    HW122189   3.152   2.856   1.644
 3386SOL    HW222190   3.051   2.855   1.515
 3387SOL     OW22191   6.159   1.860   1.540
 3387SOL    HW122192   6.132   1.793   1.609
 3387SOL    HW222193   6.138   1.952   1.574
 3388SOL     OW22194   7.613   5.601   5.793
 3388SOL    HW122195   7.609   5.616   5.694
 3388SOL    HW222196   7.560   5.672   5.839
 3389SOL     OW22197   8.415   4.292   0.452
 3389SOL    HW122198   8.504   4.260   0.485
 3389SOL    HW222199   8.382   4.230   0.381
 3390SOL     OW22200   0.846   0.682   6.379
 3390SOL    HW122201   0.926   0.623   6.389
 3390SOL    HW222202   0.830   0.702   6.283
 3391SOL     OW22203   2.948   5.689   5.461
 3391SOL    HW122204   2.923   5.695   5.365
 3391SOL    HW222205   2.945   5.594   5.491
 3392SOL     OW22206   0.220   4.025   0.560
 3392SOL    HW122207   0.293   4.016   0.492
 3392SOL    HW222208   0.244   4.098   0.624
 3393SOL     OW22209   3.405   4.659   2.209
 3393SOL    HW122210   3.427   4.574   2.257
 3393SOL    HW222211   3.402   4.735   2.274
 3394SOL     OW22212   6.208   4.973   6.150
 3394SOL    HW122213   6.299   4.952   6.186
 3394SOL    HW222214   6.215   4.997   6.053
 3395SOL     OW22215   1.879   1.278   0.837
 3395SOL    HW122216   1.781   1.278   0.818
 3395SOL    HW222217   1.896   1.241   0.928
 3396SOL     OW22218   2.041   0.605   6.695
 3396SOL    HW122219   2.115   0.649   6.645
 3396SOL    HW222220   2.043   0.506   6.677
 3397SOL     OW22221   8.389   5.323   6.822
 3397SOL    HW122222   8.482   5.357   6.813
 3397SOL    HW222223   8.342   5.330   6.734
 3398SOL     OW22224   0.450   8.082   2.154
 3398SOL    HW122225   0.424   7.986   2.140
 3398SOL    HW222226   0.501   8.091   2.239
 3399SOL     OW22227   1.960   3.424   6.526
 3399SOL    HW122228   1.928   3.350   6.586
 3399SOL    HW222229   2.040   3.393   6.475
 3400SOL     OW22230   3.441   4.628   6.993
 3400SOL    HW122231   3.427   4.683   6.910
 3400SOL    HW222232   3.407   4.679   7.072
 3401SOL     OW22233   3.686   7.480   6.378
 3401SOL    HW122234   3.706   7.548   6.449
 3401SOL    HW222235   3.760   7.414   6.373
 3402SOL     OW22236   2.862   1.495   6.898
 3402SOL    HW122237   2.812   1.446   6.827
 3402SOL    HW222238   2.856   1.444   6.984
 3403SOL     OW22239   9.284   4.444   0.680
 3403SOL    HW122240   9.312   4.399   0.595
 3403SOL    HW222241   9.192   4.483   0.668
 3404SOL     OW22242   7.616   2.893   6.138
 3404SOL    HW122243   7.674   2.837   6.196
 3404SOL    HW222244   7.646   2.989   6.144
 3405SOL     OW22245   4.419   0.586   1.365
 3405SOL    HW122246   4.416   0.507   1.426
 3405SOL    HW222247   4.368   0.567   1.282
 3406SOL     OW22248   9.074   6.972   0.512
 3406SOL    HW122249   9.153   6.931   0.557
 3406SOL    HW222250   9.013   7.011   0.582
 3407SOL     OW22251   2.220   6.261   1.158
 3407SOL    HW122252   2.225   6.300   1.066
 3407SOL    HW222253   2.229   6.162   1.153
 3408SOL     OW22254   0.635   1.975   1.296
 3408SOL    HW122255   0.621   1.922   1.380
 3408SOL    HW222256   0.733   1.992   1.283
 3409SOL     OW22257   4.672   6.773   1.285
 3409SOL    HW122258   4.600   6.734   1.342
 3409SOL    HW222259   4.632   6.812   1.202
 3410SOL     OW22260   9.169   1.331   0.664
 3410SOL    HW122261   9.135   1.418   0.627
 3410SOL    HW222262   9.114   1.256   0.628
 3411SOL     OW22263   6.661   0.633   6.886
 3411SOL    HW122264   6.588   0.566   6.895
 3411SOL    HW222265   6.632   0.721   6.925
 3412SOL     OW22266   1.546   3.182   7.155
 3412SOL    HW122267   1.512   3.186   7.061
 3412SOL    HW222268   1.575   3.089   7.175
 3413SOL     OW22269   8.550   3.725   6.720
 3413SOL    HW122270   8.571   3.754   6.813
 3413SOL    HW222271   8.530   3.804   6.663
 3414SOL     OW22272   8.176   6.714   1.712
 3414SOL    HW122273   8.139   6.776   1.781
 3414SOL    HW222274   8.149   6.745   1.621
 3415SOL     OW22275   2.536   1.093   1.605
 3415SOL    HW122276   2.525   1.000   1.569
 3415SOL    HW222277   2.459   1.150   1.576
 3416SOL     OW22278   0.919   5.146   6.961
 3416SOL    HW122279   0.958   5.107   6.877
 3416SOL    HW222280   0.993   5.163   7.027
 3417SOL     OW22281   1.055   4.336   1.657
 3417SOL    HW122282   0.991   4.269   1.694
 3417SOL    HW222283   1.059   4.415   1.718
 3418SOL     OW22284   3.323   2.684   6.023
 3418SOL    HW122285   3.339   2.636   5.937
 3418SOL    HW222286   3.303   2.780   6.004
 3419SOL     OW22287   6.609   7.546   2.417
 3419SOL    HW122288   6.670   7.621   2.391
 3419SOL    HW222289   6.663   7.466   2.442
 3420SOL     OW22290   2.216   6.763   6.101
 3420SOL    HW122291   2.283   6.831   6.070
 3420SOL    HW222292   2.263   6.682   6.134
 3421SOL     OW22293   5.651   2.304   2.380
 3421SOL    HW122294   5.719   2.364   2.422
 3421SOL    HW222295   5.690   2.260   2.299
 3422SOL     OW22296   7.432   3.475   0.966
 3422SOL    HW122297   7.453   3.562   0.923
 3422SOL    HW222298   7.450   3.481   1.064
 3423SOL     OW22299   1.569   4.767   7.126
 3423SOL    HW122300   1.667   4.743   7.130
 3423SOL    HW222301   1.552   4.825   7.047
 3424SOL     OW22302   6.990   2.853   1.308
 3424SOL    HW122303   6.994   2.898   1.219
 3424SOL    HW222304   7.049   2.900   1.372
 3425SOL     OW22305   9.477   5.609   5.449
 3425SOL    HW122306   9.560   5.558   5.473
 3425SOL    HW222307   9.424   5.558   5.382
 3426SOL     OW22308   5.515   3.248   0.509
 3426SOL    HW122309   5.607   3.222   0.536
 3426SOL    HW222310   5.493   3.338   0.547
 3427SOL     OW22311   8.596   6.297   1.772
 3427SOL    HW122312   8.555   6.370   1.827
 3427SOL    HW222313   8.684   6.328   1.735
 3428SOL     OW22314   7.233   5.587   0.464
 3428SOL    HW122315   7.175   5.665   0.488
 3428SOL    HW222316   7.209   5.508   0.520
 3429SOL     OW22317   3.869   7.163   5.757
 3429SOL    HW122318   3.917   7.185   5.672
 3429SOL    HW222319   3.858   7.246   5.812
 3430SOL     OW22320   2.958   0.186   1.316
 3430SOL    HW122321   3.008   0.101   1.301
 3430SOL    HW222322   3.022   0.257   1.347
 3431SOL     OW22323   0.656   3.645   7.049
 3431SOL    HW122324   0.593   3.567   7.058
 3431SOL    HW222325   0.736   3.617   6.996
 3432SOL     OW22326   2.358   4.007   1.583
 3432SOL    HW122327   2.379   4.027   1.488
 3432SOL    HW222328   2.436   4.033   1.641
 3433SOL     OW22329   1.693   0.015   1.381
 3433SOL    HW122330   1.788   0.031   1.408
 3433SOL    HW222331   1.640  -0.014   1.461
 3434SOL     OW22332   7.056   1.453   5.889
 3434SOL    HW122333   6.987   1.385   5.912
 3434SOL    HW222334   7.147   1.412   5.895
 3435SOL     OW22335   1.099   2.332   1.913
 3435SOL    HW122336   1.128   2.420   1.951
 3435SOL    HW222337   1.049   2.280   1.983
 3436SOL     OW22338   5.937   1.514   1.364
 3436SOL    HW122339   5.871   1.459   1.416
 3436SOL    HW222340   5.991   1.454   1.305
 3437SOL     OW22341   8.051   8.025   6.627
 3437SOL    HW122342   8.066   8.022   6.726
 3437SOL    HW222343   7.964   8.070   6.608
 3438SOL     OW22344   7.840   7.507   0.833
 3438SOL    HW122345   7.760   7.520   0.892
 3438SOL    HW222346   7.908   7.451   0.880
 3439SOL     OW22347   6.804   6.371   5.111
 3439SOL    HW122348   6.721   6.382   5.056
 3439SOL    HW222349   6.832   6.275   5.110
 3440SOL     OW22350   7.651   4.151   6.279
 3440SOL    HW122351   7.740   4.161   6.325
 3440SOL    HW222352   7.637   4.055   6.256
 3441SOL     OW22353   1.183   0.434   5.633
 3441SOL    HW122354   1.145   0.366   5.697
 3441SOL    HW222355   1.190   0.393   5.542
 3442SOL     OW22356   3.901   6.557   1.471
 3442SOL    HW122357   3.826   6.592   1.527
 3442SOL    HW222358   3.916   6.460   1.492
 3443SOL     OW22359   8.579   6.999   1.152
 3443SOL    HW122360   8.639   6.970   1.077
 3443SOL    HW222361   8.510   6.929   1.168
 3444SOL     OW22362   6.408   8.024   0.532
 3444SOL    HW122363   6.470   7.952   0.562
 3444SOL    HW222364   6.426   8.108   0.583
 3445SOL     OW22365   9.022   1.188   6.954
 3445SOL    HW122366   8.955   1.179   7.028
 3445SOL    HW222367   9.091   1.116   6.963
 3446SOL     OW22368   1.919   7.690   0.562
 3446SOL    HW122369   1.843   7.662   0.503
 3446SOL    HW222370   1.894   7.773   0.612
 3447SOL     OW22371   2.686   3.665   1.694
 3447SOL    HW122372   2.591   3.696   1.709
 3447SOL    HW222373   2.726   3.638   1.781
 3448SOL     OW22374   3.064   5.431   5.249
 3448SOL    HW122375   3.023   5.370   5.317
 3448SOL    HW222376   2.993   5.489   5.209
 3449SOL     OW22377   6.617  -0.027   0.839
 3449SOL    HW122378   6.531  -0.012   0.790
 3449SOL    HW222379   6.610   0.007   0.932
 3450SOL     OW22380   7.520   4.820   0.508
 3450SOL    HW122381   7.616   4.846   0.511
 3450SOL    HW222382   7.488   4.800   0.601
 3451SOL     OW22383   8.216   6.934   5.618
 3451SOL    HW122384   8.279   7.005   5.586
 3451SOL    HW222385   8.168   6.894   5.540
 3452SOL     OW22386   0.923   7.370   4.504
 3452SOL    HW122387   0.970   7.457   4.490
 3452SOL    HW222388   0.980   7.309   4.559
 3453SOL     OW22389   2.168   3.339   1.267
 3453SOL    HW122390   2.218   3.421   1.239
 3453SOL    HW222391   2.211   3.258   1.226
 3454SOL     OW22392   5.379   4.766   6.738
 3454SOL    HW122393   5.476   4.765   6.713
 3454SOL    HW222394   5.347   4.672   6.750
 3455SOL     OW22395   5.027   1.699   2.174
 3455SOL    HW122396   5.086   1.650   2.237
 3455SOL    HW222397   4.961   1.753   2.225
 3456SOL     OW22398   8.946   1.766   6.955
 3456SOL    HW122399   8.886   1.686   6.947
 3456SOL    HW222400   9.023   1.757   6.892
 3457SOL     OW22401   4.749   7.696   0.553
 3457SOL    HW122402   4.809   7.616   0.553
 3457SOL    HW222403   4.667   7.677   0.498
 3458SOL     OW22404   7.624   1.365   6.653
 3458SOL    HW122405   7.717   1.329   6.658
 3458SOL    HW222406   7.612   1.435   6.723
 3459SOL     OW22407   8.843   5.224   5.603
 3459SOL    HW122408   8.891   5.174   5.531
 3459SOL    HW222409   8.801   5.306   5.565
 3460SOL     OW22410   7.686   2.709   6.774
 3460SOL    HW122411   7.686   2.664   6.864
 3460SOL    HW222412   7.594   2.704   6.735
 3461SOL     OW22413   1.429   6.579   1.296
 3461SOL    HW122414   1.405   6.560   1.201
 3461SOL    HW222415   1.496   6.512   1.327
 3462SOL     OW22416   4.046   1.667   7.010
 3462SOL    HW122417   4.093   1.695   6.927
 3462SOL    HW222418   4.057   1.736   7.081
 3463SOL     OW22419   0.531   6.836   6.613
 3463SOL    HW122420   0.585   6.920   6.619
 3463SOL    HW222421   0.444   6.849   6.660
 3464SOL     OW22422   4.277   3.230   2.133
 3464SOL    HW122423   4.259   3.296   2.059
 3464SOL    HW222424   4.344   3.163   2.102
 3465SOL     OW22425   9.265   2.840   2.151
 3465SOL    HW122426   9.309   2.928   2.166
 3465SOL    HW222427   9.169   2.845   2.180
 3466SOL     OW22428   1.689   8.010   4.583
 3466SOL    HW122429   1.626   8.088   4.577
 3466SOL    HW222430   1.693   7.978   4.678
 3467SOL     OW22431   1.674   2.926   5.926
 3467SOL    HW122432   1.689   3.013   5.972
 3467SOL    HW222433   1.627   2.941   5.839
 3468SOL     OW22434   2.804   6.548   6.666
 3468SOL    HW122435   2.854   6.629   6.637
 3468SOL    HW222436   2.779   6.557   6.762
 3469SOL     OW22437   8.303   8.268   0.482
 3469SOL    HW122438   8.284   8.182   0.434
 3469SOL    HW222439   8.267   8.263   0.575
 3470SOL     OW22440   1.672   3.752   5.882
 3470SOL    HW122441   1.723   3.733   5.798
 3470SOL    HW222442   1.600   3.684   5.894
 3471SOL     OW22443   3.822   0.078   7.084
 3471SOL    HW122444   3.750   0.108   7.147
 3471SOL    HW222445   3.902   0.047   7.137
 3472SOL     OW22446   2.496   1.638   1.802
 3472SOL    HW122447   2.404   1.676   1.810
 3472SOL    HW222448   2.559   1.693   1.857
 3473SOL     OW22449   7.323   7.797   6.980
 3473SOL    HW122450   7.315   7.823   6.884
 3473SOL    HW222451   7.232   7.779   7.018
 3474SOL     OW22452   1.572   3.403   6.814
 3474SOL    HW122453   1.548   3.458   6.734
 3474SOL    HW222454   1.517   3.320   6.815
 3475SOL     OW22455   6.438   4.406   6.159
 3475SOL    HW122456   6.520   4.388   6.213
 3475SOL    HW222457   6.409   4.501   6.172
 3476SOL     OW22458   0.791   1.837   5.416
 3476SOL    HW122459   0.806   1.752   5.366
 3476SOL    HW222460   0.847   1.910   5.375
 3477SOL     OW22461   4.560   0.138   5.676
 3477SOL    HW122462   4.628   0.091   5.621
 3477SOL    HW222463   4.472   0.091   5.668
 3478SOL     OW22464   7.734   2.699   1.185
 3478SOL    HW122465   7.733   2.675   1.282
 3478SOL    HW222466   7.827   2.690   1.149
 3479SOL     OW22467   7.447   5.406   0.699
 3479SOL    HW122468   7.472   5.487   0.753
 3479SOL    HW222469   7.500   5.406   0.614
 3480SOL     OW22470   1.134   6.083   6.218
 3480SOL    HW122471   1.087   6.171   6.226
 3480SOL    HW222472   1.083   6.014   6.269
 3481SOL     OW22473   3.068   8.431   5.768
 3481SOL    HW122474   3.122   8.362   5.720
 3481SOL    HW222475   2.996   8.386   5.821
 3482SOL     OW22476   2.293   0.089   5.957
 3482SOL    HW122477   2.273   0.026   5.882
 3482SOL    HW222478   2.390   0.110   5.959
 3483SOL     OW22479   5.293   6.349   6.093
 3483SOL    HW122480   5.301   6.355   6.193
 3483SOL    HW222481   5.201   6.377   6.066
 3484SOL     OW22482   5.539   0.517   1.930
 3484SOL    HW122483   5.549   0.582   2.005
 3484SOL    HW222484   5.625   0.510   1.880
 3485SOL     OW22485   5.270   5.670   5.777
 3485SOL    HW122486   5.312   5.760   5.792
 3485SOL    HW222487   5.218   5.671   5.692
 3486SOL     OW22488   1.043   4.891   5.090
 3486SOL    HW122489   1.092   4.827   5.151
 3486SOL    HW222490   1.109   4.953   5.047
 3487SOL     OW22491   1.968   3.244   6.229
 3487SOL    HW122492   2.029   3.318   6.199
 3487SOL    HW222493   1.908   3.278   6.301
 3488SOL     OW22494   0.123   0.213   6.135
 3488SOL    HW122495   0.203   0.165   6.170
 3488SOL    HW222496   0.051   0.146   6.115
 3489SOL     OW22497   7.772   8.432   0.917
 3489SOL    HW122498   7.745   8.405   0.824
 3489SOL    HW222499   7.775   8.531   0.923
 3490SOL     OW22500   0.628   0.961   1.590
 3490SOL    HW122501   0.694   0.888   1.572
 3490SOL    HW222502   0.548   0.922   1.636
 3491SOL     OW22503   1.259   1.900   6.132
 3491SOL    HW122504   1.296   1.807   6.133
 3491SOL    HW222505   1.330   1.964   6.101
 3492SOL     OW22506   0.126   5.431   1.795
 3492SOL    HW122507   0.143   5.482   1.711
 3492SOL    HW222508   0.137   5.492   1.874
 3493SOL     OW22509   6.757   0.399   6.704
 3493SOL    HW122510   6.817   0.408   6.625
 3493SOL    HW222511   6.756   0.484   6.756
 3494SOL     OW22512   0.829   6.703   0.678
 3494SOL    HW122513   0.864   6.742   0.592
 3494SOL    HW222514   0.847   6.767   0.753
 3495SOL     OW22515   6.805   2.700   1.415
 3495SOL    HW122516   6.827   2.603   1.432
 3495SOL    HW222517   6.886   2.746   1.378
 3496SOL     OW22518   2.852   0.824   1.159
 3496SOL    HW122519   2.775   0.859   1.104
 3496SOL    HW222520   2.932   0.813   1.101
 3497SOL     OW22521   7.727   1.807   6.757
 3497SOL    HW122522   7.655   1.738   6.750
 3497SOL    HW222523   7.797   1.777   6.821
 3498SOL     OW22524   5.115   1.957   1.034
 3498SOL    HW122525   5.192   2.004   1.080
 3498SOL    HW222526   5.080   2.015   0.961
 3499SOL     OW22527   0.616   6.281   1.645
 3499SOL    HW122528   0.644   6.377   1.642
 3499SOL    HW222529   0.608   6.251   1.740
 3500SOL     OW22530   6.213   6.360   6.447
 3500SOL    HW122531   6.255   6.441   6.487
 3500SOL    HW222532   6.212   6.368   6.348
 3501SOL     OW22533   6.464   0.827   0.991
 3501SOL    HW122534   6.392   0.863   1.050
 3501SOL    HW222535   6.434   0.830   0.895
 3502SOL     OW22536   9.142   5.749   1.001
 3502SOL    HW122537   9.145   5.849   1.002
 3502SOL    HW222538   9.047   5.718   1.012
 3503SOL     OW22539   9.171   7.053   5.412
 3503SOL    HW122540   9.160   7.138   5.464
 3503SOL    HW222541   9.264   7.049   5.375
 3504SOL     OW22542   9.365   8.144   6.872
 3504SOL    HW122543   9.290   8.203   6.902
 3504SOL    HW222544   9.354   8.122   6.775
 3505SOL     OW22545   5.546   1.157   6.108
 3505SOL    HW122546   5.548   1.199   6.198
 3505SOL    HW222547   5.553   1.058   6.117
 3506SOL     OW22548   2.677   8.124   6.277
 3506SOL    HW122549   2.704   8.055   6.209
 3506SOL    HW222550   2.750   8.191   6.288
 3507SOL     OW22551   0.946   3.246   5.347
 3507SOL    HW122552   0.904   3.337   5.341
 3507SOL    HW222553   1.019   3.248   5.416
 3508SOL     OW22554   8.133   6.510   5.948
 3508SOL    HW122555   8.231   6.490   5.952
 3508SOL    HW222556   8.088   6.476   6.030
 3509SOL     OW22557   8.471   0.654   6.762
 3509SOL    HW122558   8.459   0.595   6.843
 3509SOL    HW222559   8.423   0.740   6.777
 3510SOL     OW22560   1.373   7.213   6.577
 3510SOL    HW122561   1.438   7.177   6.645
 3510SOL    HW222562   1.417   7.216   6.487
 3511SOL     OW22563   1.338   6.964   0.952
 3511SOL    HW122564   1.343   7.016   1.037
 3511SOL    HW222565   1.421   6.910   0.941
 3512SOL     OW22566   8.484   3.110   1.367
 3512SOL    HW122567   8.450   3.198   1.333
 3512SOL    HW222568   8.583   3.113   1.373
 3513SOL     OW22569   7.007   4.544   5.573
 3513SOL    HW122570   7.059   4.513   5.653
 3513SOL    HW222571   7.037   4.493   5.492
 3514SOL     OW22572   0.607   1.359   6.153
 3514SOL    HW122573   0.634   1.455   6.146
 3514SOL    HW222574   0.530   1.342   6.091
 3515SOL     OW22575   2.116   3.279   5.845
 3515SOL    HW122576   2.047   3.228   5.793
 3515SOL    HW222577   2.193   3.218   5.867
 3516SOL     OW22578   7.842   4.677   6.305
 3516SOL    HW122579   7.762   4.629   6.269
 3516SOL    HW222580   7.892   4.720   6.230
 3517SOL     OW22581   7.413   3.983   0.488
 3517SOL    HW122582   7.456   4.044   0.421
 3517SOL    HW222583   7.316   4.005   0.495
 3518SOL     OW22584   3.728   2.279   6.183
 3518SOL    HW122585   3.743   2.237   6.093
 3518SOL    HW222586   3.783   2.233   6.252
 3519SOL     OW22587   8.478   0.924   1.600
 3519SOL    HW122588   8.519   0.856   1.540
 3519SOL    HW222589   8.527   1.010   1.592
 3520SOL     OW22590   5.926   8.111   0.841
 3520SOL    HW122591   5.906   8.177   0.769
 3520SOL    HW222592   5.850   8.109   0.906
 3521SOL     OW22593   3.511   6.125   2.259
 3521SOL    HW122594   3.573   6.047   2.268
 3521SOL    HW222595   3.432   6.111   2.319
 3522SOL     OW22596   6.720   7.407   6.328
 3522SOL    HW122597   6.727   7.309   6.311
 3522SOL    HW222598   6.724   7.425   6.426
 3523SOL     OW22599   5.472   8.234   6.211
 3523SOL    HW122600   5.485   8.286   6.127
 3523SOL    HW222601   5.560   8.208   6.248
 3524SOL     OW22602   4.425   0.436   0.819
 3524SOL    HW122603   4.518   0.466   0.840
 3524SOL    HW222604   4.405   0.352   0.870
 3525SOL     OW22605   2.609   0.678   1.806
 3525SOL    HW122606   2.531   0.736   1.784
 3525SOL    HW222607   2.584   0.613   1.877
 3526SOL     OW22608   6.445   5.478   0.805
 3526SOL    HW122609   6.511   5.487   0.880
 3526SOL    HW222610   6.385   5.559   0.804
 3527SOL     OW22611   7.467   3.516   0.628
 3527SOL    HW122612   7.437   3.580   0.699
 3527SOL    HW222613   7.413   3.432   0.634
 3528SOL     OW22614   3.646   1.772   0.926
 3528SOL    HW122615   3.704   1.694   0.950
 3528SOL    HW222616   3.616   1.764   0.832
 3529SOL     OW22617   3.588   0.691   6.454
 3529SOL    HW122618   3.588   0.757   6.529
 3529SOL    HW222619   3.668   0.632   6.461
 3530SOL     OW22620   5.289   5.394   1.588
 3530SOL    HW122621   5.341   5.311   1.609
 3530SOL    HW222622   5.345   5.474   1.609
 3531SOL     OW22623   2.858   4.062   5.693
 3531SOL    HW122624   2.881   3.965   5.683
 3531SOL    HW222625   2.771   4.071   5.740
 3532SOL     OW22626   0.937   5.133   6.312
 3532SOL    HW122627   0.892   5.094   6.392
 3532SOL    HW222628   0.877   5.204   6.272
 3533SOL     OW22629   0.924   0.293   7.126
 3533SOL    HW122630   0.851   0.261   7.066
 3533SOL    HW222631   0.892   0.290   7.221
 3534SOL     OW22632   6.668   6.848   1.578
 3534SOL    HW122633   6.702   6.843   1.672
 3534SOL    HW222634   6.592   6.912   1.573
 3535SOL     OW22635   9.543   7.351   1.150
 3535SOL    HW122636   9.508   7.266   1.190
 3535SOL    HW222637   9.642   7.357   1.166
 3536SOL     OW22638   1.919   2.541   0.514
 3536SOL    HW122639   1.945   2.466   0.452
 3536SOL    HW222640   1.829   2.575   0.488
 3537SOL     OW22641   5.059   6.428   5.983
 3537SOL    HW122642   4.979   6.393   6.031
 3537SOL    HW222643   5.042   6.427   5.885
 3538SOL     OW22644   5.344   6.096   6.325
 3538SOL    HW122645   5.348   6.053   6.235
 3538SOL    HW222646   5.335   6.026   6.396
 3539SOL     OW22647   0.678  -0.013   2.180
 3539SOL    HW122648   0.764  -0.056   2.209
 3539SOL    HW222649   0.685   0.086   2.193
 3540SOL     OW22650   6.136   3.891   1.170
 3540SOL    HW122651   6.177   3.814   1.120
 3540SOL    HW222652   6.087   3.950   1.106
 3541SOL     OW22653   3.938   7.779   6.714
 3541SOL    HW122654   4.019   7.744   6.668
 3541SOL    HW222655   3.938   7.748   6.809
 3542SOL     OW22656   6.268   7.949   1.098
 3542SOL    HW122657   6.315   7.884   1.157
 3542SOL    HW222658   6.263   7.913   1.005
 3543SOL     OW22659   8.705   6.336   7.105
 3543SOL    HW122660   8.621   6.283   7.111
 3543SOL    HW222661   8.703   6.411   7.170
 3544SOL     OW22662   5.780   4.810   1.187
 3544SOL    HW122663   5.722   4.735   1.217
 3544SOL    HW222664   5.788   4.807   1.087
 3545SOL     OW22665   4.160   1.697   6.750
 3545SOL    HW122666   4.231   1.767   6.757
 3545SOL    HW222667   4.189   1.625   6.688
 3546SOL     OW22668   9.162   3.488   5.724
 3546SOL    HW122669   9.078   3.453   5.682
 3546SOL    HW222670   9.235   3.490   5.656
 3547SOL     OW22671   4.499   6.310   5.784
 3547SOL    HW122672   4.423   6.253   5.756
 3547SOL    HW222673   4.581   6.285   5.732
 3548SOL     OW22674   7.366   3.876   1.736
 3548SOL    HW122675   7.359   3.893   1.834
 3548SOL    HW222676   7.342   3.959   1.686
 3549SOL     OW22677   5.723   0.662   6.081
 3549SOL    HW122678   5.712   0.616   6.169
 3549SOL    HW222679   5.753   0.595   6.012
 3550SOL     OW22680   8.666   2.926   1.003
 3550SOL    HW122681   8.581   2.978   1.014
 3550SOL    HW222682   8.716   2.960   0.924
 3551SOL     OW22683   6.141   0.687   0.697
 3551SOL    HW122684   6.147   0.787   0.688
 3551SOL    HW222685   6.224   0.645   0.662
 3552SOL     OW22686   8.796   0.819   0.870
 3552SOL    HW122687   8.718   0.845   0.926
 3552SOL    HW222688   8.765   0.800   0.776
 3553SOL     OW22689   6.562   6.856   6.541
 3553SOL    HW122690   6.518   6.823   6.625
 3553SOL    HW222691   6.648   6.808   6.527
 3554SOL     OW22692   3.505   1.073   2.384
 3554SOL    HW122693   3.526   1.011   2.460
 3554SOL    HW222694   3.590   1.098   2.338
 3555SOL     OW22695   7.451   1.192   6.810
 3555SOL    HW122696   7.485   1.241   6.731
 3555SOL    HW222697   7.375   1.132   6.782
 3556SOL     OW22698   5.450   0.906   6.456
 3556SOL    HW122699   5.390   0.966   6.404
 3556SOL    HW222700   5.535   0.953   6.477
 3557SOL     OW22701   2.430   7.432   2.008
 3557SOL    HW122702   2.502   7.452   2.074
 3557SOL    HW222703   2.359   7.377   2.051
 3558SOL     OW22704   9.230   2.451   6.041
 3558SOL    HW122705   9.324   2.482   6.029
 3558SOL    HW222706   9.182   2.457   5.953
 3559SOL     OW22707   3.783   2.534   0.499
 3559SOL    HW122708   3.755   2.439   0.514
 3559SOL    HW222709   3.725   2.595   0.553
 3560SOL     OW22710   8.905   3.750   6.745
 3560SOL    HW122711   8.963   3.767   6.824
 3560SOL    HW222712   8.915   3.825   6.680
 3561SOL     OW22713   8.851   7.150   5.231
 3561SOL    HW122714   8.891   7.107   5.151
 3561SOL    HW222715   8.890   7.241   5.244
 3562SOL     OW22716   3.137   3.410   0.522
 3562SOL    HW122717   3.229   3.445   0.540
 3562SOL    HW222718   3.117   3.420   0.424
 3563SOL     OW22719   5.877   5.949   5.645
 3563SOL    HW122720   5.791   5.923   5.690
 3563SOL    HW222721   5.857   5.999   5.561
 3564SOL     OW22722   0.524   3.012   6.069
 3564SOL    HW122723   0.472   3.072   6.008
 3564SOL    HW222724   0.511   3.041   6.163
 3565SOL     OW22725   1.132   0.879   7.046
 3565SOL    HW122726   1.158   0.783   7.032
 3565SOL    HW222727   1.055   0.883   7.109
 3566SOL     OW22728   2.033   6.383   6.413
 3566SOL    HW122729   1.977   6.464   6.393
 3566SOL    HW222730   2.089   6.361   6.333
 3567SOL     OW22731   4.885   0.428   5.176
 3567SOL    HW122732   4.952   0.387   5.114
 3567SOL    HW222733   4.896   0.528   5.174
 3568SOL     OW22734   5.813   4.723   1.509
 3568SOL    HW122735   5.740   4.727   1.577
 3568SOL    HW222736   5.773   4.715   1.418
 3569SOL     OW22737   8.883   1.920   1.104
 3569SOL    HW122738   8.902   1.934   1.007
 3569SOL    HW222739   8.838   2.002   1.141
 3570SOL     OW22740   8.764   4.417   1.104
 3570SOL    HW122741   8.845   4.402   1.047
 3570SOL    HW222742   8.745   4.335   1.158
 3571SOL     OW22743   6.713   4.719   1.223
 3571SOL    HW122744   6.743   4.641   1.278
 3571SOL    HW222745   6.766   4.722   1.138
 3572SOL     OW22746   8.549   6.609   5.162
 3572SOL    HW122747   8.639   6.644   5.136
 3572SOL    HW222748   8.482   6.682   5.156
 3573SOL     OW22749   0.954   1.661   1.422
 3573SOL    HW122750   0.858   1.689   1.424
 3573SOL    HW222751   0.980   1.636   1.329
 3574SOL     OW22752   2.074   2.263   6.085
 3574SOL    HW122753   2.033   2.205   6.155
 3574SOL    HW222754   2.088   2.355   6.122
 3575SOL     OW22755   1.742   3.249   6.381
 3575SOL    HW122756   1.752   3.248   6.480
 3575SOL    HW222757   1.673   3.317   6.355
 3576SOL     OW22758   5.540   6.466   5.665
 3576SOL    HW122759   5.612   6.406   5.630
 3576SOL    HW222760   5.468   6.476   5.596
 3577SOL     OW22761   5.139   0.128   5.411
 3577SOL    HW122762   5.230   0.116   5.370
 3577SOL    HW222763   5.072   0.075   5.360
 3578SOL     OW22764   1.785   7.480   5.794
 3578SOL    HW122765   1.803   7.577   5.810
 3578SOL    HW222766   1.706   7.470   5.734
 3579SOL     OW22767   3.555   2.959   5.739
 3579SOL    HW122768   3.597   3.002   5.818
 3579SOL    HW222769   3.455   2.966   5.746
 3580SOL     OW22770   2.921   2.264   6.493
 3580SOL    HW122771   2.898   2.167   6.504
 3580SOL    HW222772   2.852   2.320   6.538
 3581SOL     OW22773   0.764   8.122   6.486
 3581SOL    HW122774   0.848   8.083   6.526
 3581SOL    HW222775   0.754   8.089   6.392
 3582SOL     OW22776   3.850   5.138   1.274
 3582SOL    HW122777   3.861   5.042   1.249
 3582SOL    HW222778   3.754   5.163   1.272
 3583SOL     OW22779   7.401   6.704   1.587
 3583SOL    HW122780   7.389   6.725   1.684
 3583SOL    HW222781   7.470   6.633   1.576
 3584SOL     OW22782   7.532   1.298   6.001
 3584SOL    HW122783   7.440   1.270   5.974
 3584SOL    HW222784   7.533   1.396   6.019
 3585SOL     OW22785   5.629   4.818   6.644
 3585SOL    HW122786   5.716   4.861   6.667
 3585SOL    HW222787   5.602   4.845   6.552
 3586SOL     OW22788   3.090   0.040   6.293
 3586SOL    HW122789   3.122   0.030   6.198
 3586SOL    HW222790   3.015   0.105   6.296
 3587SOL     OW22791   3.238   5.215   0.954
 3587SOL    HW122792   3.263   5.293   1.011
 3587SOL    HW222793   3.238   5.131   1.008
 3588SOL     OW22794   8.360   6.881   5.081
 3588SOL    HW122795   8.294   6.955   5.072
 3588SOL    HW222796   8.322   6.797   5.043
 3589SOL     OW22797   0.794   8.138   4.998
 3589SOL    HW122798   0.738   8.056   4.988
 3589SOL    HW222799   0.749   8.214   4.951
 3590SOL     OW22800   4.593   6.877   6.201
 3590SOL    HW122801   4.518   6.834   6.151
 3590SOL    HW222802   4.561   6.964   6.240
 3591SOL     OW22803   1.942   5.996   6.275
 3591SOL    HW122804   1.929   6.081   6.224
 3591SOL    HW222805   1.852   5.961   6.305
 3592SOL     OW22806   3.055   3.968   5.954
 3592SOL    HW122807   3.050   3.982   6.053
 3592SOL    HW222808   3.100   4.046   5.912
 3593SOL     OW22809   8.700   6.836   5.558
 3593SOL    HW122810   8.792   6.799   5.544
 3593SOL    HW222811   8.675   6.894   5.481
 3594SOL     OW22812   4.106   0.160   5.212
 3594SOL    HW122813   4.026   0.174   5.154
 3594SOL    HW222814   4.185   0.137   5.155
 3595SOL     OW22815   5.332   6.129   1.192
 3595SOL    HW122816   5.253   6.186   1.214
 3595SOL    HW222817   5.411   6.159   1.246
 3596SOL     OW22818   6.263   5.689   2.040
 3596SOL    HW122819   6.283   5.787   2.041
 3596SOL    HW222820   6.221   5.662   2.126
 3597SOL     OW22821   2.747   5.187   6.959
 3597SOL    HW122822   2.706   5.243   6.887
 3597SOL    HW222823   2.838   5.224   6.981
 3598SOL     OW22824   7.271   4.828   6.264
 3598SOL    HW122825   7.290   4.918   6.305
 3598SOL    HW222826   7.314   4.757   6.319
 3599SOL     OW22827   1.038   2.857   6.854
 3599SOL    HW122828   0.939   2.844   6.863
 3599SOL    HW222829   1.079   2.772   6.821
 3600SOL     OW22830   3.007   2.573   1.492
 3600SOL    HW122831   2.922   2.576   1.545
 3600SOL    HW222832   3.063   2.653   1.515
 3601SOL     OW22833   8.280   8.007   1.294
 3601SOL    HW122834   8.325   8.023   1.382
 3601SOL    HW222835   8.193   7.959   1.308
 3602SOL     OW22836   6.684   2.058   5.821
 3602SOL    HW122837   6.764   2.087   5.768
 3602SOL    HW222838   6.656   1.967   5.791
 3603SOL     OW22839   8.257   7.185   0.449
 3603SOL    HW122840   8.315   7.266   0.439
 3603SOL    HW222841   8.279   7.139   0.535
 3604SOL     OW22842   5.791   0.370   6.616
 3604SOL    HW122843   5.788   0.435   6.691
 3604SOL    HW222844   5.749   0.284   6.645
 3605SOL     OW22845   1.638   6.576   6.249
 3605SOL    HW122846   1.705   6.504   6.267
 3605SOL    HW222847   1.577   6.585   6.327
 3606SOL     OW22848   6.084   8.094   6.581
 3606SOL    HW122849   6.035   8.146   6.511
 3606SOL    HW222850   6.091   8.150   6.664
 3607SOL     OW22851   1.430   7.982   1.252
 3607SOL    HW122852   1.380   7.902   1.286
 3607SOL    HW222853   1.480   8.025   1.327
 3608SOL     OW22854   7.388   6.470   6.038
 3608SOL    HW122855   7.427   6.562   6.052
 3608SOL    HW222856   7.322   6.451   6.110
 3609SOL     OW22857   4.149   6.392   5.737
 3609SOL    HW122858   4.128   6.405   5.640
 3609SOL    HW222859   4.207   6.311   5.747
 3610SOL     OW22860   6.466   7.062   0.796
 3610SOL    HW122861   6.514   7.118   0.864
 3610SOL    HW222862   6.532   7.030   0.728
 3611SOL     OW22863   1.460   5.369   5.852
 3611SOL    HW122864   1.439   5.389   5.948
 3611SOL    HW222865   1.461   5.455   5.800
 3612SOL     OW22866   2.864   7.158   2.483
 3612SOL    HW122867   2.846   7.206   2.569
 3612SOL    HW222868   2.835   7.215   2.406
 3613SOL     OW22869   5.187   0.009   5.675
 3613SOL    HW122870   5.275   0.055   5.666
 3613SOL    HW222871   5.118   0.058   5.621
 3614SOL     OW22872   1.414   4.731   5.939
 3614SOL    HW122873   1.476   4.738   6.017
 3614SOL    HW222874   1.422   4.640   5.898
 3615SOL     OW22875   1.759   5.886   5.352
 3615SOL    HW122876   1.745   5.788   5.343
 3615SOL    HW222877   1.809   5.920   5.273
 3616SOL     OW22878   8.468   8.226   5.932
 3616SOL    HW122879   8.522   8.228   6.016
 3616SOL    HW222880   8.513   8.283   5.863
 3617SOL     OW22881   4.437   8.285   6.144
 3617SOL    HW122882   4.363   8.272   6.077
 3617SOL    HW222883   4.492   8.365   6.118
 3618SOL     OW22884   7.249   4.725   5.389
 3618SOL    HW122885   7.319   4.668   5.431
 3618SOL    HW222886   7.192   4.669   5.328
 3619SOL     OW22887   8.268   4.532   6.788
 3619SOL    HW122888   8.290   4.438   6.764
 3619SOL    HW222889   8.205   4.533   6.866
 3620SOL     OW22890   2.422   2.182   1.030
 3620SOL    HW122891   2.488   2.108   1.038
 3620SOL    HW222892   2.333   2.150   1.063
 3621SOL     OW22893   2.033   1.503   6.202
 3621SOL    HW122894   1.966   1.431   6.220
 3621SOL    HW222895   2.123   1.462   6.192
 3622SOL     OW22896   5.657   6.248   6.482
 3622SOL    HW122897   5.621   6.331   6.439
 3622SOL    HW222898   5.750   6.231   6.451
 3623SOL     OW22899   7.382   8.192   5.279
 3623SOL    HW122900   7.431   8.105   5.289
 3623SOL    HW222901   7.291   8.184   5.320
 3624SOL     OW22902   2.414   8.398   0.508
 3624SOL    HW122903   2.341   8.404   0.440
 3624SOL    HW222904   2.376   8.414   0.599
 3625SOL     OW22905   8.273   1.176   6.806
 3625SOL    HW122906   8.270   1.133   6.897
 3625SOL    HW222907   8.194   1.145   6.753
 3626SOL     OW22908   0.870   0.450   5.694
 3626SOL    HW122909   0.776   0.434   5.666
 3626SOL    HW222910   0.877   0.541   5.737
 3627SOL     OW22911   2.658   3.025   6.299
 3627SOL    HW122912   2.682   2.938   6.343
 3627SOL    HW222913   2.563   3.022   6.268
 3628SOL     OW22914   3.686   3.059   2.049
 3628SOL    HW122915   3.745   2.994   2.002
 3628SOL    HW222916   3.664   3.025   2.140
 3629SOL     OW22917   3.062   4.769   1.240
 3629SOL    HW122918   3.085   4.716   1.158
 3629SOL    HW222919   3.110   4.731   1.319
 3630SOL     OW22920   2.177   6.243   5.956
 3630SOL    HW122921   2.266   6.202   5.936
 3630SOL    HW222922   2.178   6.340   5.931
 3631SOL     OW22923   8.768   3.940   6.414
 3631SOL    HW122924   8.778   3.872   6.341
 3631SOL    HW222925   8.679   3.930   6.457
 3632SOL     OW22926   1.939   6.206   6.087
 3632SOL    HW122927   1.891   6.266   6.023
 3632SOL    HW222928   2.031   6.188   6.052
 3633SOL     OW22929   6.198   6.297   1.253
 3633SOL    HW122930   6.129   6.341   1.196
 3633SOL    HW222931   6.171   6.203   1.272
 3634SOL     OW22932   2.929   2.002   1.199
 3634SOL    HW122933   3.027   1.985   1.189
 3634SOL    HW222934   2.914   2.095   1.232
 3635SOL     OW22935   8.002   2.404   2.425
 3635SOL    HW122936   7.937   2.413   2.500
 3635SOL    HW222937   8.095   2.413   2.460
 3636SOL     OW22938   3.203   2.870   1.192
 3636SOL    HW122939   3.124   2.931   1.188
 3636SOL    HW222940   3.200   2.816   1.276
 3637SOL     OW22941   6.217   6.359   6.159
 3637SOL    HW122942   6.277   6.374   6.080
 3637SOL    HW222943   6.161   6.277   6.144
 3638SOL     OW22944   2.329   4.337   6.586
 3638SOL    HW122945   2.282   4.412   6.539
 3638SOL    HW222946   2.306   4.250   6.541
 3639SOL     OW22947   4.408   5.410   1.169
 3639SOL    HW122948   4.318   5.415   1.212
 3639SOL    HW222949   4.401   5.362   1.081
 3640SOL     OW22950   1.968   5.205   6.015
 3640SOL    HW122951   1.925   5.229   5.929
 3640SOL    HW222952   1.998   5.109   6.013
 3641SOL     OW22953   0.856   5.676   1.139
 3641SOL    HW122954   0.929   5.629   1.189
 3641SOL    HW222955   0.781   5.697   1.201
 3642SOL     OW22956   4.493   1.065   6.389
 3642SOL    HW122957   4.512   1.104   6.479
 3642SOL    HW222958   4.505   0.965   6.392
 3643SOL     OW22959   7.412   3.363   6.922
 3643SOL    HW122960   7.319   3.335   6.943
 3643SOL    HW222961   7.413   3.419   6.839
 3644SOL     OW22962   8.569   5.936   5.909
 3644SOL    HW122963   8.473   5.934   5.935
 3644SOL    HW222964   8.589   5.859   5.848
 3645SOL     OW22965   8.910   2.696   5.504
 3645SOL    HW122966   9.005   2.683   5.531
 3645SOL    HW222967   8.874   2.612   5.465
 3646SOL     OW22968   5.500   8.377   5.973
 3646SOL    HW122969   5.401   8.383   5.961
 3646SOL    HW222970   5.545   8.450   5.922
 3647SOL     OW22971   0.306   3.647   0.884
 3647SOL    HW122972   0.221   3.700   0.886
 3647SOL    HW222973   0.320   3.604   0.973
 3648SOL     OW22974   1.583   6.712   5.638
 3648SOL    HW122975   1.613   6.623   5.672
 3648SOL    HW222976   1.639   6.738   5.559
 3649SOL     OW22977   2.421   4.381   1.934
 3649SOL    HW122978   2.442   4.461   1.878
 3649SOL    HW222979   2.492   4.311   1.921
 3650SOL     OW22980   5.487   3.185   6.814
 3650SOL    HW122981   5.464   3.251   6.743
 3650SOL    HW222982   5.403   3.142   6.847
 3651SOL     OW22983   1.040   4.644   6.243
 3651SOL    HW122984   1.049   4.586   6.162
 3651SOL    HW222985   1.124   4.698   6.255
 3652SOL     OW22986   4.366   2.119   5.673
 3652SOL    HW122987   4.451   2.133   5.622
 3652SOL    HW222988   4.386   2.112   5.770
 3653SOL     OW22989   5.006   2.996   6.662
 3653SOL    HW122990   5.079   2.953   6.610
 3653SOL    HW222991   5.035   3.087   6.692
 3654SOL     OW22992   2.433   2.048   1.361
 3654SOL    HW122993   2.519   2.050   1.411
 3654SOL    HW222994   2.415   2.138   1.321
 3655SOL     OW22995   4.304   7.613   0.940
 3655SOL    HW122996   4.318   7.537   1.004
 3655SOL    HW222997   4.381   7.676   0.947
 3656SOL     OW22998   8.499   0.234   6.941
 3656SOL    HW122999   8.400   0.249   6.931
 3656SOL    HW223000   8.515   0.147   6.987
 3657SOL     OW23001   3.131   4.790   6.336
 3657SOL    HW123002   3.080   4.857   6.391
 3657SOL    HW223003   3.072   4.758   6.261
 3658SOL     OW23004   2.175   5.869   1.439
 3658SOL    HW123005   2.115   5.792   1.416
 3658SOL    HW223006   2.256   5.835   1.486
 3659SOL     OW23007   3.504   3.247   1.676
 3659SOL    HW123008   3.546   3.241   1.767
 3659SOL    HW223009   3.522   3.163   1.626
 3660SOL     OW23010   5.611   8.360   2.155
 3660SOL    HW123011   5.587   8.370   2.059
 3660SOL    HW223012   5.531   8.379   2.212
 3661SOL     OW23013   3.289   6.721   5.267
 3661SOL    HW123014   3.336   6.717   5.355
 3661SOL    HW223015   3.316   6.804   5.219
 3662SOL     OW23016   3.883   0.885   0.637
 3662SOL    HW123017   3.836   0.854   0.555
 3662SOL    HW223018   3.883   0.985   0.639
 3663SOL     OW23019   1.710   2.655   0.707
 3663SOL    HW123020   1.746   2.745   0.731
 3663SOL    HW223021   1.773   2.585   0.739
 3664SOL     OW23022   2.306   7.475   1.434
 3664SOL    HW123023   2.234   7.409   1.413
 3664SOL    HW223024   2.334   7.523   1.351
 3665SOL     OW23025   5.878   4.609   6.685
 3665SOL    HW123026   5.976   4.593   6.672
 3665SOL    HW223027   5.864   4.686   6.746
 3666SOL     OW23028   3.841   5.513   1.952
 3666SOL    HW123029   3.772   5.575   1.913
 3666SOL    HW223030   3.814   5.487   2.044
 3667SOL     OW23031   1.875   8.337   6.863
 3667SOL    HW123032   1.931   8.372   6.788
 3667SOL    HW223033   1.882   8.398   6.941
 3668SOL     OW23034   3.781  -0.006   2.052
 3668SOL    HW123035   3.799   0.006   1.954
 3668SOL    HW223036   3.786  -0.103   2.075
 3669SOL     OW23037   4.751   5.554   7.126
 3669SOL    HW123038   4.840   5.509   7.136
 3669SOL    HW223039   4.685   5.488   7.089
 3670SOL     OW23040   6.938   0.835   6.844
 3670SOL    HW123041   6.846   0.870   6.827
 3670SOL    HW223042   6.933   0.757   6.906
 3671SOL     OW23043   8.554   7.070   6.048
 3671SOL    HW123044   8.505   7.143   6.000
 3671SOL    HW223045   8.590   7.005   5.982
 3672SOL     OW23046   7.192   3.927   0.768
 3672SOL    HW123047   7.165   3.837   0.803
 3672SOL    HW223048   7.177   3.931   0.670
 3673SOL     OW23049   4.312   4.850   7.038
 3673SOL    HW123050   4.269   4.811   7.120
 3673SOL    HW223051   4.260   4.823   6.957
 3674SOL     OW23052   0.370   3.256   6.297
 3674SOL    HW123053   0.345   3.316   6.373
 3674SOL    HW223054   0.450   3.292   6.250
 3675SOL     OW23055   2.534   0.269   6.118
 3675SOL    HW123056   2.632   0.275   6.139
 3675SOL    HW223057   2.487   0.220   6.192
 3676SOL     OW23058   5.481   5.266   1.063
 3676SOL    HW123059   5.461   5.322   0.983
 3676SOL    HW223060   5.417   5.189   1.068
 3677SOL     OW23061   8.388   0.837   5.509
 3677SOL    HW123062   8.405   0.872   5.417
 3677SOL    HW223063   8.297   0.796   5.513
 3678SOL     OW23064   3.405   4.774   1.243
 3678SOL    HW123065   3.465   4.766   1.164
 3678SOL    HW223066   3.459   4.791   1.325
 3679SOL     OW23067   8.725   5.743   0.955
 3679SOL    HW123068   8.766   5.683   1.024
 3679SOL    HW223069   8.626   5.745   0.966
 3680SOL     OW23070   0.982   4.433   7.121
 3680SOL    HW123071   0.954   4.364   7.188
 3680SOL    HW223072   0.973   4.524   7.161
 3681SOL     OW23073   8.447   7.472   5.581
 3681SOL    HW123074   8.544   7.456   5.568
 3681SOL    HW223075   8.416   7.542   5.517
 3682SOL     OW23076   3.378   1.727   1.091
 3682SOL    HW123077   3.474   1.735   1.065
 3682SOL    HW223078   3.348   1.633   1.078
 3683SOL     OW23079   1.600   1.694   6.202
 3683SOL    HW123080   1.500   1.685   6.198
 3683SOL    HW223081   1.638   1.622   6.259
 3684SOL     OW23082   8.663   6.653   5.898
 3684SOL    HW123083   8.652   6.746   5.861
 3684SOL    HW223084   8.754   6.644   5.938
 3685SOL     OW23085   8.022   0.736   0.630
 3685SOL    HW123086   7.967   0.768   0.707
 3685SOL    HW223087   7.982   0.769   0.545
 3686SOL     OW23088   2.372   1.138   6.354
 3686SOL    HW123089   2.458   1.149   6.305
 3686SOL    HW223090   2.390   1.099   6.444
 3687SOL     OW23091   7.637   2.770   1.615
 3687SOL    HW123092   7.688   2.854   1.633
 3687SOL    HW223093   7.607   2.729   1.701
 3688SOL     OW23094   5.339   5.063   6.995
 3688SOL    HW123095   5.429   5.045   6.954
 3688SOL    HW223096   5.293   4.976   7.013
 3689SOL     OW23097   0.586   4.333   6.617
 3689SOL    HW123098   0.680   4.360   6.640
 3689SOL    HW223099   0.556   4.260   6.679
 3690SOL     OW23100   3.242   1.457   5.608
 3690SOL    HW123101   3.296   1.422   5.532
 3690SOL    HW223102   3.259   1.555   5.619
 3691SOL     OW23103   2.606   2.381   2.137
 3691SOL    HW123104   2.696   2.398   2.177
 3691SOL    HW223105   2.547   2.461   2.152
 3692SOL     OW23106   6.905   5.137   6.506
 3692SOL    HW123107   6.890   5.230   6.473
 3692SOL    HW223108   6.997   5.128   6.543
 3693SOL     OW23109   1.322   8.187   6.691
 3693SOL    HW123110   1.244   8.215   6.746
 3693SOL    HW223111   1.336   8.088   6.699
 3694SOL     OW23112   2.449   1.626   0.835
 3694SOL    HW123113   2.429   1.717   0.800
 3694SOL    HW223114   2.379   1.599   0.900
 3695SOL     OW23115   7.392   1.982   6.815
 3695SOL    HW123116   7.303   2.015   6.844
 3695SOL    HW223117   7.427   2.041   6.742
 3696SOL     OW23118   9.578   2.423   0.861
 3696SOL    HW123119   9.496   2.467   0.825
 3696SOL    HW223120   9.560   2.388   0.953
 3697SOL     OW23121   1.294   1.465   5.790
 3697SOL    HW123122   1.235   1.420   5.724
 3697SOL    HW223123   1.263   1.443   5.883
 3698SOL     OW23124   3.917   0.259   1.703
 3698SOL    HW123125   3.882   0.325   1.769
 3698SOL    HW223126   3.862   0.175   1.706
 3699SOL     OW23127   9.110   5.163   0.913
 3699SOL    HW123128   9.015   5.140   0.896
 3699SOL    HW223129   9.145   5.105   0.987
 3700SOL     OW23130   7.946   1.561   1.378
 3700SOL    HW123131   7.948   1.548   1.279
 3700SOL    HW223132   7.904   1.480   1.421
 3701SOL     OW23133   4.486   1.135   2.467
 3701SOL    HW123134   4.535   1.132   2.555
 3701SOL    HW223135   4.418   1.062   2.465
 3702SOL     OW23136   3.807   2.852   6.333
 3702SOL    HW123137   3.848   2.871   6.244
 3702SOL    HW223138   3.730   2.914   6.348
 3703SOL     OW23139   5.296   3.203   7.113
 3703SOL    HW123140   5.304   3.144   7.033
 3703SOL    HW223141   5.387   3.229   7.145
 3704SOL     OW23142   4.517   5.627   6.645
 3704SOL    HW123143   4.429   5.597   6.608
 3704SOL    HW223144   4.581   5.643   6.569
 3705SOL     OW23145   1.895   2.214   2.033
 3705SOL    HW123146   1.798   2.206   2.011
 3705SOL    HW223147   1.906   2.216   2.132
 3706SOL     OW23148   8.158   7.556   5.927
 3706SOL    HW123149   8.179   7.461   5.952
 3706SOL    HW223150   8.207   7.580   5.842
 3707SOL     OW23151   4.646   0.263   1.127
 3707SOL    HW123152   4.558   0.220   1.145
 3707SOL    HW223153   4.701   0.205   1.068
 3708SOL     OW23154   1.468   0.668   6.854
 3708SOL    HW123155   1.486   0.588   6.796
 3708SOL    HW223156   1.371   0.671   6.877
 3709SOL     OW23157   0.718   4.845   6.278
 3709SOL    HW123158   0.787   4.880   6.215
 3709SOL    HW223159   0.643   4.804   6.226
 3710SOL     OW23160   8.643   1.063   5.423
 3710SOL    HW123161   8.622   0.997   5.351
 3710SOL    HW223162   8.672   1.149   5.381
 3711SOL     OW23163   4.895   8.429   6.809
 3711SOL    HW123164   4.953   8.509   6.793
 3711SOL    HW223165   4.847   8.406   6.724
 3712SOL     OW23166   0.720   4.362   1.824
 3712SOL    HW123167   0.761   4.305   1.895
 3712SOL    HW223168   0.627   4.387   1.850
 3713SOL     OW23169   6.590   3.522   6.494
 3713SOL    HW123170   6.619   3.567   6.579
 3713SOL    HW223171   6.549   3.590   6.433
 3714SOL     OW23172   3.960   4.573   6.672
 3714SOL    HW123173   4.019   4.651   6.652
 3714SOL    HW223174   3.885   4.570   6.606
 3715SOL     OW23175   0.735   6.795   5.609
 3715SOL    HW123176   0.684   6.709   5.595
 3715SOL    HW223177   0.674   6.872   5.591
 3716SOL     OW23178   2.939   0.197   5.141
 3716SOL    HW123179   2.874   0.148   5.083
 3716SOL    HW223180   3.015   0.137   5.165
 3717SOL     OW23181   0.639   2.287   1.037
 3717SOL    HW123182   0.642   2.187   1.027
 3717SOL    HW223183   0.702   2.315   1.110
 3718SOL     OW23184   2.527   5.410   1.591
 3718SOL    HW123185   2.493   5.485   1.649
 3718SOL    HW223186   2.619   5.431   1.560
 3719SOL     OW23187   4.336   3.428   1.559
 3719SOL    HW123188   4.289   3.370   1.625
 3719SOL    HW223189   4.310   3.400   1.466
 3720SOL     OW23190   1.537   5.285   1.204
 3720SOL    HW123191   1.568   5.339   1.126
 3720SOL    HW223192   1.499   5.198   1.172
 3721SOL     OW23193   5.192   4.422   2.075
 3721SOL    HW123194   5.247   4.394   2.154
 3721SOL    HW223195   5.158   4.341   2.028
 3722SOL     OW23196   6.197   3.180   1.711
 3722SOL    HW123197   6.166   3.275   1.721
 3722SOL    HW223198   6.138   3.120   1.764
 3723SOL     OW23199   0.908   6.721   6.330
 3723SOL    HW123200   0.939   6.737   6.236
 3723SOL    HW223201   0.881   6.625   6.340
 3724SOL     OW23202   2.442   8.090   2.024
 3724SOL    HW123203   2.504   8.028   2.073
 3724SOL    HW223204   2.400   8.153   2.090
 3725SOL     OW23205   3.289   5.001   1.718
 3725SOL    HW123206   3.286   4.919   1.661
 3725SOL    HW223207   3.373   5.053   1.698
 3726SOL     OW23208   2.629   6.577   5.983
 3726SOL    HW123209   2.624   6.649   6.052
 3726SOL    HW223210   2.540   6.531   5.976
 3727SOL     OW23211   9.053   0.172   6.272
 3727SOL    HW123212   9.084   0.170   6.367
 3727SOL    HW223213   9.095   0.250   6.226
 3728SOL     OW23214   5.809   4.778   6.900
 3728SOL    HW123215   5.736   4.737   6.955
 3728SOL    HW223216   5.897   4.763   6.944
 3729SOL     OW23217   8.806   7.501   5.923
 3729SOL    HW123218   8.710   7.530   5.927
 3729SOL    HW223219   8.813   7.405   5.950
 3730SOL     OW23220   2.106   3.758   6.735
 3730SOL    HW123221   2.132   3.841   6.684
 3730SOL    HW223222   2.181   3.732   6.796
 3731SOL     OW23223   1.762   1.120   5.554
 3731SOL    HW123224   1.811   1.115   5.467
 3731SOL    HW223225   1.670   1.083   5.543
 3732SOL     OW23226   5.944   0.413   1.111
 3732SOL    HW123227   5.889   0.334   1.084
 3732SOL    HW223228   5.908   0.495   1.066
 3733SOL     OW23229   8.122   6.044   1.513
 3733SOL    HW123230   8.034   6.067   1.473
 3733SOL    HW223231   8.112   5.964   1.573
 3734SOL     OW23232   3.249   6.255   2.122
 3734SOL    HW123233   3.252   6.215   2.214
 3734SOL    HW223234   3.270   6.353   2.128
 3735SOL     OW23235   3.760   5.670   0.666
 3735SOL    HW123236   3.697   5.593   0.675
 3735SOL    HW223237   3.723   5.735   0.599
 3736SOL     OW23238   3.560   7.896   1.856
 3736SOL    HW123239   3.613   7.977   1.882
 3736SOL    HW223240   3.492   7.876   1.926
 3737SOL     OW23241   6.845   2.234   7.128
 3737SOL    HW123242   6.879   2.248   7.221
 3737SOL    HW223243   6.920   2.208   7.068
 3738SOL     OW23244   8.848   6.733   6.558
 3738SOL    HW123245   8.876   6.764   6.467
 3738SOL    HW223246   8.748   6.736   6.565
 3739SOL     OW23247   9.218   4.089   7.003
 3739SOL    HW123248   9.212   4.138   6.916
 3739SOL    HW223249   9.314   4.082   7.031
 3740SOL     OW23250   5.196   1.109   1.339
 3740SOL    HW123251   5.197   1.014   1.371
 3740SOL    HW223252   5.133   1.117   1.261
 3741SOL     OW23253   1.720   7.582   1.458
 3741SOL    HW123254   1.809   7.539   1.447
 3741SOL    HW223255   1.730   7.671   1.501
 3742SOL     OW23256   8.820   5.577   1.146
 3742SOL    HW123257   8.893   5.543   1.087
 3742SOL    HW223258   8.855   5.591   1.238
 3743SOL     OW23259   4.851   0.752   1.053
 3743SOL    HW123260   4.789   0.812   1.003
 3743SOL    HW223261   4.804   0.715   1.134
 3744SOL     OW23262   7.590   4.389   0.855
 3744SOL    HW123263   7.607   4.293   0.833
 3744SOL    HW223264   7.673   4.442   0.841
 3745SOL     OW23265   8.402   5.125   1.006
 3745SOL    HW123266   8.490   5.107   1.050
 3745SOL    HW223267   8.415   5.187   0.929
 3746SOL     OW23268   4.181   8.130   0.474
 3746SOL    HW123269   4.257   8.070   0.500
 3746SOL    HW223270   4.211   8.188   0.398
 3747SOL     OW23271   0.365   3.249   0.869
 3747SOL    HW123272   0.310   3.174   0.832
 3747SOL    HW223273   0.340   3.265   0.965
 3748SOL     OW23274   7.237   6.381   6.843
 3748SOL    HW123275   7.171   6.308   6.826
 3748SOL    HW223276   7.307   6.380   6.771
 3749SOL     OW23277   1.007   6.686   2.314
 3749SOL    HW123278   1.092   6.715   2.269
 3749SOL    HW223279   0.977   6.599   2.275
 3750SOL     OW23280   6.246   3.362   6.670
 3750SOL    HW123281   6.300   3.324   6.595
 3750SOL    HW223282   6.306   3.393   6.743
 3751SOL     OW23283   8.077   8.325   5.744
 3751SOL    HW123284   8.152   8.305   5.681
 3751SOL    HW223285   7.996   8.353   5.692
 3752SOL     OW23286   3.763   4.616   6.491
 3752SOL    HW123287   3.732   4.711   6.492
 3752SOL    HW223288   3.802   4.593   6.402
 3753SOL     OW23289   5.974   6.194   0.851
 3753SOL    HW123290   5.995   6.142   0.934
 3753SOL    HW223291   6.038   6.270   0.842
 3754SOL     OW23292   8.939   5.126   1.262
 3754SOL    HW123293   8.951   5.211   1.312
 3754SOL    HW223294   8.867   5.072   1.305
 3755SOL     OW23295   7.237   3.729   5.910
 3755SOL    HW123296   7.166   3.693   5.971
 3755SOL    HW223297   7.240   3.674   5.827
 3756SOL     OW23298   5.477   5.502   0.515
 3756SOL    HW123299   5.466   5.433   0.585
 3756SOL    HW223300   5.457   5.592   0.553
 3757SOL     OW23301   5.977   8.281   7.123
 3757SOL    HW123302   5.987   8.349   7.050
 3757SOL    HW223303   6.058   8.222   7.124
 3758SOL     OW23304   7.547   1.107   7.055
 3758SOL    HW123305   7.513   1.158   6.976
 3758SOL    HW223306   7.495   1.023   7.066
 3759SOL     OW23307   6.796   1.607   6.457
 3759SOL    HW123308   6.720   1.621   6.520
 3759SOL    HW223309   6.771   1.539   6.388
 3760SOL     OW23310   6.949   6.627   5.871
 3760SOL    HW123311   6.906   6.692   5.809
 3760SOL    HW223312   7.048   6.641   5.872
 3761SOL     OW23313   5.504   4.626   2.320
 3761SOL    HW123314   5.461   4.716   2.312
 3761SOL    HW223315   5.439   4.555   2.290
 3762SOL     OW23316   4.217   6.525   7.000
 3762SOL    HW123317   4.242   6.540   6.904
 3762SOL    HW223318   4.272   6.450   7.037
 3763SOL     OW23319   3.097   3.396   6.967
 3763SOL    HW123320   3.109   3.305   6.928
 3763SOL    HW223321   3.001   3.421   6.965
 3764SOL     OW23322   6.744   4.285   7.100
 3764SOL    HW123323   6.834   4.327   7.093
 3764SOL    HW223324   6.674   4.356   7.100
 3765SOL     OW23325   7.294  -0.063   5.711
 3765SOL    HW123326   7.199  -0.081   5.687
 3765SOL    HW223327   7.350  -0.061   5.628
 3766SOL     OW23328   3.525   0.806   1.590
 3766SOL    HW123329   3.493   0.870   1.520
 3766SOL    HW223330   3.454   0.739   1.609
 3767SOL     OW23331   1.599   6.060   0.604
 3767SOL    HW123332   1.668   6.058   0.676
 3767SOL    HW223333   1.643   6.058   0.514
 3768SOL     OW23334   6.130   7.288   6.128
 3768SOL    HW123335   6.176   7.215   6.076
 3768SOL    HW223336   6.032   7.284   6.109
 3769SOL     OW23337   7.911   2.125   6.898
 3769SOL    HW123338   7.922   2.212   6.848
 3769SOL    HW223339   7.990   2.112   6.958
 3770SOL     OW23340   4.418   1.012   5.966
 3770SOL    HW123341   4.359   1.006   6.047
 3770SOL    HW223342   4.403   0.933   5.907
 3771SOL     OW23343   1.196   5.216   6.314
 3771SOL    HW123344   1.209   5.297   6.257
 3771SOL    HW223345   1.099   5.190   6.313
 3772SOL     OW23346   7.655   5.282   6.742
 3772SOL    HW123347   7.581   5.215   6.742
 3772SOL    HW223348   7.725   5.254   6.807
 3773SOL     OW23349   1.917   6.641   5.871
 3773SOL    HW123350   1.856   6.640   5.951
 3773SOL    HW223351   1.873   6.591   5.796
 3774SOL     OW23352   5.840   4.337   0.841
 3774SOL    HW123353   5.837   4.413   0.905
 3774SOL    HW223354   5.851   4.251   0.891
 3775SOL     OW23355   5.417   7.989   6.067
 3775SOL    HW123356   5.447   8.079   6.100
 3775SOL    HW223357   5.371   8.000   5.980
 3776SOL     OW23358   3.696   6.921   6.379
 3776SOL    HW123359   3.763   6.849   6.394
 3776SOL    HW223360   3.627   6.888   6.314
 3777SOL     OW23361   1.324   1.898   0.761
 3777SOL    HW123362   1.412   1.946   0.751
 3777SOL    HW223363   1.249   1.963   0.750
 3778SOL     OW23364   8.909   6.030   5.437
 3778SOL    HW123365   8.845   5.984   5.499
 3778SOL    HW223366   8.963   5.962   5.388
 3779SOL     OW23367   3.164   4.331   0.873
 3779SOL    HW123368   3.086   4.385   0.841
 3779SOL    HW223369   3.224   4.310   0.796
 3780SOL     OW23370   3.190   4.892   7.041
 3780SOL    HW123371   3.101   4.908   7.085
 3780SOL    HW223372   3.243   4.827   7.095
 3781SOL     OW23373   6.257   2.397   6.400
 3781SOL    HW123374   6.204   2.335   6.344
 3781SOL    HW223375   6.224   2.395   6.494
 3782SOL     OW23376   0.561   7.990   1.875
 3782SOL    HW123377   0.535   8.085   1.893
 3782SOL    HW223378   0.525   7.932   1.948
 3783SOL     OW23379   2.398   7.782   5.435
 3783SOL    HW123380   2.473   7.837   5.396
 3783SOL    HW223381   2.355   7.728   5.363
 3784SOL     OW23382   0.877   1.528   6.202
 3784SOL    HW123383   0.882   1.624   6.175
 3784SOL    HW223384   0.803   1.516   6.268
 3785SOL     OW23385   0.933   4.110   1.788
 3785SOL    HW123386   0.895   4.127   1.878
 3785SOL    HW223387   0.944   4.011   1.774
 3786SOL     OW23388   3.266   4.982   6.809
 3786SOL    HW123389   3.354   5.027   6.824
 3786SOL    HW223390   3.232   4.946   6.896
 3787SOL     OW23391   6.704   5.261   6.931
 3787SOL    HW123392   6.625   5.281   6.989
 3787SOL    HW223393   6.757   5.345   6.915
 3788SOL     OW23394   3.464   3.072   6.791
 3788SOL    HW123395   3.448   3.083   6.889
 3788SOL    HW223396   3.546   3.017   6.777
 3789SOL     OW23397   0.383   6.368   5.078
 3789SOL    HW123398   0.397   6.450   5.023
 3789SOL    HW223399   0.466   6.312   5.078
 3790SOL     OW23400   9.271   5.001   5.809
 3790SOL    HW123401   9.180   5.038   5.790
 3790SOL    HW223402   9.309   4.960   5.726
 3791SOL     OW23403   4.371   7.699   1.292
 3791SOL    HW123404   4.325   7.634   1.353
 3791SOL    HW223405   4.307   7.732   1.224
 3792SOL     OW23406   7.821   2.832   7.016
 3792SOL    HW123407   7.920   2.838   7.033
 3792SOL    HW223408   7.805   2.811   6.920
 3793SOL     OW23409   2.885   6.947   6.171
 3793SOL    HW123410   2.851   6.956   6.265
 3793SOL    HW223411   2.849   7.023   6.116
 3794SOL     OW23412   3.572   2.998   2.309
 3794SOL    HW123413   3.525   3.084   2.290
 3794SOL    HW223414   3.529   2.953   2.388
 3795SOL     OW23415   2.495   7.427   1.197
 3795SOL    HW123416   2.428   7.483   1.149
 3795SOL    HW223417   2.455   7.337   1.218
 3796SOL     OW23418   4.079   5.411   1.791
 3796SOL    HW123419   4.001   5.444   1.845
 3796SOL    HW223420   4.109   5.322   1.826
 3797SOL     OW23421   8.581   2.365   1.510
 3797SOL    HW123422   8.486   2.350   1.539
 3797SOL    HW223423   8.622   2.437   1.565
 3798SOL     OW23424   7.889   3.608   6.361
 3798SOL    HW123425   7.953   3.586   6.287
 3798SOL    HW223426   7.806   3.649   6.322
 3799SOL     OW23427   0.321   6.856   5.747
 3799SOL    HW123428   0.360   6.810   5.668
 3799SOL    HW223429   0.274   6.789   5.804
 3800SOL     OW23430   5.865   8.383   1.416
 3800SOL    HW123431   5.845   8.472   1.374
 3800SOL    HW223432   5.955   8.385   1.458
 3801SOL     OW23433   1.318   5.618   0.460
 3801SOL    HW123434   1.260   5.577   0.389
 3801SOL    HW223435   1.347   5.709   0.430
 3802SOL     OW23436   4.513   0.407   6.514
 3802SOL    HW123437   4.506   0.490   6.459
 3802SOL    HW223438   4.568   0.339   6.466
 3803SOL     OW23439   0.875   6.525   4.952
 3803SOL    HW123440   0.878   6.428   4.926
 3803SOL    HW223441   0.924   6.537   5.039
 3804SOL     OW23442   2.127   1.234   0.460
 3804SOL    HW123443   2.112   1.327   0.428
 3804SOL    HW223444   2.218   1.227   0.501
 3805SOL     OW23445   2.619   2.699   1.306
 3805SOL    HW123446   2.579   2.765   1.242
 3805SOL    HW223447   2.545   2.647   1.349
 3806SOL     OW23448   7.223   1.098   1.820
 3806SOL    HW123449   7.173   1.143   1.893
 3806SOL    HW223450   7.321   1.113   1.833
 3807SOL     OW23451   6.460   3.849   6.605
 3807SOL    HW123452   6.440   3.907   6.684
 3807SOL    HW223453   6.389   3.863   6.535
 3808SOL     OW23454   3.328   1.359   6.074
 3808SOL    HW123455   3.302   1.315   5.988
 3808SOL    HW223456   3.251   1.413   6.108
 3809SOL     OW23457   4.213   2.236   6.539
 3809SOL    HW123458   4.189   2.272   6.449
 3809SOL    HW223459   4.162   2.152   6.557
 3810SOL     OW23460   7.151   0.338   0.548
 3810SOL    HW123461   7.183   0.268   0.483
 3810SOL    HW223462   7.218   0.412   0.552
 3811SOL     OW23463   4.355   2.409   1.650
 3811SOL    HW123464   4.416   2.484   1.624
 3811SOL    HW223465   4.407   2.324   1.656
 3812SOL     OW23466   0.831   3.188   0.745
 3812SOL    HW123467   0.887   3.199   0.827
 3812SOL    HW223468   0.742   3.231   0.759
 3813SOL     OW23469   8.966   2.567   1.438
 3813SOL    HW123470   9.063   2.590   1.423
 3813SOL    HW223471   8.959   2.473   1.470
 3814SOL     OW23472   8.974   6.782   0.841
 3814SOL    HW123473   8.981   6.695   0.793
 3814SOL    HW223474   8.948   6.766   0.936
 3815SOL     OW23475   7.896   2.990   0.933
 3815SOL    HW123476   7.907   3.002   1.032
 3815SOL    HW223477   7.881   3.079   0.890
 3816SOL     OW23478   1.253   8.058   1.035
 3816SOL    HW123479   1.310   8.042   1.115
 3816SOL    HW223480   1.280   7.996   0.961
 3817SOL     OW23481   9.001   7.761   0.807
 3817SOL    HW123482   9.034   7.854   0.790
 3817SOL    HW223483   9.037   7.729   0.895
 3818SOL     OW23484   8.804   4.158   6.241
 3818SOL    HW123485   8.771   4.101   6.316
 3818SOL    HW223486   8.773   4.119   6.154
 3819SOL     OW23487   9.032   3.663   6.006
 3819SOL    HW123488   9.005   3.593   5.940
 3819SOL    HW223489   9.101   3.723   5.966
 3820SOL     OW23490   7.360   6.076   6.106
 3820SOL    HW123491   7.346   5.988   6.061
 3820SOL    HW223492   7.377   6.146   6.037
 3821SOL     OW23493   7.077   5.469   0.909
 3821SOL    HW123494   7.149   5.450   0.975
 3821SOL    HW223495   7.018   5.389   0.900
 3822SOL     OW23496   9.123   8.295   1.065
 3822SOL    HW123497   9.049   8.343   1.019
 3822SOL    HW223498   9.168   8.232   1.002
 3823SOL     OW23499   3.069   4.873   0.549
 3823SOL    HW123500   3.115   4.801   0.601
 3823SOL    HW223501   2.994   4.910   0.603
 3824SOL     OW23502   5.780   6.653   2.626
 3824SOL    HW123503   5.811   6.746   2.643
 3824SOL    HW223504   5.858   6.590   2.627
 3825SOL     OW23505   1.887   3.576   6.209
 3825SOL    HW123506   1.875   3.515   6.131
 3825SOL    HW223507   1.829   3.657   6.198
 3826SOL     OW23508   5.053   6.884   6.831
 3826SOL    HW123509   5.033   6.916   6.924
 3826SOL    HW223510   5.148   6.853   6.826
 3827SOL     OW23511   0.173   2.604   6.955
 3827SOL    HW123512   0.186   2.510   6.985
 3827SOL    HW223513   0.092   2.610   6.897
 3828SOL     OW23514   5.814   1.542   6.883
 3828SOL    HW123515   5.821   1.642   6.881
 3828SOL    HW223516   5.904   1.503   6.906
 3829SOL     OW23517   9.445   2.086   6.736
 3829SOL    HW123518   9.438   2.167   6.678
 3829SOL    HW223519   9.515   2.101   6.806
 3830SOL     OW23520   1.076   1.761   6.891
 3830SOL    HW123521   1.090   1.685   6.954
 3830SOL    HW223522   1.009   1.735   6.822
 3831SOL     OW23523   7.397   7.380   0.820
 3831SOL    HW123524   7.479   7.326   0.839
 3831SOL    HW223525   7.412   7.435   0.737
 3832SOL     OW23526   8.651   6.994   0.614
 3832SOL    HW123527   8.711   6.935   0.559
 3832SOL    HW223528   8.557   6.963   0.606
 3833SOL     OW23529   1.785   3.236   0.613
 3833SOL    HW123530   1.696   3.213   0.574
 3833SOL    HW223531   1.841   3.280   0.542
 3834SOL     OW23532   7.394   3.047   1.232
 3834SOL    HW123533   7.481   3.088   1.260
 3834SOL    HW223534   7.345   3.014   1.312
 3835SOL     OW23535   8.399   2.280   1.199
 3835SOL    HW123536   8.370   2.215   1.129
 3835SOL    HW223537   8.495   2.263   1.222
 3836SOL     OW23538   4.267   2.754   0.442
 3836SOL    HW123539   4.207   2.698   0.386
 3836SOL    HW223540   4.362   2.726   0.429
 3837SOL     OW23541   2.901   2.288   1.521
 3837SOL    HW123542   2.857   2.366   1.565
 3837SOL    HW223543   2.928   2.313   1.428
 3838SOL     OW23544   4.319   5.403   2.272
 3838SOL    HW123545   4.326   5.303   2.265
 3838SOL    HW223546   4.253   5.427   2.343
 3839SOL     OW23547   5.317   0.353   0.730
 3839SOL    HW123548   5.238   0.412   0.716
 3839SOL    HW223549   5.289   0.257   0.727
 3840SOL     OW23550   8.051   6.354   0.998
 3840SOL    HW123551   7.990   6.275   0.989
 3840SOL    HW223552   8.122   6.333   1.066
 3841SOL     OW23553   7.042   6.575   1.387
 3841SOL    HW123554   7.084   6.611   1.304
 3841SOL    HW223555   6.944   6.564   1.373
 3842SOL     OW23556   7.251   0.269   1.185
 3842SOL    HW123557   7.323   0.224   1.131
 3842SOL    HW223558   7.166   0.271   1.132
 3843SOL     OW23559   3.631   6.829   2.079
 3843SOL    HW123560   3.720   6.862   2.049
 3843SOL    HW223561   3.642   6.775   2.162
 3844SOL     OW23562   9.295   7.774   5.946
 3844SOL    HW123563   9.317   7.870   5.962
 3844SOL    HW223564   9.204   7.755   5.982
 3845SOL     OW23565   3.541   7.349   6.576
 3845SOL    HW123566   3.544   7.252   6.553
 3845SOL    HW223567   3.579   7.403   6.500
 3846SOL     OW23568   0.432   7.520   5.210
 3846SOL    HW123569   0.422   7.605   5.159
 3846SOL    HW223570   0.519   7.476   5.185
 3847SOL     OW23571   7.406   4.807   0.747
 3847SOL    HW123572   7.332   4.865   0.714
 3847SOL    HW223573   7.420   4.823   0.844
 3848SOL     OW23574   3.437   1.729   6.118
 3848SOL    HW123575   3.426   1.760   6.023
 3848SOL    HW223576   3.513   1.779   6.160
 3849SOL     OW23577   8.760   0.640   6.840
 3849SOL    HW123578   8.792   0.553   6.804
 3849SOL    HW223579   8.670   0.661   6.802
 3850SOL     OW23580   3.387   3.917   1.538
 3850SOL    HW123581   3.342   3.870   1.614
 3850SOL    HW223582   3.370   3.868   1.453
 3851SOL     OW23583   4.529   7.702   2.596
 3851SOL    HW123584   4.544   7.795   2.630
 3851SOL    HW223585   4.526   7.704   2.496
 3852SOL     OW23586   3.706   4.950   5.368
 3852SOL    HW123587   3.697   4.952   5.269
 3852SOL    HW223588   3.653   5.024   5.409
 3853SOL     OW23589   0.430   2.520   0.532
 3853SOL    HW123590   0.382   2.599   0.494
 3853SOL    HW223591   0.364   2.457   0.571
 3854SOL     OW23592   1.234   4.838   6.244
 3854SOL    HW123593   1.261   4.873   6.154
 3854SOL    HW223594   1.188   4.911   6.295
 3855SOL     OW23595   5.346   7.051   6.551
 3855SOL    HW123596   5.395   6.993   6.617
 3855SOL    HW223597   5.408   7.076   6.477
 3856SOL     OW23598   2.990   7.858   6.171
 3856SOL    HW123599   2.937   7.777   6.195
 3856SOL    HW223600   2.928   7.934   6.150
 3857SOL     OW23601   5.766   6.250   1.176
 3857SOL    HW123602   5.669   6.264   1.157
 3857SOL    HW223603   5.806   6.192   1.105
 3858SOL     OW23604   2.895   0.196   5.745
 3858SOL    HW123605   2.968   0.160   5.686
 3858SOL    HW223606   2.936   0.249   5.820
 3859SOL     OW23607   8.297   8.260   1.682
 3859SOL    HW123608   8.355   8.254   1.763
 3859SOL    HW223609   8.207   8.295   1.707
 3860SOL     OW23610   2.464   7.138   6.822
 3860SOL    HW123611   2.396   7.075   6.784
 3860SOL    HW223612   2.421   7.197   6.890
 3861SOL     OW23613   0.688   6.400   4.729
 3861SOL    HW123614   0.716   6.387   4.634
 3861SOL    HW223615   0.767   6.387   4.789
 3862SOL     OW23616   5.869   5.872   2.242
 3862SOL    HW123617   5.856   5.774   2.261
 3862SOL    HW223618   5.966   5.894   2.242
 3863SOL     OW23619   2.360   8.073   0.540
 3863SOL    HW123620   2.412   8.013   0.601
 3863SOL    HW223621   2.373   8.168   0.567
 3864SOL     OW23622   8.556   7.092   6.824
 3864SOL    HW123623   8.560   7.192   6.830
 3864SOL    HW223624   8.588   7.062   6.734
 3865SOL     OW23625   6.894   0.949   6.537
 3865SOL    HW123626   6.835   0.883   6.582
 3865SOL    HW223627   6.987   0.911   6.530
 3866SOL     OW23628   9.108   6.132   7.158
 3866SOL    HW123629   9.115   6.049   7.214
 3866SOL    HW223630   9.080   6.209   7.216
 3867SOL     OW23631   4.092   0.007   6.180
 3867SOL    HW123632   4.047   0.096   6.189
 3867SOL    HW223633   4.114  -0.009   6.084
 3868SOL     OW23634   3.053   2.175   0.779
 3868SOL    HW123635   3.044   2.142   0.685
 3868SOL    HW223636   3.006   2.113   0.841
 3869SOL     OW23637   1.164   1.900   7.160
 3869SOL    HW123638   1.083   1.923   7.107
 3869SOL    HW223639   1.155   1.808   7.198
 3870SOL     OW23640   0.410   8.008   6.448
 3870SOL    HW123641   0.329   7.956   6.479
 3870SOL    HW223642   0.432   8.078   6.516
 3871SOL     OW23643   5.423   0.116   5.567
 3871SOL    HW123644   5.382   0.134   5.478
 3871SOL    HW223645   5.465   0.199   5.602
 3872SOL     OW23646   4.660   0.850   0.466
 3872SOL    HW123647   4.742   0.864   0.410
 3872SOL    HW223648   4.643   0.932   0.521
 3873SOL     OW23649   3.900   3.066   0.625
 3873SOL    HW123650   3.938   2.974   0.618
 3873SOL    HW223651   3.955   3.129   0.570
 3874SOL     OW23652   6.079   1.500   6.366
 3874SOL    HW123653   6.001   1.438   6.362
 3874SOL    HW223654   6.093   1.541   6.276
 3875SOL     OW23655   3.764   1.959   1.212
 3875SOL    HW123656   3.803   2.005   1.132
 3875SOL    HW223657   3.828   1.889   1.244
 3876SOL     OW23658   8.419   6.525   5.974
 3876SOL    HW123659   8.496   6.583   5.948
 3876SOL    HW223660   8.453   6.433   5.995
 3877SOL     OW23661   9.306   7.873   6.509
 3877SOL    HW123662   9.387   7.854   6.453
 3877SOL    HW223663   9.292   7.971   6.515
 3878SOL     OW23664   4.354   2.060   0.502
 3878SOL    HW123665   4.346   2.159   0.489
 3878SOL    HW223666   4.281   2.014   0.451
 3879SOL     OW23667   8.580   0.040   1.251
 3879SOL    HW123668   8.616   0.092   1.328
 3879SOL    HW223669   8.505  -0.018   1.283
 3880SOL     OW23670   8.355   6.851   1.169
 3880SOL    HW123671   8.360   6.793   1.250
 3880SOL    HW223672   8.307   6.802   1.096
 3881SOL     OW23673   9.317   3.446   1.819
 3881SOL    HW123674   9.273   3.372   1.871
 3881SOL    HW223675   9.287   3.534   1.856
 3882SOL     OW23676   5.919   6.787   1.518
 3882SOL    HW123677   5.917   6.768   1.616
 3882SOL    HW223678   5.954   6.707   1.469
 3883SOL     OW23679   2.990   7.381   5.990
 3883SOL    HW123680   3.038   7.332   5.917
 3883SOL    HW223681   3.045   7.377   6.073
 3884SOL     OW23682   4.452   1.783   2.116
 3884SOL    HW123683   4.478   1.858   2.176
 3884SOL    HW223684   4.393   1.719   2.165
 3885SOL     OW23685   7.634   0.091   6.222
 3885SOL    HW123686   7.625   0.180   6.177
 3885SOL    HW223687   7.578   0.090   6.304
 3886SOL     OW23688   9.339   5.481   5.273
 3886SOL    HW123689   9.415   5.479   5.208
 3886SOL    HW223690   9.254   5.502   5.224
 3887SOL     OW23691   4.617   5.186   1.216
 3887SOL    HW123692   4.555   5.249   1.169
 3887SOL    HW223693   4.603   5.193   1.315
 3888SOL     OW23694   0.694   1.231   6.771
 3888SOL    HW123695   0.632   1.230   6.692
 3888SOL    HW223696   0.780   1.187   6.746
 3889SOL     OW23697   8.084   6.880   5.386
 3889SOL    HW123698   8.028   6.962   5.400
 3889SOL    HW223699   8.024   6.801   5.374
 3890SOL     OW23700   3.857   6.016   1.001
 3890SOL    HW123701   3.911   6.098   1.013
 3890SOL    HW223702   3.780   6.016   1.066
 3891SOL     OW23703   8.853   6.279   6.234
 3891SOL    HW123704   8.815   6.194   6.271
 3891SOL    HW223705   8.938   6.302   6.283
 3892SOL     OW23706   3.885   7.334   2.829
 3892SOL    HW123707   3.916   7.239   2.827
 3892SOL    HW223708   3.898   7.372   2.921
 3893SOL     OW23709   9.098   2.813   1.188
 3893SOL    HW123710   9.142   2.801   1.100
 3893SOL    HW223711   9.143   2.755   1.257
 3894SOL     OW23712   7.067   5.520   5.556
 3894SOL    HW123713   7.076   5.503   5.654
 3894SOL    HW223714   7.016   5.605   5.541
 3895SOL     OW23715   4.587   5.235   1.484
 3895SOL    HW123716   4.490   5.214   1.496
 3895SOL    HW223717   4.601   5.333   1.497
 3896SOL     OW23718   6.213   4.636   6.089
 3896SOL    HW123719   6.165   4.560   6.045
 3896SOL    HW223720   6.198   4.633   6.188
 3897SOL     OW23721   1.381   6.823   4.772
 3897SOL    HW123722   1.429   6.836   4.685
 3897SOL    HW223723   1.346   6.729   4.777
 3898SOL     OW23724   0.497   0.159   6.721
 3898SOL    HW123725   0.557   0.085   6.753
 3898SOL    HW223726   0.453   0.202   6.799
 3899SOL     OW23727   5.905   3.720   6.802
 3899SOL    HW123728   5.937   3.639   6.753
 3899SOL    HW223729   5.836   3.693   6.869
 3900SOL     OW23730   3.569   7.201   7.130
 3900SOL    HW123731   3.638   7.134   7.157
 3900SOL    HW223732   3.566   7.275   7.197
 3901SOL     OW23733   3.764   7.534   1.532
 3901SOL    HW123734   3.698   7.497   1.467
 3901SOL    HW223735   3.747   7.631   1.545
 3902SOL     OW23736   4.574   4.516   1.354
 3902SOL    HW123737   4.570   4.548   1.259
 3902SOL    HW223738   4.640   4.441   1.360
 3903SOL     OW23739   5.422   4.121   1.286
 3903SOL    HW123740   5.470   4.185   1.347
 3903SOL    HW223741   5.466   4.121   1.196
 3904SOL     OW23742   4.155   0.858   1.069
 3904SOL    HW123743   4.237   0.914   1.057
 3904SOL    HW223744   4.164   0.775   1.015
 3905SOL     OW23745   6.216   0.128   1.476
 3905SOL    HW123746   6.293   0.065   1.460
 3905SOL    HW223747   6.186   0.165   1.388
 3906SOL     OW23748   6.219   2.171   5.896
 3906SOL    HW123749   6.296   2.228   5.871
 3906SOL    HW223750   6.144   2.185   5.831
 3907SOL     OW23751   0.394   7.439   5.842
 3907SOL    HW123752   0.347   7.408   5.760
 3907SOL    HW223753   0.353   7.396   5.923
 3908SOL     OW23754   1.419   6.239   0.940
 3908SOL    HW123755   1.416   6.145   0.906
 3908SOL    HW223756   1.498   6.286   0.900
 3909SOL     OW23757   8.342   7.196   0.799
 3909SOL    HW123758   8.321   7.098   0.801
 3909SOL    HW223759   8.366   7.227   0.891
 3910SOL     OW23760   8.760   2.203   7.153
 3910SOL    HW123761   8.795   2.290   7.117
 3910SOL    HW223762   8.723   2.149   7.078
 3911SOL     OW23763   7.182   2.092   7.104
 3911SOL    HW123764   7.113   2.030   7.067
 3911SOL    HW223765   7.179   2.178   7.053
 3912SOL     OW23766   0.778   5.459   6.415
 3912SOL    HW123767   0.773   5.410   6.502
 3912SOL    HW223768   0.829   5.544   6.427
 3913SOL     OW23769   5.222   1.522   6.565
 3913SOL    HW123770   5.275   1.459   6.508
 3913SOL    HW223771   5.130   1.486   6.579
 3914SOL     OW23772   1.437   3.770   1.084
 3914SOL    HW123773   1.342   3.783   1.053
 3914SOL    HW223774   1.462   3.844   1.146
 3915SOL     OW23775   7.146   2.339   7.022
 3915SOL    HW123776   7.239   2.350   6.986
 3915SOL    HW223777   7.129   2.408   7.091
 3916SOL     OW23778   7.072   7.736   7.070
 3916SOL    HW123779   7.007   7.778   7.006
 3916SOL    HW223780   7.023   7.706   7.152
 3917SOL     OW23781   2.351   3.838   6.130
 3917SOL    HW123782   2.445   3.830   6.098
 3917SOL    HW223783   2.292   3.781   6.073
 3918SOL     OW23784   8.148   0.714   5.515
 3918SOL    HW123785   8.072   0.671   5.563
 3918SOL    HW223786   8.182   0.653   5.444
 3919SOL     OW23787   2.725   5.824   6.513
 3919SOL    HW123788   2.667   5.895   6.472
 3919SOL    HW223789   2.817   5.861   6.527
 3920SOL     OW23790   3.132   0.532   1.131
 3920SOL    HW123791   3.049   0.489   1.095
 3920SOL    HW223792   3.186   0.464   1.182
 3921SOL     OW23793   4.965   7.898   6.459
 3921SOL    HW123794   4.974   7.938   6.551
 3921SOL    HW223795   5.035   7.938   6.399
 3922SOL     OW23796   7.321   3.825   1.272
 3922SOL    HW123797   7.308   3.779   1.360
 3922SOL    HW223798   7.418   3.848   1.260
 3923SOL     OW23799   3.073   6.889   5.971
 3923SOL    HW123800   2.988   6.879   6.022
 3923SOL    HW223801   3.058   6.949   5.892
 3924SOL     OW23802   2.562   7.228   0.907
 3924SOL    HW123803   2.614   7.309   0.879
 3924SOL    HW223804   2.466   7.254   0.922
 3925SOL     OW23805   4.696   5.641   6.425
 3925SOL    HW123806   4.764   5.679   6.362
 3925SOL    HW223807   4.722   5.548   6.450
 3926SOL     OW23808   6.065   4.588   1.513
 3926SOL    HW123809   5.985   4.648   1.517
 3926SOL    HW223810   6.071   4.535   1.597
 3927SOL     OW23811   3.515   3.869   1.978
 3927SOL    HW123812   3.553   3.952   1.938
 3927SOL    HW223813   3.423   3.854   1.942
 3928SOL     OW23814   4.633   1.420   1.422
 3928SOL    HW123815   4.721   1.391   1.460
 3928SOL    HW223816   4.558   1.379   1.474
 3929SOL     OW23817   7.584   6.712   0.528
 3929SOL    HW123818   7.500   6.712   0.473
 3929SOL    HW223819   7.565   6.674   0.618
 3930SOL     OW23820   9.463   7.445   0.917
 3930SOL    HW123821   9.501   7.405   1.000
 3930SOL    HW223822   9.384   7.391   0.887
 3931SOL     OW23823   8.109   0.439   0.826
 3931SOL    HW123824   8.139   0.460   0.733
 3931SOL    HW223825   8.101   0.523   0.878
 3932SOL     OW23826   6.047   2.276   0.562
 3932SOL    HW123827   6.099   2.359   0.583
 3932SOL    HW223828   6.081   2.200   0.617
 3933SOL     OW23829   8.692   1.353   6.567
 3933SOL    HW123830   8.755   1.307   6.630
 3933SOL    HW223831   8.601   1.312   6.575
 3934SOL     OW23832   3.301   6.127   1.221
 3934SOL    HW123833   3.322   6.133   1.124
 3934SOL    HW223834   3.234   6.196   1.245
 3935SOL     OW23835   5.336   1.514   1.628
 3935SOL    HW123836   5.378   1.447   1.690
 3935SOL    HW223837   5.312   1.470   1.542
 3936SOL     OW23838   7.992   4.648   0.629
 3936SOL    HW123839   8.022   4.726   0.574
 3936SOL    HW223840   7.950   4.579   0.569
 3937SOL     OW23841   7.269   0.307   6.826
 3937SOL    HW123842   7.171   0.299   6.804
 3937SOL    HW223843   7.281   0.360   6.909
 3938SOL     OW23844   1.014   2.308   7.125
 3938SOL    HW123845   1.102   2.262   7.114
 3938SOL    HW223846   1.029   2.406   7.138
 3939SOL     OW23847   6.147   6.654   0.445
 3939SOL    HW123848   6.088   6.587   0.491
 3939SOL    HW223849   6.241   6.644   0.478
 3940SOL     OW23850   7.374   5.401   1.580
 3940SOL    HW123851   7.359   5.344   1.661
 3940SOL    HW223852   7.463   5.446   1.586
 3941SOL     OW23853   6.311   4.727   6.473
 3941SOL    HW123854   6.381   4.670   6.515
 3941SOL    HW223855   6.352   4.812   6.440
 3942SOL     OW23856   9.389   5.174   6.951
 3942SOL    HW123857   9.310   5.223   6.989
 3942SOL    HW223858   9.472   5.203   6.998
 3943SOL     OW23859   7.474   8.401   5.126
 3943SOL    HW123860   7.538   8.441   5.191
 3943SOL    HW223861   7.430   8.321   5.167
 3944SOL     OW23862   7.793   4.613   6.742
 3944SOL    HW123863   7.804   4.657   6.831
 3944SOL    HW223864   7.861   4.649   6.678
 3945SOL     OW23865   1.766   6.575   0.979
 3945SOL    HW123866   1.810   6.577   0.889
 3945SOL    HW223867   1.810   6.643   1.038
 3946SOL     OW23868   0.865   4.552   5.673
 3946SOL    HW123869   0.960   4.532   5.694
 3946SOL    HW223870   0.847   4.531   5.576
 3947SOL     OW23871   7.629   5.395   0.497
 3947SOL    HW123872   7.582   5.343   0.426
 3947SOL    HW223873   7.721   5.420   0.465
 3948SOL     OW23874   1.850   3.383   6.005
 3948SOL    HW123875   1.783   3.336   5.947
 3948SOL    HW223876   1.889   3.318   6.070
 3949SOL     OW23877   8.931   7.920   1.802
 3949SOL    HW123878   8.840   7.961   1.793
 3949SOL    HW223879   8.972   7.949   1.888
 3950SOL     OW23880   7.182   6.414   0.602
 3950SOL    HW123881   7.183   6.320   0.636
 3950SOL    HW223882   7.124   6.419   0.520
 3951SOL     OW23883   3.997   7.020   0.505
 3951SOL    HW123884   4.091   7.036   0.472
 3951SOL    HW223885   3.991   6.930   0.546
 3952SOL     OW23886   2.325   7.109   6.359
 3952SOL    HW123887   2.264   7.127   6.436
 3952SOL    HW223888   2.284   7.145   6.275
 3953SOL     OW23889   7.463   4.513   1.074
 3953SOL    HW123890   7.411   4.587   1.032
 3953SOL    HW223891   7.538   4.487   1.014
 3954SOL     OW23892   7.563   7.951   0.647
 3954SOL    HW123893   7.610   8.022   0.699
 3954SOL    HW223894   7.500   7.902   0.708
 3955SOL     OW23895   1.303   6.327   1.654
 3955SOL    HW123896   1.337   6.421   1.665
 3955SOL    HW223897   1.267   6.316   1.561
 3956SOL     OW23898   6.108   8.376   1.551
 3956SOL    HW123899   6.102   8.320   1.633
 3956SOL    HW223900   6.158   8.460   1.571
 3957SOL     OW23901   6.790   3.072   1.309
 3957SOL    HW123902   6.869   3.087   1.250
 3957SOL    HW223903   6.812   3.003   1.378
 3958SOL     OW23904   4.761   8.340   6.595
 3958SOL    HW123905   4.673   8.371   6.558
 3958SOL    HW223906   4.777   8.246   6.568
 3959SOL     OW23907   8.017   2.848   1.536
 3959SOL    HW123908   8.018   2.758   1.493
 3959SOL    HW223909   7.951   2.849   1.611
 3960SOL     OW23910   1.490   7.598   5.638
 3960SOL    HW123911   1.565   7.555   5.587
 3960SOL    HW223912   1.410   7.607   5.579
 3961SOL     OW23913   4.647   8.336   1.465
 3961SOL    HW123914   4.682   8.429   1.453
 3961SOL    HW223915   4.671   8.303   1.556
 3962SOL     OW23916   2.325   1.696   6.176
 3962SOL    HW123917   2.310   1.794   6.185
 3962SOL    HW223918   2.307   1.669   6.081
 3963SOL     OW23919   9.223   3.684   1.958
 3963SOL    HW123920   9.171   3.767   1.934
 3963SOL    HW223921   9.231   3.677   2.057
 3964SOL     OW23922   5.244   1.779   1.727
 3964SOL    HW123923   5.233   1.798   1.824
 3964SOL    HW223924   5.272   1.683   1.715
 3965SOL     OW23925   3.349   7.849   2.018
 3965SOL    HW123926   3.355   7.839   2.117
 3965SOL    HW223927   3.286   7.780   1.982
 3966SOL     OW23928   0.779   0.327   6.511
 3966SOL    HW123929   0.813   0.268   6.584
 3966SOL    HW223930   0.829   0.414   6.512
 3967SOL     OW23931   2.899   2.141   1.973
 3967SOL    HW123932   2.841   2.078   2.025
 3967SOL    HW223933   2.920   2.101   1.884
 3968SOL     OW23934   0.549   8.310   6.121
 3968SOL    HW123935   0.498   8.352   6.196
 3968SOL    HW223936   0.503   8.226   6.092
 3969SOL     OW23937   6.001   8.266   5.799
 3969SOL    HW123938   5.986   8.346   5.857
 3969SOL    HW223939   6.099   8.256   5.780
 3970SOL     OW23940   0.969   0.852   2.363
 3970SOL    HW123941   1.052   0.876   2.413
 3970SOL    HW223942   0.899   0.922   2.381
 3971SOL     OW23943   5.679   2.737   6.029
 3971SOL    HW123944   5.608   2.793   5.986
 3971SOL    HW223945   5.647   2.643   6.038
 3972SOL     OW23946   4.206   0.990   6.172
 3972SOL    HW123947   4.206   1.084   6.137
 3972SOL    HW223948   4.250   0.988   6.262
 3973SOL     OW23949   2.684   4.758   6.338
 3973SOL    HW123950   2.731   4.804   6.264
 3973SOL    HW223951   2.704   4.660   6.335
 3974SOL     OW23952   0.242   3.862   7.043
 3974SOL    HW123953   0.213   3.769   7.020
 3974SOL    HW223954   0.327   3.858   7.095
 3975SOL     OW23955   0.818   1.225   5.441
 3975SOL    HW123956   0.787   1.313   5.478
 3975SOL    HW223957   0.915   1.232   5.416
 3976SOL     OW23958   6.230   7.140   1.130
 3976SOL    HW123959   6.292   7.218   1.117
 3976SOL    HW223960   6.141   7.162   1.090
 3977SOL     OW23961   0.541   7.266   2.383
 3977SOL    HW123962   0.481   7.345   2.375
 3977SOL    HW223963   0.509   7.207   2.457
 3978SOL     OW23964   0.560   5.699   4.734
 3978SOL    HW123965   0.488   5.701   4.803
 3978SOL    HW223966   0.637   5.646   4.768
 3979SOL     OW23967   3.018   8.351   6.494
 3979SOL    HW123968   3.052   8.412   6.422
 3979SOL    HW223969   2.921   8.368   6.510
 3980SOL     OW23970   7.477   4.392   6.520
 3980SOL    HW123971   7.445   4.486   6.534
 3980SOL    HW223972   7.478   4.371   6.423
 3981SOL     OW23973   8.955   3.566   6.319
 3981SOL    HW123974   8.893   3.592   6.393
 3981SOL    HW223975   8.969   3.644   6.258
 3982SOL     OW23976   5.609   8.432   0.531
 3982SOL    HW123977   5.601   8.333   0.541
 3982SOL    HW223978   5.693   8.463   0.577
 3983SOL     OW23979   8.167   0.126   7.036
 3983SOL    HW123980   8.146   0.088   6.946
 3983SOL    HW223981   8.259   0.100   7.064
 3984SOL     OW23982   6.230   7.741   0.865
 3984SOL    HW123983   6.188   7.697   0.944
 3984SOL    HW223984   6.177   7.721   0.783
 3985SOL     OW23985   0.663   6.392   5.214
 3985SOL    HW123986   0.676   6.322   5.285
 3985SOL    HW223987   0.736   6.386   5.147
 3986SOL     OW23988   0.955   4.221   6.868
 3986SOL    HW123989   0.953   4.278   6.950
 3986SOL    HW223990   0.931   4.276   6.788
 3987SOL     OW23991   6.610   4.197   5.897
 3987SOL    HW123992   6.662   4.281   5.913
 3987SOL    HW223993   6.518   4.207   5.936
 3988SOL     OW23994   6.549   2.587   0.791
 3988SOL    HW123995   6.564   2.584   0.693
 3988SOL    HW223996   6.482   2.658   0.813
 3989SOL     OW23997   0.339   5.322   6.405
 3989SOL    HW123998   0.263   5.387   6.398
 3989SOL    HW223999   0.333   5.255   6.332
 3990SOL     OW24000   1.705   5.711   6.561
 3990SOL    HW124001   1.709   5.776   6.485
 3990SOL    HW224002   1.753   5.627   6.536
 3991SOL     OW24003   7.538   7.994   1.397
 3991SOL    HW124004   7.526   8.083   1.353
 3991SOL    HW224005   7.466   7.980   1.465
 3992SOL     OW24006   4.614   6.458   6.014
 3992SOL    HW124007   4.589   6.404   5.934
 3992SOL    HW224008   4.595   6.555   5.997
 3993SOL     OW24009   1.488   1.830   0.457
 3993SOL    HW124010   1.532   1.768   0.522
 3993SOL    HW224011   1.391   1.838   0.479
 3994SOL     OW24012   2.835   3.342   1.389
 3994SOL    HW124013   2.903   3.384   1.329
 3994SOL    HW224014   2.879   3.273   1.447
 3995SOL     OW24015   6.619   8.191   1.852
 3995SOL    HW124016   6.629   8.092   1.862
 3995SOL    HW224017   6.630   8.234   1.941
 3996SOL     OW24018   8.851   8.167   0.951
 3996SOL    HW124019   8.942   8.129   0.932
 3996SOL    HW224020   8.797   8.168   0.867
 3997SOL     OW24021   3.942   6.698   5.945
 3997SOL    HW124022   3.864   6.740   5.992
 3997SOL    HW224023   3.947   6.601   5.969
 3998SOL     OW24024   5.448   0.936   1.568
 3998SOL    HW124025   5.428   1.012   1.630
 3998SOL    HW224026   5.366   0.912   1.516
 3999SOL     OW24027   7.183   5.009   0.692
 3999SOL    HW124028   7.106   4.958   0.653
 3999SOL    HW224029   7.244   5.038   0.618
 4000SOL     OW24030   2.673   1.719   6.422
 4000SOL    HW124031   2.683   1.627   6.460
 4000SOL    HW224032   2.647   1.714   6.326
 4001SOL     OW24033   6.388   0.830   2.307
 4001SOL    HW124034   6.457   0.869   2.246
 4001SOL    HW224035   6.425   0.748   2.350
 4002SOL     OW24036   4.621   6.757   2.553
 4002SOL    HW124037   4.529   6.722   2.572
 4002SOL    HW224038   4.675   6.686   2.509
 4003SOL     OW24039   9.345   5.284   1.398
 4003SOL    HW124040   9.427   5.276   1.454
 4003SOL    HW224041   9.264   5.273   1.456
 4004SOL     OW24042   6.218   5.884   1.735
 4004SOL    HW124043   6.243   5.882   1.832
 4004SOL    HW224044   6.153   5.959   1.719
 4005SOL     OW24045   7.341   5.713   5.700
 4005SOL    HW124046   7.393   5.672   5.625
 4005SOL    HW224047   7.255   5.663   5.712
 4006SOL     OW24048   5.461   1.507   6.126
 4006SOL    HW124049   5.543   1.466   6.085
 4006SOL    HW224050   5.454   1.603   6.096
 4007SOL     OW24051   2.013   7.568   5.442
 4007SOL    HW124052   2.012   7.529   5.350
 4007SOL    HW224053   2.095   7.538   5.491
 4008SOL     OW24054   9.413   6.511   0.626
 4008SOL    HW124055   9.483   6.556   0.570
 4008SOL    HW224056   9.453   6.485   0.714
 4009SOL     OW24057   7.031   6.342   1.566
 4009SOL    HW124058   6.943   6.334   1.520
 4009SOL    HW224059   7.053   6.257   1.613
 4010SOL     OW24060   9.556   0.991   0.579
 4010SOL    HW124061   9.547   0.966   0.675
 4010SOL    HW224062   9.513   1.080   0.563
 4011SOL     OW24063   0.485  -0.061   5.866
 4011SOL    HW124064   0.536  -0.088   5.947
 4011SOL    HW224065   0.546  -0.012   5.803
 4012SOL     OW24066   3.184   4.108   1.258
 4012SOL    HW124067   3.128   4.099   1.340
 4012SOL    HW224068   3.232   4.022   1.241
 4013SOL     OW24069   5.247   3.435   1.230
 4013SOL    HW124070   5.225   3.364   1.163
 4013SOL    HW224071   5.309   3.397   1.299
 4014SOL     OW24072   2.633   2.368   6.749
 4014SOL    HW124073   2.673   2.411   6.831
 4014SOL    HW224074   2.618   2.271   6.766
 4015SOL     OW24075   3.726   0.868   5.363
 4015SOL    HW124076   3.817   0.877   5.323
 4015SOL    HW224077   3.658   0.867   5.291
 4016SOL     OW24078   8.675   7.613   1.629
 4016SOL    HW124079   8.585   7.569   1.628
 4016SOL    HW224080   8.746   7.545   1.646
 4017SOL     OW24081   3.200   7.110   1.867
 4017SOL    HW124082   3.215   7.184   1.933
 4017SOL    HW224083   3.235   7.138   1.777
 4018SOL     OW24084   7.973   5.221   5.908
 4018SOL    HW124085   7.980   5.221   6.008
 4018SOL    HW224086   7.897   5.280   5.879
 4019SOL     OW24087   4.664   0.736   1.618
 4019SOL    HW124088   4.609   0.773   1.693
 4019SOL    HW224089   4.623   0.761   1.531
 4020SOL     OW24090   8.551   3.368   6.876
 4020SOL    HW124091   8.527   3.464   6.892
 4020SOL    HW224092   8.513   3.340   6.787
 4021SOL     OW24093   3.273   4.231   7.023
 4021SOL    HW124094   3.325   4.167   7.079
 4021SOL    HW224095   3.188   4.189   6.994
 4022SOL     OW24096   4.500   8.366   0.783
 4022SOL    HW124097   4.409   8.326   0.799
 4022SOL    HW224098   4.505   8.455   0.827
 4023SOL     OW24099   1.960   0.005   1.466
 4023SOL    HW124100   2.035  -0.056   1.441
 4023SOL    HW224101   1.944   0.000   1.565
 4024SOL     OW24102   4.949   1.609   5.683
 4024SOL    HW124103   4.997   1.697   5.677
 4024SOL    HW224104   4.898   1.593   5.598
 4025SOL     OW24105   7.002   8.207   6.517
 4025SOL    HW124106   7.098   8.179   6.521
 4025SOL    HW224107   6.985   8.276   6.587
 4026SOL     OW24108   9.385   2.116   5.505
 4026SOL    HW124109   9.285   2.107   5.499
 4026SOL    HW224110   9.417   2.179   5.435
 4027SOL     OW24111   6.524   2.422   0.524
 4027SOL    HW124112   6.583   2.435   0.444
 4027SOL    HW224113   6.579   2.393   0.602
 4028SOL     OW24114   8.565   4.509   7.043
 4028SOL    HW124115   8.559   4.582   6.975
 4028SOL    HW224116   8.473   4.475   7.063
 4029SOL     OW24117   1.652   7.277   6.720
 4029SOL    HW124118   1.742   7.256   6.758
 4029SOL    HW224119   1.662   7.332   6.637
 4030SOL     OW24120   1.876   4.675   1.083
 4030SOL    HW124121   1.895   4.578   1.067
 4030SOL    HW224122   1.912   4.729   1.007
 4031SOL     OW24123   3.991   8.055   1.397
 4031SOL    HW124124   4.005   8.025   1.302
 4031SOL    HW224125   3.976   7.975   1.455
 4032SOL     OW24126   8.178   0.263   5.971
 4032SOL    HW124127   8.245   0.336   5.985
 4032SOL    HW224128   8.184   0.197   6.047
 4033SOL     OW24129   3.251   8.186   2.229
 4033SOL    HW124130   3.219   8.258   2.291
 4033SOL    HW224131   3.306   8.119   2.280
 4034SOL     OW24132   4.852   0.241   6.521
 4034SOL    HW124133   4.758   0.232   6.487
 4034SOL    HW224134   4.853   0.301   6.601
 4035SOL     OW24135   6.753   6.608   1.303
 4035SOL    HW124136   6.694   6.547   1.356
 4035SOL    HW224137   6.701   6.687   1.273
 4036SOL     OW24138   4.242   6.511   1.845
 4036SOL    HW124139   4.318   6.450   1.866
 4036SOL    HW224140   4.275   6.585   1.786
 4037SOL     OW24141   1.691   5.383   1.382
 4037SOL    HW124142   1.634   5.354   1.459
 4037SOL    HW224143   1.650   5.351   1.297
 4038SOL     OW24144   3.895   0.574   1.208
 4038SOL    HW124145   3.987   0.571   1.168
 4038SOL    HW224146   3.842   0.647   1.164
 4039SOL     OW24147   1.094   0.894   5.730
 4039SOL    HW124148   1.024   0.965   5.741
 4039SOL    HW224149   1.157   0.920   5.657
 4040SOL     OW24150   9.095   8.259   6.771
 4040SOL    HW124151   9.087   8.161   6.786
 4040SOL    HW224152   9.063   8.308   6.852
 4041SOL     OW24153   1.458   5.729   1.277
 4041SOL    HW124154   1.396   5.776   1.340
 4041SOL    HW224155   1.480   5.639   1.315
 4042SOL     OW24156   9.372   3.589   6.835
 4042SOL    HW124157   9.349   3.685   6.849
 4042SOL    HW224158   9.305   3.547   6.773
 4043SOL     OW24159   6.579   2.019   1.724
 4043SOL    HW124160   6.628   1.933   1.707
 4043SOL    HW224161   6.510   2.033   1.652
 4044SOL     OW24162   0.611   2.407   6.527
 4044SOL    HW124163   0.545   2.384   6.455
 4044SOL    HW224164   0.567   2.467   6.594
 4045SOL     OW24165   3.119   6.115   6.238
 4045SOL    HW124166   3.144   6.123   6.141
 4045SOL    HW224167   3.024   6.144   6.250
 4046SOL     OW24168   2.012   6.553   2.102
 4046SOL    HW124169   2.094   6.608   2.120
 4046SOL    HW224170   2.026   6.461   2.139
 4047SOL     OW24171   8.059   8.270   6.178
 4047SOL    HW124172   8.088   8.254   6.084
 4047SOL    HW224173   8.010   8.357   6.184
 4048SOL     OW24174   4.795   1.359   6.214
 4048SOL    HW124175   4.731   1.391   6.284
 4048SOL    HW224176   4.745   1.314   6.141
 4049SOL     OW24177   3.998   0.515   5.667
 4049SOL    HW124178   3.921   0.578   5.664
 4049SOL    HW224179   4.066   0.541   5.598
 4050SOL     OW24180   6.856   4.479   1.042
 4050SOL    HW124181   6.892   4.418   0.971
 4050SOL    HW224182   6.779   4.435   1.088
 4051SOL     OW24183   8.989   0.497   6.424
 4051SOL    HW124184   9.004   0.592   6.400
 4051SOL    HW224185   9.073   0.458   6.463
 4052SOL     OW24186   2.034   7.639   6.389
 4052SOL    HW124187   2.060   7.734   6.403
 4052SOL    HW224188   1.937   7.634   6.362
 4053SOL     OW24189   3.738   1.118   5.536
 4053SOL    HW124190   3.706   1.208   5.507
 4053SOL    HW224191   3.710   1.050   5.469
 4054SOL     OW24192   7.742   0.550   0.634
 4054SOL    HW124193   7.814   0.491   0.600
 4054SOL    HW224194   7.726   0.530   0.731
 4055SOL     OW24195   7.579   7.215   6.954
 4055SOL    HW124196   7.621   7.186   7.040
 4055SOL    HW224197   7.513   7.146   6.925
 4056SOL     OW24198   1.693   7.459   5.484
 4056SOL    HW124199   1.781   7.412   5.491
 4056SOL    HW224200   1.684   7.499   5.392
 4057SOL     OW24201   8.393   4.767   5.587
 4057SOL    HW124202   8.375   4.760   5.489
 4057SOL    HW224203   8.424   4.859   5.609
 4058SOL     OW24204   4.913   6.838   1.104
 4058SOL    HW124205   4.904   6.797   1.013
 4058SOL    HW224206   4.829   6.822   1.156
 4059SOL     OW24207   7.515   6.688   6.299
 4059SOL    HW124208   7.499   6.675   6.201
 4059SOL    HW224209   7.436   6.655   6.350
 4060SOL     OW24210   0.723   5.685   6.003
 4060SOL    HW124211   0.694   5.646   5.915
 4060SOL    HW224212   0.696   5.781   6.007
 4061SOL     OW24213   4.014   4.653   1.312
 4061SOL    HW124214   4.008   4.603   1.398
 4061SOL    HW224215   4.078   4.729   1.321
 4062SOL     OW24216   3.953   0.701   5.971
 4062SOL    HW124217   3.926   0.671   5.879
 4062SOL    HW224218   3.909   0.789   5.991
 4063SOL     OW24219   8.206   7.084   6.132
 4063SOL    HW124220   8.247   7.082   6.223
 4063SOL    HW224221   8.234   7.168   6.085
 4064SOL     OW24222   1.828   1.109   5.293
 4064SOL    HW124223   1.860   1.014   5.298
 4064SOL    HW224224   1.903   1.168   5.263
 4065SOL     OW24225   9.540   2.968   7.116
 4065SOL    HW124226   9.506   2.875   7.103
 4065SOL    HW224227   9.640   2.969   7.109
 4066SOL     OW24228   4.349   0.336   2.312
 4066SOL    HW124229   4.357   0.427   2.271
 4066SOL    HW224230   4.343   0.344   2.411
 4067SOL     OW24231   0.136   0.014   6.967
 4067SOL    HW124232   0.159   0.081   6.897
 4067SOL    HW224233   0.123  -0.076   6.924
 4068SOL     OW24234   7.884   5.100   6.461
 4068SOL    HW124235   7.874   5.185   6.408
 4068SOL    HW224236   7.972   5.058   6.440
 4069SOL     OW24237   1.740   2.124   7.071
 4069SOL    HW124238   1.696   2.209   7.099
 4069SOL    HW224239   1.683   2.078   7.002
 4070SOL     OW24240   7.200   8.269   7.069
 4070SOL    HW124241   7.236   8.178   7.052
 4070SOL    HW224242   7.100   8.268   7.060
 4071SOL     OW24243   6.480   2.108   0.669
 4071SOL    HW124244   6.475   2.009   0.675
 4071SOL    HW224245   6.576   2.137   0.670
 4072SOL     OW24246   8.513   2.671   1.100
 4072SOL    HW124247   8.490   2.751   1.155
 4072SOL    HW224248   8.586   2.620   1.145
 4073SOL     OW24249   9.133   8.385   6.138
 4073SOL    HW124250   9.104   8.472   6.100
 4073SOL    HW224251   9.087   8.370   6.226
 4074SOL     OW24252   2.266   4.608   1.116
 4074SOL    HW124253   2.204   4.559   1.176
 4074SOL    HW224254   2.237   4.595   1.021
 4075SOL     OW24255   0.601   7.047   2.184
 4075SOL    HW124256   0.651   6.969   2.221
 4075SOL    HW224257   0.603   7.122   2.249
 4076SOL     OW24258   8.959   2.019   0.850
 4076SOL    HW124259   8.956   2.055   0.757
 4076SOL    HW224260   9.013   2.080   0.908
 4077SOL     OW24261   7.385   4.697   6.754
 4077SOL    HW124262   7.305   4.685   6.695
 4077SOL    HW224263   7.381   4.631   6.829
 4078SOL     OW24264   6.550   0.580   1.547
 4078SOL    HW124265   6.570   0.515   1.474
 4078SOL    HW224266   6.610   0.562   1.625
 4079SOL     OW24267   6.868   6.862   1.166
 4079SOL    HW124268   6.769   6.868   1.179
 4079SOL    HW224269   6.897   6.930   1.099
 4080SOL     OW24270   1.513   8.274   1.233
 4080SOL    HW124271   1.582   8.301   1.165
 4080SOL    HW224272   1.552   8.282   1.325
 4081SOL     OW24273   4.007   4.122   2.025
 4081SOL    HW124274   3.931   4.118   2.090
 4081SOL    HW224275   4.093   4.136   2.075
 4082SOL     OW24276   7.066   2.811   0.459
 4082SOL    HW124277   7.164   2.798   0.471
 4082SOL    HW224278   7.038   2.898   0.499
 4083SOL     OW24279   6.900   1.300   0.454
 4083SOL    HW124280   6.910   1.362   0.376
 4083SOL    HW224281   6.879   1.208   0.422
 4084SOL     OW24282   8.441   5.962   1.343
 4084SOL    HW124283   8.515   5.929   1.285
 4084SOL    HW224284   8.475   6.035   1.402
 4085SOL     OW24285   5.937   2.744   5.927
 4085SOL    HW124286   5.925   2.675   5.856
 4085SOL    HW224287   5.854   2.751   5.982
 4086SOL     OW24288   2.529   6.605   1.236
 4086SOL    HW124289   2.604   6.661   1.271
 4086SOL    HW224290   2.566   6.518   1.201
 4087SOL     OW24291   1.358   1.079   1.491
 4087SOL    HW124292   1.361   1.120   1.583
 4087SOL    HW224293   1.309   0.993   1.495
 4088SOL     OW24294   0.510   5.992   1.596
 4088SOL    HW124295   0.563   6.020   1.677
 4088SOL    HW224296   0.421   5.959   1.624
 4089SOL     OW24297   0.155   6.022   6.184
 4089SOL    HW124298   0.065   6.057   6.211
 4089SOL    HW224299   0.151   5.923   6.175
 4090SOL     OW24300   6.100   1.476   6.044
 4090SOL    HW124301   6.046   1.524   5.976
 4090SOL    HW224302   6.092   1.377   6.030
 4091SOL     OW24303   4.323   3.269   5.844
 4091SOL    HW124304   4.394   3.203   5.819
 4091SOL    HW224305   4.274   3.297   5.761
 4092SOL     OW24306   4.131   1.918   6.115
 4092SOL    HW124307   4.180   1.858   6.052
 4092SOL    HW224308   4.195   1.954   6.183
 4093SOL     OW24309   7.934   6.598   1.050
 4093SOL    HW124310   7.975   6.512   1.022
 4093SOL    HW224311   7.893   6.588   1.141
 4094SOL     OW24312   4.663   6.433   6.303
 4094SOL    HW124313   4.651   6.467   6.209
 4094SOL    HW224314   4.597   6.360   6.320
 4095SOL     OW24315   2.810   7.174   6.055
 4095SOL    HW124316   2.852   7.262   6.030
 4095SOL    HW224317   2.738   7.190   6.122
 4096SOL     OW24318   1.520   3.939   1.580
 4096SOL    HW124319   1.539   3.900   1.670
 4096SOL    HW224320   1.429   3.910   1.550
 4097SOL     OW24321   1.114   6.768   1.292
 4097SOL    HW124322   1.065   6.748   1.376
 4097SOL    HW224323   1.209   6.791   1.313
 4098SOL     OW24324   1.783   4.955   6.111
 4098SOL    HW124325   1.717   4.966   6.037
 4098SOL    HW224326   1.873   4.933   6.072
 4099SOL     OW24327   7.500   4.257   6.759
 4099SOL    HW124328   7.500   4.320   6.681
 4099SOL    HW224329   7.513   4.163   6.726
 4100SOL     OW24330   4.171   6.720   6.110
 4100SOL    HW124331   4.221   6.647   6.064
 4100SOL    HW224332   4.081   6.731   6.068
 4101SOL     OW24333   5.028   5.220   1.659
 4101SOL    HW124334   5.096   5.276   1.612
 4101SOL    HW224335   4.969   5.175   1.592
 4102SOL     OW24336   8.382   5.546   1.109
 4102SOL    HW124337   8.460   5.486   1.086
 4102SOL    HW224338   8.315   5.542   1.036
 4103SOL     OW24339   3.519   4.149   2.048
 4103SOL    HW124340   3.571   4.227   2.013
 4103SOL    HW224341   3.422   4.163   2.030
 4104SOL     OW24342   4.828   5.682   0.978
 4104SOL    HW124343   4.829   5.754   1.048
 4104SOL    HW224344   4.845   5.722   0.888
 4105SOL     OW24345   3.143   4.761   6.040
 4105SOL    HW124346   3.212   4.689   6.034
 4105SOL    HW224347   3.170   4.837   5.980
 4106SOL     OW24348   9.029   2.877   5.961
 4106SOL    HW124349   9.092   2.856   6.035
 4106SOL    HW224350   8.974   2.957   5.984
 4107SOL     OW24351   8.672   7.326   5.454
 4107SOL    HW124352   8.686   7.228   5.437
 4107SOL    HW224353   8.701   7.378   5.374
 4108SOL     OW24354   8.880   0.357   0.867
 4108SOL    HW124355   8.941   0.407   0.928
 4108SOL    HW224356   8.890   0.392   0.774
 4109SOL     OW24357   9.530   3.591   0.570
 4109SOL    HW124358   9.462   3.517   0.570
 4109SOL    HW224359   9.619   3.553   0.542
 4110SOL     OW24360   6.677   4.688   6.433
 4110SOL    HW124361   6.743   4.763   6.432
 4110SOL    HW224362   6.621   4.691   6.350
 4111SOL     OW24363   0.746   7.794   0.978
 4111SOL    HW124364   0.780   7.719   1.036
 4111SOL    HW224365   0.815   7.816   0.909
 4112SOL     OW24366   5.167   8.394   6.928
 4112SOL    HW124367   5.074   8.372   6.896
 4112SOL    HW224368   5.194   8.483   6.891
 4113SOL     OW24369   7.559   8.235   6.565
 4113SOL    HW124370   7.614   8.160   6.601
 4113SOL    HW224371   7.618   8.300   6.517
 4114SOL     OW24372   0.874   0.229   6.768
 4114SOL    HW124373   0.849   0.168   6.844
 4114SOL    HW224374   0.951   0.286   6.795
 4115SOL     OW24375   5.781   0.203   1.016
 4115SOL    HW124376   5.789   0.103   1.013
 4115SOL    HW224377   5.763   0.238   0.923
 4116SOL     OW24378   5.439   0.327   6.912
 4116SOL    HW124379   5.399   0.407   6.957
 4116SOL    HW224380   5.461   0.349   6.817
 4117SOL     OW24381   2.906   6.692   1.055
 4117SOL    HW124382   2.946   6.782   1.043
 4117SOL    HW224383   2.976   6.622   1.040
 4118SOL     OW24384   5.737   1.392   1.113
 4118SOL    HW124385   5.742   1.425   1.207
 4118SOL    HW224386   5.817   1.335   1.093
 4119SOL     OW24387   4.844   0.437   6.681
 4119SOL    HW124388   4.780   0.492   6.734
 4119SOL    HW224389   4.927   0.490   6.662
 4120SOL     OW24390   7.630   7.996   6.296
 4120SOL    HW124391   7.565   8.034   6.231
 4120SOL    HW224392   7.723   8.024   6.271
 4121SOL     OW24393   0.578   2.078   0.639
 4121SOL    HW124394   0.531   2.047   0.556
 4121SOL    HW224395   0.658   2.132   0.613
 4122SOL     OW24396   2.047   0.380   1.832
 4122SOL    HW124397   1.972   0.340   1.884
 4122SOL    HW224398   2.035   0.362   1.735
 4123SOL     OW24399   1.945   3.383   1.390
 4123SOL    HW124400   1.931   3.301   1.445
 4123SOL    HW224401   2.027   3.372   1.334
 4124SOL     OW24402   6.867   1.465   2.019
 4124SOL    HW124403   6.906   1.542   1.969
 4124SOL    HW224404   6.823   1.500   2.103
 4125SOL     OW24405   6.203   7.535   6.266
 4125SOL    HW124406   6.132   7.533   6.336
 4125SOL    HW224407   6.180   7.470   6.193
 4126SOL     OW24408   1.844   7.476   1.025
 4126SOL    HW124409   1.803   7.557   1.069
 4126SOL    HW224410   1.940   7.494   1.005
 4127SOL     OW24411   2.388   0.414   5.959
 4127SOL    HW124412   2.389   0.367   5.871
 4127SOL    HW224413   2.435   0.359   6.028
 4128SOL     OW24414   1.383   0.004   0.990
 4128SOL    HW124415   1.473   0.043   1.013
 4128SOL    HW224416   1.336  -0.021   1.075
 4129SOL     OW24417   4.080   1.008   2.362
 4129SOL    HW124418   4.018   0.932   2.380
 4129SOL    HW224419   4.030   1.082   2.317
 4130SOL     OW24420   0.534   4.103   1.134
 4130SOL    HW124421   0.466   4.042   1.093
 4130SOL    HW224422   0.601   4.130   1.064
 4131SOL     OW24423   5.956   1.575   1.026
 4131SOL    HW124424   5.857   1.565   1.036
 4131SOL    HW224425   5.983   1.667   1.055
 4132SOL     OW24426   7.297   8.162   6.636
 4132SOL    HW124427   7.390   8.190   6.612
 4132SOL    HW224428   7.262   8.223   6.707
 4133SOL     OW24429   6.401   1.711   6.777
 4133SOL    HW124430   6.310   1.674   6.759
 4133SOL    HW224431   6.393   1.803   6.816
 4134SOL     OW24432   4.817   7.935   0.728
 4134SOL    HW124433   4.718   7.921   0.723
 4134SOL    HW224434   4.858   7.914   0.639
 4135SOL     OW24435   8.929   5.233   6.827
 4135SOL    HW124436   8.927   5.325   6.788
 4135SOL    HW224437   8.980   5.172   6.766
 4136SOL     OW24438   9.474   3.852   0.623
 4136SOL    HW124439   9.547   3.916   0.599
 4136SOL    HW224440   9.504   3.759   0.603
 4137SOL     OW24441   2.766   1.062   1.958
 4137SOL    HW124442   2.851   1.115   1.965
 4137SOL    HW224443   2.788   0.967   1.936
 4138SOL     OW24444   6.328   6.165   1.623
 4138SOL    HW124445   6.333   6.265   1.617
 4138SOL    HW224446   6.338   6.137   1.719
 4139SOL     OW24447   6.837   2.935   6.775
 4139SOL    HW124448   6.802   2.995   6.847
 4139SOL    HW224449   6.869   2.849   6.815
 4140SOL     OW24450   4.086   5.977   7.096
 4140SOL    HW124451   4.056   5.882   7.087
 4140SOL    HW224452   4.181   5.985   7.067
 4141SOL     OW24453   4.263   5.808   1.035
 4141SOL    HW124454   4.300   5.881   1.092
 4141SOL    HW224455   4.296   5.720   1.067
 4142SOL     OW24456   3.198   1.413   6.784
 4142SOL    HW124457   3.236   1.327   6.817
 4142SOL    HW224458   3.242   1.489   6.832
 4143SOL     OW24459   3.852   1.748   0.601
 4143SOL    HW124460   3.843   1.655   0.563
 4143SOL    HW224461   3.796   1.811   0.547
 4144SOL     OW24462   0.734   1.791   6.997
 4144SOL    HW124463   0.635   1.779   7.001
 4144SOL    HW224464   0.769   1.759   6.909
 4145SOL     OW24465   0.844   2.531   0.746
 4145SOL    HW124466   0.927   2.584   0.759
 4145SOL    HW224467   0.850   2.445   0.796
 4146SOL     OW24468   2.750   7.485   1.092
 4146SOL    HW124469   2.666   7.443   1.127
 4146SOL    HW224470   2.821   7.482   1.163
 4147SOL     OW24471   2.494   1.636   5.789
 4147SOL    HW124472   2.487   1.540   5.762
 4147SOL    HW224473   2.422   1.689   5.744
 4148SOL     OW24474   7.003   7.379   0.938
 4148SOL    HW124475   7.070   7.453   0.932
 4148SOL    HW224476   6.947   7.378   0.855
 4149SOL     OW24477   6.261   6.697   1.168
 4149SOL    HW124478   6.281   6.604   1.136
 4149SOL    HW224479   6.253   6.758   1.089
 4150SOL     OW24480   0.412   7.451   6.360
 4150SOL    HW124481   0.474   7.523   6.391
 4150SOL    HW224482   0.454   7.361   6.378
 4151SOL     OW24483   2.046   5.515   5.517
 4151SOL    HW124484   1.982   5.439   5.506
 4151SOL    HW224485   2.056   5.563   5.430
 4152SOL     OW24486   4.518   2.160   0.851
 4152SOL    HW124487   4.480   2.081   0.900
 4152SOL    HW224488   4.460   2.181   0.772
 4153SOL     OW24489   7.293   4.319   1.201
 4153SOL    HW124490   7.231   4.360   1.268
 4153SOL    HW224491   7.330   4.390   1.141
 4154SOL     OW24492   4.812   3.831   0.663
 4154SOL    HW124493   4.843   3.796   0.751
 4154SOL    HW224494   4.766   3.919   0.677
 4155SOL     OW24495   1.887   7.143   6.461
 4155SOL    HW124496   1.977   7.180   6.485
 4155SOL    HW224497   1.817   7.213   6.475
 4156SOL     OW24498   2.297   7.594   1.142
 4156SOL    HW124499   2.247   7.612   1.058
 4156SOL    HW224500   2.267   7.657   1.214
 4157SOL     OW24501   3.811   0.517   7.147
 4157SOL    HW124502   3.890   0.458   7.132
 4157SOL    HW224503   3.732   0.478   7.098
 4158SOL     OW24504   0.399   8.373   1.138
 4158SOL    HW124505   0.391   8.278   1.106
 4158SOL    HW224506   0.364   8.434   1.067
 4159SOL     OW24507   8.188   2.291   7.151
 4159SOL    HW124508   8.120   2.364   7.144
 4159SOL    HW224509   8.214   2.279   7.247
 4160SOL     OW24510   5.153   1.713   0.659
 4160SOL    HW124511   5.115   1.801   0.632
 4160SOL    HW224512   5.148   1.703   0.759
 4161SOL     OW24513   7.180   3.244   6.718
 4161SOL    HW124514   7.252   3.315   6.714
 4161SOL    HW224515   7.098   3.278   6.671
 4162SOL     OW24516   9.264   7.077   1.593
 4162SOL    HW124517   9.191   7.041   1.652
 4162SOL    HW224518   9.314   7.148   1.642
 4163SOL     OW24519   7.627   7.090   1.198
 4163SOL    HW124520   7.696   7.141   1.249
 4163SOL    HW224521   7.550   7.150   1.178
 4164SOL     OW24522   6.134   5.063   1.138
 4164SOL    HW124523   6.150   5.113   1.052
 4164SOL    HW224524   6.217   5.065   1.193
 4165SOL     OW24525   0.218   6.019   4.999
 4165SOL    HW124526   0.226   6.047   5.095
 4165SOL    HW224527   0.185   6.097   4.945
 4166SOL     OW24528   5.144  -0.002   1.542
 4166SOL    HW124529   5.232   0.040   1.521
 4166SOL    HW224530   5.138  -0.092   1.498
 4167SOL     OW24531   9.423   4.672   0.751
 4167SOL    HW124532   9.389   4.581   0.726
 4167SOL    HW224533   9.507   4.692   0.701
 4168SOL     OW24534   5.922   7.759   0.974
 4168SOL    HW124535   5.879   7.848   0.955
 4168SOL    HW224536   5.861   7.686   0.947
 4169SOL     OW24537   4.089   7.113   5.572
 4169SOL    HW124538   4.020   7.057   5.526
 4169SOL    HW224539   4.167   7.128   5.511
 4170SOL     OW24540   4.357   6.014   1.181
 4170SOL    HW124541   4.372   6.074   1.260
 4170SOL    HW224542   4.375   6.065   1.097
 4171SOL     OW24543   9.025   1.480   1.099
 4171SOL    HW124544   9.028   1.406   1.167
 4171SOL    HW224545   9.112   1.528   1.099
 4172SOL     OW24546   7.592   7.778   1.195
 4172SOL    HW124547   7.581   7.857   1.255
 4172SOL    HW224548   7.518   7.712   1.214
 4173SOL     OW24549   0.538   3.172   5.672
 4173SOL    HW124550   0.631   3.207   5.680
 4173SOL    HW224551   0.525   3.130   5.583
 4174SOL     OW24552   0.902   7.966   0.442
 4174SOL    HW124553   0.905   7.869   0.420
 4174SOL    HW224554   0.874   7.978   0.538
 4175SOL     OW24555   0.189   3.342   0.512
 4175SOL    HW124556   0.256   3.370   0.581
 4175SOL    HW224557   0.123   3.279   0.554
 4176SOL     OW24558   1.613   0.555   7.079
 4176SOL    HW124559   1.567   0.624   7.022
 4176SOL    HW224560   1.549   0.524   7.150
 4177SOL     OW24561   3.777   1.198   1.831
 4177SOL    HW124562   3.873   1.169   1.825
 4177SOL    HW224563   3.772   1.290   1.868
 4178SOL     OW24564   1.057   3.433   0.774
 4178SOL    HW124565   1.022   3.369   0.705
 4178SOL    HW224566   1.154   3.449   0.757
 4179SOL     OW24567   7.418   8.026   7.122
 4179SOL    HW124568   7.475   7.986   7.194
 4179SOL    HW224569   7.380   7.952   7.066
 4180SOL     OW24570   4.592   3.244   0.764
 4180SOL    HW124571   4.634   3.304   0.696
 4180SOL    HW224572   4.655   3.170   0.787
 4181SOL     OW24573   1.685   5.900   6.334
 4181SOL    HW124574   1.609   5.963   6.323
 4181SOL    HW224575   1.678   5.828   6.265
 4182SOL     OW24576   2.595   3.213   1.232
 4182SOL    HW124577   2.677   3.252   1.275
 4182SOL    HW224578   2.531   3.286   1.211
 4183SOL     OW24579   1.480   4.402   1.107
 4183SOL    HW124580   1.418   4.403   1.029
 4183SOL    HW224581   1.571   4.373   1.077
 4184SOL     OW24582   1.219   2.542   4.878
 4184SOL    HW124583   1.313   2.562   4.905
 4184SOL    HW224584   1.220   2.486   4.795
 4185SOL     OW24585   3.764   7.812   1.683
 4185SOL    HW124586   3.826   7.882   1.649
 4185SOL    HW224587   3.686   7.855   1.728
 4186SOL     OW24588   9.452   8.128   5.523
 4186SOL    HW124589   9.511   8.100   5.447
 4186SOL    HW224590   9.414   8.218   5.504
 4187SOL     OW24591   7.506   5.159   1.416
 4187SOL    HW124592   7.463   5.196   1.498
 4187SOL    HW224593   7.598   5.125   1.439
 4188SOL     OW24594   5.150   4.593   1.509
 4188SOL    HW124595   5.185   4.592   1.603
 4188SOL    HW224596   5.218   4.552   1.448
 4189SOL     OW24597   5.174   0.682   6.021
 4189SOL    HW124598   5.148   0.715   5.930
 4189SOL    HW224599   5.222   0.594   6.011
 4190SOL     OW24600   5.927   1.837   5.890
 4190SOL    HW124601   5.857   1.893   5.846
 4190SOL    HW224602   5.933   1.748   5.843
 4191SOL     OW24603   2.168   5.787   6.994
 4191SOL    HW124604   2.256   5.829   6.971
 4191SOL    HW224605   2.172   5.750   7.087
 4192SOL     OW24606   6.388   4.638   5.889
 4192SOL    HW124607   6.335   4.643   5.973
 4192SOL    HW224608   6.326   4.640   5.810
 4193SOL     OW24609   0.348   0.476   1.108
 4193SOL    HW124610   0.290   0.489   1.028
 4193SOL    HW224611   0.296   0.499   1.191
 4194SOL     OW24612   8.712   1.782   0.807
 4194SOL    HW124613   8.756   1.702   0.847
 4194SOL    HW224614   8.772   1.821   0.737
 4195SOL     OW24615   6.665   2.440   1.379
 4195SOL    HW124616   6.649   2.537   1.360
 4195SOL    HW224617   6.703   2.395   1.299
 4196SOL     OW24618   5.095   3.996   0.876
 4196SOL    HW124619   5.112   3.991   0.975
 4196SOL    HW224620   5.092   4.092   0.848
 4197SOL     OW24621   3.174   0.887   1.854
 4197SOL    HW124622   3.201   0.827   1.779
 4197SOL    HW224623   3.075   0.905   1.848
 4198SOL     OW24624   2.131   0.181   2.134
 4198SOL    HW124625   2.220   0.166   2.179
 4198SOL    HW224626   2.073   0.235   2.194
 4199SOL     OW24627   2.311   0.641   1.414
 4199SOL    HW124628   2.329   0.674   1.321
 4199SOL    HW224629   2.227   0.681   1.448
 4200SOL     OW24630   5.496   7.775   1.184
 4200SOL    HW124631   5.573   7.832   1.213
 4200SOL    HW224632   5.463   7.723   1.262
 4201SOL     OW24633   7.995   7.534   6.371
 4201SOL    HW124634   7.908   7.565   6.410
 4201SOL    HW224635   8.027   7.602   6.305
 4202SOL     OW24636   7.110   2.629   1.658
 4202SOL    HW124637   7.074   2.544   1.617
 4202SOL    HW224638   7.157   2.607   1.744
 4203SOL     OW24639   7.988   4.692   5.858
 4203SOL    HW124640   7.895   4.681   5.823
 4203SOL    HW224641   8.050   4.631   5.808
 4204SOL     OW24642   1.110   7.359   1.799
 4204SOL    HW124643   1.152   7.331   1.885
 4204SOL    HW224644   1.018   7.320   1.793
 4205SOL     OW24645   0.264   6.193   6.391
 4205SOL    HW124646   0.266   6.106   6.440
 4205SOL    HW224647   0.224   6.178   6.300
 4206SOL     OW24648   8.243   4.730   6.576
 4206SOL    HW124649   8.269   4.658   6.640
 4206SOL    HW224650   8.286   4.816   6.603
 4207SOL     OW24651   7.645   0.112   5.590
 4207SOL    HW124652   7.586   0.053   5.534
 4207SOL    HW224653   7.701   0.169   5.530
 4208SOL     OW24654   1.496   7.417   1.556
 4208SOL    HW124655   1.418   7.386   1.502
 4208SOL    HW224656   1.558   7.469   1.498
 4209SOL     OW24657   3.674   1.859   6.130
 4209SOL    HW124658   3.757   1.868   6.184
 4209SOL    HW224659   3.697   1.854   6.033
 4210SOL     OW24660   4.277   2.023   5.372
 4210SOL    HW124661   4.238   2.032   5.464
 4210SOL    HW224662   4.231   2.086   5.310
 4211SOL     OW24663   9.054   7.926   6.300
 4211SOL    HW124664   8.969   7.971   6.274
 4211SOL    HW224665   9.128   7.960   6.242
 4212SOL     OW24666   9.445   0.050   5.901
 4212SOL    HW124667   9.402  -0.039   5.919
 4212SOL    HW224668   9.385   0.105   5.844
 4213SOL     OW24669   6.800   3.758   6.985
 4213SOL    HW124670   6.799   3.843   7.038
 4213SOL    HW224671   6.894   3.722   6.981
 4214SOL     OW24672   2.477   3.206   6.799
 4214SOL    HW124673   2.542   3.207   6.723
 4214SOL    HW224674   2.527   3.214   6.885
 4215SOL     OW24675   6.405   3.158   1.526
 4215SOL    HW124676   6.321   3.156   1.581
 4215SOL    HW224677   6.382   3.188   1.433
 4216SOL     OW24678   8.971   4.902   6.690
 4216SOL    HW124679   9.020   4.907   6.777
 4216SOL    HW224680   8.873   4.898   6.707
 4217SOL     OW24681   1.827   6.486   5.664
 4217SOL    HW124682   1.741   6.435   5.654
 4217SOL    HW224683   1.880   6.477   5.579
 4218SOL     OW24684   3.857   0.644   1.603
 4218SOL    HW124685   3.837   0.726   1.550
 4218SOL    HW224686   3.779   0.582   1.599
 4219SOL     OW24687   7.069   4.802   0.536
 4219SOL    HW124688   7.028   4.735   0.598
 4219SOL    HW224689   7.131   4.755   0.473
 4220SOL     OW24690   1.039   8.022   5.560
 4220SOL    HW124691   1.032   8.035   5.659
 4220SOL    HW224692   1.001   8.101   5.512
 4221SOL     OW24693   4.772   2.040   1.339
 4221SOL    HW124694   4.820   2.113   1.389
 4221SOL    HW224695   4.840   1.980   1.296
 4222SOL     OW24696   4.158   0.886   0.472
 4222SOL    HW124697   4.226   0.952   0.503
 4222SOL    HW224698   4.105   0.853   0.551
 4223SOL     OW24699   3.309   7.030   1.052
 4223SOL    HW124700   3.332   6.934   1.033
 4223SOL    HW224701   3.214   7.046   1.028
 4224SOL     OW24702   4.211   1.239   1.277
 4224SOL    HW124703   4.178   1.251   1.183
 4224SOL    HW224704   4.138   1.266   1.341
 4225SOL     OW24705   0.484   0.966   5.966
 4225SOL    HW124706   0.555   0.925   5.909
 4225SOL    HW224707   0.443   0.895   6.024
 4226SOL     OW24708   3.499   6.191   6.164
 4226SOL    HW124709   3.470   6.095   6.164
 4226SOL    HW224710   3.450   6.241   6.235
 4227SOL     OW24711   2.900   7.598   6.089
 4227SOL    HW124712   2.932   7.507   6.063
 4227SOL    HW224713   2.888   7.654   6.007
 4228SOL     OW24714   4.971   3.086   1.366
 4228SOL    HW124715   4.994   3.003   1.417
 4228SOL    HW224716   4.978   3.166   1.426
 4229SOL     OW24717   5.735   0.494   6.350
 4229SOL    HW124718   5.732   0.458   6.444
 4229SOL    HW224719   5.754   0.420   6.286
 4230SOL     OW24720   2.447   0.211   0.861
 4230SOL    HW124721   2.359   0.175   0.892
 4230SOL    HW224722   2.520   0.150   0.892
 4231SOL     OW24723   7.551   1.424   0.445
 4231SOL    HW124724   7.623   1.354   0.446
 4231SOL    HW224725   7.565   1.486   0.522
 4232SOL     OW24726   7.868   5.763   6.068
 4232SOL    HW124727   7.923   5.791   5.989
 4232SOL    HW224728   7.779   5.730   6.036
 4233SOL     OW24729   6.948   4.050   1.921
 4233SOL    HW124730   6.859   4.086   1.950
 4233SOL    HW224731   6.993   4.118   1.863
 4234SOL     OW24732   1.102   2.360   6.168
 4234SOL    HW124733   1.189   2.357   6.217
 4234SOL    HW224734   1.111   2.313   6.080
 4235SOL     OW24735   8.021   7.448   1.552
 4235SOL    HW124736   8.104   7.421   1.601
 4235SOL    HW224737   7.957   7.490   1.615
 4236SOL     OW24738   6.165   6.919   1.684
 4236SOL    HW124739   6.162   6.933   1.783
 4236SOL    HW224740   6.207   6.830   1.664
 4237SOL     OW24741   2.556   2.048   6.583
 4237SOL    HW124742   2.637   2.011   6.538
 4237SOL    HW224743   2.474   2.016   6.536
 4238SOL     OW24744   5.549   4.292   1.480
 4238SOL    HW124745   5.624   4.357   1.482
 4238SOL    HW224746   5.466   4.339   1.448
 4239SOL     OW24747   9.357   7.320   6.002
 4239SOL    HW124748   9.337   7.415   6.025
 4239SOL    HW224749   9.433   7.287   6.058
 4240SOL     OW24750   1.237   7.289   2.037
 4240SOL    HW124751   1.226   7.383   2.071
 4240SOL    HW224752   1.204   7.224   2.105
 4241SOL     OW24753   6.383   3.557   1.503
 4241SOL    HW124754   6.394   3.656   1.507
 4241SOL    HW224755   6.462   3.513   1.546
 4242SOL     OW24756   5.367   0.399   6.249
 4242SOL    HW124757   5.295   0.370   6.312
 4242SOL    HW224758   5.405   0.487   6.280
 4243SOL     OW24759   5.979   2.478   2.279
 4243SOL    HW124760   6.029   2.562   2.255
 4243SOL    HW224761   5.914   2.498   2.352
 4244SOL     OW24762   2.771   4.135   6.730
 4244SOL    HW124763   2.683   4.181   6.723
 4244SOL    HW224764   2.834   4.173   6.662
 4245SOL     OW24765   1.090   2.675   1.676
 4245SOL    HW124766   1.072   2.679   1.774
 4245SOL    HW224767   1.023   2.730   1.628
 4246SOL     OW24768   0.815   6.949   0.813
 4246SOL    HW124769   0.912   6.964   0.832
 4246SOL    HW224770   0.777   6.887   0.881
 4247SOL     OW24771   7.009   3.345   6.525
 4247SOL    HW124772   6.943   3.325   6.453
 4247SOL    HW224773   6.973   3.417   6.584
 4248SOL     OW24774   1.755   5.281   6.161
 4248SOL    HW124775   1.836   5.236   6.124
 4248SOL    HW224776   1.780   5.333   6.243
 4249SOL     OW24777   7.226   7.110   6.086
 4249SOL    HW124778   7.289   7.056   6.142
 4249SOL    HW224779   7.195   7.190   6.139
 4250SOL     OW24780   7.552   2.681   5.996
 4250SOL    HW124781   7.507   2.679   5.907
 4250SOL    HW224782   7.551   2.774   6.032
 4251SOL     OW24783   2.689   7.957   6.056
 4251SOL    HW124784   2.758   7.928   5.989
 4251SOL    HW224785   2.655   7.877   6.106
 4252SOL     OW24786   5.802   2.236   0.907
 4252SOL    HW124787   5.871   2.307   0.919
 4252SOL    HW224788   5.714   2.279   0.886
 4253SOL     OW24789   4.429   6.374   1.095
 4253SOL    HW124790   4.510   6.388   1.038
 4253SOL    HW224791   4.364   6.448   1.079
 4254SOL     OW24792   0.508   5.072   6.197
 4254SOL    HW124793   0.577   5.000   6.207
 4254SOL    HW224794   0.490   5.086   6.100
 4255SOL     OW24795   6.559   7.316   1.019
 4255SOL    HW124796   6.629   7.264   1.067
 4255SOL    HW224797   6.602   7.381   0.957
 4256SOL     OW24798   7.760   4.949   0.852
 4256SOL    HW124799   7.699   4.882   0.894
 4256SOL    HW224800   7.760   4.936   0.753
 4257SOL     OW24801   6.373   8.135   6.499
 4257SOL    HW124802   6.329   8.046   6.484
 4257SOL    HW224803   6.421   8.134   6.587
 4258SOL     OW24804   8.200   5.373   0.697
 4258SOL    HW124805   8.205   5.375   0.597
 4258SOL    HW224806   8.104   5.362   0.725
 4259SOL     OW24807   8.796   1.543   0.949
 4259SOL    HW124808   8.885   1.554   0.995
 4259SOL    HW224809   8.758   1.454   0.971
 4260SOL     OW24810   4.838   2.494   6.366
 4260SOL    HW124811   4.927   2.474   6.323
 4260SOL    HW224812   4.841   2.584   6.408
 4261SOL     OW24813   3.238   4.600   1.368
 4261SOL    HW124814   3.285   4.658   1.302
 4261SOL    HW224815   3.226   4.508   1.329
 4262SOL     OW24816   0.844   7.061   0.570
 4262SOL    HW124817   0.779   7.136   0.556
 4262SOL    HW224818   0.817   7.008   0.651
 4263SOL     OW24819   0.594   1.508   7.057
 4263SOL    HW124820   0.579   1.410   7.062
 4263SOL    HW224821   0.591   1.547   7.150
 4264SOL     OW24822   6.063   5.618   2.217
 4264SOL    HW124823   6.108   5.534   2.248
 4264SOL    HW224824   5.969   5.620   2.251
 4265SOL     OW24825   2.377   7.183   1.212
 4265SOL    HW124826   2.338   7.160   1.123
 4265SOL    HW224827   2.313   7.155   1.284
 4266SOL     OW24828   6.117   2.288   6.176
 4266SOL    HW124829   6.133   2.271   6.079
 4266SOL    HW224830   6.030   2.246   6.203
 4267SOL     OW24831   0.289   8.262   5.818
 4267SOL    HW124832   0.220   8.301   5.756
 4267SOL    HW224833   0.368   8.323   5.824
 4268SOL     OW24834   0.866   4.001   6.664
 4268SOL    HW124835   0.819   4.071   6.611
 4268SOL    HW224836   0.964   4.003   6.642
 4269SOL     OW24837   0.816   7.940   6.885
 4269SOL    HW124838   0.828   7.963   6.982
 4269SOL    HW224839   0.906   7.920   6.845
 4270SOL     OW24840   0.122   0.951   1.714
 4270SOL    HW124841   0.032   0.929   1.676
 4270SOL    HW224842   0.122   0.930   1.812
 4271SOL     OW24843   3.738   5.599   7.082
 4271SOL    HW124844   3.675   5.676   7.085
 4271SOL    HW224845   3.831   5.633   7.065
 4272SOL     OW24846   6.940   3.783   6.737
 4272SOL    HW124847   7.024   3.776   6.682
 4272SOL    HW224848   6.954   3.849   6.810
 4273SOL     OW24849   6.557   2.626   1.876
 4273SOL    HW124850   6.530   2.547   1.931
 4273SOL    HW224851   6.572   2.705   1.936
 4274SOL     OW24852   2.572   5.153   0.759
 4274SOL    HW124853   2.640   5.160   0.686
 4274SOL    HW224854   2.488   5.115   0.723
 4275SOL     OW24855   6.453   7.006   1.546
 4275SOL    HW124856   6.441   7.018   1.447
 4275SOL    HW224857   6.363   6.995   1.589
 4276SOL     OW24858   6.793   3.826   6.497
 4276SOL    HW124859   6.825   3.750   6.440
 4276SOL    HW224860   6.806   3.802   6.594
 4277SOL     OW24861   6.357   3.962   6.034
 4277SOL    HW124862   6.452   3.934   6.023
 4277SOL    HW224863   6.297   3.892   5.994
 4278SOL     OW24864   5.803   7.164   0.441
 4278SOL    HW124865   5.810   7.183   0.539
 4278SOL    HW224866   5.894   7.161   0.400
 4279SOL     OW24867   2.682   5.677   6.984
 4279SOL    HW124868   2.697   5.614   7.060
 4279SOL    HW224869   2.685   5.771   7.019
 4280SOL     OW24870   3.181   7.677   1.915
 4280SOL    HW124871   3.136   7.589   1.926
 4280SOL    HW224872   3.228   7.680   1.827
 4281SOL     OW24873   6.541   4.211   6.514
 4281SOL    HW124874   6.553   4.112   6.517
 4281SOL    HW224875   6.592   4.248   6.437
 4282SOL     OW24876   1.856   2.560   1.700
 4282SOL    HW124877   1.809   2.503   1.632
 4282SOL    HW224878   1.894   2.501   1.772
 4283SOL     OW24879   3.159   2.225   2.917
 4283SOL    HW124880   3.220   2.260   2.989
 4283SOL    HW224881   3.099   2.299   2.886
 4284SOL     OW24882   6.299   4.357   5.046
 4284SOL    HW124883   6.208   4.392   5.022
 4284SOL    HW224884   6.351   4.429   5.094
 4285SOL     OW24885   0.745   3.030   1.121
 4285SOL    HW124886   0.676   3.099   1.142
 4285SOL    HW224887   0.711   2.970   1.049
 4286SOL     OW24888   1.475   2.625   4.951
 4286SOL    HW124889   1.534   2.547   4.935
 4286SOL    HW224890   1.528   2.700   4.990
 4287SOL     OW24891   8.096   7.145   5.778
 4287SOL    HW124892   8.056   7.226   5.734
 4287SOL    HW224893   8.136   7.086   5.709
 4288SOL     OW24894   4.671   6.629   5.063
 4288SOL    HW124895   4.638   6.716   5.027
 4288SOL    HW224896   4.605   6.557   5.040
 4289SOL     OW24897   7.885   7.812   2.397
 4289SOL    HW124898   7.952   7.754   2.442
 4289SOL    HW224899   7.795   7.769   2.400
 4290SOL     OW24900   8.238   6.752   0.932
 4290SOL    HW124901   8.265   6.805   0.851
 4290SOL    HW224902   8.190   6.669   0.903
 4291SOL     OW24903   8.393   3.260   5.574
 4291SOL    HW124904   8.401   3.336   5.509
 4291SOL    HW224905   8.395   3.173   5.524
 4292SOL     OW24906   3.739   3.754   6.155
 4292SOL    HW124907   3.749   3.776   6.058
 4292SOL    HW224908   3.765   3.659   6.170
 4293SOL     OW24909   2.227   3.862   7.121
 4293SOL    HW124910   2.201   3.765   7.113
 4293SOL    HW224911   2.198   3.897   7.210
 4294SOL     OW24912   7.444   4.636   5.957
 4294SOL    HW124913   7.433   4.538   5.969
 4294SOL    HW224914   7.396   4.665   5.874
 4295SOL     OW24915   2.433   4.628   1.778
 4295SOL    HW124916   2.476   4.585   1.698
 4295SOL    HW224917   2.341   4.660   1.754
 4296SOL     OW24918   2.784   6.865   2.388
 4296SOL    HW124919   2.749   6.957   2.406
 4296SOL    HW224920   2.866   6.849   2.443
 4297SOL     OW24921   0.686   5.082   6.477
 4297SOL    HW124922   0.638   4.995   6.490
 4297SOL    HW224923   0.656   5.124   6.392
 4298SOL     OW24924   5.536   2.930   6.650
 4298SOL    HW124925   5.540   3.008   6.712
 4298SOL    HW224926   5.468   2.947   6.579
 4299SOL     OW24927   0.415   2.029   7.152
 4299SOL    HW124928   0.338   2.046   7.214
 4299SOL    HW224929   0.433   2.112   7.099
 4300SOL     OW24930   9.363   7.217   1.388
 4300SOL    HW124931   9.300   7.184   1.458
 4300SOL    HW224932   9.453   7.232   1.428
 4301SOL     OW24933   5.919   0.312   6.147
 4301SOL    HW124934   5.939   0.242   6.080
 4301SOL    HW224935   5.933   0.402   6.107
 4302SOL     OW24936   6.493   1.797   6.403
 4302SOL    HW124937   6.525   1.808   6.309
 4302SOL    HW224938   6.520   1.707   6.437
 4303SOL     OW24939   0.693   2.819   0.961
 4303SOL    HW124940   0.606   2.789   1.000
 4303SOL    HW224941   0.690   2.811   0.861
 4304SOL     OW24942   6.957   2.869   6.494
 4304SOL    HW124943   7.028   2.928   6.531
 4304SOL    HW224944   6.873   2.880   6.547
 4305SOL     OW24945   2.148   3.969   0.624
 4305SOL    HW124946   2.207   3.902   0.669
 4305SOL    HW224947   2.085   4.009   0.691
 4306SOL     OW24948   9.289   8.131   6.604
 4306SOL    HW124949   9.228   8.208   6.624
 4306SOL    HW224950   9.360   8.161   6.540
 4307SOL     OW24951   0.751   7.073   1.154
 4307SOL    HW124952   0.800   7.042   1.236
 4307SOL    HW224953   0.656   7.045   1.159
 4308SOL     OW24954   1.418   0.453   6.712
 4308SOL    HW124955   1.489   0.389   6.682
 4308SOL    HW224956   1.328   0.412   6.695
 4309SOL     OW24957   9.427   3.072   0.816
 4309SOL    HW124958   9.431   2.972   0.818
 4309SOL    HW224959   9.412   3.106   0.909
 4310SOL     OW24960   2.988   4.583   6.865
 4310SOL    HW124961   2.901   4.591   6.817
 4310SOL    HW224962   3.053   4.649   6.827
 4311SOL     OW24963   5.584   0.481   1.139
 4311SOL    HW124964   5.637   0.462   1.222
 4311SOL    HW224965   5.551   0.575   1.141
 4312SOL     OW24966   1.680   0.759   5.135
 4312SOL    HW124967   1.635   0.671   5.129
 4312SOL    HW224968   1.654   0.815   5.056
 4313SOL     OW24969   8.540   5.453   5.970
 4313SOL    HW124970   8.632   5.491   5.980
 4313SOL    HW224971   8.539   5.388   5.894
 4314SOL     OW24972   1.710   6.454   0.542
 4314SOL    HW124973   1.646   6.452   0.619
 4314SOL    HW224974   1.661   6.480   0.459
 4315SOL     OW24975   9.430   0.130   7.144
 4315SOL    HW124976   9.512   0.097   7.099
 4315SOL    HW224977   9.353   0.125   7.080
 4316SOL     OW24978   1.297   3.551   0.722
 4316SOL    HW124979   1.325   3.646   0.738
 4316SOL    HW224980   1.369   3.502   0.673
 4317SOL     OW24981   4.969   0.488   2.102
 4317SOL    HW124982   5.003   0.399   2.071
 4317SOL    HW224983   5.045   0.548   2.124
 4318SOL     OW24984   5.354   4.226   0.783
 4318SOL    HW124985   5.256   4.244   0.783
 4318SOL    HW224986   5.374   4.150   0.721
 4319SOL     OW24987   9.314   7.538   0.485
 4319SOL    HW124988   9.223   7.531   0.526
 4319SOL    HW224989   9.308   7.587   0.399
 4320SOL     OW24990   6.684   1.310   2.416
 4320SOL    HW124991   6.697   1.322   2.514
 4320SOL    HW224992   6.682   1.213   2.394
 4321SOL     OW24993   3.439   0.851   0.950
 4321SOL    HW124994   3.528   0.827   0.909
 4321SOL    HW224995   3.439   0.948   0.973
 4322SOL     OW24996   4.830   7.857   1.766
 4322SOL    HW124997   4.825   7.866   1.666
 4322SOL    HW224998   4.907   7.798   1.791
 4323SOL     OW24999   6.547   3.100   7.068
 4323SOL    HW125000   6.463   3.149   7.091
 4323SOL    HW225001   6.550   3.082   6.970
 4324SOL     OW25002   9.214   1.682   0.987
 4324SOL    HW125003   9.201   1.727   0.899
 4324SOL    HW225004   9.173   1.737   1.060
 4325SOL     OW25005   3.372   3.498   1.728
 4325SOL    HW125006   3.403   3.506   1.823
 4325SOL    HW225007   3.426   3.428   1.681
 4326SOL     OW25008   1.820   6.102   6.829
 4326SOL    HW125009   1.882   6.175   6.798
 4326SOL    HW225010   1.834   6.021   6.772
 4327SOL     OW25011   4.837   5.277   0.705
 4327SOL    HW125012   4.767   5.278   0.634
 4327SOL    HW225013   4.918   5.229   0.671
 4328SOL     OW25014   2.372   4.215   0.962
 4328SOL    HW125015   2.462   4.244   0.928
 4328SOL    HW225016   2.323   4.294   0.996
 4329SOL     OW25017   4.108   5.539   6.111
 4329SOL    HW125018   4.158   5.488   6.041
 4329SOL    HW225019   4.021   5.571   6.074
 4330SOL     OW25020   5.207   1.221   7.041
 4330SOL    HW125021   5.211   1.125   7.067
 4330SOL    HW225022   5.298   1.261   7.047
 4331SOL     OW25023   7.828   5.564   6.869
 4331SOL    HW125024   7.769   5.622   6.925
 4331SOL    HW225025   7.795   5.564   6.775
 4332SOL     OW25026   2.536   3.840   6.342
 4332SOL    HW125027   2.463   3.811   6.280
 4332SOL    HW225028   2.497   3.876   6.427
 4333SOL     OW25029   2.162   4.598   5.572
 4333SOL    HW125030   2.142   4.531   5.501
 4333SOL    HW225031   2.252   4.577   5.612
 4334SOL     OW25032   8.719   4.230   1.297
 4334SOL    HW125033   8.641   4.172   1.320
 4334SOL    HW225034   8.804   4.182   1.320
 4335SOL     OW25035   7.022   0.389   6.005
 4335SOL    HW125036   7.036   0.487   6.020
 4335SOL    HW225037   6.952   0.376   5.934
 4336SOL     OW25038   5.462   0.358   5.807
 4336SOL    HW125039   5.391   0.368   5.877
 4336SOL    HW225040   5.485   0.448   5.770
 4337SOL     OW25041   9.155   7.048   6.284
 4337SOL    HW125042   9.182   7.091   6.198
 4337SOL    HW225043   9.056   7.052   6.293
 4338SOL     OW25044   2.687   6.428   1.557
 4338SOL    HW125045   2.687   6.368   1.477
 4338SOL    HW225046   2.728   6.380   1.634
 4339SOL     OW25047   4.932   2.640   6.987
 4339SOL    HW125048   4.866   2.592   7.044
 4339SOL    HW225049   4.988   2.701   7.044
 4340SOL     OW25050   6.874   6.160   0.749
 4340SOL    HW125051   6.971   6.163   0.771
 4340SOL    HW225052   6.848   6.244   0.702
 4341SOL     OW25053   7.303   7.610   6.269
 4341SOL    HW125054   7.383   7.553   6.251
 4341SOL    HW225055   7.236   7.597   6.195
 4342SOL     OW25056   7.940   3.244   6.825
 4342SOL    HW125057   7.861   3.280   6.876
 4342SOL    HW225058   8.021   3.300   6.845
 4343SOL     OW25059   2.226   7.776   1.610
 4343SOL    HW125060   2.137   7.733   1.622
 4343SOL    HW225061   2.274   7.778   1.698
 4344SOL     OW25062   6.151   1.609   6.599
 4344SOL    HW125063   6.137   1.568   6.508
 4344SOL    HW225064   6.148   1.537   6.668
 4345SOL     OW25065   6.070   1.721   1.770
 4345SOL    HW125066   6.097   1.811   1.802
 4345SOL    HW225067   6.026   1.671   1.845
 4346SOL     OW25068   9.280   1.217   1.470
 4346SOL    HW125069   9.249   1.130   1.510
 4346SOL    HW225070   9.337   1.266   1.536
 4347SOL     OW25071   7.897   7.284   6.689
 4347SOL    HW125072   7.952   7.201   6.684
 4347SOL    HW225073   7.923   7.337   6.770
 4348SOL     OW25074   0.684   7.388   0.831
 4348SOL    HW125075   0.606   7.357   0.886
 4348SOL    HW225076   0.677   7.486   0.815
 4349SOL     OW25077   6.691   7.740   1.353
 4349SOL    HW125078   6.761   7.668   1.361
 4349SOL    HW225079   6.683   7.768   1.257
 4350SOL     OW25080   8.069   1.999   1.640
 4350SOL    HW125081   8.075   2.096   1.661
 4350SOL    HW225082   8.038   1.986   1.546
 4351SOL     OW25083   9.204   8.276   1.706
 4351SOL    HW125084   9.130   8.326   1.661
 4351SOL    HW225085   9.276   8.340   1.733
 4352SOL     OW25086   0.782   5.590   4.858
 4352SOL    HW125087   0.874   5.571   4.826
 4352SOL    HW225088   0.786   5.653   4.935
 4353SOL     OW25089   2.324   2.623   0.977
 4353SOL    HW125090   2.320   2.714   1.017
 4353SOL    HW225091   2.400   2.618   0.912
 4354SOL     OW25092   9.160   1.815   0.742
 4354SOL    HW125093   9.076   1.866   0.723
 4354SOL    HW225094   9.237   1.878   0.743
 4355SOL     OW25095   4.947   0.808   0.748
 4355SOL    HW125096   4.907   0.716   0.750
 4355SOL    HW225097   4.876   0.875   0.769
 4356SOL     OW25098   7.204   7.231   6.668
 4356SOL    HW125099   7.146   7.292   6.612
 4356SOL    HW225100   7.266   7.287   6.723
 4357SOL     OW25101   9.493   6.901   5.563
 4357SOL    HW125102   9.502   6.981   5.504
 4357SOL    HW225103   9.499   6.817   5.508
 4358SOL     OW25104   5.344   1.583   0.477
 4358SOL    HW125105   5.278   1.600   0.551
 4358SOL    HW225106   5.332   1.650   0.405
 4359SOL     OW25107   5.846   6.388   0.563
 4359SOL    HW125108   5.941   6.371   0.587
 4359SOL    HW225109   5.797   6.422   0.644
 4360SOL     OW25110   3.154   6.761   1.372
 4360SOL    HW125111   3.250   6.778   1.350
 4360SOL    HW225112   3.117   6.839   1.423
 4361SOL     OW25113   3.665   0.947   6.569
 4361SOL    HW125114   3.577   0.993   6.581
 4361SOL    HW225115   3.718   0.955   6.654
 4362SOL     OW25116   0.935   3.709   6.510
 4362SOL    HW125117   1.000   3.705   6.586
 4362SOL    HW225118   0.878   3.790   6.518
 4363SOL     OW25119   7.994   8.318   6.618
 4363SOL    HW125120   7.949   8.309   6.707
 4363SOL    HW225121   7.925   8.330   6.546
 4364SOL     OW25122   9.328   0.170   6.745
 4364SOL    HW125123   9.370   0.247   6.792
 4364SOL    HW225124   9.277   0.203   6.665
 4365SOL     OW25125   3.231   3.547   6.649
 4365SOL    HW125126   3.328   3.544   6.672
 4365SOL    HW225127   3.199   3.455   6.625
 4366SOL     OW25128   8.198   5.113   5.552
 4366SOL    HW125129   8.143   5.089   5.471
 4366SOL    HW225130   8.143   5.102   5.634
 4367SOL     OW25131   1.771   1.119   6.995
 4367SOL    HW125132   1.744   1.176   7.073
 4367SOL    HW225133   1.857   1.154   6.957
 4368SOL     OW25134   8.973   6.916   5.535
 4368SOL    HW125135   9.046   6.959   5.482
 4368SOL    HW225136   9.012   6.876   5.618
 4369SOL     OW25137   5.144   7.148   6.728
 4369SOL    HW125138   5.204   7.114   6.656
 4369SOL    HW225139   5.097   7.071   6.771
 4370SOL     OW25140   7.200   5.308   5.999
 4370SOL    HW125141   7.282   5.346   5.956
 4370SOL    HW225142   7.203   5.208   5.995
 4371SOL     OW25143   3.203   1.468   0.657
 4371SOL    HW125144   3.138   1.466   0.582
 4371SOL    HW225145   3.290   1.430   0.626
 4372SOL     OW25146   2.181   5.423   5.870
 4372SOL    HW125147   2.151   5.517   5.884
 4372SOL    HW225148   2.253   5.400   5.936
 4373SOL     OW25149   4.012   4.394   2.186
 4373SOL    HW125150   3.999   4.490   2.163
 4373SOL    HW225151   3.925   4.346   2.178
 4374SOL     OW25152   2.132   6.740   6.442
 4374SOL    HW125153   2.095   6.818   6.392
 4374SOL    HW225154   2.197   6.691   6.385
 4375SOL     OW25155   5.897   0.857   1.426
 4375SOL    HW125156   5.866   0.763   1.446
 4375SOL    HW225157   5.996   0.859   1.421
 4376SOL     OW25158   3.812   5.680   5.971
 4376SOL    HW125159   3.744   5.607   5.981
 4376SOL    HW225160   3.765   5.767   5.956
 4377SOL     OW25161   7.135   1.924   5.844
 4377SOL    HW125162   7.131   2.021   5.867
 4377SOL    HW225163   7.101   1.910   5.751
 4378SOL     OW25164   4.719   8.249   0.669
 4378SOL    HW125165   4.634   8.287   0.706
 4378SOL    HW225166   4.732   8.282   0.575
 4379SOL     OW25167   2.245   1.702   6.466
 4379SOL    HW125168   2.149   1.714   6.489
 4379SOL    HW225169   2.254   1.677   6.370
 4380SOL     OW25170   5.096   6.699   6.490
 4380SOL    HW125171   5.031   6.637   6.533
 4380SOL    HW225172   5.080   6.792   6.523
 4381SOL     OW25173   9.535   7.905   6.037
 4381SOL    HW125174   9.579   7.995   6.040
 4381SOL    HW225175   9.501   7.888   5.945
 4382SOL     OW25176   8.762   7.383   4.529
 4382SOL    HW125177   8.854   7.396   4.567
 4382SOL    HW225178   8.769   7.334   4.442
 4383SOL     OW25179   4.019   7.782   1.451
 4383SOL    HW125180   4.076   7.760   1.372
 4383SOL    HW225181   4.077   7.802   1.530
 4384SOL     OW25182   7.214   1.567   7.015
 4384SOL    HW125183   7.224   1.530   7.107
 4384SOL    HW225184   7.242   1.498   6.948
 4385SOL     OW25185   0.259   0.366   6.470
 4385SOL    HW125186   0.268   0.465   6.457
 4385SOL    HW225187   0.349   0.323   6.460
 4386SOL     OW25188   8.508   1.085   1.282
 4386SOL    HW125189   8.560   1.107   1.364
 4386SOL    HW225190   8.450   1.163   1.257
 4387SOL     OW25191   0.424   2.205   1.242
 4387SOL    HW125192   0.484   2.127   1.259
 4387SOL    HW225193   0.476   2.290   1.252
 4388SOL     OW25194   4.168   1.313   6.175
 4388SOL    HW125195   4.085   1.339   6.223
 4388SOL    HW225196   4.163   1.342   6.080
 4389SOL     OW25197   1.403   6.371   5.758
 4389SOL    HW125198   1.449   6.320   5.831
 4389SOL    HW225199   1.460   6.368   5.676
 4390SOL     OW25200   3.045   8.064   6.527
 4390SOL    HW125201   3.052   8.164   6.536
 4390SOL    HW225202   2.976   8.030   6.591
 4391SOL     OW25203   6.586   1.243   1.659
 4391SOL    HW125204   6.653   1.189   1.608
 4391SOL    HW225205   6.519   1.182   1.701
 4392SOL     OW25206   9.455   6.671   6.326
 4392SOL    HW125207   9.398   6.604   6.373
 4392SOL    HW225208   9.428   6.763   6.354
 4393SOL     OW25209   5.769   2.976   1.245
 4393SOL    HW125210   5.868   2.974   1.255
 4393SOL    HW225211   5.740   2.910   1.176
 4394SOL     OW25212   7.613   7.443   1.099
 4394SOL    HW125213   7.676   7.386   1.151
 4394SOL    HW225214   7.520   7.408   1.109
 4395SOL     OW25215   2.349   1.334   1.519
 4395SOL    HW125216   2.407   1.413   1.537
 4395SOL    HW225217   2.264   1.342   1.570
 4396SOL     OW25218   4.895   6.521   6.466
 4396SOL    HW125219   4.843   6.529   6.551
 4396SOL    HW225220   4.837   6.482   6.395
 4397SOL     OW25221   5.823   8.129   1.309
 4397SOL    HW125222   5.915   8.127   1.270
 4397SOL    HW225223   5.805   8.218   1.349
 4398SOL     OW25224   2.568   5.948   1.539
 4398SOL    HW125225   2.626   6.025   1.566
 4398SOL    HW225226   2.577   5.874   1.606
 4399SOL     OW25227   6.201   2.131   6.572
 4399SOL    HW125228   6.231   2.073   6.496
 4399SOL    HW225229   6.263   2.209   6.581
 4400SOL     OW25230   2.102   6.464   0.978
 4400SOL    HW125231   2.133   6.540   0.921
 4400SOL    HW225232   2.035   6.497   1.045
 4401SOL     OW25233   3.500   0.079   5.780
 4401SOL    HW125234   3.452   0.163   5.806
 4401SOL    HW225235   3.576   0.062   5.842
 4402SOL     OW25236   1.027   0.125   0.738
 4402SOL    HW125237   1.072   0.202   0.784
 4402SOL    HW225238   1.092   0.081   0.676
 4403SOL     OW25239   4.681   2.910   2.276
 4403SOL    HW125240   4.635   2.911   2.365
 4403SOL    HW225241   4.677   3.002   2.235
 4404SOL     OW25242   8.187  -0.037   1.082
 4404SOL    HW125243   8.233  -0.125   1.067
 4404SOL    HW225244   8.194  -0.012   1.178
 4405SOL     OW25245   5.657   7.908   6.519
 4405SOL    HW125246   5.583   7.912   6.452
 4405SOL    HW225247   5.685   7.813   6.532
 4406SOL     OW25248   0.774   1.569   0.907
 4406SOL    HW125249   0.683   1.556   0.868
 4406SOL    HW225250   0.769   1.631   0.985
 4407SOL     OW25251   1.021   7.660   5.313
 4407SOL    HW125252   0.959   7.729   5.351
 4407SOL    HW225253   1.105   7.704   5.283
 4408SOL     OW25254   7.981   0.883   6.854
 4408SOL    HW125255   7.893   0.927   6.837
 4408SOL    HW225256   7.977   0.787   6.824
 4409SOL     OW25257   0.508   4.397   6.336
 4409SOL    HW125258   0.418   4.439   6.350
 4409SOL    HW225259   0.551   4.381   6.424
 4410SOL     OW25260   6.099   0.745   2.051
 4410SOL    HW125261   6.074   0.841   2.041
 4410SOL    HW225262   6.136   0.730   2.143
 4411SOL     OW25263   3.187   8.045   6.300
 4411SOL    HW125264   3.283   8.036   6.325
 4411SOL    HW225265   3.133   8.065   6.381
 4412SOL     OW25266   7.378   2.958   1.681
 4412SOL    HW125267   7.371   2.896   1.760
 4412SOL    HW225268   7.334   3.045   1.704
 4413SOL     OW25269   1.818   7.926   1.130
 4413SOL    HW125270   1.808   8.005   1.190
 4413SOL    HW225271   1.783   7.845   1.176
 4414SOL     OW25272   5.786   6.025   0.575
 4414SOL    HW125273   5.801   5.929   0.551
 4414SOL    HW225274   5.851   6.082   0.526
 4415SOL     OW25275   4.663   7.975   7.131
 4415SOL    HW125276   4.736   8.037   7.104
 4415SOL    HW225277   4.669   7.890   7.078
 4416SOL     OW25278   8.036   2.596   1.450
 4416SOL    HW125279   7.978   2.540   1.509
 4416SOL    HW225280   8.101   2.537   1.403
 4417SOL     OW25281   4.703   8.056   6.642
 4417SOL    HW125282   4.779   8.060   6.707
 4417SOL    HW225283   4.685   7.961   6.618
 4418SOL     OW25284   3.126   3.153   1.279
 4418SOL    HW125285   3.178   3.206   1.211
 4418SOL    HW225286   3.165   3.170   1.370
 4419SOL     OW25287   6.376   1.933   1.896
 4419SOL    HW125288   6.449   1.964   1.835
 4419SOL    HW225289   6.403   1.949   1.991
 4420SOL     OW25290   6.953   4.575   0.672
 4420SOL    HW125291   6.867   4.547   0.627
 4420SOL    HW225292   6.979   4.507   0.739
 4421SOL     OW25293   8.817   1.151   7.138
 4421SOL    HW125294   8.797   1.243   7.171
 4421SOL    HW225295   8.756   1.128   7.062
 4422SOL     OW25296   3.585   2.134   5.791
 4422SOL    HW125297   3.556   2.194   5.717
 4422SOL    HW225298   3.561   2.039   5.769
 4423SOL     OW25299   5.659   1.715   0.712
 4423SOL    HW125300   5.667   1.619   0.741
 4423SOL    HW225301   5.580   1.757   0.757
 4424SOL     OW25302   6.720   8.241   6.043
 4424SOL    HW125303   6.628   8.206   6.060
 4424SOL    HW225304   6.781   8.212   6.117
 4425SOL     OW25305   6.596   5.486   6.344
 4425SOL    HW125306   6.512   5.540   6.345
 4425SOL    HW225307   6.609   5.446   6.253
 4426SOL     OW25308   2.180   6.429   0.668
 4426SOL    HW125309   2.181   6.371   0.749
 4426SOL    HW225310   2.265   6.482   0.663
 4427SOL     OW25311   7.584   7.741   6.936
 4427SOL    HW125312   7.580   7.676   6.860
 4427SOL    HW225313   7.492   7.753   6.974
 4428SOL     OW25314   6.504   1.271   1.189
 4428SOL    HW125315   6.455   1.292   1.273
 4428SOL    HW225316   6.585   1.217   1.210
 4429SOL     OW25317   7.441   5.927   1.997
 4429SOL    HW125318   7.419   5.856   1.930
 4429SOL    HW225319   7.539   5.947   1.992
 4430SOL     OW25320   1.742   6.906   6.483
 4430SOL    HW125321   1.650   6.900   6.445
 4430SOL    HW225322   1.790   6.986   6.446
 4431SOL     OW25323   3.505   2.296   1.857
 4431SOL    HW125324   3.424   2.239   1.842
 4431SOL    HW225325   3.530   2.294   1.954
 4432SOL     OW25326   1.374   5.144   6.803
 4432SOL    HW125327   1.362   5.156   6.705
 4432SOL    HW225328   1.420   5.224   6.841
 4433SOL     OW25329   0.565  -0.014   6.424
 4433SOL    HW125330   0.552   0.055   6.495
 4433SOL    HW225331   0.653  -0.059   6.438
 4434SOL     OW25332   6.810   4.995   0.914
 4434SOL    HW125333   6.712   4.976   0.926
 4434SOL    HW225334   6.863   4.917   0.945
 4435SOL     OW25335   8.951   2.088   0.573
 4435SOL    HW125336   8.885   2.136   0.514
 4435SOL    HW225337   9.042   2.128   0.561
 4436SOL     OW25338   0.402   2.181   0.833
 4436SOL    HW125339   0.446   2.255   0.885
 4436SOL    HW225340   0.467   2.147   0.764
 4437SOL     OW25341   6.371   1.168   6.561
 4437SOL    HW125342   6.283   1.162   6.515
 4437SOL    HW225343   6.363   1.225   6.643
 4438SOL     OW25344   7.395   4.130   1.521
 4438SOL    HW125345   7.301   4.104   1.544
 4438SOL    HW225346   7.443   4.156   1.605
 4439SOL     OW25347   5.503   8.064   6.874
 4439SOL    HW125348   5.582   8.061   6.813
 4439SOL    HW225349   5.516   8.135   6.943
 4440SOL     OW25350   0.289   6.347   5.467
 4440SOL    HW125351   0.267   6.393   5.553
 4440SOL    HW225352   0.256   6.402   5.391
 4441SOL     OW25353   5.298   4.409   6.536
 4441SOL    HW125354   5.334   4.316   6.522
 4441SOL    HW225355   5.369   4.475   6.513
 4442SOL     OW25356   4.974   6.662   5.608
 4442SOL    HW125357   5.005   6.574   5.642
 4442SOL    HW225358   4.975   6.662   5.508
 4443SOL     OW25359   0.397   4.479   5.511
 4443SOL    HW125360   0.321   4.435   5.463
 4443SOL    HW225361   0.455   4.409   5.552
 4444SOL     OW25362   0.212   5.656   6.904
 4444SOL    HW125363   0.206   5.557   6.919
 4444SOL    HW225364   0.151   5.703   6.968
 4445SOL     OW25365   7.355   5.076   0.477
 4445SOL    HW125366   7.403   4.990   0.491
 4445SOL    HW225367   7.409   5.134   0.415
 4446SOL     OW25368   9.000   2.289   6.484
 4446SOL    HW125369   9.046   2.301   6.396
 4446SOL    HW225370   8.904   2.315   6.474
 4447SOL     OW25371   5.620   0.921   6.860
 4447SOL    HW125372   5.671   0.916   6.774
 4447SOL    HW225373   5.682   0.943   6.935
 4448SOL     OW25374   4.500   5.647   1.113
 4448SOL    HW125375   4.482   5.554   1.144
 4448SOL    HW225376   4.599   5.665   1.118
 4449SOL     OW25377   3.440   6.514   6.178
 4449SOL    HW125378   3.358   6.468   6.142
 4449SOL    HW225379   3.471   6.467   6.261
 4450SOL     OW25380   6.823   0.613   0.902
 4450SOL    HW125381   6.727   0.606   0.929
 4450SOL    HW225382   6.841   0.549   0.828
 4451SOL     OW25383   7.315   7.876   1.640
 4451SOL    HW125384   7.256   7.829   1.706
 4451SOL    HW225385   7.403   7.897   1.682
 4452SOL     OW25386   7.338   2.193   1.405
 4452SOL    HW125387   7.363   2.285   1.374
 4452SOL    HW225388   7.398   2.126   1.362
 4453SOL     OW25389   1.508   1.811   1.173
 4453SOL    HW125390   1.580   1.844   1.234
 4453SOL    HW225391   1.472   1.724   1.208
 4454SOL     OW25392   0.615   6.010   5.715
 4454SOL    HW125393   0.588   6.106   5.710
 4454SOL    HW225394   0.633   5.975   5.623
 4455SOL     OW25395   4.979   1.869   7.092
 4455SOL    HW125396   4.895   1.839   7.138
 4455SOL    HW225397   5.004   1.801   7.023
 4456SOL     OW25398   3.480   2.855   6.533
 4456SOL    HW125399   3.443   2.849   6.625
 4456SOL    HW225400   3.461   2.770   6.484
 4457SOL     OW25401   1.399   2.370   1.405
 4457SOL    HW125402   1.349   2.417   1.332
 4457SOL    HW225403   1.353   2.386   1.492
 4458SOL     OW25404   1.933   4.175   1.378
 4458SOL    HW125405   1.834   4.173   1.365
 4458SOL    HW225406   1.978   4.134   1.299
 4459SOL     OW25407   7.443   6.498   7.037
 4459SOL    HW125408   7.377   6.448   6.981
 4459SOL    HW225409   7.395   6.565   7.093
 4460SOL     OW25410   7.781   6.121   1.190
 4460SOL    HW125411   7.782   6.027   1.225
 4460SOL    HW225412   7.793   6.185   1.265
 4461SOL     OW25413   8.633   5.438   6.754
 4461SOL    HW125414   8.733   5.430   6.758
 4461SOL    HW225415   8.603   5.511   6.815
 4462SOL     OW25416   4.582   7.929   2.221
 4462SOL    HW125417   4.545   7.941   2.313
 4462SOL    HW225418   4.646   7.852   2.221
 4463SOL     OW25419   2.821   3.288   6.282
 4463SOL    HW125420   2.778   3.197   6.283
 4463SOL    HW225421   2.777   3.345   6.351
 4464SOL     OW25422   0.574   0.570   6.106
 4464SOL    HW125423   0.493   0.535   6.153
 4464SOL    HW225424   0.558   0.569   6.007
 4465SOL     OW25425   0.362   7.637   1.542
 4465SOL    HW125426   0.301   7.714   1.521
 4465SOL    HW225427   0.377   7.633   1.641
 4466SOL     OW25428   0.519   3.146   1.562
 4466SOL    HW125429   0.574   3.177   1.639
 4466SOL    HW225430   0.444   3.088   1.596
 4467SOL     OW25431   7.540   6.707   6.032
 4467SOL    HW125432   7.505   6.719   5.939
 4467SOL    HW225433   7.626   6.758   6.042
 4468SOL     OW25434   3.076   1.428   6.373
 4468SOL    HW125435   3.097   1.524   6.351
 4468SOL    HW225436   3.037   1.384   6.292
 4469SOL     OW25437   6.937   8.179   6.247
 4469SOL    HW125438   6.978   8.089   6.236
 4469SOL    HW225439   6.916   8.195   6.343
 4470SOL     OW25440   6.848   1.719   1.417
 4470SOL    HW125441   6.814   1.809   1.447
 4470SOL    HW225442   6.941   1.706   1.450
 4471SOL     OW25443   4.043   6.056   1.385
 4471SOL    HW125444   4.012   6.000   1.462
 4471SOL    HW225445   4.037   6.003   1.300
 4472SOL     OW25446   6.843   1.422   6.930
 4472SOL    HW125447   6.877   1.512   6.902
 4472SOL    HW225448   6.868   1.354   6.861
 4473SOL     OW25449   5.278   0.881   6.227
 4473SOL    HW125450   5.307   0.801   6.174
 4473SOL    HW225451   5.292   0.964   6.174
 4474SOL     OW25452   4.023   3.929   6.604
 4474SOL    HW125453   4.108   3.966   6.566
 4474SOL    HW225454   4.027   3.934   6.704
 4475SOL     OW25455   8.318   5.567   1.988
 4475SOL    HW125456   8.294   5.495   1.922
 4475SOL    HW225457   8.282   5.543   2.078
 4476SOL     OW25458   2.421   2.221   2.225
 4476SOL    HW125459   2.500   2.276   2.200
 4476SOL    HW225460   2.337   2.275   2.212
 4477SOL     OW25461   5.408   4.924   0.753
 4477SOL    HW125462   5.393   4.826   0.739
 4477SOL    HW225463   5.338   4.959   0.816
 4478SOL     OW25464   8.973   8.372   6.553
 4478SOL    HW125465   9.011   8.325   6.633
 4478SOL    HW225466   8.897   8.319   6.517
 4479SOL     OW25467   6.593   5.480   1.411
 4479SOL    HW125468   6.566   5.425   1.489
 4479SOL    HW225469   6.664   5.433   1.359
 4480SOL     OW25470   8.908   6.504   5.497
 4480SOL    HW125471   8.814   6.521   5.468
 4480SOL    HW225472   8.941   6.419   5.455
 4481SOL     OW25473   3.531   1.787   0.650
 4481SOL    HW125474   3.492   1.751   0.565
 4481SOL    HW225475   3.556   1.883   0.637
 4482SOL     OW25476   5.703   5.744   0.594
 4482SOL    HW125477   5.780   5.704   0.644
 4482SOL    HW225478   5.637   5.781   0.659
 4483SOL     OW25479   2.945   1.690   6.514
 4483SOL    HW125480   2.913   1.595   6.510
 4483SOL    HW225481   2.867   1.751   6.525
 4484SOL     OW25482   0.689   2.199   6.712
 4484SOL    HW125483   0.709   2.194   6.810
 4484SOL    HW225484   0.654   2.290   6.690
 4485SOL     OW25485   6.112   4.843   6.810
 4485SOL    HW125486   6.103   4.818   6.906
 4485SOL    HW225487   6.172   4.924   6.802
 4486SOL     OW25488   8.905   4.939   0.763
 4486SOL    HW125489   8.847   4.862   0.735
 4486SOL    HW225490   8.881   4.966   0.857
 4487SOL     OW25491   7.080   4.810   5.876
 4487SOL    HW125492   7.119   4.736   5.820
 4487SOL    HW225493   7.031   4.874   5.816
 4488SOL     OW25494   7.746   1.162   0.505
 4488SOL    HW125495   7.679   1.171   0.431
 4488SOL    HW225496   7.722   1.083   0.562
 4489SOL     OW25497   4.623   0.573   6.776
 4489SOL    HW125498   4.577   0.558   6.688
 4489SOL    HW225499   4.562   0.621   6.838
 4490SOL     OW25500   5.786   7.182   1.230
 4490SOL    HW125501   5.824   7.269   1.199
 4490SOL    HW225502   5.858   7.125   1.269
 4491SOL     OW25503   4.666   0.747   2.357
 4491SOL    HW125504   4.636   0.803   2.435
 4491SOL    HW225505   4.758   0.713   2.374
 4492SOL     OW25506   6.851   0.715   0.620
 4492SOL    HW125507   6.825   0.689   0.713
 4492SOL    HW225508   6.799   0.661   0.554
 4493SOL     OW25509   8.166   6.822   6.712
 4493SOL    HW125510   8.174   6.811   6.811
 4493SOL    HW225511   8.191   6.737   6.667
 4494SOL     OW25512   6.947   6.715   0.473
 4494SOL    HW125513   6.886   6.790   0.446
 4494SOL    HW225514   6.943   6.642   0.406
 4495SOL     OW25515   1.426   6.464   6.717
 4495SOL    HW125516   1.363   6.439   6.791
 4495SOL    HW225517   1.450   6.383   6.664
 4496SOL     OW25518   5.621   2.444   1.531
 4496SOL    HW125519   5.667   2.446   1.442
 4496SOL    HW225520   5.686   2.469   1.603
 4497SOL     OW25521   0.260   7.865   1.423
 4497SOL    HW125522   0.305   7.924   1.490
 4497SOL    HW225523   0.167   7.896   1.407
 4498SOL     OW25524   6.972   0.591   6.275
 4498SOL    HW125525   6.895   0.653   6.289
 4498SOL    HW225526   7.041   0.636   6.218
 4499SOL     OW25527   5.282  -0.052   6.233
 4499SOL    HW125528   5.185  -0.059   6.208
 4499SOL    HW225529   5.313  -0.141   6.267
 4500SOL     OW25530   8.062   4.419   6.964
 4500SOL    HW125531   8.063   4.332   7.014
 4500SOL    HW225532   8.009   4.409   6.880
 4501SOL     OW25533   4.370   5.401   6.308
 4501SOL    HW125534   4.298   5.334   6.288
 4501SOL    HW225535   4.331   5.493   6.311
 4502SOL     OW25536   7.794   0.427   1.406
 4502SOL    HW125537   7.856   0.374   1.463
 4502SOL    HW225538   7.701   0.390   1.414
 4503SOL     OW25539   0.217   3.408   5.766
 4503SOL    HW125540   0.182   3.444   5.680
 4503SOL    HW225541   0.176   3.318   5.784
 4504SOL     OW25542   7.891   8.012   1.569
 4504SOL    HW125543   7.841   8.028   1.654
 4504SOL    HW225544   7.847   7.939   1.517
 4505SOL     OW25545   4.660   0.460   1.665
 4505SOL    HW125546   4.650   0.552   1.627
 4505SOL    HW225547   4.584   0.403   1.634
 4506SOL     OW25548   1.699   7.008   6.045
 4506SOL    HW125549   1.681   6.965   6.133
 4506SOL    HW225550   1.617   7.057   6.014
 4507SOL     OW25551   2.432   5.225   7.038
 4507SOL    HW125552   2.454   5.223   6.940
 4507SOL    HW225553   2.515   5.238   7.091
 4508SOL     OW25554   0.532   6.710   1.136
 4508SOL    HW125555   0.627   6.722   1.108
 4508SOL    HW225556   0.481   6.666   1.062
 4509SOL     OW25557   4.825   6.460   1.116
 4509SOL    HW125558   4.916   6.472   1.076
 4509SOL    HW225559   4.755   6.484   1.047
 4510SOL     OW25560   4.019   2.312   6.318
 4510SOL    HW125561   4.058   2.278   6.232
 4510SOL    HW225562   3.948   2.378   6.299
 4511SOL     OW25563   5.264   4.523   6.772
 4511SOL    HW125564   5.179   4.575   6.764
 4511SOL    HW225565   5.285   4.479   6.685
 4512SOL     OW25566   6.550   0.609   6.343
 4512SOL    HW125567   6.475   0.613   6.408
 4512SOL    HW225568   6.568   0.700   6.305
 4513SOL     OW25569   0.234   5.926   5.580
 4513SOL    HW125570   0.331   5.939   5.602
 4513SOL    HW225571   0.200   6.008   5.534
 4514SOL     OW25572   5.954   7.264   6.374
 4514SOL    HW125573   5.946   7.168   6.398
 4514SOL    HW225574   6.049   7.285   6.349
 4515SOL     OW25575   4.358   2.117   2.419
 4515SOL    HW125576   4.301   2.191   2.453
 4515SOL    HW225577   4.367   2.125   2.319
 4516SOL     OW25578   5.662   1.514   6.666
 4516SOL    HW125579   5.716   1.528   6.748
 4516SOL    HW225580   5.618   1.424   6.670
 4517SOL     OW25581   2.779   0.973   2.661
 4517SOL    HW125582   2.717   0.981   2.583
 4517SOL    HW225583   2.789   0.876   2.685
 4518SOL     OW25584   6.106   1.140   6.482
 4518SOL    HW125585   6.098   1.067   6.414
 4518SOL    HW225586   6.048   1.118   6.561
 4519SOL     OW25587   9.581   5.588   6.583
 4519SOL    HW125588   9.585   5.534   6.667
 4519SOL    HW225589   9.493   5.634   6.576
 4520SOL     OW25590   8.419   3.618   6.985
 4520SOL    HW125591   8.456   3.711   6.977
 4520SOL    HW225592   8.320   3.621   6.968
 4521SOL     OW25593   5.061   6.133   1.571
 4521SOL    HW125594   5.112   6.050   1.551
 4521SOL    HW225595   4.982   6.111   1.629
 4522SOL     OW25596   7.933   6.394   6.427
 4522SOL    HW125597   7.951   6.296   6.425
 4522SOL    HW225598   7.853   6.415   6.371
 4523SOL     OW25599   8.635   6.451   6.278
 4523SOL    HW125600   8.671   6.466   6.186
 4523SOL    HW225601   8.680   6.373   6.320
 4524SOL     OW25602   6.345   3.636   0.854
 4524SOL    HW125603   6.300   3.547   0.865
 4524SOL    HW225604   6.312   3.681   0.771
 4525SOL     OW25605   6.622   5.016   6.158
 4525SOL    HW125606   6.560   5.049   6.088
 4525SOL    HW225607   6.710   4.993   6.116
 4526SOL     OW25608   1.307   0.697   6.210
 4526SOL    HW125609   1.214   0.675   6.180
 4526SOL    HW225610   1.315   0.680   6.308
 4527SOL     OW25611   8.589   0.184   6.479
 4527SOL    HW125612   8.548   0.272   6.504
 4527SOL    HW225613   8.534   0.110   6.519
 4528SOL     OW25614   6.609   1.064   0.493
 4528SOL    HW125615   6.703   1.035   0.510
 4528SOL    HW225616   6.558   1.064   0.579
 4529SOL     OW25617   1.166   5.936   5.164
 4529SOL    HW125618   1.115   5.985   5.094
 4529SOL    HW225619   1.218   5.862   5.122
 4530SOL     OW25620   1.077   3.912   5.824
 4530SOL    HW125621   1.053   3.897   5.728
 4530SOL    HW225622   1.055   4.007   5.849
 4531SOL     OW25623   5.219   5.926   1.575
 4531SOL    HW125624   5.287   5.922   1.648
 4531SOL    HW225625   5.144   5.862   1.596
 4532SOL     OW25626   8.585   4.343   6.149
 4532SOL    HW125627   8.583   4.394   6.063
 4532SOL    HW225628   8.676   4.304   6.163
 4533SOL     OW25629   4.956   1.315   0.993
 4533SOL    HW125630   4.924   1.342   0.902
 4533SOL    HW225631   4.901   1.238   1.026
 4534SOL     OW25632   6.580   6.943   6.938
 4534SOL    HW125633   6.656   6.995   6.900
 4534SOL    HW225634   6.551   6.873   6.874
 4535SOL     OW25635   8.674   4.363   6.439
 4535SOL    HW125636   8.641   4.457   6.430
 4535SOL    HW225637   8.765   4.363   6.481
 4536SOL     OW25638   3.185   3.521   1.524
 4536SOL    HW125639   3.240   3.507   1.607
 4536SOL    HW225640   3.088   3.512   1.547
 4537SOL     OW25641   8.782   3.787   0.435
 4537SOL    HW125642   8.796   3.692   0.407
 4537SOL    HW225643   8.862   3.820   0.485
 4538SOL     OW25644   6.999   6.641   1.030
 4538SOL    HW125645   6.949   6.689   1.103
 4538SOL    HW225646   6.981   6.686   0.943
 4539SOL     OW25647   0.661   6.851   1.688
 4539SOL    HW125648   0.622   6.880   1.775
 4539SOL    HW225649   0.758   6.831   1.700
 4540SOL     OW25650   2.194   3.497   0.796
 4540SOL    HW125651   2.238   3.531   0.713
 4540SOL    HW225652   2.258   3.502   0.873
 4541SOL     OW25653   0.524   3.702   1.200
 4541SOL    HW125654   0.585   3.725   1.124
 4541SOL    HW225655   0.476   3.617   1.179
 4542SOL     OW25656   7.510   3.711   2.342
 4542SOL    HW125657   7.503   3.635   2.406
 4542SOL    HW225658   7.442   3.781   2.366
 4543SOL     OW25659   3.525   1.504   1.288
 4543SOL    HW125660   3.547   1.431   1.353
 4543SOL    HW225661   3.474   1.576   1.335
 4544SOL     OW25662   7.055   1.656   1.595
 4544SOL    HW125663   7.049   1.728   1.664
 4544SOL    HW225664   7.123   1.588   1.625
 4545SOL     OW25665   0.603   4.803   6.521
 4545SOL    HW125666   0.546   4.722   6.536
 4545SOL    HW225667   0.646   4.798   6.431
 4546SOL     OW25668   6.838   5.425   1.238
 4546SOL    HW125669   6.889   5.357   1.290
 4546SOL    HW225670   6.826   5.394   1.143
 4547SOL     OW25671   1.055   3.030   0.485
 4547SOL    HW125672   0.966   2.996   0.453
 4547SOL    HW225673   1.104   2.956   0.531
 4548SOL     OW25674   1.170   7.697   6.606
 4548SOL    HW125675   1.238   7.770   6.615
 4548SOL    HW225676   1.118   7.689   6.690
 4549SOL     OW25677   3.663   6.792   5.514
 4549SOL    HW125678   3.692   6.888   5.510
 4549SOL    HW225679   3.743   6.734   5.525
 4550SOL     OW25680   7.252   5.957   5.597
 4550SOL    HW125681   7.300   5.999   5.520
 4550SOL    HW225682   7.292   5.868   5.616
 4551SOL     OW25683   6.673   0.947   6.851
 4551SOL    HW125684   6.662   1.014   6.924
 4551SOL    HW225685   6.595   0.952   6.788
 4552SOL     OW25686   7.798   7.850   6.559
 4552SOL    HW125687   7.897   7.855   6.549
 4552SOL    HW225688   7.763   7.776   6.501
 4553SOL     OW25689   2.685   5.546   5.364
 4553SOL    HW125690   2.696   5.509   5.456
 4553SOL    HW225691   2.775   5.562   5.323
 4554SOL     OW25692   4.191   0.585   6.083
 4554SOL    HW125693   4.129   0.576   6.161
 4554SOL    HW225694   4.152   0.649   6.017
 4555SOL     OW25695   8.064   7.177   5.358
 4555SOL    HW125696   8.029   7.252   5.302
 4555SOL    HW225697   8.005   7.165   5.438
 4556SOL     OW25698   0.777   3.065   1.549
 4556SOL    HW125699   0.817   3.157   1.552
 4556SOL    HW225700   0.682   3.072   1.519
 4557SOL     OW25701   3.703   4.977   6.195
 4557SOL    HW125702   3.703   4.891   6.248
 4557SOL    HW225703   3.788   5.027   6.213
 4558SOL     OW25704   4.445   4.481   6.996
 4558SOL    HW125705   4.506   4.557   6.973
 4558SOL    HW225706   4.368   4.480   6.932
 4559SOL     OW25707   4.872   1.724   0.947
 4559SOL    HW125708   4.837   1.635   0.977
 4559SOL    HW225709   4.965   1.713   0.911
 4560SOL     OW25710   6.640   3.972   5.389
 4560SOL    HW125711   6.588   4.025   5.322
 4560SOL    HW225712   6.611   3.877   5.386
 4561SOL     OW25713   7.820   6.253   6.911
 4561SOL    HW125714   7.778   6.322   6.851
 4561SOL    HW225715   7.912   6.282   6.936
 4562SOL     OW25716   1.309   0.821   5.885
 4562SOL    HW125717   1.286   0.731   5.921
 4562SOL    HW225718   1.237   0.851   5.822
 4563SOL     OW25719   5.045   1.288   6.047
 4563SOL    HW125720   5.022   1.316   5.954
 4563SOL    HW225721   4.961   1.273   6.099
 4564SOL     OW25722   4.042   6.396   1.945
 4564SOL    HW125723   4.122   6.440   1.904
 4564SOL    HW225724   4.050   6.297   1.935
 4565SOL     OW25725   3.867   5.866   6.887
 4565SOL    HW125726   3.879   5.942   6.951
 4565SOL    HW225727   3.957   5.829   6.863
 4566SOL     OW25728   4.378   0.886   1.530
 4566SOL    HW125729   4.295   0.878   1.475
 4566SOL    HW225730   4.354   0.888   1.627
 4567SOL     OW25731   1.966   4.941   6.312
 4567SOL    HW125732   1.892   4.949   6.245
 4567SOL    HW225733   2.052   4.969   6.269
 4568SOL     OW25734   0.835   5.339   5.695
 4568SOL    HW125735   0.881   5.264   5.743
 4568SOL    HW225736   0.759   5.303   5.640
 4569SOL     OW25737   0.328   7.035   6.159
 4569SOL    HW125738   0.421   7.012   6.130
 4569SOL    HW225739   0.279   7.079   6.084
 4570SOL     OW25740   6.206   1.252   1.447
 4570SOL    HW125741   6.301   1.282   1.456
 4570SOL    HW225742   6.150   1.294   1.519
 4571SOL     OW25743   1.703   8.325   1.025
 4571SOL    HW125744   1.648   8.359   0.949
 4571SOL    HW225745   1.751   8.402   1.069
 4572SOL     OW25746   1.410   0.103   5.261
 4572SOL    HW125747   1.491   0.045   5.259
 4572SOL    HW225748   1.352   0.078   5.338
 4573SOL     OW25749   4.113   0.207   1.381
 4573SOL    HW125750   4.153   0.193   1.472
 4573SOL    HW225751   4.064   0.294   1.379
 4574SOL     OW25752   3.398   2.036   0.690
 4574SOL    HW125753   3.466   2.037   0.763
 4574SOL    HW225754   3.338   2.115   0.699
 4575SOL     OW25755   4.051   2.399   1.008
 4575SOL    HW125756   4.099   2.382   0.922
 4575SOL    HW225757   4.062   2.495   1.033
 4576SOL     OW25758   2.777   1.138   6.740
 4576SOL    HW125759   2.685   1.121   6.705
 4576SOL    HW225760   2.826   1.200   6.678
 4577SOL     OW25761   2.429   6.419   6.508
 4577SOL    HW125762   2.509   6.364   6.536
 4577SOL    HW225763   2.423   6.501   6.564
 4578SOL     OW25764   7.951   7.215   4.987
 4578SOL    HW125765   7.889   7.137   4.984
 4578SOL    HW225766   7.899   7.299   4.969
 4579SOL     OW25767   5.795   8.098   0.480
 4579SOL    HW125768   5.841   8.166   0.423
 4579SOL    HW225769   5.797   8.009   0.434
 4580SOL     OW25770   0.171   1.907   1.831
 4580SOL    HW125771   0.108   1.879   1.904
 4580SOL    HW225772   0.264   1.913   1.868
 4581SOL     OW25773   4.652   6.673   6.736
 4581SOL    HW125774   4.690   6.765   6.736
 4581SOL    HW225775   4.727   6.606   6.736
 4582SOL     OW25776   0.937   3.850   1.783
 4582SOL    HW125777   0.840   3.857   1.759
 4582SOL    HW225778   0.950   3.777   1.850
 4583SOL     OW25779   3.108   1.390   7.075
 4583SOL    HW125780   3.101   1.356   6.981
 4583SOL    HW225781   3.196   1.363   7.114
 4584SOL     OW25782   9.241   8.084   6.153
 4584SOL    HW125783   9.335   8.109   6.131
 4584SOL    HW225784   9.182   8.164   6.143
 4585SOL     OW25785   0.666   3.294   6.505
 4585SOL    HW125786   0.595   3.254   6.564
 4585SOL    HW225787   0.707   3.221   6.449
 4586SOL     OW25788   0.959   2.865   1.239
 4586SOL    HW125789   1.046   2.882   1.193
 4586SOL    HW225790   0.890   2.928   1.204
 4587SOL     OW25791   0.807   4.526   1.365
 4587SOL    HW125792   0.758   4.566   1.442
 4587SOL    HW225793   0.748   4.461   1.317
 4588SOL     OW25794   5.716   2.603   1.729
 4588SOL    HW125795   5.617   2.611   1.717
 4588SOL    HW225796   5.756   2.694   1.738
 4589SOL     OW25797   9.594   4.591   5.557
 4589SOL    HW125798   9.625   4.531   5.483
 4589SOL    HW225799   9.509   4.636   5.529
 4590SOL     OW25800   7.129   1.871   1.792
 4590SOL    HW125801   7.098   1.953   1.745
 4590SOL    HW225802   7.221   1.886   1.828
 4591SOL     OW25803   3.486   7.075   6.833
 4591SOL    HW125804   3.421   7.150   6.844
 4591SOL    HW225805   3.532   7.082   6.745
 4592SOL     OW25806   0.927   3.282   0.532
 4592SOL    HW125807   0.961   3.218   0.463
 4592SOL    HW225808   0.879   3.232   0.604
 4593SOL     OW25809   7.791   5.302   6.299
 4593SOL    HW125810   7.693   5.321   6.312
 4593SOL    HW225811   7.841   5.387   6.289
 4594SOL     OW25812   6.051   3.331   1.162
 4594SOL    HW125813   5.956   3.308   1.141
 4594SOL    HW225814   6.079   3.411   1.110
 4595SOL     OW25815   4.797   3.612   6.579
 4595SOL    HW125816   4.773   3.521   6.546
 4595SOL    HW225817   4.838   3.604   6.670
 4596SOL     OW25818   5.847   4.500   1.063
 4596SOL    HW125819   5.818   4.437   1.134
 4596SOL    HW225820   5.925   4.553   1.095
 4597SOL     OW25821   4.830   2.558   1.730
 4597SOL    HW125822   4.862   2.607   1.811
 4597SOL    HW225823   4.864   2.464   1.732
 4598SOL     OW25824   2.714   8.260   1.399
 4598SOL    HW125825   2.750   8.179   1.352
 4598SOL    HW225826   2.786   8.301   1.454
 4599SOL     OW25827   4.057   4.117   2.385
 4599SOL    HW125828   4.126   4.052   2.351
 4599SOL    HW225829   4.078   4.140   2.480
 4600SOL     OW25830   1.942   5.878   0.663
 4600SOL    HW125831   1.935   5.968   0.620
 4600SOL    HW225832   1.854   5.831   0.656
 4601SOL     OW25833   8.889   5.145   6.075
 4601SOL    HW125834   8.920   5.066   6.128
 4601SOL    HW225835   8.805   5.122   6.026
 4602SOL     OW25836   1.867   7.256   0.692
 4602SOL    HW125837   1.943   7.313   0.660
 4602SOL    HW225838   1.823   7.301   0.770
 4603SOL     OW25839   0.612   6.888   1.939
 4603SOL    HW125840   0.669   6.814   1.976
 4603SOL    HW225841   0.602   6.959   2.009
 4604SOL     OW25842   4.688   0.649   1.265
 4604SOL    HW125843   4.599   0.605   1.281
 4604SOL    HW225844   4.761   0.591   1.302
 4605SOL     OW25845   0.761   5.012   5.570
 4605SOL    HW125846   0.839   4.963   5.609
 4605SOL    HW225847   0.779   5.032   5.474
 4606SOL     OW25848   4.609   0.405   2.440
 4606SOL    HW125849   4.673   0.347   2.491
 4606SOL    HW225850   4.521   0.406   2.486
 4607SOL     OW25851   0.547   6.316   1.372
 4607SOL    HW125852   0.573   6.340   1.466
 4607SOL    HW225853   0.521   6.220   1.369
 4608SOL     OW25854   1.706   2.594   7.026
 4608SOL    HW125855   1.655   2.591   6.940
 4608SOL    HW225856   1.764   2.675   7.027
 4609SOL     OW25857   7.914   2.691   6.051
 4609SOL    HW125858   7.997   2.644   6.023
 4609SOL    HW225859   7.846   2.685   5.977
 4610SOL     OW25860   0.390   7.773   6.077
 4610SOL    HW125861   0.359   7.857   6.031
 4610SOL    HW225862   0.447   7.798   6.155
 4611SOL     OW25863   0.334   8.124   6.187
 4611SOL    HW125864   0.280   8.205   6.163
 4611SOL    HW225865   0.326   8.106   6.285
 4612SOL     OW25866   3.015   4.135   1.465
 4612SOL    HW125867   2.985   4.185   1.545
 4612SOL    HW225868   2.936   4.090   1.422
 4613SOL     OW25869   3.664   4.860   1.803
 4613SOL    HW125870   3.731   4.904   1.863
 4613SOL    HW225871   3.600   4.929   1.769
 4614SOL     OW25872   8.362   7.344   6.639
 4614SOL    HW125873   8.270   7.383   6.631
 4614SOL    HW225874   8.361   7.250   6.605
 4615SOL     OW25875   7.408   0.477   6.375
 4615SOL    HW125876   7.319   0.437   6.351
 4615SOL    HW225877   7.414   0.485   6.475
 4616SOL     OW25878   6.023   2.704   0.928
 4616SOL    HW125879   6.033   2.698   0.829
 4616SOL    HW225880   6.101   2.753   0.966
 4617SOL     OW25881   4.139   2.839   5.531
 4617SOL    HW125882   4.193   2.822   5.614
 4617SOL    HW225883   4.109   2.935   5.530
 4618SOL     OW25884   2.873   4.866   6.110
 4618SOL    HW125885   2.913   4.958   6.105
 4618SOL    HW225886   2.931   4.802   6.061
 4619SOL     OW25887   1.436   7.634   1.174
 4619SOL    HW125888   1.360   7.576   1.202
 4619SOL    HW225889   1.438   7.641   1.074
 4620SOL     OW25890   1.061   8.397   6.607
 4620SOL    HW125891   1.036   8.383   6.703
 4620SOL    HW225892   1.158   8.421   6.601
 4621SOL     OW25893   9.514   8.200   6.074
 4621SOL    HW125894   9.441   8.244   6.022
 4621SOL    HW225895   9.593   8.262   6.078
 4622SOL     OW25896   2.099   5.220   1.451
 4622SOL    HW125897   2.176   5.240   1.511
 4622SOL    HW225898   2.064   5.128   1.471
 4623SOL     OW25899   2.672   3.283   1.929
 4623SOL    HW125900   2.603   3.264   1.999
 4623SOL    HW225901   2.709   3.375   1.944
 4624SOL     OW25902   2.748   5.649   6.723
 4624SOL    HW125903   2.701   5.658   6.811
 4624SOL    HW225904   2.724   5.727   6.665
 4625SOL     OW25905   6.711   2.490   1.113
 4625SOL    HW125906   6.626   2.466   1.066
 4625SOL    HW225907   6.733   2.586   1.094
 4626SOL     OW25908   7.848   3.473   1.067
 4626SOL    HW125909   7.866   3.519   0.980
 4626SOL    HW225910   7.750   3.453   1.075
 4627SOL     OW25911   8.896   0.795   7.036
 4627SOL    HW125912   8.827   0.777   6.966
 4627SOL    HW225913   8.947   0.711   7.055
 4628SOL     OW25914   5.315   5.045   1.025
 4628SOL    HW125915   5.245   5.104   0.984
 4628SOL    HW225916   5.270   4.975   1.080
 4629SOL     OW25917   0.959   6.847   1.088
 4629SOL    HW125918   1.026   6.851   1.013
 4629SOL    HW225919   1.006   6.822   1.173
 4630SOL     OW25920   5.281   5.292   0.433
 4630SOL    HW125921   5.343   5.370   0.436
 4630SOL    HW225922   5.319   5.221   0.374
 4631SOL     OW25923   7.532   2.904   0.519
 4631SOL    HW125924   7.520   2.973   0.590
 4631SOL    HW225925   7.544   2.948   0.431
 4632SOL     OW25926   2.592   2.668   5.789
 4632SOL    HW125927   2.593   2.755   5.738
 4632SOL    HW225928   2.511   2.615   5.763
 4633SOL     OW25929   8.234   8.207   5.558
 4633SOL    HW125930   8.246   8.255   5.471
 4633SOL    HW225931   8.186   8.120   5.541
 4634SOL     OW25932   5.687   5.085   1.003
 4634SOL    HW125933   5.727   5.081   1.094
 4634SOL    HW225934   5.604   5.141   1.005
 4635SOL     OW25935   7.739   1.496   6.917
 4635SOL    HW125936   7.791   1.580   6.933
 4635SOL    HW225937   7.776   1.423   6.975
 4636SOL     OW25938   8.315   5.882   5.994
 4636SOL    HW125939   8.251   5.884   5.917
 4636SOL    HW225940   8.266   5.903   6.079
 4637SOL     OW25941   0.717   7.088   6.588
 4637SOL    HW125942   0.717   7.110   6.685
 4637SOL    HW225943   0.811   7.067   6.559
 4638SOL     OW25944   7.329   5.211   5.290
 4638SOL    HW125945   7.366   5.209   5.197
 4638SOL    HW225946   7.329   5.119   5.328
 4639SOL     OW25947   3.224   2.174   1.828
 4639SOL    HW125948   3.186   2.267   1.821
 4639SOL    HW225949   3.163   2.110   1.781
 4640SOL     OW25950   8.380   7.134   5.542
 4640SOL    HW125951   8.393   7.053   5.485
 4640SOL    HW225952   8.421   7.213   5.497
 4641SOL     OW25953   8.666   1.311   1.022
 4641SOL    HW125954   8.708   1.276   1.106
 4641SOL    HW225955   8.656   1.236   0.957
 4642SOL     OW25956   0.599   7.311   5.144
 4642SOL    HW125957   0.569   7.334   5.051
 4642SOL    HW225958   0.699   7.301   5.145
 4643SOL     OW25959   1.854   5.377   0.844
 4643SOL    HW125960   1.929   5.371   0.910
 4643SOL    HW225961   1.888   5.358   0.752
 4644SOL     OW25962   3.450   4.740   6.727
 4644SOL    HW125963   3.506   4.667   6.688
 4644SOL    HW225964   3.506   4.822   6.739
 4645SOL     OW25965   8.416   0.489   6.283
 4645SOL    HW125966   8.494   0.493   6.220
 4645SOL    HW225967   8.346   0.554   6.252
 4646SOL     OW25968   1.963   5.117   1.839
 4646SOL    HW125969   2.036   5.060   1.877
 4646SOL    HW225970   1.922   5.070   1.760
 4647SOL     OW25971   2.757   5.540   6.236
 4647SOL    HW125972   2.802   5.534   6.325
 4647SOL    HW225973   2.826   5.537   6.163
 4648SOL     OW25974   2.766   2.519   6.330
 4648SOL    HW125975   2.683   2.463   6.330
 4648SOL    HW225976   2.846   2.460   6.326
 4649SOL     OW25977   1.418   2.543   5.740
 4649SOL    HW125978   1.495   2.572   5.683
 4649SOL    HW225979   1.413   2.443   5.740
 4650SOL     OW25980   1.492   6.119   1.183
 4650SOL    HW125981   1.578   6.070   1.198
 4650SOL    HW225982   1.494   6.162   1.093
 4651SOL     OW25983   0.993   8.030   6.592
 4651SOL    HW125984   1.062   8.068   6.531
 4651SOL    HW225985   1.031   8.020   6.684
 4652SOL     OW25986   2.889   1.850   1.644
 4652SOL    HW125987   2.854   1.837   1.551
 4652SOL    HW225988   2.819   1.824   1.710
 4653SOL     OW25989   4.360   3.098   6.746
 4653SOL    HW125990   4.440   3.129   6.694
 4653SOL    HW225991   4.384   3.017   6.799
 4654SOL     OW25992   4.638   6.920   2.069
 4654SOL    HW125993   4.572   6.969   2.125
 4654SOL    HW225994   4.685   6.851   2.125
 4655SOL     OW25995   7.482   7.380   6.212
 4655SOL    HW125996   7.487   7.354   6.309
 4655SOL    HW225997   7.554   7.333   6.162
 4656SOL     OW25998   3.580   0.374   1.740
 4656SOL    HW125999   3.626   0.397   1.654
 4656SOL    HW226000   3.626   0.420   1.816
 4657SOL     OW26001   2.370   5.962   6.842
 4657SOL    HW126002   2.304   6.037   6.836
 4657SOL    HW226003   2.440   5.984   6.910
 4658SOL     OW26004   2.757   6.915   1.304
 4658SOL    HW126005   2.728   6.845   1.370
 4658SOL    HW226006   2.677   6.946   1.253
 4659SOL     OW26007   0.498   7.593   6.962
 4659SOL    HW126008   0.567   7.636   7.021
 4659SOL    HW226009   0.409   7.595   7.007
 4660SOL     OW26010   5.942   6.784   5.841
 4660SOL    HW126011   5.890   6.719   5.896
 4660SOL    HW226012   5.897   6.797   5.753
 4661SOL     OW26013   6.171   7.845   1.516
 4661SOL    HW126014   6.204   7.842   1.611
 4661SOL    HW226015   6.175   7.939   1.482
 4662SOL     OW26016   0.751   4.126   6.445
 4662SOL    HW126017   0.751   4.037   6.399
 4662SOL    HW226018   0.658   4.149   6.474
 4663SOL     OW26019   0.953   5.493   1.502
 4663SOL    HW126020   0.928   5.469   1.596
 4663SOL    HW226021   1.033   5.553   1.503
 4664SOL     OW26022   1.128   1.273   1.531
 4664SOL    HW126023   1.202   1.219   1.492
 4664SOL    HW226024   1.059   1.212   1.570
 4665SOL     OW26025   5.589   2.761   1.130
 4665SOL    HW126026   5.532   2.821   1.074
 4665SOL    HW226027   5.530   2.698   1.181
 4666SOL     OW26028   1.822   1.355   1.510
 4666SOL    HW126029   1.887   1.424   1.477
 4666SOL    HW226030   1.794   1.378   1.603
 4667SOL     OW26031   3.932   0.217   6.200
 4667SOL    HW126032   3.925   0.317   6.202
 4667SOL    HW226033   3.850   0.179   6.159
 4668SOL     OW26034   4.347   1.911   6.760
 4668SOL    HW126035   4.417   1.983   6.759
 4668SOL    HW226036   4.390   1.823   6.738
 4669SOL     OW26037   6.091   6.660   2.439
 4669SOL    HW126038   6.189   6.673   2.453
 4669SOL    HW226039   6.055   6.601   2.511
 4670SOL     OW26040   8.829   6.855   1.891
 4670SOL    HW126041   8.745   6.865   1.944
 4670SOL    HW226042   8.823   6.773   1.834
 4671SOL     OW26043   9.168   8.321   0.576
 4671SOL    HW126044   9.143   8.417   0.592
 4671SOL    HW226045   9.249   8.298   0.630
 4672SOL     OW26046   3.140   6.419   1.648
 4672SOL    HW126047   3.089   6.336   1.626
 4672SOL    HW226048   3.087   6.499   1.619
 4673SOL     OW26049   4.903   2.729   6.506
 4673SOL    HW126050   4.974   2.782   6.459
 4673SOL    HW226051   4.946   2.670   6.574
 4674SOL     OW26052   3.054   3.358   6.392
 4674SOL    HW126053   3.045   3.457   6.384
 4674SOL    HW226054   2.981   3.313   6.341
 4675SOL     OW26055   6.053   0.341   2.267
 4675SOL    HW126056   6.116   0.418   2.276
 4675SOL    HW226057   6.042   0.296   2.356
 4676SOL     OW26058   4.740   3.376   0.526
 4676SOL    HW126059   4.784   3.325   0.453
 4676SOL    HW226060   4.748   3.474   0.508
 4677SOL     OW26061   5.245   0.943   7.120
 4677SOL    HW126062   5.287   0.853   7.135
 4677SOL    HW226063   5.201   0.974   7.204
 4678SOL     OW26064   0.311   2.724   7.157
 4678SOL    HW126065   0.241   2.693   7.093
 4678SOL    HW226066   0.358   2.804   7.119
 4679SOL     OW26067   1.484   1.869   1.611
 4679SOL    HW126068   1.547   1.796   1.585
 4679SOL    HW226069   1.535   1.955   1.619
 4680SOL     OW26070   3.863   4.972   1.951
 4680SOL    HW126071   3.950   4.932   1.922
 4680SOL    HW226072   3.830   4.924   2.032
 4681SOL     OW26073   1.461   2.584   6.875
 4681SOL    HW126074   1.386   2.567   6.940
 4681SOL    HW226075   1.465   2.682   6.854
 4682SOL     OW26076   4.622   7.387   6.472
 4682SOL    HW126077   4.671   7.381   6.385
 4682SOL    HW226078   4.686   7.375   6.548
 4683SOL     OW26079   1.408   1.947   5.705
 4683SOL    HW126080   1.352   2.013   5.756
 4683SOL    HW226081   1.448   1.992   5.626
 4684SOL     OW26082   5.755   7.975   2.412
 4684SOL    HW126083   5.826   7.913   2.448
 4684SOL    HW226084   5.669   7.924   2.402
 4685SOL     OW26085   6.033   2.978   1.365
 4685SOL    HW126086   6.081   3.061   1.395
 4685SOL    HW226087   6.083   2.937   1.289
 4686SOL     OW26088   3.757   1.736   6.575
 4686SOL    HW126089   3.658   1.728   6.588
 4686SOL    HW226090   3.787   1.669   6.507
 4687SOL     OW26091   3.491   1.357   1.725
 4687SOL    HW126092   3.482   1.432   1.659
 4687SOL    HW226093   3.558   1.381   1.794
 4688SOL     OW26094   7.218   6.657   0.688
 4688SOL    HW126095   7.210   6.571   0.638
 4688SOL    HW226096   7.273   6.644   0.770
 4689SOL     OW26097   4.964   1.453   2.073
 4689SOL    HW126098   4.947   1.390   2.148
 4689SOL    HW226099   4.961   1.547   2.107
 4690SOL     OW26100   5.546   7.708   0.720
 4690SOL    HW126101   5.606   7.773   0.674
 4690SOL    HW226102   5.586   7.681   0.807
 4691SOL     OW26103   2.537   0.862   1.499
 4691SOL    HW126104   2.622   0.812   1.518
 4691SOL    HW226105   2.462   0.821   1.551
 4692SOL     OW26106   8.628   1.908   1.814
 4692SOL    HW126107   8.641   2.003   1.786
 4692SOL    HW226108   8.646   1.899   1.912
 4693SOL     OW26109   5.748   8.051   6.739
 4693SOL    HW126110   5.847   8.066   6.749
 4693SOL    HW226111   5.729   8.004   6.653
 4694SOL     OW26112   5.762   4.166   1.881
 4694SOL    HW126113   5.808   4.102   1.942
 4694SOL    HW226114   5.663   4.160   1.893
 4695SOL     OW26115   6.162   0.545   1.002
 4695SOL    HW126116   6.116   0.617   0.950
 4695SOL    HW226117   6.102   0.512   1.075
 4696SOL     OW26118   5.711   2.098   1.336
 4696SOL    HW126119   5.696   2.024   1.271
 4696SOL    HW226120   5.674   2.183   1.298
 4697SOL     OW26121   0.328   1.843   1.281
 4697SOL    HW126122   0.311   1.752   1.319
 4697SOL    HW226123   0.376   1.898   1.348
 4698SOL     OW26124   7.910   5.467   5.348
 4698SOL    HW126125   7.971   5.471   5.270
 4698SOL    HW226126   7.815   5.464   5.316
 4699SOL     OW26127   5.826   6.646   1.065
 4699SOL    HW126128   5.778   6.665   1.151
 4699SOL    HW226129   5.857   6.733   1.025
 4700SOL     OW26130   7.916   5.305   0.800
 4700SOL    HW126131   7.960   5.218   0.781
 4700SOL    HW226132   7.832   5.290   0.852
 4701SOL     OW26133   6.210   4.203   0.697
 4701SOL    HW126134   6.159   4.213   0.782
 4701SOL    HW226135   6.257   4.288   0.675
 4702SOL     OW26136   9.001   2.048   6.609
 4702SOL    HW126137   9.034   2.043   6.703
 4702SOL    HW226138   8.986   2.144   6.585
 4703SOL     OW26139   0.267   7.234   1.396
 4703SOL    HW126140   0.238   7.139   1.382
 4703SOL    HW226141   0.212   7.275   1.469
 4704SOL     OW26142   2.496   6.569   6.798
 4704SOL    HW126143   2.542   6.640   6.851
 4704SOL    HW226144   2.413   6.540   6.845
 4705SOL     OW26145   9.154   0.630   5.932
 4705SOL    HW126146   9.170   0.546   5.879
 4705SOL    HW226147   9.057   0.655   5.925
 4706SOL     OW26148   5.709   0.197   6.899
 4706SOL    HW126149   5.715   0.293   6.872
 4706SOL    HW226150   5.682   0.190   6.995
 4707SOL     OW26151   0.532   1.235   6.982
 4707SOL    HW126152   0.607   1.241   6.917
 4707SOL    HW226153   0.449   1.271   6.940
 4708SOL     OW26154   3.716   7.378   2.599
 4708SOL    HW126155   3.771   7.381   2.682
 4708SOL    HW226156   3.759   7.318   2.532
 4709SOL     OW26157   3.003   2.986   7.068
 4709SOL    HW126158   3.012   2.914   6.999
 4709SOL    HW226159   3.019   3.075   7.026
 4710SOL     OW26160   8.604   8.162   1.080
 4710SOL    HW126161   8.698   8.142   1.050
 4710SOL    HW226162   8.540   8.122   1.015
 4711SOL     OW26163   7.786   4.898   7.006
 4711SOL    HW126164   7.800   4.912   6.908
 4711SOL    HW226165   7.757   4.803   7.023
 4712SOL     OW26166   5.432   8.027   1.973
 4712SOL    HW126167   5.494   8.081   1.916
 4712SOL    HW226168   5.454   8.041   2.069
 4713SOL     OW26169   5.912   1.202   1.005
 4713SOL    HW126170   6.001   1.211   1.051
 4713SOL    HW226171   5.922   1.143   0.925
 4714SOL     OW26172   5.527   8.209   1.810
 4714SOL    HW126173   5.487   8.295   1.842
 4714SOL    HW226174   5.494   8.189   1.717
 4715SOL     OW26175   5.616   8.128   0.714
 4715SOL    HW126176   5.704   8.116   0.667
 4715SOL    HW226177   5.632   8.154   0.809
 4716SOL     OW26178   3.868   4.674   1.819
 4716SOL    HW126179   3.778   4.716   1.805
 4716SOL    HW226180   3.887   4.667   1.917
 4717SOL     OW26181   5.092   7.005   5.997
 4717SOL    HW126182   5.033   6.984   5.919
 4717SOL    HW226183   5.073   6.942   6.072
 4718SOL     OW26184   6.102   1.452   6.829
 4718SOL    HW126185   6.171   1.385   6.800
 4718SOL    HW226186   6.118   1.477   6.924
 4719SOL     OW26187   8.894   7.120   6.665
 4719SOL    HW126188   8.808   7.104   6.616
 4719SOL    HW226189   8.882   7.102   6.762
 4720SOL     OW26190   0.682   0.870   5.791
 4720SOL    HW126191   0.697   0.862   5.692
 4720SOL    HW226192   0.769   0.865   5.839
 4721SOL     OW26193   8.167   3.389   6.854
 4721SOL    HW126194   8.225   3.411   6.776
 4721SOL    HW226195   8.179   3.458   6.925
 4722SOL     OW26196   9.437   3.057   6.676
 4722SOL    HW126197   9.411   3.089   6.767
 4722SOL    HW226198   9.372   2.988   6.645
 4723SOL     OW26199   9.548   4.868   1.454
 4723SOL    HW126200   9.615   4.894   1.525
 4723SOL    HW226201   9.515   4.776   1.472
 4724SOL     OW26202   4.959   1.414   6.596
 4724SOL    HW126203   4.980   1.380   6.688
 4724SOL    HW226204   4.937   1.511   6.601
 4725SOL     OW26205   0.485   7.004   1.174
 4725SOL    HW126206   0.498   6.982   1.271
 4725SOL    HW226207   0.460   6.920   1.125
 4726SOL     OW26208   8.982   3.892   0.559
 4726SOL    HW126209   9.001   3.987   0.582
 4726SOL    HW226210   9.053   3.833   0.597
 4727SOL     OW26211   1.291   8.284   0.894
 4727SOL    HW126212   1.318   8.377   0.919
 4727SOL    HW226213   1.251   8.238   0.973
 4728SOL     OW26214   7.087   4.226   1.766
 4728SOL    HW126215   7.180   4.258   1.785
 4728SOL    HW226216   7.091   4.136   1.722
 4729SOL     OW26217   1.531   4.836   6.597
 4729SOL    HW126218   1.523   4.744   6.558
 4729SOL    HW226219   1.616   4.879   6.564
 4730SOL     OW26220   7.206   5.568   1.436
 4730SOL    HW126221   7.215   5.573   1.337
 4730SOL    HW226222   7.263   5.494   1.471
 4731SOL     OW26223   0.621   5.645   6.274
 4731SOL    HW126224   0.674   5.654   6.190
 4731SOL    HW226225   0.659   5.571   6.329
 4732SOL     OW26226   5.106   6.210   6.373
 4732SOL    HW126227   5.124   6.246   6.464
 4732SOL    HW226228   5.187   6.164   6.338
 4733SOL     OW26229   4.148   5.470   2.462
 4733SOL    HW126230   4.111   5.556   2.498
 4733SOL    HW226231   4.077   5.400   2.465
 4734SOL     OW26232   3.607   6.246   1.336
 4734SOL    HW126233   3.617   6.261   1.434
 4734SOL    HW226234   3.544   6.170   1.320
 4735SOL     OW26235   2.307   5.543   1.363
 4735SOL    HW126236   2.315   5.582   1.454
 4735SOL    HW226237   2.223   5.575   1.319
 4736SOL     OW26238   3.510   4.653   1.917
 4736SOL    HW126239   3.483   4.672   2.012
 4736SOL    HW226240   3.547   4.736   1.876
 4737SOL     OW26241   6.793   6.235   1.958
 4737SOL    HW126242   6.849   6.154   1.973
 4737SOL    HW226243   6.750   6.262   2.044
 4738SOL     OW26244   1.088   0.805   1.256
 4738SOL    HW126245   1.137   0.869   1.196
 4738SOL    HW226246   1.022   0.855   1.311
 4739SOL     OW26247   9.038   3.283   7.163
 4739SOL    HW126248   9.093   3.203   7.143
 4739SOL    HW226249   9.055   3.354   7.093
 4740SOL     OW26250   9.011   7.373   1.534
 4740SOL    HW126251   9.078   7.445   1.548
 4740SOL    HW226252   8.955   7.361   1.616
 4741SOL     OW26253   2.194   4.064   2.340
 4741SOL    HW126254   2.123   4.124   2.377
 4741SOL    HW226255   2.159   4.016   2.259
 4742SOL     OW26256   6.035   3.062   1.918
 4742SOL    HW126257   6.032   3.004   1.999
 4742SOL    HW226258   5.942   3.088   1.892
 4743SOL     OW26259   4.245   0.796   1.890
 4743SOL    HW126260   4.251   0.838   1.981
 4743SOL    HW226261   4.158   0.822   1.847
 4744SOL     OW26262   0.697   1.857   0.572
 4744SOL    HW126263   0.745   1.910   0.502
 4744SOL    HW226264   0.643   1.918   0.629
 4745SOL     OW26265   0.900   7.580   6.404
 4745SOL    HW126266   0.988   7.622   6.384
 4745SOL    HW226267   0.851   7.635   6.472
 4746SOL     OW26268   4.639   6.460   0.902
 4746SOL    HW126269   4.641   6.538   0.840
 4746SOL    HW226270   4.661   6.376   0.852
 4747SOL     OW26271   4.081   3.037   6.631
 4747SOL    HW126272   4.114   2.964   6.572
 4747SOL    HW226273   4.155   3.071   6.688
 4748SOL     OW26274   9.022   3.944   6.514
 4748SOL    HW126275   9.055   4.038   6.513
 4748SOL    HW226276   8.925   3.942   6.493
 4749SOL     OW26277   2.792   7.460   6.317
 4749SOL    HW126278   2.849   7.477   6.236
 4749SOL    HW226279   2.695   7.464   6.291
 4750SOL     OW26280   6.895   0.852   6.249
 4750SOL    HW126281   6.883   0.895   6.160
 4750SOL    HW226282   6.979   0.888   6.292
 4751SOL     OW26283   6.563   1.860   0.580
 4751SOL    HW126284   6.607   1.838   0.668
 4751SOL    HW226285   6.630   1.900   0.518
 4752SOL     OW26286   5.049   1.254   6.363
 4752SOL    HW126287   4.983   1.298   6.425
 4752SOL    HW226288   5.138   1.298   6.373
 4753SOL     OW26289   5.323   2.181   6.023
 4753SOL    HW126290   5.309   2.147   5.930
 4753SOL    HW226291   5.301   2.278   6.027
 4754SOL     OW26292   4.259   1.953   6.393
 4754SOL    HW126293   4.228   1.858   6.400
 4754SOL    HW226294   4.337   1.967   6.454
 4755SOL     OW26295   3.453   6.867   1.863
 4755SOL    HW126296   3.509   6.877   1.945
 4755SOL    HW226297   3.509   6.827   1.790
 4756SOL     OW26298   8.899   6.688   6.060
 4756SOL    HW126299   8.971   6.732   6.006
 4756SOL    HW226300   8.932   6.600   6.094
 4757SOL     OW26301   0.596   7.028   5.544
 4757SOL    HW126302   0.497   7.013   5.552
 4757SOL    HW226303   0.616   7.126   5.550
 4758SOL     OW26304   0.691   6.469   1.858
 4758SOL    HW126305   0.635   6.515   1.926
 4758SOL    HW226306   0.788   6.484   1.879
 4759SOL     OW26307   3.649   8.297   1.743
 4759SOL    HW126308   3.686   8.263   1.657
 4759SOL    HW226309   3.655   8.225   1.812
 4760SOL     OW26310   1.288   2.772   5.690
 4760SOL    HW126311   1.305   2.677   5.718
 4760SOL    HW226312   1.354   2.833   5.733
 4761SOL     OW26313   6.160   0.597   2.318
 4761SOL    HW126314   6.100   0.674   2.340
 4761SOL    HW226315   6.246   0.606   2.369
 4762SOL     OW26316   9.152   6.798   1.823
 4762SOL    HW126317   9.084   6.748   1.769
 4762SOL    HW226318   9.171   6.747   1.907
 4763SOL     OW26319   1.351   4.225   6.058
 4763SOL    HW126320   1.449   4.209   6.074
 4763SOL    HW226321   1.334   4.232   5.960
 4764SOL     OW26322   4.945   4.533   7.012
 4764SOL    HW126323   4.923   4.486   6.926
 4764SOL    HW226324   4.957   4.466   7.085
 4765SOL     OW26325   9.223   7.606   1.424
 4765SOL    HW126326   9.247   7.541   1.351
 4765SOL    HW226327   9.286   7.594   1.501
 4766SOL     OW26328   2.012   6.376   5.464
 4766SOL    HW126329   2.003   6.300   5.400
 4766SOL    HW226330   2.108   6.389   5.487
 4767SOL     OW26331   5.603   5.760   1.484
 4767SOL    HW126332   5.696   5.782   1.454
 4767SOL    HW226333   5.537   5.806   1.425
 4768SOL     OW26334   3.365   5.758   6.256
 4768SOL    HW126335   3.462   5.782   6.265
 4768SOL    HW226336   3.320   5.768   6.345
 4769SOL     OW26337   1.863   4.681   6.693
 4769SOL    HW126338   1.849   4.703   6.789
 4769SOL    HW226339   1.866   4.765   6.639
 4770SOL     OW26340   0.226   2.999   6.591
 4770SOL    HW126341   0.130   3.021   6.607
 4770SOL    HW226342   0.232   2.913   6.540
 4771SOL     OW26343   0.131   0.144   1.936
 4771SOL    HW126344   0.163   0.206   1.865
 4771SOL    HW226345   0.122   0.194   2.022
 4772SOL     OW26346   4.443   2.789   1.785
 4772SOL    HW126347   4.496   2.829   1.860
 4772SOL    HW226348   4.360   2.842   1.770
 4773SOL     OW26349   5.100   0.637   0.982
 4773SOL    HW126350   5.105   0.541   0.953
 4773SOL    HW226351   5.005   0.668   0.978
 4774SOL     OW26352   9.000   2.543   0.997
 4774SOL    HW126353   8.945   2.619   1.031
 4774SOL    HW226354   8.956   2.456   1.022
 4775SOL     OW26355   7.133   2.921   0.890
 4775SOL    HW126356   7.232   2.905   0.895
 4775SOL    HW226357   7.087   2.836   0.868
 4776SOL     OW26358   2.048   4.364   0.649
 4776SOL    HW126359   2.137   4.322   0.630
 4776SOL    HW226360   1.999   4.380   0.563
 4777SOL     OW26361   2.043   2.558   5.209
 4777SOL    HW126362   1.974   2.486   5.208
 4777SOL    HW226363   2.003   2.643   5.242
 4778SOL     OW26364   8.188   4.614   7.114
 4778SOL    HW126365   8.127   4.549   7.070
 4778SOL    HW226366   8.139   4.700   7.130
 4779SOL     OW26367   8.413   6.738   6.136
 4779SOL    HW126368   8.417   6.647   6.096
 4779SOL    HW226369   8.360   6.798   6.076
 4780SOL     OW26370   1.851   0.228   1.944
 4780SOL    HW126371   1.866   0.136   1.982
 4780SOL    HW226372   1.767   0.266   1.982
 4781SOL     OW26373   3.520   2.395   6.626
 4781SOL    HW126374   3.431   2.395   6.673
 4781SOL    HW226375   3.593   2.408   6.694
 4782SOL     OW26376   9.444   2.298   6.584
 4782SOL    HW126377   9.357   2.326   6.625
 4782SOL    HW226378   9.433   2.294   6.484
 4783SOL     OW26379   4.964   0.651   5.727
 4783SOL    HW126380   4.923   0.685   5.643
 4783SOL    HW226381   5.055   0.691   5.738
 4784SOL     OW26382   4.994   6.025   0.747
 4784SOL    HW126383   5.012   6.006   0.844
 4784SOL    HW226384   5.068   5.987   0.692
 4785SOL     OW26385   0.432   6.504   4.821
 4785SOL    HW126386   0.507   6.448   4.785
 4785SOL    HW226387   0.378   6.539   4.744
 4786SOL     OW26388   3.708   2.334   2.301
 4786SOL    HW126389   3.717   2.423   2.345
 4786SOL    HW226390   3.715   2.262   2.371
 4787SOL     OW26391   4.732   5.752   1.634
 4787SOL    HW126392   4.807   5.784   1.693
 4787SOL    HW226393   4.708   5.658   1.658
 4788SOL     OW26394   1.724   2.261   6.356
 4788SOL    HW126395   1.724   2.350   6.401
 4788SOL    HW226396   1.652   2.258   6.287
 4789SOL     OW26397   4.134   1.204   0.994
 4789SOL    HW126398   4.172   1.273   0.933
 4789SOL    HW226399   4.195   1.125   0.997
 4790SOL     OW26400   8.993   7.336   5.520
 4790SOL    HW126401   8.937   7.271   5.571
 4790SOL    HW226402   8.939   7.376   5.446
 4791SOL     OW26403   6.464   1.494   2.416
 4791SOL    HW126404   6.473   1.543   2.502
 4791SOL    HW226405   6.541   1.431   2.405
 4792SOL     OW26406   7.576   0.633   7.144
 4792SOL    HW126407   7.661   0.617   7.194
 4792SOL    HW226408   7.596   0.636   7.046
 4793SOL     OW26409   8.828   4.665   6.456
 4793SOL    HW126410   8.908   4.697   6.405
 4793SOL    HW226411   8.858   4.621   6.541
 4794SOL     OW26412   2.825   5.125   0.948
 4794SOL    HW126413   2.729   5.100   0.962
 4794SOL    HW226414   2.879   5.091   1.025
 4795SOL     OW26415   7.311   6.678   0.954
 4795SOL    HW126416   7.254   6.748   0.996
 4795SOL    HW226417   7.355   6.623   1.026
 4796SOL     OW26418   2.767   1.167   6.422
 4796SOL    HW126419   2.710   1.092   6.453
 4796SOL    HW226420   2.863   1.141   6.427
 4797SOL     OW26421   3.394   0.246   7.093
 4797SOL    HW126422   3.448   0.163   7.104
 4797SOL    HW226423   3.312   0.241   7.148
 4798SOL     OW26424   7.041   7.395   6.500
 4798SOL    HW126425   7.065   7.490   6.516
 4798SOL    HW226426   6.954   7.374   6.544
 4799SOL     OW26427   5.007   4.858   0.756
 4799SOL    HW126428   5.059   4.896   0.680
 4799SOL    HW226429   4.910   4.853   0.731
 4800SOL     OW26430   3.775   2.116   6.402
 4800SOL    HW126431   3.780   2.023   6.364
 4800SOL    HW226432   3.868   2.147   6.422
 4801SOL     OW26433   8.194   7.610   5.648
 4801SOL    HW126434   8.163   7.667   5.572
 4801SOL    HW226435   8.274   7.557   5.620
 4802SOL     OW26436   9.154   4.967   6.499
 4802SOL    HW126437   9.091   4.952   6.575
 4802SOL    HW226438   9.162   4.883   6.445
 4803SOL     OW26439   7.570   5.451   5.266
 4803SOL    HW126440   7.624   5.508   5.203
 4803SOL    HW226441   7.473   5.458   5.243
 4804SOL     OW26442   9.274   5.502   1.209
 4804SOL    HW126443   9.274   5.435   1.284
 4804SOL    HW226444   9.291   5.593   1.246
 4805SOL     OW26445   7.595   7.719   6.218
 4805SOL    HW126446   7.574   7.689   6.125
 4805SOL    HW226447   7.603   7.818   6.221
 4806SOL     OW26448   2.148   5.539   0.706
 4806SOL    HW126449   2.107   5.517   0.795
 4806SOL    HW226450   2.179   5.455   0.662
 4807SOL     OW26451   7.339   6.876   1.384
 4807SOL    HW126452   7.351   6.817   1.463
 4807SOL    HW226453   7.330   6.971   1.414
 4808SOL     OW26454   2.058   3.685   5.787
 4808SOL    HW126455   2.075   3.742   5.707
 4808SOL    HW226456   2.017   3.598   5.758
 4809SOL     OW26457   2.053   2.304   6.477
 4809SOL    HW126458   1.995   2.364   6.532
 4809SOL    HW226459   1.997   2.251   6.414
 4810SOL     OW26460   1.277   6.742   6.810
 4810SOL    HW126461   1.355   6.803   6.823
 4810SOL    HW226462   1.309   6.653   6.776
 4811SOL     OW26463   8.255   6.630   5.713
 4811SOL    HW126464   8.311   6.710   5.733
 4811SOL    HW226465   8.209   6.599   5.796
 4812SOL     OW26466   8.384   7.472   6.210
 4812SOL    HW126467   8.481   7.449   6.212
 4812SOL    HW226468   8.330   7.389   6.197
 4813SOL     OW26469   6.922   7.132   1.557
 4813SOL    HW126470   6.954   7.109   1.649
 4813SOL    HW226471   6.914   7.048   1.503
 4814SOL     OW26472   0.395   7.655   1.244
 4814SOL    HW126473   0.389   7.640   1.342
 4814SOL    HW226474   0.426   7.749   1.227
 4815SOL     OW26475   7.738   3.497   1.587
 4815SOL    HW126476   7.757   3.589   1.552
 4815SOL    HW226477   7.788   3.483   1.673
 4816SOL     OW26478   7.868   5.973   1.448
 4816SOL    HW126479   7.869   5.892   1.507
 4816SOL    HW226480   7.796   6.036   1.480
 4817SOL     OW26481   4.620   0.303   6.166
 4817SOL    HW126482   4.684   0.372   6.200
 4817SOL    HW226483   4.637   0.286   6.069
 4818SOL     OW26484   7.913  -0.001   6.173
 4818SOL    HW126485   7.816   0.015   6.160
 4818SOL    HW226486   7.965   0.077   6.139
 4819SOL     OW26487   5.773   4.648   0.614
 4819SOL    HW126488   5.814   4.732   0.649
 4819SOL    HW226489   5.840   4.573   0.618
 4820SOL     OW26490   8.187   5.125   1.177
 4820SOL    HW126491   8.110   5.070   1.145
 4820SOL    HW226492   8.268   5.105   1.122
 4821SOL     OW26493   1.638   5.711   6.135
 4821SOL    HW126494   1.690   5.698   6.051
 4821SOL    HW226495   1.624   5.623   6.180
 4822SOL     OW26496   4.690   7.527   5.557
 4822SOL    HW126497   4.759   7.514   5.486
 4822SOL    HW226498   4.605   7.558   5.515
 4823SOL     OW26499   2.386   5.464   6.112
 4823SOL    HW126500   2.406   5.557   6.144
 4823SOL    HW226501   2.432   5.397   6.171
 4824SOL     OW26502   2.272   4.718   6.090
 4824SOL    HW126503   2.263   4.702   6.188
 4824SOL    HW226504   2.353   4.670   6.056
 4825SOL     OW26505   2.591   3.559   6.139
 4825SOL    HW126506   2.675   3.506   6.152
 4825SOL    HW226507   2.615   3.654   6.119
 4826SOL     OW26508   5.757   8.224   2.556
 4826SOL    HW126509   5.752   8.126   2.536
 4826SOL    HW226510   5.853   8.251   2.563
 4827SOL     OW26511   6.586   7.972   6.268
 4827SOL    HW126512   6.530   7.892   6.289
 4827SOL    HW226513   6.543   8.025   6.195
 4828SOL     OW26514   8.979   2.716   0.684
 4828SOL    HW126515   9.058   2.721   0.622
 4828SOL    HW226516   8.901   2.762   0.642
 4829SOL     OW26517   2.590   2.353   1.523
 4829SOL    HW126518   2.538   2.415   1.464
 4829SOL    HW226519   2.591   2.262   1.483
 4830SOL     OW26520   1.716   7.664   1.185
 4830SOL    HW126521   1.761   7.640   1.271
 4830SOL    HW226522   1.617   7.650   1.194
 4831SOL     OW26523   2.090   4.623   5.880
 4831SOL    HW126524   2.105   4.620   5.782
 4831SOL    HW226525   2.173   4.657   5.926
 4832SOL     OW26526   2.817   1.890   0.520
 4832SOL    HW126527   2.852   1.816   0.578
 4832SOL    HW226528   2.840   1.871   0.424
 4833SOL     OW26529   8.909   6.217   0.816
 4833SOL    HW126530   8.907   6.118   0.829
 4833SOL    HW226531   8.914   6.263   0.905
 4834SOL     OW26532   5.784   1.112   1.493
 4834SOL    HW126533   5.811   1.147   1.583
 4834SOL    HW226534   5.826   1.023   1.478
 4835SOL     OW26535   6.372   2.195   0.902
 4835SOL    HW126536   6.391   2.191   0.804
 4835SOL    HW226537   6.288   2.144   0.923
 4836SOL     OW26538   2.044   6.211   1.801
 4836SOL    HW126539   2.112   6.138   1.809
 4836SOL    HW226540   1.971   6.181   1.739
 4837SOL     OW26541   3.396   6.699   5.511
 4837SOL    HW126542   3.334   6.771   5.543
 4837SOL    HW226543   3.488   6.736   5.503
 4838SOL     OW26544   7.277   5.388   5.492
 4838SOL    HW126545   7.295   5.357   5.399
 4838SOL    HW226546   7.187   5.432   5.496
 4839SOL     OW26547   6.264   3.651   6.546
 4839SOL    HW126548   6.359   3.620   6.556
 4839SOL    HW226549   6.240   3.653   6.449
 4840SOL     OW26550   6.665   5.744   0.715
 4840SOL    HW126551   6.728   5.667   0.713
 4840SOL    HW226552   6.700   5.814   0.778
 4841SOL     OW26553   0.840   5.462   5.335
 4841SOL    HW126554   0.892   5.490   5.417
 4841SOL    HW226555   0.771   5.395   5.361
 4842SOL     OW26556   4.239   5.675   6.331
 4842SOL    HW126557   4.245   5.770   6.301
 4842SOL    HW226558   4.181   5.623   6.267
 4843SOL     OW26559   0.278   2.042   5.655
 4843SOL    HW126560   0.325   2.055   5.743
 4843SOL    HW226561   0.344   2.048   5.581
 4844SOL     OW26562   9.265   6.560   6.521
 4844SOL    HW126563   9.264   6.481   6.583
 4844SOL    HW226564   9.199   6.628   6.553
 4845SOL     OW26565   1.361   6.039   0.771
 4845SOL    HW126566   1.265   6.042   0.742
 4845SOL    HW226567   1.420   6.035   0.690
 4846SOL     OW26568   1.199   7.008   6.555
 4846SOL    HW126569   1.229   7.103   6.551
 4846SOL    HW226570   1.278   6.947   6.551
 4847SOL     OW26571   6.321   7.417   1.128
 4847SOL    HW126572   6.389   7.388   1.061
 4847SOL    HW226573   6.257   7.481   1.085
 4848SOL     OW26574   9.235   1.448   1.342
 4848SOL    HW126575   9.147   1.492   1.355
 4848SOL    HW226576   9.232   1.355   1.377
 4849SOL     OW26577   1.699   0.932   0.529
 4849SOL    HW126578   1.775   0.994   0.548
 4849SOL    HW226579   1.636   0.976   0.465
 4850SOL     OW26580   9.469   6.596   5.668
 4850SOL    HW126581   9.493   6.689   5.695
 4850SOL    HW226582   9.534   6.532   5.710
 4851SOL     OW26583   2.639   6.369   1.141
 4851SOL    HW126584   2.601   6.295   1.086
 4851SOL    HW226585   2.736   6.380   1.119
 4852SOL     OW26586   2.706   7.425   0.812
 4852SOL    HW126587   2.648   7.502   0.787
 4852SOL    HW226588   2.747   7.441   0.901
 4853SOL     OW26589   1.392   6.838   1.338
 4853SOL    HW126590   1.404   6.740   1.324
 4853SOL    HW226591   1.393   6.858   1.436
 4854SOL     OW26592   3.365   8.140   7.067
 4854SOL    HW126593   3.301   8.126   6.991
 4854SOL    HW226594   3.382   8.238   7.079
 4855SOL     OW26595   2.973   6.614   1.583
 4855SOL    HW126596   2.960   6.593   1.486
 4855SOL    HW226597   2.995   6.711   1.594
 4856SOL     OW26598   7.968   4.994   1.009
 4856SOL    HW126599   7.939   4.983   1.104
 4856SOL    HW226600   7.892   4.971   0.949
 4857SOL     OW26601   3.195   1.794   0.875
 4857SOL    HW126602   3.280   1.807   0.926
 4857SOL    HW226603   3.209   1.822   0.780
 4858SOL     OW26604   3.795   0.320   1.238
 4858SOL    HW126605   3.830   0.408   1.204
 4858SOL    HW226606   3.696   0.317   1.226
 4859SOL     OW26607   3.130   7.293   6.971
 4859SOL    HW126608   3.193   7.333   6.905
 4859SOL    HW226609   3.142   7.336   7.060
 4860SOL     OW26610   1.126   3.614   1.146
 4860SOL    HW126611   1.068   3.539   1.116
 4860SOL    HW226612   1.161   3.595   1.238
 4861SOL     OW26613   8.315   2.954   0.934
 4861SOL    HW126614   8.362   3.030   0.890
 4861SOL    HW226615   8.347   2.945   1.028
 4862SOL     OW26616   9.511   1.556   0.431
 4862SOL    HW126617   9.501   1.472   0.485
 4862SOL    HW226618   9.588   1.547   0.369
 4863SOL     OW26619   5.425   0.151   6.139
 4863SOL    HW126620   5.384   0.233   6.180
 4863SOL    HW226621   5.369   0.071   6.162
 4864SOL     OW26622   4.026   3.449   7.060
 4864SOL    HW126623   4.060   3.382   7.126
 4864SOL    HW226624   3.942   3.415   7.018
 4865SOL     OW26625   5.706   5.525   0.861
 4865SOL    HW126626   5.610   5.497   0.862
 4865SOL    HW226627   5.749   5.499   0.948
 4866SOL     OW26628   2.366   4.148   1.247
 4866SOL    HW126629   2.385   4.183   1.155
 4866SOL    HW226630   2.363   4.225   1.311
 4867SOL     OW26631   4.215   0.674   6.720
 4867SOL    HW126632   4.165   0.756   6.746
 4867SOL    HW226633   4.170   0.593   6.759
 4868SOL     OW26634   2.132   6.793   1.030
 4868SOL    HW126635   2.042   6.806   1.072
 4868SOL    HW226636   2.195   6.753   1.096
 4869SOL     OW26637   8.387   6.317   0.459
 4869SOL    HW126638   8.391   6.306   0.558
 4869SOL    HW226639   8.295   6.344   0.431
 4870SOL     OW26640   3.594   3.040   0.513
 4870SOL    HW126641   3.616   3.002   0.603
 4870SOL    HW226642   3.656   3.116   0.493
 4871SOL     OW26643   1.440   6.276   0.548
 4871SOL    HW126644   1.501   6.201   0.573
 4871SOL    HW226645   1.409   6.323   0.630
 4872SOL     OW26646   1.326   7.112   5.760
 4872SOL    HW126647   1.268   7.122   5.841
 4872SOL    HW226648   1.283   7.050   5.696
 4873SOL     OW26649   3.994   5.085   6.206
 4873SOL    HW126650   3.941   5.148   6.149
 4873SOL    HW226651   4.090   5.113   6.206
 4874SOL     OW26652   0.462   6.753   4.616
 4874SOL    HW126653   0.442   6.830   4.556
 4874SOL    HW226654   0.429   6.774   4.708
 4875SOL     OW26655   1.329   3.257   6.119
 4875SOL    HW126656   1.231   3.270   6.134
 4875SOL    HW226657   1.378   3.340   6.146
 4876SOL     OW26658   4.470   1.692   6.676
 4876SOL    HW126659   4.526   1.657   6.751
 4876SOL    HW226660   4.529   1.714   6.599
 4877SOL     OW26661   7.205   5.990   2.289
 4877SOL    HW126662   7.119   5.965   2.246
 4877SOL    HW226663   7.248   6.065   2.238
 4878SOL     OW26664   4.579   6.712   0.815
 4878SOL    HW126665   4.563   6.764   0.898
 4878SOL    HW226666   4.541   6.761   0.737
 4879SOL     OW26667   3.596   3.731   7.133
 4879SOL    HW126668   3.628   3.715   7.226
 4879SOL    HW226669   3.634   3.817   7.099
 4880SOL     OW26670   2.325   8.186   1.139
 4880SOL    HW126671   2.424   8.183   1.125
 4880SOL    HW226672   2.301   8.144   1.226
 4881SOL     OW26673   0.537   7.958   6.822
 4881SOL    HW126674   0.634   7.949   6.843
 4881SOL    HW226675   0.497   7.867   6.809
 4882SOL     OW26676   5.470   4.368   6.902
 4882SOL    HW126677   5.397   4.406   6.844
 4882SOL    HW226678   5.526   4.305   6.847
 4883SOL     OW26679   0.199   0.250   6.732
 4883SOL    HW126680   0.162   0.327   6.783
 4883SOL    HW226681   0.217   0.278   6.638
 4884SOL     OW26682   3.028   2.395   1.873
 4884SOL    HW126683   3.027   2.324   1.943
 4884SOL    HW226684   2.982   2.477   1.908
 4885SOL     OW26685   5.106   4.181   1.899
 4885SOL    HW126686   5.047   4.100   1.904
 4885SOL    HW226687   5.170   4.170   1.823
 4886SOL     OW26688   3.628   5.539   6.316
 4886SOL    HW126689   3.717   5.494   6.324
 4886SOL    HW226690   3.640   5.638   6.323
 4887SOL     OW26691   6.775   4.044   6.698
 4887SOL    HW126692   6.822   4.001   6.776
 4887SOL    HW226693   6.780   3.983   6.619
 4888SOL     OW26694   3.920   7.296   6.402
 4888SOL    HW126695   3.980   7.373   6.423
 4888SOL    HW226696   3.909   7.240   6.484
 4889SOL     OW26697   4.827   8.237   1.291
 4889SOL    HW126698   4.742   8.242   1.343
 4889SOL    HW226699   4.904   8.262   1.350
 4890SOL     OW26700   4.070   0.748   6.271
 4890SOL    HW126701   4.114   0.820   6.217
 4890SOL    HW226702   4.018   0.789   6.346
 4891SOL     OW26703   2.883   4.387   1.221
 4891SOL    HW126704   2.981   4.407   1.220
 4891SOL    HW226705   2.858   4.337   1.138
 4892SOL     OW26706   5.139   3.440   6.552
 4892SOL    HW126707   5.149   3.536   6.578
 4892SOL    HW226708   5.093   3.434   6.463
 4893SOL     OW26709   8.094   0.601   1.070
 4893SOL    HW126710   8.161   0.674   1.063
 4893SOL    HW226711   8.030   0.622   1.144
 4894SOL     OW26712   3.221   2.597   0.837
 4894SOL    HW126713   3.229   2.566   0.742
 4894SOL    HW226714   3.308   2.639   0.865
 4895SOL     OW26715   2.758   2.498   1.184
 4895SOL    HW126716   2.792   2.533   1.096
 4895SOL    HW226717   2.720   2.574   1.237
 4896SOL     OW26718   1.518   4.921   6.889
 4896SOL    HW126719   1.466   5.006   6.883
 4896SOL    HW226720   1.538   4.887   6.797
 4897SOL     OW26721   4.640   5.053   5.867
 4897SOL    HW126722   4.637   4.992   5.947
 4897SOL    HW226723   4.647   4.998   5.784
 4898SOL     OW26724   2.670   4.283   5.921
 4898SOL    HW126725   2.663   4.342   5.841
 4898SOL    HW226726   2.670   4.187   5.893
 4899SOL     OW26727   3.469   6.701   1.660
 4899SOL    HW126728   3.397   6.736   1.600
 4899SOL    HW226729   3.432   6.626   1.715
 4900SOL     OW26730   6.177   1.772   2.140
 4900SOL    HW126731   6.148   1.733   2.053
 4900SOL    HW226732   6.258   1.829   2.126
 4901SOL     OW26733   6.257   6.165   2.402
 4901SOL    HW126734   6.196   6.126   2.471
 4901SOL    HW226735   6.341   6.197   2.447
 4902SOL     OW26736   8.738   2.382   6.515
 4902SOL    HW126737   8.677   2.317   6.561
 4902SOL    HW226738   8.684   2.437   6.451
 4903SOL     OW26739   2.718   2.395   5.649
 4903SOL    HW126740   2.692   2.476   5.596
 4903SOL    HW226741   2.671   2.315   5.612
 4904SOL     OW26742   0.514   0.644   5.796
 4904SOL    HW126743   0.600   0.692   5.782
 4904SOL    HW226744   0.438   0.702   5.765
 4905SOL     OW26745   8.262   0.910   1.287
 4905SOL    HW126746   8.209   0.980   1.336
 4905SOL    HW226747   8.351   0.948   1.262
 4906SOL     OW26748   7.884   2.001   1.876
 4906SOL    HW126749   7.857   2.077   1.816
 4906SOL    HW226750   7.951   1.944   1.828
 4907SOL     OW26751   5.249   2.892   1.207
 4907SOL    HW126752   5.345   2.904   1.234
 4907SOL    HW226753   5.199   2.848   1.281
 4908SOL     OW26754   4.725   5.234   2.229
 4908SOL    HW126755   4.763   5.159   2.174
 4908SOL    HW226756   4.735   5.212   2.326
 4909SOL     OW26757   8.257   6.920   5.899
 4909SOL    HW126758   8.204   6.993   5.942
 4909SOL    HW226759   8.232   6.912   5.803
 4910SOL     OW26760   0.377   1.854   6.946
 4910SOL    HW126761   0.402   1.913   7.023
 4910SOL    HW226762   0.420   1.888   6.863
 4911SOL     OW26763   4.934   0.237   7.013
 4911SOL    HW126764   4.981   0.257   7.098
 4911SOL    HW226765   4.855   0.178   7.031
 4912SOL     OW26766   1.388   1.560   7.003
 4912SOL    HW126767   1.457   1.492   6.978
 4912SOL    HW226768   1.410   1.647   6.960
 4913SOL     OW26769   4.052   1.048   1.820
 4913SOL    HW126770   4.021   0.984   1.751
 4913SOL    HW226771   4.150   1.066   1.808
 4914SOL     OW26772   8.688   2.172   1.771
 4914SOL    HW126773   8.720   2.239   1.703
 4914SOL    HW226774   8.710   2.205   1.863
 4915SOL     OW26775   5.120   6.021   5.566
 4915SOL    HW126776   5.083   6.107   5.601
 4915SOL    HW226777   5.199   6.040   5.508
 4916SOL     OW26778   7.578   5.764   6.755
 4916SOL    HW126779   7.609   5.856   6.776
 4916SOL    HW226780   7.531   5.726   6.835
 4917SOL     OW26781   0.713   7.989   5.605
 4917SOL    HW126782   0.748   7.899   5.578
 4917SOL    HW226783   0.752   8.013   5.694
 4918SOL     OW26784   2.575   6.143   6.960
 4918SOL    HW126785   2.600   6.185   6.873
 4918SOL    HW226786   2.595   6.206   7.035
 4919SOL     OW26787   7.305   7.472   6.826
 4919SOL    HW126788   7.222   7.515   6.790
 4919SOL    HW226789   7.385   7.523   6.795
 4920SOL     OW26790   4.749   3.368   6.491
 4920SOL    HW126791   4.824   3.369   6.425
 4920SOL    HW226792   4.678   3.305   6.460
 4921SOL     OW26793   5.917   6.356   5.875
 4921SOL    HW126794   5.993   6.362   5.810
 4921SOL    HW226795   5.873   6.445   5.883
 4922SOL     OW26796   3.627   6.090   5.320
 4922SOL    HW126797   3.649   5.995   5.345
 4922SOL    HW226798   3.709   6.146   5.328
 4923SOL     OW26799   9.594   6.123   5.422
 4923SOL    HW126800   9.655   6.202   5.418
 4923SOL    HW226801   9.502   6.150   5.393
 4924SOL     OW26802   0.694   4.831   1.293
 4924SOL    HW126803   0.767   4.892   1.324
 4924SOL    HW226804   0.729   4.769   1.223
 4925SOL     OW26805   3.727   4.445   1.462
 4925SOL    HW126806   3.638   4.416   1.427
 4925SOL    HW226807   3.785   4.365   1.476
 4926SOL     OW26808   5.281   2.277   1.264
 4926SOL    HW126809   5.269   2.362   1.213
 4926SOL    HW226810   5.208   2.268   1.332
 4927SOL     OW26811   1.403   0.498   1.338
 4927SOL    HW126812   1.427   0.417   1.285
 4927SOL    HW226813   1.327   0.477   1.399
 4928SOL     OW26814   1.763   5.586   5.210
 4928SOL    HW126815   1.711   5.640   5.145
 4928SOL    HW226816   1.708   5.508   5.241
 4929SOL     OW26817   0.579   6.862   6.904
 4929SOL    HW126818   0.530   6.807   6.971
 4929SOL    HW226819   0.520   6.937   6.873
 4930SOL     OW26820   5.314  -0.043   6.581
 4930SOL    HW126821   5.304  -0.128   6.530
 4930SOL    HW226822   5.228   0.007   6.581
 4931SOL     OW26823   2.446   0.475   0.908
 4931SOL    HW126824   2.440   0.485   1.008
 4931SOL    HW226825   2.436   0.378   0.884
 4932SOL     OW26826   4.233   3.002   0.828
 4932SOL    HW126827   4.286   3.053   0.761
 4932SOL    HW226828   4.295   2.949   0.886
 4933SOL     OW26829   1.467   0.592   5.131
 4933SOL    HW126830   1.419   0.506   5.148
 4933SOL    HW226831   1.418   0.643   5.060
 4934SOL     OW26832   6.574   4.283   0.618
 4934SOL    HW126833   6.549   4.229   0.538
 4934SOL    HW226834   6.553   4.231   0.701
 4935SOL     OW26835   3.806   2.511   5.627
 4935SOL    HW126836   3.842   2.604   5.615
 4935SOL    HW226837   3.807   2.464   5.539
 4936SOL     OW26838   5.414   6.119   6.756
 4936SOL    HW126839   5.512   6.118   6.776
 4936SOL    HW226840   5.365   6.066   6.825
 4937SOL     OW26841   6.960   2.280   0.633
 4937SOL    HW126842   6.883   2.307   0.692
 4937SOL    HW226843   7.046   2.296   0.681
 4938SOL     OW26844   3.519   0.569   5.977
 4938SOL    HW126845   3.498   0.657   6.019
 4938SOL    HW226846   3.586   0.521   6.033
 4939SOL     OW26847   3.459   7.686   6.995
 4939SOL    HW126848   3.393   7.699   7.069
 4939SOL    HW226849   3.505   7.598   7.008
 4940SOL     OW26850   3.901   1.079   6.262
 4940SOL    HW126851   3.938   1.025   6.338
 4940SOL    HW226852   3.801   1.067   6.258
 4941SOL     OW26853   1.262   2.447   1.652
 4941SOL    HW126854   1.196   2.509   1.611
 4941SOL    HW226855   1.236   2.428   1.747
 4942SOL     OW26856   1.519   2.385   6.678
 4942SOL    HW126857   1.500   2.471   6.726
 4942SOL    HW226858   1.451   2.317   6.705
 4943SOL     OW26859   2.841   2.915   6.691
 4943SOL    HW126860   2.832   3.010   6.720
 4943SOL    HW226861   2.757   2.865   6.715
 4944SOL     OW26862   8.591   0.389   0.519
 4944SOL    HW126863   8.505   0.339   0.535
 4944SOL    HW226864   8.612   0.387   0.421
 4945SOL     OW26865   6.462   5.149   5.982
 4945SOL    HW126866   6.407   5.082   5.932
 4945SOL    HW226867   6.510   5.208   5.918
 4946SOL     OW26868   5.816   0.050   6.710
 4946SOL    HW126869   5.758   0.095   6.779
 4946SOL    HW226870   5.908   0.039   6.747
 4947SOL     OW26871   2.173   3.906   6.318
 4947SOL    HW126872   2.241   3.877   6.251
 4947SOL    HW226873   2.127   3.825   6.355
 4948SOL     OW26874   1.517   7.167   5.946
 4948SOL    HW126875   1.510   7.261   5.980
 4948SOL    HW226876   1.471   7.160   5.857
 4949SOL     OW26877   2.525   0.847   6.158
 4949SOL    HW126878   2.517   0.913   6.083
 4949SOL    HW226879   2.596   0.878   6.221
 4950SOL     OW26880   5.754   1.141   1.809
 4950SOL    HW126881   5.696   1.213   1.847
 4950SOL    HW226882   5.703   1.055   1.809
 4951SOL     OW26883   6.021   5.019   2.137
 4951SOL    HW126884   6.067   5.106   2.121
 4951SOL    HW226885   6.016   5.002   2.236
 4952SOL     OW26886   8.195   8.191   5.946
 4952SOL    HW126887   8.294   8.204   5.947
 4952SOL    HW226888   8.156   8.235   5.865
 4953SOL     OW26889   6.999   2.386   1.565
 4953SOL    HW126890   7.027   2.364   1.472
 4953SOL    HW226891   6.914   2.338   1.587
 4954SOL     OW26892   6.764   7.773   0.853
 4954SOL    HW126893   6.674   7.816   0.863
 4954SOL    HW226894   6.832   7.843   0.836
 4955SOL     OW26895   2.450   2.471   6.538
 4955SOL    HW126896   2.396   2.410   6.595
 4955SOL    HW226897   2.537   2.492   6.585
 4956SOL     OW26898   8.781   6.694   5.009
 4956SOL    HW126899   8.835   6.725   4.930
 4956SOL    HW226900   8.751   6.600   4.995
 4957SOL     OW26901   8.472   7.600   6.580
 4957SOL    HW126902   8.474   7.524   6.515
 4957SOL    HW226903   8.423   7.572   6.663
 4958SOL     OW26904   7.006   1.176   6.320
 4958SOL    HW126905   7.087   1.203   6.267
 4958SOL    HW226906   6.939   1.134   6.258
 4959SOL     OW26907   7.010   4.259   5.699
 4959SOL    HW126908   7.016   4.276   5.600
 4959SOL    HW226909   6.987   4.164   5.715
 4960SOL     OW26910   9.395   4.078   6.690
 4960SOL    HW126911   9.319   4.132   6.727
 4960SOL    HW226912   9.381   4.063   6.592
 4961SOL     OW26913   7.897   5.427   7.132
 4961SOL    HW126914   7.907   5.477   7.046
 4961SOL    HW226915   7.987   5.412   7.172
 4962SOL     OW26916   2.455   4.890   5.388
 4962SOL    HW126917   2.549   4.870   5.359
 4962SOL    HW226918   2.392   4.831   5.337
 4963SOL     OW26919   9.333   6.229   5.343
 4963SOL    HW126920   9.381   6.255   5.259
 4963SOL    HW226921   9.237   6.209   5.322
 4964SOL     OW26922   1.004   4.845   5.536
 4964SOL    HW126923   1.089   4.800   5.561
 4964SOL    HW226924   0.970   4.807   5.450
 4965SOL     OW26925   4.605   0.140   2.367
 4965SOL    HW126926   4.555   0.220   2.335
 4965SOL    HW226927   4.677   0.169   2.430
 4966SOL     OW26928   5.059   6.425   5.715
 4966SOL    HW126929   5.143   6.377   5.740
 4966SOL    HW226930   5.001   6.364   5.660
 4967SOL     OW26931   0.668   4.551   1.632
 4967SOL    HW126932   0.699   4.486   1.702
 4967SOL    HW226933   0.701   4.642   1.655
 4968SOL     OW26934   3.998   7.395   5.550
 4968SOL    HW126935   4.006   7.432   5.458
 4968SOL    HW226936   4.015   7.297   5.548
 4969SOL     OW26937   2.225   4.592   6.468
 4969SOL    HW126938   2.184   4.592   6.559
 4969SOL    HW226939   2.254   4.685   6.444
 4970SOL     OW26940   7.864   1.795   6.446
 4970SOL    HW126941   7.871   1.866   6.516
 4970SOL    HW226942   7.862   1.705   6.491
 4971SOL     OW26943   6.718   7.250   0.525
 4971SOL    HW126944   6.759   7.159   0.519
 4971SOL    HW226945   6.657   7.264   0.447
 4972SOL     OW26946   6.090   1.778   6.998
 4972SOL    HW126947   6.171   1.818   7.042
 4972SOL    HW226948   6.085   1.809   6.903
 4973SOL     OW26949   5.741   5.922   1.314
 4973SOL    HW126950   5.709   6.014   1.293
 4973SOL    HW226951   5.833   5.926   1.353
 4974SOL     OW26952   3.262   4.243   0.608
 4974SOL    HW126953   3.325   4.318   0.589
 4974SOL    HW226954   3.181   4.252   0.550
 4975SOL     OW26955   7.093   2.039   6.623
 4975SOL    HW126956   7.090   1.975   6.700
 4975SOL    HW226957   7.117   1.990   6.539
 4976SOL     OW26958   1.001   3.147   6.762
 4976SOL    HW126959   1.014   3.049   6.775
 4976SOL    HW226960   0.930   3.180   6.826
 4977SOL     OW26961   5.801   7.107   5.740
 4977SOL    HW126962   5.798   7.186   5.678
 4977SOL    HW226963   5.897   7.084   5.758
 4978SOL     OW26964   1.567   4.784   0.682
 4978SOL    HW126965   1.547   4.770   0.585
 4978SOL    HW226966   1.649   4.840   0.691
 4979SOL     OW26967   4.240   1.751   5.944
 4979SOL    HW126968   4.309   1.689   5.906
 4979SOL    HW226969   4.167   1.764   5.877
 4980SOL     OW26970   4.254   7.134   7.131
 4980SOL    HW126971   4.340   7.086   7.114
 4980SOL    HW226972   4.219   7.171   7.045
 4981SOL     OW26973   2.404   0.143   2.259
 4981SOL    HW126974   2.372   0.198   2.336
 4981SOL    HW226975   2.436   0.055   2.292
 4982SOL     OW26976   0.284   5.878   0.550
 4982SOL    HW126977   0.239   5.794   0.520
 4982SOL    HW226978   0.380   5.860   0.569
 4983SOL     OW26979   1.319   7.319   1.383
 4983SOL    HW126980   1.285   7.279   1.468
 4983SOL    HW226981   1.243   7.329   1.318
 4984SOL     OW26982   6.208   5.241   0.938
 4984SOL    HW126983   6.243   5.251   0.844
 4984SOL    HW226984   6.187   5.331   0.975
 4985SOL     OW26985   7.646   6.928   1.003
 4985SOL    HW126986   7.615   6.963   1.091
 4985SOL    HW226987   7.739   6.893   1.012
 4986SOL     OW26988   7.518   8.253   1.308
 4986SOL    HW126989   7.470   8.280   1.392
 4986SOL    HW226990   7.479   8.302   1.230
 4987SOL     OW26991   1.182   1.747   2.201
 4987SOL    HW126992   1.163   1.782   2.109
 4987SOL    HW226993   1.240   1.812   2.250
 4988SOL     OW26994   5.684   3.768   0.690
 4988SOL    HW126995   5.771   3.721   0.702
 4988SOL    HW226996   5.616   3.704   0.654
 4989SOL     OW26997   1.159   1.914   6.376
 4989SOL    HW126998   1.183   2.003   6.415
 4989SOL    HW226999   1.198   1.906   6.284
 4990SOL     OW27000   7.530   0.293   6.806
 4990SOL    HW127001   7.431   0.291   6.790
 4990SOL    HW227002   7.562   0.201   6.830
 4991SOL     OW27003   6.106   1.200   5.971
 4991SOL    HW127004   6.041   1.141   5.922
 4991SOL    HW227005   6.195   1.154   5.977
 4992SOL     OW27006   3.324   0.469   0.723
 4992SOL    HW127007   3.256   0.399   0.744
 4992SOL    HW227008   3.372   0.444   0.639
 4993SOL     OW27009   6.046   2.992   5.955
 4993SOL    HW127010   5.999   2.904   5.946
 4993SOL    HW227011   6.007   3.057   5.889
 4994SOL     OW27012   8.140   2.565   6.695
 4994SOL    HW127013   8.202   2.575   6.618
 4994SOL    HW227014   8.179   2.611   6.775
 4995SOL     OW27015   6.839   5.538   0.724
 4995SOL    HW127016   6.813   5.458   0.779
 4995SOL    HW227017   6.872   5.508   0.635
 4996SOL     OW27018   1.148   6.333   5.727
 4996SOL    HW127019   1.243   6.360   5.739
 4996SOL    HW227020   1.135   6.241   5.764
 4997SOL     OW27021   1.146   7.396   1.188
 4997SOL    HW127022   1.056   7.353   1.187
 4997SOL    HW227023   1.173   7.419   1.094
 4998SOL     OW27024   5.909   1.718   2.462
 4998SOL    HW127025   5.969   1.643   2.487
 4998SOL    HW227026   5.814   1.687   2.463
 4999SOL     OW27027   0.964   5.128   1.409
 4999SOL    HW127028   1.031   5.119   1.483
 4999SOL    HW227029   1.006   5.099   1.323
 5000SOL     OW27030   8.992   1.530   1.466
 5000SOL    HW127031   8.965   1.626   1.473
 5000SOL    HW227032   8.916   1.471   1.494
 5001SOL     OW27033   3.037   2.794   6.873
 5001SOL    HW127034   2.965   2.830   6.813
 5001SOL    HW227035   3.096   2.732   6.821
 5002SOL     OW27036   9.531   7.725   6.830
 5002SOL    HW127037   9.486   7.755   6.914
 5002SOL    HW227038   9.540   7.803   6.767
 5003SOL     OW27039   5.567   7.837   6.243
 5003SOL    HW127040   5.493   7.874   6.187
 5003SOL    HW227041   5.637   7.908   6.256
 5004SOL     OW27042   3.448   8.230   1.400
 5004SOL    HW127043   3.356   8.236   1.439
 5004SOL    HW227044   3.479   8.321   1.372
 5005SOL     OW27045   0.949   1.348   6.910
 5005SOL    HW127046   0.925   1.439   6.874
 5005SOL    HW227047   1.047   1.332   6.897
 5006SOL     OW27048   1.285   2.408   0.930
 5006SOL    HW127049   1.283   2.507   0.946
 5006SOL    HW227050   1.375   2.372   0.955
 5007SOL     OW27051   3.354   2.125   1.348
 5007SOL    HW127052   3.345   2.194   1.277
 5007SOL    HW227053   3.372   2.169   1.436
 5008SOL     OW27054   2.895   7.445   1.369
 5008SOL    HW127055   2.960   7.403   1.433
 5008SOL    HW227056   2.834   7.506   1.419
 5009SOL     OW27057   1.103   6.014   0.685
 5009SOL    HW127058   1.036   6.056   0.746
 5009SOL    HW227059   1.076   6.027   0.590
 5010SOL     OW27060   1.803   6.396   1.207
 5010SOL    HW127061   1.792   6.445   1.121
 5010SOL    HW227062   1.713   6.376   1.246
 5011SOL     OW27063   1.552   8.325   0.574
 5011SOL    HW127064   1.478   8.324   0.507
 5011SOL    HW227065   1.534   8.256   0.645
 5012SOL     OW27066   2.932   5.473   5.984
 5012SOL    HW127067   2.929   5.448   5.888
 5012SOL    HW227068   2.993   5.410   6.033
 5013SOL     OW27069   8.173   6.509   0.797
 5013SOL    HW127070   8.160   6.432   0.860
 5013SOL    HW227071   8.119   6.493   0.714
 5014SOL     OW27072   1.169   7.911   1.585
 5014SOL    HW127073   1.152   7.932   1.681
 5014SOL    HW227074   1.232   7.833   1.579
 5015SOL     OW27075   4.014   6.319   1.526
 5015SOL    HW127076   3.957   6.249   1.570
 5015SOL    HW227077   4.106   6.282   1.510
 5016SOL     OW27078   6.110   7.671   5.969
 5016SOL    HW127079   6.034   7.609   5.989
 5016SOL    HW227080   6.121   7.679   5.870
 5017SOL     OW27081   0.539   0.594   6.965
 5017SOL    HW127082   0.631   0.633   6.970
 5017SOL    HW227083   0.508   0.570   7.057
 5018SOL     OW27084   5.008   8.118   5.383
 5018SOL    HW127085   4.954   8.202   5.397
 5018SOL    HW227086   4.950   8.038   5.397
 5019SOL     OW27087   5.373   7.182   6.891
 5019SOL    HW127088   5.384   7.092   6.932
 5019SOL    HW227089   5.279   7.193   6.860
 5020SOL     OW27090   5.067   5.468   5.921
 5020SOL    HW127091   5.062   5.399   5.848
 5020SOL    HW227092   5.106   5.552   5.885
 5021SOL     OW27093   7.782   4.853   0.571
 5021SOL    HW127094   7.858   4.793   0.596
 5021SOL    HW227095   7.802   4.899   0.485
 5022SOL     OW27096   4.322   0.362   6.710
 5022SOL    HW127097   4.256   0.292   6.682
 5022SOL    HW227098   4.373   0.394   6.630
 5023SOL     OW27099   2.744   1.014   0.493
 5023SOL    HW127100   2.728   1.063   0.579
 5023SOL    HW227101   2.656   0.983   0.456
 5024SOL     OW27102   0.980   6.403   1.321
 5024SOL    HW127103   0.908   6.432   1.257
 5024SOL    HW227104   0.997   6.475   1.388
 5025SOL     OW27105   0.591   7.430   4.858
 5025SOL    HW127106   0.639   7.518   4.860
 5025SOL    HW227107   0.518   7.434   4.790
 5026SOL     OW27108   6.347   6.943   1.285
 5026SOL    HW127109   6.299   6.857   1.268
 5026SOL    HW227110   6.317   7.011   1.218
 5027SOL     OW27111   5.298   7.423   1.689
 5027SOL    HW127112   5.365   7.424   1.763
 5027SOL    HW227113   5.247   7.337   1.691
 5028SOL     OW27114   1.226   1.689   0.606
 5028SOL    HW127115   1.146   1.660   0.659
 5028SOL    HW227116   1.269   1.768   0.651
 5029SOL     OW27117   5.520   6.587   2.511
 5029SOL    HW127118   5.453   6.655   2.541
 5029SOL    HW227119   5.611   6.615   2.541
 5030SOL     OW27120   6.996   4.160   1.432
 5030SOL    HW127121   6.931   4.174   1.506
 5030SOL    HW227122   7.022   4.248   1.392
 5031SOL     OW27123   5.458   1.330   7.107
 5031SOL    HW127124   5.459   1.275   7.190
 5031SOL    HW227125   5.422   1.421   7.128
 5032SOL     OW27126   5.325   0.191   1.785
 5032SOL    HW127127   5.320   0.282   1.826
 5032SOL    HW227128   5.316   0.122   1.856
 5033SOL     OW27129   1.228   1.776   0.985
 5033SOL    HW127130   1.254   1.771   0.889
 5033SOL    HW227131   1.297   1.730   1.041
 5034SOL     OW27132   3.599   8.324   6.330
 5034SOL    HW127133   3.532   8.363   6.394
 5034SOL    HW227134   3.689   8.323   6.374
 5035SOL     OW27135   9.528   5.782   7.125
 5035SOL    HW127136   9.551   5.880   7.120
 5035SOL    HW227137   9.512   5.757   7.221
 5036SOL     OW27138   7.278   6.625   2.211
 5036SOL    HW127139   7.339   6.563   2.261
 5036SOL    HW227140   7.224   6.678   2.276
 5037SOL     OW27141   4.918   7.631   0.865
 5037SOL    HW127142   4.991   7.610   0.930
 5037SOL    HW227143   4.934   7.721   0.824
 5038SOL     OW27144   2.756   4.667   0.682
 5038SOL    HW127145   2.828   4.599   0.671
 5038SOL    HW227146   2.747   4.720   0.597
 5039SOL     OW27147   3.094   5.304   6.107
 5039SOL    HW127148   3.134   5.212   6.098
 5039SOL    HW227149   3.134   5.350   6.186
 5040SOL     OW27150   2.720   2.756   6.415
 5040SOL    HW127151   2.726   2.676   6.354
 5040SOL    HW227152   2.695   2.726   6.507
 5041SOL     OW27153   2.007   4.797   0.876
 5041SOL    HW127154   2.035   4.764   0.786
 5041SOL    HW227155   1.966   4.888   0.867
 5042SOL     OW27156   9.089   6.777   1.110
 5042SOL    HW127157   9.014   6.832   1.146
 5042SOL    HW227158   9.176   6.818   1.138
 5043SOL     OW27159   5.404   3.950   0.868
 5043SOL    HW127160   5.384   3.916   0.776
 5043SOL    HW227161   5.318   3.970   0.916
 5044SOL     OW27162   5.293   2.475   6.890
 5044SOL    HW127163   5.384   2.456   6.925
 5044SOL    HW227164   5.228   2.407   6.925
 5045SOL     OW27165   2.611   4.687   1.549
 5045SOL    HW127166   2.562   4.661   1.466
 5045SOL    HW227167   2.579   4.776   1.581
 5046SOL     OW27168   2.159   5.061   6.610
 5046SOL    HW127169   2.118   5.152   6.611
 5046SOL    HW227170   2.117   5.006   6.538
 5047SOL     OW27171   3.076   6.968   1.526
 5047SOL    HW127172   3.148   7.036   1.540
 5047SOL    HW227173   3.038   6.942   1.615
 5048SOL     OW27174   4.475   1.223   0.881
 5048SOL    HW127175   4.543   1.253   0.814
 5048SOL    HW227176   4.396   1.285   0.879
 5049SOL     OW27177   9.582   5.483   5.152
 5049SOL    HW127178   9.650   5.517   5.216
 5049SOL    HW227179   9.620   5.481   5.059
 5050SOL     OW27180   5.402   6.922   7.053
 5050SOL    HW127181   5.384   6.844   6.993
 5050SOL    HW227182   5.500   6.927   7.073
 5051SOL     OW27183   6.197   8.080   7.026
 5051SOL    HW127184   6.156   7.990   7.041
 5051SOL    HW227185   6.274   8.092   7.088
 5052SOL     OW27186   9.543   2.177   5.712
 5052SOL    HW127187   9.484   2.166   5.632
 5052SOL    HW227188   9.624   2.118   5.703
 5053SOL     OW27189   3.780   4.136   0.632
 5053SOL    HW127190   3.691   4.092   0.645
 5053SOL    HW227191   3.775   4.198   0.554
 5054SOL     OW27192   2.417   5.611   5.372
 5054SOL    HW127193   2.510   5.602   5.335
 5054SOL    HW227194   2.401   5.707   5.397
 5055SOL     OW27195   2.621   6.237   6.476
 5055SOL    HW127196   2.603   6.277   6.386
 5055SOL    HW227197   2.575   6.149   6.483
 5056SOL     OW27198   2.907   7.211   2.054
 5056SOL    HW127199   2.916   7.267   1.972
 5056SOL    HW227200   2.872   7.268   2.129
 5057SOL     OW27201   3.233   2.286   6.068
 5057SOL    HW127202   3.229   2.196   6.025
 5057SOL    HW227203   3.226   2.357   5.997
 5058SOL     OW27204   4.849   0.296   1.285
 5058SOL    HW127205   4.920   0.352   1.242
 5058SOL    HW227206   4.765   0.302   1.231
 5059SOL     OW27207   9.409   0.802   1.216
 5059SOL    HW127208   9.390   0.796   1.314
 5059SOL    HW227209   9.400   0.711   1.175
 5060SOL     OW27210   4.253   4.575   6.814
 5060SOL    HW127211   4.216   4.638   6.745
 5060SOL    HW227212   4.180   4.549   6.878
 5061SOL     OW27213   3.206   2.902   1.811
 5061SOL    HW127214   3.152   2.883   1.893
 5061SOL    HW227215   3.303   2.887   1.831
 5062SOL     OW27216   7.191   4.636   0.902
 5062SOL    HW127217   7.098   4.664   0.879
 5062SOL    HW227218   7.255   4.676   0.836
 5063SOL     OW27219   7.427   6.474   5.439
 5063SOL    HW127220   7.494   6.507   5.374
 5063SOL    HW227221   7.345   6.444   5.390
 5064SOL     OW27222   2.188   6.109   0.855
 5064SOL    HW127223   2.201   6.072   0.762
 5064SOL    HW227224   2.258   6.178   0.873
 5065SOL     OW27225   6.942   5.196   5.562
 5065SOL    HW127226   6.940   5.278   5.618
 5065SOL    HW227227   7.014   5.205   5.492
 5066SOL     OW27228   4.266   7.579   7.038
 5066SOL    HW127229   4.190   7.514   7.048
 5066SOL    HW227230   4.261   7.648   7.110
 5067SOL     OW27231   1.897   8.391   1.706
 5067SOL    HW127232   1.984   8.342   1.705
 5067SOL    HW227233   1.822   8.324   1.698
 5068SOL     OW27234   0.815   3.232   6.147
 5068SOL    HW127235   0.884   3.227   6.220
 5068SOL    HW227236   0.812   3.144   6.099
 5069SOL     OW27237   0.686   7.312   4.329
 5069SOL    HW127238   0.782   7.314   4.357
 5069SOL    HW227239   0.635   7.382   4.379
 5070SOL     OW27240   5.510   1.828   2.026
 5070SOL    HW127241   5.459   1.912   2.005
 5070SOL    HW227242   5.446   1.751   2.028
 5071SOL     OW27243   3.688   2.431   6.413
 5071SOL    HW127244   3.623   2.411   6.486
 5071SOL    HW227245   3.663   2.379   6.331
 5072SOL     OW27246   2.771   4.341   0.652
 5072SOL    HW127247   2.703   4.291   0.707
 5072SOL    HW227248   2.729   4.367   0.565
 5073SOL     OW27249   5.971   4.847   0.989
 5073SOL    HW127250   6.009   4.932   1.025
 5073SOL    HW227251   5.991   4.772   1.051
 5074SOL     OW27252   6.094   8.377   1.117
 5074SOL    HW127253   6.006   8.422   1.101
 5074SOL    HW227254   6.079   8.282   1.142
 5075SOL     OW27255   5.413   1.477   1.337
 5075SOL    HW127256   5.424   1.378   1.341
 5075SOL    HW227257   5.460   1.513   1.257
 5076SOL     OW27258   1.181   2.431   6.850
 5076SOL    HW127259   1.193   2.441   6.949
 5076SOL    HW227260   1.244   2.361   6.816
 5077SOL     OW27261   1.802   4.581   6.327
 5077SOL    HW127262   1.729   4.600   6.392
 5077SOL    HW227263   1.778   4.619   6.237
 5078SOL     OW27264   1.278   2.796   0.455
 5078SOL    HW127265   1.312   2.854   0.381
 5078SOL    HW227266   1.352   2.739   0.489
 5079SOL     OW27267   3.150   7.785   5.738
 5079SOL    HW127268   3.241   7.827   5.737
 5079SOL    HW227269   3.110   7.792   5.647
 5080SOL     OW27270   3.015   7.078   0.908
 5080SOL    HW127271   3.040   7.012   0.838
 5080SOL    HW227272   2.924   7.057   0.944
 5081SOL     OW27273   0.360   2.354   5.943
 5081SOL    HW127274   0.311   2.279   5.987
 5081SOL    HW227275   0.455   2.329   5.930
 5082SOL     OW27276   7.834   1.552   0.584
 5082SOL    HW127277   7.747   1.601   0.573
 5082SOL    HW227278   7.906   1.616   0.609
 5083SOL     OW27279   3.234   4.140   6.581
 5083SOL    HW127280   3.171   4.071   6.615
 5083SOL    HW227281   3.257   4.204   6.654
 5084SOL     OW27282   5.287   3.204   1.857
 5084SOL    HW127283   5.260   3.242   1.945
 5084SOL    HW227284   5.373   3.155   1.867
 5085SOL     OW27285   1.938   2.149   6.786
 5085SOL    HW127286   1.893   2.217   6.729
 5085SOL    HW227287   1.941   2.180   6.881
 5086SOL     OW27288   4.012   6.710   1.815
 5086SOL    HW127289   4.016   6.634   1.880
 5086SOL    HW227290   4.024   6.674   1.722
 5087SOL     OW27291   1.250   5.313   0.850
 5087SOL    HW127292   1.276   5.244   0.918
 5087SOL    HW227293   1.200   5.387   0.894
 5088SOL     OW27294   7.635   0.822   0.920
 5088SOL    HW127295   7.701   0.756   0.957
 5088SOL    HW227296   7.656   0.913   0.955
 5089SOL     OW27297   5.363   2.343   2.349
 5089SOL    HW127298   5.457   2.334   2.383
 5089SOL    HW227299   5.300   2.351   2.426
 5090SOL     OW27300   2.578   2.890   6.020
 5090SOL    HW127301   2.569   2.854   5.927
 5090SOL    HW227302   2.666   2.937   6.029
 5091SOL     OW27303   5.249   8.125   6.930
 5091SOL    HW127304   5.342   8.112   6.896
 5091SOL    HW227305   5.223   8.221   6.919
 5092SOL     OW27306   5.302   4.891   5.978
 5092SOL    HW127307   5.344   4.979   6.001
 5092SOL    HW227308   5.209   4.905   5.944
 5093SOL     OW27309   8.313   1.034   7.076
 5093SOL    HW127310   8.373   0.973   7.024
 5093SOL    HW227311   8.345   1.037   7.171
 5094SOL     OW27312   8.386   3.688   0.562
 5094SOL    HW127313   8.345   3.655   0.647
 5094SOL    HW227314   8.406   3.610   0.502
 5095SOL     OW27315   3.429   0.369   0.956
 5095SOL    HW127316   3.416   0.271   0.944
 5095SOL    HW227317   3.385   0.418   0.881
 5096SOL     OW27318   3.354   7.713   6.748
 5096SOL    HW127319   3.389   7.690   6.839
 5096SOL    HW227320   3.303   7.635   6.712
 5097SOL     OW27321   6.576   7.208   5.703
 5097SOL    HW127322   6.480   7.188   5.725
 5097SOL    HW227323   6.607   7.146   5.631
 5098SOL     OW27324   3.694   5.259   1.761
 5098SOL    HW127325   3.729   5.352   1.748
 5098SOL    HW227326   3.671   5.245   1.857
 5099SOL     OW27327   9.080   2.109   5.494
 5099SOL    HW127328   8.985   2.124   5.469
 5099SOL    HW227329   9.098   2.149   5.584
 5100SOL     OW27330   6.457   8.176   6.752
 5100SOL    HW127331   6.384   8.232   6.792
 5100SOL    HW227332   6.545   8.207   6.787
 5101SOL     OW27333   2.342   0.641   6.195
 5101SOL    HW127334   2.335   0.592   6.108
 5101SOL    HW227335   2.422   0.701   6.193
 5102SOL     OW27336   2.557   2.628   5.468
 5102SOL    HW127337   2.656   2.640   5.471
 5102SOL    HW227338   2.519   2.680   5.391
 5103SOL     OW27339   2.021   0.011   6.676
 5103SOL    HW127340   2.055   0.074   6.745
 5103SOL    HW227341   2.089   0.002   6.603
 5104SOL     OW27342   5.479   8.243   2.540
 5104SOL    HW127343   5.578   8.248   2.551
 5104SOL    HW227344   5.438   8.331   2.563
 5105SOL     OW27345   9.121   2.862   0.920
 5105SOL    HW127346   9.087   2.956   0.917
 5105SOL    HW227347   9.064   2.805   0.860
 5106SOL     OW27348   3.512   6.792   6.215
 5106SOL    HW127349   3.494   6.695   6.199
 5106SOL    HW227350   3.432   6.846   6.189
 5107SOL     OW27351   5.351   2.034   1.173
 5107SOL    HW127352   5.331   2.120   1.220
 5107SOL    HW227353   5.357   1.960   1.241
 5108SOL     OW27354   6.724   1.799   2.026
 5108SOL    HW127355   6.710   1.801   2.124
 5108SOL    HW227356   6.647   1.753   1.982
 5109SOL     OW27357   6.453   3.423   6.856
 5109SOL    HW127358   6.482   3.518   6.848
 5109SOL    HW227359   6.533   3.364   6.867
 5110SOL     OW27360   6.940   7.140   2.144
 5110SOL    HW127361   6.900   7.050   2.129
 5110SOL    HW227362   7.016   7.133   2.210
 5111SOL     OW27363   1.356   7.919   6.688
 5111SOL    HW127364   1.389   7.933   6.595
 5111SOL    HW227365   1.411   7.848   6.732
 5112SOL     OW27366   6.115   7.546   7.077
 5112SOL    HW127367   6.088   7.491   7.156
 5112SOL    HW227368   6.098   7.493   6.993
 5113SOL     OW27369   5.313   0.926   6.857
 5113SOL    HW127370   5.411   0.946   6.862
 5113SOL    HW227371   5.277   0.915   6.950
 5114SOL     OW27372   6.428   3.849   1.487
 5114SOL    HW127373   6.470   3.929   1.446
 5114SOL    HW227374   6.347   3.823   1.435
 5115SOL     OW27375   4.392   3.145   1.168
 5115SOL    HW127376   4.365   3.180   1.258
 5115SOL    HW227377   4.325   3.174   1.100
 5116SOL     OW27378   3.298   2.513   6.243
 5116SOL    HW127379   3.246   2.430   6.222
 5116SOL    HW227380   3.284   2.580   6.170
 5117SOL     OW27381   1.412   3.170   6.916
 5117SOL    HW127382   1.439   3.108   6.842
 5117SOL    HW227383   1.332   3.134   6.963
 5118SOL     OW27384   1.788   4.566   0.588
 5118SOL    HW127385   1.833   4.636   0.531
 5118SOL    HW227386   1.729   4.611   0.655
 5119SOL     OW27387   0.491   5.776   1.221
 5119SOL    HW127388   0.525   5.788   1.128
 5119SOL    HW227389   0.567   5.751   1.281
 5120SOL     OW27390   8.288   1.090   0.916
 5120SOL    HW127391   8.200   1.124   0.882
 5120SOL    HW227392   8.335   1.163   0.965
 5121SOL     OW27393   4.556   1.550   0.679
 5121SOL    HW127394   4.485   1.619   0.688
 5121SOL    HW227395   4.643   1.595   0.655
 5122SOL     OW27396   8.579   3.238   6.166
 5122SOL    HW127397   8.513   3.170   6.133
 5122SOL    HW227398   8.610   3.213   6.257
 5123SOL     OW27399   2.385   4.986   0.685
 5123SOL    HW127400   2.318   4.990   0.611
 5123SOL    HW227401   2.357   4.916   0.751
 5124SOL     OW27402   0.687   0.821   5.535
 5124SOL    HW127403   0.676   0.903   5.480
 5124SOL    HW227404   0.628   0.748   5.498
 5125SOL     OW27405   1.859   2.614   5.621
 5125SOL    HW127406   1.861   2.530   5.568
 5125SOL    HW227407   1.914   2.684   5.575
 5126SOL     OW27408   9.174   7.097   6.609
 5126SOL    HW127409   9.195   7.063   6.517
 5126SOL    HW227410   9.083   7.138   6.609
 5127SOL     OW27411   6.887   4.221   0.609
 5127SOL    HW127412   6.868   4.125   0.631
 5127SOL    HW227413   6.806   4.262   0.566
 5128SOL     OW27414   7.456   5.796   6.490
 5128SOL    HW127415   7.381   5.857   6.516
 5128SOL    HW227416   7.501   5.761   6.572
 5129SOL     OW27417   0.759   2.499   7.024
 5129SOL    HW127418   0.669   2.520   6.987
 5129SOL    HW227419   0.768   2.538   7.116
 5130SOL     OW27420   8.355   7.976   7.023
 5130SOL    HW127421   8.296   8.022   6.956
 5130SOL    HW227422   8.438   7.943   6.977
 5131SOL     OW27423   8.279   3.521   6.396
 5131SOL    HW127424   8.286   3.453   6.324
 5131SOL    HW227425   8.236   3.604   6.360
 5132SOL     OW27426   2.294   3.869   1.230
 5132SOL    HW127427   2.261   3.963   1.241
 5132SOL    HW227428   2.294   3.845   1.133
 5133SOL     OW27429   0.757   2.290   1.422
 5133SOL    HW127430   0.729   2.207   1.471
 5133SOL    HW227431   0.691   2.363   1.440
 5134SOL     OW27432   3.627   2.968   0.783
 5134SOL    HW127433   3.717   2.933   0.808
 5134SOL    HW227434   3.599   3.037   0.850
 5135SOL     OW27435   8.491   6.308   0.986
 5135SOL    HW127436   8.490   6.408   0.987
 5135SOL    HW227437   8.584   6.276   1.005
 5136SOL     OW27438   2.516   5.913   1.266
 5136SOL    HW127439   2.532   5.822   1.228
 5136SOL    HW227440   2.550   5.917   1.360
 5137SOL     OW27441   6.338   4.236   5.972
 5137SOL    HW127442   6.376   4.297   6.042
 5137SOL    HW227443   6.349   4.141   6.001
 5138SOL     OW27444   6.357   2.010   6.378
 5138SOL    HW127445   6.389   1.917   6.399
 5138SOL    HW227446   6.432   2.061   6.336
 5139SOL     OW27447   6.608   3.690   0.657
 5139SOL    HW127448   6.560   3.661   0.740
 5139SOL    HW227449   6.570   3.777   0.625
 5140SOL     OW27450   3.311   0.746   6.366
 5140SOL    HW127451   3.406   0.747   6.398
 5140SOL    HW227452   3.252   0.785   6.437
 5141SOL     OW27453   3.846   0.018   6.718
 5141SOL    HW127454   3.896  -0.061   6.752
 5141SOL    HW227455   3.837   0.012   6.618
 5142SOL     OW27456   7.848   7.721   7.098
 5142SOL    HW127457   7.885   7.694   7.188
 5142SOL    HW227458   7.776   7.789   7.111
 5143SOL     OW27459   2.493   1.376   6.015
 5143SOL    HW127460   2.433   1.448   5.980
 5143SOL    HW227461   2.503   1.304   5.946
 5144SOL     OW27462   4.422   4.803   2.288
 5144SOL    HW127463   4.508   4.753   2.276
 5144SOL    HW227464   4.437   4.880   2.351
 5145SOL     OW27465   7.547   6.028   6.307
 5145SOL    HW127466   7.483   6.038   6.231
 5145SOL    HW227467   7.515   5.956   6.368
 5146SOL     OW27468   3.466   2.446   1.364
 5146SOL    HW127469   3.469   2.369   1.429
 5146SOL    HW227470   3.406   2.423   1.288
 5147SOL     OW27471   7.931   4.664   1.518
 5147SOL    HW127472   8.009   4.602   1.512
 5147SOL    HW227473   7.912   4.685   1.614
 5148SOL     OW27474   3.875   3.822   7.155
 5148SOL    HW127475   3.808   3.895   7.157
 5148SOL    HW227476   3.864   3.769   7.070
 5149SOL     OW27477   5.746   2.167   0.505
 5149SOL    HW127478   5.832   2.207   0.536
 5149SOL    HW227479   5.752   2.067   0.511
 5150SOL     OW27480   5.810   4.463   7.062
 5150SOL    HW127481   5.727   4.518   7.049
 5150SOL    HW227482   5.840   4.470   7.157
 5151SOL     OW27483   7.192   1.270   6.138
 5151SOL    HW127484   7.212   1.236   6.046
 5151SOL    HW227485   7.161   1.365   6.132
 5152SOL     OW27486   4.016   7.483   6.756
 5152SOL    HW127487   3.976   7.489   6.665
 5152SOL    HW227488   3.944   7.495   6.825
 5153SOL     OW27489   8.901   6.297   6.589
 5153SOL    HW127490   8.809   6.335   6.602
 5153SOL    HW227491   8.946   6.287   6.678
 5154SOL     OW27492   1.020   0.025   7.139
 5154SOL    HW127493   0.994   0.122   7.134
 5154SOL    HW227494   1.089   0.005   7.069
 5155SOL     OW27495   0.250   5.801   6.530
 5155SOL    HW127496   0.280   5.744   6.453
 5155SOL    HW227497   0.176   5.754   6.579
 5156SOL     OW27498   5.915   0.920   1.166
 5156SOL    HW127499   5.869   0.888   1.248
 5156SOL    HW227500   5.959   1.008   1.185
 5157SOL     OW27501   2.778   3.673   6.353
 5157SOL    HW127502   2.727   3.755   6.378
 5157SOL    HW227503   2.876   3.689   6.366
 5158SOL     OW27504   5.370   4.164   6.506
 5158SOL    HW127505   5.335   4.077   6.540
 5158SOL    HW227506   5.375   4.161   6.406
 5159SOL     OW27507   1.757   7.097   1.107
 5159SOL    HW127508   1.702   7.120   1.187
 5159SOL    HW227509   1.726   7.009   1.070
 5160SOL     OW27510   4.036   3.246   6.182
 5160SOL    HW127511   3.956   3.239   6.123
 5160SOL    HW227512   4.102   3.174   6.158
 5161SOL     OW27513   1.057   4.443   1.388
 5161SOL    HW127514   1.053   4.387   1.471
 5161SOL    HW227515   0.977   4.502   1.385
 5162SOL     OW27516   2.996   5.796   6.972
 5162SOL    HW127517   3.026   5.867   7.036
 5162SOL    HW227518   2.908   5.822   6.932
 5163SOL     OW27519   3.893   4.019   6.185
 5163SOL    HW127520   3.846   3.931   6.182
 5163SOL    HW227521   3.842   4.087   6.133
 5164SOL     OW27522   7.538   1.717   0.903
 5164SOL    HW127523   7.543   1.665   0.988
 5164SOL    HW227524   7.617   1.779   0.898
 5165SOL     OW27525   6.262   5.362   6.741
 5165SOL    HW127526   6.274   5.345   6.643
 5165SOL    HW227527   6.288   5.280   6.793
 5166SOL     OW27528   6.227   0.917   0.490
 5166SOL    HW127529   6.141   0.968   0.492
 5166SOL    HW227530   6.214   0.832   0.440
 5167SOL     OW27531   1.338   6.566   5.938
 5167SOL    HW127532   1.306   6.641   5.879
 5167SOL    HW227533   1.373   6.492   5.881
 5168SOL     OW27534   1.572   5.444   1.885
 5168SOL    HW127535   1.604   5.512   1.951
 5168SOL    HW227536   1.616   5.356   1.903
 5169SOL     OW27537   0.964   5.125   5.827
 5169SOL    HW127538   1.014   5.210   5.848
 5169SOL    HW227539   1.017   5.047   5.859
 5170SOL     OW27540   5.221   3.649   6.710
 5170SOL    HW127541   5.311   3.690   6.722
 5170SOL    HW227542   5.176   3.639   6.799
 5171SOL     OW27543   3.969   0.895   2.097
 5171SOL    HW127544   4.068   0.886   2.092
 5171SOL    HW227545   3.936   0.857   2.183
 5172SOL     OW27546   8.572   2.118   6.046
 5172SOL    HW127547   8.519   2.127   6.129
 5172SOL    HW227548   8.522   2.062   5.980
 5173SOL     OW27549   1.844   0.832   5.360
 5173SOL    HW127550   1.783   0.810   5.284
 5173SOL    HW227551   1.915   0.762   5.367
 5174SOL     OW27552   5.808   0.120   1.291
 5174SOL    HW127553   5.793   0.150   1.197
 5174SOL    HW227554   5.772   0.188   1.354
 5175SOL     OW27555   7.897   5.319   5.580
 5175SOL    HW127556   7.929   5.229   5.550
 5175SOL    HW227557   7.893   5.380   5.501
 5176SOL     OW27558   1.831   5.522   6.773
 5176SOL    HW127559   1.817   5.499   6.676
 5176SOL    HW227560   1.908   5.585   6.781
 5177SOL     OW27561   0.990   7.365   0.630
 5177SOL    HW127562   1.017   7.288   0.573
 5177SOL    HW227563   0.976   7.334   0.724
 5178SOL     OW27564   3.106   0.243   1.860
 5178SOL    HW127565   3.010   0.258   1.835
 5178SOL    HW227566   3.135   0.153   1.828
 5179SOL     OW27567   9.136   4.210   1.520
 5179SOL    HW127568   9.048   4.204   1.472
 5179SOL    HW227569   9.196   4.275   1.472
 5180SOL     OW27570   2.915   3.051   1.160
 5180SOL    HW127571   2.880   3.100   1.080
 5180SOL    HW227572   2.975   3.111   1.213
 5181SOL     OW27573   3.170   0.774   2.669
 5181SOL    HW127574   3.268   0.771   2.688
 5181SOL    HW227575   3.126   0.841   2.729
 5182SOL     OW27576   6.151   7.504   2.089
 5182SOL    HW127577   6.241   7.489   2.129
 5182SOL    HW227578   6.085   7.525   2.162
 5183SOL     OW27579   8.083   6.866   1.905
 5183SOL    HW127580   8.096   6.965   1.901
 5183SOL    HW227581   8.000   6.845   1.958
 5184SOL     OW27582   3.845   3.655   6.942
 5184SOL    HW127583   3.843   3.558   6.962
 5184SOL    HW227584   3.939   3.682   6.918
 5185SOL     OW27585   2.668   0.558   6.217
 5185SOL    HW127586   2.583   0.506   6.206
 5185SOL    HW227587   2.664   0.641   6.161
 5186SOL     OW27588   4.711   4.936   1.503
 5186SOL    HW127589   4.788   4.871   1.509
 5186SOL    HW227590   4.747   5.029   1.498
 5187SOL     OW27591   0.367   7.346   6.939
 5187SOL    HW127592   0.286   7.367   6.884
 5187SOL    HW227593   0.430   7.423   6.937
 5188SOL     OW27594   7.543   7.076   6.351
 5188SOL    HW127595   7.626   7.122   6.382
 5188SOL    HW227596   7.480   7.065   6.428
 5189SOL     OW27597   5.780   5.259   1.533
 5189SOL    HW127598   5.795   5.348   1.488
 5189SOL    HW227599   5.764   5.273   1.630
 5190SOL     OW27600   5.981   7.454   5.788
 5190SOL    HW127601   5.896   7.456   5.735
 5190SOL    HW227602   6.049   7.513   5.744
 5191SOL     OW27603   3.601   4.835   6.435
 5191SOL    HW127604   3.574   4.784   6.353
 5191SOL    HW227605   3.519   4.869   6.482
 5192SOL     OW27606   8.545   7.290   5.888
 5192SOL    HW127607   8.539   7.387   5.867
 5192SOL    HW227608   8.627   7.251   5.846
 5193SOL     OW27609   3.759   2.342   5.375
 5193SOL    HW127610   3.803   2.302   5.295
 5193SOL    HW227611   3.661   2.351   5.357
 5194SOL     OW27612   3.183   0.207   5.704
 5194SOL    HW127613   3.234   0.246   5.781
 5194SOL    HW227614   3.187   0.108   5.709
 5195SOL     OW27615   0.163   6.587   1.198
 5195SOL    HW127616   0.213   6.638   1.268
 5195SOL    HW227617   0.203   6.496   1.188
 5196SOL     OW27618   5.160   7.821   0.792
 5196SOL    HW127619   5.200   7.729   0.798
 5196SOL    HW227620   5.228   7.885   0.759
 5197SOL     OW27621   0.806   2.859   0.431
 5197SOL    HW127622   0.758   2.771   0.435
 5197SOL    HW227623   0.829   2.888   0.524
 5198SOL     OW27624   6.014   5.121   6.506
 5198SOL    HW127625   5.985   5.080   6.593
 5198SOL    HW227626   5.968   5.074   6.431
 5199SOL     OW27627   8.765   3.093   1.417
 5199SOL    HW127628   8.805   3.010   1.378
 5199SOL    HW227629   8.825   3.128   1.489
 5200SOL     OW27630   4.089   3.688   6.352
 5200SOL    HW127631   4.136   3.602   6.332
 5200SOL    HW227632   4.152   3.749   6.401
 5201SOL     OW27633   0.366   6.390   7.040
 5201SOL    HW127634   0.375   6.396   7.139
 5201SOL    HW227635   0.281   6.434   7.012
 5202SOL     OW27636   8.386   8.346   6.844
 5202SOL    HW127637   8.349   8.342   6.751
 5202SOL    HW227638   8.394   8.441   6.872
 5203SOL     OW27639   1.596   7.827   1.569
 5203SOL    HW127640   1.655   7.893   1.523
 5203SOL    HW227641   1.577   7.858   1.662
 5204SOL     OW27642   3.698   8.229   0.967
 5204SOL    HW127643   3.612   8.248   0.919
 5204SOL    HW227644   3.731   8.138   0.943
 5205SOL     OW27645   1.794   2.870   0.844
 5205SOL    HW127646   1.853   2.947   0.819
 5205SOL    HW227647   1.841   2.811   0.910
 5206SOL     OW27648   2.868   1.402   0.480
 5206SOL    HW127649   2.956   1.399   0.434
 5206SOL    HW227650   2.814   1.321   0.455
 5207SOL     OW27651   2.291   5.009   5.548
 5207SOL    HW127652   2.220   4.939   5.543
 5207SOL    HW227653   2.367   4.984   5.487
 5208SOL     OW27654   2.566   4.152   1.842
 5208SOL    HW127655   2.507   4.071   1.852
 5208SOL    HW227656   2.661   4.124   1.836
 5209SOL     OW27657   6.509   7.040   6.267
 5209SOL    HW127658   6.493   7.072   6.360
 5209SOL    HW227659   6.601   7.066   6.238
 5210SOL     OW27660   8.842   6.084   5.157
 5210SOL    HW127661   8.919   6.143   5.134
 5210SOL    HW227662   8.871   6.017   5.226
 5211SOL     OW27663   8.188   1.500   0.445
 5211SOL    HW127664   8.126   1.450   0.385
 5211SOL    HW227665   8.264   1.537   0.391
 5212SOL     OW27666   6.330   1.675   6.035
 5212SOL    HW127667   6.290   1.765   6.018
 5212SOL    HW227668   6.256   1.607   6.042
 5213SOL     OW27669   4.585   2.650   6.679
 5213SOL    HW127670   4.530   2.612   6.605
 5213SOL    HW227671   4.660   2.705   6.641
 5214SOL     OW27672   7.280   4.695   1.355
 5214SOL    HW127673   7.289   4.618   1.418
 5214SOL    HW227674   7.366   4.745   1.351
 5215SOL     OW27675   3.537   5.248   0.466
 5215SOL    HW127676   3.545   5.341   0.501
 5215SOL    HW227677   3.449   5.237   0.421
 5216SOL     OW27678   2.025   6.526   1.695
 5216SOL    HW127679   2.085   6.592   1.650
 5216SOL    HW227680   1.995   6.457   1.629
 5217SOL     OW27681   7.264   7.895   5.858
 5217SOL    HW127682   7.334   7.962   5.886
 5217SOL    HW227683   7.235   7.916   5.765
 5218SOL     OW27684   2.013   0.716   6.951
 5218SOL    HW127685   1.993   0.806   6.988
 5218SOL    HW227686   1.998   0.716   6.852
 5219SOL     OW27687   7.412   0.504   0.845
 5219SOL    HW127688   7.339   0.549   0.896
 5219SOL    HW227689   7.498   0.551   0.863
 5220SOL     OW27690   7.922   5.592   6.546
 5220SOL    HW127691   7.937   5.496   6.569
 5220SOL    HW227692   7.884   5.599   6.454
 5221SOL     OW27693   6.142   2.803   1.190
 5221SOL    HW127694   6.216   2.735   1.187
 5221SOL    HW227695   6.055   2.757   1.207
 5222SOL     OW27696   5.814   2.373   1.870
 5222SOL    HW127697   5.762   2.290   1.890
 5222SOL    HW227698   5.755   2.439   1.823
 5223SOL     OW27699   7.328   7.030   6.518
 5223SOL    HW127700   7.260   7.084   6.568
 5223SOL    HW227701   7.351   6.948   6.570
 5224SOL     OW27702   0.199   7.312   5.669
 5224SOL    HW127703   0.116   7.298   5.723
 5224SOL    HW227704   0.211   7.236   5.606
 5225SOL     OW27705   9.066   3.525   6.727
 5225SOL    HW127706   8.998   3.599   6.723
 5225SOL    HW227707   9.104   3.511   6.636
 5226SOL     OW27708   9.463   7.260   5.775
 5226SOL    HW127709   9.391   7.291   5.713
 5226SOL    HW227710   9.444   7.293   5.867
 5227SOL     OW27711   0.250   4.808   0.860
 5227SOL    HW127712   0.169   4.805   0.920
 5227SOL    HW227713   0.231   4.757   0.776
 5228SOL     OW27714   6.594   7.234   6.668
 5228SOL    HW127715   6.549   7.171   6.604
 5228SOL    HW227716   6.564   7.213   6.761
 5229SOL     OW27717   4.531   8.269   7.163
 5229SOL    HW127718   4.505   8.174   7.181
 5229SOL    HW227719   4.566   8.276   7.069
 5230SOL     OW27720   7.462   4.837   1.025
 5230SOL    HW127721   7.513   4.790   1.097
 5230SOL    HW227722   7.431   4.926   1.058
 5231SOL     OW27723   4.837   6.783   6.360
 5231SOL    HW127724   4.853   6.700   6.413
 5231SOL    HW227725   4.746   6.778   6.317
 5232SOL     OW27726   8.656   7.780   5.444
 5232SOL    HW127727   8.721   7.843   5.484
 5232SOL    HW227728   8.704   7.720   5.379
 5233SOL     OW27729   2.469   1.026   6.599
 5233SOL    HW127730   2.488   0.932   6.571
 5233SOL    HW227731   2.421   1.026   6.687
 5234SOL     OW27732   9.189   1.862   7.114
 5234SOL    HW127733   9.104   1.818   7.083
 5234SOL    HW227734   9.171   1.957   7.138
 5235SOL     OW27735   3.029   1.038   6.486
 5235SOL    HW127736   3.117   1.085   6.476
 5235SOL    HW227737   3.039   0.961   6.548
 5236SOL     OW27738   3.070   4.649   1.772
 5236SOL    HW127739   2.996   4.697   1.725
 5236SOL    HW227740   3.033   4.604   1.854
 5237SOL     OW27741   8.472   1.982   2.155
 5237SOL    HW127742   8.566   1.955   2.134
 5237SOL    HW227743   8.449   1.953   2.248
 5238SOL     OW27744   2.001   7.027   0.743
 5238SOL    HW127745   1.948   7.111   0.741
 5238SOL    HW227746   1.960   6.963   0.809
 5239SOL     OW27747   4.868   4.726   1.800
 5239SOL    HW127748   4.964   4.715   1.828
 5239SOL    HW227749   4.808   4.696   1.875
 5240SOL     OW27750   8.319   1.731   6.496
 5240SOL    HW127751   8.234   1.780   6.476
 5240SOL    HW227752   8.357   1.694   6.411
 5241SOL     OW27753   8.514   6.079   7.143
 5241SOL    HW127754   8.599   6.074   7.195
 5241SOL    HW227755   8.466   6.164   7.167
 5242SOL     OW27756   1.282   8.423   6.070
 5242SOL    HW127757   1.319   8.408   5.979
 5242SOL    HW227758   1.260   8.520   6.082
 5243SOL     OW27759   8.814   2.999   0.782
 5243SOL    HW127760   8.906   3.038   0.783
 5243SOL    HW227761   8.777   3.002   0.689
 5244SOL     OW27762   5.100   2.593   1.869
 5244SOL    HW127763   5.011   2.637   1.879
 5244SOL    HW227764   5.147   2.592   1.957
 5245SOL     OW27765   7.519   0.364   1.426
 5245SOL    HW127766   7.435   0.380   1.479
 5245SOL    HW227767   7.546   0.268   1.436
 5246SOL     OW27768   8.919   0.128   7.146
 5246SOL    HW127769   8.927   0.058   7.076
 5246SOL    HW227770   8.845   0.191   7.123
 5247SOL     OW27771   2.150   3.680   6.053
 5247SOL    HW127772   2.101   3.705   5.970
 5247SOL    HW227773   2.089   3.690   6.132
 5248SOL     OW27774   7.074   7.706   1.103
 5248SOL    HW127775   7.086   7.687   1.200
 5248SOL    HW227776   7.140   7.653   1.050
 5249SOL     OW27777   0.557   2.885   0.726
 5249SOL    HW127778   0.545   2.805   0.667
 5249SOL    HW227779   0.613   2.953   0.681
 5250SOL     OW27780   6.344   1.312   6.825
 5250SOL    HW127781   6.424   1.367   6.848
 5250SOL    HW227782   6.347   1.225   6.875
 5251SOL     OW27783   5.754   0.423   5.926
 5251SOL    HW127784   5.736   0.329   5.955
 5251SOL    HW227785   5.690   0.448   5.853
 5252SOL     OW27786   0.629   5.769   6.627
 5252SOL    HW127787   0.709   5.710   6.623
 5252SOL    HW227788   0.547   5.712   6.638
 5253SOL     OW27789   4.022   0.532   6.841
 5253SOL    HW127790   3.978   0.444   6.824
 5253SOL    HW227791   4.029   0.548   6.940
 5254SOL     OW27792   7.190   1.528   1.946
 5254SOL    HW127793   7.277   1.564   1.911
 5254SOL    HW227794   7.123   1.601   1.951
 5255SOL     OW27795   4.558   0.244   6.800
 5255SOL    HW127796   4.472   0.286   6.772
 5255SOL    HW227797   4.630   0.268   6.734
 5256SOL     OW27798   3.748   8.196   1.482
 5256SOL    HW127799   3.657   8.170   1.449
 5256SOL    HW227800   3.818   8.145   1.432
 5257SOL     OW27801   2.872   2.852   1.354
 5257SOL    HW127802   2.881   2.893   1.263
 5257SOL    HW227803   2.787   2.801   1.360
 5258SOL     OW27804   6.377   5.149   5.622
 5258SOL    HW127805   6.313   5.170   5.547
 5258SOL    HW227806   6.424   5.063   5.602
 5259SOL     OW27807   1.358   8.402   5.822
 5259SOL    HW127808   1.282   8.385   5.759
 5259SOL    HW227809   1.411   8.318   5.833
 5260SOL     OW27810   9.390   0.734   1.687
 5260SOL    HW127811   9.442   0.649   1.676
 5260SOL    HW227812   9.293   0.712   1.696
 5261SOL     OW27813   0.687   3.670   0.944
 5261SOL    HW127814   0.746   3.655   0.864
 5261SOL    HW227815   0.724   3.621   1.023
 5262SOL     OW27816   4.899   6.876   5.748
 5262SOL    HW127817   4.842   6.843   5.823
 5262SOL    HW227818   4.922   6.800   5.687
 5263SOL     OW27819   3.798   3.590   1.481
 5263SOL    HW127820   3.863   3.516   1.498
 5263SOL    HW227821   3.748   3.610   1.565
 5264SOL     OW27822   3.604   3.039   6.376
 5264SOL    HW127823   3.566   2.966   6.433
 5264SOL    HW227824   3.587   3.018   6.280
 5265SOL     OW27825   7.411   6.488   1.257
 5265SOL    HW127826   7.461   6.426   1.197
 5265SOL    HW227827   7.453   6.578   1.254
 5266SOL     OW27828   1.954   5.276   0.622
 5266SOL    HW127829   1.862   5.296   0.589
 5266SOL    HW227830   1.965   5.177   0.633
 5267SOL     OW27831   5.177   3.278   0.993
 5267SOL    HW127832   5.267   3.234   1.001
 5267SOL    HW227833   5.106   3.208   0.992
 5268SOL     OW27834   2.443   7.903   4.860
 5268SOL    HW127835   2.513   7.950   4.806
 5268SOL    HW227836   2.448   7.805   4.844
 5269SOL     OW27837   5.013   3.762   6.859
 5269SOL    HW127838   5.024   3.783   6.762
 5269SOL    HW227839   5.042   3.841   6.913
 5270SOL     OW27840   9.160   2.099   6.824
 5270SOL    HW127841   9.147   2.169   6.894
 5270SOL    HW227842   9.256   2.097   6.796
 5271SOL     OW27843   5.675   6.942   7.107
 5271SOL    HW127844   5.713   7.033   7.126
 5271SOL    HW227845   5.740   6.890   7.052
 5272SOL     OW27846   8.090   5.437   6.874
 5272SOL    HW127847   8.159   5.480   6.816
 5272SOL    HW227848   8.016   5.400   6.816
 5273SOL     OW27849   7.598   3.899   6.197
 5273SOL    HW127850   7.529   3.911   6.126
 5273SOL    HW227851   7.659   3.824   6.172
 5274SOL     OW27852   0.281   3.995   1.100
 5274SOL    HW127853   0.271   3.905   1.058
 5274SOL    HW227854   0.217   4.002   1.178
 5275SOL     OW27855   5.022   3.488   0.519
 5275SOL    HW127856   4.982   3.440   0.597
 5275SOL    HW227857   5.000   3.585   0.524
 5276SOL     OW27858   2.566   6.979   6.458
 5276SOL    HW127859   2.492   7.035   6.421
 5276SOL    HW227860   2.529   6.894   6.495
 5277SOL     OW27861   1.250   0.028   6.977
 5277SOL    HW127862   1.308  -0.008   7.050
 5277SOL    HW227863   1.290   0.113   6.942
 5278SOL     OW27864   5.825   1.822   6.868
 5278SOL    HW127865   5.923   1.820   6.890
 5278SOL    HW227866   5.805   1.906   6.816
 5279SOL     OW27867   3.274   6.063   2.354
 5279SOL    HW127868   3.180   6.095   2.354
 5279SOL    HW227869   3.284   5.990   2.422
 5280SOL     OW27870   6.662   4.664   5.940
 5280SOL    HW127871   6.567   4.633   5.936
 5280SOL    HW227872   6.679   4.731   5.868
 5281SOL     OW27873   4.604   1.502   6.840
 5281SOL    HW127874   4.542   1.486   6.917
 5281SOL    HW227875   4.697   1.516   6.875
 5282SOL     OW27876   2.850   2.031   0.943
 5282SOL    HW127877   2.876   2.006   1.036
 5282SOL    HW227878   2.834   1.949   0.889
 5283SOL     OW27879   4.092   4.795   6.197
 5283SOL    HW127880   4.171   4.788   6.257
 5283SOL    HW227881   4.067   4.891   6.184
 5284SOL     OW27882   6.762   0.456   6.417
 5284SOL    HW127883   6.840   0.492   6.469
 5284SOL    HW227884   6.691   0.527   6.412
 5285SOL     OW27885   8.079   7.178   6.990
 5285SOL    HW127886   8.163   7.197   7.042
 5285SOL    HW227887   8.032   7.264   6.971
 5286SOL     OW27888   9.477   4.987   6.033
 5286SOL    HW127889   9.427   4.955   5.953
 5286SOL    HW227890   9.454   5.082   6.051
 5287SOL     OW27891   1.382   7.033   7.057
 5287SOL    HW127892   1.291   7.067   7.033
 5287SOL    HW227893   1.382   6.999   7.151
 5288SOL     OW27894   5.671   4.943   1.776
 5288SOL    HW127895   5.716   4.905   1.857
 5288SOL    HW227896   5.633   5.033   1.797
 5289SOL     OW27897   8.887   6.218   1.491
 5289SOL    HW127898   8.853   6.129   1.522
 5289SOL    HW227899   8.865   6.288   1.559
 5290SOL     OW27900   3.519   7.084   6.525
 5290SOL    HW127901   3.419   7.077   6.521
 5290SOL    HW227902   3.559   7.009   6.473
 5291SOL     OW27903   2.818   8.041   0.445
 5291SOL    HW127904   2.815   8.141   0.446
 5291SOL    HW227905   2.761   8.006   0.370
 5292SOL     OW27906   2.208   7.067   0.995
 5292SOL    HW127907   2.126   7.115   1.028
 5292SOL    HW227908   2.193   6.969   0.999
 5293SOL     OW27909   7.887   0.730   0.964
 5293SOL    HW127910   7.865   0.801   1.032
 5293SOL    HW227911   7.945   0.660   1.007
 5294SOL     OW27912   3.957   5.913   6.568
 5294SOL    HW127913   3.881   5.864   6.610
 5294SOL    HW227914   4.037   5.909   6.628
 5295SOL     OW27915   4.107   7.201   1.507
 5295SOL    HW127916   4.059   7.179   1.592
 5295SOL    HW227917   4.088   7.295   1.481
 5296SOL     OW27918   3.618   6.306   1.602
 5296SOL    HW127919   3.650   6.360   1.680
 5296SOL    HW227920   3.560   6.231   1.634
 5297SOL     OW27921   4.891   2.014   5.858
 5297SOL    HW127922   4.802   1.969   5.866
 5297SOL    HW227923   4.906   2.074   5.936
 5298SOL     OW27924   0.410   2.755   6.409
 5298SOL    HW127925   0.313   2.770   6.392
 5298SOL    HW227926   0.460   2.841   6.398
 5299SOL     OW27927   1.068   3.759   6.788
 5299SOL    HW127928   1.057   3.852   6.823
 5299SOL    HW227929   1.165   3.735   6.789
 5300SOL     OW27930   7.396   3.925   6.013
 5300SOL    HW127931   7.380   4.002   5.952
 5300SOL    HW227932   7.343   3.846   5.982
 5301SOL     OW27933   1.925   5.974   7.043
 5301SOL    HW127934   1.992   5.908   7.007
 5301SOL    HW227935   1.902   6.040   6.972
 5302SOL     OW27936   6.578   7.903   6.808
 5302SOL    HW127937   6.537   7.816   6.782
 5302SOL    HW227938   6.521   7.979   6.775
 5303SOL     OW27939   1.414   2.975   0.666
 5303SOL    HW127940   1.414   2.933   0.757
 5303SOL    HW227941   1.475   2.924   0.606
 5304SOL     OW27942   0.525   1.222   6.565
 5304SOL    HW127943   0.427   1.202   6.556
 5304SOL    HW227944   0.576   1.160   6.505
 5305SOL     OW27945   2.798   1.118   1.519
 5305SOL    HW127946   2.797   1.213   1.487
 5305SOL    HW227947   2.707   1.094   1.554
 5306SOL     OW27948   4.496   4.730   1.496
 5306SOL    HW127949   4.538   4.655   1.444
 5306SOL    HW227950   4.565   4.798   1.519
 5307SOL     OW27951   7.481   6.333   6.694
 5307SOL    HW127952   7.516   6.308   6.603
 5307SOL    HW227953   7.542   6.398   6.737
 5308SOL     OW27954   6.213   8.074   0.781
 5308SOL    HW127955   6.126   8.075   0.830
 5308SOL    HW227956   6.253   7.983   0.787
 5309SOL     OW27957   8.208   4.663   1.747
 5309SOL    HW127958   8.175   4.652   1.840
 5309SOL    HW227959   8.224   4.760   1.729
 5310SOL     OW27960   6.920   0.581   6.955
 5310SOL    HW127961   6.824   0.606   6.941
 5310SOL    HW227962   6.925   0.489   6.995
 5311SOL     OW27963   5.069   6.462   7.023
 5311SOL    HW127964   5.095   6.552   7.056
 5311SOL    HW227965   5.116   6.443   6.937
 5312SOL     OW27966   0.753   0.121   6.043
 5312SOL    HW127967   0.762   0.036   6.096
 5312SOL    HW227968   0.732   0.099   5.948
 5313SOL     OW27969   7.388   5.038   6.431
 5313SOL    HW127970   7.480   4.999   6.435
 5313SOL    HW227971   7.389   5.121   6.377
 5314SOL     OW27972   0.337   7.957   1.731
 5314SOL    HW127973   0.430   7.975   1.763
 5314SOL    HW227974   0.285   7.911   1.803
 5315SOL     OW27975   3.729   4.450   7.077
 5315SOL    HW127976   3.717   4.496   7.165
 5315SOL    HW227977   3.641   4.419   7.042
 5316SOL     OW27978   6.859   0.314   5.803
 5316SOL    HW127979   6.785   0.316   5.736
 5316SOL    HW227980   6.883   0.219   5.823
 5317SOL     OW27981   0.495   4.227   5.609
 5317SOL    HW127982   0.442   4.147   5.583
 5317SOL    HW227983   0.593   4.209   5.596
 5318SOL     OW27984   5.021   4.630   6.687
 5318SOL    HW127985   4.958   4.693   6.730
 5318SOL    HW227986   5.056   4.670   6.602
 5319SOL     OW27987   3.298   6.274   7.030
 5319SOL    HW127988   3.347   6.263   6.944
 5319SOL    HW227989   3.363   6.291   7.104
 5320SOL     OW27990   4.921   5.028   6.479
 5320SOL    HW127991   4.871   5.068   6.556
 5320SOL    HW227992   4.965   4.943   6.508
 5321SOL     OW27993   1.383   0.338   5.140
 5321SOL    HW127994   1.324   0.329   5.059
 5321SOL    HW227995   1.409   0.247   5.172
 5322SOL     OW27996   8.125   5.940   5.804
 5322SOL    HW127997   8.121   6.025   5.858
 5322SOL    HW227998   8.035   5.921   5.765
 5323SOL     OW27999   3.676   2.556   1.161
 5323SOL    HW128000   3.609   2.532   1.231
 5323SOL    HW228001   3.694   2.654   1.164
 5324SOL     OW28002   4.361   7.395   6.534
 5324SOL    HW128003   4.333   7.457   6.607
 5324SOL    HW228004   4.460   7.398   6.524
 5325SOL     OW28005   3.233   7.494   1.253
 5325SOL    HW128006   3.193   7.556   1.186
 5325SOL    HW228007   3.188   7.405   1.249
 5326SOL     OW28008   9.046   0.063   1.192
 5326SOL    HW128009   8.983   0.050   1.115
 5326SOL    HW228010   9.132   0.016   1.172
 5327SOL     OW28011   0.516   7.162   6.412
 5327SOL    HW128012   0.492   7.112   6.329
 5327SOL    HW228013   0.603   7.127   6.447
 5328SOL     OW28014   4.329   0.132   5.043
 5328SOL    HW128015   4.410   0.103   4.991
 5328SOL    HW228016   4.248   0.128   4.984
 5329SOL     OW28017   1.530   3.099   6.622
 5329SOL    HW128018   1.450   3.152   6.593
 5329SOL    HW228019   1.555   3.034   6.551
 5330SOL     OW28020   1.290   5.826   5.871
 5330SOL    HW128021   1.194   5.804   5.888
 5330SOL    HW228022   1.320   5.895   5.937
 5331SOL     OW28023   3.724   7.564   0.516
 5331SOL    HW128024   3.814   7.523   0.501
 5331SOL    HW228025   3.670   7.505   0.577
 5332SOL     OW28026   4.666   1.778   6.490
 5332SOL    HW128027   4.760   1.802   6.516
 5332SOL    HW228028   4.624   1.855   6.442
 5333SOL     OW28029   3.782   2.697   6.810
 5333SOL    HW128030   3.825   2.757   6.742
 5333SOL    HW228031   3.778   2.744   6.898
 5334SOL     OW28032   3.520   4.331   6.052
 5334SOL    HW128033   3.480   4.317   6.142
 5334SOL    HW228034   3.457   4.384   5.995
 5335SOL     OW28035   7.379   7.554   5.377
 5335SOL    HW128036   7.361   7.649   5.404
 5335SOL    HW228037   7.442   7.553   5.299
 5336SOL     OW28038   8.722   0.737   6.401
 5336SOL    HW128039   8.626   0.758   6.423
 5336SOL    HW228040   8.755   0.802   6.332
 5337SOL     OW28041   3.722   0.074   1.721
 5337SOL    HW128042   3.702  -0.024   1.714
 5337SOL    HW228043   3.642   0.127   1.693
 5338SOL     OW28044   3.962   3.618   1.209
 5338SOL    HW128045   3.895   3.547   1.230
 5338SOL    HW228046   3.916   3.691   1.158
 5339SOL     OW28047   4.365   1.822   1.399
 5339SOL    HW128048   4.374   1.741   1.456
 5339SOL    HW228049   4.270   1.854   1.401
 5340SOL     OW28050   2.541   8.119   6.523
 5340SOL    HW128051   2.608   8.141   6.594
 5340SOL    HW228052   2.586   8.123   6.433
 5341SOL     OW28053   4.521   8.062   1.591
 5341SOL    HW128054   4.448   8.053   1.523
 5341SOL    HW228055   4.515   7.987   1.656
 5342SOL     OW28056   2.861   3.646   6.709
 5342SOL    HW128057   2.802   3.720   6.678
 5342SOL    HW228058   2.954   3.660   6.675
 5343SOL     OW28059   4.030   2.234   6.033
 5343SOL    HW128060   3.933   2.212   6.029
 5343SOL    HW228061   4.076   2.201   5.951
 5344SOL     OW28062   5.299   4.640   1.746
 5344SOL    HW128063   5.317   4.733   1.714
 5344SOL    HW228064   5.234   4.643   1.822
 5345SOL     OW28065   6.796   1.393   1.759
 5345SOL    HW128066   6.711   1.341   1.749
 5345SOL    HW228067   6.816   1.404   1.856
 5346SOL     OW28068   1.383   0.786   0.592
 5346SOL    HW128069   1.390   0.687   0.591
 5346SOL    HW228070   1.409   0.823   0.503
 5347SOL     OW28071   7.457   2.283   6.942
 5347SOL    HW128072   7.549   2.286   6.901
 5347SOL    HW228073   7.456   2.214   7.015
 5348SOL     OW28074   4.125   1.847   0.477
 5348SOL    HW128075   4.140   1.782   0.551
 5348SOL    HW228076   4.066   1.920   0.508
 5349SOL     OW28077   6.385   6.134   0.821
 5349SOL    HW128078   6.411   6.088   0.736
 5349SOL    HW228079   6.464   6.181   0.859
 5350SOL     OW28080   3.149   1.061   2.480
 5350SOL    HW128081   3.070   1.112   2.447
 5350SOL    HW228082   3.192   1.013   2.403
 5351SOL     OW28083   0.186   7.322   5.302
 5351SOL    HW128084   0.107   7.379   5.280
 5351SOL    HW228085   0.236   7.300   5.218
 5352SOL     OW28086   2.369   7.815   6.225
 5352SOL    HW128087   2.465   7.829   6.247
 5352SOL    HW228088   2.322   7.903   6.221
 5353SOL     OW28089   4.299   3.281   0.691
 5353SOL    HW128090   4.299   3.356   0.624
 5353SOL    HW228091   4.394   3.256   0.712
 5354SOL     OW28092   0.823   4.386   6.680
 5354SOL    HW128093   0.854   4.366   6.587
 5354SOL    HW228094   0.821   4.485   6.694
 5355SOL     OW28095   6.206   5.447   1.887
 5355SOL    HW128096   6.195   5.387   1.966
 5355SOL    HW228097   6.237   5.538   1.917
 5356SOL     OW28098   1.733   0.186   2.352
 5356SOL    HW128099   1.643   0.230   2.348
 5356SOL    HW228100   1.761   0.160   2.260
 5357SOL     OW28101   0.752   6.729   1.012
 5357SOL    HW128102   0.826   6.771   1.063
 5357SOL    HW228103   0.760   6.629   1.019
 5358SOL     OW28104   0.500   2.357   6.271
 5358SOL    HW128105   0.471   2.431   6.211
 5358SOL    HW228106   0.442   2.276   6.256
 5359SOL     OW28107   2.645   0.670   0.825
 5359SOL    HW128108   2.573   0.601   0.827
 5359SOL    HW228109   2.731   0.628   0.798
 5360SOL     OW28110   6.116   7.607   1.090
 5360SOL    HW128111   6.168   7.652   1.161
 5360SOL    HW228112   6.046   7.670   1.054
 5361SOL     OW28113   3.455   0.676   1.299
 5361SOL    HW128114   3.472   0.766   1.341
 5361SOL    HW228115   3.357   0.658   1.299
 5362SOL     OW28116   1.985   3.192   6.942
 5362SOL    HW128117   1.963   3.243   7.025
 5362SOL    HW228118   2.085   3.181   6.936
 5363SOL     OW28119   1.089   4.978   1.208
 5363SOL    HW128120   1.110   4.943   1.117
 5363SOL    HW228121   1.058   4.903   1.267
 5364SOL     OW28122   8.117   0.022   6.773
 5364SOL    HW128123   8.062  -0.062   6.780
 5364SOL    HW228124   8.060   0.096   6.737
 5365SOL     OW28125   6.073   2.753   0.574
 5365SOL    HW128126   6.172   2.740   0.570
 5365SOL    HW228127   6.053   2.847   0.605
 5366SOL     OW28128   1.650   5.673   1.101
 5366SOL    HW128129   1.576   5.699   1.164
 5366SOL    HW228130   1.633   5.715   1.012
 5367SOL     OW28131   6.887   8.313   1.345
 5367SOL    HW128132   6.804   8.299   1.290
 5367SOL    HW228133   6.966   8.275   1.297
 5368SOL     OW28134   6.609   7.370   5.472
 5368SOL    HW128135   6.663   7.304   5.420
 5368SOL    HW228136   6.574   7.326   5.554
 5369SOL     OW28137   4.649   4.306   6.706
 5369SOL    HW128138   4.571   4.364   6.679
 5369SOL    HW228139   4.708   4.357   6.768
 5370SOL     OW28140   5.602   6.346   7.114
 5370SOL    HW128141   5.538   6.418   7.143
 5370SOL    HW228142   5.684   6.349   7.171
 5371SOL     OW28143   0.208   0.812   5.855
 5371SOL    HW128144   0.188   0.718   5.827
 5371SOL    HW228145   0.262   0.811   5.939
 5372SOL     OW28146   2.562   1.545   1.541
 5372SOL    HW128147   2.507   1.614   1.494
 5372SOL    HW228148   2.547   1.552   1.640
 5373SOL     OW28149   7.703   6.026   1.732
 5373SOL    HW128150   7.713   5.980   1.820
 5373SOL    HW228151   7.748   6.115   1.736
 5374SOL     OW28152   8.902   7.384   0.442
 5374SOL    HW128153   8.954   7.306   0.409
 5374SOL    HW228154   8.965   7.456   0.471
 5375SOL     OW28155   8.849   3.271   1.212
 5375SOL    HW128156   8.789   3.251   1.289
 5375SOL    HW228157   8.905   3.191   1.191
 5376SOL     OW28158   6.383   1.466   7.163
 5376SOL    HW128159   6.444   1.545   7.164
 5376SOL    HW228160   6.289   1.497   7.147
 5377SOL     OW28161   8.128   7.137   1.831
 5377SOL    HW128162   8.164   7.153   1.923
 5377SOL    HW228163   8.162   7.208   1.769
 5378SOL     OW28164   6.392   5.580   1.227
 5378SOL    HW128165   6.441   5.589   1.314
 5378SOL    HW228166   6.449   5.532   1.161
 5379SOL     OW28167   2.097   0.357   6.080
 5379SOL    HW128168   2.053   0.446   6.085
 5379SOL    HW228169   2.188   0.366   6.039
 5380SOL     OW28170   8.419   1.736   1.791
 5380SOL    HW128171   8.491   1.804   1.776
 5380SOL    HW228172   8.460   1.652   1.828
 5381SOL     OW28173   3.307   1.193   6.889
 5381SOL    HW128174   3.242   1.120   6.909
 5381SOL    HW228175   3.341   1.232   6.974
 5382SOL     OW28176   5.947   4.420   0.604
 5382SOL    HW128177   5.957   4.339   0.547
 5382SOL    HW228178   5.917   4.394   0.695
 5383SOL     OW28179   7.181   8.300   6.158
 5383SOL    HW128180   7.207   8.357   6.080
 5383SOL    HW228181   7.093   8.256   6.139
 5384SOL     OW28182   4.455   6.222   1.336
 5384SOL    HW128183   4.428   6.290   1.268
 5384SOL    HW228184   4.386   6.218   1.408
 5385SOL     OW28185   7.355   2.803   6.899
 5385SOL    HW128186   7.287   2.876   6.903
 5385SOL    HW228187   7.354   2.751   6.984
 5386SOL     OW28188   5.186   8.017   6.327
 5386SOL    HW128189   5.248   7.944   6.298
 5386SOL    HW228190   5.239   8.093   6.364
 5387SOL     OW28191   7.424   6.936   6.160
 5387SOL    HW128192   7.463   6.966   6.247
 5387SOL    HW228193   7.487   6.872   6.115
 5388SOL     OW28194   1.133   3.369   6.682
 5388SOL    HW128195   1.195   3.396   6.756
 5388SOL    HW228196   1.067   3.302   6.716
 5389SOL     OW28197   7.854   7.333   6.234
 5389SOL    HW128198   7.818   7.266   6.298
 5389SOL    HW228199   7.901   7.406   6.285
 5390SOL     OW28200   4.018   2.077   2.527
 5390SOL    HW128201   4.041   2.054   2.622
 5390SOL    HW228202   4.075   2.154   2.497
 5391SOL     OW28203   3.211   3.122   1.523
 5391SOL    HW128204   3.267   3.049   1.561
 5391SOL    HW228205   3.114   3.103   1.541
 5392SOL     OW28206   4.874   5.863   1.195
 5392SOL    HW128207   4.866   5.963   1.198
 5392SOL    HW228208   4.828   5.824   1.275
 5393SOL     OW28209   7.850   1.191   6.759
 5393SOL    HW128210   7.927   1.165   6.700
 5393SOL    HW228211   7.792   1.112   6.775
 5394SOL     OW28212   4.097   3.096   5.622
 5394SOL    HW128213   4.071   3.076   5.716
 5394SOL    HW228214   4.018   3.084   5.562
 5395SOL     OW28215   7.619   7.329   1.582
 5395SOL    HW128216   7.683   7.388   1.532
 5395SOL    HW228217   7.668   7.278   1.653
 5396SOL     OW28218   0.986   4.728   1.636
 5396SOL    HW128219   1.045   4.675   1.697
 5396SOL    HW228220   0.900   4.748   1.682
 5397SOL     OW28221   6.323   4.635   1.470
 5397SOL    HW128222   6.229   4.617   1.501
 5397SOL    HW228223   6.321   4.687   1.385
 5398SOL     OW28224   7.536   5.403   6.332
 5398SOL    HW128225   7.556   5.407   6.430
 5398SOL    HW228226   7.451   5.352   6.318
 5399SOL     OW28227   9.381   3.399   5.878
 5399SOL    HW128228   9.439   3.376   5.800
 5399SOL    HW228229   9.318   3.473   5.852
 5400SOL     OW28230   7.863   4.951   6.714
 5400SOL    HW128231   7.850   5.030   6.654
 5400SOL    HW228232   7.884   4.870   6.660
 5401SOL     OW28233   2.217   8.357   5.666
 5401SOL    HW128234   2.164   8.285   5.622
 5401SOL    HW228235   2.269   8.407   5.596
 5402SOL     OW28236   2.571   4.292   6.184
 5402SOL    HW128237   2.597   4.267   6.090
 5402SOL    HW228238   2.625   4.238   6.248
 5403SOL     OW28239   0.530   0.993   7.134
 5403SOL    HW128240   0.589   0.935   7.077
 5403SOL    HW228241   0.514   1.080   7.087
 5404SOL     OW28242   6.881   2.275   1.133
 5404SOL    HW128243   6.939   2.241   1.059
 5404SOL    HW228244   6.853   2.370   1.112
 5405SOL     OW28245   7.143   1.687   1.265
 5405SOL    HW128246   7.183   1.773   1.295
 5405SOL    HW228247   7.060   1.705   1.212
 5406SOL     OW28248   2.268   2.147   6.249
 5406SOL    HW128249   2.258   2.211   6.173
 5406SOL    HW228250   2.212   2.179   6.326
 5407SOL     OW28251   8.270   4.932   1.706
 5407SOL    HW128252   8.228   5.008   1.756
 5407SOL    HW228253   8.334   4.968   1.638
 5408SOL     OW28254   0.826   2.186   0.565
 5408SOL    HW128255   0.850   2.158   0.658
 5408SOL    HW228256   0.909   2.211   0.515
 5409SOL     OW28257   4.057   0.478   1.413
 5409SOL    HW128258   4.049   0.496   1.511
 5409SOL    HW228259   3.974   0.509   1.367
 5410SOL     OW28260   0.185   2.381   6.710
 5410SOL    HW128261   0.098   2.371   6.660
 5410SOL    HW228262   0.188   2.314   6.785
 5411SOL     OW28263   4.307   3.353   0.976
 5411SOL    HW128264   4.389   3.408   0.992
 5411SOL    HW228265   4.295   3.339   0.878
 5412SOL     OW28266   2.463   5.390   0.676
 5412SOL    HW128267   2.388   5.362   0.617
 5412SOL    HW228268   2.494   5.312   0.730
 5413SOL     OW28269   2.716   3.484   6.523
 5413SOL    HW128270   2.777   3.500   6.600
 5413SOL    HW228271   2.713   3.565   6.464
 5414SOL     OW28272   1.790   0.524   6.620
 5414SOL    HW128273   1.733   0.586   6.566
 5414SOL    HW228274   1.876   0.570   6.643
 5415SOL     OW28275   1.077   2.028   6.842
 5415SOL    HW128276   1.072   1.933   6.873
 5415SOL    HW228277   1.007   2.044   6.772
 5416SOL     OW28278   5.180   6.498   6.328
 5416SOL    HW128279   5.087   6.463   6.318
 5416SOL    HW228280   5.182   6.568   6.399
 5417SOL     OW28281   1.114   6.562   1.054
 5417SOL    HW128282   1.212   6.546   1.042
 5417SOL    HW228283   1.086   6.536   1.147
 5418SOL     OW28284   0.985   1.710   0.739
 5418SOL    HW128285   0.908   1.707   0.802
 5418SOL    HW228286   0.951   1.719   0.645
 5419SOL     OW28287   1.603   2.883   0.437
 5419SOL    HW128288   1.568   2.798   0.476
 5419SOL    HW228289   1.678   2.862   0.374
 5420SOL     OW28290   3.677   5.799   6.698
 5420SOL    HW128291   3.625   5.881   6.675
 5420SOL    HW228292   3.738   5.819   6.775
 5421SOL     OW28293   1.694   3.793   1.414
 5421SOL    HW128294   1.623   3.838   1.468
 5421SOL    HW228295   1.721   3.707   1.458
 5422SOL     OW28296   8.825   6.329   5.787
 5422SOL    HW128297   8.805   6.235   5.758
 5422SOL    HW228298   8.913   6.357   5.748
 5423SOL     OW28299   3.239   3.721   2.110
 5423SOL    HW128300   3.243   3.819   2.089
 5423SOL    HW228301   3.157   3.682   2.068
 5424SOL     OW28302   6.145   1.460   0.855
 5424SOL    HW128303   6.121   1.460   0.758
 5424SOL    HW228304   6.067   1.492   0.909
 5425SOL     OW28305   6.714   1.479   2.635
 5425SOL    HW128306   6.630   1.534   2.643
 5425SOL    HW228307   6.790   1.538   2.607
 5426SOL     OW28308   3.052   2.004   6.701
 5426SOL    HW128309   3.000   1.924   6.671
 5426SOL    HW228310   3.029   2.026   6.796
 5427SOL     OW28311   5.280   1.728   1.358
 5427SOL    HW128312   5.328   1.641   1.372
 5427SOL    HW228313   5.198   1.712   1.302
 5428SOL     OW28314   8.835   8.329   6.974
 5428SOL    HW128315   8.745   8.302   6.938
 5428SOL    HW228316   8.857   8.272   7.053
 5429SOL     OW28317   4.370   0.810   5.776
 5429SOL    HW128318   4.451   0.807   5.717
 5429SOL    HW228319   4.336   0.717   5.789
 5430SOL     OW28320   6.284   6.650   5.819
 5430SOL    HW128321   6.335   6.565   5.836
 5430SOL    HW228322   6.190   6.627   5.791
 5431SOL     OW28323   1.807   5.464   6.507
 5431SOL    HW128324   1.888   5.475   6.449
 5431SOL    HW228325   1.778   5.368   6.507
 5432SOL     OW28326   3.182   1.898   0.539
 5432SOL    HW128327   3.280   1.918   0.537
 5432SOL    HW228328   3.169   1.799   0.550
 5433SOL     OW28329   3.954   8.386   1.654
 5433SOL    HW128330   3.914   8.353   1.568
 5433SOL    HW228331   3.916   8.476   1.676
 5434SOL     OW28332   2.600   7.741   1.216
 5434SOL    HW128333   2.648   7.657   1.243
 5434SOL    HW228334   2.502   7.731   1.234
 5435SOL     OW28335   9.500   4.103   7.073
 5435SOL    HW128336   9.553   4.177   7.114
 5435SOL    HW228337   9.527   4.015   7.113
 5436SOL     OW28338   1.848   3.671   6.702
 5436SOL    HW128339   1.933   3.718   6.725
 5436SOL    HW228340   1.867   3.592   6.644
 5437SOL     OW28341   7.538   7.623   6.710
 5437SOL    HW128342   7.536   7.702   6.648
 5437SOL    HW228343   7.556   7.540   6.657
 5438SOL     OW28344   4.645   7.614   0.799
 5438SOL    HW128345   4.732   7.626   0.847
 5438SOL    HW228346   4.655   7.641   0.704
 5439SOL     OW28347   1.781   0.508   5.959
 5439SOL    HW128348   1.798   0.599   5.996
 5439SOL    HW228349   1.792   0.440   6.031
 5440SOL     OW28350   3.135   5.715   5.838
 5440SOL    HW128351   3.065   5.776   5.799
 5440SOL    HW228352   3.170   5.756   5.922
 5441SOL     OW28353   2.891   0.488   0.811
 5441SOL    HW128354   2.916   0.463   0.905
 5441SOL    HW228355   2.869   0.405   0.760
 5442SOL     OW28356   2.805   7.109   5.762
 5442SOL    HW128357   2.797   7.132   5.859
 5442SOL    HW228358   2.877   7.041   5.750
 5443SOL     OW28359   8.633   4.418   1.692
 5443SOL    HW128360   8.535   4.435   1.681
 5443SOL    HW228361   8.667   4.466   1.773
 5444SOL     OW28362   0.156   6.267   6.635
 5444SOL    HW128363   0.057   6.272   6.641
 5444SOL    HW228364   0.183   6.246   6.541
 5445SOL     OW28365   0.967   1.199   6.629
 5445SOL    HW128366   1.030   1.253   6.685
 5445SOL    HW228367   0.961   1.240   6.538
 5446SOL     OW28368   1.138   8.324   5.656
 5446SOL    HW128369   1.130   8.231   5.691
 5446SOL    HW228370   1.071   8.382   5.702
 5447SOL     OW28371   2.990   4.046   6.930
 5447SOL    HW128372   2.924   4.000   6.989
 5447SOL    HW228373   2.952   4.057   6.838
 5448SOL     OW28374   4.169   4.224   1.112
 5448SOL    HW128375   4.177   4.126   1.093
 5448SOL    HW228376   4.227   4.247   1.190
 5449SOL     OW28377   0.521   0.284   6.484
 5449SOL    HW128378   0.492   0.232   6.565
 5449SOL    HW228379   0.619   0.305   6.492
 5450SOL     OW28380   9.318   3.759   1.644
 5450SOL    HW128381   9.357   3.700   1.714
 5450SOL    HW228382   9.310   3.852   1.680
 5451SOL     OW28383   3.278   5.401   5.092
 5451SOL    HW128384   3.315   5.314   5.124
 5451SOL    HW228385   3.186   5.414   5.130
 5452SOL     OW28386   7.824   4.525   0.823
 5452SOL    HW128387   7.873   4.596   0.772
 5452SOL    HW228388   7.868   4.512   0.912
 5453SOL     OW28389   9.459   5.183   0.518
 5453SOL    HW128390   9.394   5.134   0.576
 5453SOL    HW228391   9.413   5.263   0.477
 5454SOL     OW28392   6.661   3.617   2.254
 5454SOL    HW128393   6.564   3.636   2.236
 5454SOL    HW228394   6.674   3.598   2.351
 5455SOL     OW28395   4.448   7.836   6.419
 5455SOL    HW128396   4.469   7.820   6.323
 5455SOL    HW228397   4.533   7.836   6.472
 5456SOL     OW28398   0.149   4.235   6.730
 5456SOL    HW128399   0.070   4.175   6.720
 5456SOL    HW228400   0.211   4.222   6.653
 5457SOL     OW28401   0.155   7.044   0.727
 5457SOL    HW128402   0.208   7.007   0.803
 5457SOL    HW228403   0.197   7.129   0.695
 5458SOL     OW28404   2.612   6.896   0.678
 5458SOL    HW128405   2.567   6.838   0.610
 5458SOL    HW228406   2.614   6.848   0.766
 5459SOL     OW28407   1.259   7.207   1.636
 5459SOL    HW128408   1.249   7.282   1.701
 5459SOL    HW228409   1.342   7.155   1.658
 5460SOL     OW28410   5.468   2.635   1.376
 5460SOL    HW128411   5.496   2.557   1.432
 5460SOL    HW228412   5.528   2.713   1.394
 5461SOL     OW28413   5.830   4.318   1.676
 5461SOL    HW128414   5.911   4.360   1.716
 5461SOL    HW228415   5.807   4.234   1.726
 5462SOL     OW28416   4.180   1.506   0.457
 5462SOL    HW128417   4.273   1.473   0.444
 5462SOL    HW228418   4.145   1.541   0.370
 5463SOL     OW28419   7.165   3.010   6.891
 5463SOL    HW128420   7.178   3.103   6.858
 5463SOL    HW228421   7.086   2.969   6.846
 5464SOL     OW28422   7.862   2.937   1.760
 5464SOL    HW128423   7.783   2.945   1.820
 5464SOL    HW228424   7.946   2.943   1.814
 5465SOL     OW28425   4.211   6.144   1.773
 5465SOL    HW128426   4.295   6.113   1.817
 5465SOL    HW228427   4.134   6.088   1.804
 5466SOL     OW28428   8.437   6.864   6.923
 5466SOL    HW128429   8.360   6.872   6.986
 5466SOL    HW228430   8.479   6.954   6.911
 5467SOL     OW28431   4.332   3.420   6.577
 5467SOL    HW128432   4.261   3.427   6.507
 5467SOL    HW228433   4.295   3.447   6.665
 5468SOL     OW28434   8.545   4.687   6.454
 5468SOL    HW128435   8.545   4.651   6.547
 5468SOL    HW228436   8.634   4.727   6.433
 5469SOL     OW28437   7.900   8.067   2.282
 5469SOL    HW128438   7.897   7.978   2.328
 5469SOL    HW228439   7.866   8.137   2.344
 5470SOL     OW28440   2.395   7.645   5.988
 5470SOL    HW128441   2.389   7.731   6.039
 5470SOL    HW228442   2.328   7.580   6.024
 5471SOL     OW28443   1.513   5.527   6.366
 5471SOL    HW128444   1.569   5.510   6.447
 5471SOL    HW228445   1.503   5.442   6.314
 5472SOL     OW28446   5.055   5.589   0.663
 5472SOL    HW128447   4.967   5.636   0.659
 5472SOL    HW228448   5.062   5.540   0.750
 5473SOL     OW28449   8.647   5.025   6.021
 5473SOL    HW128450   8.617   5.103   5.967
 5473SOL    HW228451   8.580   5.006   6.092
 5474SOL     OW28452   7.594   5.824   6.017
 5474SOL    HW128453   7.515   5.885   6.005
 5474SOL    HW228454   7.582   5.770   6.100
 5475SOL     OW28455   5.480   0.412   6.622
 5475SOL    HW128456   5.511   0.320   6.597
 5475SOL    HW228457   5.460   0.464   6.538
 5476SOL     OW28458   4.149   8.396   5.925
 5476SOL    HW128459   4.225   8.348   5.880
 5476SOL    HW228460   4.158   8.495   5.908
 5477SOL     OW28461   0.936   7.315   0.940
 5477SOL    HW128462   0.849   7.340   0.897
 5477SOL    HW228463   0.922   7.235   0.999
 5478SOL     OW28464   1.250   1.712   1.630
 5478SOL    HW128465   1.248   1.629   1.575
 5478SOL    HW228466   1.333   1.764   1.611
 5479SOL     OW28467   4.203   7.060   6.749
 5479SOL    HW128468   4.278   6.996   6.766
 5479SOL    HW228469   4.132   7.016   6.694
 5480SOL     OW28470   1.661   4.677   5.784
 5480SOL    HW128471   1.654   4.742   5.709
 5480SOL    HW228472   1.607   4.595   5.762
 5481SOL     OW28473   3.301   0.465   1.721
 5481SOL    HW128474   3.398   0.442   1.719
 5481SOL    HW228475   3.262   0.437   1.808
 5482SOL     OW28476   6.073   0.489   1.494
 5482SOL    HW128477   6.065   0.540   1.408
 5482SOL    HW228478   6.157   0.516   1.541
 5483SOL     OW28479   8.596   7.491   4.750
 5483SOL    HW128480   8.593   7.399   4.787
 5483SOL    HW228481   8.642   7.490   4.661
 5484SOL     OW28482   6.982   5.112   1.416
 5484SOL    HW128483   7.068   5.062   1.419
 5484SOL    HW228484   6.993   5.199   1.465
 5485SOL     OW28485   8.451   5.785   6.216
 5485SOL    HW128486   8.547   5.755   6.222
 5485SOL    HW228487   8.431   5.811   6.121
 5486SOL     OW28488   9.308   7.221   6.869
 5486SOL    HW128489   9.290   7.177   6.781
 5486SOL    HW228490   9.334   7.316   6.855
 5487SOL     OW28491   6.779   1.458   6.234
 5487SOL    HW128492   6.756   1.495   6.143
 5487SOL    HW228493   6.779   1.358   6.230
 5488SOL     OW28494   9.212   3.654   1.190
 5488SOL    HW128495   9.263   3.700   1.263
 5488SOL    HW228496   9.123   3.624   1.226
 5489SOL     OW28497   0.371   3.823   6.319
 5489SOL    HW128498   0.422   3.847   6.236
 5489SOL    HW228499   0.392   3.729   6.345
 5490SOL     OW28500   9.458   1.829   0.442
 5490SOL    HW128501   9.361   1.853   0.436
 5490SOL    HW228502   9.467   1.730   0.436
 5491SOL     OW28503   0.706   2.599   0.531
 5491SOL    HW128504   0.765   2.569   0.606
 5491SOL    HW228505   0.619   2.551   0.536
 5492SOL     OW28506   5.309   0.737   6.640
 5492SOL    HW128507   5.305   0.799   6.718
 5492SOL    HW228508   5.360   0.781   6.566
 5493SOL     OW28509   0.708   6.494   1.245
 5493SOL    HW128510   0.653   6.417   1.278
 5493SOL    HW228511   0.708   6.567   1.313
 5494SOL     OW28512   1.878   4.585   1.378
 5494SOL    HW128513   1.862   4.624   1.287
 5494SOL    HW228514   1.827   4.637   1.446
 5495SOL     OW28515   1.341   3.278   6.540
 5495SOL    HW128516   1.266   3.331   6.580
 5495SOL    HW228517   1.347   3.297   6.442
 5496SOL     OW28518   5.979   6.331   5.360
 5496SOL    HW128519   5.914   6.260   5.335
 5496SOL    HW228520   5.934   6.399   5.418
 5497SOL     OW28521   6.396   4.247   6.887
 5497SOL    HW128522   6.355   4.210   6.971
 5497SOL    HW228523   6.323   4.271   6.823
 5498SOL     OW28524   3.356   1.163   1.594
 5498SOL    HW128525   3.402   1.237   1.644
 5498SOL    HW228526   3.425   1.107   1.548
 5499SOL     OW28527   7.936   1.310   0.620
 5499SOL    HW128528   7.918   1.404   0.589
 5499SOL    HW228529   7.876   1.247   0.572
 5500SOL     OW28530   1.981   5.567   0.511
 5500SOL    HW128531   1.945   5.659   0.529
 5500SOL    HW228532   2.029   5.533   0.592
 5501SOL     OW28533   8.783   8.205   6.445
 5501SOL    HW128534   8.724   8.178   6.521
 5501SOL    HW228535   8.750   8.162   6.361
 5502SOL     OW28536   2.210   1.149   1.356
 5502SOL    HW128537   2.142   1.103   1.413
 5502SOL    HW228538   2.265   1.209   1.413
 5503SOL     OW28539   3.006   0.718   0.704
 5503SOL    HW128540   3.003   0.620   0.722
 5503SOL    HW228541   3.091   0.756   0.741
 5504SOL     OW28542   2.563   7.287   6.606
 5504SOL    HW128543   2.485   7.325   6.556
 5504SOL    HW228544   2.532   7.221   6.674
 5505SOL     OW28545   9.049   1.123   0.584
 5505SOL    HW128546   8.967   1.125   0.526
 5505SOL    HW228547   9.086   1.030   0.584
 5506SOL     OW28548   7.179   7.311   1.711
 5506SOL    HW128549   7.202   7.217   1.736
 5506SOL    HW228550   7.119   7.350   1.782
 5507SOL     OW28551   3.696   3.999   7.069
 5507SOL    HW128552   3.748   4.071   7.024
 5507SOL    HW228553   3.601   4.030   7.082
 5508SOL     OW28554   5.984   0.839   5.821
 5508SOL    HW128555   5.886   0.841   5.800
 5508SOL    HW228556   6.031   0.906   5.764
 5509SOL     OW28557   3.642   0.373   6.993
 5509SOL    HW128558   3.565   0.347   7.050
 5509SOL    HW228559   3.616   0.368   6.897
 5510SOL     OW28560   9.012   7.349   6.239
 5510SOL    HW128561   8.945   7.361   6.312
 5510SOL    HW228562   9.094   7.403   6.258
 5511SOL     OW28563   1.523   4.689   6.237
 5511SOL    HW128564   1.424   4.700   6.242
 5511SOL    HW228565   1.568   4.760   6.291
 5512SOL     OW28566   2.167   4.734   1.692
 5512SOL    HW128567   2.148   4.799   1.619
 5512SOL    HW228568   2.159   4.779   1.781
 5513SOL     OW28569   2.547   3.147   0.700
 5513SOL    HW128570   2.472   3.104   0.750
 5513SOL    HW228571   2.632   3.135   0.751
 5514SOL     OW28572   7.266   8.011   1.221
 5514SOL    HW128573   7.344   7.992   1.161
 5514SOL    HW228574   7.235   7.925   1.262
 5515SOL     OW28575   6.852   3.361   1.566
 5515SOL    HW128576   6.765   3.389   1.524
 5515SOL    HW228577   6.894   3.439   1.612
 5516SOL     OW28578   8.541   0.448   6.528
 5516SOL    HW128579   8.582   0.514   6.592
 5516SOL    HW228580   8.541   0.487   6.436
 5517SOL     OW28581   2.019   3.097   1.019
 5517SOL    HW128582   2.115   3.110   0.994
 5517SOL    HW228583   2.013   3.072   1.116
 5518SOL     OW28584   2.143   0.993   0.737
 5518SOL    HW128585   2.099   0.984   0.648
 5518SOL    HW228586   2.243   0.988   0.725
 5519SOL     OW28587   3.226   1.249   2.123
 5519SOL    HW128588   3.290   1.325   2.109
 5519SOL    HW228589   3.141   1.285   2.162
 5520SOL     OW28590   6.096   3.889   0.861
 5520SOL    HW128591   6.032   3.910   0.787
 5520SOL    HW228592   6.109   3.790   0.867
 5521SOL     OW28593   9.538   5.245   1.558
 5521SOL    HW128594   9.536   5.331   1.610
 5521SOL    HW228595   9.628   5.203   1.566
 5522SOL     OW28596   0.973   2.831   6.490
 5522SOL    HW128597   0.917   2.781   6.556
 5522SOL    HW228598   0.914   2.884   6.429
 5523SOL     OW28599   6.987   7.416   6.936
 5523SOL    HW128600   7.052   7.447   6.866
 5523SOL    HW228601   6.946   7.496   6.981
 5524SOL     OW28602   4.360   0.842   0.789
 5524SOL    HW128603   4.275   0.803   0.754
 5524SOL    HW228604   4.435   0.779   0.771
 5525SOL     OW28605   8.282   2.212   6.844
 5525SOL    HW128606   8.301   2.117   6.866
 5525SOL    HW228607   8.254   2.261   6.926
 5526SOL     OW28608   7.380   7.566   1.278
 5526SOL    HW128609   7.319   7.632   1.323
 5526SOL    HW228610   7.378   7.480   1.330
 5527SOL     OW28611   4.735   0.773   6.569
 5527SOL    HW128612   4.794   0.846   6.603
 5527SOL    HW228613   4.708   0.714   6.644
 5528SOL     OW28614   7.756   5.383   5.839
 5528SOL    HW128615   7.783   5.381   5.743
 5528SOL    HW228616   7.715   5.472   5.860
 5529SOL     OW28617   4.139   1.217   2.052
 5529SOL    HW128618   4.083   1.221   2.134
 5529SOL    HW228619   4.117   1.134   2.000
 5530SOL     OW28620   6.978   1.823   2.254
 5530SOL    HW128621   6.981   1.830   2.154
 5530SOL    HW228622   6.906   1.758   2.281
 5531SOL     OW28623   4.408   1.662   1.811
 5531SOL    HW128624   4.442   1.751   1.840
 5531SOL    HW228625   4.320   1.672   1.766
 5532SOL     OW28626   6.187   7.405   5.450
 5532SOL    HW128627   6.103   7.456   5.466
 5532SOL    HW228628   6.265   7.468   5.451
 5533SOL     OW28629   8.944   6.608   6.952
 5533SOL    HW128630   8.845   6.612   6.937
 5533SOL    HW228631   8.991   6.613   6.864
 5534SOL     OW28632   7.854   3.243   0.797
 5534SOL    HW128633   7.916   3.321   0.792
 5534SOL    HW228634   7.770   3.271   0.843
 5535SOL     OW28635   6.419   6.879   5.871
 5535SOL    HW128636   6.514   6.866   5.900
 5535SOL    HW228637   6.371   6.791   5.872
 5536SOL     OW28638   5.774   3.246   1.164
 5536SOL    HW128639   5.778   3.166   1.225
 5536SOL    HW228640   5.703   3.308   1.196
 5537SOL     OW28641   0.654   7.304   0.551
 5537SOL    HW128642   0.558   7.322   0.532
 5537SOL    HW228643   0.671   7.313   0.649
 5538SOL     OW28644   0.913   5.125   5.229
 5538SOL    HW128645   0.926   5.207   5.173
 5538SOL    HW228646   0.904   5.045   5.170
 5539SOL     OW28647   1.153   7.555   4.490
 5539SOL    HW128648   1.231   7.550   4.428
 5539SOL    HW228649   1.103   7.640   4.475
 5540SOL     OW28650   7.503   0.041   6.470
 5540SOL    HW128651   7.518   0.032   6.569
 5540SOL    HW228652   7.428  -0.020   6.442
 5541SOL     OW28653   3.090   1.085   6.166
 5541SOL    HW128654   3.140   1.036   6.094
 5541SOL    HW228655   3.048   1.020   6.228
 5542SOL     OW28656   6.627   1.321   0.800
 5542SOL    HW128657   6.684   1.363   0.871
 5542SOL    HW228658   6.531   1.330   0.826
 5543SOL     OW28659   6.610   8.346   1.215
 5543SOL    HW128660   6.651   8.258   1.191
 5543SOL    HW228661   6.530   8.362   1.158
 5544SOL     OW28662   3.779   4.081   2.177
 5544SOL    HW128663   3.798   4.109   2.271
 5544SOL    HW228664   3.688   4.113   2.151
 5545SOL     OW28665   9.272   5.463   0.913
 5545SOL    HW128666   9.330   5.382   0.906
 5545SOL    HW228667   9.282   5.503   1.005
 5546SOL     OW28668   0.390   0.894   1.725
 5546SOL    HW128669   0.293   0.915   1.708
 5546SOL    HW228670   0.398   0.840   1.809
 5547SOL     OW28671   9.137   1.785   1.215
 5547SOL    HW128672   9.062   1.831   1.167
 5547SOL    HW228673   9.135   1.810   1.312
 5548SOL     OW28674   1.885   4.822   5.039
 5548SOL    HW128675   1.844   4.857   4.955
 5548SOL    HW228676   1.835   4.742   5.070
 5549SOL     OW28677   2.491   7.569   1.609
 5549SOL    HW128678   2.410   7.555   1.551
 5549SOL    HW228679   2.463   7.612   1.695
 5550SOL     OW28680   6.970   7.080   6.420
 5550SOL    HW128681   6.893   7.099   6.359
 5550SOL    HW228682   7.045   7.142   6.400
 5551SOL     OW28683   6.186   8.251   1.943
 5551SOL    HW128684   6.226   8.268   2.032
 5551SOL    HW228685   6.253   8.273   1.871
 5552SOL     OW28686   3.184   4.240   5.981
 5552SOL    HW128687   3.222   4.186   5.906
 5552SOL    HW228688   3.232   4.218   6.066
 5553SOL     OW28689   2.827   0.859   6.769
 5553SOL    HW128690   2.778   0.832   6.852
 5553SOL    HW228691   2.837   0.958   6.766
 5554SOL     OW28692   3.006   1.707   6.817
 5554SOL    HW128693   2.975   1.620   6.855
 5554SOL    HW228694   2.941   1.737   6.746
 5555SOL     OW28695   4.470   4.099   6.671
 5555SOL    HW128696   4.455   4.115   6.573
 5555SOL    HW228697   4.542   4.160   6.704
 5556SOL     OW28698   4.736   1.771   0.483
 5556SOL    HW128699   4.734   1.787   0.582
 5556SOL    HW228700   4.670   1.831   0.438
 5557SOL     OW28701   0.187   6.142   0.515
 5557SOL    HW128702   0.256   6.071   0.527
 5557SOL    HW228703   0.119   6.112   0.448
 5558SOL     OW28704   7.040   6.980   5.926
 5558SOL    HW128705   7.072   7.052   5.987
 5558SOL    HW228706   7.119   6.931   5.888
 5559SOL     OW28707   5.913   7.725   1.654
 5559SOL    HW128708   5.944   7.696   1.744
 5559SOL    HW228709   5.932   7.822   1.642
 5560SOL     OW28710   7.486   4.856   1.331
 5560SOL    HW128711   7.412   4.898   1.278
 5560SOL    HW228712   7.514   4.919   1.403
 5561SOL     OW28713   6.610   5.790   1.088
 5561SOL    HW128714   6.555   5.840   1.155
 5561SOL    HW228715   6.643   5.854   1.019
 5562SOL     OW28716   4.172   0.183   6.571
 5562SOL    HW128717   4.195   0.114   6.641
 5562SOL    HW228718   4.224   0.165   6.488
 5563SOL     OW28719   0.622   3.364   0.840
 5563SOL    HW128720   0.606   3.454   0.799
 5563SOL    HW228721   0.536   3.330   0.878
 5564SOL     OW28722   4.032   3.894   6.871
 5564SOL    HW128723   4.006   3.971   6.929
 5564SOL    HW228724   4.117   3.854   6.905
 5565SOL     OW28725   7.170   3.439   0.919
 5565SOL    HW128726   7.193   3.366   0.983
 5565SOL    HW228727   7.253   3.488   0.892
 5566SOL     OW28728   8.208   2.163   1.383
 5566SOL    HW128729   8.296   2.204   1.362
 5566SOL    HW228730   8.138   2.234   1.391
 5567SOL     OW28731   0.880   3.363   0.986
 5567SOL    HW128732   0.950   3.387   0.919
 5567SOL    HW228733   0.790   3.384   0.950
 5568SOL     OW28734   2.336   0.151   6.253
 5568SOL    HW128735   2.257   0.123   6.197
 5568SOL    HW228736   2.328   0.248   6.276
 5569SOL     OW28737   1.482   2.641   0.581
 5569SOL    HW128738   1.565   2.644   0.635
 5569SOL    HW228739   1.432   2.556   0.600
 5570SOL     OW28740   3.141   3.630   6.079
 5570SOL    HW128741   3.160   3.550   6.022
 5570SOL    HW228742   3.132   3.711   6.022
 5571SOL     OW28743   2.253   1.496   6.754
 5571SOL    HW128744   2.242   1.462   6.660
 5571SOL    HW228745   2.167   1.487   6.803
 5572SOL     OW28746   1.820   4.213   6.368
 5572SOL    HW128747   1.734   4.236   6.323
 5572SOL    HW228748   1.884   4.289   6.360
 5573SOL     OW28749   1.680   7.209   1.606
 5573SOL    HW128750   1.637   7.135   1.657
 5573SOL    HW228751   1.618   7.287   1.602
 5574SOL     OW28752   7.150   6.998   0.494
 5574SOL    HW128753   7.223   6.931   0.482
 5574SOL    HW228754   7.181   7.072   0.553
 5575SOL     OW28755   8.801   3.794   6.103
 5575SOL    HW128756   8.722   3.826   6.051
 5575SOL    HW228757   8.868   3.753   6.041
 5576SOL     OW28758   5.904   8.400   2.238
 5576SOL    HW128759   5.835   8.330   2.255
 5576SOL    HW228760   5.922   8.450   2.323
 5577SOL     OW28761   7.346   0.278   1.659
 5577SOL    HW128762   7.389   0.197   1.699
 5577SOL    HW228763   7.254   0.290   1.699
 5578SOL     OW28764   2.080   3.664   6.381
 5578SOL    HW128765   2.018   3.632   6.309
 5578SOL    HW228766   2.043   3.640   6.471
 5579SOL     OW28767   3.696   2.973   1.415
 5579SOL    HW128768   3.612   2.993   1.364
 5579SOL    HW228769   3.741   2.893   1.376
 5580SOL     OW28770   1.159   8.224   6.440
 5580SOL    HW128771   1.109   8.275   6.510
 5580SOL    HW228772   1.247   8.267   6.424
 5581SOL     OW28773   7.307   5.310   6.280
 5581SOL    HW128774   7.233   5.318   6.347
 5581SOL    HW228775   7.272   5.268   6.197
 5582SOL     OW28776   6.834   7.335   5.644
 5582SOL    HW128777   6.809   7.243   5.675
 5582SOL    HW228778   6.789   7.354   5.557
 5583SOL     OW28779   1.448   6.858   6.539
 5583SOL    HW128780   1.463   6.919   6.617
 5583SOL    HW228781   1.490   6.769   6.558
 5584SOL     OW28782   2.549   1.742   1.234
 5584SOL    HW128783   2.541   1.644   1.221
 5584SOL    HW228784   2.462   1.779   1.267
 5585SOL     OW28785   8.491   1.120   6.194
 5585SOL    HW128786   8.537   1.044   6.148
 5585SOL    HW228787   8.401   1.134   6.153
 5586SOL     OW28788   2.970   5.883   6.591
 5586SOL    HW128789   2.987   5.981   6.582
 5586SOL    HW228790   3.014   5.849   6.675
 5587SOL     OW28791   3.390   1.333   2.379
 5587SOL    HW128792   3.392   1.233   2.385
 5587SOL    HW228793   3.466   1.371   2.431
 5588SOL     OW28794   4.646   5.993   2.051
 5588SOL    HW128795   4.712   5.946   2.110
 5588SOL    HW228796   4.693   6.029   1.971
 5589SOL     OW28797   1.195   4.519   0.803
 5589SOL    HW128798   1.096   4.522   0.788
 5589SOL    HW228799   1.242   4.502   0.717
 5590SOL     OW28800   1.571   0.675   6.201
 5590SOL    HW128801   1.559   0.774   6.202
 5590SOL    HW228802   1.482   0.630   6.203
 5591SOL     OW28803   6.313   7.468   0.772
 5591SOL    HW128804   6.288   7.376   0.740
 5591SOL    HW228805   6.230   7.520   0.792
 5592SOL     OW28806   1.409   0.204   6.174
 5592SOL    HW128807   1.401   0.276   6.243
 5592SOL    HW228808   1.499   0.161   6.181
 5593SOL     OW28809   3.499   2.921   1.854
 5593SOL    HW128810   3.495   2.930   1.754
 5593SOL    HW228811   3.592   2.943   1.885
 5594SOL     OW28812   2.954   3.430   0.764
 5594SOL    HW128813   3.003   3.352   0.803
 5594SOL    HW228814   2.994   3.455   0.676
 5595SOL     OW28815   5.279   3.404   0.563
 5595SOL    HW128816   5.274   3.322   0.506
 5595SOL    HW228817   5.187   3.438   0.581
 5596SOL     OW28818   6.810   4.920   6.383
 5596SOL    HW128819   6.831   4.919   6.286
 5596SOL    HW228820   6.828   5.011   6.421
 5597SOL     OW28821   2.887   5.557   6.464
 5597SOL    HW128822   2.892   5.646   6.510
 5597SOL    HW228823   2.979   5.519   6.455
 5598SOL     OW28824   3.639   7.851   6.900
 5598SOL    HW128825   3.627   7.934   6.846
 5598SOL    HW228826   3.552   7.802   6.905
 5599SOL     OW28827   7.025   3.946   0.998
 5599SOL    HW128828   7.040   3.951   0.899
 5599SOL    HW228829   7.101   3.989   1.046
 5600SOL     OW28830   4.339   0.525   6.957
 5600SOL    HW128831   4.336   0.458   6.883
 5600SOL    HW228832   4.361   0.615   6.921
 5601SOL     OW28833   6.343   5.986   1.041
 5601SOL    HW128834   6.349   6.037   0.955
 5601SOL    HW228835   6.426   6.003   1.095
 5602SOL     OW28836   0.829   0.740   6.102
 5602SOL    HW128837   0.832   0.840   6.110
 5602SOL    HW228838   0.734   0.709   6.111
 5603SOL     OW28839   8.219   6.092   0.807
 5603SOL    HW128840   8.240   6.141   0.891
 5603SOL    HW228841   8.121   6.074   0.802
 5604SOL     OW28842   4.424   0.015   1.426
 5604SOL    HW128843   4.489  -0.050   1.464
 5604SOL    HW228844   4.333  -0.026   1.426
 5605SOL     OW28845   3.249   7.337   2.024
 5605SOL    HW128846   3.171   7.384   1.983
 5605SOL    HW228847   3.270   7.378   2.113
 5606SOL     OW28848   4.630   5.432   5.670
 5606SOL    HW128849   4.578   5.387   5.597
 5606SOL    HW228850   4.713   5.471   5.632
 5607SOL     OW28851   3.095   7.246   5.778
 5607SOL    HW128852   3.084   7.147   5.774
 5607SOL    HW228853   3.156   7.276   5.705
 5608SOL     OW28854   9.462   7.272   6.488
 5608SOL    HW128855   9.520   7.349   6.517
 5608SOL    HW228856   9.514   7.187   6.494
 5609SOL     OW28857   2.848   0.808   1.867
 5609SOL    HW128858   2.887   0.729   1.913
 5609SOL    HW228859   2.749   0.797   1.859
 5610SOL     OW28860   8.223   4.671   0.975
 5610SOL    HW128861   8.285   4.616   0.919
 5610SOL    HW228862   8.129   4.659   0.942
 5611SOL     OW28863   2.399   2.575   1.430
 5611SOL    HW128864   2.325   2.509   1.443
 5611SOL    HW228865   2.383   2.654   1.489
 5612SOL     OW28866   4.813   0.449   5.822
 5612SOL    HW128867   4.869   0.516   5.772
 5612SOL    HW228868   4.733   0.496   5.862
 5613SOL     OW28869   8.678   3.441   0.635
 5613SOL    HW128870   8.579   3.431   0.639
 5613SOL    HW228871   8.711   3.405   0.547
 5614SOL     OW28872   4.860   0.687   5.175
 5614SOL    HW128873   4.780   0.745   5.185
 5614SOL    HW228874   4.929   0.733   5.120
 5615SOL     OW28875   0.300   5.650   5.249
 5615SOL    HW128876   0.278   5.639   5.346
 5615SOL    HW228877   0.398   5.664   5.238
 5616SOL     OW28878   5.478   5.205   1.659
 5616SOL    HW128879   5.536   5.194   1.740
 5616SOL    HW228880   5.536   5.218   1.578
 5617SOL     OW28881   0.174   3.636   6.907
 5617SOL    HW128882   0.088   3.585   6.902
 5617SOL    HW228883   0.178   3.701   6.830
 5618SOL     OW28884   1.756   6.810   5.411
 5618SOL    HW128885   1.840   6.757   5.425
 5618SOL    HW228886   1.739   6.819   5.312
 5619SOL     OW28887   4.420   2.963   0.583
 5619SOL    HW128888   4.364   2.884   0.557
 5619SOL    HW228889   4.408   3.036   0.515
 5620SOL     OW28890   2.534   2.327   1.237
 5620SOL    HW128891   2.512   2.270   1.158
 5620SOL    HW228892   2.588   2.406   1.208
 5621SOL     OW28893   7.246   4.057   1.165
 5621SOL    HW128894   7.279   3.992   1.233
 5621SOL    HW228895   7.264   4.150   1.197
 5622SOL     OW28896   0.677   6.024   7.138
 5622SOL    HW128897   0.670   5.982   7.047
 5622SOL    HW228898   0.595   6.002   7.190
 5623SOL     OW28899   1.708   7.309   0.893
 5623SOL    HW128900   1.666   7.240   0.952
 5623SOL    HW228901   1.775   7.361   0.946
 5624SOL     OW28902   5.295   6.482   5.507
 5624SOL    HW128903   5.205   6.512   5.478
 5624SOL    HW228904   5.322   6.401   5.454
 5625SOL     OW28905   1.473   1.106   1.255
 5625SOL    HW128906   1.436   1.094   1.347
 5625SOL    HW228907   1.477   1.017   1.209
 5626SOL     OW28908   3.850   2.874   6.593
 5626SOL    HW128909   3.837   2.858   6.495
 5626SOL    HW228910   3.915   2.948   6.607
 5627SOL     OW28911   0.871   7.170   1.850
 5627SOL    HW128912   0.821   7.246   1.892
 5627SOL    HW228913   0.880   7.096   1.916
 5628SOL     OW28914   5.781   0.493   1.345
 5628SOL    HW128915   5.758   0.416   1.404
 5628SOL    HW228916   5.865   0.472   1.295
 5629SOL     OW28917   8.828   7.080   6.939
 5629SOL    HW128918   8.896   7.118   7.001
 5629SOL    HW228919   8.737   7.111   6.966
 5630SOL     OW28920   9.352   2.275   6.334
 5630SOL    HW128921   9.404   2.196   6.302
 5630SOL    HW228922   9.260   2.272   6.294
 5631SOL     OW28923   2.279   7.129   5.886
 5631SOL    HW128924   2.291   7.159   5.792
 5631SOL    HW228925   2.321   7.039   5.898
 5632SOL     OW28926   1.182   6.920   4.954
 5632SOL    HW128927   1.257   6.892   4.894
 5632SOL    HW228928   1.188   6.871   5.041
 5633SOL     OW28929   9.442   0.233   1.123
 5633SOL    HW128930   9.386   0.160   1.084
 5633SOL    HW228931   9.538   0.214   1.105
 5634SOL     OW28932   1.942   7.771   1.339
 5634SOL    HW128933   1.965   7.696   1.401
 5634SOL    HW228934   1.973   7.750   1.247
 5635SOL     OW28935   3.772   7.129   1.446
 5635SOL    HW128936   3.826   7.082   1.516
 5635SOL    HW228937   3.781   7.228   1.458
 5636SOL     OW28938   5.631   7.354   7.055
 5636SOL    HW128939   5.570   7.346   6.976
 5636SOL    HW228940   5.680   7.268   7.068
 5637SOL     OW28941   9.562   1.310   1.002
 5637SOL    HW128942   9.487   1.374   1.020
 5637SOL    HW228943   9.648   1.349   1.035
 5638SOL     OW28944   3.984   4.536   0.929
 5638SOL    HW128945   4.039   4.618   0.942
 5638SOL    HW228946   3.912   4.532   0.999
 5639SOL     OW28947   6.715   1.558   5.976
 5639SOL    HW128948   6.654   1.532   5.901
 5639SOL    HW228949   6.777   1.630   5.946
 5640SOL     OW28950   4.382   4.693   0.973
 5640SOL    HW128951   4.362   4.653   0.884
 5640SOL    HW228952   4.297   4.710   1.022
 5641SOL     OW28953   6.071   6.597   1.393
 5641SOL    HW128954   6.127   6.623   1.315
 5641SOL    HW228955   6.025   6.511   1.374
 5642SOL     OW28956   4.644   3.086   6.937
 5642SOL    HW128957   4.612   2.997   6.903
 5642SOL    HW228958   4.690   3.135   6.863
 5643SOL     OW28959   9.241   5.393   6.810
 5643SOL    HW128960   9.339   5.379   6.802
 5643SOL    HW228961   9.223   5.474   6.866
 5644SOL     OW28962   9.462   8.368   1.100
 5644SOL    HW128963   9.498   8.414   1.181
 5644SOL    HW228964   9.390   8.424   1.059
 5645SOL     OW28965   6.657   2.457   1.699
 5645SOL    HW128966   6.591   2.444   1.625
 5645SOL    HW228967   6.623   2.526   1.763
 5646SOL     OW28968   5.606   4.675   1.708
 5646SOL    HW128969   5.621   4.770   1.735
 5646SOL    HW228970   5.584   4.621   1.789
 5647SOL     OW28971   0.627   7.031   4.304
 5647SOL    HW128972   0.716   6.988   4.318
 5647SOL    HW228973   0.639   7.130   4.297
 5648SOL     OW28974   5.079   0.696   1.609
 5648SOL    HW128975   5.155   0.703   1.673
 5648SOL    HW228976   5.016   0.625   1.640
 5649SOL     OW28977   9.052   4.234   6.306
 5649SOL    HW128978   9.135   4.185   6.279
 5649SOL    HW228979   8.975   4.201   6.251
 5650SOL     OW28980   7.773   7.186   6.475
 5650SOL    HW128981   7.813   7.233   6.554
 5650SOL    HW228982   7.801   7.090   6.477
 5651SOL     OW28983   5.635   5.077   0.560
 5651SOL    HW128984   5.575   5.018   0.614
 5651SOL    HW228985   5.719   5.093   0.610
 5652SOL     OW28986   7.897   3.222   0.465
 5652SOL    HW128987   7.907   3.319   0.488
 5652SOL    HW228988   7.817   3.185   0.512
 5653SOL     OW28989   6.838   3.349   6.290
 5653SOL    HW128990   6.844   3.328   6.192
 5653SOL    HW228991   6.744   3.339   6.320
 5654SOL     OW28992   6.414   4.124   5.236
 5654SOL    HW128993   6.372   4.177   5.163
 5654SOL    HW228994   6.358   4.131   5.319
 5655SOL     OW28995   1.654   6.306   1.595
 5655SOL    HW128996   1.743   6.270   1.569
 5655SOL    HW228997   1.631   6.275   1.688
 5656SOL     OW28998   0.904   7.711   7.099
 5656SOL    HW128999   0.884   7.613   7.101
 5656SOL    HW229000   0.993   7.728   7.142
 5657SOL     OW29001   3.192   6.395   6.366
 5657SOL    HW129002   3.188   6.355   6.274
 5657SOL    HW229003   3.271   6.358   6.414
 5658SOL     OW29004   2.528   4.566   5.988
 5658SOL    HW129005   2.559   4.503   5.916
 5658SOL    HW229006   2.599   4.573   6.058
 5659SOL     OW29007   0.158   8.383   1.328
 5659SOL    HW129008   0.241   8.386   1.273
 5659SOL    HW229009   0.127   8.288   1.335
 5660SOL     OW29010   4.796   0.285   0.629
 5660SOL    HW129011   4.861   0.239   0.690
 5660SOL    HW229012   4.730   0.218   0.594
 5661SOL     OW29013   0.259   4.222   6.463
 5661SOL    HW129014   0.241   4.314   6.430
 5661SOL    HW229015   0.350   4.193   6.435
 5662SOL     OW29016   6.911   4.976   5.752
 5662SOL    HW129017   6.825   4.924   5.751
 5662SOL    HW229018   6.916   5.034   5.671
 5663SOL     OW29019   3.828   3.376   1.020
 5663SOL    HW129020   3.827   3.352   0.923
 5663SOL    HW229021   3.798   3.470   1.032
 5664SOL     OW29022   7.441   5.019   1.716
 5664SOL    HW129023   7.412   5.012   1.812
 5664SOL    HW229024   7.518   4.958   1.701
 5665SOL     OW29025   8.175   6.573   6.552
 5665SOL    HW129026   8.104   6.554   6.485
 5665SOL    HW229027   8.247   6.628   6.510
 5666SOL     OW29028   0.937   6.775   1.746
 5666SOL    HW129029   0.986   6.862   1.735
 5666SOL    HW229030   0.983   6.720   1.815
 5667SOL     OW29031   1.055   7.607   1.322
 5667SOL    HW129032   1.084   7.532   1.263
 5667SOL    HW229033   1.091   7.592   1.415
 5668SOL     OW29034   5.081   0.129   6.799
 5668SOL    HW129035   5.026   0.183   6.861
 5668SOL    HW229036   5.147   0.188   6.752
 5669SOL     OW29037   4.588   2.110   1.148
 5669SOL    HW129038   4.557   2.021   1.116
 5669SOL    HW229039   4.657   2.098   1.220
 5670SOL     OW29040   6.831   6.692   6.563
 5670SOL    HW129041   6.858   6.679   6.467
 5670SOL    HW229042   6.887   6.634   6.621
 5671SOL     OW29043   8.405   3.068   6.055
 5671SOL    HW129044   8.390   3.100   5.961
 5671SOL    HW229045   8.391   2.969   6.059
 5672SOL     OW29046   8.675   0.556   0.712
 5672SOL    HW129047   8.745   0.507   0.764
 5672SOL    HW229048   8.627   0.493   0.652
 5673SOL     OW29049   3.382   8.431   7.038
 5673SOL    HW129050   3.295   8.459   7.079
 5673SOL    HW229051   3.370   8.420   6.939
 5674SOL     OW29052   8.432   6.602   1.863
 5674SOL    HW129053   8.423   6.549   1.947
 5674SOL    HW229054   8.344   6.605   1.815
 5675SOL     OW29055   2.268   2.277   6.634
 5675SOL    HW129056   2.283   2.179   6.638
 5675SOL    HW229057   2.189   2.296   6.575
 5676SOL     OW29058   7.286   7.903   6.231
 5676SOL    HW129059   7.296   7.803   6.229
 5676SOL    HW229060   7.194   7.926   6.262
 5677SOL     OW29061   5.151   2.003   0.671
 5677SOL    HW129062   5.089   2.064   0.720
 5677SOL    HW229063   5.233   2.053   0.645
 5678SOL     OW29064   4.835   6.773   6.019
 5678SOL    HW129065   4.836   6.688   6.072
 5678SOL    HW229066   4.753   6.825   6.042
 5679SOL     OW29067   5.156   4.544   0.638
 5679SOL    HW129068   5.250   4.543   0.673
 5679SOL    HW229069   5.122   4.638   0.636
 5680SOL     OW29070   8.273   2.256   5.818
 5680SOL    HW129071   8.194   2.208   5.780
 5680SOL    HW229072   8.355   2.233   5.765
 5681SOL     OW29073   3.818   0.482   1.893
 5681SOL    HW129074   3.768   0.493   1.979
 5681SOL    HW229075   3.907   0.526   1.900
 5682SOL     OW29076   2.182   7.518   6.156
 5682SOL    HW129077   2.127   7.539   6.237
 5682SOL    HW229078   2.188   7.419   6.144
 5683SOL     OW29079   3.219   8.064   0.990
 5683SOL    HW129080   3.221   7.964   0.984
 5683SOL    HW229081   3.309   8.098   1.015
 5684SOL     OW29082   7.084   4.457   5.853
 5684SOL    HW129083   7.160   4.512   5.819
 5684SOL    HW229084   7.076   4.373   5.799
 5685SOL     OW29085   3.241   6.862   7.158
 5685SOL    HW129086   3.207   6.768   7.160
 5685SOL    HW229087   3.333   6.863   7.120
 5686SOL     OW29088   3.982   8.154   6.093
 5686SOL    HW129089   3.985   8.248   6.059
 5686SOL    HW229090   4.072   8.128   6.128
 5687SOL     OW29091   5.348   7.606   0.591
 5687SOL    HW129092   5.293   7.690   0.593
 5687SOL    HW229093   5.434   7.622   0.639
 5688SOL     OW29094   2.234   6.205   6.841
 5688SOL    HW129095   2.211   6.228   6.747
 5688SOL    HW229096   2.252   6.289   6.893
 5689SOL     OW29097   7.284   0.866   7.003
 5689SOL    HW129098   7.325   0.818   7.081
 5689SOL    HW229099   7.265   0.801   6.929
 5690SOL     OW29100   5.257   3.067   6.877
 5690SOL    HW129101   5.179   3.109   6.831
 5690SOL    HW229102   5.248   2.967   6.873
 5691SOL     OW29103   7.851   4.721   1.240
 5691SOL    HW129104   7.870   4.817   1.221
 5691SOL    HW229105   7.828   4.710   1.337
 5692SOL     OW29106   3.799   7.971   0.987
 5692SOL    HW129107   3.726   7.967   0.919
 5692SOL    HW229108   3.768   7.925   1.070
 5693SOL     OW29109   2.059   8.238   2.106
 5693SOL    HW129110   2.156   8.229   2.130
 5693SOL    HW229111   2.027   8.153   2.065
 5694SOL     OW29112   9.437   0.447   6.265
 5694SOL    HW129113   9.438   0.468   6.167
 5694SOL    HW229114   9.513   0.385   6.287
 5695SOL     OW29115   0.309   0.831   0.666
 5695SOL    HW129116   0.246   0.900   0.631
 5695SOL    HW229117   0.364   0.871   0.739
 5696SOL     OW29118   6.001   0.236   1.597
 5696SOL    HW129119   6.074   0.179   1.560
 5696SOL    HW229120   5.999   0.323   1.549
 5697SOL     OW29121   6.270   7.900   6.069
 5697SOL    HW129122   6.208   7.822   6.059
 5697SOL    HW229123   6.289   7.939   5.979
 5698SOL     OW29124   1.616   1.745   6.961
 5698SOL    HW129125   1.621   1.830   6.909
 5698SOL    HW229126   1.545   1.752   7.031
 5699SOL     OW29127   7.617   4.971   5.280
 5699SOL    HW129128   7.703   4.919   5.280
 5699SOL    HW229129   7.627   5.051   5.339
 5700SOL     OW29130   8.346   1.309   1.262
 5700SOL    HW129131   8.342   1.330   1.164
 5700SOL    HW229132   8.257   1.275   1.292
 5701SOL     OW29133   7.553  -0.055   7.102
 5701SOL    HW129134   7.528  -0.121   7.173
 5701SOL    HW229135   7.518   0.035   7.127
 5702SOL     OW29136   9.418   5.479   6.318
 5702SOL    HW129137   9.368   5.453   6.400
 5702SOL    HW229138   9.508   5.516   6.345
 5703SOL     OW29139   6.500   4.573   6.596
 5703SOL    HW129140   6.574   4.612   6.541
 5703SOL    HW229141   6.533   4.491   6.643
 5704SOL     OW29142   6.429   7.679   6.968
 5704SOL    HW129143   6.371   7.697   7.047
 5704SOL    HW229144   6.377   7.690   6.884
 5705SOL     OW29145   2.950   3.485   1.173
 5705SOL    HW129146   3.028   3.509   1.116
 5705SOL    HW229147   2.914   3.567   1.217
 5706SOL     OW29148   4.230   3.313   1.333
 5706SOL    HW129149   4.146   3.266   1.358
 5706SOL    HW229150   4.210   3.380   1.261
 5707SOL     OW29151   3.786   4.903   1.011
 5707SOL    HW129152   3.730   4.975   0.970
 5707SOL    HW229153   3.883   4.922   0.995
 5708SOL     OW29154   4.055   1.354   1.697
 5708SOL    HW129155   4.129   1.288   1.686
 5708SOL    HW229156   4.071   1.409   1.779
 5709SOL     OW29157   2.855   8.364   6.155
 5709SOL    HW129158   2.851   8.464   6.149
 5709SOL    HW229159   2.950   8.334   6.156
 5710SOL     OW29160   7.946   0.286   6.364
 5710SOL    HW129161   7.898   0.281   6.277
 5710SOL    HW229162   8.045   0.278   6.349
 5711SOL     OW29163   2.031   4.450   6.269
 5711SOL    HW129164   1.942   4.494   6.280
 5711SOL    HW229165   2.100   4.501   6.321
 5712SOL     OW29166   4.011   0.871   1.631
 5712SOL    HW129167   4.038   0.899   1.539
 5712SOL    HW229168   3.971   0.779   1.628
 5713SOL     OW29169   7.722   0.754   5.179
 5713SOL    HW129170   7.790   0.817   5.217
 5713SOL    HW229171   7.668   0.801   5.109
 5714SOL     OW29172   6.003   7.629   6.703
 5714SOL    HW129173   5.921   7.608   6.757
 5714SOL    HW229174   5.992   7.594   6.610
 5715SOL     OW29175   1.603   2.693   5.590
 5715SOL    HW129176   1.696   2.657   5.590
 5715SOL    HW229177   1.605   2.791   5.570
 5716SOL     OW29178   5.756   8.146   5.925
 5716SOL    HW129179   5.720   8.175   5.836
 5716SOL    HW229180   5.842   8.096   5.911
 5717SOL     OW29181   7.036   3.665   0.867
 5717SOL    HW129182   7.097   3.593   0.901
 5717SOL    HW229183   6.942   3.644   0.893
 5718SOL     OW29184   1.643   2.498   6.444
 5718SOL    HW129185   1.583   2.459   6.514
 5718SOL    HW229186   1.590   2.560   6.386
 5719SOL     OW29187   5.834   2.240   2.164
 5719SOL    HW129188   5.888   2.321   2.141
 5719SOL    HW229189   5.794   2.202   2.080
 5720SOL     OW29190   3.459   6.861   5.829
 5720SOL    HW129191   3.364   6.892   5.832
 5720SOL    HW229192   3.509   6.912   5.758
 5721SOL     OW29193   6.762   2.528   6.550
 5721SOL    HW129194   6.725   2.588   6.621
 5721SOL    HW229195   6.809   2.583   6.481
 5722SOL     OW29196   0.822   7.057   5.354
 5722SOL    HW129197   0.737   7.046   5.406
 5722SOL    HW229198   0.859   6.967   5.332
 5723SOL     OW29199   7.477   5.079   6.751
 5723SOL    HW129200   7.400   5.128   6.793
 5723SOL    HW229201   7.490   4.992   6.798
 5724SOL     OW29202   9.277   0.715   0.945
 5724SOL    HW129203   9.350   0.659   0.983
 5724SOL    HW229204   9.193   0.661   0.939
 5725SOL     OW29205   1.130   6.937   6.204
 5725SOL    HW129206   1.039   6.900   6.183
 5725SOL    HW229207   1.197   6.863   6.198
 5726SOL     OW29208   5.823   2.835   1.765
 5726SOL    HW129209   5.800   2.855   1.860
 5726SOL    HW229210   5.830   2.920   1.713
 5727SOL     OW29211   8.421   0.579   7.046
 5727SOL    HW129212   8.411   0.607   7.141
 5727SOL    HW229213   8.347   0.516   7.021
 5728SOL     OW29214   0.526   2.829   5.621
 5728SOL    HW129215   0.511   2.909   5.562
 5728SOL    HW229216   0.522   2.746   5.566
 5729SOL     OW29217   7.412   4.675   6.427
 5729SOL    HW129218   7.489   4.700   6.487
 5729SOL    HW229219   7.333   4.650   6.484
 5730SOL     OW29220   3.653   5.812   6.300
 5730SOL    HW129221   3.711   5.859   6.233
 5730SOL    HW229222   3.613   5.880   6.362
 5731SOL     OW29223   0.906   2.004   7.063
 5731SOL    HW129224   0.962   2.047   6.993
 5731SOL    HW229225   0.866   1.919   7.027
 5732SOL     OW29226   1.877   4.989   1.344
 5732SOL    HW129227   1.790   4.941   1.335
 5732SOL    HW229228   1.898   5.035   1.258
 5733SOL     OW29229   7.960   8.158   0.498
 5733SOL    HW129230   7.963   8.236   0.561
 5733SOL    HW229231   7.964   8.073   0.551
 5734SOL     OW29232   2.864   5.206   6.267
 5734SOL    HW129233   2.864   5.167   6.359
 5734SOL    HW229234   2.951   5.186   6.222
 5735SOL     OW29235   0.789   6.398   7.010
 5735SOL    HW129236   0.753   6.481   6.968
 5735SOL    HW229237   0.889   6.397   6.999
 5736SOL     OW29238   6.378   2.640   1.175
 5736SOL    HW129239   6.425   2.557   1.145
 5736SOL    HW229240   6.413   2.667   1.265
 5737SOL     OW29241   1.533   5.273   1.640
 5737SOL    HW129242   1.589   5.331   1.700
 5737SOL    HW229243   1.540   5.178   1.671
 5738SOL     OW29244   1.479   1.884   5.278
 5738SOL    HW129245   1.566   1.931   5.269
 5738SOL    HW229246   1.470   1.816   5.205
 5739SOL     OW29247   9.565   4.500   6.601
 5739SOL    HW129248   9.625   4.544   6.669
 5739SOL    HW229249   9.581   4.401   6.602
 5740SOL     OW29250   2.702   5.936   7.062
 5740SOL    HW129251   2.648   6.008   7.019
 5740SOL    HW229252   2.749   5.972   7.142
 5741SOL     OW29253   5.420   1.642   6.723
 5741SOL    HW129254   5.496   1.601   6.673
 5741SOL    HW229255   5.334   1.609   6.684
 5742SOL     OW29256   5.010   4.235   5.712
 5742SOL    HW129257   5.090   4.196   5.666
 5742SOL    HW229258   4.931   4.174   5.698
 5743SOL     OW29259   7.090   1.255   1.996
 5743SOL    HW129260   7.161   1.324   1.978
 5743SOL    HW229261   7.008   1.300   2.032
 5744SOL     OW29262   8.314   1.994   7.049
 5744SOL    HW129263   8.410   1.984   7.021
 5744SOL    HW229264   8.257   1.933   6.994
 5745SOL     OW29265   1.795   6.862   0.888
 5745SOL    HW129266   1.764   6.770   0.912
 5745SOL    HW229267   1.773   6.881   0.792
 5746SOL     OW29268   6.024   5.413   5.423
 5746SOL    HW129269   5.977   5.481   5.366
 5746SOL    HW229270   6.121   5.437   5.429
 5747SOL     OW29271   2.226   6.793   0.734
 5747SOL    HW129272   2.185   6.769   0.823
 5747SOL    HW229273   2.206   6.888   0.713
 5748SOL     OW29274   0.213   7.794   5.144
 5748SOL    HW129275   0.192   7.875   5.199
 5748SOL    HW229276   0.312   7.788   5.130
 5749SOL     OW29277   4.068   2.000   2.790
 5749SOL    HW129278   3.986   1.975   2.841
 5749SOL    HW229279   4.078   2.099   2.788
 5750SOL     OW29280   1.876   5.863   6.714
 5750SOL    HW129281   1.955   5.811   6.680
 5750SOL    HW229282   1.796   5.843   6.657
 5751SOL     OW29283   3.648   7.835   0.614
 5751SOL    HW129284   3.678   7.914   0.560
 5751SOL    HW229285   3.673   7.751   0.567
 5752SOL     OW29286   9.179   6.109   6.890
 5752SOL    HW129287   9.202   6.097   6.987
 5752SOL    HW229288   9.096   6.165   6.882
 5753SOL     OW29289   8.850   7.001   5.874
 5753SOL    HW129290   8.851   6.902   5.856
 5753SOL    HW229291   8.934   7.027   5.922
 5754SOL     OW29292   3.145   0.268   0.789
 5754SOL    HW129293   3.169   0.243   0.882
 5754SOL    HW229294   3.057   0.228   0.765
 5755SOL     OW29295   6.764   2.742   0.994
 5755SOL    HW129296   6.857   2.748   0.956
 5755SOL    HW229297   6.707   2.814   0.953
 5756SOL     OW29298   8.436   7.972   1.833
 5756SOL    HW129299   8.411   7.919   1.914
 5756SOL    HW229300   8.421   8.069   1.850
 5757SOL     OW29301   8.852   0.441   6.660
 5757SOL    HW129302   8.872   0.343   6.665
 5757SOL    HW229303   8.871   0.474   6.567
 5758SOL     OW29304   4.308   3.857   6.378
 5758SOL    HW129305   4.277   3.929   6.316
 5758SOL    HW229306   4.370   3.796   6.329
 5759SOL     OW29307   3.417   3.274   6.597
 5759SOL    HW129308   3.452   3.196   6.649
 5759SOL    HW229309   3.476   3.353   6.613
 5760SOL     OW29310   4.922   3.304   1.862
 5760SOL    HW129311   4.930   3.396   1.824
 5760SOL    HW229312   5.002   3.250   1.835
 5761SOL     OW29313   0.878   3.516   5.366
 5761SOL    HW129314   0.849   3.610   5.383
 5761SOL    HW229315   0.947   3.515   5.294
 5762SOL     OW29316   7.013   6.373   0.988
 5762SOL    HW129317   7.080   6.343   0.920
 5762SOL    HW229318   7.016   6.473   0.996
 5763SOL     OW29319   8.255   7.286   5.947
 5763SOL    HW129320   8.352   7.280   5.921
 5763SOL    HW229321   8.199   7.247   5.874
 5764SOL     OW29322   2.519   2.985   1.933
 5764SOL    HW129323   2.519   2.887   1.911
 5764SOL    HW229324   2.514   2.997   2.032
 5765SOL     OW29325   5.888   8.417   6.117
 5765SOL    HW129326   5.850   8.331   6.082
 5765SOL    HW229327   5.929   8.401   6.206
 5766SOL     OW29328   7.227   7.570   0.908
 5766SOL    HW129329   7.220   7.622   0.823
 5766SOL    HW229330   7.307   7.511   0.906
 5767SOL     OW29331   9.105   7.941   6.776
 5767SOL    HW129332   9.071   7.848   6.766
 5767SOL    HW229333   9.179   7.957   6.711
 5768SOL     OW29334   3.319   5.292   6.653
 5768SOL    HW129335   3.239   5.232   6.649
 5768SOL    HW229336   3.348   5.315   6.560
 5769SOL     OW29337   4.785   5.334   2.492
 5769SOL    HW129338   4.884   5.347   2.502
 5769SOL    HW229339   4.738   5.421   2.508
 5770SOL     OW29340   2.018   5.354   1.055
 5770SOL    HW129341   2.110   5.314   1.059
 5770SOL    HW229342   1.999   5.403   1.141
 5771SOL     OW29343   4.000   0.894   5.380
 5771SOL    HW129344   4.068   0.837   5.334
 5771SOL    HW229345   4.019   0.897   5.478
 5772SOL     OW29346   3.925   1.617   0.975
 5772SOL    HW129347   3.950   1.704   0.932
 5772SOL    HW229348   4.006   1.558   0.979
 5773SOL     OW29349   4.628   3.900   5.654
 5773SOL    HW129350   4.593   3.810   5.630
 5773SOL    HW229351   4.565   3.970   5.623
 5774SOL     OW29352   7.848   7.068   5.895
 5774SOL    HW129353   7.946   7.072   5.876
 5774SOL    HW229354   7.798   7.066   5.809
 5775SOL     OW29355   3.648   8.107   6.735
 5775SOL    HW129356   3.552   8.116   6.708
 5775SOL    HW229357   3.663   8.152   6.822
 5776SOL     OW29358   2.048   5.489   6.380
 5776SOL    HW129359   2.118   5.561   6.384
 5776SOL    HW229360   2.057   5.440   6.293
 5777SOL     OW29361   9.349   5.987   6.731
 5777SOL    HW129362   9.270   6.035   6.769
 5777SOL    HW229363   9.431   6.010   6.784
 5778SOL     OW29364   5.952   5.749   0.724
 5778SOL    HW129365   6.014   5.806   0.670
 5778SOL    HW229366   6.003   5.670   0.759
 5779SOL     OW29367   5.414   7.040   1.745
 5779SOL    HW129368   5.490   6.980   1.769
 5779SOL    HW229369   5.388   7.094   1.825
 5780SOL     OW29370   6.393   7.685   2.017
 5780SOL    HW129371   6.344   7.624   2.080
 5780SOL    HW229372   6.490   7.660   2.015
 5781SOL     OW29373   4.819   1.940   6.833
 5781SOL    HW129374   4.795   1.933   6.930
 5781SOL    HW229375   4.737   1.963   6.780
 5782SOL     OW29376   4.911   4.010   2.247
 5782SOL    HW129377   4.904   4.104   2.280
 5782SOL    HW229378   4.842   3.953   2.291
 5783SOL     OW29379   4.615   2.940   0.800
 5783SOL    HW129380   4.560   2.942   0.717
 5783SOL    HW229381   4.698   2.995   0.787
 5784SOL     OW29382   1.472   6.757   0.832
 5784SOL    HW129383   1.407   6.720   0.766
 5784SOL    HW229384   1.545   6.806   0.784
 5785SOL     OW29385   6.274   2.923   6.084
 5785SOL    HW129386   6.331   2.852   6.043
 5785SOL    HW229387   6.190   2.934   6.030
 5786SOL     OW29388   2.893   4.991   1.181
 5786SOL    HW129389   2.891   4.899   1.222
 5786SOL    HW229390   2.961   5.046   1.228
 5787SOL     OW29391   1.322   2.199   6.754
 5787SOL    HW129392   1.261   2.153   6.689
 5787SOL    HW229393   1.298   2.171   6.847
 5788SOL     OW29394   2.323   0.885   6.831
 5788SOL    HW129395   2.288   0.899   6.923
 5788SOL    HW229396   2.379   0.802   6.828
 5789SOL     OW29397   3.845   6.143   1.635
 5789SOL    HW129398   3.755   6.181   1.616
 5789SOL    HW229399   3.848   6.048   1.605
 5790SOL     OW29400   4.157   6.690   6.745
 5790SOL    HW129401   4.131   6.755   6.674
 5790SOL    HW229402   4.114   6.716   6.831
 5791SOL     OW29403   3.714   3.702   1.942
 5791SOL    HW129404   3.759   3.685   2.030
 5791SOL    HW229405   3.646   3.774   1.952
 5792SOL     OW29406   3.907   0.503   6.173
 5792SOL    HW129407   3.891   0.519   6.270
 5792SOL    HW229408   3.932   0.589   6.128
 5793SOL     OW29409   6.735   3.988   0.918
 5793SOL    HW129410   6.660   3.923   0.923
 5793SOL    HW229411   6.784   3.989   1.005
 5794SOL     OW29412   0.926   1.095   1.654
 5794SOL    HW129413   0.858   1.167   1.639
 5794SOL    HW229414   0.899   1.040   1.733
 5795SOL     OW29415   3.233   2.643   6.751
 5795SOL    HW129416   3.326   2.671   6.775
 5795SOL    HW229417   3.227   2.543   6.748
 5796SOL     OW29418   2.583   7.444   5.984
 5796SOL    HW129419   2.569   7.381   5.908
 5796SOL    HW229420   2.509   7.511   5.987
 5797SOL     OW29421   0.566   4.118   0.745
 5797SOL    HW129422   0.543   4.021   0.747
 5797SOL    HW229423   0.482   4.171   0.734
 5798SOL     OW29424   0.668   1.323   1.289
 5798SOL    HW129425   0.651   1.391   1.361
 5798SOL    HW229426   0.693   1.236   1.330
 5799SOL     OW29427   9.114   2.214   6.204
 5799SOL    HW129428   9.138   2.150   6.131
 5799SOL    HW229429   9.016   2.234   6.200
 5800SOL     OW29430   7.834   3.891   6.493
 5800SOL    HW129431   7.845   3.807   6.545
 5800SOL    HW229432   7.810   3.966   6.555
 5801SOL     OW29433   7.211   6.389   5.313
 5801SOL    HW129434   7.199   6.299   5.271
 5801SOL    HW229435   7.212   6.460   5.242
 5802SOL     OW29436   5.015   5.489   2.400
 5802SOL    HW129437   5.054   5.536   2.321
 5802SOL    HW229438   5.034   5.391   2.392
 5803SOL     OW29439   2.307   2.838   1.124
 5803SOL    HW129440   2.387   2.863   1.179
 5803SOL    HW229441   2.227   2.888   1.158
 5804SOL     OW29442   6.376   1.144   7.075
 5804SOL    HW129443   6.451   1.093   7.117
 5804SOL    HW229444   6.373   1.236   7.113
 5805SOL     OW29445   2.479   7.877   6.609
 5805SOL    HW129446   2.453   7.913   6.699
 5805SOL    HW229447   2.477   7.952   6.543
 5806SOL     OW29448   3.280   0.494   6.946
 5806SOL    HW129449   3.314   0.425   7.009
 5806SOL    HW229450   3.246   0.573   6.998
 5807SOL     OW29451   5.920   3.842   5.848
 5807SOL    HW129452   5.822   3.819   5.850
 5807SOL    HW229453   5.969   3.787   5.915
 5808SOL     OW29454   3.705   5.198   5.794
 5808SOL    HW129455   3.636   5.126   5.794
 5808SOL    HW229456   3.742   5.209   5.886
 5809SOL     OW29457   7.999   4.468   6.439
 5809SOL    HW129458   7.944   4.541   6.399
 5809SOL    HW229459   8.085   4.461   6.390
 5810SOL     OW29460   8.251   5.647   6.317
 5810SOL    HW129461   8.179   5.713   6.339
 5810SOL    HW229462   8.333   5.697   6.289
 5811SOL     OW29463   2.761   0.854   6.339
 5811SOL    HW129464   2.831   0.840   6.268
 5811SOL    HW229465   2.749   0.770   6.391
 5812SOL     OW29466   7.924   8.137   6.969
 5812SOL    HW129467   7.913   8.164   7.065
 5812SOL    HW229468   7.842   8.088   6.939
 5813SOL     OW29469   5.995   7.383   0.534
 5813SOL    HW129470   5.989   7.304   0.596
 5813SOL    HW229471   5.904   7.421   0.520
 5814SOL     OW29472   3.396   5.768   1.750
 5814SOL    HW129473   3.468   5.803   1.810
 5814SOL    HW229474   3.395   5.668   1.755
 5815SOL     OW29475   4.667   2.252   6.108
 5815SOL    HW129476   4.757   2.210   6.108
 5815SOL    HW229477   4.657   2.312   6.028
 5816SOL     OW29478   0.400   6.779   5.514
 5816SOL    HW129479   0.473   6.717   5.484
 5816SOL    HW229480   0.357   6.821   5.434
 5817SOL     OW29481   5.608   5.912   6.063
 5817SOL    HW129482   5.622   6.007   6.091
 5817SOL    HW229483   5.545   5.910   5.985
 5818SOL     OW29484   1.463   3.182   1.537
 5818SOL    HW129485   1.557   3.161   1.563
 5818SOL    HW229486   1.407   3.195   1.619
 5819SOL     OW29487   7.397   4.070   0.903
 5819SOL    HW129488   7.346   4.033   0.824
 5819SOL    HW229489   7.338   4.069   0.984
 5820SOL     OW29490   9.164   2.170   1.308
 5820SOL    HW129491   9.261   2.182   1.286
 5820SOL    HW229492   9.154   2.098   1.376
 5821SOL     OW29493   4.835   2.256   1.509
 5821SOL    HW129494   4.809   2.277   1.603
 5821SOL    HW229495   4.791   2.321   1.447
 5822SOL     OW29496   5.402   0.037   1.279
 5822SOL    HW129497   5.399  -0.062   1.292
 5822SOL    HW229498   5.410   0.082   1.368
 5823SOL     OW29499   0.392   7.566   0.996
 5823SOL    HW129500   0.383   7.615   1.083
 5823SOL    HW229501   0.422   7.472   1.014
 5824SOL     OW29502   3.575   8.124   5.580
 5824SOL    HW129503   3.629   8.158   5.503
 5824SOL    HW229504   3.569   8.194   5.650
 5825SOL     OW29505   5.831   7.553   6.073
 5825SOL    HW129506   5.867   7.461   6.056
 5825SOL    HW229507   5.820   7.565   6.172
 5826SOL     OW29508   2.363   5.279   1.314
 5826SOL    HW129509   2.323   5.240   1.397
 5826SOL    HW229510   2.331   5.374   1.304
 5827SOL     OW29511   3.051   3.175   0.870
 5827SOL    HW129512   3.080   3.085   0.839
 5827SOL    HW229513   3.115   3.208   0.940
 5828SOL     OW29514   2.678   4.336   7.123
 5828SOL    HW129515   2.605   4.404   7.114
 5828SOL    HW229516   2.637   4.244   7.121
 5829SOL     OW29517   2.648   3.678   0.897
 5829SOL    HW129518   2.604   3.741   0.834
 5829SOL    HW229519   2.747   3.693   0.895
 5830SOL     OW29520   3.714   4.890   7.024
 5830SOL    HW129521   3.650   4.888   7.100
 5830SOL    HW229522   3.760   4.979   7.021
 5831SOL     OW29523   3.126   7.320   1.481
 5831SOL    HW129524   3.157   7.415   1.480
 5831SOL    HW229525   3.198   7.261   1.518
 5832SOL     OW29526   0.244   2.902   6.082
 5832SOL    HW129527   0.314   2.880   6.014
 5832SOL    HW229528   0.215   2.997   6.071
 5833SOL     OW29529   3.566   6.342   2.084
 5833SOL    HW129530   3.518   6.291   2.155
 5833SOL    HW229531   3.499   6.395   2.031
 5834SOL     OW29532   0.888   2.044   6.619
 5834SOL    HW129533   0.812   2.102   6.648
 5834SOL    HW229534   0.918   2.071   6.528
 5835SOL     OW29535   1.513   0.411   5.925
 5835SOL    HW129536   1.603   0.455   5.931
 5835SOL    HW229537   1.524   0.313   5.914
 5836SOL     OW29538   7.925   6.876   0.967
 5836SOL    HW129539   7.929   6.788   1.015
 5836SOL    HW229540   8.008   6.888   0.913
 5837SOL     OW29541   9.132   0.832   6.673
 5837SOL    HW129542   9.045   0.835   6.624
 5837SOL    HW229543   9.189   0.909   6.644
 5838SOL     OW29544   2.665   2.664   6.704
 5838SOL    HW129545   2.575   2.644   6.742
 5838SOL    HW229546   2.736   2.626   6.763
 5839SOL     OW29547   8.346   8.292   6.313
 5839SOL    HW129548   8.327   8.247   6.400
 5839SOL    HW229549   8.260   8.316   6.268
 5840SOL     OW29550   6.483   2.259   1.484
 5840SOL    HW129551   6.548   2.307   1.426
 5840SOL    HW229552   6.399   2.240   1.433
 5841SOL     OW29553   7.079   6.240   1.265
 5841SOL    HW129554   7.058   6.264   1.359
 5841SOL    HW229555   7.073   6.321   1.207
 5842SOL     OW29556   6.367   5.965   0.558
 5842SOL    HW129557   6.280   5.943   0.603
 5842SOL    HW229558   6.350   5.999   0.466
 5843SOL     OW29559   1.267   5.676   6.144
 5843SOL    HW129560   1.339   5.696   6.077
 5843SOL    HW229561   1.180   5.711   6.110
 5844SOL     OW29562   5.184   8.080   5.595
 5844SOL    HW129563   5.174   7.990   5.638
 5844SOL    HW229564   5.127   8.084   5.513
 5845SOL     OW29565   1.292   4.792   7.092
 5845SOL    HW129566   1.273   4.761   6.998
 5845SOL    HW229567   1.390   4.790   7.108
 5846SOL     OW29568   2.093   1.279   1.632
 5846SOL    HW129569   2.066   1.251   1.725
 5846SOL    HW229570   2.059   1.371   1.613
 5847SOL     OW29571   8.244   0.832   1.023
 5847SOL    HW129572   8.236   0.864   1.118
 5847SOL    HW229573   8.278   0.905   0.965
 5848SOL     OW29574   1.972   6.272   2.065
 5848SOL    HW129575   1.970   6.182   2.108
 5848SOL    HW229576   1.987   6.262   1.966
 5849SOL     OW29577   6.845   6.861   6.108
 5849SOL    HW129578   6.916   6.879   6.039
 5849SOL    HW229579   6.867   6.777   6.157
 5850SOL     OW29580   1.228   3.786   6.000
 5850SOL    HW129581   1.167   3.850   5.953
 5850SOL    HW229582   1.182   3.751   6.083
 5851SOL     OW29583   0.174   7.480   6.470
 5851SOL    HW129584   0.240   7.415   6.433
 5851SOL    HW229585   0.219   7.567   6.488
 5852SOL     OW29586   9.148   0.892   6.962
 5852SOL    HW129587   9.055   0.867   6.988
 5852SOL    HW229588   9.162   0.871   6.865
 5853SOL     OW29589   3.476   2.976   1.251
 5853SOL    HW129590   3.377   2.975   1.241
 5853SOL    HW229591   3.515   3.052   1.200
 5854SOL     OW29592   8.620   0.958   6.626
 5854SOL    HW129593   8.548   0.924   6.565
 5854SOL    HW229594   8.709   0.942   6.583
 5855SOL     OW29595   6.389   7.767   6.350
 5855SOL    HW129596   6.332   7.821   6.412
 5855SOL    HW229597   6.331   7.700   6.302
 5856SOL     OW29598   4.985   8.264   4.987
 5856SOL    HW129599   4.934   8.181   4.967
 5856SOL    HW229600   5.059   8.274   4.920
 5857SOL     OW29601   0.935   1.563   0.490
 5857SOL    HW129602   0.853   1.587   0.440
 5857SOL    HW229603   1.005   1.529   0.427
 5858SOL     OW29604   0.780   0.089   6.990
 5858SOL    HW129605   0.695   0.038   6.976
 5858SOL    HW229606   0.842   0.036   7.047
 5859SOL     OW29607   8.399   3.163   7.071
 5859SOL    HW129608   8.299   3.165   7.068
 5859SOL    HW229609   8.435   3.188   6.982
 5860SOL     OW29610   3.434   3.552   2.009
 5860SOL    HW129611   3.524   3.570   2.048
 5860SOL    HW229612   3.365   3.602   2.061
 5861SOL     OW29613   4.808   7.066   6.084
 5861SOL    HW129614   4.737   7.084   6.152
 5861SOL    HW229615   4.874   7.001   6.121
 5862SOL     OW29616   3.066   7.834   6.957
 5862SOL    HW129617   3.078   7.932   6.942
 5862SOL    HW229618   3.141   7.800   7.013
 5863SOL     OW29619   3.437   2.618   6.431
 5863SOL    HW129620   3.470   2.555   6.501
 5863SOL    HW229621   3.386   2.567   6.362
 5864SOL     OW29622   1.364   1.819   6.868
 5864SOL    HW129623   1.403   1.759   6.797
 5864SOL    HW229624   1.267   1.800   6.878
 5865SOL     OW29625   5.167   0.267   1.003
 5865SOL    HW129626   5.161   0.300   1.098
 5865SOL    HW229627   5.261   0.244   0.981
 5866SOL     OW29628   2.398   8.312   5.863
 5866SOL    HW129629   2.316   8.314   5.805
 5866SOL    HW229630   2.460   8.386   5.837
 5867SOL     OW29631   2.773   4.514   6.596
 5867SOL    HW129632   2.868   4.482   6.593
 5867SOL    HW229633   2.772   4.612   6.617
 5868SOL     OW29634   4.256   5.125   6.181
 5868SOL    HW129635   4.353   5.102   6.185
 5868SOL    HW229636   4.231   5.146   6.086
 5869SOL     OW29637   1.892   1.950   1.566
 5869SOL    HW129638   1.866   2.046   1.574
 5869SOL    HW229639   1.946   1.923   1.646
 5870SOL     OW29640   2.950   2.102   1.717
 5870SOL    HW129641   2.952   2.180   1.654
 5870SOL    HW229642   2.954   2.017   1.665
 5871SOL     OW29643   4.484   0.261   1.567
 5871SOL    HW129644   4.392   0.290   1.592
 5871SOL    HW229645   4.479   0.188   1.499
 5872SOL     OW29646   3.173   4.376   1.204
 5872SOL    HW129647   3.174   4.280   1.234
 5872SOL    HW229648   3.230   4.386   1.123
 5873SOL     OW29649   2.799   3.317   2.237
 5873SOL    HW129650   2.706   3.307   2.202
 5873SOL    HW229651   2.809   3.405   2.282
 5874SOL     OW29652   7.082   2.354   1.834
 5874SOL    HW129653   7.126   2.441   1.854
 5874SOL    HW229654   6.998   2.370   1.781
 5875SOL     OW29655   9.146   0.085   6.513
 5875SOL    HW129656   9.229   0.029   6.509
 5875SOL    HW229657   9.067   0.025   6.529
 5876SOL     OW29658   6.470   7.483   6.641
 5876SOL    HW129659   6.458   7.431   6.557
 5876SOL    HW229660   6.501   7.422   6.714
 5877SOL     OW29661   2.435   4.184   6.917
 5877SOL    HW129662   2.492   4.239   6.855
 5877SOL    HW229663   2.343   4.224   6.920
 5878SOL     OW29664   2.611   0.647   2.240
 5878SOL    HW129665   2.661   0.611   2.161
 5878SOL    HW229666   2.595   0.573   2.305
 5879SOL     OW29667   3.985   3.467   0.638
 5879SOL    HW129668   3.928   3.490   0.560
 5879SOL    HW229669   4.073   3.515   0.630
 5880SOL     OW29670   5.353   3.136   1.554
 5880SOL    HW129671   5.298   3.113   1.634
 5880SOL    HW229672   5.335   3.069   1.481
 5881SOL     OW29673   9.276   2.547   0.877
 5881SOL    HW129674   9.316   2.638   0.886
 5881SOL    HW229675   9.187   2.545   0.922
 5882SOL     OW29676   4.826   4.402   5.886
 5882SOL    HW129677   4.881   4.352   5.819
 5882SOL    HW229678   4.817   4.347   5.969
 5883SOL     OW29679   7.073   0.119   6.434
 5883SOL    HW129680   7.163   0.108   6.476
 5883SOL    HW229681   7.028   0.029   6.429
 5884SOL     OW29682   4.792   5.393   6.434
 5884SOL    HW129683   4.752   5.331   6.367
 5884SOL    HW229684   4.885   5.364   6.454
 5885SOL     OW29685   8.733   2.088   5.625
 5885SOL    HW129686   8.781   2.120   5.543
 5885SOL    HW229687   8.673   2.011   5.601
 5886SOL     OW29688   3.790   0.775   7.153
 5886SOL    HW129689   3.859   0.815   7.092
 5886SOL    HW229690   3.807   0.676   7.161
 5887SOL     OW29691   3.326   8.019   1.710
 5887SOL    HW129692   3.272   8.080   1.766
 5887SOL    HW229693   3.368   7.948   1.767
 5888SOL     OW29694   8.562   2.077   6.882
 5888SOL    HW129695   8.659   2.060   6.868
 5888SOL    HW229696   8.509   2.029   6.812
 5889SOL     OW29697   5.586   1.877   1.166
 5889SOL    HW129698   5.506   1.928   1.136
 5889SOL    HW229699   5.576   1.781   1.141
 5890SOL     OW29700   5.993   6.074   2.024
 5890SOL    HW129701   6.034   6.027   2.102
 5890SOL    HW229702   5.947   6.158   2.054
 5891SOL     OW29703   8.051   2.072   0.813
 5891SOL    HW129704   8.069   2.094   0.909
 5891SOL    HW229705   7.952   2.072   0.797
 5892SOL     OW29706   4.664   2.552   6.030
 5892SOL    HW129707   4.675   2.526   5.934
 5892SOL    HW229708   4.570   2.533   6.059
 5893SOL     OW29709   5.092   1.228   1.897
 5893SOL    HW129710   5.178   1.222   1.947
 5893SOL    HW229711   5.034   1.297   1.940
 5894SOL     OW29712   5.972   7.970   5.919
 5894SOL    HW129713   6.004   7.974   5.824
 5894SOL    HW229714   6.051   7.959   5.980
 5895SOL     OW29715   8.727   2.877   6.198
 5895SOL    HW129716   8.761   2.954   6.144
 5895SOL    HW229717   8.744   2.895   6.295
 5896SOL     OW29718   8.587   8.038   0.674
 5896SOL    HW129719   8.592   8.079   0.583
 5896SOL    HW229720   8.663   7.974   0.686
 5897SOL     OW29721   1.482   4.323   6.512
 5897SOL    HW129722   1.494   4.244   6.572
 5897SOL    HW229723   1.429   4.296   6.432
 5898SOL     OW29724   8.503   2.453   6.274
 5898SOL    HW129725   8.581   2.509   6.301
 5898SOL    HW229726   8.440   2.508   6.219
 5899SOL     OW29727   0.134   8.231   6.901
 5899SOL    HW129728   0.039   8.207   6.880
 5899SOL    HW229729   0.162   8.185   6.985
 5900SOL     OW29730   0.792   6.786   1.360
 5900SOL    HW129731   0.832   6.877   1.371
 5900SOL    HW229732   0.695   6.795   1.338
 5901SOL     OW29733   6.357   5.992   1.418
 5901SOL    HW129734   6.330   6.042   1.500
 5901SOL    HW229735   6.354   5.893   1.436
 5902SOL     OW29736   7.357   7.394   1.495
 5902SOL    HW129737   7.281   7.402   1.560
 5902SOL    HW229738   7.440   7.369   1.546
 5903SOL     OW29739   4.808   7.403   6.265
 5903SOL    HW129740   4.842   7.496   6.282
 5903SOL    HW229741   4.857   7.365   6.186
 5904SOL     OW29742   4.833   6.293   6.050
 5904SOL    HW129743   4.821   6.195   6.034
 5904SOL    HW229744   4.748   6.341   6.027
 5905SOL     OW29745   4.745   7.532   1.861
 5905SOL    HW129746   4.833   7.578   1.850
 5905SOL    HW229747   4.707   7.554   1.951
 5906SOL     OW29748   7.620   7.324   6.701
 5906SOL    HW129749   7.719   7.328   6.709
 5906SOL    HW229750   7.583   7.265   6.773
 5907SOL     OW29751   0.914   1.098   0.762
 5907SOL    HW129752   0.823   1.130   0.737
 5907SOL    HW229753   0.981   1.132   0.695
 5908SOL     OW29754   8.947   2.739   6.478
 5908SOL    HW129755   8.996   2.688   6.408
 5908SOL    HW229756   8.963   2.697   6.567
 5909SOL     OW29757   9.364   4.699   5.492
 5909SOL    HW129758   9.381   4.797   5.507
 5909SOL    HW229759   9.266   4.684   5.478
 5910SOL     OW29760   5.765   7.552   6.837
 5910SOL    HW129761   5.763   7.589   6.930
 5910SOL    HW229762   5.673   7.525   6.810
 5911SOL     OW29763   2.298   1.464   1.940
 5911SOL    HW129764   2.366   1.445   1.870
 5911SOL    HW229765   2.255   1.553   1.922
 5912SOL     OW29766   3.148   6.336   1.266
 5912SOL    HW129767   3.227   6.378   1.309
 5912SOL    HW229768   3.070   6.399   1.271
 5913SOL     OW29769   8.921   3.543   1.220
 5913SOL    HW129770   8.896   3.447   1.205
 5913SOL    HW229771   8.906   3.595   1.135
 5914SOL     OW29772   3.502   6.917   7.050
 5914SOL    HW129773   3.490   6.978   6.972
 5914SOL    HW229774   3.595   6.927   7.086
 5915SOL     OW29775   8.658   7.048   5.385
 5915SOL    HW129776   8.584   7.006   5.334
 5915SOL    HW229777   8.733   7.070   5.324
 5916SOL     OW29778   4.225   2.156   0.780
 5916SOL    HW129779   4.179   2.124   0.697
 5916SOL    HW229780   4.263   2.247   0.763
 5917SOL     OW29781   0.934   2.687   1.033
 5917SOL    HW129782   0.968   2.722   1.119
 5917SOL    HW229783   0.853   2.739   1.005
 5918SOL     OW29784   0.800   1.214   6.036
 5918SOL    HW129785   0.705   1.242   6.054
 5918SOL    HW229786   0.857   1.296   6.027
 5919SOL     OW29787   1.369   4.745   0.878
 5919SOL    HW129788   1.313   4.662   0.872
 5919SOL    HW229789   1.426   4.752   0.796
 5920SOL     OW29790   5.416   1.842   0.763
 5920SOL    HW129791   5.427   1.941   0.771
 5920SOL    HW229792   5.320   1.820   0.745
 5921SOL     OW29793   7.379   0.867   0.815
 5921SOL    HW129794   7.467   0.851   0.860
 5921SOL    HW229795   7.345   0.958   0.839
 5922SOL     OW29796   1.018   5.770   6.022
 5922SOL    HW129797   0.932   5.719   6.017
 5922SOL    HW229798   0.997   5.867   6.037
 5923SOL     OW29799   8.393   0.723   5.756
 5923SOL    HW129800   8.436   0.633   5.752
 5923SOL    HW229801   8.422   0.776   5.676
 5924SOL     OW29802   6.207   3.635   7.141
 5924SOL    HW129803   6.301   3.648   7.108
 5924SOL    HW229804   6.174   3.545   7.112
 5925SOL     OW29805   2.281   7.786   1.330
 5925SOL    HW129806   2.257   7.798   1.426
 5925SOL    HW229807   2.217   7.836   1.273
 5926SOL     OW29808   4.302   7.596   6.130
 5926SOL    HW129809   4.216   7.644   6.147
 5926SOL    HW229810   4.311   7.575   6.033
 5927SOL     OW29811   2.730   6.261   6.727
 5927SOL    HW129812   2.737   6.359   6.750
 5927SOL    HW229813   2.704   6.251   6.631
 5928SOL     OW29814   9.043   1.453   6.871
 5928SOL    HW129815   9.058   1.365   6.915
 5928SOL    HW229816   8.944   1.471   6.865
 5929SOL     OW29817   8.696   1.149   0.700
 5929SOL    HW129818   8.600   1.139   0.675
 5929SOL    HW229819   8.740   1.214   0.639
 5930SOL     OW29820   7.483   2.664   1.053
 5930SOL    HW129821   7.433   2.696   1.134
 5930SOL    HW229822   7.580   2.655   1.076
 5931SOL     OW29823   6.480   6.878   5.557
 5931SOL    HW129824   6.515   6.786   5.538
 5931SOL    HW229825   6.444   6.882   5.650
 5932SOL     OW29826   4.122   5.733   5.626
 5932SOL    HW129827   4.167   5.810   5.671
 5932SOL    HW229828   4.088   5.762   5.536
 5933SOL     OW29829   8.449   4.186   0.983
 5933SOL    HW129830   8.407   4.123   1.048
 5933SOL    HW229831   8.480   4.135   0.902
 5934SOL     OW29832   1.205   6.959   5.558
 5934SOL    HW129833   1.114   6.988   5.530
 5934SOL    HW229834   1.225   6.868   5.520
 5935SOL     OW29835   4.965   5.802   2.246
 5935SOL    HW129836   4.968   5.867   2.170
 5935SOL    HW229837   5.044   5.741   2.242
 5936SOL     OW29838   3.973   8.013   1.677
 5936SOL    HW129839   3.987   8.110   1.696
 5936SOL    HW229840   4.050   7.960   1.710
 5937SOL     OW29841   5.272   7.045   1.113
 5937SOL    HW129842   5.219   7.129   1.126
 5937SOL    HW229843   5.346   7.062   1.047
 5938SOL     OW29844   8.906   5.952   0.853
 5938SOL    HW129845   8.827   5.901   0.818
 5938SOL    HW229846   8.928   5.921   0.945
 5939SOL     OW29847   9.508   4.934   7.137
 5939SOL    HW129848   9.547   4.891   7.218
 5939SOL    HW229849   9.476   5.026   7.159
 5940SOL     OW29850   7.752   4.053   1.673
 5940SOL    HW129851   7.697   4.124   1.716
 5940SOL    HW229852   7.837   4.039   1.725
 5941SOL     OW29853   8.436   1.052   0.674
 5941SOL    HW129854   8.475   0.960   0.669
 5941SOL    HW229855   8.374   1.058   0.752
 5942SOL     OW29856   8.198   4.387   1.100
 5942SOL    HW129857   8.183   4.341   1.013
 5942SOL    HW229858   8.291   4.422   1.104
 5943SOL     OW29859   9.001   7.792   1.413
 5943SOL    HW129860   9.095   7.760   1.403
 5943SOL    HW229861   8.937   7.716   1.403
 5944SOL     OW29862   9.470   8.133   6.394
 5944SOL    HW129863   9.499   8.228   6.406
 5944SOL    HW229864   9.447   8.117   6.298
 5945SOL     OW29865   5.181   5.691   1.791
 5945SOL    HW129866   5.090   5.725   1.813
 5945SOL    HW229867   5.243   5.709   1.867
 5946SOL     OW29868   3.759   1.645   1.367
 5946SOL    HW129869   3.665   1.664   1.340
 5946SOL    HW229870   3.762   1.564   1.426
 5947SOL     OW29871   2.112   7.906   1.121
 5947SOL    HW129872   2.013   7.896   1.116
 5947SOL    HW229873   2.145   7.952   1.038
 5948SOL     OW29874   6.372   2.760   0.909
 5948SOL    HW129875   6.390   2.752   1.007
 5948SOL    HW229876   6.317   2.842   0.893
 5949SOL     OW29877   7.856   4.300   5.538
 5949SOL    HW129878   7.907   4.230   5.488
 5949SOL    HW229879   7.833   4.375   5.476
 5950SOL     OW29880   4.412   0.641   2.309
 5950SOL    HW129881   4.343   0.627   2.380
 5950SOL    HW229882   4.497   0.671   2.351
 5951SOL     OW29883   6.884   6.905   1.427
 5951SOL    HW129884   6.801   6.860   1.461
 5951SOL    HW229885   6.927   6.847   1.359
 5952SOL     OW29886   7.614   1.156   0.983
 5952SOL    HW129887   7.662   1.185   1.066
 5952SOL    HW229888   7.651   1.206   0.905
 5953SOL     OW29889   6.773   3.022   6.365
 5953SOL    HW129890   6.851   2.960   6.353
 5953SOL    HW229891   6.689   2.974   6.339
 5954SOL     OW29892   3.758   2.854   1.166
 5954SOL    HW129893   3.662   2.879   1.156
 5954SOL    HW229894   3.810   2.892   1.090
 5955SOL     OW29895   6.173   7.057   6.627
 5955SOL    HW129896   6.139   7.146   6.659
 5955SOL    HW229897   6.187   6.997   6.705
 5956SOL     OW29898   9.438   8.093   0.978
 5956SOL    HW129899   9.455   8.007   1.027
 5956SOL    HW229900   9.481   8.169   1.028
 5957SOL     OW29901   2.313   3.113   5.955
 5957SOL    HW129902   2.312   3.183   6.027
 5957SOL    HW229903   2.406   3.077   5.946
 5958SOL     OW29904   6.547   2.816   2.089
 5958SOL    HW129905   6.450   2.827   2.106
 5958SOL    HW229906   6.583   2.743   2.148
 5959SOL     OW29907   1.794   0.255   6.703
 5959SOL    HW129908   1.767   0.347   6.676
 5959SOL    HW229909   1.720   0.191   6.684
 5960SOL     OW29910   2.920   3.534   1.583
 5960SOL    HW129911   2.880   3.497   1.499
 5960SOL    HW229912   2.858   3.600   1.624
 5961SOL     OW29913   5.532  -0.040   0.941
 5961SOL    HW129914   5.452  -0.095   0.921
 5961SOL    HW229915   5.504   0.050   0.974
 5962SOL     OW29916   1.237   2.502   7.116
 5962SOL    HW129917   1.275   2.445   7.190
 5962SOL    HW229918   1.262   2.598   7.132
 5963SOL     OW29919   9.307   3.393   0.597
 5963SOL    HW129920   9.344   3.301   0.589
 5963SOL    HW229921   9.306   3.421   0.693
 5964SOL     OW29922   8.260   0.411   6.679
 5964SOL    HW129923   8.254   0.496   6.731
 5964SOL    HW229924   8.354   0.396   6.650
 5965SOL     OW29925   5.299   7.596   6.786
 5965SOL    HW129926   5.314   7.599   6.884
 5965SOL    HW229927   5.247   7.514   6.762
 5966SOL     OW29928   7.979   5.322   6.604
 5966SOL    HW129929   8.075   5.333   6.579
 5966SOL    HW229930   7.939   5.247   6.552
 5967SOL     OW29931   3.000   0.886   0.489
 5967SOL    HW129932   3.001   0.840   0.578
 5967SOL    HW229933   2.911   0.929   0.474
 5968SOL     OW29934   3.304   3.834   1.259
 5968SOL    HW129935   3.220   3.799   1.300
 5968SOL    HW229936   3.343   3.765   1.197
 5969SOL     OW29937   3.870   1.970   6.978
 5969SOL    HW129938   3.907   1.935   6.892
 5969SOL    HW229939   3.932   2.039   7.015
 5970SOL     OW29940   8.630   4.670   6.717
 5970SOL    HW129941   8.708   4.722   6.750
 5970SOL    HW229942   8.551   4.686   6.776
 5971SOL     OW29943   6.681   6.667   0.778
 5971SOL    HW129944   6.658   6.742   0.715
 5971SOL    HW229945   6.780   6.664   0.792
 5972SOL     OW29946   9.079   7.563   0.631
 5972SOL    HW129947   9.033   7.484   0.673
 5972SOL    HW229948   9.043   7.647   0.671
 5973SOL     OW29949   0.608   1.112   6.291
 5973SOL    HW129950   0.677   1.080   6.227
 5973SOL    HW229951   0.605   1.212   6.289
 5974SOL     OW29952   2.848   4.758   6.659
 5974SOL    HW129953   2.815   4.846   6.695
 5974SOL    HW229954   2.948   4.762   6.649
 5975SOL     OW29955   2.600   3.751   0.620
 5975SOL    HW129956   2.645   3.777   0.534
 5975SOL    HW229957   2.584   3.652   0.620
 5976SOL     OW29958   3.826   0.556   6.463
 5976SOL    HW129959   3.825   0.642   6.513
 5976SOL    HW229960   3.885   0.491   6.510
 5977SOL     OW29961   5.964   7.347   6.888
 5977SOL    HW129962   5.957   7.264   6.942
 5977SOL    HW229963   5.873   7.389   6.879
 5978SOL     OW29964   5.906   1.265   6.151
 5978SOL    HW129965   5.955   1.214   6.080
 5978SOL    HW229966   5.838   1.325   6.108
 5979SOL     OW29967   4.105   0.082   5.490
 5979SOL    HW129968   4.057  -0.006   5.485
 5979SOL    HW229969   4.098   0.129   5.401
 5980SOL     OW29970   4.259   0.428   1.225
 5980SOL    HW129971   4.189   0.431   1.297
 5980SOL    HW229972   4.290   0.334   1.213
 5981SOL     OW29973   8.739   1.308   5.337
 5981SOL    HW129974   8.799   1.384   5.361
 5981SOL    HW229975   8.696   1.326   5.248
 5982SOL     OW29976   7.572   1.472   1.510
 5982SOL    HW129977   7.488   1.493   1.459
 5982SOL    HW229978   7.581   1.373   1.521
 5983SOL     OW29979   4.895   3.389   6.265
 5983SOL    HW129980   4.880   3.326   6.188
 5983SOL    HW229981   4.993   3.401   6.278
 5984SOL     OW29982   6.068   4.708   7.061
 5984SOL    HW129983   6.093   4.753   7.147
 5984SOL    HW229984   6.070   4.609   7.073
 5985SOL     OW29985   5.284   1.154   6.668
 5985SOL    HW129986   5.258   1.108   6.583
 5985SOL    HW229987   5.253   1.101   6.746
 5986SOL     OW29988   9.504   5.822   5.719
 5986SOL    HW129989   9.575   5.848   5.655
 5986SOL    HW229990   9.432   5.892   5.719
 5987SOL     OW29991   4.339   3.856   6.662
 5987SOL    HW129992   4.307   3.855   6.567
 5987SOL    HW229993   4.395   3.937   6.677
 5988SOL     OW29994   2.014   7.505   1.418
 5988SOL    HW129995   1.983   7.412   1.437
 5988SOL    HW229996   2.093   7.526   1.476
 5989SOL     OW29997   5.295   2.855   1.506
 5989SOL    HW129998   5.319   2.758   1.495
 5989SOL    HW229999   5.197   2.863   1.523
 5990SOL     OW30000   8.084   7.713   1.504
 5990SOL    HW130001   8.072   7.731   1.601
 5990SOL    HW230002   8.063   7.617   1.485
 5991SOL     OW30003   3.145   3.251   6.615
 5991SOL    HW130004   3.099   3.293   6.537
 5991SOL    HW230005   3.243   3.272   6.612
 5992SOL     OW30006   9.558   5.763   6.153
 5992SOL    HW130007   9.555   5.701   6.232
 5992SOL    HW230008   9.542   5.711   6.069
 5993SOL     OW30009   3.559   0.870   5.824
 5993SOL    HW130010   3.486   0.923   5.867
 5993SOL    HW230011   3.539   0.860   5.726
 5994SOL     OW30012   5.950   2.652   6.232
 5994SOL    HW130013   5.999   2.673   6.147
 5994SOL    HW230014   5.899   2.732   6.262
 5995SOL     OW30015   4.190   6.031   0.831
 5995SOL    HW130016   4.153   6.099   0.768
 5995SOL    HW230017   4.166   5.939   0.799
 5996SOL     OW30018   9.273   5.341   7.148
 5996SOL    HW130019   9.262   5.439   7.135
 5996SOL    HW230020   9.183   5.297   7.149
 5997SOL     OW30021   4.713   2.245   7.146
 5997SOL    HW130022   4.706   2.312   7.220
 5997SOL    HW230023   4.769   2.168   7.177
 5998SOL     OW30024   9.593   6.722   5.997
 5998SOL    HW130025   9.603   6.819   5.974
 5998SOL    HW230026   9.640   6.703   6.083
 5999SOL     OW30027   8.263   1.888   1.964
 5999SOL    HW130028   8.351   1.910   2.006
 5999SOL    HW230029   8.278   1.841   1.877
 6000SOL     OW30030   3.453   0.444   6.510
 6000SOL    HW130031   3.457   0.431   6.610
 6000SOL    HW230032   3.485   0.535   6.486
 6001SOL     OW30033   1.576   6.604   6.520
 6001SOL    HW130034   1.517   6.549   6.579
 6001SOL    HW230035   1.668   6.563   6.518
 6002SOL     OW30036   4.527   5.757   1.832
 6002SOL    HW130037   4.592   5.768   1.757
 6002SOL    HW230038   4.468   5.678   1.814
 6003SOL     OW30039   4.177   2.595   6.256
 6003SOL    HW130040   4.189   2.694   6.254
 6003SOL    HW230041   4.087   2.573   6.293
 6004SOL     OW30042   0.884   2.097   0.877
 6004SOL    HW130043   0.793   2.064   0.903
 6004SOL    HW230044   0.890   2.195   0.897
 6005SOL     OW30045   9.559   3.368   7.014
 6005SOL    HW130046   9.592   3.355   7.108
 6005SOL    HW230047   9.630   3.414   6.961
 6006SOL     OW30048   2.666   6.734   5.188
 6006SOL    HW130049   2.765   6.729   5.177
 6006SOL    HW230050   2.624   6.756   5.100
 6007SOL     OW30051   4.477   1.896   0.942
 6007SOL    HW130052   4.380   1.873   0.945
 6007SOL    HW230053   4.530   1.827   0.991
 6008SOL     OW30054   2.885   6.623   0.718
 6008SOL    HW130055   2.930   6.655   0.801
 6008SOL    HW230056   2.796   6.582   0.742
 6009SOL     OW30057   2.378   6.498   6.014
 6009SOL    HW130058   2.299   6.518   5.956
 6009SOL    HW230059   2.351   6.504   6.110
 6010SOL     OW30060   2.167   5.314   6.179
 6010SOL    HW130061   2.246   5.368   6.153
 6010SOL    HW230062   2.116   5.286   6.097
 6011SOL     OW30063   5.802   2.406   1.303
 6011SOL    HW130064   5.725   2.364   1.256
 6011SOL    HW230065   5.881   2.344   1.301
 6012SOL     OW30066   9.360   1.464   1.088
 6012SOL    HW130067   9.323   1.546   1.044
 6012SOL    HW230068   9.353   1.473   1.187
 6013SOL     OW30069   4.501   7.953   2.471
 6013SOL    HW130070   4.542   8.031   2.519
 6013SOL    HW230071   4.412   7.933   2.511
 6014SOL     OW30072   9.277   3.366   1.537
 6014SOL    HW130073   9.232   3.277   1.537
 6014SOL    HW230074   9.285   3.400   1.631
 6015SOL     OW30075   0.338   5.756   4.898
 6015SOL    HW130076   0.276   5.807   4.957
 6015SOL    HW230077   0.308   5.661   4.891
 6016SOL     OW30078   0.228   8.366   6.088
 6016SOL    HW130079   0.275   8.440   6.136
 6016SOL    HW230080   0.256   8.366   5.992
 6017SOL     OW30081   4.551   1.090   1.187
 6017SOL    HW130082   4.603   1.030   1.246
 6017SOL    HW230083   4.462   1.049   1.167
 6018SOL     OW30084   1.878   4.003   5.493
 6018SOL    HW130085   1.943   3.927   5.501
 6018SOL    HW230086   1.844   4.007   5.399
 6019SOL     OW30087   6.562   5.603   6.868
 6019SOL    HW130088   6.471   5.642   6.884
 6019SOL    HW230089   6.570   5.574   6.773
 6020SOL     OW30090   8.949   1.254   1.272
 6020SOL    HW130091   8.998   1.169   1.253
 6020SOL    HW230092   8.933   1.261   1.370
 6021SOL     OW30093   5.934   4.165   7.163
 6021SOL    HW130094   5.851   4.188   7.112
 6021SOL    HW230095   6.013   4.170   7.102
 6022SOL     OW30096   1.424   6.369   6.086
 6022SOL    HW130097   1.438   6.467   6.100
 6022SOL    HW230098   1.428   6.321   6.173
 6023SOL     OW30099   6.703   5.899   0.466
 6023SOL    HW130100   6.757   5.816   0.448
 6023SOL    HW230101   6.632   5.878   0.533
 6024SOL     OW30102   6.342   3.267   7.093
 6024SOL    HW130103   6.384   3.314   7.016
 6024SOL    HW230104   6.346   3.325   7.174
 6025SOL     OW30105   1.100   3.040   5.868
 6025SOL    HW130106   1.199   3.045   5.879
 6025SOL    HW230107   1.078   3.034   5.771
 6026SOL     OW30108   0.740   6.174   6.842
 6026SOL    HW130109   0.672   6.210   6.779
 6026SOL    HW230110   0.767   6.246   6.907
 6027SOL     OW30111   5.606   0.225   1.902
 6027SOL    HW130112   5.574   0.300   1.843
 6027SOL    HW230113   5.687   0.183   1.861
 6028SOL     OW30114   4.271   7.516   1.451
 6028SOL    HW130115   4.282   7.457   1.532
 6028SOL    HW230116   4.174   7.537   1.438
 6029SOL     OW30117   6.367   0.484   1.242
 6029SOL    HW130118   6.310   0.404   1.258
 6029SOL    HW230119   6.310   0.566   1.238
 6030SOL     OW30120   3.068   8.301   1.758
 6030SOL    HW130121   2.997   8.312   1.828
 6030SOL    HW230122   3.096   8.391   1.726
 6031SOL     OW30123   4.408   8.099   5.575
 6031SOL    HW130124   4.451   8.022   5.526
 6031SOL    HW230125   4.324   8.126   5.528
 6032SOL     OW30126   4.469   6.839   0.611
 6032SOL    HW130127   4.377   6.878   0.600
 6032SOL    HW230128   4.519   6.847   0.525
 6033SOL     OW30129   8.063   7.599   1.136
 6033SOL    HW130130   8.029   7.666   1.070
 6033SOL    HW230131   8.162   7.592   1.128
 6034SOL     OW30132   8.133   5.900   6.514
 6034SOL    HW130133   8.057   5.949   6.556
 6034SOL    HW230134   8.142   5.927   6.418
 6035SOL     OW30135   9.111   0.529   6.807
 6035SOL    HW130136   9.099   0.618   6.763
 6035SOL    HW230137   9.126   0.459   6.737
 6036SOL     OW30138   2.678   7.887   5.586
 6036SOL    HW130139   2.771   7.907   5.554
 6036SOL    HW230140   2.619   7.871   5.507
 6037SOL     OW30141   2.218   3.786   0.986
 6037SOL    HW130142   2.137   3.843   1.003
 6037SOL    HW230143   2.190   3.691   0.975
 6038SOL     OW30144   7.236  -0.003   1.221
 6038SOL    HW130145   7.162   0.030   1.279
 6038SOL    HW230146   7.322  -0.001   1.272
 6039SOL     OW30147   2.206   7.241   6.136
 6039SOL    HW130148   2.246   7.220   6.047
 6039SOL    HW230149   2.111   7.211   6.139
 6040SOL     OW30150   9.447   8.419   1.893
 6040SOL    HW130151   9.476   8.512   1.917
 6040SOL    HW230152   9.498   8.353   1.948
 6041SOL     OW30153   2.581   7.002   1.083
 6041SOL    HW130154   2.528   7.064   1.141
 6041SOL    HW230155   2.613   7.052   1.002
 6042SOL     OW30156   7.376   8.397   1.687
 6042SOL    HW130157   7.385   8.472   1.752
 6042SOL    HW230158   7.428   8.318   1.720
 6043SOL     OW30159   1.797   2.044   6.521
 6043SOL    HW130160   1.768   2.127   6.473
 6043SOL    HW230161   1.812   1.971   6.456
 6044SOL     OW30162   0.960   1.292   6.369
 6044SOL    HW130163   0.989   1.216   6.311
 6044SOL    HW230164   0.947   1.374   6.314
 6045SOL     OW30165   6.100   6.065   0.603
 6045SOL    HW130166   6.056   6.107   0.683
 6045SOL    HW230167   6.059   6.103   0.520
 6046SOL     OW30168   1.973   3.337   0.431
 6046SOL    HW130169   2.062   3.298   0.454
 6046SOL    HW230170   1.982   3.435   0.418
 6047SOL     OW30171   6.819   6.105   5.149
 6047SOL    HW130172   6.857   6.063   5.231
 6047SOL    HW230173   6.767   6.036   5.098
 6048SOL     OW30174   6.159   0.046   6.501
 6048SOL    HW130175   6.088   0.116   6.493
 6048SOL    HW230176   6.217   0.049   6.419
 6049SOL     OW30177   4.434   6.895   6.753
 6049SOL    HW130178   4.489   6.930   6.677
 6049SOL    HW230179   4.463   6.802   6.775
 6050SOL     OW30180   4.964   0.196   0.831
 6050SOL    HW130181   5.048   0.238   0.867
 6050SOL    HW230182   4.903   0.172   0.907
 6051SOL     OW30183   3.034   1.717   1.298
 6051SOL    HW130184   3.079   1.710   1.387
 6051SOL    HW230185   2.940   1.748   1.311
 6052SOL     OW30186   0.787   5.310   0.433
 6052SOL    HW130187   0.818   5.406   0.429
 6052SOL    HW230188   0.749   5.283   0.345
 6053SOL     OW30189   3.281   0.326   1.256
 6053SOL    HW130190   3.259   0.315   1.353
 6053SOL    HW230191   3.380   0.325   1.245
 6054SOL     OW30192   8.782   0.327   6.963
 6054SOL    HW130193   8.692   0.295   6.934
 6054SOL    HW230194   8.835   0.354   6.883
 6055SOL     OW30195   1.446   3.567   6.598
 6055SOL    HW130196   1.370   3.532   6.544
 6055SOL    HW230197   1.530   3.563   6.544
 6056SOL     OW30198   5.885   4.094   0.967
 6056SOL    HW130199   5.970   4.053   0.934
 6056SOL    HW230200   5.807   4.042   0.931
 6057SOL     OW30201   8.574   2.045   0.568
 6057SOL    HW130202   8.503   2.071   0.634
 6057SOL    HW230203   8.633   2.124   0.550
 6058SOL     OW30204   8.392   0.866   5.992
 6058SOL    HW130205   8.394   0.957   5.950
 6058SOL    HW230206   8.381   0.797   5.921
 6059SOL     OW30207   7.572   7.655   0.932
 6059SOL    HW130208   7.571   7.706   1.018
 6059SOL    HW230209   7.598   7.560   0.950
 6060SOL     OW30210   8.768   2.093   1.280
 6060SOL    HW130211   8.761   2.193   1.287
 6060SOL    HW230212   8.817   2.058   1.359
 6061SOL     OW30213   8.829   8.052   6.191
 6061SOL    HW130214   8.745   8.106   6.180
 6061SOL    HW230215   8.820   7.967   6.139
 6062SOL     OW30216   9.310   7.507   6.832
 6062SOL    HW130217   9.308   7.569   6.910
 6062SOL    HW230218   9.277   7.555   6.750
 6063SOL     OW30219   2.773   2.531   1.665
 6063SOL    HW130220   2.686   2.508   1.621
 6063SOL    HW230221   2.776   2.488   1.756
 6064SOL     OW30222   4.291   1.593   2.317
 6064SOL    HW130223   4.370   1.532   2.325
 6064SOL    HW230224   4.207   1.540   2.323
 6065SOL     OW30225   4.928   8.431   0.442
 6065SOL    HW130226   5.014   8.474   0.468
 6065SOL    HW230227   4.866   8.499   0.405
 6066SOL     OW30228   6.778   5.060   7.089
 6066SOL    HW130229   6.875   5.036   7.080
 6066SOL    HW230230   6.753   5.124   7.017
 6067SOL     OW30231   2.242   3.240   0.475
 6067SOL    HW130232   2.275   3.157   0.520
 6067SOL    HW230233   2.247   3.229   0.376
 6068SOL     OW30234   8.054   1.749   0.464
 6068SOL    HW130235   8.112   1.670   0.481
 6068SOL    HW230236   8.046   1.804   0.547
 6069SOL     OW30237   1.662   7.618   0.479
 6069SOL    HW130238   1.665   7.518   0.474
 6069SOL    HW230239   1.593   7.652   0.415
 6070SOL     OW30240   0.762   1.730   1.136
 6070SOL    HW130241   0.748   1.751   1.233
 6070SOL    HW230242   0.848   1.771   1.105
 6071SOL     OW30243   4.204   0.284   1.645
 6071SOL    HW130244   4.106   0.275   1.662
 6071SOL    HW230245   4.252   0.301   1.731
 6072SOL     OW30246   2.261   0.254   5.508
 6072SOL    HW130247   2.274   0.306   5.423
 6072SOL    HW230248   2.194   0.182   5.493
 6073SOL     OW30249   1.330   0.195   0.803
 6073SOL    HW130250   1.297   0.120   0.860
 6073SOL    HW230251   1.315   0.282   0.850
 6074SOL     OW30252   2.801   0.743   5.982
 6074SOL    HW130253   2.755   0.828   5.955
 6074SOL    HW230254   2.755   0.665   5.941
 6075SOL     OW30255   0.936   8.410   0.910
 6075SOL    HW130256   0.983   8.468   0.844
 6075SOL    HW230257   0.992   8.329   0.929
 6076SOL     OW30258   3.212   0.724   1.647
 6076SOL    HW130259   3.244   0.634   1.620
 6076SOL    HW230260   3.121   0.740   1.609
 6077SOL     OW30261   8.300   2.056   0.655
 6077SOL    HW130262   8.213   2.046   0.703
 6077SOL    HW230263   8.288   2.027   0.559
 6078SOL     OW30264   0.463   4.427   1.891
 6078SOL    HW130265   0.441   4.523   1.876
 6078SOL    HW230266   0.411   4.392   1.968
 6079SOL     OW30267   2.401   5.791   1.834
 6079SOL    HW130268   2.361   5.703   1.861
 6079SOL    HW230269   2.501   5.782   1.830
 6080SOL     OW30270   4.322   4.283   1.905
 6080SOL    HW130271   4.328   4.381   1.891
 6080SOL    HW230272   4.289   4.264   1.998
 6081SOL     OW30273   1.349   6.588   1.589
 6081SOL    HW130274   1.337   6.590   1.490
 6081SOL    HW230275   1.323   6.676   1.628
 6082SOL     OW30276   6.052   7.047   5.814
 6082SOL    HW130277   6.136   7.059   5.867
 6082SOL    HW230278   6.014   6.956   5.832
 6083SOL     OW30279   1.546   3.968   6.318
 6083SOL    HW130280   1.643   3.945   6.324
 6083SOL    HW230281   1.533   4.039   6.248
 6084SOL     OW30282   7.453   6.062   6.743
 6084SOL    HW130283   7.463   6.155   6.707
 6084SOL    HW230284   7.356   6.038   6.747
 6085SOL     OW30285   1.380   5.626   0.718
 6085SOL    HW130286   1.338   5.635   0.628
 6085SOL    HW230287   1.331   5.683   0.783
 6086SOL     OW30288   7.057   3.249   1.417
 6086SOL    HW130289   6.988   3.294   1.474
 6086SOL    HW230290   7.135   3.310   1.405
 6087SOL     OW30291   4.167   2.813   2.106
 6087SOL    HW130292   4.220   2.837   2.187
 6087SOL    HW230293   4.101   2.742   2.130
 6088SOL     OW30294   7.396   3.410   2.280
 6088SOL    HW130295   7.367   3.470   2.354
 6088SOL    HW230296   7.326   3.407   2.210
 6089SOL     OW30297   7.803   8.395   6.437
 6089SOL    HW130298   7.765   8.485   6.456
 6089SOL    HW230299   7.852   8.397   6.350
 6090SOL     OW30300   5.057   6.876   6.216
 6090SOL    HW130301   5.101   6.794   6.180
 6090SOL    HW230302   4.973   6.849   6.265
 6091SOL     OW30303   2.213   1.971   1.102
 6091SOL    HW130304   2.281   1.899   1.108
 6091SOL    HW230305   2.128   1.941   1.146
 6092SOL     OW30306   4.574   3.417   6.754
 6092SOL    HW130307   4.652   3.475   6.778
 6092SOL    HW230308   4.548   3.434   6.659
 6093SOL     OW30309   0.471   3.552   6.306
 6093SOL    HW130310   0.563   3.561   6.344
 6093SOL    HW230311   0.475   3.496   6.223
 6094SOL     OW30312   1.346   3.817   6.438
 6094SOL    HW130313   1.423   3.876   6.413
 6094SOL    HW230314   1.376   3.749   6.504
 6095SOL     OW30315   9.122   4.701   6.424
 6095SOL    HW130316   9.216   4.692   6.458
 6095SOL    HW230317   9.108   4.639   6.347
 6096SOL     OW30318   8.443   1.950   5.866
 6096SOL    HW130319   8.394   1.866   5.887
 6096SOL    HW230320   8.467   1.952   5.769
 6097SOL     OW30321   3.812   4.702   6.190
 6097SOL    HW130322   3.902   4.740   6.211
 6097SOL    HW230323   3.821   4.607   6.163
 6098SOL     OW30324   5.621   3.193   6.187
 6098SOL    HW130325   5.558   3.246   6.243
 6098SOL    HW230326   5.571   3.151   6.111
 6099SOL     OW30327   8.490   7.771   0.530
 6099SOL    HW130328   8.551   7.766   0.609
 6099SOL    HW230329   8.535   7.820   0.456
 6100SOL     OW30330   1.262   7.490   0.970
 6100SOL    HW130331   1.361   7.483   0.984
 6100SOL    HW230332   1.244   7.553   0.895
 6101SOL     OW30333   3.261   6.135   5.912
 6101SOL    HW130334   3.274   6.100   5.819
 6101SOL    HW230335   3.291   6.065   5.978
 6102SOL     OW30336   7.760   3.139   6.196
 6102SOL    HW130337   7.727   3.228   6.228
 6102SOL    HW230338   7.846   3.152   6.147
 6103SOL     OW30339   4.594   0.541   5.944
 6103SOL    HW130340   4.547   0.530   5.857
 6103SOL    HW230341   4.531   0.577   6.012
 6104SOL     OW30342   3.581   7.738   5.387
 6104SOL    HW130343   3.591   7.646   5.426
 6104SOL    HW230344   3.657   7.756   5.325
 6105SOL     OW30345   6.121   5.573   0.875
 6105SOL    HW130346   6.192   5.643   0.881
 6105SOL    HW230347   6.116   5.523   0.961
 6106SOL     OW30348   0.842   1.769   6.546
 6106SOL    HW130349   0.796   1.843   6.596
 6106SOL    HW230350   0.885   1.806   6.464
 6107SOL     OW30351   7.984   2.684   1.094
 6107SOL    HW130352   8.037   2.604   1.122
 6107SOL    HW230353   8.028   2.727   1.015
 6108SOL     OW30354   8.945   6.692   5.745
 6108SOL    HW130355   9.022   6.629   5.733
 6108SOL    HW230356   8.859   6.642   5.738
 6109SOL     OW30357   5.924   3.728   0.433
 6109SOL    HW130358   5.896   3.666   0.506
 6109SOL    HW230359   5.999   3.686   0.382
 6110SOL     OW30360   1.382   5.349   0.623
 6110SOL    HW130361   1.365   5.441   0.588
 6110SOL    HW230362   1.349   5.343   0.717
 6111SOL     OW30363   5.931   3.241   0.792
 6111SOL    HW130364   5.920   3.256   0.694
 6111SOL    HW230365   5.861   3.177   0.824
 6112SOL     OW30366   3.575   7.876   1.154
 6112SOL    HW130367   3.643   7.854   1.224
 6112SOL    HW230368   3.495   7.917   1.196
 6113SOL     OW30369   0.504   3.175   1.156
 6113SOL    HW130370   0.505   3.267   1.195
 6113SOL    HW230371   0.469   3.111   1.223
 6114SOL     OW30372   6.359   4.639   0.471
 6114SOL    HW130373   6.402   4.717   0.517
 6114SOL    HW230374   6.351   4.657   0.373
 6115SOL     OW30375   7.495   7.774   5.684
 6115SOL    HW130376   7.433   7.779   5.605
 6115SOL    HW230377   7.441   7.761   5.767
 6116SOL     OW30378   1.943   7.152   6.102
 6116SOL    HW130379   1.896   7.235   6.072
 6116SOL    HW230380   1.876   7.079   6.115
 6117SOL     OW30381   3.339   7.800   5.478
 6117SOL    HW130382   3.434   7.784   5.452
 6117SOL    HW230383   3.336   7.863   5.556
 6118SOL     OW30384   9.100   5.436   0.657
 6118SOL    HW130385   9.020   5.377   0.673
 6118SOL    HW230386   9.174   5.407   0.718
 6119SOL     OW30387   4.539   1.445   2.406
 6119SOL    HW130388   4.551   1.346   2.411
 6119SOL    HW230389   4.629   1.489   2.405
 6120SOL     OW30390   8.680   0.286   1.455
 6120SOL    HW130391   8.763   0.239   1.484
 6120SOL    HW230392   8.622   0.303   1.535
 6121SOL     OW30393   9.350  -0.061   6.606
 6121SOL    HW130394   9.448  -0.079   6.603
 6121SOL    HW230395   9.332   0.016   6.667
 6122SOL     OW30396   8.919   5.914   4.900
 6122SOL    HW130397   8.875   5.948   4.817
 6122SOL    HW230398   8.901   5.977   4.975
 6123SOL     OW30399   9.451   6.307   1.763
 6123SOL    HW130400   9.362   6.273   1.730
 6123SOL    HW230401   9.522   6.239   1.745
 6124SOL     OW30402   1.768   5.250   7.010
 6124SOL    HW130403   1.728   5.249   7.101
 6124SOL    HW230404   1.739   5.332   6.961
 6125SOL     OW30405   9.298   3.515   2.213
 6125SOL    HW130406   9.291   3.482   2.307
 6125SOL    HW230407   9.221   3.481   2.160
 6126SOL     OW30408   8.399   2.316   0.754
 6126SOL    HW130409   8.366   2.224   0.730
 6126SOL    HW230410   8.352   2.384   0.698
 6127SOL     OW30411   7.833   7.594   1.268
 6127SOL    HW130412   7.923   7.593   1.224
 6127SOL    HW230413   7.786   7.679   1.244
 6128SOL     OW30414   9.188   4.788   6.110
 6128SOL    HW130415   9.255   4.805   6.183
 6128SOL    HW230416   9.224   4.718   6.048
 6129SOL     OW30417   2.540   1.929   1.011
 6129SOL    HW130418   2.532   1.858   1.082
 6129SOL    HW230419   2.605   1.899   0.941
 6130SOL     OW30420   2.034   2.383   1.863
 6130SOL    HW130421   2.046   2.472   1.906
 6130SOL    HW230422   1.983   2.323   1.925
 6131SOL     OW30423   3.763   2.879   7.039
 6131SOL    HW130424   3.853   2.923   7.044
 6131SOL    HW230425   3.697   2.932   7.092
 6132SOL     OW30426   5.940   3.936   6.157
 6132SOL    HW130427   5.965   3.839   6.155
 6132SOL    HW230428   5.860   3.950   6.099
 6133SOL     OW30429   6.333   4.761   1.206
 6133SOL    HW130430   6.320   4.769   1.107
 6133SOL    HW230431   6.408   4.821   1.234
 6134SOL     OW30432   5.500   1.113   5.819
 6134SOL    HW130433   5.516   1.104   5.918
 6134SOL    HW230434   5.405   1.091   5.799
 6135SOL     OW30435   2.562   7.753   0.928
 6135SOL    HW130436   2.598   7.771   1.020
 6135SOL    HW230437   2.523   7.661   0.925
 6136SOL     OW30438   5.742   3.091   6.444
 6136SOL    HW130439   5.708   3.111   6.352
 6136SOL    HW230440   5.702   3.156   6.509
 6137SOL     OW30441   9.031   5.701   7.137
 6137SOL    HW130442   8.954   5.747   7.094
 6137SOL    HW230443   8.998   5.640   7.209
 6138SOL     OW30444   2.544   2.461   2.687
 6138SOL    HW130445   2.605   2.530   2.649
 6138SOL    HW230446   2.449   2.490   2.673
 6139SOL     OW30447   2.407   1.015   0.977
 6139SOL    HW130448   2.457   1.101   0.984
 6139SOL    HW230449   2.320   1.023   1.026
 6140SOL     OW30450   5.830   7.790   7.101
 6140SOL    HW130451   5.851   7.807   7.197
 6140SOL    HW230452   5.916   7.785   7.049
 6141SOL     OW30453   9.557   5.356   0.986
 6141SOL    HW130454   9.525   5.270   0.947
 6141SOL    HW230455   9.530   5.361   1.082
 6142SOL     OW30456   7.276   5.254   6.870
 6142SOL    HW130457   7.246   5.314   6.796
 6142SOL    HW230458   7.200   5.238   6.933
 6143SOL     OW30459   4.323   5.561   1.809
 6143SOL    HW130460   4.240   5.510   1.787
 6143SOL    HW230461   4.393   5.499   1.844
 6144SOL     OW30462   3.888   0.128   1.068
 6144SOL    HW130463   3.880   0.197   1.140
 6144SOL    HW230464   3.943   0.165   0.993
 6145SOL     OW30465   4.690   5.474   1.412
 6145SOL    HW130466   4.712   5.556   1.358
 6145SOL    HW230467   4.695   5.393   1.353
 6146SOL     OW30468   7.151   2.123   1.617
 6146SOL    HW130469   7.193   2.144   1.529
 6146SOL    HW230470   7.136   2.208   1.668
 6147SOL     OW30471   2.254   0.971   7.098
 6147SOL    HW130472   2.158   0.955   7.119
 6147SOL    HW230473   2.287   1.049   7.151
 6148SOL     OW30474   3.223   2.147   2.157
 6148SOL    HW130475   3.162   2.222   2.180
 6148SOL    HW230476   3.308   2.183   2.119
 6149SOL     OW30477   5.057   5.470   7.146
 6149SOL    HW130478   5.040   5.512   7.235
 6149SOL    HW230479   5.098   5.380   7.158
 6150SOL     OW30480   2.033   4.414   1.554
 6150SOL    HW130481   1.982   4.373   1.479
 6150SOL    HW230482   1.987   4.496   1.586
 6151SOL     OW30483   3.482   4.386   6.938
 6151SOL    HW130484   3.470   4.482   6.963
 6151SOL    HW230485   3.401   4.334   6.965
 6152SOL     OW30486   4.126   4.102   1.463
 6152SOL    HW130487   4.088   4.120   1.554
 6152SOL    HW230488   4.173   4.183   1.429
 6153SOL     OW30489   4.110   4.124   1.766
 6153SOL    HW130490   4.075   4.122   1.860
 6153SOL    HW230491   4.189   4.185   1.762
 6154SOL     OW30492   5.023   7.684   1.851
 6154SOL    HW130493   5.099   7.674   1.916
 6154SOL    HW230494   5.057   7.669   1.758
 6155SOL     OW30495   8.270   1.811   1.572
 6155SOL    HW130496   8.329   1.784   1.648
 6155SOL    HW230497   8.202   1.877   1.604
 6156SOL     OW30498   7.654   4.965   6.414
 6156SOL    HW130499   7.633   4.891   6.478
 6156SOL    HW230500   7.744   5.002   6.435
 6157SOL     OW30501   0.486   6.053   1.337
 6157SOL    HW130502   0.490   5.967   1.287
 6157SOL    HW230503   0.486   6.035   1.435
 6158SOL     OW30504   1.868   4.725   7.115
 6158SOL    HW130505   1.942   4.704   7.050
 6158SOL    HW230506   1.846   4.822   7.111
 6159SOL     OW30507   3.404   0.306   5.894
 6159SOL    HW130508   3.439   0.399   5.894
 6159SOL    HW230509   3.334   0.297   5.965
 6160SOL     OW30510   2.695   8.316   0.718
 6160SOL    HW130511   2.688   8.384   0.791
 6160SOL    HW230512   2.694   8.224   0.758
 6161SOL     OW30513   3.781   7.506   5.238
 6161SOL    HW130514   3.762   7.412   5.208
 6161SOL    HW230515   3.865   7.507   5.291
 6162SOL     OW30516   1.300   4.277   6.307
 6162SOL    HW130517   1.333   4.259   6.215
 6162SOL    HW230518   1.203   4.251   6.313
 6163SOL     OW30519   5.252   7.811   1.956
 6163SOL    HW130520   5.313   7.890   1.956
 6163SOL    HW230521   5.296   7.735   2.005
 6164SOL     OW30522   1.512   4.952   0.993
 6164SOL    HW130523   1.458   4.876   0.956
 6164SOL    HW230524   1.481   5.038   0.951
 6165SOL     OW30525   1.251   6.015   1.297
 6165SOL    HW130526   1.327   6.049   1.242
 6165SOL    HW230527   1.286   5.963   1.375
 6166SOL     OW30528   4.488   5.877   6.875
 6166SOL    HW130529   4.536   5.889   6.788
 6166SOL    HW230530   4.555   5.863   6.948
 6167SOL     OW30531   9.208   5.530   6.144
 6167SOL    HW130532   9.140   5.458   6.162
 6167SOL    HW230533   9.279   5.526   6.215
 6168SOL     OW30534   1.251   7.571   0.697
 6168SOL    HW130535   1.271   7.542   0.603
 6168SOL    HW230536   1.191   7.503   0.740
 6169SOL     OW30537   8.703   2.840   5.617
 6169SOL    HW130538   8.774   2.796   5.562
 6169SOL    HW230539   8.669   2.921   5.568
 6170SOL     OW30540   8.463   7.971   5.572
 6170SOL    HW130541   8.461   8.049   5.509
 6170SOL    HW230542   8.493   7.889   5.524
 6171SOL     OW30543   7.952   3.804   6.872
 6171SOL    HW130544   7.899   3.872   6.922
 6171SOL    HW230545   7.915   3.713   6.888
 6172SOL     OW30546   2.773   1.422   1.462
 6172SOL    HW130547   2.691   1.470   1.490
 6172SOL    HW230548   2.851   1.453   1.516
 6173SOL     OW30549   6.909   5.685   6.074
 6173SOL    HW130550   6.941   5.751   6.142
 6173SOL    HW230551   6.810   5.673   6.084
 6174SOL     OW30552   4.322   0.391   1.859
 6174SOL    HW130553   4.343   0.303   1.900
 6174SOL    HW230554   4.388   0.459   1.889
 6175SOL     OW30555   3.516   2.859   2.532
 6175SOL    HW130556   3.529   2.765   2.564
 6175SOL    HW230557   3.456   2.908   2.595
 6176SOL     OW30558   0.795   5.263   0.951
 6176SOL    HW130559   0.729   5.215   1.010
 6176SOL    HW230560   0.855   5.197   0.906
 6177SOL     OW30561   4.010   7.329   1.169
 6177SOL    HW130562   4.022   7.345   1.072
 6177SOL    HW230563   4.049   7.240   1.193
 6178SOL     OW30564   5.153   1.709   0.912
 6178SOL    HW130565   5.171   1.794   0.962
 6178SOL    HW230566   5.231   1.647   0.923
 6179SOL     OW30567   1.827   0.660   0.790
 6179SOL    HW130568   1.879   0.707   0.860
 6179SOL    HW230569   1.857   0.690   0.699
 6180SOL     OW30570   5.200   8.317   2.206
 6180SOL    HW130571   5.295   8.326   2.235
 6180SOL    HW230572   5.141   8.314   2.286
 6181SOL     OW30573   4.902   2.090   0.527
 6181SOL    HW130574   4.971   2.021   0.505
 6181SOL    HW230575   4.928   2.137   0.611
 6182SOL     OW30576   3.828   1.936   2.922
 6182SOL    HW130577   3.836   1.837   2.913
 6182SOL    HW230578   3.740   1.959   2.965
 6183SOL     OW30579   5.133   2.244   7.037
 6183SOL    HW130580   5.056   2.242   6.974
 6183SOL    HW230581   5.101   2.225   7.130
 6184SOL     OW30582   8.588   6.656   6.507
 6184SOL    HW130583   8.634   6.587   6.564
 6184SOL    HW230584   8.556   6.613   6.423
 6185SOL     OW30585   8.271   2.365   1.605
 6185SOL    HW130586   8.182   2.333   1.636
 6185SOL    HW230587   8.262   2.404   1.513
 6186SOL     OW30588   0.407   2.579   6.146
 6186SOL    HW130589   0.401   2.660   6.204
 6186SOL    HW230590   0.315   2.549   6.121
 6187SOL     OW30591   3.546   1.972   2.063
 6187SOL    HW130592   3.607   1.964   1.984
 6187SOL    HW230593   3.499   1.886   2.078
 6188SOL     OW30594   3.927   6.841   2.053
 6188SOL    HW130595   3.968   6.828   1.963
 6188SOL    HW230596   3.986   6.899   2.109
 6189SOL     OW30597   7.602   4.761   6.609
 6189SOL    HW130598   7.673   4.715   6.663
 6189SOL    HW230599   7.518   4.769   6.663
 6190SOL     OW30600   5.450   2.208   0.930
 6190SOL    HW130601   5.397   2.289   0.956
 6190SOL    HW230602   5.437   2.137   0.999
 6191SOL     OW30603   5.045   8.312   1.979
 6191SOL    HW130604   5.119   8.272   1.925
 6191SOL    HW230605   5.077   8.331   2.072
 6192SOL     OW30606   9.466   5.717   1.241
 6192SOL    HW130607   9.445   5.734   1.338
 6192SOL    HW230608   9.557   5.751   1.220
 6193SOL     OW30609   0.662   6.811   5.154
 6193SOL    HW130610   0.605   6.770   5.225
 6193SOL    HW230611   0.631   6.779   5.064
 6194SOL     OW30612   7.513   5.245   7.034
 6194SOL    HW130613   7.592   5.209   6.984
 6194SOL    HW230614   7.443   5.276   6.970
 6195SOL     OW30615   2.222   5.717   6.429
 6195SOL    HW130616   2.314   5.683   6.446
 6195SOL    HW230617   2.189   5.765   6.510
 6196SOL     OW30618   9.472   6.083   7.076
 6196SOL    HW130619   9.432   6.172   7.099
 6196SOL    HW230620   9.499   6.082   6.980
 6197SOL     OW30621   1.635   4.589   6.550
 6197SOL    HW130622   1.588   4.501   6.549
 6197SOL    HW230623   1.709   4.587   6.617
 6198SOL     OW30624   1.144   5.793   1.154
 6198SOL    HW130625   1.196   5.856   1.211
 6198SOL    HW230626   1.157   5.699   1.187
 6199SOL     OW30627   8.204   3.899   0.709
 6199SOL    HW130628   8.253   3.817   0.740
 6199SOL    HW230629   8.258   3.945   0.638
 6200SOL     OW30630   7.534   2.031   7.107
 6200SOL    HW130631   7.443   1.993   7.098
 6200SOL    HW230632   7.601   1.968   7.068
 6201SOL     OW30633   1.989   0.337   2.314
 6201SOL    HW130634   1.926   0.270   2.353
 6201SOL    HW230635   1.938   0.404   2.261
 6202SOL     OW30636   1.121   5.118   1.655
 6202SOL    HW130637   1.142   5.216   1.657
 6202SOL    HW230638   1.205   5.066   1.666
 6203SOL     OW30639   3.528   4.668   6.240
 6203SOL    HW130640   3.615   4.666   6.191
 6203SOL    HW230641   3.472   4.591   6.211
 6204SOL     OW30642   5.549   4.791   0.991
 6204SOL    HW130643   5.517   4.832   0.907
 6204SOL    HW230644   5.551   4.860   1.064
 6205SOL     OW30645   7.055   5.533   5.841
 6205SOL    HW130646   7.010   5.598   5.903
 6205SOL    HW230647   7.099   5.460   5.895
 6206SOL     OW30648   3.298   4.403   6.709
 6206SOL    HW130649   3.342   4.434   6.624
 6206SOL    HW230650   3.360   4.418   6.786
 6207SOL     OW30651   1.737   2.665   5.880
 6207SOL    HW130652   1.729   2.645   5.782
 6207SOL    HW230653   1.704   2.757   5.898
 6208SOL     OW30654   3.374   0.252   6.341
 6208SOL    HW130655   3.413   0.325   6.397
 6208SOL    HW230656   3.383   0.165   6.390
 6209SOL     OW30657   0.898   0.696   5.813
 6209SOL    HW130658   0.878   0.705   5.911
 6209SOL    HW230659   0.985   0.743   5.794
 6210SOL     OW30660   2.943   5.114   5.924
 6210SOL    HW130661   2.929   5.195   5.866
 6210SOL    HW230662   2.952   5.033   5.866
 6211SOL     OW30663   1.491   8.140   0.800
 6211SOL    HW130664   1.444   8.212   0.851
 6211SOL    HW230665   1.536   8.078   0.864
 6212SOL     OW30666   6.199   2.528   5.819
 6212SOL    HW130667   6.244   2.535   5.908
 6212SOL    HW230668   6.257   2.572   5.749
 6213SOL     OW30669   0.945   1.878   1.011
 6213SOL    HW130670   0.931   1.964   0.962
 6213SOL    HW230671   1.040   1.849   1.000
 6214SOL     OW30672   3.262   0.433   1.992
 6214SOL    HW130673   3.337   0.389   2.043
 6214SOL    HW230674   3.199   0.362   1.960
 6215SOL     OW30675   6.239   7.470   1.677
 6215SOL    HW130676   6.267   7.474   1.581
 6215SOL    HW230677   6.183   7.550   1.699
 6216SOL     OW30678   0.540   3.016   6.420
 6216SOL    HW130679   0.478   3.075   6.474
 6216SOL    HW230680   0.605   2.971   6.481
 6217SOL     OW30681   9.116   4.759   0.865
 6217SOL    HW130682   9.062   4.821   0.807
 6217SOL    HW230683   9.188   4.717   0.810
 6218SOL     OW30684   2.144   2.689   6.686
 6218SOL    HW130685   2.129   2.671   6.589
 6218SOL    HW230686   2.066   2.654   6.739
 6219SOL     OW30687   0.942   4.429   6.377
 6219SOL    HW130688   0.968   4.509   6.322
 6219SOL    HW230689   1.024   4.392   6.422
 6220SOL     OW30690   3.528   2.236   2.131
 6220SOL    HW130691   3.525   2.139   2.110
 6220SOL    HW230692   3.596   2.253   2.203
 6221SOL     OW30693   5.642   0.213   0.436
 6221SOL    HW130694   5.568   0.278   0.419
 6221SOL    HW230695   5.606   0.134   0.486
 6222SOL     OW30696   0.607   1.629   6.812
 6222SOL    HW130697   0.575   1.595   6.724
 6222SOL    HW230698   0.574   1.568   6.885
 6223SOL     OW30699   1.206   6.346   6.821
 6223SOL    HW130700   1.144   6.383   6.752
 6223SOL    HW230701   1.154   6.309   6.898
 6224SOL     OW30702   3.086   3.928   1.632
 6224SOL    HW130703   3.057   3.994   1.563
 6224SOL    HW230704   3.075   3.968   1.723
 6225SOL     OW30705   5.880   7.300   6.015
 6225SOL    HW130706   5.812   7.236   5.980
 6225SOL    HW230707   5.924   7.346   5.938
 6226SOL     OW30708   0.990   7.211   5.503
 6226SOL    HW130709   0.940   7.180   5.584
 6226SOL    HW230710   0.938   7.188   5.421
 6227SOL     OW30711   2.017   6.999   0.477
 6227SOL    HW130712   2.011   6.900   0.468
 6227SOL    HW230713   2.020   7.024   0.574
 6228SOL     OW30714   0.919   5.068   0.812
 6228SOL    HW130715   0.862   4.990   0.786
 6228SOL    HW230716   0.958   5.109   0.729
 6229SOL     OW30717   1.285   6.708   5.473
 6229SOL    HW130718   1.344   6.651   5.416
 6229SOL    HW230719   1.209   6.653   5.507
 6230SOL     OW30720   9.199   0.114   6.992
 6230SOL    HW130721   9.232   0.125   6.899
 6230SOL    HW230722   9.109   0.157   7.002
 6231SOL     OW30723   0.136   5.026   1.124
 6231SOL    HW130724   0.178   4.938   1.146
 6231SOL    HW230725   0.036   5.016   1.126
 6232SOL     OW30726   8.258   8.282   6.568
 6232SOL    HW130727   8.165   8.308   6.593
 6232SOL    HW230728   8.268   8.182   6.575
 6233SOL     OW30729   4.884   4.507   0.859
 6233SOL    HW130730   4.786   4.509   0.840
 6233SOL    HW230731   4.925   4.595   0.835
 6234SOL     OW30732   5.419   5.637   1.683
 6234SOL    HW130733   5.321   5.641   1.702
 6234SOL    HW230734   5.441   5.699   1.607
 6235SOL     OW30735   6.489   2.046   6.026
 6235SOL    HW130736   6.399   2.075   5.994
 6235SOL    HW230737   6.553   2.047   5.950
 6236SOL     OW30738   5.321   1.822   7.091
 6236SOL    HW130739   5.343   1.902   7.147
 6236SOL    HW230740   5.398   1.802   7.031
 6237SOL     OW30741   3.785   5.957   6.133
 6237SOL    HW130742   3.873   5.949   6.088
 6237SOL    HW230743   3.717   5.993   6.069
 6238SOL     OW30744   8.460   3.274   6.618
 6238SOL    HW130745   8.410   3.354   6.584
 6238SOL    HW230746   8.395   3.207   6.654
 6239SOL     OW30747   1.468   1.062   0.655
 6239SOL    HW130748   1.381   1.107   0.637
 6239SOL    HW230749   1.463   0.967   0.624
 6240SOL     OW30750   4.240   4.384   1.620
 6240SOL    HW130751   4.145   4.408   1.598
 6240SOL    HW230752   4.247   4.366   1.719
 6241SOL     OW30753   9.386   4.671   6.453
 6241SOL    HW130754   9.428   4.712   6.372
 6241SOL    HW230755   9.451   4.608   6.496
 6242SOL     OW30756   1.668   0.047   6.798
 6242SOL    HW130757   1.659  -0.051   6.780
 6242SOL    HW230758   1.750   0.063   6.852
 6243SOL     OW30759   3.326   7.712   1.697
 6243SOL    HW130760   3.351   7.662   1.614
 6243SOL    HW230761   3.301   7.806   1.672
 6244SOL     OW30762   1.185   5.023   2.140
 6244SOL    HW130763   1.196   4.933   2.181
 6244SOL    HW230764   1.254   5.036   2.069
 6245SOL     OW30765   3.821   7.378   5.935
 6245SOL    HW130766   3.894   7.446   5.934
 6245SOL    HW230767   3.844   7.307   6.002
 6246SOL     OW30768   3.802   2.881   2.322
 6246SOL    HW130769   3.825   2.861   2.417
 6246SOL    HW230770   3.715   2.932   2.319
 6247SOL     OW30771   0.314   5.063   1.654
 6247SOL    HW130772   0.321   5.122   1.735
 6247SOL    HW230773   0.400   5.014   1.640
 6248SOL     OW30774   0.933   7.050   6.421
 6248SOL    HW130775   0.989   6.977   6.384
 6248SOL    HW230776   0.919   7.120   6.351
 6249SOL     OW30777   6.035   0.257   6.378
 6249SOL    HW130778   6.060   0.350   6.405
 6249SOL    HW230779   5.980   0.261   6.294
 6250SOL     OW30780   5.103   4.267   1.573
 6250SOL    HW130781   5.194   4.265   1.613
 6250SOL    HW230782   5.079   4.361   1.550
 6251SOL     OW30783   4.803   5.814   5.581
 6251SOL    HW130784   4.747   5.878   5.529
 6251SOL    HW230785   4.797   5.723   5.539
 6252SOL     OW30786   6.062   0.980   6.261
 6252SOL    HW130787   6.087   0.950   6.169
 6252SOL    HW230788   5.980   0.930   6.291
 6253SOL     OW30789   0.814   5.816   5.011
 6253SOL    HW130790   0.719   5.806   5.040
 6253SOL    HW230791   0.826   5.906   4.969
 6254SOL     OW30792   0.431   7.369   1.260
 6254SOL    HW130793   0.395   7.462   1.256
 6254SOL    HW230794   0.368   7.312   1.314
 6255SOL     OW30795   3.885   8.284   0.779
 6255SOL    HW130796   3.832   8.248   0.855
 6255SOL    HW230797   3.950   8.215   0.747
 6256SOL     OW30798   8.967   0.610   0.976
 6256SOL    HW130799   9.004   0.627   1.067
 6256SOL    HW230800   8.915   0.690   0.946
 6257SOL     OW30801   4.157   6.400   5.464
 6257SOL    HW130802   4.219   6.364   5.394
 6257SOL    HW230803   4.068   6.420   5.422
 6258SOL     OW30804   0.606   1.045   5.398
 6258SOL    HW130805   0.570   1.037   5.305
 6258SOL    HW230806   0.681   1.111   5.400
 6259SOL     OW30807   5.239   3.816   0.676
 6259SOL    HW130808   5.184   3.779   0.602
 6259SOL    HW230809   5.179   3.848   0.749
 6260SOL     OW30810   8.659   8.436   0.956
 6260SOL    HW130811   8.622   8.477   1.039
 6260SOL    HW230812   8.635   8.339   0.954
 6261SOL     OW30813   1.017   3.004   5.616
 6261SOL    HW130814   0.940   3.034   5.558
 6261SOL    HW230815   1.099   2.994   5.560
 6262SOL     OW30816   1.127   7.213   5.007
 6262SOL    HW130817   1.199   7.248   4.947
 6262SOL    HW230818   1.139   7.115   5.020
 6263SOL     OW30819   8.031   4.834   7.142
 6263SOL    HW130820   7.965   4.876   7.080
 6263SOL    HW230821   8.061   4.901   7.210
 6264SOL     OW30822   6.644   7.519   6.895
 6264SOL    HW130823   6.637   7.423   6.924
 6264SOL    HW230824   6.576   7.573   6.945
 6265SOL     OW30825   3.499   5.137   6.290
 6265SOL    HW130826   3.416   5.084   6.270
 6265SOL    HW230827   3.576   5.097   6.241
 6266SOL     OW30828   5.569   2.571   0.521
 6266SOL    HW130829   5.520   2.655   0.546
 6266SOL    HW230830   5.666   2.592   0.508
 6267SOL     OW30831   4.134   2.086   6.921
 6267SOL    HW130832   4.174   2.160   6.975
 6267SOL    HW230833   4.205   2.020   6.898
 6268SOL     OW30834   5.605   4.610   1.305
 6268SOL    HW130835   5.584   4.565   1.218
 6268SOL    HW230836   5.654   4.546   1.364
 6269SOL     OW30837   1.126   6.145   1.010
 6269SOL    HW130838   1.154   6.114   1.101
 6269SOL    HW230839   1.205   6.184   0.963
 6270SOL     OW30840   5.828   0.479   1.860
 6270SOL    HW130841   5.913   0.482   1.912
 6270SOL    HW230842   5.828   0.400   1.800
 6271SOL     OW30843   8.498   2.247   5.645
 6271SOL    HW130844   8.594   2.271   5.629
 6271SOL    HW230845   8.481   2.155   5.610
 6272SOL     OW30846   4.121   6.974   2.195
 6272SOL    HW130847   4.053   7.046   2.212
 6272SOL    HW230848   4.177   6.961   2.277
 6273SOL     OW30849   1.291   8.031   7.080
 6273SOL    HW130850   1.239   7.947   7.064
 6273SOL    HW230851   1.352   8.018   7.159
 6274SOL     OW30852   1.627   8.123   6.202
 6274SOL    HW130853   1.641   8.032   6.163
 6274SOL    HW230854   1.658   8.192   6.136
 6275SOL     OW30855   1.339   5.136   6.534
 6275SOL    HW130856   1.302   5.170   6.448
 6275SOL    HW230857   1.304   5.044   6.551
 6276SOL     OW30858   3.021   2.304   6.762
 6276SOL    HW130859   3.000   2.227   6.822
 6276SOL    HW230860   3.001   2.278   6.667
 6277SOL     OW30861   6.816   7.381   0.739
 6277SOL    HW130862   6.742   7.433   0.782
 6277SOL    HW230863   6.780   7.331   0.660
 6278SOL     OW30864   4.603   0.872   1.364
 6278SOL    HW130865   4.642   0.783   1.341
 6278SOL    HW230866   4.518   0.860   1.414
 6279SOL     OW30867   6.850   7.557   6.145
 6279SOL    HW130868   6.859   7.644   6.194
 6279SOL    HW230869   6.814   7.488   6.208
 6280SOL     OW30870   4.517   7.174   0.954
 6280SOL    HW130871   4.433   7.121   0.968
 6280SOL    HW230872   4.500   7.247   0.888
 6281SOL     OW30873   4.457   6.428   1.569
 6281SOL    HW130874   4.533   6.377   1.529
 6281SOL    HW230875   4.400   6.367   1.624
 6282SOL     OW30876   6.683   3.284   6.809
 6282SOL    HW130877   6.743   3.239   6.876
 6282SOL    HW230878   6.693   3.240   6.720
 6283SOL     OW30879   5.930   2.728   6.998
 6283SOL    HW130880   5.844   2.773   6.974
 6283SOL    HW230881   5.964   2.765   7.084
 6284SOL     OW30882   8.827   0.400   6.244
 6284SOL    HW130883   8.887   0.436   6.315
 6284SOL    HW230884   8.812   0.302   6.259
 6285SOL     OW30885   4.502   2.991   6.474
 6285SOL    HW130886   4.510   3.091   6.469
 6285SOL    HW230887   4.576   2.955   6.530
 6286SOL     OW30888   6.514   2.950   6.235
 6286SOL    HW130889   6.433   2.950   6.176
 6286SOL    HW230890   6.589   2.901   6.191
 6287SOL     OW30891   2.012   6.749   1.416
 6287SOL    HW130892   2.103   6.781   1.440
 6287SOL    HW230893   1.943   6.809   1.458
 6288SOL     OW30894   4.825   1.107   1.144
 6288SOL    HW130895   4.727   1.101   1.124
 6288SOL    HW230896   4.840   1.097   1.242
 6289SOL     OW30897   5.967   0.598   6.796
 6289SOL    HW130898   6.057   0.556   6.808
 6289SOL    HW230899   5.969   0.660   6.717
 6290SOL     OW30900   1.616   6.071   5.474
 6290SOL    HW130901   1.668   6.005   5.420
 6290SOL    HW230902   1.577   6.025   5.554
 6291SOL     OW30903   6.758   7.562   1.056
 6291SOL    HW130904   6.818   7.489   1.024
 6291SOL    HW230905   6.764   7.640   0.994
 6292SOL     OW30906   1.396   2.848   6.835
 6292SOL    HW130907   1.345   2.905   6.900
 6292SOL    HW230908   1.346   2.842   6.749
 6293SOL     OW30909   7.762   7.817   1.457
 6293SOL    HW130910   7.712   7.877   1.395
 6293SOL    HW230911   7.714   7.729   1.464
 6294SOL     OW30912   7.389   0.554   6.091
 6294SOL    HW130913   7.413   0.516   6.181
 6294SOL    HW230914   7.456   0.625   6.066
 6295SOL     OW30915   0.221   4.484   6.369
 6295SOL    HW130916   0.164   4.507   6.448
 6295SOL    HW230917   0.241   4.568   6.318
 6296SOL     OW30918   2.041   0.331   6.601
 6296SOL    HW130919   2.019   0.372   6.513
 6296SOL    HW230920   1.960   0.283   6.636
 6297SOL     OW30921   7.171   0.645   0.903
 6297SOL    HW130922   7.153   0.620   0.807
 6297SOL    HW230923   7.190   0.743   0.908
 6298SOL     OW30924   0.964   2.853   1.521
 6298SOL    HW130925   0.890   2.909   1.559
 6298SOL    HW230926   1.006   2.902   1.444
 6299SOL     OW30927   4.551   5.757   0.868
 6299SOL    HW130928   4.491   5.731   0.944
 6299SOL    HW230929   4.533   5.697   0.790
 6300SOL     OW30930   6.810   7.829   6.189
 6300SOL    HW130931   6.822   7.866   6.098
 6300SOL    HW230932   6.740   7.881   6.238
 6301SOL     OW30933   5.182   6.661   6.112
 6301SOL    HW130934   5.214   6.610   6.192
 6301SOL    HW230935   5.145   6.598   6.044
 6302SOL     OW30936   6.861   2.030   2.413
 6302SOL    HW130937   6.931   1.966   2.379
 6302SOL    HW230938   6.774   2.011   2.369
 6303SOL     OW30939   2.913   1.124   6.992
 6303SOL    HW130940   2.874   1.138   6.901
 6303SOL    HW230941   2.841   1.095   7.055
 6304SOL     OW30942   2.321   5.704   1.062
 6304SOL    HW130943   2.228   5.689   1.095
 6304SOL    HW230944   2.386   5.668   1.129
 6305SOL     OW30945   5.553   2.442   7.006
 6305SOL    HW130946   5.650   2.450   6.982
 6305SOL    HW230947   5.539   2.473   7.100
 6306SOL     OW30948   0.421   6.251   6.808
 6306SOL    HW130949   0.325   6.220   6.805
 6306SOL    HW230950   0.437   6.300   6.893
 6307SOL     OW30951   8.932   8.170   0.464
 6307SOL    HW130952   8.946   8.087   0.410
 6307SOL    HW230953   9.017   8.194   0.510
 6308SOL     OW30954   5.519   7.151   1.302
 6308SOL    HW130955   5.612   7.167   1.269
 6308SOL    HW230956   5.503   7.205   1.385
 6309SOL     OW30957   0.943   1.368   5.839
 6309SOL    HW130958   0.858   1.420   5.839
 6309SOL    HW230959   0.947   1.310   5.759
 6310SOL     OW30960   2.991   2.101   0.530
 6310SOL    HW130961   2.901   2.067   0.502
 6310SOL    HW230962   3.057   2.025   0.528
 6311SOL     OW30963   0.715   3.546   6.385
 6311SOL    HW130964   0.776   3.604   6.439
 6311SOL    HW230965   0.707   3.456   6.428
 6312SOL     OW30966   4.797   5.134   6.270
 6312SOL    HW130967   4.859   5.169   6.200
 6312SOL    HW230968   4.848   5.085   6.340
 6313SOL     OW30969   4.203   1.923   2.034
 6313SOL    HW130970   4.157   2.012   2.035
 6313SOL    HW230971   4.299   1.934   2.059
 6314SOL     OW30972   0.485   4.049   6.493
 6314SOL    HW130973   0.494   3.958   6.451
 6314SOL    HW230974   0.488   4.040   6.593
 6315SOL     OW30975   3.753   5.154   0.605
 6315SOL    HW130976   3.673   5.168   0.547
 6315SOL    HW230977   3.831   5.202   0.565
 6316SOL     OW30978   4.373   2.017   5.927
 6316SOL    HW130979   4.289   1.964   5.931
 6316SOL    HW230980   4.382   2.072   6.010
 6317SOL     OW30981   4.957   5.785   5.832
 6317SOL    HW130982   5.046   5.765   5.791
 6317SOL    HW230983   4.892   5.809   5.760
 6318SOL     OW30984   4.550   7.640   6.869
 6318SOL    HW130985   4.643   7.671   6.891
 6318SOL    HW230986   4.497   7.715   6.831
 6319SOL     OW30987   5.881   3.579   0.677
 6319SOL    HW130988   5.980   3.584   0.691
 6319SOL    HW230989   5.849   3.488   0.705
 6320SOL     OW30990   3.762   2.252   0.577
 6320SOL    HW130991   3.745   2.268   0.675
 6320SOL    HW230992   3.690   2.194   0.540
 6321SOL     OW30993   8.593   3.832   0.651
 6321SOL    HW130994   8.675   3.815   0.596
 6321SOL    HW230995   8.520   3.770   0.620
 6322SOL     OW30996   2.221   4.092   6.511
 6322SOL    HW130997   2.190   4.028   6.440
 6322SOL    HW230998   2.144   4.114   6.571
 6323SOL     OW30999   1.622   5.516   0.728
 6323SOL    HW131000   1.634   5.476   0.819
 6323SOL    HW231001   1.530   5.553   0.719
 6324SOL     OW31002   6.892   7.951   1.440
 6324SOL    HW131003   6.793   7.950   1.454
 6324SOL    HW231004   6.938   7.908   1.518
 6325SOL     OW31005   8.285   0.744   6.211
 6325SOL    HW131006   8.313   0.804   6.137
 6325SOL    HW231007   8.186   0.740   6.216
 6326SOL     OW31008   1.719   6.006   1.269
 6326SOL    HW131009   1.781   5.952   1.212
 6326SOL    HW231010   1.747   5.999   1.365
 6327SOL     OW31011   4.367   1.777   0.613
 6327SOL    HW131012   4.332   1.798   0.704
 6327SOL    HW231013   4.378   1.862   0.561
 6328SOL     OW31014   9.362   0.663   7.002
 6328SOL    HW131015   9.439   0.704   7.052
 6328SOL    HW231016   9.291   0.732   6.990
 6329SOL     OW31017   4.416   2.963   6.231
 6329SOL    HW131018   4.394   3.058   6.210
 6329SOL    HW231019   4.468   2.959   6.316
 6330SOL     OW31020   9.063   0.691   6.264
 6330SOL    HW131021   9.121   0.764   6.301
 6330SOL    HW231022   8.977   0.730   6.233
 6331SOL     OW31023   6.909   7.289   6.061
 6331SOL    HW131024   6.948   7.333   5.980
 6331SOL    HW231025   6.959   7.320   6.142
 6332SOL     OW31026   1.510   0.889   6.642
 6332SOL    HW131027   1.494   0.813   6.706
 6332SOL    HW231028   1.567   0.958   6.686
 6333SOL     OW31029   6.087   3.454   0.814
 6333SOL    HW131030   6.041   3.365   0.815
 6333SOL    HW231031   6.089   3.491   0.907
 6334SOL     OW31032   1.289   8.417   1.240
 6334SOL    HW131033   1.280   8.487   1.311
 6334SOL    HW231034   1.372   8.363   1.256
 6335SOL     OW31035   9.253   3.115   6.240
 6335SOL    HW131036   9.330   3.135   6.180
 6335SOL    HW231037   9.174   3.170   6.212
 6336SOL     OW31038   5.610   3.692   1.584
 6336SOL    HW131039   5.518   3.721   1.556
 6336SOL    HW231040   5.652   3.764   1.638
 6337SOL     OW31041   9.579   7.303   6.149
 6337SOL    HW131042   9.590   7.291   6.248
 6337SOL    HW231043   9.612   7.394   6.123
 6338SOL     OW31044   6.141   5.003   5.662
 6338SOL    HW131045   6.073   5.019   5.590
 6338SOL    HW231046   6.209   5.077   5.660
 6339SOL     OW31047   3.006   4.999   6.481
 6339SOL    HW131048   2.913   4.984   6.515
 6339SOL    HW231049   3.054   5.063   6.540
 6340SOL     OW31050   5.703   5.678   1.169
 6340SOL    HW131051   5.671   5.767   1.201
 6340SOL    HW231052   5.717   5.618   1.247
 6341SOL     OW31053   4.507   0.800   6.395
 6341SOL    HW131054   4.427   0.752   6.431
 6341SOL    HW231055   4.587   0.777   6.450
 6342SOL     OW31056   7.652   1.330   0.765
 6342SOL    HW131057   7.740   1.331   0.717
 6342SOL    HW231058   7.597   1.408   0.734
 6343SOL     OW31059   0.238   8.420   0.868
 6343SOL    HW131060   0.266   8.324   0.869
 6343SOL    HW231061   0.141   8.426   0.845
 6344SOL     OW31062   6.112   6.042   1.311
 6344SOL    HW131063   6.208   6.025   1.332
 6344SOL    HW231064   6.056   6.020   1.391
 6345SOL     OW31065   7.926   6.118   6.424
 6345SOL    HW131066   7.887   6.082   6.339
 6345SOL    HW231067   7.882   6.074   6.502
 6346SOL     OW31068   7.877   7.870   1.071
 6346SOL    HW131069   7.910   7.938   1.006
 6346SOL    HW231070   7.778   7.857   1.058
 6347SOL     OW31071   5.234   8.235   0.786
 6347SOL    HW131072   5.203   8.141   0.771
 6347SOL    HW231073   5.334   8.236   0.791
 6348SOL     OW31074   0.350   0.268   5.027
 6348SOL    HW131075   0.413   0.322   5.082
 6348SOL    HW231076   0.296   0.329   4.969
 6349SOL     OW31077   1.344  -0.044   6.548
 6349SOL    HW131078   1.384  -0.066   6.459
 6349SOL    HW231079   1.385  -0.103   6.619
 6350SOL     OW31080   6.313   5.484   1.574
 6350SOL    HW131081   6.375   5.413   1.608
 6350SOL    HW231082   6.274   5.456   1.487
 6351SOL     OW31083   2.266   0.660   0.749
 6351SOL    HW131084   2.314   0.748   0.743
 6351SOL    HW231085   2.319   0.597   0.806
 6352SOL     OW31086   2.717   5.993   0.932
 6352SOL    HW131087   2.759   5.935   1.002
 6352SOL    HW231088   2.713   5.942   0.846
 6353SOL     OW31089   8.958   0.431   0.623
 6353SOL    HW131090   8.905   0.439   0.538
 6353SOL    HW231091   9.050   0.467   0.607
 6354SOL     OW31092   0.158   2.781   6.324
 6354SOL    HW131093   0.164   2.820   6.232
 6354SOL    HW231094   0.062   2.766   6.347
 6355SOL     OW31095   8.742   5.638   6.245
 6355SOL    HW131096   8.838   5.651   6.219
 6355SOL    HW231097   8.727   5.679   6.335
 6356SOL     OW31098   8.414   8.069   0.890
 6356SOL    HW131099   8.329   8.117   0.866
 6356SOL    HW231100   8.478   8.074   0.813
 6357SOL     OW31101   1.916   4.154   0.766
 6357SOL    HW131102   1.959   4.236   0.730
 6357SOL    HW231103   1.829   4.177   0.810
 6358SOL     OW31104   0.740   8.387   0.522
 6358SOL    HW131105   0.653   8.413   0.478
 6358SOL    HW231106   0.733   8.403   0.620
 6359SOL     OW31107   7.096   5.120   1.755
 6359SOL    HW131108   7.042   5.075   1.826
 6359SOL    HW231109   7.117   5.055   1.682
 6360SOL     OW31110   2.074   1.182   1.893
 6360SOL    HW131111   2.155   1.124   1.880
 6360SOL    HW231112   2.089   1.241   1.973
 6361SOL     OW31113   3.414   8.393   1.640
 6361SOL    HW131114   3.441   8.316   1.696
 6361SOL    HW231115   3.492   8.424   1.585
 6362SOL     OW31116   3.910   4.698   7.148
 6362SOL    HW131117   3.852   4.779   7.141
 6362SOL    HW231118   3.871   4.625   7.091
 6363SOL     OW31119   0.383   7.185   4.627
 6363SOL    HW131120   0.418   7.144   4.711
 6363SOL    HW231121   0.384   7.118   4.554
 6364SOL     OW31122   8.866   5.770   6.743
 6364SOL    HW131123   8.835   5.865   6.755
 6364SOL    HW231124   8.908   5.760   6.653
 6365SOL     OW31125   9.574   7.738   6.242
 6365SOL    HW131126   9.567   7.826   6.196
 6365SOL    HW231127   9.621   7.673   6.182
 6366SOL     OW31128   4.180   2.851   6.268
 6366SOL    HW131129   4.110   2.908   6.225
 6366SOL    HW231130   4.271   2.887   6.245
 6367SOL     OW31131   4.994   5.286   5.718
 6367SOL    HW131132   4.994   5.199   5.668
 6367SOL    HW231133   4.908   5.295   5.768
 6368SOL     OW31134   1.489   5.602   1.680
 6368SOL    HW131135   1.570   5.661   1.675
 6368SOL    HW231136   1.502   5.534   1.751
 6369SOL     OW31137   6.353  -0.002   6.744
 6369SOL    HW131138   6.448  -0.012   6.712
 6369SOL    HW231139   6.291  -0.010   6.667
 6370SOL     OW31140   0.458   4.584   6.622
 6370SOL    HW131141   0.517   4.507   6.648
 6370SOL    HW231142   0.363   4.562   6.645
 6371SOL     OW31143   8.346   5.066   6.015
 6371SOL    HW131144   8.322   4.974   5.986
 6371SOL    HW231145   8.264   5.115   6.044
 6372SOL     OW31146   0.205   5.512   6.261
 6372SOL    HW131147   0.251   5.593   6.298
 6372SOL    HW231148   0.264   5.469   6.193
 6373SOL     OW31149   0.964   6.642   1.482
 6373SOL    HW131150   0.955   6.672   1.577
 6373SOL    HW231151   0.895   6.689   1.426
 6374SOL     OW31152   9.311   4.092   1.693
 6374SOL    HW131153   9.357   4.133   1.772
 6374SOL    HW231154   9.254   4.161   1.648
 6375SOL     OW31155   6.076   4.390   6.968
 6375SOL    HW131156   5.982   4.423   6.963
 6375SOL    HW231157   6.113   4.381   6.875
 6376SOL     OW31158   3.676   8.285   6.964
 6376SOL    HW131159   3.754   8.327   7.011
 6376SOL    HW231160   3.618   8.357   6.925
 6377SOL     OW31161   1.155   3.083   1.178
 6377SOL    HW131162   1.111   3.136   1.250
 6377SOL    HW231163   1.132   3.121   1.088
 6378SOL     OW31164   4.451   6.839   1.048
 6378SOL    HW131165   4.395   6.910   1.091
 6378SOL    HW231166   4.394   6.760   1.025
 6379SOL     OW31167   2.560   2.937   1.176
 6379SOL    HW131168   2.575   2.947   1.078
 6379SOL    HW231169   2.578   3.025   1.221
 6380SOL     OW31170   6.832   7.242   1.100
 6380SOL    HW131171   6.931   7.238   1.084
 6380SOL    HW231172   6.812   7.197   1.187
 6381SOL     OW31173   5.443   6.681   6.025
 6381SOL    HW131174   5.501   6.600   6.030
 6381SOL    HW231175   5.370   6.674   6.093
 6382SOL     OW31176   1.939   4.403   1.091
 6382SOL    HW131177   1.859   4.356   1.054
 6382SOL    HW231178   2.001   4.337   1.131
 6383SOL     OW31179   8.880   0.797   6.631
 6383SOL    HW131180   8.818   0.763   6.560
 6383SOL    HW231181   8.869   0.743   6.714
 6384SOL     OW31182   1.109   0.676   1.688
 6384SOL    HW131183   1.047   0.651   1.762
 6384SOL    HW231184   1.203   0.656   1.715
 6385SOL     OW31185   7.761   6.954   6.831
 6385SOL    HW131186   7.694   6.927   6.762
 6385SOL    HW231187   7.851   6.960   6.789
 6386SOL     OW31188   1.817   3.240   6.728
 6386SOL    HW131189   1.885   3.245   6.802
 6386SOL    HW231190   1.735   3.291   6.754
 6387SOL     OW31191   0.886   8.028   5.819
 6387SOL    HW131192   0.908   8.103   5.881
 6387SOL    HW231193   0.831   7.960   5.867
 6388SOL     OW31194   1.482   8.417   6.301
 6388SOL    HW131195   1.400   8.456   6.260
 6388SOL    HW231196   1.561   8.473   6.275
 6389SOL     OW31197   9.452   7.855   1.083
 6389SOL    HW131198   9.365   7.818   1.050
 6389SOL    HW231199   9.508   7.781   1.120
 6390SOL     OW31200   3.554   0.936   2.622
 6390SOL    HW131201   3.587   0.933   2.716
 6390SOL    HW231202   3.514   0.848   2.597
 6391SOL     OW31203   5.127   5.297   6.144
 6391SOL    HW131204   5.080   5.365   6.088
 6391SOL    HW231205   5.127   5.209   6.096
 6392SOL     OW31206   3.138   4.747   6.710
 6392SOL    HW131207   3.228   4.708   6.693
 6392SOL    HW231208   3.148   4.839   6.747
 6393SOL     OW31209   2.567   3.201   6.528
 6393SOL    HW131210   2.657   3.217   6.569
 6393SOL    HW231211   2.579   3.167   6.434
 6394SOL     OW31212   5.166   6.043   6.933
 6394SOL    HW131213   5.114   6.091   6.862
 6394SOL    HW231214   5.187   6.106   7.007
 6395SOL     OW31215   2.248   1.300   6.542
 6395SOL    HW131216   2.205   1.220   6.583
 6395SOL    HW231217   2.298   1.272   6.459
 6396SOL     OW31218   2.629   7.740   6.260
 6396SOL    HW131219   2.574   7.657   6.269
 6396SOL    HW231220   2.710   7.733   6.318
 6397SOL     OW31221   8.404   6.663   1.361
 6397SOL    HW131222   8.504   6.672   1.353
 6397SOL    HW231223   8.382   6.582   1.414
 6398SOL     OW31224   1.364   1.601   6.684
 6398SOL    HW131225   1.305   1.627   6.608
 6398SOL    HW231226   1.322   1.524   6.733
 6399SOL     OW31227   2.212   6.248   6.570
 6399SOL    HW131228   2.294   6.288   6.529
 6399SOL    HW231229   2.130   6.289   6.528
 6400SOL     OW31230   2.553   7.941   0.700
 6400SOL    HW131231   2.539   7.876   0.774
 6400SOL    HW231232   2.615   7.903   0.632
 6401SOL     OW31233   0.553   6.492   4.482
 6401SOL    HW131234   0.650   6.469   4.483
 6401SOL    HW231235   0.536   6.567   4.546
 6402SOL     OW31236   5.449   2.930   0.979
 6402SOL    HW131237   5.374   2.949   0.916
 6402SOL    HW231238   5.452   2.999   1.051
 6403SOL     OW31239   1.400   5.572   5.437
 6403SOL    HW131240   1.483   5.534   5.395
 6403SOL    HW231241   1.344   5.616   5.367
 6404SOL     OW31242   9.538   3.939   2.012
 6404SOL    HW131243   9.475   4.002   1.966
 6404SOL    HW231244   9.565   3.978   2.100
 6405SOL     OW31245   8.988   5.736   6.506
 6405SOL    HW131246   8.962   5.780   6.421
 6405SOL    HW231247   9.013   5.641   6.488
 6406SOL     OW31248   0.216   2.167   6.886
 6406SOL    HW131249   0.194   2.091   6.948
 6406SOL    HW231250   0.303   2.148   6.840
 6407SOL     OW31251   1.946   0.280   5.631
 6407SOL    HW131252   2.018   0.271   5.562
 6407SOL    HW231253   1.955   0.369   5.676
 6408SOL     OW31254   7.078   5.202   5.331
 6408SOL    HW131255   7.032   5.187   5.243
 6408SOL    HW231256   7.177   5.208   5.316
 6409SOL     OW31257   0.526   3.116   0.561
 6409SOL    HW131258   0.454   3.050   0.585
 6409SOL    HW231259   0.511   3.201   0.611
 6410SOL     OW31260   8.971   4.922   6.213
 6410SOL    HW131261   8.957   4.907   6.311
 6410SOL    HW231262   9.047   4.866   6.181
 6411SOL     OW31263   4.497   8.371   1.079
 6411SOL    HW131264   4.593   8.362   1.052
 6411SOL    HW231265   4.486   8.340   1.174
 6412SOL     OW31266   1.956   2.101   6.269
 6412SOL    HW131267   1.972   2.057   6.357
 6412SOL    HW231268   1.860   2.128   6.262
 6413SOL     OW31269   7.904   2.988   1.204
 6413SOL    HW131270   7.982   3.011   1.261
 6413SOL    HW231271   7.876   2.893   1.223
 6414SOL     OW31272   1.221   5.257   5.904
 6414SOL    HW131273   1.306   5.279   5.856
 6414SOL    HW231274   1.203   5.327   5.973
 6415SOL     OW31275   6.605   8.075   0.834
 6415SOL    HW131276   6.559   8.155   0.796
 6415SOL    HW231277   6.689   8.057   0.781
 6416SOL     OW31278   2.229   5.974   1.185
 6416SOL    HW131279   2.316   5.932   1.161
 6416SOL    HW231280   2.194   5.933   1.269
 6417SOL     OW31281   4.222   7.773   0.487
 6417SOL    HW131282   4.264   7.856   0.450
 6417SOL    HW231283   4.123   7.775   0.470
 6418SOL     OW31284   0.217   0.328   7.103
 6418SOL    HW131285   0.219   0.263   7.179
 6418SOL    HW231286   0.303   0.323   7.053
 6419SOL     OW31287   1.834   3.923   6.039
 6419SOL    HW131288   1.783   3.857   5.985
 6419SOL    HW231289   1.800   4.016   6.019
 6420SOL     OW31290   2.529   0.951   7.080
 6420SOL    HW131291   2.436   0.927   7.108
 6420SOL    HW231292   2.528   1.042   7.037
 6421SOL     OW31293   3.086   7.539   5.688
 6421SOL    HW131294   3.107   7.634   5.714
 6421SOL    HW231295   3.170   7.495   5.655
 6422SOL     OW31296   0.594   5.120   1.119
 6422SOL    HW131297   0.501   5.156   1.130
 6422SOL    HW231298   0.589   5.023   1.096
 6423SOL     OW31299   6.231   6.664   1.611
 6423SOL    HW131300   6.317   6.615   1.596
 6423SOL    HW231301   6.173   6.655   1.529
 6424SOL     OW31302   6.141   2.967   0.992
 6424SOL    HW131303   6.109   2.927   1.078
 6424SOL    HW231304   6.204   3.042   1.011
 6425SOL     OW31305   0.781   8.061   6.198
 6425SOL    HW131306   0.756   8.121   6.121
 6425SOL    HW231307   0.880   8.064   6.211
 6426SOL     OW31308   8.382   7.407   7.155
 6426SOL    HW131309   8.336   7.475   7.212
 6426SOL    HW231310   8.476   7.437   7.136
 6427SOL     OW31311   6.049   0.286   5.862
 6427SOL    HW131312   6.122   0.245   5.808
 6427SOL    HW231313   5.973   0.221   5.871
 6428SOL     OW31314   1.715   7.353   6.476
 6428SOL    HW131315   1.745   7.448   6.460
 6428SOL    HW231316   1.667   7.320   6.395
 6429SOL     OW31317   9.109   2.561   7.064
 6429SOL    HW131318   9.111   2.610   7.151
 6429SOL    HW231319   9.029   2.590   7.011
 6430SOL     OW31320   8.427   6.909   5.357
 6430SOL    HW131321   8.428   6.823   5.408
 6430SOL    HW231322   8.372   6.898   5.274
 6431SOL     OW31323   1.110   4.475   6.036
 6431SOL    HW131324   1.201   4.469   6.077
 6431SOL    HW231325   1.118   4.493   5.938
 6432SOL     OW31326   6.597   1.620   7.136
 6432SOL    HW131327   6.637   1.710   7.152
 6432SOL    HW231328   6.641   1.553   7.197
 6433SOL     OW31329   1.941   6.455   1.433
 6433SOL    HW131330   1.896   6.409   1.357
 6433SOL    HW231331   1.968   6.547   1.404
 6434SOL     OW31332   0.169   5.229   7.009
 6434SOL    HW131333   0.230   5.283   7.067
 6434SOL    HW231334   0.176   5.132   7.034
 6435SOL     OW31335   2.225   5.196   1.066
 6435SOL    HW131336   2.288   5.201   1.143
 6435SOL    HW231337   2.186   5.105   1.060
 6436SOL     OW31338   4.022   1.473   1.985
 6436SOL    HW131339   4.089   1.546   1.979
 6436SOL    HW231340   4.068   1.386   2.005
 6437SOL     OW31341   3.951   0.341   6.599
 6437SOL    HW131342   4.038   0.290   6.599
 6437SOL    HW231343   3.896   0.310   6.677
 6438SOL     OW31344   3.439   4.018   0.673
 6438SOL    HW131345   3.361   3.982   0.723
 6438SOL    HW231346   3.433   4.117   0.667
 6439SOL     OW31347   0.147   8.420   6.599
 6439SOL    HW131348   0.183   8.360   6.671
 6439SOL    HW231349   0.185   8.511   6.610
 6440SOL     OW31350   3.773   1.427   1.570
 6440SOL    HW131351   3.795   1.334   1.601
 6440SOL    HW231352   3.814   1.493   1.634
 6441SOL     OW31353   1.775   4.976   0.872
 6441SOL    HW131354   1.680   4.958   0.894
 6441SOL    HW231355   1.784   4.997   0.774
 6442SOL     OW31356   4.164   5.448   1.335
 6442SOL    HW131357   4.109   5.525   1.368
 6442SOL    HW231358   4.179   5.383   1.409
 6443SOL     OW31359   9.477   7.082   5.369
 6443SOL    HW131360   9.496   7.034   5.283
 6443SOL    HW231361   9.532   7.165   5.374
 6444SOL     OW31362   5.734   4.784   6.281
 6444SOL    HW131363   5.644   4.758   6.244
 6444SOL    HW231364   5.790   4.703   6.295
 6445SOL     OW31365   3.239   5.088   6.067
 6445SOL    HW131366   3.294   5.016   6.110
 6445SOL    HW231367   3.215   5.059   5.974
 6446SOL     OW31368   8.355   2.556   1.793
 6446SOL    HW131369   8.388   2.518   1.880
 6446SOL    HW231370   8.335   2.482   1.730
 6447SOL     OW31371   2.742   7.616   1.516
 6447SOL    HW131372   2.803   7.600   1.594
 6447SOL    HW231373   2.648   7.592   1.542
 6448SOL     OW31374   0.262   2.380   1.132
 6448SOL    HW131375   0.319   2.298   1.135
 6448SOL    HW231376   0.317   2.459   1.161
 6449SOL     OW31377   8.803   7.040   6.305
 6449SOL    HW131378   8.771   6.951   6.270
 6449SOL    HW231379   8.735   7.075   6.370
 6450SOL     OW31380   2.118   3.288   5.518
 6450SOL    HW131381   2.174   3.323   5.442
 6450SOL    HW231382   2.059   3.214   5.485
 6451SOL     OW31383   6.921   8.425   7.038
 6451SOL    HW131384   6.932   8.374   6.953
 6451SOL    HW231385   6.845   8.388   7.090
 6452SOL     OW31386   5.757   8.346   6.570
 6452SOL    HW131387   5.670   8.367   6.525
 6452SOL    HW231388   5.783   8.423   6.628
 6453SOL     OW31389   6.381   6.445   1.144
 6453SOL    HW131390   6.445   6.380   1.103
 6453SOL    HW231391   6.310   6.396   1.193
 6454SOL     OW31392   0.521   6.080   6.244
 6454SOL    HW131393   0.489   6.037   6.329
 6454SOL    HW231394   0.540   6.177   6.261
 6455SOL     OW31395   8.828   7.849   6.017
 6455SOL    HW131396   8.880   7.767   6.040
 6455SOL    HW231397   8.732   7.826   6.004
 6456SOL     OW31398   0.818   2.407   1.859
 6456SOL    HW131399   0.813   2.473   1.934
 6456SOL    HW231400   0.913   2.384   1.840
 6457SOL     OW31401   5.660   4.869   2.347
 6457SOL    HW131402   5.638   4.786   2.398
 6457SOL    HW231403   5.609   4.946   2.384
 6458SOL     OW31404   5.359   4.266   1.704
 6458SOL    HW131405   5.433   4.298   1.645
 6458SOL    HW231406   5.397   4.229   1.789
 6459SOL     OW31407   2.636   3.463   0.651
 6459SOL    HW131408   2.725   3.438   0.689
 6459SOL    HW231409   2.565   3.449   0.720
 6460SOL     OW31410   4.126   0.861   5.636
 6460SOL    HW131411   4.205   0.840   5.693
 6460SOL    HW231412   4.051   0.896   5.693
 6461SOL     OW31413   1.559   2.124   1.392
 6461SOL    HW131414   1.589   2.104   1.485
 6461SOL    HW231415   1.506   2.209   1.392
 6462SOL     OW31416   4.567   1.982   6.327
 6462SOL    HW131417   4.551   1.973   6.229
 6462SOL    HW231418   4.567   2.078   6.353
 6463SOL     OW31419   7.971   6.966   6.458
 6463SOL    HW131420   8.035   6.969   6.381
 6463SOL    HW231421   8.021   6.983   6.543
 6464SOL     OW31422   2.904   7.617   7.036
 6464SOL    HW131423   2.957   7.581   7.113
 6464SOL    HW231424   2.937   7.709   7.013
 6465SOL     OW31425   1.698   7.846   6.459
 6465SOL    HW131426   1.776   7.909   6.456
 6465SOL    HW231427   1.614   7.897   6.441
 6466SOL     OW31428   3.022   2.372   6.246
 6466SOL    HW131429   3.079   2.340   6.170
 6466SOL    HW231430   3.026   2.307   6.321
 6467SOL     OW31431   8.061   1.057   6.675
 6467SOL    HW131432   8.083   1.034   6.581
 6467SOL    HW231433   8.024   0.977   6.722
 6468SOL     OW31434   7.873   2.826   6.595
 6468SOL    HW131435   7.894   2.750   6.534
 6468SOL    HW231436   7.788   2.806   6.645
 6469SOL     OW31437   0.728   6.611   6.825
 6469SOL    HW131438   0.664   6.683   6.852
 6469SOL    HW231439   0.803   6.652   6.773
 6470SOL     OW31440   3.107   3.567   0.981
 6470SOL    HW131441   3.187   3.582   0.923
 6470SOL    HW231442   3.029   3.540   0.924
 6471SOL     OW31443   6.476   1.684   1.968
 6471SOL    HW131444   6.451   1.779   1.950
 6471SOL    HW231445   6.430   1.624   1.903
 6472SOL     OW31446   0.245   2.332   0.655
 6472SOL    HW131447   0.184   2.391   0.707
 6472SOL    HW231448   0.295   2.271   0.717
 6473SOL     OW31449   8.444   0.793   6.490
 6473SOL    HW131450   8.429   0.721   6.558
 6473SOL    HW231451   8.389   0.774   6.408
 6474SOL     OW31452   0.439   7.787   0.850
 6474SOL    HW131453   0.418   7.714   0.916
 6474SOL    HW231454   0.528   7.827   0.872
 6475SOL     OW31455   0.675   2.166   6.314
 6475SOL    HW131456   0.623   2.251   6.310
 6475SOL    HW231457   0.771   2.186   6.334
 6476SOL     OW31458   6.810   0.153   6.499
 6476SOL    HW131459   6.908   0.155   6.484
 6476SOL    HW231460   6.766   0.223   6.442
 6477SOL     OW31461   8.667   6.900   7.214
 6477SOL    HW131462   8.586   6.877   7.270
 6477SOL    HW231463   8.732   6.824   7.218
 6478SOL     OW31464   7.909   4.649   7.102
 6478SOL    HW131465   7.840   4.615   7.037
 6478SOL    HW231466   7.958   4.726   7.061
 6479SOL     OW31467   9.190   6.042   7.329
 6479SOL    HW131468   9.237   6.082   7.408
 6479SOL    HW231469   9.097   6.017   7.355
 6480SOL     OW31470   0.737   7.365   6.946
 6480SOL    HW131471   0.712   7.396   7.038
 6480SOL    HW231472   0.743   7.265   6.945
 6481SOL     OW31473   3.174   6.891   7.081
 6481SOL    HW131474   3.137   6.798   7.086
 6481SOL    HW231475   3.104   6.954   7.050
 6482SOL     OW31476   2.992   2.792   6.764
 6482SOL    HW131477   3.009   2.811   6.861
 6482SOL    HW231478   3.063   2.836   6.709
 6483SOL     OW31479   6.226   8.100   7.384
 6483SOL    HW131480   6.235   8.146   7.295
 6483SOL    HW231481   6.279   8.016   7.382
 6484SOL     OW31482   5.907   1.650   6.802
 6484SOL    HW131483   5.828   1.680   6.748
 6484SOL    HW231484   5.990   1.664   6.749
 6485SOL     OW31485   1.527   1.166   7.344
 6485SOL    HW131486   1.532   1.147   7.443
 6485SOL    HW231487   1.561   1.258   7.327
 6486SOL     OW31488   1.481   3.145   7.018
 6486SOL    HW131489   1.424   3.192   7.087
 6486SOL    HW231490   1.451   3.171   6.927
 6487SOL     OW31491   8.385   5.212   7.296
 6487SOL    HW131492   8.416   5.147   7.226
 6487SOL    HW231493   8.289   5.234   7.280
 6488SOL     OW31494   8.320   6.064   7.431
 6488SOL    HW131495   8.347   5.967   7.420
 6488SOL    HW231496   8.284   6.077   7.523
 6489SOL     OW31497   4.609   7.106   6.907
 6489SOL    HW131498   4.568   7.129   6.995
 6489SOL    HW231499   4.545   7.130   6.834
 6490SOL     OW31500   3.124   7.747   6.787
 6490SOL    HW131501   3.111   7.836   6.832
 6490SOL    HW231502   3.057   7.682   6.823
 6491SOL     OW31503   4.343   7.370   7.376
 6491SOL    HW131504   4.281   7.424   7.318
 6491SOL    HW231505   4.345   7.276   7.343
 6492SOL     OW31506   3.287   4.751   7.212
 6492SOL    HW131507   3.383   4.778   7.220
 6492SOL    HW231508   3.229   4.829   7.233
 6493SOL     OW31509   1.236   8.263   6.863
 6493SOL    HW131510   1.255   8.344   6.920
 6493SOL    HW231511   1.206   8.188   6.921
 6494SOL     OW31512   4.659   6.042   7.374
 6494SOL    HW131513   4.748   6.058   7.418
 6494SOL    HW231514   4.666   5.965   7.311
 6495SOL     OW31515   3.290   3.698   6.840
 6495SOL    HW131516   3.190   3.705   6.838
 6495SOL    HW231517   3.330   3.786   6.819
 6496SOL     OW31518   5.177   2.107   7.448
 6496SOL    HW131519   5.225   2.145   7.369
 6496SOL    HW231520   5.137   2.020   7.423
 6497SOL     OW31521   3.804   8.144   6.800
 6497SOL    HW131522   3.781   8.201   6.879
 6497SOL    HW231523   3.895   8.107   6.812
 6498SOL     OW31524   7.654   5.636   6.847
 6498SOL    HW131525   7.638   5.645   6.945
 6498SOL    HW231526   7.748   5.610   6.830
 6499SOL     OW31527   0.539   7.137   7.108
 6499SOL    HW131528   0.536   7.125   7.008
 6499SOL    HW231529   0.534   7.048   7.152
 6500SOL     OW31530   4.433   0.553   7.186
 6500SOL    HW131531   4.497   0.563   7.262
 6500SOL    HW231532   4.349   0.511   7.218
 6501SOL     OW31533   5.694   4.493   7.419
 6501SOL    HW131534   5.748   4.559   7.365
 6501SOL    HW231535   5.678   4.411   7.365
 6502SOL     OW31536   3.359   5.017   7.144
 6502SOL    HW131537   3.440   4.958   7.144
 6502SOL    HW231538   3.386   5.112   7.152
 6503SOL     OW31539   8.291   5.605   6.943
 6503SOL    HW131540   8.313   5.507   6.952
 6503SOL    HW231541   8.365   5.652   6.896
 6504SOL     OW31542   7.054   0.325   7.341
 6504SOL    HW131543   6.998   0.253   7.383
 6504SOL    HW231544   7.141   0.287   7.311
 6505SOL     OW31545   5.401   6.818   6.876
 6505SOL    HW131546   5.442   6.899   6.833
 6505SOL    HW231547   5.449   6.736   6.844
 6506SOL     OW31548   5.830   0.095   7.230
 6506SOL    HW131549   5.879   0.052   7.308
 6506SOL    HW231550   5.775   0.171   7.263
 6507SOL     OW31551   6.830   1.918   7.162
 6507SOL    HW131552   6.797   1.837   7.113
 6507SOL    HW231553   6.803   2.000   7.112
 6508SOL     OW31554   3.221   5.606   6.944
 6508SOL    HW131555   3.225   5.633   6.848
 6508SOL    HW231556   3.198   5.510   6.951
 6509SOL     OW31557   1.930   6.811   7.461
 6509SOL    HW131558   1.949   6.851   7.551
 6509SOL    HW231559   1.985   6.856   7.392
 6510SOL     OW31560   1.722   2.618   7.042
 6510SOL    HW131561   1.819   2.630   7.064
 6510SOL    HW231562   1.704   2.521   7.026
 6511SOL     OW31563   7.939   0.846   7.085
 6511SOL    HW131564   8.005   0.776   7.058
 6511SOL    HW231565   7.859   0.802   7.124
 6512SOL     OW31566   4.478   2.358   7.154
 6512SOL    HW131567   4.515   2.284   7.097
 6512SOL    HW231568   4.543   2.434   7.155
 6513SOL     OW31569   3.221   5.915   6.807
 6513SOL    HW131570   3.157   5.920   6.729
 6513SOL    HW231571   3.255   5.822   6.816
 6514SOL     OW31572   3.308   8.444   7.213
 6514SOL    HW131573   3.220   8.489   7.231
 6514SOL    HW231574   3.312   8.359   7.265
 6515SOL     OW31575   1.602   0.921   7.335
 6515SOL    HW131576   1.602   0.906   7.236
 6515SOL    HW231577   1.695   0.931   7.367
 6516SOL     OW31578   5.954   3.118   7.439
 6516SOL    HW131579   5.877   3.097   7.379
 6516SOL    HW231580   5.938   3.079   7.529
 6517SOL     OW31581   3.336   7.860   6.852
 6517SOL    HW131582   3.356   7.918   6.932
 6517SOL    HW231583   3.345   7.765   6.877
 6518SOL     OW31584   1.911   3.519   7.112
 6518SOL    HW131585   1.964   3.536   7.028
 6518SOL    HW231586   1.946   3.577   7.184
 6519SOL     OW31587   6.993   3.465   7.302
 6519SOL    HW131588   6.996   3.478   7.402
 6519SOL    HW231589   6.927   3.394   7.280
 6520SOL     OW31590   6.496   1.542   6.943
 6520SOL    HW131591   6.441   1.603   7.001
 6520SOL    HW231592   6.566   1.499   6.999
 6521SOL     OW31593   4.155   6.333   7.274
 6521SOL    HW131594   4.056   6.330   7.261
 6521SOL    HW231595   4.200   6.313   7.188
 6522SOL     OW31596   7.914   6.827   6.786
 6522SOL    HW131597   7.879   6.885   6.711
 6522SOL    HW231598   7.984   6.766   6.751
 6523SOL     OW31599   1.663   5.241   7.133
 6523SOL    HW131600   1.682   5.181   7.055
 6523SOL    HW231601   1.571   5.277   7.125
 6524SOL     OW31602   7.021   8.024   6.826
 6524SOL    HW131603   7.034   7.933   6.786
 6524SOL    HW231604   6.950   8.073   6.774
 6525SOL     OW31605   2.946   4.437   7.369
 6525SOL    HW131606   2.877   4.367   7.346
 6525SOL    HW231607   2.905   4.527   7.364
 6526SOL     OW31608   0.411   4.102   7.122
 6526SOL    HW131609   0.471   4.114   7.202
 6526SOL    HW231610   0.321   4.138   7.143
 6527SOL     OW31611   4.922   1.920   7.270
 6527SOL    HW131612   4.908   2.011   7.230
 6527SOL    HW231613   5.020   1.900   7.271
 6528SOL     OW31614   6.627   7.923   6.916
 6528SOL    HW131615   6.595   7.923   7.011
 6528SOL    HW231616   6.674   7.837   6.899
 6529SOL     OW31617   8.742   0.442   7.083
 6529SOL    HW131618   8.664   0.500   7.056
 6529SOL    HW231619   8.773   0.390   7.004
 6530SOL     OW31620   8.120   4.046   6.891
 6530SOL    HW131621   8.032   4.022   6.934
 6530SOL    HW231622   8.187   3.977   6.913
 6531SOL     OW31623   5.885   1.953   7.100
 6531SOL    HW131624   5.867   2.038   7.151
 6531SOL    HW231625   5.890   1.877   7.164
 6532SOL     OW31626   8.651   4.424   7.264
 6532SOL    HW131627   8.707   4.367   7.325
 6532SOL    HW231628   8.612   4.499   7.315
 6533SOL     OW31629   8.650   5.881   6.781
 6533SOL    HW131630   8.672   5.787   6.752
 6533SOL    HW231631   8.623   5.880   6.877
 6534SOL     OW31632   0.078   2.235   7.001
 6534SOL    HW131633   0.134   2.153   6.990
 6534SOL    HW231634   0.046   2.241   7.095
 6535SOL     OW31635   2.571   5.362   7.087
 6535SOL    HW131636   2.604   5.441   7.139
 6535SOL    HW231637   2.519   5.302   7.148
 6536SOL     OW31638   4.330   4.666   7.363
 6536SOL    HW131639   4.357   4.697   7.271
 6536SOL    HW231640   4.244   4.710   7.388
 6537SOL     OW31641   2.090   2.595   6.883
 6537SOL    HW131642   2.163   2.610   6.951
 6537SOL    HW231643   2.002   2.608   6.926
 6538SOL     OW31644   8.199   6.583   7.250
 6538SOL    HW131645   8.247   6.643   7.185
 6538SOL    HW231646   8.200   6.490   7.215
 6539SOL     OW31647   6.550   3.030   7.086
 6539SOL    HW131648   6.521   3.081   7.003
 6539SOL    HW231649   6.470   2.987   7.127
 6540SOL     OW31650   2.501   1.294   6.784
 6540SOL    HW131651   2.448   1.378   6.800
 6540SOL    HW231652   2.494   1.235   6.864
 6541SOL     OW31653   1.714   0.324   6.837
 6541SOL    HW131654   1.751   0.413   6.811
 6541SOL    HW231655   1.639   0.337   6.901
 6542SOL     OW31656   7.712   0.898   7.355
 6542SOL    HW131657   7.678   0.980   7.308
 6542SOL    HW231658   7.739   0.830   7.287
 6543SOL     OW31659   0.614   3.567   7.100
 6543SOL    HW131660   0.516   3.546   7.098
 6543SOL    HW231661   0.645   3.572   7.194
 6544SOL     OW31662   2.651   4.666   6.999
 6544SOL    HW131663   2.720   4.681   6.928
 6544SOL    HW231664   2.560   4.678   6.960
 6545SOL     OW31665   1.770   0.992   6.984
 6545SOL    HW131666   1.869   0.978   6.967
 6545SOL    HW231667   1.758   1.039   7.070
 6546SOL     OW31668   3.033   6.882   7.450
 6546SOL    HW131669   2.972   6.900   7.372
 6546SOL    HW231670   3.114   6.939   7.443
 6547SOL     OW31671   1.799   4.033   7.424
 6547SOL    HW131672   1.720   3.979   7.452
 6547SOL    HW231673   1.867   4.033   7.497
 6548SOL     OW31674   7.325   5.578   7.158
 6548SOL    HW131675   7.398   5.593   7.226
 6548SOL    HW231676   7.238   5.605   7.198
 6549SOL     OW31677   9.102   5.185   7.044
 6549SOL    HW131678   9.016   5.147   7.081
 6549SOL    HW231679   9.119   5.274   7.084
 6550SOL     OW31680   4.112   2.298   7.120
 6550SOL    HW131681   4.046   2.346   7.179
 6550SOL    HW231682   4.197   2.286   7.170
 6551SOL     OW31683   0.625   4.358   7.049
 6551SOL    HW131684   0.629   4.375   7.148
 6551SOL    HW231685   0.531   4.341   7.022
 6552SOL     OW31686   2.060   3.314   7.271
 6552SOL    HW131687   2.024   3.396   7.318
 6552SOL    HW231688   2.155   3.301   7.296
 6553SOL     OW31689   1.856   0.201   7.162
 6553SOL    HW131690   1.826   0.290   7.199
 6553SOL    HW231691   1.853   0.133   7.234
 6554SOL     OW31692   2.945   5.808   6.826
 6554SOL    HW131693   3.016   5.748   6.788
 6554SOL    HW231694   2.879   5.831   6.756
 6555SOL     OW31695   6.091   1.651   7.265
 6555SOL    HW131696   6.134   1.603   7.188
 6555SOL    HW231697   6.159   1.668   7.335
 6556SOL     OW31698   6.375   3.347   6.910
 6556SOL    HW131699   6.375   3.440   6.873
 6556SOL    HW231700   6.332   3.285   6.845
 6557SOL     OW31701   4.343   6.910   6.856
 6557SOL    HW131702   4.273   6.931   6.924
 6557SOL    HW231703   4.408   6.845   6.895
 6558SOL     OW31704   8.216   2.235   7.275
 6558SOL    HW131705   8.286   2.271   7.212
 6558SOL    HW231706   8.126   2.246   7.235
 6559SOL     OW31707   9.221   0.940   7.345
 6559SOL    HW131708   9.318   0.919   7.330
 6559SOL    HW231709   9.194   0.906   7.435
 6560SOL     OW31710   0.063   2.380   6.776
 6560SOL    HW131711   0.006   2.462   6.785
 6560SOL    HW231712   0.159   2.406   6.777
 6561SOL     OW31713   3.896   5.708   7.013
 6561SOL    HW131714   3.994   5.723   7.002
 6561SOL    HW231715   3.847   5.792   6.995
 6562SOL     OW31716   2.760   6.499   7.361
 6562SOL    HW131717   2.760   6.451   7.273
 6562SOL    HW231718   2.709   6.584   7.351
 6563SOL     OW31719   8.891   5.648   6.926
 6563SOL    HW131720   8.851   5.590   6.997
 6563SOL    HW231721   8.972   5.693   6.961
 6564SOL     OW31722   6.870   2.407   7.311
 6564SOL    HW131723   6.929   2.398   7.392
 6564SOL    HW231724   6.927   2.406   7.229
 6565SOL     OW31725   1.035   0.185   7.120
 6565SOL    HW131726   0.978   0.140   7.050
 6565SOL    HW231727   1.081   0.264   7.079
 6566SOL     OW31728   6.662   6.681   7.232
 6566SOL    HW131729   6.629   6.609   7.294
 6566SOL    HW231730   6.732   6.735   7.277
 6567SOL     OW31731   9.222   4.701   7.072
 6567SOL    HW131732   9.162   4.757   7.014
 6567SOL    HW231733   9.311   4.746   7.081
 6568SOL     OW31734   8.770   4.760   7.471
 6568SOL    HW131735   8.850   4.757   7.410
 6568SOL    HW231736   8.754   4.670   7.508
 6569SOL     OW31737   9.407   7.450   7.278
 6569SOL    HW131738   9.456   7.367   7.305
 6569SOL    HW231739   9.309   7.430   7.273
 6570SOL     OW31740   0.238   7.495   6.985
 6570SOL    HW131741   0.142   7.497   6.954
 6570SOL    HW231742   0.289   7.431   6.930
 6571SOL     OW31743   7.512   7.472   7.252
 6571SOL    HW131744   7.439   7.432   7.308
 6571SOL    HW231745   7.600   7.453   7.295
 6572SOL     OW31746   0.874   2.130   7.197
 6572SOL    HW131747   0.959   2.162   7.239
 6572SOL    HW231748   0.891   2.045   7.149
 6573SOL     OW31749   1.900   1.768   6.919
 6573SOL    HW131750   1.902   1.792   6.822
 6573SOL    HW231751   1.993   1.757   6.952
 6574SOL     OW31752   6.194   1.177   6.837
 6574SOL    HW131753   6.143   1.241   6.778
 6574SOL    HW231754   6.276   1.148   6.789
 6575SOL     OW31755   8.941   1.725   6.702
 6575SOL    HW131756   8.937   1.653   6.773
 6575SOL    HW231757   8.984   1.806   6.740
 6576SOL     OW31758   6.352   4.436   6.908
 6576SOL    HW131759   6.260   4.453   6.943
 6576SOL    HW231760   6.404   4.384   6.974
 6577SOL     OW31761   6.471   0.528   7.313
 6577SOL    HW131762   6.451   0.610   7.368
 6577SOL    HW231763   6.481   0.554   7.218
 6578SOL     OW31764   4.862   2.904   6.863
 6578SOL    HW131765   4.852   2.914   6.764
 6578SOL    HW231766   4.939   2.843   6.882
 6579SOL     OW31767   6.712   0.147   7.459
 6579SOL    HW131768   6.687   0.221   7.396
 6579SOL    HW231769   6.632   0.119   7.510
 6580SOL     OW31770   0.966   1.328   7.074
 6580SOL    HW131771   0.903   1.333   7.151
 6580SOL    HW231772   0.915   1.307   6.991
 6581SOL     OW31773   3.919   4.706   7.038
 6581SOL    HW131774   3.846   4.731   7.103
 6581SOL    HW231775   3.988   4.653   7.085
 6582SOL     OW31776   8.512   3.172   7.187
 6582SOL    HW131777   8.455   3.115   7.248
 6582SOL    HW231778   8.458   3.247   7.151
 6583SOL     OW31779   4.361   5.618   7.251
 6583SOL    HW131780   4.381   5.606   7.349
 6583SOL    HW231781   4.443   5.650   7.205
 6584SOL     OW31782   3.232   4.486   6.985
 6584SOL    HW131783   3.214   4.399   6.938
 6584SOL    HW231784   3.210   4.561   6.924
 6585SOL     OW31785   8.058   2.329   7.435
 6585SOL    HW131786   7.989   2.288   7.375
 6585SOL    HW231787   8.115   2.391   7.383
 6586SOL     OW31788   0.465   0.737   6.889
 6586SOL    HW131789   0.388   0.721   6.827
 6586SOL    HW231790   0.493   0.832   6.883
 6587SOL     OW31791   1.107   1.590   7.182
 6587SOL    HW131792   1.172   1.541   7.240
 6587SOL    HW231793   1.067   1.664   7.234
 6588SOL     OW31794   5.373   5.208   6.981
 6588SOL    HW131795   5.424   5.123   6.996
 6588SOL    HW231796   5.431   5.286   7.001
 6589SOL     OW31797   7.902   3.392   7.417
 6589SOL    HW131798   7.902   3.330   7.496
 6589SOL    HW231799   7.960   3.471   7.438
 6590SOL     OW31800   6.379   8.166   6.979
 6590SOL    HW131801   6.459   8.217   7.012
 6590SOL    HW231802   6.364   8.186   6.883
 6591SOL     OW31803   2.194   3.021   7.446
 6591SOL    HW131804   2.112   2.975   7.482
 6591SOL    HW231805   2.195   3.015   7.347
 6592SOL     OW31806   5.028   2.878   7.107
 6592SOL    HW131807   5.122   2.862   7.138
 6592SOL    HW231808   4.972   2.906   7.183
 6593SOL     OW31809   8.197   2.681   6.809
 6593SOL    HW131810   8.217   2.618   6.733
 6593SOL    HW231811   8.133   2.750   6.778
 6594SOL     OW31812   7.278   1.883   6.824
 6594SOL    HW131813   7.222   1.822   6.880
 6594SOL    HW231814   7.226   1.965   6.803
 6595SOL     OW31815   7.821   3.805   6.901
 6595SOL    HW131816   7.783   3.869   6.968
 6595SOL    HW231817   7.853   3.723   6.947
 6596SOL     OW31818   2.763   5.135   7.234
 6596SOL    HW131819   2.664   5.144   7.221
 6596SOL    HW231820   2.804   5.226   7.238
 6597SOL     OW31821   0.121   5.447   6.943
 6597SOL    HW131822   0.158   5.539   6.925
 6597SOL    HW231823   0.094   5.441   7.039
 6598SOL     OW31824   1.329   5.366   6.948
 6598SOL    HW131825   1.424   5.344   6.923
 6598SOL    HW231826   1.267   5.310   6.893
 6599SOL     OW31827   6.751   2.551   6.966
 6599SOL    HW131828   6.682   2.518   6.900
 6599SOL    HW231829   6.756   2.650   6.960
 6600SOL     OW31830   4.919   6.452   6.900
 6600SOL    HW131831   4.987   6.430   6.970
 6600SOL    HW231832   4.888   6.546   6.911
 6601SOL     OW31833   0.670   3.972   6.969
 6601SOL    HW131834   0.719   4.056   6.997
 6601SOL    HW231835   0.665   3.909   7.045
 6602SOL     OW31836   8.847   3.636   7.197
 6602SOL    HW131837   8.790   3.715   7.174
 6602SOL    HW231838   8.796   3.575   7.257
 6603SOL     OW31839   3.550   7.275   6.827
 6603SOL    HW131840   3.630   7.271   6.888
 6603SOL    HW231841   3.558   7.353   6.767
 6604SOL     OW31842   3.842   2.465   6.923
 6604SOL    HW131843   3.936   2.496   6.905
 6604SOL    HW231844   3.806   2.511   7.003
 6605SOL     OW31845   6.627   8.069   6.742
 6605SOL    HW131846   6.547   8.021   6.778
 6605SOL    HW231847   6.697   8.073   6.812
 6606SOL     OW31848   5.091   7.738   7.473
 6606SOL    HW131849   5.147   7.780   7.401
 6606SOL    HW231850   5.061   7.648   7.443
 6607SOL     OW31851   6.828   3.247   6.784
 6607SOL    HW131852   6.898   3.227   6.715
 6607SOL    HW231853   6.836   3.342   6.812
 6608SOL     OW31854   9.003   3.435   6.898
 6608SOL    HW131855   9.011   3.438   6.998
 6608SOL    HW231856   9.027   3.345   6.866
 6609SOL     OW31857   0.054   4.107   7.397
 6609SOL    HW131858   0.105   4.110   7.483
 6609SOL    HW231859   0.115   4.126   7.321
 6610SOL     OW31860   5.014   6.157   7.345
 6610SOL    HW131861   5.034   6.135   7.249
 6610SOL    HW231862   5.042   6.251   7.363
 6611SOL     OW31863   6.765   1.684   7.411
 6611SOL    HW131864   6.837   1.732   7.360
 6611SOL    HW231865   6.792   1.589   7.424
 6612SOL     OW31866   7.506   2.166   6.861
 6612SOL    HW131867   7.460   2.217   6.934
 6612SOL    HW231868   7.485   2.208   6.773
 6613SOL     OW31869   9.166   1.131   7.205
 6613SOL    HW131870   9.183   1.230   7.208
 6613SOL    HW231871   9.151   1.103   7.111
 6614SOL     OW31872   2.385   3.848   7.150
 6614SOL    HW131873   2.315   3.906   7.192
 6614SOL    HW231874   2.392   3.869   7.053
 6615SOL     OW31875   2.847   2.307   7.501
 6615SOL    HW131876   2.776   2.301   7.430
 6615SOL    HW231877   2.936   2.293   7.460
 6616SOL     OW31878   0.454   3.396   7.235
 6616SOL    HW131879   0.454   3.492   7.264
 6616SOL    HW231880   0.378   3.381   7.173
 6617SOL     OW31881   0.654   3.983   7.352
 6617SOL    HW131882   0.669   3.943   7.262
 6617SOL    HW231883   0.558   3.973   7.377
 6618SOL     OW31884   5.607   7.809   6.921
 6618SOL    HW131885   5.533   7.760   6.968
 6618SOL    HW231886   5.687   7.751   6.914
 6619SOL     OW31887   6.210   4.246   7.220
 6619SOL    HW131888   6.139   4.315   7.205
 6619SOL    HW231889   6.265   4.273   7.299
 6620SOL     OW31890   7.865   5.872   7.275
 6620SOL    HW131891   7.808   5.794   7.246
 6620SOL    HW231892   7.952   5.839   7.308
 6621SOL     OW31893   5.316   2.764   7.194
 6621SOL    HW131894   5.410   2.790   7.169
 6621SOL    HW231895   5.259   2.845   7.195
 6622SOL     OW31896   6.046   3.349   7.311
 6622SOL    HW131897   5.991   3.360   7.394
 6622SOL    HW231898   6.142   3.342   7.336
 6623SOL     OW31899   0.527   1.493   6.790
 6623SOL    HW131900   0.463   1.416   6.801
 6623SOL    HW231901   0.620   1.461   6.801
 6624SOL     OW31902   9.499   0.152   6.801
 6624SOL    HW131903   9.531   0.197   6.885
 6624SOL    HW231904   9.424   0.205   6.762
 6625SOL     OW31905   7.306   4.941   6.897
 6625SOL    HW131906   7.348   5.000   6.827
 6625SOL    HW231907   7.373   4.921   6.968
 6626SOL     OW31908   7.216   1.232   7.108
 6626SOL    HW131909   7.250   1.323   7.081
 6626SOL    HW231910   7.223   1.170   7.030
 6627SOL     OW31911   6.567   3.849   6.899
 6627SOL    HW131912   6.602   3.806   6.983
 6627SOL    HW231913   6.547   3.945   6.917
 6628SOL     OW31914   1.358   4.155   6.989
 6628SOL    HW131915   1.421   4.099   7.044
 6628SOL    HW231916   1.317   4.224   7.048
 6629SOL     OW31917   4.042   1.171   7.457
 6629SOL    HW131918   4.037   1.268   7.430
 6629SOL    HW231919   3.962   1.124   7.422
 6630SOL     OW31920   4.696   3.495   7.096
 6630SOL    HW131921   4.607   3.532   7.066
 6630SOL    HW231922   4.682   3.407   7.141
 6631SOL     OW31923   8.169   0.511   7.245
 6631SOL    HW131924   8.186   0.519   7.344
 6631SOL    HW231925   8.126   0.594   7.212
 6632SOL     OW31926   0.683   5.623   7.361
 6632SOL    HW131927   0.746   5.590   7.290
 6632SOL    HW231928   0.630   5.700   7.325
 6633SOL     OW31929   2.084   1.554   7.352
 6633SOL    HW131930   2.176   1.595   7.356
 6633SOL    HW231931   2.017   1.626   7.343
 6634SOL     OW31932   8.364   7.541   6.827
 6634SOL    HW131933   8.354   7.451   6.871
 6634SOL    HW231934   8.426   7.597   6.881
 6635SOL     OW31935   7.526   0.598   7.045
 6635SOL    HW131936   7.526   0.665   7.120
 6635SOL    HW231937   7.438   0.551   7.044
 6636SOL     OW31938   8.780   0.616   7.323
 6636SOL    HW131939   8.762   0.639   7.227
 6636SOL    HW231940   8.738   0.528   7.345
 6637SOL     OW31941   8.248   0.854   7.171
 6637SOL    HW131942   8.194   0.780   7.213
 6637SOL    HW231943   8.326   0.874   7.228
 6638SOL     OW31944   6.667   0.546   7.314
 6638SOL    HW131945   6.703   0.458   7.347
 6638SOL    HW231946   6.742   0.599   7.276
 6639SOL     OW31947   8.016   3.654   6.910
 6639SOL    HW131948   7.997   3.585   6.981
 6639SOL    HW231949   8.063   3.731   6.952
 6640SOL     OW31950   8.561   5.464   7.028
 6640SOL    HW131951   8.472   5.508   7.018
 6640SOL    HW231952   8.549   5.376   7.073
 6641SOL     OW31953   5.420   0.911   6.864
 6641SOL    HW131954   5.465   0.849   6.799
 6641SOL    HW231955   5.336   0.945   6.824
 6642SOL     OW31956   6.776   5.623   6.925
 6642SOL    HW131957   6.779   5.545   6.988
 6642SOL    HW231958   6.822   5.701   6.966
 6643SOL     OW31959   0.180   6.248   7.262
 6643SOL    HW131960   0.203   6.320   7.328
 6643SOL    HW231961   0.219   6.161   7.293
 6644SOL     OW31962   3.399   2.163   7.276
 6644SOL    HW131963   3.369   2.202   7.364
 6644SOL    HW231964   3.364   2.070   7.268
 6645SOL     OW31965   2.718   7.647   7.322
 6645SOL    HW131966   2.754   7.675   7.232
 6645SOL    HW231967   2.792   7.605   7.374
 6646SOL     OW31968   3.115   0.219   7.398
 6646SOL    HW131969   3.095   0.205   7.495
 6646SOL    HW231970   3.110   0.132   7.350
 6647SOL     OW31971   7.686   3.910   7.160
 6647SOL    HW131972   7.740   3.856   7.226
 6647SOL    HW231973   7.640   3.983   7.208
 6648SOL     OW31974   6.482   3.245   7.367
 6648SOL    HW131975   6.415   3.251   7.442
 6648SOL    HW231976   6.567   3.207   7.402
 6649SOL     OW31977   0.758   3.702   7.357
 6649SOL    HW131978   0.718   3.765   7.290
 6649SOL    HW231979   0.743   3.737   7.448
 6650SOL     OW31980   0.431   1.693   7.047
 6650SOL    HW131981   0.460   1.630   7.121
 6650SOL    HW231982   0.472   1.782   7.063
 6651SOL     OW31983   0.183   1.571   7.440
 6651SOL    HW131984   0.129   1.622   7.373
 6651SOL    HW231985   0.273   1.552   7.403
 6652SOL     OW31986   2.621   2.054   7.307
 6652SOL    HW131987   2.674   1.979   7.348
 6652SOL    HW231988   2.669   2.140   7.321
 6653SOL     OW31989   5.033   3.765   6.915
 6653SOL    HW131990   5.117   3.814   6.887
 6653SOL    HW231991   5.020   3.686   6.857
 6654SOL     OW31992   1.941   4.324   7.368
 6654SOL    HW131993   1.973   4.238   7.327
 6654SOL    HW231994   1.930   4.392   7.296
 6655SOL     OW31995   6.497   4.142   7.105
 6655SOL    HW131996   6.548   4.058   7.121
 6655SOL    HW231997   6.406   4.134   7.146
 6656SOL     OW31998   0.700   7.625   6.916
 6656SOL    HW131999   0.778   7.610   6.977
 6656SOL    HW232000   0.728   7.683   6.841
 6657SOL     OW32001   5.066   3.057   7.329
 6657SOL    HW132002   5.079   2.989   7.257
 6657SOL    HW232003   5.020   3.137   7.292
 6658SOL     OW32004   1.048   6.325   6.916
 6658SOL    HW132005   1.095   6.304   6.830
 6658SOL    HW232006   0.951   6.302   6.907
 6659SOL     OW32007   4.691   5.896   6.972
 6659SOL    HW132008   4.614   5.919   7.033
 6659SOL    HW232009   4.766   5.859   7.026
 6660SOL     OW32010   5.479   4.925   7.389
 6660SOL    HW132011   5.381   4.905   7.382
 6660SOL    HW232012   5.519   4.925   7.298
 6661SOL     OW32013   2.752   6.887   7.344
 6661SOL    HW132014   2.794   6.811   7.294
 6661SOL    HW232015   2.766   6.971   7.293
 6662SOL     OW32016   1.190   7.934   7.102
 6662SOL    HW132017   1.116   7.902   7.162
 6662SOL    HW232018   1.258   7.982   7.156
 6663SOL     OW32019   7.784   5.038   7.209
 6663SOL    HW132020   7.783   5.132   7.244
 6663SOL    HW232021   7.853   4.986   7.258
 6664SOL     OW32022   5.176   7.200   6.802
 6664SOL    HW132023   5.123   7.271   6.753
 6664SOL    HW232024   5.118   7.120   6.814
 6665SOL     OW32025   5.901   3.004   7.240
 6665SOL    HW132026   5.902   2.905   7.228
 6665SOL    HW232027   5.807   3.035   7.250
 6666SOL     OW32028   5.193   8.375   6.922
 6666SOL    HW132029   5.191   8.355   6.824
 6666SOL    HW232030   5.181   8.473   6.936
 6667SOL     OW32031   0.017   7.921   6.906
 6667SOL    HW132032   0.104   7.924   6.855
 6667SOL    HW232033  -0.049   7.868   6.855
 6668SOL     OW32034   7.351   4.653   7.218
 6668SOL    HW132035   7.441   4.676   7.180
 6668SOL    HW232036   7.355   4.660   7.317
 6669SOL     OW32037   6.775   7.610   6.890
 6669SOL    HW132038   6.702   7.632   6.956
 6669SOL    HW232039   6.855   7.576   6.939
 6670SOL     OW32040   3.519   1.720   6.954
 6670SOL    HW132041   3.475   1.680   7.034
 6670SOL    HW232042   3.606   1.760   6.981
 6671SOL     OW32043   6.794   3.177   7.102
 6671SOL    HW132044   6.713   3.141   7.054
 6671SOL    HW232045   6.868   3.188   7.036
 6672SOL     OW32046   5.849   1.091   6.781
 6672SOL    HW132047   5.826   1.061   6.688
 6672SOL    HW232048   5.869   1.188   6.781
 6673SOL     OW32049   5.500   7.514   6.822
 6673SOL    HW132050   5.430   7.493   6.890
 6673SOL    HW232051   5.590   7.497   6.860
 6674SOL     OW32052   0.522   0.901   7.312
 6674SOL    HW132053   0.458   0.968   7.350
 6674SOL    HW232054   0.592   0.880   7.379
 6675SOL     OW32055   2.455   7.804   6.771
 6675SOL    HW132056   2.371   7.821   6.719
 6675SOL    HW232057   2.481   7.886   6.821
 6676SOL     OW32058   0.638   0.418   7.303
 6676SOL    HW132059   0.639   0.493   7.371
 6676SOL    HW232060   0.719   0.424   7.246
 6677SOL     OW32061   2.446   6.204   7.022
 6677SOL    HW132062   2.460   6.138   7.096
 6677SOL    HW232063   2.460   6.296   7.058
 6678SOL     OW32064   7.221   0.958   6.850
 6678SOL    HW132065   7.280   0.941   6.770
 6678SOL    HW232066   7.249   0.900   6.925
 6679SOL     OW32067   3.085   6.208   6.784
 6679SOL    HW132068   3.074   6.307   6.769
 6679SOL    HW232069   3.013   6.175   6.844
 6680SOL     OW32070   5.269   6.097   6.791
 6680SOL    HW132071   5.210   6.016   6.793
 6680SOL    HW232072   5.314   6.108   6.879
 6681SOL     OW32073   6.418   3.443   7.127
 6681SOL    HW132074   6.434   3.459   7.225
 6681SOL    HW232075   6.358   3.514   7.092
 6682SOL     OW32076   2.582   6.287   6.727
 6682SOL    HW132077   2.569   6.358   6.798
 6682SOL    HW232078   2.622   6.206   6.769
 6683SOL     OW32079   5.480   1.621   7.079
 6683SOL    HW132080   5.463   1.612   7.178
 6683SOL    HW232081   5.396   1.601   7.029
 6684SOL     OW32082   0.998   3.911   6.775
 6684SOL    HW132083   0.968   3.934   6.868
 6684SOL    HW232084   1.078   3.966   6.752
 6685SOL     OW32085   5.589   5.912   6.723
 6685SOL    HW132086   5.573   5.854   6.804
 6685SOL    HW232087   5.644   5.990   6.749
 6686SOL     OW32088   7.957   8.472   7.086
 6686SOL    HW132089   7.889   8.533   7.128
 6686SOL    HW232090   7.993   8.410   7.154
 6687SOL     OW32091   5.180   1.933   6.975
 6687SOL    HW132092   5.199   2.026   7.008
 6687SOL    HW232093   5.176   1.871   7.053
 6688SOL     OW32094   1.123   2.409   6.860
 6688SOL    HW132095   1.046   2.372   6.914
 6688SOL    HW232096   1.207   2.400   6.912
 6689SOL     OW32097   6.862   1.127   7.297
 6689SOL    HW132098   6.804   1.171   7.366
 6689SOL    HW232099   6.914   1.053   7.340
 6690SOL     OW32100   9.304   3.192   7.275
 6690SOL    HW132101   9.283   3.096   7.255
 6690SOL    HW232102   9.223   3.238   7.308
 6691SOL     OW32103   6.862   0.618   6.906
 6691SOL    HW132104   6.784   0.604   6.968
 6691SOL    HW232105   6.932   0.551   6.925
 6692SOL     OW32106   0.074   3.044   6.883
 6692SOL    HW132107   0.019   3.003   6.810
 6692SOL    HW232108   0.150   2.984   6.905
 6693SOL     OW32109   7.432   6.278   6.926
 6693SOL    HW132110   7.453   6.187   6.891
 6693SOL    HW232111   7.363   6.321   6.869
 6694SOL     OW32112   2.648   4.903   7.196
 6694SOL    HW132113   2.685   4.967   7.128
 6694SOL    HW232114   2.639   4.813   7.155
 6695SOL     OW32115   3.541   7.132   7.298
 6695SOL    HW132116   3.589   7.047   7.275
 6695SOL    HW232117   3.587   7.209   7.255
 6696SOL     OW32118   6.134   2.933   7.256
 6696SOL    HW132119   6.098   2.895   7.170
 6696SOL    HW232120   6.199   3.005   7.235
 6697SOL     OW32121   9.278   3.250   7.094
 6697SOL    HW132122   9.185   3.243   7.130
 6697SOL    HW232123   9.295   3.344   7.066
 6698SOL     OW32124   1.154   1.018   7.107
 6698SOL    HW132125   1.146   0.918   7.114
 6698SOL    HW232126   1.118   1.059   7.190
 6699SOL     OW32127   3.720   0.514   7.478
 6699SOL    HW132128   3.637   0.511   7.536
 6699SOL    HW232129   3.696   0.492   7.385
 6700SOL     OW32130   5.109   3.735   7.160
 6700SOL    HW132131   5.097   3.638   7.139
 6700SOL    HW232132   5.146   3.783   7.082
 6701SOL     OW32133   6.169   5.464   6.963
 6701SOL    HW132134   6.266   5.436   6.966
 6701SOL    HW232135   6.147   5.512   7.047
 6702SOL     OW32136   8.959   6.308   7.404
 6702SOL    HW132137   8.894   6.263   7.467
 6702SOL    HW232138   9.050   6.304   7.443
 6703SOL     OW32139   4.600   7.630   6.873
 6703SOL    HW132140   4.565   7.539   6.847
 6703SOL    HW232141   4.700   7.629   6.870
 6704SOL     OW32142   0.115   7.517   7.205
 6704SOL    HW132143   0.084   7.422   7.195
 6704SOL    HW232144   0.214   7.520   7.196
 6705SOL     OW32145   4.874   7.628   7.303
 6705SOL    HW132146   4.827   7.625   7.214
 6705SOL    HW232147   4.967   7.660   7.290
 6706SOL     OW32148   7.248   4.376   6.989
 6706SOL    HW132149   7.228   4.324   7.072
 6706SOL    HW232150   7.341   4.359   6.960
 6707SOL     OW32151   3.834   6.787   6.877
 6707SOL    HW132152   3.890   6.828   6.805
 6707SOL    HW232153   3.794   6.702   6.843
 6708SOL     OW32154   6.206   4.801   6.960
 6708SOL    HW132155   6.189   4.739   7.038
 6708SOL    HW232156   6.302   4.797   6.934
 6709SOL     OW32157   3.035   2.559   6.976
 6709SOL    HW132158   3.000   2.576   6.883
 6709SOL    HW232159   3.060   2.646   7.018
 6710SOL     OW32160   7.576   0.667   7.415
 6710SOL    HW132161   7.475   0.663   7.415
 6710SOL    HW232162   7.605   0.755   7.380
 6711SOL     OW32163   5.226   6.393   7.229
 6711SOL    HW132164   5.313   6.438   7.205
 6711SOL    HW232165   5.231   6.296   7.204
 6712SOL     OW32166   3.650   0.004   7.258
 6712SOL    HW132167   3.679  -0.034   7.347
 6712SOL    HW232168   3.673   0.101   7.255
 6713SOL     OW32169   7.417   3.412   6.749
 6713SOL    HW132170   7.343   3.394   6.814
 6713SOL    HW232171   7.503   3.383   6.788
 6714SOL     OW32172   5.473   7.441   7.397
 6714SOL    HW132173   5.530   7.402   7.324
 6714SOL    HW232174   5.379   7.449   7.365
 6715SOL     OW32175   0.530   4.530   6.867
 6715SOL    HW132176   0.485   4.466   6.804
 6715SOL    HW232177   0.524   4.622   6.830
 6716SOL     OW32178   7.739   5.949   6.997
 6716SOL    HW132179   7.829   5.913   6.971
 6716SOL    HW232180   7.687   5.878   7.043
 6717SOL     OW32181   2.079   5.943   6.919
 6717SOL    HW132182   1.994   5.980   6.958
 6717SOL    HW232183   2.085   5.846   6.938
 6718SOL     OW32184   3.311   2.765   7.244
 6718SOL    HW132185   3.302   2.854   7.290
 6718SOL    HW232186   3.371   2.707   7.298
 6719SOL     OW32187   3.586   8.190   7.033
 6719SOL    HW132188   3.518   8.116   7.033
 6719SOL    HW232189   3.573   8.245   6.950
 6720SOL     OW32190   2.158   8.071   6.730
 6720SOL    HW132191   2.063   8.039   6.739
 6720SOL    HW232192   2.218   8.012   6.783
 6721SOL     OW32193   4.901   3.455   7.022
 6721SOL    HW132194   4.944   3.380   6.972
 6721SOL    HW232195   4.814   3.479   6.979
 6722SOL     OW32196   8.700   7.595   7.477
 6722SOL    HW132197   8.641   7.603   7.396
 6722SOL    HW232198   8.789   7.563   7.449
 6723SOL     OW32199   3.745   1.087   7.184
 6723SOL    HW132200   3.778   1.171   7.228
 6723SOL    HW232201   3.678   1.111   7.114
 6724SOL     OW32202   6.270   6.045   7.407
 6724SOL    HW132203   6.290   6.025   7.504
 6724SOL    HW232204   6.182   6.092   7.401
 6725SOL     OW32205   7.750   0.299   6.760
 6725SOL    HW132206   7.739   0.354   6.843
 6725SOL    HW232207   7.766   0.204   6.786
 6726SOL     OW32208   1.170   6.415   6.709
 6726SOL    HW132209   1.134   6.488   6.768
 6726SOL    HW232210   1.248   6.373   6.754
 6727SOL     OW32211   6.404   2.434   7.496
 6727SOL    HW132212   6.480   2.435   7.430
 6727SOL    HW232213   6.327   2.484   7.458
 6728SOL     OW32214   3.552   7.840   7.391
 6728SOL    HW132215   3.516   7.793   7.310
 6728SOL    HW232216   3.506   7.805   7.472
 6729SOL     OW32217   0.757   0.156   6.810
 6729SOL    HW132218   0.836   0.119   6.859
 6729SOL    HW232219   0.680   0.163   6.873
 6730SOL     OW32220   8.385   4.135   7.380
 6730SOL    HW132221   8.471   4.147   7.329
 6730SOL    HW232222   8.340   4.052   7.348
 6731SOL     OW32223   1.921   8.142   7.343
 6731SOL    HW132224   1.855   8.137   7.419
 6731SOL    HW232225   1.997   8.199   7.370
 6732SOL     OW32226   5.446   1.406   7.320
 6732SOL    HW132227   5.524   1.464   7.345
 6732SOL    HW232228   5.365   1.436   7.370
 6733SOL     OW32229   3.015   4.719   6.995
 6733SOL    HW132230   3.031   4.779   7.074
 6733SOL    HW232231   2.948   4.650   7.019
 6734SOL     OW32232   1.674   8.207   7.056
 6734SOL    HW132233   1.580   8.182   7.081
 6734SOL    HW232234   1.731   8.204   7.137
 6735SOL     OW32235   6.276   0.050   7.246
 6735SOL    HW132236   6.363   0.000   7.255
 6735SOL    HW232237   6.211   0.015   7.314
 6736SOL     OW32238   5.423   4.512   7.429
 6736SOL    HW132239   5.448   4.604   7.396
 6736SOL    HW232240   5.324   4.504   7.432
 6737SOL     OW32241   0.817   0.842   6.962
 6737SOL    HW132242   0.907   0.887   6.963
 6737SOL    HW232243   0.778   0.849   6.871
 6738SOL     OW32244   3.958   2.676   6.919
 6738SOL    HW132245   3.869   2.631   6.927
 6738SOL    HW232246   3.968   2.742   6.992
 6739SOL     OW32247   9.029   7.446   7.200
 6739SOL    HW132248   8.969   7.444   7.120
 6739SOL    HW232249   9.091   7.368   7.198
 6740SOL     OW32250   5.413   5.543   7.461
 6740SOL    HW132251   5.391   5.445   7.449
 6740SOL    HW232252   5.365   5.596   7.393
 6741SOL     OW32253   5.615   6.972   7.381
 6741SOL    HW132254   5.633   6.900   7.313
 6741SOL    HW232255   5.518   6.992   7.383
 6742SOL     OW32256   6.175   2.229   6.777
 6742SOL    HW132257   6.167   2.294   6.853
 6742SOL    HW232258   6.265   2.237   6.736
 6743SOL     OW32259   5.901   7.212   7.341
 6743SOL    HW132260   5.984   7.158   7.322
 6743SOL    HW232261   5.908   7.253   7.431
 6744SOL     OW32262   6.899   1.942   6.932
 6744SOL    HW132263   6.923   1.988   6.846
 6744SOL    HW232264   6.910   1.844   6.921
 6745SOL     OW32265   5.169   0.599   7.162
 6745SOL    HW132266   5.109   0.586   7.082
 6745SOL    HW232267   5.152   0.690   7.200
 6746SOL     OW32268   7.720   0.620   7.064
 6746SOL    HW132269   7.668   0.698   7.028
 6746SOL    HW232270   7.708   0.542   7.004
 6747SOL     OW32271   2.511   4.132   7.292
 6747SOL    HW132272   2.515   4.127   7.191
 6747SOL    HW232273   2.470   4.219   7.318
 6748SOL     OW32274   4.113   7.640   7.049
 6748SOL    HW132275   4.119   7.679   6.957
 6748SOL    HW232276   4.194   7.585   7.067
 6749SOL     OW32277   1.096   8.367   7.151
 6749SOL    HW132278   1.007   8.411   7.166
 6749SOL    HW232279   1.149   8.370   7.235
 6750SOL     OW32280   8.718   2.428   7.525
 6750SOL    HW132281   8.735   2.421   7.427
 6750SOL    HW232282   8.627   2.394   7.545
 6751SOL     OW32283   5.594   8.035   7.321
 6751SOL    HW132284   5.543   8.043   7.236
 6751SOL    HW232285   5.691   8.051   7.303
 6752SOL     OW32286   0.963   3.194   6.919
 6752SOL    HW132287   0.893   3.126   6.897
 6752SOL    HW232288   0.932   3.284   6.889
 6753SOL     OW32289   2.380   4.938   7.438
 6753SOL    HW132290   2.291   4.983   7.444
 6753SOL    HW232291   2.451   5.003   7.462
 6754SOL     OW32292   1.353   4.395   7.232
 6754SOL    HW132293   1.343   4.467   7.163
 6754SOL    HW232294   1.268   4.384   7.282
 6755SOL     OW32295   1.268   7.751   7.321
 6755SOL    HW132296   1.221   7.815   7.383
 6755SOL    HW232297   1.366   7.766   7.326
 6756SOL     OW32298   3.909   5.433   7.153
 6756SOL    HW132299   3.869   5.516   7.193
 6756SOL    HW232300   3.907   5.440   7.053
 6757SOL     OW32301   1.162   3.863   7.329
 6757SOL    HW132302   1.118   3.928   7.267
 6757SOL    HW232303   1.114   3.776   7.325
 6758SOL     OW32304   2.236   1.388   7.202
 6758SOL    HW132305   2.186   1.409   7.286
 6758SOL    HW232306   2.319   1.338   7.226
 6759SOL     OW32307   3.927   4.467   7.156
 6759SOL    HW132308   3.893   4.404   7.227
 6759SOL    HW232309   4.009   4.512   7.188
 6760SOL     OW32310   3.256   0.200   7.102
 6760SOL    HW132311   3.235   0.156   7.190
 6760SOL    HW232312   3.289   0.292   7.119
 6761SOL     OW32313   2.085   0.694   6.755
 6761SOL    HW132314   2.132   0.710   6.842
 6761SOL    HW232315   2.144   0.641   6.695
 6762SOL     OW32316   1.894   6.014   7.299
 6762SOL    HW132317   1.814   6.046   7.248
 6762SOL    HW232318   1.878   5.921   7.330
 6763SOL     OW32319   7.684   4.078   6.943
 6763SOL    HW132320   7.755   4.121   6.885
 6763SOL    HW232321   7.699   4.104   7.037
 6764SOL     OW32322   4.070   0.389   7.100
 6764SOL    HW132323   4.138   0.438   7.046
 6764SOL    HW232324   4.033   0.313   7.046
 6765SOL     OW32325   3.254   2.673   7.082
 6765SOL    HW132326   3.231   2.701   6.989
 6765SOL    HW232327   3.353   2.663   7.090
 6766SOL     OW32328   4.173   4.563   6.819
 6766SOL    HW132329   4.099   4.495   6.828
 6766SOL    HW232330   4.174   4.598   6.725
 6767SOL     OW32331   0.695   2.454   7.304
 6767SOL    HW132332   0.708   2.553   7.320
 6767SOL    HW232333   0.728   2.404   7.384
 6768SOL     OW32334   3.381   6.530   7.133
 6768SOL    HW132335   3.480   6.547   7.128
 6768SOL    HW232336   3.363   6.455   7.195
 6769SOL     OW32337   5.360   6.603   7.045
 6769SOL    HW132338   5.302   6.535   7.090
 6769SOL    HW232339   5.312   6.691   7.044
 6770SOL     OW32340   2.365   5.662   7.287
 6770SOL    HW132341   2.313   5.613   7.216
 6770SOL    HW232342   2.415   5.737   7.245
 6771SOL     OW32343   3.747   1.776   7.314
 6771SOL    HW132344   3.746   1.704   7.384
 6771SOL    HW232345   3.793   1.856   7.350
 6772SOL     OW32346   2.124   3.941   7.332
 6772SOL    HW132347   2.196   3.977   7.272
 6772SOL    HW232348   2.063   4.015   7.358
 6773SOL     OW32349   3.316   5.173   6.948
 6773SOL    HW132350   3.267   5.136   6.868
 6773SOL    HW232351   3.250   5.210   7.012
 6774SOL     OW32352   4.258   4.440   7.392
 6774SOL    HW132353   4.160   4.461   7.384
 6774SOL    HW232354   4.271   4.341   7.389
 6775SOL     OW32355   9.076   0.905   7.132
 6775SOL    HW132356   9.149   0.838   7.149
 6775SOL    HW232357   8.998   0.858   7.092
 6776SOL     OW32358   5.777   6.593   7.451
 6776SOL    HW132359   5.729   6.506   7.435
 6776SOL    HW232360   5.722   6.668   7.416
 6777SOL     OW32361   3.311   7.855   7.086
 6777SOL    HW132362   3.262   7.840   7.173
 6777SOL    HW232363   3.403   7.819   7.093
 6778SOL     OW32364   3.916   0.210   6.787
 6778SOL    HW132365   3.916   0.109   6.792
 6778SOL    HW232366   4.003   0.240   6.749
 6779SOL     OW32367   7.707   6.203   6.849
 6779SOL    HW132368   7.800   6.238   6.834
 6779SOL    HW232369   7.662   6.189   6.762
 6780SOL     OW32370   6.880   1.364   6.836
 6780SOL    HW132371   6.793   1.403   6.804
 6780SOL    HW232372   6.882   1.267   6.816
 6781SOL     OW32373   6.413   1.033   6.881
 6781SOL    HW132374   6.358   1.093   6.940
 6781SOL    HW232375   6.453   0.961   6.936
 6782SOL     OW32376   5.536   3.730   7.421
 6782SOL    HW132377   5.601   3.799   7.453
 6782SOL    HW232378   5.469   3.713   7.493
 6783SOL     OW32379   0.951   7.565   7.210
 6783SOL    HW132380   1.021   7.594   7.277
 6783SOL    HW232381   0.862   7.567   7.253
 6784SOL     OW32382   6.751   0.838   7.218
 6784SOL    HW132383   6.842   0.797   7.227
 6784SOL    HW232384   6.689   0.772   7.177
 6785SOL     OW32385   4.050   3.266   7.231
 6785SOL    HW132386   4.055   3.216   7.318
 6785SOL    HW232387   4.121   3.335   7.228
 6786SOL     OW32388   8.369   6.620   6.835
 6786SOL    HW132389   8.359   6.712   6.797
 6786SOL    HW232390   8.318   6.555   6.780
 6787SOL     OW32391   3.578   2.491   6.908
 6787SOL    HW132392   3.605   2.436   6.828
 6787SOL    HW232393   3.568   2.431   6.987
 6788SOL     OW32394   3.351   6.206   7.021
 6788SOL    HW132395   3.332   6.261   7.103
 6788SOL    HW232396   3.313   6.115   7.033
 6789SOL     OW32397   8.926   0.236   7.145
 6789SOL    HW132398   8.899   0.329   7.169
 6789SOL    HW232399   9.006   0.239   7.086
 6790SOL     OW32400   5.448   4.312   6.857
 6790SOL    HW132401   5.510   4.302   6.778
 6790SOL    HW232402   5.501   4.336   6.937
 6791SOL     OW32403   7.917   1.327   6.935
 6791SOL    HW132404   7.818   1.324   6.952
 6791SOL    HW232405   7.934   1.335   6.837
 6792SOL     OW32406   7.030   1.424   7.422
 6792SOL    HW132407   7.124   1.412   7.458
 6792SOL    HW232408   7.030   1.406   7.325
 6793SOL     OW32409   9.426   5.991   6.900
 6793SOL    HW132410   9.360   5.964   6.829
 6793SOL    HW232411   9.494   6.051   6.861
 6794SOL     OW32412   5.716   5.223   7.478
 6794SOL    HW132413   5.721   5.230   7.378
 6794SOL    HW232414   5.633   5.268   7.510
 6795SOL     OW32415   5.061   7.171   7.155
 6795SOL    HW132416   5.155   7.156   7.121
 6795SOL    HW232417   5.008   7.218   7.085
 6796SOL     OW32418   3.448   6.821   6.984
 6796SOL    HW132419   3.469   6.861   6.894
 6796SOL    HW232420   3.469   6.888   7.055
 6797SOL     OW32421   4.795   6.830   7.087
 6797SOL    HW132422   4.738   6.824   7.169
 6797SOL    HW232423   4.885   6.792   7.105
 6798SOL     OW32424   4.989   2.437   7.402
 6798SOL    HW132425   5.013   2.452   7.305
 6798SOL    HW232426   5.017   2.346   7.429
 6799SOL     OW32427   0.185   7.253   7.047
 6799SOL    HW132428   0.133   7.169   7.062
 6799SOL    HW232429   0.162   7.319   7.118
 6800SOL     OW32430   2.743   1.493   6.844
 6800SOL    HW132431   2.693   1.453   6.922
 6800SOL    HW232432   2.818   1.548   6.877
 6801SOL     OW32433   4.319   8.207   6.845
 6801SOL    HW132434   4.296   8.303   6.826
 6801SOL    HW232435   4.389   8.177   6.781
 6802SOL     OW32436   6.991   7.631   7.226
 6802SOL    HW132437   7.046   7.657   7.307
 6802SOL    HW232438   7.040   7.656   7.144
 6803SOL     OW32439   8.781   5.175   6.786
 6803SOL    HW132440   8.785   5.225   6.699
 6803SOL    HW232441   8.687   5.145   6.802
 6804SOL     OW32442   8.692   3.274   7.053
 6804SOL    HW132443   8.777   3.294   7.102
 6804SOL    HW232444   8.616   3.279   7.116
 6805SOL     OW32445   9.401   5.225   7.413
 6805SOL    HW132446   9.402   5.278   7.328
 6805SOL    HW232447   9.474   5.257   7.472
 6806SOL     OW32448   2.780   3.034   7.256
 6806SOL    HW132449   2.680   3.033   7.244
 6806SOL    HW232450   2.821   3.093   7.188
 6807SOL     OW32451   2.825   7.088   7.458
 6807SOL    HW132452   2.762   7.154   7.416
 6807SOL    HW232453   2.862   7.028   7.388
 6808SOL     OW32454   1.631   0.763   7.452
 6808SOL    HW132455   1.568   0.752   7.375
 6808SOL    HW232456   1.725   0.763   7.418
 6809SOL     OW32457   3.332   0.641   7.179
 6809SOL    HW132458   3.253   0.694   7.212
 6809SOL    HW232459   3.348   0.563   7.239
 6810SOL     OW32460   7.029   1.594   7.077
 6810SOL    HW132461   7.071   1.630   6.993
 6810SOL    HW232462   7.096   1.596   7.150
 6811SOL     OW32463   7.117   6.305   7.501
 6811SOL    HW132464   7.058   6.286   7.579
 6811SOL    HW232465   7.131   6.403   7.493
 6812SOL     OW32466   2.312   0.734   7.497
 6812SOL    HW132467   2.411   0.718   7.489
 6812SOL    HW232468   2.266   0.699   7.416
 6813SOL     OW32469   8.906   4.445   7.497
 6813SOL    HW132470   8.934   4.354   7.467
 6813SOL    HW232471   8.885   4.501   7.418
 6814SOL     OW32472   0.412   2.440   6.811
 6814SOL    HW132473   0.325   2.394   6.832
 6814SOL    HW232474   0.405   2.486   6.723
 6815SOL     OW32475   3.160   6.336   7.024
 6815SOL    HW132476   3.159   6.434   7.002
 6815SOL    HW232477   3.124   6.284   6.947
 6816SOL     OW32478   4.352   5.852   6.812
 6816SOL    HW132479   4.254   5.856   6.791
 6816SOL    HW232480   4.371   5.771   6.866
 6817SOL     OW32481   9.355   5.584   7.195
 6817SOL    HW132482   9.453   5.562   7.192
 6817SOL    HW232483   9.341   5.667   7.248
 6818SOL     OW32484   1.785   6.317   7.183
 6818SOL    HW132485   1.818   6.266   7.102
 6818SOL    HW232486   1.688   6.300   7.195
 6819SOL     OW32487   7.051   3.566   6.985
 6819SOL    HW132488   7.003   3.533   7.066
 6819SOL    HW232489   7.104   3.647   7.009
 6820SOL     OW32490   2.234   3.932   6.712
 6820SOL    HW132491   2.212   3.988   6.793
 6820SOL    HW232492   2.187   3.844   6.720
 6821SOL     OW32493   5.670   6.049   6.969
 6821SOL    HW132494   5.579   6.032   6.931
 6821SOL    HW232495   5.716   6.118   6.916
 6822SOL     OW32496   9.067   2.151   6.972
 6822SOL    HW132497   8.983   2.185   7.016
 6822SOL    HW232498   9.046   2.068   6.922
 6823SOL     OW32499   8.402   7.824   7.282
 6823SOL    HW132500   8.501   7.832   7.296
 6823SOL    HW232501   8.358   7.813   7.371
 6824SOL     OW32502   4.819   7.093   6.964
 6824SOL    HW132503   4.801   7.023   6.894
 6824SOL    HW232504   4.916   7.090   6.989
 6825SOL     OW32505   0.580   8.190   7.139
 6825SOL    HW132506   0.662   8.234   7.102
 6825SOL    HW232507   0.555   8.232   7.225
 6826SOL     OW32508   4.584   4.897   6.818
 6826SOL    HW132509   4.500   4.851   6.788
 6826SOL    HW232510   4.643   4.831   6.864
 6827SOL     OW32511   4.770   8.323   7.063
 6827SOL    HW132512   4.805   8.375   7.142
 6827SOL    HW232513   4.826   8.343   6.984
 6828SOL     OW32514   1.990   8.222   7.116
 6828SOL    HW132515   2.018   8.154   7.185
 6828SOL    HW232516   1.999   8.313   7.155
 6829SOL     OW32517   9.377   3.153   6.869
 6829SOL    HW132518   9.402   3.091   6.944
 6829SOL    HW232519   9.402   3.246   6.894
 6830SOL     OW32520   0.433   7.536   6.972
 6830SOL    HW132521   0.404   7.623   7.014
 6830SOL    HW232522   0.403   7.534   6.877
 6831SOL     OW32523   7.816   1.849   7.327
 6831SOL    HW132524   7.723   1.870   7.359
 6831SOL    HW232525   7.825   1.876   7.232
 6832SOL     OW32526   0.039   0.487   7.253
 6832SOL    HW132527   0.074   0.427   7.181
 6832SOL    HW232528  -0.052   0.519   7.228
 6833SOL     OW32529   4.493   6.882   7.125
 6833SOL    HW132530   4.531   6.975   7.128
 6833SOL    HW232531   4.527   6.830   7.203
 6834SOL     OW32532   2.423   6.335   7.361
 6834SOL    HW132533   2.507   6.336   7.306
 6834SOL    HW232534   2.349   6.295   7.308
 6835SOL     OW32535   1.019   2.660   7.504
 6835SOL    HW132536   0.979   2.688   7.417
 6835SOL    HW232537   1.117   2.651   7.495
 6836SOL     OW32538   1.864   2.862   7.549
 6836SOL    HW132539   1.912   2.881   7.462
 6836SOL    HW232540   1.867   2.764   7.566
 6837SOL     OW32541   0.317   5.918   7.123
 6837SOL    HW132542   0.319   5.910   7.023
 6837SOL    HW232543   0.400   5.964   7.153
 6838SOL     OW32544   7.563   5.506   7.205
 6838SOL    HW132545   7.604   5.579   7.261
 6838SOL    HW232546   7.577   5.527   7.109
 6839SOL     OW32547   5.340   0.947   7.051
 6839SOL    HW132548   5.245   0.978   7.051
 6839SOL    HW232549   5.395   1.005   7.110
 6840SOL     OW32550   4.200   2.848   7.090
 6840SOL    HW132551   4.122   2.799   7.051
 6840SOL    HW232552   4.231   2.917   7.025
 6841SOL     OW32553   7.127   0.329   6.788
 6841SOL    HW132554   7.085   0.312   6.699
 6841SOL    HW232555   7.196   0.400   6.779
 6842SOL     OW32556   3.448   3.415   6.992
 6842SOL    HW132557   3.464   3.487   6.924
 6842SOL    HW232558   3.503   3.335   6.969
 6843SOL     OW32559   5.280   3.206   6.802
 6843SOL    HW132560   5.247   3.166   6.716
 6843SOL    HW232561   5.300   3.134   6.867
 6844SOL     OW32562   5.348   0.637   6.880
 6844SOL    HW132563   5.432   0.635   6.935
 6844SOL    HW232564   5.276   0.681   6.933
 6845SOL     OW32565   8.934   0.510   7.012
 6845SOL    HW132566   8.982   0.563   6.942
 6845SOL    HW232567   8.903   0.424   6.973
 6846SOL     OW32568   7.909   6.363   7.282
 6846SOL    HW132569   7.976   6.436   7.266
 6846SOL    HW232570   7.957   6.281   7.312
 6847SOL     OW32571   9.324   5.458   7.529
 6847SOL    HW132572   9.337   5.359   7.543
 6847SOL    HW232573   9.369   5.486   7.445
 6848SOL     OW32574   8.729   4.070   6.743
 6848SOL    HW132575   8.771   4.064   6.652
 6848SOL    HW232576   8.799   4.075   6.813
 6849SOL     OW32577   1.324   5.225   7.494
 6849SOL    HW132578   1.327   5.228   7.394
 6849SOL    HW232579   1.230   5.222   7.525
 6850SOL     OW32580   5.373   3.193   7.310
 6850SOL    HW132581   5.290   3.170   7.362
 6850SOL    HW232582   5.450   3.141   7.345
 6851SOL     OW32583   4.761   1.178   7.467
 6851SOL    HW132584   4.849   1.206   7.508
 6851SOL    HW232585   4.778   1.133   7.380
 6852SOL     OW32586   9.354   0.211   7.014
 6852SOL    HW132587   9.419   0.255   6.950
 6852SOL    HW232588   9.388   0.221   7.107
 6853SOL     OW32589   3.376   4.709   6.839
 6853SOL    HW132590   3.443   4.764   6.890
 6853SOL    HW232591   3.382   4.731   6.743
 6854SOL     OW32592   5.491   4.558   7.219
 6854SOL    HW132593   5.482   4.658   7.215
 6854SOL    HW232594   5.414   4.516   7.171
 6855SOL     OW32595   7.177   1.209   7.395
 6855SOL    HW132596   7.125   1.158   7.463
 6855SOL    HW232597   7.255   1.252   7.438
 6856SOL     OW32598   0.535   7.489   7.402
 6856SOL    HW132599   0.470   7.565   7.400
 6856SOL    HW232600   0.562   7.472   7.496
 6857SOL     OW32601   0.244   0.104   7.136
 6857SOL    HW132602   0.341   0.078   7.132
 6857SOL    HW232603   0.233   0.181   7.198
 6858SOL     OW32604   7.615   3.436   7.244
 6858SOL    HW132605   7.618   3.507   7.173
 6858SOL    HW232606   7.655   3.352   7.209
 6859SOL     OW32607   6.623   7.030   6.985
 6859SOL    HW132608   6.671   7.066   6.904
 6859SOL    HW232609   6.565   6.954   6.958
 6860SOL     OW32610   5.613   6.312   7.296
 6860SOL    HW132611   5.552   6.277   7.368
 6860SOL    HW232612   5.640   6.405   7.318
 6861SOL     OW32613   5.428   0.401   7.285
 6861SOL    HW132614   5.487   0.326   7.314
 6861SOL    HW232615   5.334   0.381   7.309
 6862SOL     OW32616   8.893   6.167   7.010
 6862SOL    HW132617   8.940   6.092   7.058
 6862SOL    HW232618   8.896   6.150   6.912
 6863SOL     OW32619   7.929   0.449   7.294
 6863SOL    HW132620   8.009   0.433   7.351
 6863SOL    HW232621   7.848   0.452   7.351
 6864SOL     OW32622   7.312   5.328   7.158
 6864SOL    HW132623   7.389   5.340   7.095
 6864SOL    HW232624   7.239   5.278   7.113
 6865SOL     OW32625   9.439   1.204   7.487
 6865SOL    HW132626   9.508   1.141   7.450
 6865SOL    HW232627   9.485   1.284   7.524
 6866SOL     OW32628   6.728   3.686   7.238
 6866SOL    HW132629   6.774   3.749   7.301
 6866SOL    HW232630   6.702   3.734   7.155
 6867SOL     OW32631   4.755   0.482   6.870
 6867SOL    HW132632   4.712   0.392   6.862
 6867SOL    HW232633   4.782   0.513   6.779
 6868SOL     OW32634   0.721   5.981   6.824
 6868SOL    HW132635   0.808   5.987   6.874
 6868SOL    HW232636   0.721   5.898   6.768
 6869SOL     OW32637   5.883   0.526   6.856
 6869SOL    HW132638   5.841   0.596   6.915
 6869SOL    HW232639   5.899   0.444   6.910
 6870SOL     OW32640   8.834   6.641   7.483
 6870SOL    HW132641   8.821   6.713   7.414
 6870SOL    HW232642   8.751   6.587   7.490
 6871SOL     OW32643   5.692   5.734   7.187
 6871SOL    HW132644   5.651   5.821   7.157
 6871SOL    HW232645   5.772   5.715   7.132
 6872SOL     OW32646   8.392   4.589   7.269
 6872SOL    HW132647   8.316   4.627   7.215
 6872SOL    HW232648   8.354   4.542   7.349
 6873SOL     OW32649   9.026   1.143   6.859
 6873SOL    HW132650   8.941   1.129   6.808
 6873SOL    HW232651   9.098   1.171   6.796
 6874SOL     OW32652   4.998   2.631   7.322
 6874SOL    HW132653   4.973   2.728   7.325
 6874SOL    HW232654   5.025   2.606   7.230
 6875SOL     OW32655   6.052   7.916   7.418
 6875SOL    HW132656   5.991   7.849   7.375
 6875SOL    HW232657   6.125   7.939   7.354
 6876SOL     OW32658   2.628   4.089   6.928
 6876SOL    HW132659   2.703   4.043   6.878
 6876SOL    HW232660   2.555   4.111   6.864
 6877SOL     OW32661   4.109   7.862   7.337
 6877SOL    HW132662   4.110   7.824   7.430
 6877SOL    HW232663   4.014   7.871   7.307
 6878SOL     OW32664   4.722   2.534   6.808
 6878SOL    HW132665   4.709   2.505   6.713
 6878SOL    HW232666   4.812   2.506   6.839
 6879SOL     OW32667   3.243   1.194   7.512
 6879SOL    HW132668   3.315   1.174   7.445
 6879SOL    HW232669   3.155   1.171   7.473
 6880SOL     OW32670   5.449   0.321   6.776
 6880SOL    HW132671   5.520   0.288   6.712
 6880SOL    HW232672   5.372   0.356   6.723
 6881SOL     OW32673   7.166   8.379   7.216
 6881SOL    HW132674   7.113   8.295   7.198
 6881SOL    HW232675   7.103   8.454   7.234
 6882SOL     OW32676   1.575   5.106   6.805
 6882SOL    HW132677   1.479   5.126   6.785
 6882SOL    HW232678   1.610   5.173   6.869
 6883SOL     OW32679   5.991   7.020   7.443
 6883SOL    HW132680   6.020   7.116   7.450
 6883SOL    HW232681   6.070   6.964   7.421
 6884SOL     OW32682   5.091   0.336   7.310
 6884SOL    HW132683   5.077   0.326   7.409
 6884SOL    HW232684   5.188   0.324   7.289
 6885SOL     OW32685   9.493   6.409   7.532
 6885SOL    HW132686   9.447   6.345   7.593
 6885SOL    HW232687   9.448   6.409   7.443
 6886SOL     OW32688   9.282   7.024   7.152
 6886SOL    HW132689   9.192   6.978   7.154
 6886SOL    HW232690   9.294   7.067   7.063
 6887SOL     OW32691   8.978   2.573   6.823
 6887SOL    HW132692   9.035   2.642   6.868
 6887SOL    HW232693   8.890   2.612   6.799
 6888SOL     OW32694   4.403   4.210   6.949
 6888SOL    HW132695   4.327   4.163   6.902
 6888SOL    HW232696   4.424   4.161   7.033
 6889SOL     OW32697   2.763   1.810   7.121
 6889SOL    HW132698   2.824   1.881   7.157
 6889SOL    HW232699   2.750   1.739   7.189
 6890SOL     OW32700   0.461   0.435   7.079
 6890SOL    HW132701   0.404   0.405   7.002
 6890SOL    HW232702   0.518   0.511   7.050
 6891SOL     OW32703   5.399   1.155   7.161
 6891SOL    HW132704   5.303   1.182   7.150
 6891SOL    HW232705   5.454   1.204   7.095
 6892SOL     OW32706   7.999   1.688   6.956
 6892SOL    HW132707   8.085   1.729   6.985
 6892SOL    HW232708   7.923   1.730   7.005
 6893SOL     OW32709   4.911   6.234   7.102
 6893SOL    HW132710   4.970   6.269   7.176
 6893SOL    HW232711   4.832   6.190   7.142
 6894SOL     OW32712   7.587   1.724   7.072
 6894SOL    HW132713   7.510   1.776   7.033
 6894SOL    HW232714   7.609   1.648   7.011
 6895SOL     OW32715   0.493   2.296   7.405
 6895SOL    HW132716   0.485   2.224   7.474
 6895SOL    HW232717   0.541   2.374   7.444
 6896SOL     OW32718   4.553   6.436   7.145
 6896SOL    HW132719   4.562   6.512   7.080
 6896SOL    HW232720   4.622   6.446   7.217
 6897SOL     OW32721   5.603   8.421   7.048
 6897SOL    HW132722   5.665   8.347   7.022
 6897SOL    HW232723   5.547   8.446   6.969
 6898SOL     OW32724   1.039   0.548   7.299
 6898SOL    HW132725   1.048   0.647   7.289
 6898SOL    HW232726   0.945   0.521   7.281
 6899SOL     OW32727   9.507   6.899   6.768
 6899SOL    HW132728   9.415   6.871   6.740
 6899SOL    HW232729   9.530   6.985   6.723
 6900SOL     OW32730   1.907   6.120   7.516
 6900SOL    HW132731   1.820   6.119   7.466
 6900SOL    HW232732   1.968   6.187   7.475
 6901SOL     OW32733   4.949   7.853   7.297
 6901SOL    HW132734   4.881   7.800   7.348
 6901SOL    HW232735   4.934   7.950   7.311
 6902SOL     OW32736   6.707   2.406   7.479
 6902SOL    HW132737   6.795   2.447   7.455
 6902SOL    HW232738   6.698   2.318   7.434
 6903SOL     OW32739   0.949   2.529   7.023
 6903SOL    HW132740   1.041   2.568   7.025
 6903SOL    HW232741   0.884   2.596   6.990
 6904SOL     OW32742   5.018   3.536   6.784
 6904SOL    HW132743   5.034   3.525   6.883
 6904SOL    HW232744   5.023   3.446   6.740
 6905SOL     OW32745   4.465   5.262   7.467
 6905SOL    HW132746   4.420   5.250   7.556
 6905SOL    HW232747   4.562   5.278   7.480
 6906SOL     OW32748   9.028   4.952   7.391
 6906SOL    HW132749   9.054   4.855   7.377
 6906SOL    HW232750   9.065   4.983   7.478
 6907SOL     OW32751   5.273   2.561   6.957
 6907SOL    HW132752   5.339   2.551   6.882
 6907SOL    HW232753   5.237   2.654   6.957
 6908SOL     OW32754   7.690   8.360   7.114
 6908SOL    HW132755   7.763   8.429   7.111
 6908SOL    HW232756   7.624   8.386   7.184
 6909SOL     OW32757   5.504   1.643   6.797
 6909SOL    HW132758   5.599   1.666   6.777
 6909SOL    HW232759   5.498   1.550   6.831
 6910SOL     OW32760   4.879   2.228   7.224
 6910SOL    HW132761   4.785   2.196   7.230
 6910SOL    HW232762   4.892   2.280   7.140
 6911SOL     OW32763   7.809   5.299   7.449
 6911SOL    HW132764   7.854   5.387   7.433
 6911SOL    HW232765   7.775   5.263   7.363
 6912SOL     OW32766   6.846   4.429   6.964
 6912SOL    HW132767   6.812   4.499   6.901
 6912SOL    HW232768   6.852   4.342   6.916
 6913SOL     OW32769   5.713   6.178   7.387
 6913SOL    HW132770   5.751   6.231   7.464
 6913SOL    HW232771   5.631   6.131   7.416
 6914SOL     OW32772   8.773   7.099   7.381
 6914SOL    HW132773   8.781   7.179   7.321
 6914SOL    HW232774   8.801   7.017   7.332
 6915SOL     OW32775   5.278   1.162   6.841
 6915SOL    HW132776   5.186   1.191   6.870
 6915SOL    HW232777   5.302   1.210   6.757
 6916SOL     OW32778   8.613   1.104   7.433
 6916SOL    HW132779   8.687   1.142   7.377
 6916SOL    HW232780   8.589   1.014   7.400
 6917SOL     OW32781   4.698   6.624   6.839
 6917SOL    HW132782   4.734   6.565   6.912
 6917SOL    HW232783   4.598   6.617   6.837
 6918SOL     OW32784   4.993   1.661   6.723
 6918SOL    HW132785   4.909   1.682   6.775
 6918SOL    HW232786   5.047   1.595   6.774
 6919SOL     OW32787   8.946   6.928   7.421
 6919SOL    HW132788   8.992   6.875   7.493
 6919SOL    HW232789   8.899   7.006   7.462
 6920SOL     OW32790   3.656   6.770   7.136
 6920SOL    HW132791   3.692   6.855   7.174
 6920SOL    HW232792   3.712   6.742   7.059
 6921SOL     OW32793   7.266   5.543   6.728
 6921SOL    HW132794   7.234   5.480   6.799
 6921SOL    HW232795   7.328   5.609   6.767
 6922SOL     OW32796   5.880   3.491   7.188
 6922SOL    HW132797   5.970   3.495   7.233
 6922SOL    HW232798   5.809   3.500   7.256
 6923SOL     OW32799   7.214   1.755   7.329
 6923SOL    HW132800   7.153   1.714   7.261
 6923SOL    HW232801   7.265   1.830   7.287
 6924SOL     OW32802   5.503   7.741   7.485
 6924SOL    HW132803   5.588   7.748   7.539
 6924SOL    HW232804   5.502   7.815   7.418
 6925SOL     OW32805   0.145   8.234   7.124
 6925SOL    HW132806   0.058   8.190   7.148
 6925SOL    HW232807   0.137   8.275   7.034
 6926SOL     OW32808   8.774   5.463   7.361
 6926SOL    HW132809   8.751   5.538   7.297
 6926SOL    HW232810   8.873   5.461   7.373
 6927SOL     OW32811   1.111   5.397   7.022
 6927SOL    HW132812   1.176   5.455   7.072
 6927SOL    HW232813   1.081   5.322   7.079
 6928SOL     OW32814   6.519   3.882   7.208
 6928SOL    HW132815   6.618   3.883   7.226
 6928SOL    HW232816   6.497   3.809   7.144
 6929SOL     OW32817   9.325   1.838   7.201
 6929SOL    HW132818   9.371   1.787   7.129
 6929SOL    HW232819   9.245   1.885   7.164
 6930SOL     OW32820   0.934   3.612   7.167
 6930SOL    HW132821   0.837   3.590   7.173
 6930SOL    HW232822   0.946   3.710   7.157
 6931SOL     OW32823   3.340   0.960   7.049
 6931SOL    HW132824   3.289   1.016   7.115
 6931SOL    HW232825   3.363   0.873   7.090
 6932SOL     OW32826   0.557   3.057   7.345
 6932SOL    HW132827   0.647   3.037   7.306
 6932SOL    HW232828   0.487   3.013   7.290
 6933SOL     OW32829   0.167   6.995   7.150
 6933SOL    HW132830   0.184   6.976   7.248
 6933SOL    HW232831   0.076   7.032   7.138
 6934SOL     OW32832   2.454   5.978   6.933
 6934SOL    HW132833   2.537   6.004   6.883
 6934SOL    HW232834   2.382   5.957   6.868
 6935SOL     OW32835   1.293   2.209   6.821
 6935SOL    HW132836   1.386   2.172   6.828
 6935SOL    HW232837   1.254   2.216   6.913
 6936SOL     OW32838   9.418   3.995   6.981
 6936SOL    HW132839   9.437   3.964   7.075
 6936SOL    HW232840   9.361   4.077   6.985
 6937SOL     OW32841   0.200   8.384   6.793
 6937SOL    HW132842   0.123   8.341   6.744
 6937SOL    HW232843   0.208   8.344   6.883
 6938SOL     OW32844   4.758   1.423   6.929
 6938SOL    HW132845   4.661   1.399   6.913
 6938SOL    HW232846   4.767   1.521   6.934
 6939SOL     OW32847   0.248   5.454   7.412
 6939SOL    HW132848   0.323   5.390   7.427
 6939SOL    HW232849   0.275   5.522   7.344
 6940SOL     OW32850   2.965   4.265   6.978
 6940SOL    HW132851   2.933   4.223   6.893
 6940SOL    HW232852   2.886   4.286   7.036
 6941SOL     OW32853   8.454   1.390   6.878
 6941SOL    HW132854   8.457   1.356   6.783
 6941SOL    HW232855   8.547   1.402   6.911
 6942SOL     OW32856   2.920   7.325   7.356
 6942SOL    HW132857   2.866   7.285   7.281
 6942SOL    HW232858   2.913   7.424   7.353
 6943SOL     OW32859   1.231   4.906   6.936
 6943SOL    HW132860   1.304   4.854   6.890
 6943SOL    HW232861   1.240   5.002   6.914
 6944SOL     OW32862   3.351   3.767   7.394
 6944SOL    HW132863   3.278   3.756   7.325
 6944SOL    HW232864   3.427   3.816   7.354
 6945SOL     OW32865   1.533   2.358   7.151
 6945SOL    HW132866   1.478   2.416   7.090
 6945SOL    HW232867   1.478   2.282   7.183
 6946SOL     OW32868   1.001   1.602   6.822
 6946SOL    HW132869   1.051   1.532   6.874
 6946SOL    HW232870   0.971   1.674   6.883
 6947SOL     OW32871   0.183   0.607   7.261
 6947SOL    HW132872   0.123   0.634   7.337
 6947SOL    HW232873   0.272   0.582   7.296
 6948SOL     OW32874   9.203   7.984   7.534
 6948SOL    HW132875   9.285   7.927   7.535
 6948SOL    HW232876   9.147   7.959   7.456
 6949SOL     OW32877   8.115   4.498   7.383
 6949SOL    HW132878   8.203   4.480   7.338
 6949SOL    HW232879   8.112   4.594   7.411
 6950SOL     OW32880   0.157   5.156   6.958
 6950SOL    HW132881   0.120   5.249   6.970
 6950SOL    HW232882   0.087   5.090   6.979
 6951SOL     OW32883   3.739   3.802   6.993
 6951SOL    HW132884   3.748   3.895   6.955
 6951SOL    HW232885   3.644   3.784   7.015
 6952SOL     OW32886   2.531   8.109   6.772
 6952SOL    HW132887   2.572   8.163   6.698
 6952SOL    HW232888   2.448   8.153   6.804
 6953SOL     OW32889   8.207   4.620   6.910
 6953SOL    HW132890   8.269   4.646   6.835
 6953SOL    HW232891   8.186   4.700   6.964
 6954SOL     OW32892   4.631   6.404   6.808
 6954SOL    HW132893   4.619   6.308   6.836
 6954SOL    HW232894   4.569   6.424   6.733
 6955SOL     OW32895   4.487   2.674   6.705
 6955SOL    HW132896   4.397   2.654   6.745
 6955SOL    HW232897   4.556   2.670   6.777
 6956SOL     OW32898   9.115   5.800   7.189
 6956SOL    HW132899   9.130   5.707   7.154
 6956SOL    HW232900   9.088   5.796   7.285
 6957SOL     OW32901   7.149   3.282   6.867
 6957SOL    HW132902   7.076   3.303   6.932
 6957SOL    HW232903   7.177   3.187   6.879
 6958SOL     OW32904   6.884   5.187   7.198
 6958SOL    HW132905   6.904   5.273   7.151
 6958SOL    HW232906   6.969   5.147   7.231
 6959SOL     OW32907   5.533   1.809   7.404
 6959SOL    HW132908   5.445   1.762   7.388
 6959SOL    HW232909   5.555   1.865   7.325
 6960SOL     OW32910   8.959   2.768   7.274
 6960SOL    HW132911   8.962   2.824   7.357
 6960SOL    HW232912   9.052   2.755   7.240
 6961SOL     OW32913   5.737   5.453   7.510
 6961SOL    HW132914   5.712   5.517   7.437
 6961SOL    HW232915   5.825   5.411   7.489
 6962SOL     OW32916   3.557   4.322   7.111
 6962SOL    HW132917   3.458   4.325   7.094
 6962SOL    HW232918   3.576   4.355   7.203
 6963SOL     OW32919   6.261   5.053   6.977
 6963SOL    HW132920   6.346   5.073   6.926
 6963SOL    HW232921   6.203   4.994   6.922
 6964SOL     OW32922   7.022   5.229   6.854
 6964SOL    HW132923   6.951   5.260   6.791
 6964SOL    HW232924   7.109   5.269   6.828
 6965SOL     OW32925   7.461   1.432   7.313
 6965SOL    HW132926   7.447   1.346   7.264
 6965SOL    HW232927   7.404   1.503   7.273
 6966SOL     OW32928   2.200   3.787   7.194
 6966SOL    HW132929   2.111   3.787   7.242
 6966SOL    HW232930   2.269   3.745   7.252
 6967SOL     OW32931   7.065   0.585   7.383
 6967SOL    HW132932   7.065   0.616   7.288
 6967SOL    HW232933   7.082   0.663   7.443
 6968SOL     OW32934   3.065   4.725   7.236
 6968SOL    HW132935   3.050   4.812   7.284
 6968SOL    HW232936   3.145   4.680   7.274
 6969SOL     OW32937   2.156   6.149   7.238
 6969SOL    HW132938   2.199   6.217   7.298
 6969SOL    HW232939   2.081   6.106   7.286
 6970SOL     OW32940   4.652   2.300   7.386
 6970SOL    HW132941   4.560   2.327   7.415
 6970SOL    HW232942   4.654   2.203   7.366
 6971SOL     OW32943   8.521   1.464   7.318
 6971SOL    HW132944   8.580   1.522   7.260
 6971SOL    HW232945   8.573   1.433   7.397
 6972SOL     OW32946   6.553   5.029   7.296
 6972SOL    HW132947   6.635   5.004   7.349
 6972SOL    HW232948   6.473   5.025   7.356
 6973SOL     OW32949   0.512   4.174   7.408
 6973SOL    HW132950   0.612   4.184   7.402
 6973SOL    HW232951   0.470   4.264   7.400
 6974SOL     OW32952   2.493   6.958   7.320
 6974SOL    HW132953   2.537   6.994   7.402
 6974SOL    HW232954   2.539   6.875   7.291
 6975SOL     OW32955   3.508   0.382   7.144
 6975SOL    HW132956   3.533   0.342   7.055
 6975SOL    HW232957   3.437   0.450   7.130
 6976SOL     OW32958   7.524   5.017   7.195
 6976SOL    HW132959   7.498   4.971   7.109
 6976SOL    HW232960   7.481   5.107   7.198
 6977SOL     OW32961   4.925   8.475   7.385
 6977SOL    HW132962   4.836   8.520   7.370
 6977SOL    HW232963   4.952   8.486   7.480
 6978SOL     OW32964   1.053   4.493   6.748
 6978SOL    HW132965   0.973   4.498   6.808
 6978SOL    HW232966   1.032   4.536   6.661
 6979SOL     OW32967   5.995   8.121   7.190
 6979SOL    HW132968   5.929   8.154   7.122
 6979SOL    HW232969   6.023   8.196   7.248
 6980SOL     OW32970   4.631   7.383   7.171
 6980SOL    HW132971   4.650   7.359   7.266
 6980SOL    HW232972   4.537   7.362   7.149
 6981SOL     OW32973   5.328   4.729   6.865
 6981SOL    HW132974   5.383   4.711   6.783
 6981SOL    HW232975   5.319   4.827   6.878
 6982SOL     OW32976   8.639   1.059   6.835
 6982SOL    HW132977   8.713   1.127   6.824
 6982SOL    HW232978   8.597   1.071   6.924
 6983SOL     OW32979   6.706   4.934   6.882
 6983SOL    HW132980   6.774   4.944   6.955
 6983SOL    HW232981   6.616   4.958   6.916
 6984SOL     OW32982   3.851   3.356   6.976
 6984SOL    HW132983   3.916   3.426   7.007
 6984SOL    HW232984   3.901   3.276   6.946
 6985SOL     OW32985   0.025   2.669   7.319
 6985SOL    HW132986   0.108   2.615   7.301
 6985SOL    HW232987  -0.047   2.608   7.348
 6986SOL     OW32988   5.893   4.435   7.020
 6986SOL    HW132989   5.985   4.397   7.007
 6986SOL    HW232990   5.845   4.381   7.088
 6987SOL     OW32991   2.387   0.232   7.214
 6987SOL    HW132992   2.403   0.135   7.234
 6987SOL    HW232993   2.388   0.283   7.299
 6988SOL     OW32994   8.638   2.914   7.419
 6988SOL    HW132995   8.660   3.006   7.453
 6988SOL    HW232996   8.629   2.852   7.496
 6989SOL     OW32997   4.516   6.061   6.859
 6989SOL    HW132998   4.540   6.025   6.949
 6989SOL    HW232999   4.423   6.097   6.861
 6990SOL     OW33000   5.613   3.429   7.463
 6990SOL    HW133001   5.550   3.506   7.458
 6990SOL    HW233002   5.583   3.357   7.400
 6991SOL     OW33003   7.707   7.728   7.085
 6991SOL    HW133004   7.655   7.786   7.148
 6991SOL    HW233005   7.730   7.642   7.130
 6992SOL     OW33006   4.169   6.646   6.916
 6992SOL    HW133007   4.113   6.564   6.929
 6992SOL    HW233008   4.207   6.674   7.004
 6993SOL     OW33009   4.019   8.333   6.945
 6993SOL    HW133010   3.967   8.411   6.909
 6993SOL    HW233011   4.109   8.364   6.973
 6994SOL     OW33012   1.243   0.757   6.957
 6994SOL    HW133013   1.263   0.737   7.054
 6994SOL    HW233014   1.288   0.841   6.931
 6995SOL     OW33015   1.057   4.806   7.071
 6995SOL    HW133016   1.008   4.803   7.159
 6995SOL    HW233017   1.116   4.727   7.063
 6996SOL     OW33018   2.892   0.646   7.122
 6996SOL    HW133019   2.793   0.661   7.133
 6996SOL    HW233020   2.939   0.671   7.206
 6997SOL     OW33021   8.770   2.211   6.795
 6997SOL    HW133022   8.673   2.186   6.805
 6997SOL    HW233023   8.786   2.243   6.702
 6998SOL     OW33024   3.865   3.654   7.362
 6998SOL    HW133025   3.800   3.580   7.382
 6998SOL    HW233026   3.941   3.650   7.426
 6999SOL     OW33027   5.763   2.284   7.520
 6999SOL    HW133028   5.858   2.249   7.522
 6999SOL    HW233029   5.704   2.215   7.481
 7000SOL     OW33030   0.825   1.148   6.927
 7000SOL    HW133031   0.895   1.140   6.856
 7000SOL    HW233032   0.743   1.188   6.888
 7001SOL     OW33033   4.654   4.533   7.433
 7001SOL    HW133034   4.716   4.602   7.471
 7001SOL    HW233035   4.569   4.576   7.405
 7002SOL     OW33036   6.613   1.294   7.013
 7002SOL    HW133037   6.552   1.262   6.940
 7002SOL    HW233038   6.677   1.360   6.976
 7003SOL     OW33039   2.458   4.059   7.473
 7003SOL    HW133040   2.554   4.062   7.443
 7003SOL    HW233041   2.418   3.972   7.448
 7004SOL     OW33042   6.810   4.647   7.287
 7004SOL    HW133043   6.882   4.646   7.356
 7004SOL    HW233044   6.729   4.692   7.324
 7005SOL     OW33045   0.518   1.820   7.283
 7005SOL    HW133046   0.579   1.896   7.259
 7005SOL    HW233047   0.572   1.741   7.308
 7006SOL     OW33048   6.743   7.877   7.251
 7006SOL    HW133049   6.727   7.974   7.271
 7006SOL    HW233050   6.657   7.832   7.233
 7007SOL     OW33051   9.376   1.606   7.091
 7007SOL    HW133052   9.372   1.679   7.023
 7007SOL    HW233053   9.416   1.525   7.050
 7008SOL     OW33054   6.770   4.044   6.827
 7008SOL    HW133055   6.855   4.080   6.789
 7008SOL    HW233056   6.704   4.118   6.834
 7009SOL     OW33057   7.662   3.268   6.910
 7009SOL    HW133058   7.728   3.252   6.983
 7009SOL    HW233059   7.597   3.192   6.907
 7010SOL     OW33060   8.967   1.405   7.364
 7010SOL    HW133061   8.879   1.372   7.398
 7010SOL    HW233062   8.953   1.453   7.278
 7011SOL     OW33063   5.921   7.477   6.800
 7011SOL    HW133064   5.985   7.445   6.730
 7011SOL    HW233065   5.933   7.423   6.883
 7012SOL     OW33066   7.001   4.169   6.953
 7012SOL    HW133067   7.072   4.115   6.999
 7012SOL    HW233068   6.932   4.196   7.020
 7013SOL     OW33069   3.709   0.787   7.406
 7013SOL    HW133070   3.641   0.742   7.466
 7013SOL    HW233071   3.797   0.790   7.452
 7014SOL     OW33072   1.459   4.856   7.337
 7014SOL    HW133073   1.547   4.837   7.293
 7014SOL    HW233074   1.392   4.880   7.267
 7015SOL     OW33075   1.820   7.075   7.155
 7015SOL    HW133076   1.818   7.143   7.082
 7015SOL    HW233077   1.863   6.992   7.121
 7016SOL     OW33078   4.726   2.249   6.947
 7016SOL    HW133079   4.655   2.196   6.994
 7016SOL    HW233080   4.813   2.202   6.956
 7017SOL     OW33081   5.551   7.267   6.793
 7017SOL    HW133082   5.611   7.334   6.839
 7017SOL    HW233083   5.595   7.178   6.793
 7018SOL     OW33084   7.098   4.644   6.838
 7018SOL    HW133085   7.053   4.569   6.888
 7018SOL    HW233086   7.045   4.727   6.848
 7019SOL     OW33087   8.449   7.937   7.035
 7019SOL    HW133088   8.531   7.879   7.043
 7019SOL    HW233089   8.381   7.890   6.981
 7020SOL     OW33090   1.300   0.484   6.957
 7020SOL    HW133091   1.374   0.453   7.018
 7020SOL    HW233092   1.258   0.566   6.995
 7021SOL     OW33093   1.430   0.063   6.988
 7021SOL    HW133094   1.506   0.100   6.934
 7021SOL    HW233095   1.355   0.040   6.926
 7022SOL     OW33096   4.499   0.630   7.001
 7022SOL    HW133097   4.551   0.713   6.983
 7022SOL    HW233098   4.519   0.562   6.932
 7023SOL     OW33099   4.066   6.090   6.984
 7023SOL    HW133100   4.133   6.165   6.985
 7023SOL    HW233101   4.114   6.004   6.969
 7024SOL     OW33102   2.218   3.254   7.496
 7024SOL    HW133103   2.123   3.222   7.501
 7024SOL    HW233104   2.277   3.190   7.546
 7025SOL     OW33105   9.081   7.645   7.342
 7025SOL    HW133106   9.070   7.570   7.409
 7025SOL    HW233107   9.131   7.720   7.385
 7026SOL     OW33108   5.761   7.579   6.997
 7026SOL    HW133109   5.829   7.597   7.068
 7026SOL    HW233110   5.671   7.574   7.038
 7027SOL     OW33111   2.081   4.762   6.739
 7027SOL    HW133112   2.163   4.795   6.788
 7027SOL    HW233113   2.023   4.712   6.802
 7028SOL     OW33114   3.588   8.483   7.063
 7028SOL    HW133115   3.667   8.433   7.098
 7028SOL    HW233116   3.511   8.471   7.124
 7029SOL     OW33117   5.345   3.289   7.000
 7029SOL    HW133118   5.417   3.235   7.045
 7029SOL    HW233119   5.257   3.245   7.014
 7030SOL     OW33120   9.007   6.639   6.891
 7030SOL    HW133121   9.060   6.628   6.976
 7030SOL    HW233122   8.941   6.712   6.903
 7031SOL     OW33123   6.292   5.040   7.368
 7031SOL    HW133124   6.234   4.961   7.346
 7031SOL    HW233125   6.336   5.024   7.456
 7032SOL     OW33126   7.156   6.553   7.131
 7032SOL    HW133127   7.068   6.583   7.167
 7032SOL    HW233128   7.225   6.560   7.202
 7033SOL     OW33129   8.967   7.361   7.504
 7033SOL    HW133130   8.888   7.409   7.544
 7033SOL    HW233131   9.029   7.428   7.465
 7034SOL     OW33132   3.006   4.071   7.297
 7034SOL    HW133133   3.088   4.110   7.254
 7034SOL    HW233134   2.959   4.013   7.232
 7035SOL     OW33135   4.389   2.050   7.261
 7035SOL    HW133136   4.393   2.150   7.261
 7035SOL    HW233137   4.476   2.013   7.290
 7036SOL     OW33138   7.315   4.691   7.001
 7036SOL    HW133139   7.232   4.666   7.053
 7036SOL    HW233140   7.291   4.762   6.935
 7037SOL     OW33141   2.599   4.620   7.291
 7037SOL    HW133142   2.565   4.592   7.381
 7037SOL    HW233143   2.631   4.714   7.295
 7038SOL     OW33144   6.659   6.060   7.404
 7038SOL    HW133145   6.731   6.049   7.334
 7038SOL    HW233146   6.690   6.021   7.490
 7039SOL     OW33147   8.767   4.196   7.083
 7039SOL    HW133148   8.804   4.125   7.023
 7039SOL    HW233149   8.707   4.255   7.031
 7040SOL     OW33150   5.008   6.606   7.464
 7040SOL    HW133151   4.913   6.577   7.448
 7040SOL    HW233152   5.048   6.637   7.378
 7041SOL     OW33153   1.821   8.015   7.214
 7041SOL    HW133154   1.735   8.047   7.173
 7041SOL    HW233155   1.800   7.959   7.294
 7042SOL     OW33156   8.927   2.095   7.282
 7042SOL    HW133157   8.873   2.144   7.213
 7042SOL    HW233158   8.875   2.090   7.366
 7043SOL     OW33159   1.517   1.314   7.074
 7043SOL    HW133160   1.554   1.397   7.031
 7043SOL    HW233161   1.470   1.260   7.005
 7044SOL     OW33162   4.050   6.813   7.239
 7044SOL    HW133163   4.069   6.883   7.169
 7044SOL    HW233164   3.964   6.768   7.218
 7045SOL     OW33165   4.134   1.869   7.543
 7045SOL    HW133166   4.146   1.806   7.466
 7045SOL    HW233167   4.210   1.933   7.545
 7046SOL     OW33168   5.451   0.136   7.356
 7046SOL    HW133169   5.484   0.182   7.272
 7046SOL    HW233170   5.365   0.177   7.384
 7047SOL     OW33171   3.636   3.851   6.848
 7047SOL    HW133172   3.573   3.788   6.802
 7047SOL    HW233173   3.657   3.927   6.787
 7048SOL     OW33174   4.662   7.682   7.426
 7048SOL    HW133175   4.750   7.710   7.466
 7048SOL    HW233176   4.648   7.727   7.339
 7049SOL     OW33177   4.135   7.127   6.848
 7049SOL    HW133178   4.144   7.094   6.754
 7049SOL    HW233179   4.225   7.130   6.891
 7050SOL     OW33180   7.020   1.662   7.443
 7050SOL    HW133181   6.956   1.693   7.513
 7050SOL    HW233182   6.972   1.648   7.357
 7051SOL     OW33183   6.935   2.163   7.006
 7051SOL    HW133184   7.015   2.219   7.029
 7051SOL    HW233185   6.961   2.068   7.000
 7052SOL     OW33186   6.477   6.142   7.226
 7052SOL    HW133187   6.413   6.188   7.163
 7052SOL    HW233188   6.536   6.081   7.174
 7053SOL     OW33189   7.282   2.212   7.108
 7053SOL    HW133190   7.352   2.235   7.176
 7053SOL    HW233191   7.194   2.203   7.154
 7054SOL     OW33192   2.481   5.800   7.062
 7054SOL    HW133193   2.502   5.718   7.117
 7054SOL    HW233194   2.465   5.772   6.968
 7055SOL     OW33195   6.367   1.363   7.144
 7055SOL    HW133196   6.384   1.434   7.075
 7055SOL    HW233197   6.382   1.274   7.103
 7056SOL     OW33198   8.986   5.352   6.783
 7056SOL    HW133199   8.969   5.253   6.772
 7056SOL    HW233200   9.050   5.382   6.713
 7057SOL     OW33201   8.159   0.813   6.947
 7057SOL    HW133202   8.232   0.875   6.916
 7057SOL    HW233203   8.117   0.771   6.867
 7058SOL     OW33204   3.090   4.293   7.138
 7058SOL    HW133205   3.012   4.295   7.202
 7058SOL    HW233206   3.166   4.244   7.181
 7059SOL     OW33207   2.080   7.857   6.975
 7059SOL    HW133208   2.101   7.820   7.066
 7059SOL    HW233209   1.987   7.890   6.973
 7060SOL     OW33210   0.493   3.352   7.470
 7060SOL    HW133211   0.426   3.382   7.401
 7060SOL    HW233212   0.584   3.352   7.430
 7061SOL     OW33213   8.255   2.977   7.377
 7061SOL    HW133214   8.324   2.912   7.412
 7061SOL    HW233215   8.235   3.045   7.447
 7062SOL     OW33216   1.874   8.400   7.401
 7062SOL    HW133217   1.847   8.331   7.333
 7062SOL    HW233218   1.865   8.491   7.362
 7063SOL     OW33219   3.008   0.996   7.431
 7063SOL    HW133220   2.983   0.992   7.528
 7063SOL    HW233221   2.928   0.976   7.375
 7064SOL     OW33222   0.848   8.338   7.048
 7064SOL    HW133223   0.937   8.310   7.086
 7064SOL    HW233224   0.853   8.433   7.018
 7065SOL     OW33225   1.524   5.012   6.971
 7065SOL    HW133226   1.625   5.014   6.967
 7065SOL    HW233227   1.495   4.987   7.063
 7066SOL     OW33228   9.333   2.908   7.200
 7066SOL    HW133229   9.366   2.924   7.107
 7066SOL    HW233230   9.257   2.843   7.197
 7067SOL     OW33231   5.058   4.476   6.944
 7067SOL    HW133232   4.978   4.429   6.906
 7067SOL    HW233233   5.135   4.413   6.946
 7068SOL     OW33234   6.637   0.973   7.007
 7068SOL    HW133235   6.661   0.883   6.969
 7068SOL    HW233236   6.601   1.031   6.934
 7069SOL     OW33237   2.480   7.169   7.017
 7069SOL    HW133238   2.579   7.183   7.024
 7069SOL    HW233239   2.433   7.254   7.040
 7070SOL     OW33240   8.225   1.112   7.501
 7070SOL    HW133241   8.260   1.162   7.421
 7070SOL    HW233242   8.241   1.015   7.489
 7071SOL     OW33243   2.521   2.269   6.777
 7071SOL    HW133244   2.535   2.328   6.857
 7071SOL    HW233245   2.487   2.324   6.702
 7072SOL     OW33246   3.401   3.020   6.907
 7072SOL    HW133247   3.372   3.114   6.928
 7072SOL    HW233248   3.338   2.956   6.948
 7073SOL     OW33249   7.449   7.488   6.785
 7073SOL    HW133250   7.435   7.406   6.843
 7073SOL    HW233251   7.498   7.461   6.703
 7074SOL     OW33252   5.958   6.370   7.047
 7074SOL    HW133253   6.053   6.342   7.055
 7074SOL    HW233254   5.941   6.405   6.956
 7075SOL     OW33255   3.700   1.150   7.535
 7075SOL    HW133256   3.757   1.175   7.456
 7075SOL    HW233257   3.627   1.090   7.505
 7076SOL     OW33258   5.832   7.026   7.018
 7076SOL    HW133259   5.899   7.024   7.093
 7076SOL    HW233260   5.760   7.091   7.039
 7077SOL     OW33261   5.650   1.155   7.003
 7077SOL    HW133262   5.708   1.100   7.064
 7077SOL    HW233263   5.631   1.243   7.045
 7078SOL     OW33264   4.706   0.190   7.498
 7078SOL    HW133265   4.800   0.222   7.513
 7078SOL    HW233266   4.704   0.132   7.417
 7079SOL     OW33267   3.003   5.457   6.907
 7079SOL    HW133268   2.971   5.416   6.993
 7079SOL    HW233269   2.954   5.417   6.831
 7080SOL     OW33270   8.298   8.187   6.875
 7080SOL    HW133271   8.379   8.241   6.896
 7080SOL    HW233272   8.322   8.091   6.872
 7081SOL     OW33273   2.312   0.949   7.523
 7081SOL    HW133274   2.395   0.899   7.547
 7081SOL    HW233275   2.334   1.017   7.454
 7082SOL     OW33276   3.707   3.519   6.769
 7082SOL    HW133277   3.644   3.592   6.798
 7082SOL    HW233278   3.686   3.436   6.819
 7083SOL     OW33279   0.697   2.211   6.747
 7083SOL    HW133280   0.787   2.250   6.728
 7083SOL    HW233281   0.701   2.157   6.830
 7084SOL     OW33282   5.161   4.277   6.752
 7084SOL    HW133283   5.212   4.341   6.810
 7084SOL    HW233284   5.207   4.189   6.751
 7085SOL     OW33285   3.373   1.766   7.387
 7085SOL    HW133286   3.444   1.750   7.317
 7085SOL    HW233287   3.303   1.696   7.380
 7086SOL     OW33288   3.112   3.725   7.042
 7086SOL    HW133289   3.117   3.812   6.993
 7086SOL    HW233290   3.172   3.658   6.998
 7087SOL     OW33291   3.843   1.314   7.233
 7087SOL    HW133292   3.939   1.342   7.245
 7087SOL    HW233293   3.784   1.393   7.249
 7088SOL     OW33294   1.065   0.935   6.896
 7088SOL    HW133295   1.106   1.027   6.887
 7088SOL    HW233296   1.135   0.867   6.881
 7089SOL     OW33297   6.904   4.832   6.999
 7089SOL    HW133298   6.945   4.858   7.087
 7089SOL    HW233299   6.935   4.894   6.928
 7090SOL     OW33300   8.870   1.332   7.143
 7090SOL    HW133301   8.806   1.388   7.195
 7090SOL    HW233302   8.917   1.270   7.205
 7091SOL     OW33303   6.750   4.069   7.007
 7091SOL    HW133304   6.847   4.085   7.029
 7091SOL    HW233305   6.730   3.972   7.015
 7092SOL     OW33306   3.967   8.076   7.452
 7092SOL    HW133307   3.908   8.106   7.377
 7092SOL    HW233308   4.056   8.050   7.416
 7093SOL     OW33309   1.316   0.642   7.476
 7093SOL    HW133310   1.266   0.687   7.551
 7093SOL    HW233311   1.312   0.544   7.488
 7094SOL     OW33312   6.211   7.355   6.840
 7094SOL    HW133313   6.201   7.298   6.758
 7094SOL    HW233314   6.137   7.334   6.903
 7095SOL     OW33315   4.057   3.492   7.494
 7095SOL    HW133316   4.018   3.446   7.573
 7095SOL    HW233317   4.105   3.574   7.524
 7096SOL     OW33318   0.228   5.132   7.188
 7096SOL    HW133319   0.288   5.067   7.141
 7096SOL    HW233320   0.162   5.169   7.124
 7097SOL     OW33321   1.797   7.399   6.804
 7097SOL    HW133322   1.818   7.473   6.739
 7097SOL    HW233323   1.824   7.312   6.764
 7098SOL     OW33324   2.163   1.062   7.057
 7098SOL    HW133325   2.134   1.095   6.967
 7098SOL    HW233326   2.166   0.963   7.057
 7099SOL     OW33327   8.016   1.755   7.379
 7099SOL    HW133328   8.085   1.744   7.451
 7099SOL    HW233329   7.940   1.808   7.415
 7100SOL     OW33330   5.980   1.929   7.499
 7100SOL    HW133331   5.948   2.012   7.545
 7100SOL    HW233332   6.066   1.948   7.453
 7101SOL     OW33333   7.242   0.185   6.961
 7101SOL    HW133334   7.317   0.171   7.026
 7101SOL    HW233335   7.161   0.214   7.010
 7102SOL     OW33336   5.879   5.120   7.200
 7102SOL    HW133337   5.936   5.065   7.138
 7102SOL    HW233338   5.793   5.142   7.155
 7103SOL     OW33339   4.102   1.866   7.324
 7103SOL    HW133340   4.115   1.774   7.286
 7103SOL    HW233341   4.038   1.861   7.400
 7104SOL     OW33342   9.003   2.492   7.002
 7104SOL    HW133343   8.971   2.567   7.060
 7104SOL    HW233344   8.941   2.415   7.009
 7105SOL     OW33345   6.359   3.846   6.782
 7105SOL    HW133346   6.297   3.785   6.731
 7105SOL    HW233347   6.370   3.930   6.731
 7106SOL     OW33348   8.575   8.238   7.446
 7106SOL    HW133349   8.489   8.227   7.396
 7106SOL    HW233350   8.650   8.247   7.381
 7107SOL     OW33351   3.248   2.482   7.283
 7107SOL    HW133352   3.296   2.403   7.323
 7107SOL    HW233353   3.301   2.516   7.205
 7108SOL     OW33354   4.901   0.417   7.150
 7108SOL    HW133355   4.870   0.504   7.110
 7108SOL    HW233356   4.970   0.377   7.091
 7109SOL     OW33357   0.721   3.518   6.820
 7109SOL    HW133358   0.723   3.564   6.730
 7109SOL    HW233359   0.797   3.454   6.825
 7110SOL     OW33360   0.739   0.031   7.071
 7110SOL    HW133361   0.680   0.004   6.994
 7110SOL    HW233362   0.802   0.101   7.040
 7111SOL     OW33363   1.898   5.140   7.519
 7111SOL    HW133364   1.849   5.215   7.473
 7111SOL    HW233365   1.975   5.112   7.461
 7112SOL     OW33366   6.299   7.717   6.971
 7112SOL    HW133367   6.274   7.634   6.921
 7112SOL    HW233368   6.297   7.795   6.909
 7113SOL     OW33369   3.464   5.917   6.795
 7113SOL    HW133370   3.465   5.847   6.722
 7113SOL    HW233371   3.420   5.999   6.761
 7114SOL     OW33372   6.112   4.401   6.901
 7114SOL    HW133373   6.107   4.459   6.983
 7114SOL    HW233374   6.093   4.307   6.925
 7115SOL     OW33375   6.221   1.411   7.244
 7115SOL    HW133376   6.166   1.363   7.313
 7115SOL    HW233377   6.308   1.439   7.283
 7116SOL     OW33378   4.671   6.531   7.469
 7116SOL    HW133379   4.719   6.598   7.410
 7116SOL    HW233380   4.730   6.452   7.484
 7117SOL     OW33381   9.275   0.485   7.056
 7117SOL    HW133382   9.266   0.519   6.962
 7117SOL    HW233383   9.366   0.505   7.090
 7118SOL     OW33384   0.749   1.992   7.256
 7118SOL    HW133385   0.728   1.936   7.176
 7118SOL    HW233386   0.674   1.985   7.321
 7119SOL     OW33387   7.442   0.357   7.471
 7119SOL    HW133388   7.497   0.389   7.549
 7119SOL    HW233389   7.363   0.308   7.505
 7120SOL     OW33390   3.809   7.325   7.011
 7120SOL    HW133391   3.811   7.409   7.065
 7120SOL    HW233392   3.860   7.338   6.926
 7121SOL     OW33393   1.117   7.614   7.484
 7121SOL    HW133394   1.068   7.642   7.567
 7121SOL    HW233395   1.106   7.516   7.470
 7122SOL     OW33396   8.167   7.552   7.242
 7122SOL    HW133397   8.171   7.626   7.310
 7122SOL    HW233398   8.082   7.557   7.192
 7123SOL     OW33399   4.021   1.838   7.066
 7123SOL    HW133400   4.091   1.767   7.079
 7123SOL    HW233401   4.064   1.927   7.060
 7124SOL     OW33402   6.978   3.889   6.709
 7124SOL    HW133403   7.041   3.933   6.774
 7124SOL    HW233404   6.887   3.887   6.749
 7125SOL     OW33405   1.164   2.188   7.262
 7125SOL    HW133406   1.182   2.257   7.334
 7125SOL    HW233407   1.119   2.110   7.302
 7126SOL     OW33408   4.646   2.541   6.979
 7126SOL    HW133409   4.704   2.616   6.946
 7126SOL    HW233410   4.582   2.576   7.047
 7127SOL     OW33411   0.403   7.803   7.015
 7127SOL    HW133412   0.398   7.897   6.981
 7127SOL    HW233413   0.371   7.800   7.109
 7128SOL     OW33414   1.600   2.852   7.298
 7128SOL    HW133415   1.509   2.883   7.268
 7128SOL    HW233416   1.594   2.757   7.327
 7129SOL     OW33417   8.340   3.420   7.124
 7129SOL    HW133418   8.285   3.455   7.200
 7129SOL    HW233419   8.435   3.413   7.152
 7130SOL     OW33420   7.261   4.889   7.248
 7130SOL    HW133421   7.202   4.912   7.169
 7130SOL    HW233422   7.343   4.945   7.244
 7131SOL     OW33423   1.400   0.962   6.948
 7131SOL    HW133424   1.500   0.957   6.950
 7131SOL    HW233425   1.372   1.054   6.923
 7132SOL     OW33426   4.453   6.191   7.364
 7132SOL    HW133427   4.543   6.183   7.409
 7132SOL    HW233428   4.460   6.256   7.290
 7133SOL     OW33429   7.938   8.196   7.480
 7133SOL    HW133430   7.912   8.162   7.571
 7133SOL    HW233431   7.905   8.289   7.469
 7134SOL     OW33432   9.324   4.198   7.244
 7134SOL    HW133433   9.368   4.147   7.170
 7134SOL    HW233434   9.394   4.241   7.301
 7135SOL     OW33435   0.915   2.875   7.297
 7135SOL    HW133436   0.875   2.895   7.208
 7135SOL    HW233437   0.889   2.946   7.362
 7136SOL     OW33438   8.182   1.489   7.109
 7136SOL    HW133439   8.131   1.568   7.144
 7136SOL    HW233440   8.203   1.427   7.183
 7137SOL     OW33441   3.388   2.428   6.747
 7137SOL    HW133442   3.310   2.391   6.797
 7137SOL    HW233443   3.472   2.389   6.784
 7138SOL     OW33444   8.497   4.088   6.783
 7138SOL    HW133445   8.424   4.095   6.852
 7138SOL    HW233446   8.575   4.042   6.823
 7139SOL     OW33447   1.239   1.880   7.249
 7139SOL    HW133448   1.253   1.979   7.243
 7139SOL    HW233449   1.220   1.855   7.344
 7140SOL     OW33450   8.999   5.584   7.124
 7140SOL    HW133451   9.034   5.498   7.162
 7140SOL    HW233452   8.982   5.648   7.198
 7141SOL     OW33453   3.077   5.240   7.203
 7141SOL    HW133454   3.045   5.173   7.270
 7141SOL    HW233455   3.148   5.296   7.243
 7142SOL     OW33456   9.366   6.194   6.862
 7142SOL    HW133457   9.376   6.247   6.947
 7142SOL    HW233458   9.324   6.250   6.792
 7143SOL     OW33459   1.611   3.307   7.432
 7143SOL    HW133460   1.614   3.282   7.335
 7143SOL    HW233461   1.696   3.279   7.476
 7144SOL     OW33462   0.826   7.918   7.186
 7144SOL    HW133463   0.741   7.963   7.160
 7144SOL    HW233464   0.860   7.864   7.110
 7145SOL     OW33465   8.610   2.387   7.004
 7145SOL    HW133466   8.519   2.411   6.969
 7145SOL    HW233467   8.679   2.445   6.962
 7146SOL     OW33468   9.007   5.582   7.533
 7146SOL    HW133469   8.924   5.527   7.543
 7146SOL    HW233470   9.037   5.580   7.438
 7147SOL     OW33471   4.380   4.898   6.875
 7147SOL    HW133472   4.285   4.928   6.862
 7147SOL    HW233473   4.414   4.935   6.961
 7148SOL     OW33474   0.322   2.762   7.451
 7148SOL    HW133475   0.232   2.756   7.495
 7148SOL    HW233476   0.393   2.745   7.519
 7149SOL     OW33477   5.821   3.973   7.130
 7149SOL    HW133478   5.806   3.960   7.228
 7149SOL    HW233479   5.909   4.016   7.115
 7150SOL     OW33480   6.163   3.798   6.902
 7150SOL    HW133481   6.208   3.886   6.918
 7150SOL    HW233482   6.107   3.775   6.981
 7151SOL     OW33483   6.465   7.131   7.311
 7151SOL    HW133484   6.552   7.085   7.332
 7151SOL    HW233485   6.404   7.124   7.389
 7152SOL     OW33486   3.944   4.623   6.772
 7152SOL    HW133487   3.934   4.707   6.826
 7152SOL    HW233488   3.854   4.591   6.745
 7153SOL     OW33489   6.118   2.334   7.000
 7153SOL    HW133490   6.113   2.371   7.094
 7153SOL    HW233491   6.065   2.391   6.939
 7154SOL     OW33492   3.386   4.199   7.172
 7154SOL    HW133493   3.333   4.175   7.091
 7154SOL    HW233494   3.324   4.214   7.249
 7155SOL     OW33495   2.189   3.444   7.427
 7155SOL    HW133496   2.273   3.486   7.393
 7155SOL    HW233497   2.154   3.498   7.503
 7156SOL     OW33498   1.103   5.515   6.818
 7156SOL    HW133499   1.088   5.613   6.808
 7156SOL    HW233500   1.200   5.498   6.833
 7157SOL     OW33501   3.026   2.127   7.331
 7157SOL    HW133502   3.089   2.102   7.406
 7157SOL    HW233503   2.956   2.057   7.322
 7158SOL     OW33504   7.354   4.190   7.259
 7158SOL    HW133505   7.420   4.265   7.251
 7158SOL    HW233506   7.262   4.226   7.252
 7159SOL     OW33507   7.871   6.622   6.806
 7159SOL    HW133508   7.815   6.544   6.834
 7159SOL    HW233509   7.944   6.591   6.747
 7160SOL     OW33510   6.113   8.307   7.461
 7160SOL    HW133511   6.195   8.348   7.501
 7160SOL    HW233512   6.035   8.323   7.521
 7161SOL     OW33513   4.943   2.674   6.993
 7161SOL    HW133514   4.968   2.604   6.926
 7161SOL    HW233515   4.865   2.726   6.959
 7162SOL     OW33516   2.920   1.652   7.088
 7162SOL    HW133517   2.950   1.712   7.162
 7162SOL    HW233518   2.862   1.581   7.125
 7163SOL     OW33519   1.275   1.743   7.016
 7163SOL    HW133520   1.279   1.684   7.098
 7163SOL    HW233521   1.277   1.838   7.044
 7164SOL     OW33522   3.096   1.587   7.367
 7164SOL    HW133523   3.158   1.539   7.430
 7164SOL    HW233524   3.059   1.668   7.411
 7165SOL     OW33525   7.489   6.309   7.561
 7165SOL    HW133526   7.429   6.288   7.484
 7165SOL    HW233527   7.553   6.380   7.534
 7166SOL     OW33528   0.086   3.005   7.316
 7166SOL    HW133529   0.095   3.050   7.405
 7166SOL    HW233530   0.031   2.923   7.325
 7167SOL     OW33531   3.880   3.012   7.158
 7167SOL    HW133532   3.848   2.964   7.076
 7167SOL    HW233533   3.885   3.110   7.139
 7168SOL     OW33534   7.195   0.617   6.813
 7168SOL    HW133535   7.132   0.540   6.829
 7168SOL    HW233536   7.200   0.673   6.895
 7169SOL     OW33537   0.957   4.477   7.147
 7169SOL    HW133538   0.989   4.512   7.058
 7169SOL    HW233539   0.865   4.512   7.165
 7170SOL     OW33540   0.334   3.541   6.784
 7170SOL    HW133541   0.388   3.590   6.853
 7170SOL    HW233542   0.247   3.513   6.824
 7171SOL     OW33543   7.076   7.929   7.339
 7171SOL    HW133544   7.077   7.954   7.436
 7171SOL    HW233545   7.003   7.864   7.323
 7172SOL     OW33546   8.628   3.360   6.764
 7172SOL    HW133547   8.646   3.347   6.862
 7172SOL    HW233548   8.663   3.282   6.714
 7173SOL     OW33549   5.844   8.357   7.273
 7173SOL    HW133550   5.762   8.301   7.288
 7173SOL    HW233551   5.837   8.400   7.183
 7174SOL     OW33552   3.749   7.009   7.367
 7174SOL    HW133553   3.733   7.072   7.291
 7174SOL    HW233554   3.807   7.053   7.435
 7175SOL     OW33555   1.662   4.536   7.423
 7175SOL    HW133556   1.700   4.537   7.330
 7175SOL    HW233557   1.563   4.542   7.418
 7176SOL     OW33558   7.532   2.460   6.918
 7176SOL    HW133559   7.458   2.435   6.856
 7176SOL    HW233560   7.561   2.553   6.899
 7177SOL     OW33561   3.104   1.443   7.123
 7177SOL    HW133562   3.081   1.520   7.183
 7177SOL    HW233563   3.075   1.463   7.030
 7178SOL     OW33564   3.374   4.923   6.828
 7178SOL    HW133565   3.348   4.994   6.761
 7178SOL    HW233566   3.437   4.859   6.785
 7179SOL     OW33567   3.791   4.746   7.510
 7179SOL    HW133568   3.748   4.736   7.420
 7179SOL    HW233569   3.805   4.842   7.530
 7180SOL     OW33570   2.203   0.938   7.227
 7180SOL    HW133571   2.105   0.942   7.247
 7180SOL    HW233572   2.224   0.853   7.180
 7181SOL     OW33573   6.760   2.205   7.170
 7181SOL    HW133574   6.702   2.152   7.232
 7181SOL    HW233575   6.829   2.146   7.130
 7182SOL     OW33576   6.463   7.311   7.134
 7182SOL    HW133577   6.388   7.341   7.194
 7182SOL    HW233578   6.465   7.368   7.053
 7183SOL     OW33579   0.081   6.573   7.263
 7183SOL    HW133580   0.081   6.479   7.227
 7183SOL    HW233581   0.119   6.634   7.195
 7184SOL     OW33582   5.734   2.604   6.810
 7184SOL    HW133583   5.801   2.536   6.780
 7184SOL    HW233584   5.758   2.635   6.901
 7185SOL     OW33585   7.102   2.413   7.078
 7185SOL    HW133586   7.051   2.488   7.122
 7185SOL    HW233587   7.154   2.449   7.002
 7186SOL     OW33588   4.763   1.700   7.062
 7186SOL    HW133589   4.750   1.720   6.965
 7186SOL    HW233590   4.838   1.636   7.073
 7187SOL     OW33591   5.176   6.092   7.337
 7187SOL    HW133592   5.227   6.174   7.310
 7187SOL    HW233593   5.156   6.037   7.257
 7188SOL     OW33594   6.201   1.479   6.885
 7188SOL    HW133595   6.101   1.478   6.896
 7188SOL    HW233596   6.232   1.572   6.871
 7189SOL     OW33597   4.520   2.380   6.827
 7189SOL    HW133598   4.582   2.310   6.790
 7189SOL    HW233599   4.466   2.418   6.753
 7190SOL     OW33600   8.475   6.734   7.244
 7190SOL    HW133601   8.407   6.765   7.311
 7190SOL    HW233602   8.444   6.650   7.203
 7191SOL     OW33603   0.067   4.589   6.861
 7191SOL    HW133604   0.127   4.575   6.941
 7191SOL    HW233605  -0.018   4.631   6.890
 7192SOL     OW33606   2.213   6.922   7.440
 7192SOL    HW133607   2.125   6.935   7.394
 7192SOL    HW233608   2.251   7.010   7.466
 7193SOL     OW33609   6.383   1.874   7.486
 7193SOL    HW133610   6.314   1.935   7.446
 7193SOL    HW233611   6.471   1.890   7.441
 7194SOL     OW33612   5.837   1.277   7.241
 7194SOL    HW133613   5.926   1.258   7.283
 7194SOL    HW233614   5.821   1.214   7.166
 7195SOL     OW33615   4.507   1.115   7.110
 7195SOL    HW133616   4.439   1.160   7.051
 7195SOL    HW233617   4.596   1.157   7.094
 7196SOL     OW33618   3.660   2.088   7.025
 7196SOL    HW133619   3.600   2.152   7.073
 7196SOL    HW233620   3.755   2.115   7.038
 7197SOL     OW33621   7.784   8.092   7.285
 7197SOL    HW133622   7.752   8.031   7.212
 7197SOL    HW233623   7.852   8.154   7.249
 7198SOL     OW33624   5.614   6.782   7.472
 7198SOL    HW133625   5.697   6.776   7.528
 7198SOL    HW233626   5.546   6.837   7.519
 7199SOL     OW33627   7.999   6.212   7.496
 7199SOL    HW133628   8.071   6.249   7.556
 7199SOL    HW233629   8.041   6.162   7.422
 7200SOL     OW33630   7.371   1.324   6.760
 7200SOL    HW133631   7.283   1.280   6.780
 7200SOL    HW233632   7.445   1.264   6.788
 7201SOL     OW33633   8.260   7.351   7.126
 7201SOL    HW133634   8.288   7.398   7.210
 7201SOL    HW233635   8.217   7.265   7.150
 7202SOL     OW33636   9.432   1.898   6.955
 7202SOL    HW133637   9.493   1.940   7.023
 7202SOL    HW233638   9.342   1.885   6.995
 7203SOL     OW33639   2.382   5.232   7.367
 7203SOL    HW133640   2.438   5.149   7.363
 7203SOL    HW233641   2.309   5.226   7.300
 7204SOL     OW33642   4.567   8.102   7.385
 7204SOL    HW133643   4.600   8.197   7.390
 7204SOL    HW233644   4.572   8.062   7.476
 7205SOL     OW33645   8.703   0.899   7.224
 7205SOL    HW133646   8.739   0.829   7.161
 7205SOL    HW233647   8.610   0.922   7.198
 7206SOL     OW33648   0.386   3.872   6.929
 7206SOL    HW133649   0.364   3.801   6.996
 7206SOL    HW233650   0.440   3.943   6.973
 7207SOL     OW33651   5.319   8.053   7.471
 7207SOL    HW133652   5.299   8.079   7.566
 7207SOL    HW233653   5.298   7.957   7.458
 7208SOL     OW33654   8.101   5.153   7.386
 7208SOL    HW133655   8.037   5.077   7.376
 7208SOL    HW233656   8.162   5.136   7.463
 7209SOL     OW33657   8.639   8.371   6.834
 7209SOL    HW133658   8.581   8.372   6.916
 7209SOL    HW233659   8.713   8.435   6.846
 7210SOL     OW33660   4.519   1.588   7.406
 7210SOL    HW133661   4.597   1.565   7.348
 7210SOL    HW233662   4.452   1.515   7.401
 7211SOL     OW33663   7.168   8.471   7.502
 7211SOL    HW133664   7.074   8.506   7.503
 7211SOL    HW233665   7.192   8.446   7.409
 7212SOL     OW33666   7.517   1.985   6.764
 7212SOL    HW133667   7.436   2.021   6.812
 7212SOL    HW233668   7.487   1.932   6.685
 7213SOL     OW33669   5.835   6.885   6.890
 7213SOL    HW133670   5.806   6.789   6.892
 7213SOL    HW233671   5.758   6.942   6.862
 7214SOL     OW33672   9.395   5.623   6.940
 7214SOL    HW133673   9.314   5.634   6.998
 7214SOL    HW233674   9.368   5.589   6.851
 7215SOL     OW33675   7.827   4.540   6.757
 7215SOL    HW133676   7.850   4.621   6.813
 7215SOL    HW233677   7.908   4.512   6.706
 7216SOL     OW33678   6.402   7.551   6.961
 7216SOL    HW133679   6.467   7.571   6.887
 7216SOL    HW233680   6.330   7.491   6.927
 7217SOL     OW33681   0.723   8.276   6.776
 7217SOL    HW133682   0.749   8.191   6.730
 7217SOL    HW233683   0.791   8.346   6.759
 7218SOL     OW33684   9.107   0.263   7.232
 7218SOL    HW133685   9.097   0.352   7.277
 7218SOL    HW233686   9.075   0.191   7.293
 7219SOL     OW33687   4.103   6.207   6.743
 7219SOL    HW133688   4.028   6.225   6.808
 7219SOL    HW233689   4.161   6.135   6.779
 7220SOL     OW33690   0.383   3.227   7.263
 7220SOL    HW133691   0.303   3.191   7.312
 7220SOL    HW233692   0.461   3.228   7.323
 7221SOL     OW33693   6.648   1.210   7.305
 7221SOL    HW133694   6.572   1.144   7.300
 7221SOL    HW233695   6.611   1.300   7.325
 7222SOL     OW33696   1.704   6.228   7.427
 7222SOL    HW133697   1.762   6.279   7.362
 7222SOL    HW233698   1.637   6.175   7.376
 7223SOL     OW33699   5.631   2.917   7.425
 7223SOL    HW133700   5.553   2.925   7.362
 7223SOL    HW233701   5.712   2.953   7.381
 7224SOL     OW33702   2.815   1.118   6.919
 7224SOL    HW133703   2.812   1.050   6.993
 7224SOL    HW233704   2.723   1.143   6.894
 7225SOL     OW33705   1.414   8.089   6.872
 7225SOL    HW133706   1.412   8.032   6.789
 7225SOL    HW233707   1.504   8.083   6.913
 7226SOL     OW33708   1.507   5.631   6.926
 7226SOL    HW133709   1.571   5.689   6.875
 7226SOL    HW233710   1.550   5.601   7.010
 7227SOL     OW33711   8.142   3.025   6.970
 7227SOL    HW133712   8.066   3.089   6.982
 7227SOL    HW233713   8.122   2.941   7.019
 7228SOL     OW33714   5.862   1.828   6.968
 7228SOL    HW133715   5.815   1.903   6.919
 7228SOL    HW233716   5.798   1.785   7.031
 7229SOL     OW33717   4.724   3.818   6.829
 7229SOL    HW133718   4.656   3.747   6.851
 7229SOL    HW233719   4.774   3.842   6.911
 7230SOL     OW33720   3.214   6.412   7.397
 7230SOL    HW133721   3.311   6.422   7.375
 7230SOL    HW233722   3.198   6.321   7.433
 7231SOL     OW33723   5.387   4.118   7.341
 7231SOL    HW133724   5.437   4.032   7.325
 7231SOL    HW233725   5.342   4.113   7.430
 7232SOL     OW33726   1.170   3.423   6.730
 7232SOL    HW133727   1.208   3.506   6.689
 7232SOL    HW233728   1.193   3.421   6.827
 7233SOL     OW33729   6.465   0.959   7.319
 7233SOL    HW133730   6.446   1.033   7.253
 7233SOL    HW233731   6.522   0.890   7.276
 7234SOL     OW33732   5.283   6.685   7.323
 7234SOL    HW133733   5.266   6.631   7.240
 7234SOL    HW233734   5.378   6.675   7.349
 7235SOL     OW33735   5.117   1.315   7.101
 7235SOL    HW133736   5.187   1.292   7.032
 7235SOL    HW233737   5.027   1.303   7.062
 7236SOL     OW33738   1.674   0.377   7.361
 7236SOL    HW133739   1.669   0.428   7.448
 7236SOL    HW233740   1.607   0.304   7.361
 7237SOL     OW33741   3.485   3.786   6.942
 7237SOL    HW133742   3.448   3.835   7.022
 7237SOL    HW233743   3.479   3.688   6.957
 7238SOL     OW33744   4.606   1.211   6.890
 7238SOL    HW133745   4.682   1.179   6.947
 7238SOL    HW233746   4.558   1.134   6.852
 7239SOL     OW33747   3.020   0.291   6.975
 7239SOL    HW133748   2.989   0.382   6.947
 7239SOL    HW233749   3.068   0.298   7.062
 7240SOL     OW33750   6.232   1.764   7.102
 7240SOL    HW133751   6.296   1.821   7.048
 7240SOL    HW233752   6.259   1.669   7.096
 7241SOL     OW33753   3.020   0.931   7.223
 7241SOL    HW133754   2.964   0.992   7.166
 7241SOL    HW233755   3.095   0.895   7.168
 7242SOL     OW33756   9.002   2.145   6.744
 7242SOL    HW133757   8.902   2.137   6.740
 7242SOL    HW233758   9.027   2.222   6.801
 7243SOL     OW33759   0.988   7.464   6.879
 7243SOL    HW133760   0.980   7.366   6.862
 7243SOL    HW233761   0.935   7.489   6.959
 7244SOL     OW33762   8.370   7.281   7.376
 7244SOL    HW133763   8.453   7.227   7.388
 7244SOL    HW233764   8.295   7.238   7.425
 7245SOL     OW33765   7.764   5.069   6.867
 7245SOL    HW133766   7.865   5.067   6.862
 7245SOL    HW233767   7.728   5.119   6.790
 7246SOL     OW33768   4.509   3.563   7.476
 7246SOL    HW133769   4.608   3.565   7.493
 7246SOL    HW233770   4.483   3.646   7.428
 7247SOL     OW33771   1.093   1.938   7.466
 7247SOL    HW133772   1.029   1.978   7.532
 7247SOL    HW233773   1.151   1.872   7.513
 7248SOL     OW33774   8.383   3.274   7.509
 7248SOL    HW133775   8.374   3.329   7.592
 7248SOL    HW233776   8.293   3.256   7.471
 7249SOL     OW33777   1.195   7.740   6.906
 7249SOL    HW133778   1.231   7.746   6.812
 7249SOL    HW233779   1.104   7.699   6.903
 7250SOL     OW33780   6.315   7.569   7.137
 7250SOL    HW133781   6.411   7.542   7.135
 7250SOL    HW233782   6.264   7.505   7.194
 7251SOL     OW33783   2.314   4.718   7.338
 7251SOL    HW133784   2.245   4.714   7.265
 7251SOL    HW233785   2.397   4.760   7.302
 7252SOL     OW33786   0.949   0.713   6.907
 7252SOL    HW133787   0.885   0.652   6.858
 7252SOL    HW233788   1.004   0.659   6.969
 7253SOL     OW33789   5.288   8.369   7.427
 7253SOL    HW133790   5.253   8.432   7.357
 7253SOL    HW233791   5.359   8.312   7.387
 7254SOL     OW33792   1.789   0.651   7.079
 7254SOL    HW133793   1.737   0.713   7.139
 7254SOL    HW233794   1.878   0.690   7.060
 7255SOL     OW33795   4.734   0.893   7.418
 7255SOL    HW133796   4.686   0.968   7.371
 7255SOL    HW233797   4.824   0.882   7.379
 7256SOL     OW33798   8.013   2.646   7.365
 7256SOL    HW133799   7.919   2.681   7.359
 7256SOL    HW233800   8.073   2.717   7.401
 7257SOL     OW33801   2.933   1.464   7.534
 7257SOL    HW133802   2.857   1.399   7.537
 7257SOL    HW233803   3.004   1.429   7.474
 7258SOL     OW33804   0.578   6.516   6.816
 7258SOL    HW133805   0.656   6.472   6.770
 7258SOL    HW233806   0.554   6.465   6.897
 7259SOL     OW33807   6.094   5.221   7.300
 7259SOL    HW133808   6.158   5.241   7.376
 7259SOL    HW233809   6.001   5.224   7.335
 7260SOL     OW33810   0.174   6.211   6.959
 7260SOL    HW133811   0.166   6.169   7.050
 7260SOL    HW233812   0.084   6.219   6.918
 7261SOL     OW33813   1.442   4.049   7.231
 7261SOL    HW133814   1.353   4.054   7.184
 7261SOL    HW233815   1.514   4.032   7.164
 7262SOL     OW33816   5.693   1.388   7.362
 7262SOL    HW133817   5.761   1.451   7.324
 7262SOL    HW233818   5.662   1.326   7.290
 7263SOL     OW33819   6.825   3.168   7.316
 7263SOL    HW133820   6.784   3.158   7.407
 7263SOL    HW233821   6.899   3.102   7.305
 7264SOL     OW33822   7.629   4.577   6.822
 7264SOL    HW133823   7.656   4.603   6.914
 7264SOL    HW233824   7.546   4.522   6.826
 7265SOL     OW33825   4.305   3.281   7.016
 7265SOL    HW133826   4.265   3.221   7.086
 7265SOL    HW233827   4.312   3.373   7.051
 7266SOL     OW33828   7.560   1.072   7.470
 7266SOL    HW133829   7.555   1.161   7.424
 7266SOL    HW233830   7.577   1.001   7.403
 7267SOL     OW33831   7.940   1.844   7.111
 7267SOL    HW133832   7.967   1.803   7.199
 7267SOL    HW233833   7.943   1.943   7.118
 7268SOL     OW33834   2.204   1.277   6.874
 7268SOL    HW133835   2.241   1.358   6.920
 7268SOL    HW233836   2.269   1.245   6.806
 7269SOL     OW33837   0.966   8.133   7.413
 7269SOL    HW133838   0.912   8.084   7.482
 7269SOL    HW233839   1.053   8.162   7.453
 7270SOL     OW33840   4.458   4.513   7.093
 7270SOL    HW133841   4.424   4.523   6.999
 7270SOL    HW233842   4.389   4.546   7.157
 7271SOL     OW33843   7.745   8.446   7.372
 7271SOL    HW133844   7.772   8.403   7.285
 7271SOL    HW233845   7.660   8.406   7.403
 7272SOL     OW33846   6.485   3.660   7.528
 7272SOL    HW133847   6.467   3.569   7.490
 7272SOL    HW233848   6.438   3.728   7.473
 7273SOL     OW33849   3.212   3.438   6.902
 7273SOL    HW133850   3.173   3.455   6.993
 7273SOL    HW233851   3.290   3.377   6.911
 7274SOL     OW33852   8.417   1.999   7.506
 7274SOL    HW133853   8.464   2.018   7.593
 7274SOL    HW233854   8.434   2.072   7.442
 7275SOL     OW33855   3.606   2.328   7.429
 7275SOL    HW133856   3.635   2.280   7.345
 7275SOL    HW233857   3.590   2.261   7.501
 7276SOL     OW33858   6.156   7.735   7.137
 7276SOL    HW133859   6.128   7.719   7.232
 7276SOL    HW233860   6.253   7.758   7.134
 7277SOL     OW33861   2.326   5.788   6.754
 7277SOL    HW133862   2.393   5.825   6.819
 7277SOL    HW233863   2.237   5.783   6.799
 7278SOL     OW33864   6.893   6.422   7.091
 7278SOL    HW133865   6.944   6.453   7.172
 7278SOL    HW233866   6.838   6.497   7.056
 7279SOL     OW33867   5.759   4.803   6.751
 7279SOL    HW133868   5.723   4.715   6.783
 7279SOL    HW233869   5.836   4.830   6.807
 7280SOL     OW33870   1.107   2.914   6.800
 7280SOL    HW133871   1.121   2.860   6.883
 7280SOL    HW233872   1.122   3.010   6.820
 7281SOL     OW33873   5.279   5.348   7.101
 7281SOL    HW133874   5.203   5.343   7.167
 7281SOL    HW233875   5.304   5.443   7.087
 7282SOL     OW33876   4.838   7.696   7.042
 7282SOL    HW133877   4.882   7.769   7.096
 7282SOL    HW233878   4.741   7.715   7.034
 7283SOL     OW33879   4.219   5.658   7.140
 7283SOL    HW133880   4.182   5.569   7.114
 7283SOL    HW233881   4.299   5.678   7.086
 7284SOL     OW33882   0.739   0.262   7.123
 7284SOL    HW133883   0.671   0.194   7.095
 7284SOL    HW233884   0.828   0.219   7.133
 7285SOL     OW33885   5.037   3.959   7.031
 7285SOL    HW133886   4.974   3.959   6.953
 7285SOL    HW233887   5.128   3.984   6.999
 7286SOL     OW33888   2.070   5.727   7.115
 7286SOL    HW133889   2.003   5.802   7.108
 7286SOL    HW233890   2.055   5.662   7.042
 7287SOL     OW33891   3.183   3.552   7.392
 7287SOL    HW133892   3.165   3.456   7.366
 7287SOL    HW233893   3.207   3.604   7.311
 7288SOL     OW33894   7.191   7.687   7.381
 7288SOL    HW133895   7.130   7.616   7.416
 7288SOL    HW233896   7.223   7.744   7.456
 7289SOL     OW33897   2.330   3.207   7.218
 7289SOL    HW133898   2.328   3.241   7.312
 7289SOL    HW233899   2.239   3.176   7.192
 7290SOL     OW33900   9.198   8.151   7.066
 7290SOL    HW133901   9.164   8.063   7.032
 7290SOL    HW233902   9.123   8.216   7.071
 7291SOL     OW33903   1.534   2.596   6.811
 7291SOL    HW133904   1.437   2.611   6.790
 7291SOL    HW233905   1.589   2.616   6.731
 7292SOL     OW33906   0.303   8.035   7.461
 7292SOL    HW133907   0.276   8.080   7.375
 7292SOL    HW233908   0.224   8.028   7.521
 7293SOL     OW33909   7.507   5.382   7.352
 7293SOL    HW133910   7.452   5.374   7.436
 7293SOL    HW233911   7.562   5.300   7.340
 7294SOL     OW33912   3.244   2.586   6.872
 7294SOL    HW133913   3.195   2.672   6.856
 7294SOL    HW233914   3.305   2.568   6.795
 7295SOL     OW33915   8.100   4.918   6.757
 7295SOL    HW133916   8.040   4.935   6.678
 7295SOL    HW233917   8.047   4.883   6.833
 7296SOL     OW33918   0.369   1.960   6.881
 7296SOL    HW133919   0.394   1.912   6.966
 7296SOL    HW233920   0.390   1.902   6.803
 7297SOL     OW33921   6.350   1.862   6.909
 7297SOL    HW133922   6.250   1.869   6.895
 7297SOL    HW233923   6.383   1.944   6.954
 7298SOL     OW33924   6.128   8.431   6.951
 7298SOL    HW133925   6.114   8.367   7.028
 7298SOL    HW233926   6.202   8.493   6.974
 7299SOL     OW33927   4.788   0.709   6.794
 7299SOL    HW133928   4.856   0.720   6.867
 7299SOL    HW233929   4.809   0.774   6.721
 7300SOL     OW33930   7.606   0.343   7.285
 7300SOL    HW133931   7.687   0.332   7.226
 7300SOL    HW233932   7.533   0.386   7.234
 7301SOL     OW33933   2.116   7.176   6.793
 7301SOL    HW133934   2.053   7.187   6.716
 7301SOL    HW233935   2.074   7.118   6.862
 7302SOL     OW33936   7.963   4.349   6.948
 7302SOL    HW133937   7.976   4.446   6.928
 7302SOL    HW233938   7.866   4.330   6.959
 7303SOL     OW33939   8.323   0.236   6.828
 7303SOL    HW133940   8.376   0.311   6.788
 7303SOL    HW233941   8.259   0.273   6.895
 7304SOL     OW33942   0.484   1.151   7.539
 7304SOL    HW133943   0.452   1.169   7.445
 7304SOL    HW233944   0.414   1.181   7.603
 7305SOL     OW33945   4.424   5.528   7.093
 7305SOL    HW133946   4.518   5.491   7.092
 7305SOL    HW233947   4.406   5.573   7.006
 7306SOL     OW33948   2.863   0.858   6.907
 7306SOL    HW133949   2.818   0.888   6.822
 7306SOL    HW233950   2.857   0.759   6.913
 7307SOL     OW33951   1.463   6.961   7.223
 7307SOL    HW133952   1.382   6.999   7.268
 7307SOL    HW233953   1.461   6.983   7.126
 7308SOL     OW33954   8.258   2.427   7.020
 7308SOL    HW133955   8.333   2.481   6.980
 7308SOL    HW233956   8.220   2.477   7.097
 7309SOL     OW33957   5.619   5.422   7.172
 7309SOL    HW133958   5.626   5.522   7.165
 7309SOL    HW233959   5.575   5.398   7.257
 7310SOL     OW33960   0.792   7.982   6.844
 7310SOL    HW133961   0.755   7.902   6.795
 7310SOL    HW233962   0.764   8.065   6.797
 7311SOL     OW33963   0.795   1.024   7.338
 7311SOL    HW133964   0.827   0.964   7.412
 7311SOL    HW233965   0.873   1.061   7.288
 7312SOL     OW33966   8.448   4.064   7.060
 7312SOL    HW133967   8.357   4.087   7.096
 7312SOL    HW233968   8.511   4.053   7.136
 7313SOL     OW33969   6.090   0.141   7.110
 7313SOL    HW133970   6.183   0.152   7.147
 7313SOL    HW233971   6.028   0.117   7.183
 7314SOL     OW33972   7.342   2.826   7.046
 7314SOL    HW133973   7.370   2.811   6.951
 7314SOL    HW233974   7.245   2.805   7.055
 7315SOL     OW33975   3.608   2.703   7.033
 7315SOL    HW133976   3.678   2.694   7.105
 7315SOL    HW233977   3.589   2.799   7.018
 7316SOL     OW33978   5.377   3.869   7.332
 7316SOL    HW133979   5.395   3.799   7.262
 7316SOL    HW233980   5.316   3.938   7.293
 7317SOL     OW33981   8.912   3.472   7.444
 7317SOL    HW133982   8.834   3.523   7.406
 7317SOL    HW233983   8.885   3.378   7.460
 7318SOL     OW33984   0.539   0.409   7.517
 7318SOL    HW133985   0.504   0.351   7.442
 7318SOL    HW233986   0.552   0.502   7.483
 7319SOL     OW33987   7.933   7.908   7.068
 7319SOL    HW133988   7.912   7.974   7.141
 7319SOL    HW233989   7.950   7.819   7.107
 7320SOL     OW33990   7.318   0.497   7.406
 7320SOL    HW133991   7.254   0.574   7.408
 7320SOL    HW233992   7.402   0.525   7.361
 7321SOL     OW33993   3.180   0.526   6.988
 7321SOL    HW133994   3.158   0.571   7.075
 7321SOL    HW233995   3.220   0.592   6.926
 7322SOL     OW33996   6.133   0.343   7.125
 7322SOL    HW133997   6.156   0.434   7.161
 7322SOL    HW233998   6.115   0.281   7.201
 7323SOL     OW33999   2.960   5.239   7.457
 7323SOL    HW134000   2.893   5.282   7.395
 7323SOL    HW234001   2.952   5.279   7.547
 7324SOL     OW34002   8.478   4.799   6.792
 7324SOL    HW134003   8.511   4.821   6.700
 7324SOL    HW234004   8.379   4.792   6.791
 7325SOL     OW34005   0.807   1.968   6.997
 7325SOL    HW134006   0.778   1.885   6.947
 7325SOL    HW234007   0.816   2.043   6.934
 7326SOL     OW34008   2.343   6.253   6.785
 7326SOL    HW134009   2.312   6.275   6.692
 7326SOL    HW234010   2.299   6.315   6.850
 7327SOL     OW34011   0.614   6.968   7.422
 7327SOL    HW134012   0.694   6.913   7.448
 7327SOL    HW234013   0.640   7.063   7.414
 7328SOL     OW34014   0.380   6.284   7.207
 7328SOL    HW134015   0.316   6.359   7.229
 7328SOL    HW234016   0.413   6.295   7.114
 7329SOL     OW34017   3.520   8.241   7.416
 7329SOL    HW134018   3.531   8.315   7.350
 7329SOL    HW234019   3.482   8.277   7.500
 7330SOL     OW34020   1.361   3.679   6.993
 7330SOL    HW134021   1.340   3.734   7.075
 7330SOL    HW234022   1.302   3.598   6.992
 7331SOL     OW34023   5.401   1.985   7.265
 7331SOL    HW134024   5.376   2.013   7.171
 7331SOL    HW234025   5.334   2.021   7.329
 7332SOL     OW34026   1.118   7.463   7.095
 7332SOL    HW134027   1.053   7.445   7.021
 7332SOL    HW234028   1.186   7.529   7.064
 7333SOL     OW34029   2.060   1.435   7.155
 7333SOL    HW134030   2.046   1.393   7.065
 7333SOL    HW234031   2.031   1.530   7.152
 7334SOL     OW34032   2.648   3.148   6.908
 7334SOL    HW134033   2.710   3.100   6.845
 7334SOL    HW234034   2.556   3.146   6.871
 7335SOL     OW34035   1.164   0.364   6.981
 7335SOL    HW134036   1.103   0.416   6.921
 7335SOL    HW234037   1.245   0.336   6.930
 7336SOL     OW34038   4.807   8.131   7.198
 7336SOL    HW134039   4.831   8.228   7.185
 7336SOL    HW234040   4.805   8.085   7.110
 7337SOL     OW34041   0.811   4.097   7.203
 7337SOL    HW134042   0.889   4.068   7.147
 7337SOL    HW234043   0.844   4.138   7.288
 7338SOL     OW34044   3.804   4.259   6.897
 7338SOL    HW134045   3.819   4.226   6.991
 7338SOL    HW234046   3.882   4.233   6.841
 7339SOL     OW34047   1.087   0.526   7.486
 7339SOL    HW134048   0.992   0.494   7.485
 7339SOL    HW234049   1.147   0.452   7.514
 7340SOL     OW34050   1.228   4.129   7.317
 7340SOL    HW134051   1.272   4.158   7.402
 7340SOL    HW234052   1.138   4.172   7.310
 7341SOL     OW34053   8.071   6.455   7.470
 7341SOL    HW134054   8.000   6.388   7.494
 7341SOL    HW234055   8.153   6.438   7.523
 7342SOL     OW34056   0.637   2.564   6.736
 7342SOL    HW134057   0.686   2.479   6.713
 7342SOL    HW234058   0.683   2.608   6.812
 7343SOL     OW34059   4.326   5.207   7.230
 7343SOL    HW134060   4.278   5.205   7.142
 7343SOL    HW234061   4.287   5.140   7.291
 7344SOL     OW34062   3.140   7.134   7.421
 7344SOL    HW134063   3.045   7.146   7.452
 7344SOL    HW234064   3.186   7.222   7.419
 7345SOL     OW34065   3.018   5.022   7.145
 7345SOL    HW134066   3.052   5.029   7.239
 7345SOL    HW234067   3.018   4.927   7.116
 7346SOL     OW34068   6.103   4.696   6.765
 7346SOL    HW134069   6.174   4.699   6.836
 7346SOL    HW234070   6.070   4.788   6.747
 7347SOL     OW34071   5.078   6.826   7.252
 7347SOL    HW134072   5.009   6.857   7.186
 7347SOL    HW234073   5.164   6.871   7.234
 7348SOL     OW34074   2.735   6.061   7.447
 7348SOL    HW134075   2.820   6.009   7.433
 7348SOL    HW234076   2.672   6.044   7.372
 7349SOL     OW34077   7.487   2.058   7.191
 7349SOL    HW134078   7.509   2.030   7.098
 7349SOL    HW234079   7.402   2.015   7.220
 7350SOL     OW34080   7.593   4.489   7.455
 7350SOL    HW134081   7.626   4.429   7.381
 7350SOL    HW234082   7.521   4.548   7.419
 7351SOL     OW34083   6.295   4.380   7.451
 7351SOL    HW134084   6.222   4.373   7.382
 7351SOL    HW234085   6.373   4.428   7.412
 7352SOL     OW34086   1.174   5.149   6.910
 7352SOL    HW134087   1.099   5.104   6.959
 7352SOL    HW234088   1.253   5.155   6.970
 7353SOL     OW34089   6.504   4.833   6.839
 7353SOL    HW134090   6.480   4.753   6.783
 7353SOL    HW234091   6.528   4.805   6.931
 7354SOL     OW34092   6.475   4.435   7.135
 7354SOL    HW134093   6.468   4.377   7.216
 7354SOL    HW234094   6.567   4.470   7.126
 7355SOL     OW34095   2.215   4.239   7.329
 7355SOL    HW134096   2.276   4.314   7.355
 7355SOL    HW234097   2.260   4.181   7.262
 7356SOL     OW34098   8.599   2.620   7.385
 7356SOL    HW134099   8.543   2.684   7.437
 7356SOL    HW234100   8.635   2.550   7.446
 7357SOL     OW34101   1.528   7.892   7.174
 7357SOL    HW134102   1.549   7.890   7.076
 7357SOL    HW234103   1.448   7.949   7.190
 7358SOL     OW34104   4.238   5.720   7.330
 7358SOL    HW134105   4.217   5.623   7.320
 7358SOL    HW234106   4.182   5.772   7.265
 7359SOL     OW34107   9.479   8.275   7.260
 7359SOL    HW134108   9.529   8.283   7.347
 7359SOL    HW234109   9.429   8.359   7.243
 7360SOL     OW34110   7.830   2.892   7.125
 7360SOL    HW134111   7.741   2.897   7.171
 7360SOL    HW234112   7.817   2.856   7.033
 7361SOL     OW34113   3.632   4.134   6.898
 7361SOL    HW134114   3.607   4.070   6.825
 7361SOL    HW234115   3.549   4.165   6.944
 7362SOL     OW34116   3.747   8.481   6.827
 7362SOL    HW134117   3.753   8.562   6.885
 7362SOL    HW234118   3.728   8.401   6.883
 7363SOL     OW34119   4.187   2.128   6.965
 7363SOL    HW134120   4.148   2.179   6.888
 7363SOL    HW234121   4.264   2.074   6.933
 7364SOL     OW34122   5.103   6.689   7.059
 7364SOL    HW134123   5.188   6.669   7.108
 7364SOL    HW234124   5.117   6.767   6.999
 7365SOL     OW34125   6.983   4.203   7.257
 7365SOL    HW134126   7.021   4.172   7.344
 7365SOL    HW234127   6.890   4.234   7.271
 7366SOL     OW34128   8.957   2.966   7.502
 7366SOL    HW134129   8.875   2.944   7.448
 7366SOL    HW234130   9.011   3.035   7.453
 7367SOL     OW34131   1.050   4.634   7.313
 7367SOL    HW134132   1.129   4.684   7.276
 7367SOL    HW234133   0.966   4.683   7.290
 7368SOL     OW34134   3.170   8.076   7.160
 7368SOL    HW134135   3.133   8.019   7.234
 7368SOL    HW234136   3.241   8.135   7.197
 7369SOL     OW34137   0.692   1.216   7.354
 7369SOL    HW134138   0.724   1.299   7.402
 7369SOL    HW234139   0.639   1.160   7.418
 7370SOL     OW34140   3.740   4.287   7.308
 7370SOL    HW134141   3.821   4.229   7.321
 7370SOL    HW234142   3.762   4.361   7.246
 7371SOL     OW34143   0.329   0.680   7.090
 7371SOL    HW134144   0.255   0.748   7.081
 7371SOL    HW234145   0.416   0.726   7.082
 7372SOL     OW34146   2.987   5.640   6.994
 7372SOL    HW134147   2.995   5.555   7.047
 7372SOL    HW234148   2.968   5.715   7.055
 7373SOL     OW34149   9.019   3.327   7.223
 7373SOL    HW134150   9.020   3.428   7.222
 7373SOL    HW234151   8.939   3.294   7.173
 7374SOL     OW34152   8.087   1.009   6.900
 7374SOL    HW134153   7.996   1.052   6.908
 7374SOL    HW234154   8.116   1.012   6.804
 7375SOL     OW34155   6.191   7.742   7.452
 7375SOL    HW134156   6.276   7.793   7.437
 7375SOL    HW234157   6.127   7.799   7.503
 7376SOL     OW34158   2.926   4.716   7.466
 7376SOL    HW134159   2.879   4.805   7.469
 7376SOL    HW234160   2.980   4.710   7.383
 7377SOL     OW34161   8.220   2.978   7.141
 7377SOL    HW134162   8.197   2.880   7.140
 7377SOL    HW234163   8.313   2.991   7.110
 7378SOL     OW34164   4.922   6.273   7.492
 7378SOL    HW134165   4.828   6.283   7.460
 7378SOL    HW234166   4.929   6.302   7.587
 7379SOL     OW34167   1.889   4.821   6.850
 7379SOL    HW134168   1.940   4.903   6.821
 7379SOL    HW234169   1.793   4.831   6.827
 7380SOL     OW34170   2.502   2.139   6.920
 7380SOL    HW134171   2.571   2.099   6.981
 7380SOL    HW234172   2.453   2.211   6.967
 7381SOL     OW34173   2.715   0.957   7.160
 7381SOL    HW134174   2.703   0.875   7.102
 7381SOL    HW234175   2.683   1.037   7.111
 7382SOL     OW34176   8.523   2.005   7.072
 7382SOL    HW134177   8.459   1.955   7.131
 7382SOL    HW234178   8.498   2.101   7.069
 7383SOL     OW34179   9.231   7.814   7.109
 7383SOL    HW134180   9.177   7.813   7.194
 7383SOL    HW234181   9.327   7.817   7.131
 7384SOL     OW34182   7.376   6.611   7.323
 7384SOL    HW134183   7.429   6.545   7.377
 7384SOL    HW234184   7.439   6.672   7.275
 7385SOL     OW34185   9.413   6.033   7.259
 7385SOL    HW134186   9.482   6.074   7.198
 7385SOL    HW234187   9.400   5.937   7.233
 7386SOL     OW34188   7.696   3.242   7.465
 7386SOL    HW134189   7.616   3.259   7.406
 7386SOL    HW234190   7.778   3.238   7.409
 7387SOL     OW34191   8.661   1.951   6.961
 7387SOL    HW134192   8.639   1.868   6.909
 7387SOL    HW234193   8.748   1.939   7.007
 7388SOL     OW34194   1.766   1.171   6.721
 7388SOL    HW134195   1.754   1.076   6.693
 7388SOL    HW234196   1.702   1.191   6.795
 7389SOL     OW34197   7.045   0.913   7.284
 7389SOL    HW134198   6.991   0.895   7.201
 7389SOL    HW234199   7.142   0.912   7.261
 7390SOL     OW34200   0.631   6.147   7.077
 7390SOL    HW134201   0.687   6.228   7.058
 7390SOL    HW234202   0.540   6.160   7.041
 7391SOL     OW34203   7.058   3.706   7.539
 7391SOL    HW134204   7.091   3.631   7.598
 7391SOL    HW234205   7.060   3.676   7.444
 7392SOL     OW34206   2.179   0.306   7.427
 7392SOL    HW134207   2.148   0.241   7.497
 7392SOL    HW234208   2.233   0.377   7.470
 7393SOL     OW34209   2.053   5.568   7.224
 7393SOL    HW134210   2.098   5.588   7.312
 7393SOL    HW234211   2.122   5.554   7.154
 7394SOL     OW34212   0.163   1.278   7.358
 7394SOL    HW134213   0.067   1.303   7.342
 7394SOL    HW234214   0.189   1.205   7.296
 7395SOL     OW34215   1.596   1.930   6.823
 7395SOL    HW134216   1.656   2.006   6.849
 7395SOL    HW234217   1.631   1.845   6.861
 7396SOL     OW34218   8.499   1.173   7.183
 7396SOL    HW134219   8.474   1.269   7.200
 7396SOL    HW234220   8.416   1.118   7.178
 7397SOL     OW34221   3.809   2.569   7.478
 7397SOL    HW134222   3.863   2.628   7.417
 7397SOL    HW234223   3.742   2.519   7.424
 7398SOL     OW34224   8.918   3.063   6.930
 7398SOL    HW134225   8.911   3.034   7.026
 7398SOL    HW234226   8.839   3.031   6.880
 7399SOL     OW34227   4.735   7.061   7.467
 7399SOL    HW134228   4.790   7.140   7.497
 7399SOL    HW234229   4.773   6.978   7.507
 7400SOL     OW34230   3.661   0.745   7.074
 7400SOL    HW134231   3.700   0.798   7.150
 7400SOL    HW234232   3.574   0.705   7.102
 7401SOL     OW34233   7.394   2.962   6.905
 7401SOL    HW134234   7.388   3.051   6.860
 7401SOL    HW234235   7.482   2.920   6.886
 7402SOL     OW34236   5.556   5.891   7.319
 7402SOL    HW134237   5.496   5.946   7.378
 7402SOL    HW234238   5.649   5.926   7.325
 7403SOL     OW34239   2.810   6.190   7.051
 7403SOL    HW134240   2.898   6.174   7.004
 7403SOL    HW234241   2.798   6.288   7.065
 7404SOL     OW34242   4.353   1.743   6.796
 7404SOL    HW134243   4.314   1.651   6.788
 7404SOL    HW234244   4.403   1.766   6.713
 7405SOL     OW34245   1.817   7.820   7.165
 7405SOL    HW134246   1.824   7.720   7.168
 7405SOL    HW234247   1.908   7.860   7.162
 7406SOL     OW34248   0.512   5.711   6.936
 7406SOL    HW134249   0.557   5.621   6.933
 7406SOL    HW234250   0.475   5.726   7.027
 7407SOL     OW34251   7.722   6.425   7.053
 7407SOL    HW134252   7.750   6.412   7.148
 7407SOL    HW234253   7.691   6.339   7.015
 7408SOL     OW34254   0.584   5.917   6.961
 7408SOL    HW134255   0.652   5.876   7.023
 7408SOL    HW234256   0.552   6.003   7.000
 7409SOL     OW34257   0.425   5.828   6.783
 7409SOL    HW134258   0.427   5.728   6.773
 7409SOL    HW234259   0.391   5.852   6.874
 7410SOL     OW34260   6.695   7.400   7.502
 7410SOL    HW134261   6.751   7.480   7.526
 7410SOL    HW234262   6.602   7.415   7.534
 7411SOL     OW34263   2.601   7.866   7.480
 7411SOL    HW134264   2.644   7.948   7.441
 7411SOL    HW234265   2.637   7.785   7.433
 7412SOL     OW34266   6.635   1.794   6.998
 7412SOL    HW134267   6.714   1.765   6.943
 7412SOL    HW234268   6.551   1.759   6.956
 7413SOL     OW34269   6.265   4.741   7.424
 7413SOL    HW134270   6.317   4.776   7.345
 7413SOL    HW234271   6.213   4.815   7.464
 7414SOL     OW34272   3.902   8.402   7.331
 7414SOL    HW134273   3.830   8.334   7.312
 7414SOL    HW234274   3.871   8.492   7.302
 7415SOL     OW34275   8.968   1.107   7.221
 7415SOL    HW134276   8.982   1.025   7.165
 7415SOL    HW234277   8.870   1.121   7.235
 7416SOL     OW34278   0.778   7.354   7.201
 7416SOL    HW134279   0.760   7.288   7.128
 7416SOL    HW234280   0.767   7.446   7.167
 7417SOL     OW34281   4.671   7.876   7.133
 7417SOL    HW134282   4.724   7.858   7.050
 7417SOL    HW234283   4.576   7.891   7.108
 7418SOL     OW34284   3.080   1.165   6.988
 7418SOL    HW134285   3.066   1.254   6.943
 7418SOL    HW234286   3.100   1.096   6.919
 7419SOL     OW34287   6.813   4.426   7.486
 7419SOL    HW134288   6.858   4.513   7.508
 7419SOL    HW234289   6.826   4.407   7.389
 7420SOL     OW34290   8.670   0.740   6.923
 7420SOL    HW134291   8.669   0.804   6.846
 7420SOL    HW234292   8.739   0.768   6.989
 7421SOL     OW34293   8.442   8.442   6.937
 7421SOL    HW134294   8.358   8.418   6.888
 7421SOL    HW234295   8.496   8.505   6.882
 7422SOL     OW34296   1.247   2.886   7.353
 7422SOL    HW134297   1.339   2.915   7.380
 7422SOL    HW234298   1.254   2.813   7.285
 7423SOL     OW34299   5.138   0.761   7.028
 7423SOL    HW134300   5.224   0.796   7.066
 7423SOL    HW234301   5.066   0.768   7.097
 7424SOL     OW34302   9.046   2.624   7.362
 7424SOL    HW134303   8.985   2.680   7.418
 7424SOL    HW234304   9.074   2.544   7.413
 7425SOL     OW34305   2.885   5.603   7.405
 7425SOL    HW134306   2.915   5.507   7.404
 7425SOL    HW234307   2.934   5.653   7.335
 7426SOL     OW34308   1.751   1.531   6.797
 7426SOL    HW134309   1.758   1.580   6.710
 7426SOL    HW234310   1.839   1.492   6.820
 7427SOL     OW34311   3.202   3.366   7.209
 7427SOL    HW134312   3.109   3.401   7.194
 7427SOL    HW234313   3.241   3.337   7.122
 7428SOL     OW34314   3.511   0.535   7.403
 7428SOL    HW134315   3.483   0.448   7.362
 7428SOL    HW234316   3.438   0.601   7.391
 7429SOL     OW34317   4.080   3.560   7.155
 7429SOL    HW134318   4.165   3.533   7.108
 7429SOL    HW234319   4.039   3.480   7.198
 7430SOL     OW34320   3.084   4.977   6.949
 7430SOL    HW134321   3.000   5.029   6.933
 7430SOL    HW234322   3.131   4.961   6.863
 7431SOL     OW34323   6.559   7.453   7.241
 7431SOL    HW134324   6.502   7.431   7.321
 7431SOL    HW234325   6.641   7.501   7.272
 7432SOL     OW34326   0.720   5.155   7.148
 7432SOL    HW134327   0.795   5.089   7.140
 7432SOL    HW234328   0.659   5.144   7.070
 7433SOL     OW34329   8.116   5.189   6.982
 7433SOL    HW134330   8.039   5.177   6.919
 7433SOL    HW234331   8.173   5.264   6.951
 7434SOL     OW34332   4.145   0.720   7.399
 7434SOL    HW134333   4.053   0.683   7.390
 7434SOL    HW234334   4.193   0.711   7.312
 7435SOL     OW34335   5.253   0.261   7.155
 7435SOL    HW134336   5.235   0.301   7.065
 7435SOL    HW234337   5.350   0.242   7.164
 7436SOL     OW34338   8.773   2.489   7.271
 7436SOL    HW134339   8.792   2.496   7.173
 7436SOL    HW234340   8.858   2.472   7.320
 7437SOL     OW34341   9.263   6.768   7.354
 7437SOL    HW134342   9.314   6.809   7.429
 7437SOL    HW234343   9.180   6.725   7.389
 7438SOL     OW34344   4.336   7.655   6.977
 7438SOL    HW134345   4.301   7.749   6.964
 7438SOL    HW234346   4.346   7.638   7.075
 7439SOL     OW34347   4.458   6.012   7.495
 7439SOL    HW134348   4.473   5.914   7.479
 7439SOL    HW234349   4.364   6.034   7.475
 7440SOL     OW34350   1.182   3.483   7.179
 7440SOL    HW134351   1.122   3.413   7.140
 7440SOL    HW234352   1.128   3.544   7.237
 7441SOL     OW34353   6.361   6.797   7.283
 7441SOL    HW134354   6.409   6.866   7.339
 7441SOL    HW234355   6.382   6.706   7.317
 7442SOL     OW34356   4.485   8.251   6.977
 7442SOL    HW134357   4.405   8.269   7.036
 7442SOL    HW234358   4.484   8.315   6.901
 7443SOL     OW34359   3.204   4.006   7.263
 7443SOL    HW134360   3.277   4.072   7.241
 7443SOL    HW234361   3.189   3.947   7.185
 7444SOL     OW34362   6.890   2.671   7.198
 7444SOL    HW134363   6.805   2.617   7.190
 7444SOL    HW234364   6.923   2.694   7.108
 7445SOL     OW34365   1.146   1.421   7.439
 7445SOL    HW134366   1.104   1.350   7.498
 7445SOL    HW234367   1.217   1.468   7.490
 7446SOL     OW34368   9.386   7.261   6.952
 7446SOL    HW134369   9.465   7.237   7.008
 7446SOL    HW234370   9.360   7.356   6.969
 7447SOL     OW34371   1.135   6.905   7.289
 7447SOL    HW134372   1.131   6.999   7.254
 7447SOL    HW234373   1.184   6.848   7.224
 7448SOL     OW34374   9.423   0.561   6.812
 7448SOL    HW134375   9.364   0.633   6.851
 7448SOL    HW234376   9.407   0.555   6.714
 7449SOL     OW34377   8.899   6.966   7.090
 7449SOL    HW134378   8.816   6.936   7.042
 7449SOL    HW234379   8.979   6.943   7.035
 7450SOL     OW34380   1.889   2.323   6.767
 7450SOL    HW134381   1.800   2.287   6.796
 7450SOL    HW234382   1.917   2.278   6.683
 7451SOL     OW34383   3.334   4.626   7.029
 7451SOL    HW134384   3.328   4.602   7.126
 7451SOL    HW234385   3.391   4.707   7.018
 7452SOL     OW34386   1.468   2.417   7.312
 7452SOL    HW134387   1.434   2.481   7.382
 7452SOL    HW234388   1.469   2.325   7.350
 7453SOL     OW34389   4.343   6.470   7.320
 7453SOL    HW134390   4.270   6.467   7.389
 7453SOL    HW234391   4.426   6.432   7.359
 7454SOL     OW34392   7.745   7.378   6.791
 7454SOL    HW134393   7.809   7.327   6.849
 7454SOL    HW234394   7.706   7.453   6.843
 7455SOL     OW34395   1.503   0.083   7.474
 7455SOL    HW134396   1.564   0.090   7.394
 7455SOL    HW234397   1.490  -0.012   7.497
 7456SOL     OW34398   3.950   6.594   7.088
 7456SOL    HW134399   3.978   6.543   7.006
 7456SOL    HW234400   3.853   6.580   7.104
 7457SOL     OW34401   7.737   6.046   7.362
 7457SOL    HW134402   7.827   6.005   7.348
 7457SOL    HW234403   7.690   6.000   7.436
 7458SOL     OW34404   0.165   3.205   7.043
 7458SOL    HW134405   0.167   3.297   7.083
 7458SOL    HW234406   0.218   3.204   6.960
 7459SOL     OW34407   2.697   4.355   7.432
 7459SOL    HW134408   2.669   4.411   7.354
 7459SOL    HW234409   2.767   4.290   7.402
 7460SOL     OW34410   2.542   6.659   7.329
 7460SOL    HW134411   2.612   6.688   7.395
 7460SOL    HW234412   2.574   6.578   7.281
 7461SOL     OW34413   4.397   6.190   7.039
 7461SOL    HW134414   4.353   6.232   7.119
 7461SOL    HW234415   4.327   6.154   6.978
 7462SOL     OW34416   8.530   3.579   6.894
 7462SOL    HW134417   8.499   3.615   6.982
 7462SOL    HW234418   8.602   3.512   6.909
 7463SOL     OW34419   6.715   6.664   7.488
 7463SOL    HW134420   6.786   6.699   7.426
 7463SOL    HW234421   6.625   6.686   7.451
 7464SOL     OW34422   4.171   7.694   7.217
 7464SOL    HW134423   4.214   7.650   7.297
 7464SOL    HW234424   4.077   7.662   7.210
 7465SOL     OW34425   9.116   0.417   7.464
 7465SOL    HW134426   9.132   0.488   7.533
 7465SOL    HW234427   9.060   0.345   7.504
 7466SOL     OW34428   7.056   7.528   6.892
 7466SOL    HW134429   7.123   7.560   6.824
 7466SOL    HW234430   7.069   7.431   6.909
 7467SOL     OW34431   1.259   7.547   7.282
 7467SOL    HW134432   1.247   7.540   7.381
 7467SOL    HW234433   1.343   7.597   7.262
 7468SOL     OW34434   0.804   7.077   7.071
 7468SOL    HW134435   0.731   7.021   7.113
 7468SOL    HW234436   0.814   7.161   7.124
 7469SOL     OW34437   3.902   8.002   7.047
 7469SOL    HW134438   3.832   8.007   7.118
 7469SOL    HW234439   3.864   7.959   6.966
 7470SOL     OW34440   1.012   7.235   7.346
 7470SOL    HW134441   0.922   7.248   7.304
 7470SOL    HW234442   1.080   7.220   7.275
 7471SOL     OW34443   5.526   7.942   7.043
 7471SOL    HW134444   5.501   8.031   7.082
 7471SOL    HW234445   5.444   7.897   7.008
 7472SOL     OW34446   1.379   6.350   7.201
 7472SOL    HW134447   1.347   6.422   7.139
 7472SOL    HW234448   1.473   6.326   7.177
 7473SOL     OW34449   7.111   2.261   6.719
 7473SOL    HW134450   7.023   2.272   6.767
 7473SOL    HW234451   7.178   2.324   6.757
 7474SOL     OW34452   6.016   4.025   6.713
 7474SOL    HW134453   6.070   3.989   6.789
 7474SOL    HW234454   5.984   4.117   6.736
 7475SOL     OW34455   6.560   4.297   7.416
 7475SOL    HW134456   6.504   4.248   7.348
 7475SOL    HW234457   6.521   4.386   7.433
 7476SOL     OW34458   7.278   4.440   6.757
 7476SOL    HW134459   7.213   4.422   6.683
 7476SOL    HW234460   7.336   4.360   6.770
 7477SOL     OW34461   3.322   1.459   7.309
 7477SOL    HW134462   3.229   1.458   7.347
 7477SOL    HW234463   3.382   1.405   7.368
 7478SOL     OW34464   2.166   3.415   7.068
 7478SOL    HW134465   2.087   3.364   7.033
 7478SOL    HW234466   2.222   3.445   6.992
 7479SOL     OW34467   4.260   7.641   6.747
 7479SOL    HW134468   4.320   7.692   6.809
 7479SOL    HW234469   4.170   7.633   6.787
 7480SOL     OW34470   8.585   0.923   7.002
 7480SOL    HW134471   8.605   0.829   7.033
 7480SOL    HW234472   8.502   0.922   6.947
 7481SOL     OW34473   7.326   7.829   6.824
 7481SOL    HW134474   7.315   7.880   6.910
 7481SOL    HW234475   7.345   7.892   6.750
 7482SOL     OW34476   7.039   2.599   6.778
 7482SOL    HW134477   7.115   2.664   6.774
 7482SOL    HW234478   6.953   2.649   6.790
 7483SOL     OW34479   3.952   7.214   7.537
 7483SOL    HW134480   3.887   7.163   7.480
 7483SOL    HW234481   3.961   7.307   7.502
 7484SOL     OW34482   7.136   5.682   7.343
 7484SOL    HW134483   7.229   5.645   7.353
 7484SOL    HW234484   7.093   5.641   7.263
 7485SOL     OW34485   0.069   8.470   7.372
 7485SOL    HW134486   0.012   8.451   7.452
 7485SOL    HW234487   0.165   8.459   7.397
 7486SOL     OW34488   8.329   6.950   7.105
 7486SOL    HW134489   8.254   6.994   7.156
 7486SOL    HW234490   8.398   6.917   7.169
 7487SOL     OW34491   4.868   1.721   7.243
 7487SOL    HW134492   4.858   1.664   7.325
 7487SOL    HW234493   4.934   1.680   7.181
 7488SOL     OW34494   2.602   1.118   7.414
 7488SOL    HW134495   2.642   1.112   7.322
 7488SOL    HW234496   2.674   1.128   7.481
 7489SOL     OW34497   0.388   0.514   7.415
 7489SOL    HW134498   0.389   0.436   7.353
 7489SOL    HW234499   0.295   0.532   7.444
 7490SOL     OW34500   4.041   1.440   6.985
 7490SOL    HW134501   4.125   1.427   7.038
 7490SOL    HW234502   3.991   1.518   7.022
 7491SOL     OW34503   5.671   7.359   7.232
 7491SOL    HW134504   5.707   7.285   7.174
 7491SOL    HW234505   5.592   7.400   7.188
 7492SOL     OW34506   0.601   2.146   6.969
 7492SOL    HW134507   0.637   2.084   7.039
 7492SOL    HW234508   0.501   2.144   6.972
 7493SOL     OW34509   3.445   8.047   7.265
 7493SOL    HW134510   3.429   8.094   7.353
 7493SOL    HW234511   3.366   7.992   7.243
 7494SOL     OW34512   8.263   0.079   7.362
 7494SOL    HW134513   8.338   0.048   7.302
 7494SOL    HW234514   8.296   0.089   7.455
 7495SOL     OW34515   1.558   4.633   7.211
 7495SOL    HW134516   1.540   4.562   7.141
 7495SOL    HW234517   1.539   4.723   7.172
 7496SOL     OW34518   0.502   5.511   7.157
 7496SOL    HW134519   0.446   5.528   7.075
 7496SOL    HW234520   0.598   5.511   7.131
 7497SOL     OW34521   2.845   5.239   6.967
 7497SOL    HW134522   2.764   5.205   6.919
 7497SOL    HW234523   2.859   5.335   6.944
 7498SOL     OW34524   4.766   0.917   6.948
 7498SOL    HW134525   4.849   0.921   6.892
 7498SOL    HW234526   4.726   0.826   6.942
 7499SOL     OW34527   6.010   7.850   6.856
 7499SOL    HW134528   5.914   7.845   6.885
 7499SOL    HW234529   6.054   7.925   6.904
 7500SOL     OW34530   4.402   8.508   7.044
 7500SOL    HW134531   4.429   8.570   6.970
 7500SOL    HW234532   4.384   8.418   7.007
 7501SOL     OW34533   7.590   2.554   7.205
 7501SOL    HW134534   7.625   2.462   7.191
 7501SOL    HW234535   7.548   2.587   7.120
 7502SOL     OW34536   6.462   6.972   7.485
 7502SOL    HW134537   6.505   6.888   7.451
 7502SOL    HW234538   6.366   6.955   7.503
 7503SOL     OW34539   5.915   0.477   7.468
 7503SOL    HW134540   5.958   0.403   7.415
 7503SOL    HW234541   5.970   0.560   7.458
 7504SOL     OW34542   8.138   3.290   7.399
 7504SOL    HW134543   8.101   3.306   7.491
 7504SOL    HW234544   8.161   3.194   7.388
 7505SOL     OW34545   3.482   3.548   7.304
 7505SOL    HW134546   3.541   3.503   7.236
 7505SOL    HW234547   3.393   3.567   7.264
 7506SOL     OW34548   7.521   8.416   6.935
 7506SOL    HW134549   7.615   8.386   6.914
 7506SOL    HW234550   7.457   8.346   6.907
 7507SOL     OW34551   1.321   8.146   7.416
 7507SOL    HW134552   1.350   8.055   7.446
 7507SOL    HW234553   1.399   8.193   7.375
 7508SOL     OW34554   0.378   6.403   6.744
 7508SOL    HW134555   0.412   6.462   6.670
 7508SOL    HW234556   0.394   6.446   6.832
 7509SOL     OW34557   1.020   1.358   7.262
 7509SOL    HW134558   0.951   1.409   7.314
 7509SOL    HW234559   1.055   1.284   7.319
 7510SOL     OW34560   3.077   7.095   6.979
 7510SOL    HW134561   3.080   7.048   6.890
 7510SOL    HW234562   3.120   7.184   6.970
 7511SOL     OW34563   8.677   6.340   7.429
 7511SOL    HW134564   8.616   6.395   7.372
 7511SOL    HW234565   8.767   6.336   7.388
 7512SOL     OW34566   8.572   3.726   7.401
 7512SOL    HW134567   8.523   3.814   7.396
 7512SOL    HW234568   8.670   3.743   7.399
 7513SOL     OW34569   4.216   1.412   7.285
 7513SOL    HW134570   4.255   1.487   7.231
 7513SOL    HW234571   4.283   1.340   7.295
 7514SOL     OW34572   0.194   7.889   7.230
 7514SOL    HW134573   0.155   7.977   7.259
 7514SOL    HW234574   0.197   7.827   7.307
 7515SOL     OW34575   8.612   8.429   7.417
 7515SOL    HW134576   8.654   8.501   7.472
 7515SOL    HW234577   8.535   8.390   7.466
 7516SOL     OW34578   0.631   3.296   6.810
 7516SOL    HW134579   0.698   3.239   6.759
 7516SOL    HW234580   0.637   3.389   6.778
 7517SOL     OW34581   2.803   7.861   6.866
 7517SOL    HW134582   2.733   7.930   6.844
 7517SOL    HW234583   2.804   7.845   6.964
 7518SOL     OW34584   6.427   8.294   7.357
 7518SOL    HW134585   6.359   8.252   7.418
 7518SOL    HW234586   6.507   8.319   7.410
 7519SOL     OW34587   5.057   5.956   7.446
 7519SOL    HW134588   4.995   6.004   7.509
 7519SOL    HW234589   5.007   5.887   7.397
 7520SOL     OW34590   5.364   7.267   7.420
 7520SOL    HW134591   5.282   7.320   7.442
 7520SOL    HW234592   5.355   7.227   7.330
 7521SOL     OW34593   4.095   0.551   7.244
 7521SOL    HW134594   4.008   0.537   7.195
 7521SOL    HW234595   4.162   0.591   7.182
 7522SOL     OW34596   3.686   3.219   7.454
 7522SOL    HW134597   3.763   3.244   7.513
 7522SOL    HW234598   3.709   3.240   7.360
 7523SOL     OW34599   5.648   0.219   6.998
 7523SOL    HW134600   5.611   0.158   7.069
 7523SOL    HW234601   5.682   0.302   7.041
 7524SOL     OW34602   6.666   0.931   7.492
 7524SOL    HW134603   6.610   1.004   7.532
 7524SOL    HW234604   6.608   0.854   7.467
 7525SOL     OW34605   0.801   0.631   7.519
 7525SOL    HW134606   0.787   0.556   7.584
 7525SOL    HW234607   0.713   0.671   7.494
 7526SOL     OW34608   9.125   0.792   7.340
 7526SOL    HW134609   9.186   0.751   7.271
 7526SOL    HW234610   9.034   0.799   7.302
 7527SOL     OW34611   6.365   0.259   7.383
 7527SOL    HW134612   6.464   0.276   7.389
 7527SOL    HW234613   6.320   0.338   7.344
 7528SOL     OW34614   1.966   0.512   7.340
 7528SOL    HW134615   1.994   0.422   7.373
 7528SOL    HW234616   1.960   0.575   7.417
 7529SOL     OW34617   9.436   2.749   7.018
 7529SOL    HW134618   9.502   2.825   7.014
 7529SOL    HW234619   9.468   2.674   6.961
 7530SOL     OW34620   5.020   0.901   7.241
 7530SOL    HW134621   4.970   0.932   7.160
 7530SOL    HW234622   5.115   0.928   7.233
 7531SOL     OW34623   8.437   2.209   6.810
 7531SOL    HW134624   8.379   2.280   6.853
 7531SOL    HW234625   8.504   2.177   6.876
 7532SOL     OW34626   0.983   0.919   7.234
 7532SOL    HW134627   1.066   0.908   7.290
 7532SOL    HW234628   0.914   0.854   7.265
 7533SOL     OW34629   1.546   5.131   7.319
 7533SOL    HW134630   1.617   5.090   7.378
 7533SOL    HW234631   1.505   5.208   7.367
 7534SOL     OW34632   6.985   6.670   7.371
 7534SOL    HW134633   6.959   6.623   7.456
 7534SOL    HW234634   6.904   6.709   7.329
 7535SOL     OW34635   8.521   0.671   7.451
 7535SOL    HW134636   8.461   0.592   7.437
 7535SOL    HW234637   8.534   0.718   7.365
 7536SOL     OW34638   2.989   5.993   7.003
 7536SOL    HW134639   2.923   6.020   6.932
 7536SOL    HW234640   2.958   6.027   7.091
 7537SOL     OW34641   8.244   0.140   7.138
 7537SOL    HW134642   8.301   0.092   7.070
 7537SOL    HW234643   8.296   0.151   7.222
 7538SOL     OW34644   7.102   5.046   6.824
 7538SOL    HW134645   7.153   5.039   6.910
 7538SOL    HW234646   7.023   4.986   6.827
 7539SOL     OW34647   4.843   1.294   7.160
 7539SOL    HW134648   4.790   1.241   7.094
 7539SOL    HW234649   4.822   1.391   7.150
 7540SOL     OW34650   9.130   2.988   7.186
 7540SOL    HW134651   9.218   3.010   7.144
 7540SOL    HW234652   9.057   3.007   7.121
 7541SOL     OW34653   1.724   7.815   6.994
 7541SOL    HW134654   1.725   7.914   7.006
 7541SOL    HW234655   1.636   7.779   7.022
 7542SOL     OW34656   2.931   7.109   7.147
 7542SOL    HW134657   2.938   7.202   7.111
 7542SOL    HW234658   2.836   7.080   7.145
 7543SOL     OW34659   1.713   6.887   7.369
 7543SOL    HW134660   1.705   6.860   7.465
 7543SOL    HW234661   1.657   6.967   7.352
 7544SOL     OW34662   3.796   2.548   7.214
 7544SOL    HW134663   3.838   2.485   7.148
 7544SOL    HW234664   3.699   2.557   7.194
 7545SOL     OW34665   6.884   3.604   6.943
 7545SOL    HW134666   6.835   3.520   6.917
 7545SOL    HW234667   6.884   3.667   6.867
 7546SOL     OW34668   0.855   5.440   7.225
 7546SOL    HW134669   0.780   5.400   7.278
 7546SOL    HW234670   0.819   5.483   7.143
 7547SOL     OW34671   3.079   4.501   7.181
 7547SOL    HW134672   3.171   4.504   7.141
 7547SOL    HW234673   3.081   4.443   7.262
 7548SOL     OW34674   2.984   1.875   6.900
 7548SOL    HW134675   2.909   1.940   6.881
 7548SOL    HW234676   3.035   1.858   6.817
 7549SOL     OW34677   1.302   6.895   6.909
 7549SOL    HW134678   1.375   6.922   6.845
 7549SOL    HW234679   1.244   6.827   6.865
 7550SOL     OW34680   1.555   4.749   6.908
 7550SOL    HW134681   1.507   4.774   6.824
 7550SOL    HW234682   1.634   4.809   6.920
 7551SOL     OW34683   7.199   1.408   6.869
 7551SOL    HW134684   7.196   1.392   6.968
 7551SOL    HW234685   7.123   1.360   6.826
 7552SOL     OW34686   6.302   3.599   7.403
 7552SOL    HW134687   6.388   3.593   7.351
 7552SOL    HW234688   6.228   3.560   7.349
 7553SOL     OW34689   7.914   2.457   7.148
 7553SOL    HW134690   7.837   2.444   7.212
 7553SOL    HW234691   7.998   2.425   7.191
 7554SOL     OW34692   8.381   6.906   6.887
 7554SOL    HW134693   8.328   6.955   6.817
 7554SOL    HW234694   8.477   6.906   6.862
 7555SOL     OW34695   7.707   3.914   7.409
 7555SOL    HW134696   7.783   3.906   7.474
 7555SOL    HW234697   7.636   3.971   7.450
 7556SOL     OW34698   2.270   4.511   7.321
 7556SOL    HW134699   2.207   4.435   7.302
 7556SOL    HW234700   2.348   4.506   7.260
 7557SOL     OW34701   0.925   2.812   7.051
 7557SOL    HW134702   0.961   2.718   7.052
 7557SOL    HW234703   0.985   2.870   7.104
 7558SOL     OW34704   0.464   5.326   6.857
 7558SOL    HW134705   0.423   5.245   6.813
 7558SOL    HW234706   0.428   5.408   6.814
 7559SOL     OW34707   0.425   1.465   7.003
 7559SOL    HW134708   0.424   1.376   6.956
 7559SOL    HW234709   0.406   1.537   6.938
 7560SOL     OW34710   8.337   4.917   7.253
 7560SOL    HW134711   8.413   4.874   7.204
 7560SOL    HW234712   8.255   4.914   7.195
 7561SOL     OW34713   0.214   2.826   7.219
 7561SOL    HW134714   0.264   2.830   7.132
 7561SOL    HW234715   0.117   2.843   7.202
 7562SOL     OW34716   3.833   0.346   6.985
 7562SOL    HW134717   3.822   0.325   7.082
 7562SOL    HW234718   3.928   0.338   6.959
 7563SOL     OW34719   3.861   5.171   7.135
 7563SOL    HW134720   3.767   5.196   7.161
 7563SOL    HW234721   3.866   5.165   7.036
 7564SOL     OW34722   8.203   7.175   6.792
 7564SOL    HW134723   8.198   7.077   6.773
 7564SOL    HW234724   8.113   7.216   6.783
 7565SOL     OW34725   1.460   7.229   6.746
 7565SOL    HW134726   1.498   7.149   6.792
 7565SOL    HW234727   1.489   7.311   6.794
 7566SOL     OW34728   0.150   5.294   6.798
 7566SOL    HW134729   0.054   5.270   6.819
 7566SOL    HW234730   0.151   5.373   6.739
 7567SOL     OW34731   0.586   5.825   7.212
 7567SOL    HW134732   0.510   5.776   7.256
 7567SOL    HW234733   0.649   5.759   7.171
 7568SOL     OW34734   1.695   8.097   6.818
 7568SOL    HW134735   1.710   8.104   6.917
 7568SOL    HW234736   1.705   8.003   6.789
 7569SOL     OW34737   1.757   1.308   6.985
 7569SOL    HW134738   1.706   1.251   7.049
 7569SOL    HW234739   1.801   1.383   7.035
 7570SOL     OW34740   5.041   4.089   6.879
 7570SOL    HW134741   5.139   4.088   6.858
 7570SOL    HW234742   4.994   4.144   6.811
 7571SOL     OW34743   2.706   5.328   7.425
 7571SOL    HW134744   2.618   5.377   7.425
 7571SOL    HW234745   2.754   5.348   7.341
 7572SOL     OW34746   0.820   6.414   6.732
 7572SOL    HW134747   0.887   6.448   6.666
 7572SOL    HW234748   0.862   6.412   6.822
 7573SOL     OW34749   5.634   0.101   6.768
 7573SOL    HW134750   5.569   0.048   6.824
 7573SOL    HW234751   5.702   0.143   6.828
 7574SOL     OW34752   8.859   7.052   6.892
 7574SOL    HW134753   8.857   7.075   6.794
 7574SOL    HW234754   8.880   6.955   6.903
 7575SOL     OW34755   5.165   8.135   7.385
 7575SOL    HW134756   5.087   8.198   7.387
 7575SOL    HW234757   5.201   8.128   7.293
 7576SOL     OW34758   3.927   4.414   6.872
 7576SOL    HW134759   4.008   4.369   6.909
 7576SOL    HW234760   3.934   4.512   6.886
 7577SOL     OW34761   2.755   6.378   6.822
 7577SOL    HW134762   2.826   6.387   6.892
 7577SOL    HW234763   2.790   6.326   6.745
 7578SOL     OW34764   9.415   0.722   7.531
 7578SOL    HW134765   9.500   0.709   7.480
 7578SOL    HW234766   9.355   0.783   7.480
 7579SOL     OW34767   8.302   0.471   7.502
 7579SOL    HW134768   8.396   0.478   7.538
 7579SOL    HW234769   8.304   0.481   7.403
 7580SOL     OW34770   9.373   7.389   6.790
 7580SOL    HW134771   9.409   7.379   6.697
 7580SOL    HW234772   9.320   7.472   6.796
 7581SOL     OW34773   4.045   0.596   6.830
 7581SOL    HW134774   3.992   0.561   6.908
 7581SOL    HW234775   4.080   0.519   6.778
 7582SOL     OW34776   5.287   4.004   6.828
 7582SOL    HW134777   5.305   4.001   6.927
 7582SOL    HW234778   5.328   4.085   6.789
 7583SOL     OW34779   9.005   3.208   6.764
 7583SOL    HW134780   8.927   3.271   6.768
 7583SOL    HW234781   8.972   3.114   6.762
 7584SOL     OW34782   3.591   3.068   7.528
 7584SOL    HW134783   3.638   3.035   7.446
 7584SOL    HW234784   3.655   3.114   7.587
 7585SOL     OW34785   7.982   7.927   7.443
 7585SOL    HW134786   7.988   7.971   7.533
 7585SOL    HW234787   8.025   7.837   7.447
 7586SOL     OW34788   1.290   3.061   7.039
 7586SOL    HW134789   1.253   3.071   7.132
 7586SOL    HW234790   1.286   2.966   7.013
 7587SOL     OW34791   5.485   3.138   7.510
 7587SOL    HW134792   5.545   3.177   7.440
 7587SOL    HW234793   5.485   3.196   7.590
 7588SOL     OW34794   6.635   7.640   6.766
 7588SOL    HW134795   6.722   7.660   6.720
 7588SOL    HW234796   6.631   7.692   6.851
 7589SOL     OW34797   0.117   7.172   7.414
 7589SOL    HW134798   0.069   7.084   7.424
 7589SOL    HW234799   0.164   7.174   7.327
 7590SOL     OW34800   7.144   0.815   7.029
 7590SOL    HW134801   7.114   0.872   7.106
 7590SOL    HW234802   7.224   0.763   7.056
 7591SOL     OW34803   5.371   7.083   7.016
 7591SOL    HW134804   5.272   7.090   7.030
 7591SOL    HW234805   5.390   7.032   6.933
 7592SOL     OW34806   7.345   8.155   7.157
 7592SOL    HW134807   7.344   8.090   7.079
 7592SOL    HW234808   7.322   8.245   7.125
 7593SOL     OW34809   4.723   7.175   7.187
 7593SOL    HW134810   4.765   7.201   7.274
 7593SOL    HW234811   4.741   7.246   7.120
 7594SOL     OW34812   0.766   0.612   7.020
 7594SOL    HW134813   0.834   0.610   7.094
 7594SOL    HW234814   0.680   0.648   7.056
 7595SOL     OW34815   7.606   7.778   6.883
 7595SOL    HW134816   7.597   7.864   6.832
 7595SOL    HW234817   7.593   7.701   6.821
 7596SOL     OW34818   3.524   1.124   7.364
 7596SOL    HW134819   3.531   1.026   7.346
 7596SOL    HW234820   3.428   1.152   7.356
 7597SOL     OW34821   2.998   6.584   7.174
 7597SOL    HW134822   3.026   6.499   7.130
 7597SOL    HW234823   3.079   6.636   7.199
 7598SOL     OW34824   4.571   2.088   7.147
 7598SOL    HW134825   4.568   2.089   7.047
 7598SOL    HW234826   4.610   2.002   7.178
 7599SOL     OW34827   8.566   7.359   7.250
 7599SOL    HW134828   8.555   7.413   7.166
 7599SOL    HW234829   8.662   7.358   7.275
 7600SOL     OW34830   8.332   8.174   7.478
 7600SOL    HW134831   8.323   8.081   7.512
 7600SOL    HW234832   8.411   8.218   7.519
 7601SOL     OW34833   1.447   3.675   7.317
 7601SOL    HW134834   1.363   3.670   7.262
 7601SOL    HW234835   1.510   3.740   7.275
 7602SOL     OW34836   9.138   1.439   6.904
 7602SOL    HW134837   9.156   1.340   6.894
 7602SOL    HW234838   9.067   1.453   6.972
 7603SOL     OW34839   7.700   1.277   7.111
 7603SOL    HW134840   7.701   1.208   7.184
 7603SOL    HW234841   7.668   1.363   7.148
 7604SOL     OW34842   0.031   8.442   7.040
 7604SOL    HW134843   0.103   8.458   7.108
 7604SOL    HW234844  -0.031   8.520   7.040
 7605SOL     OW34845   9.343   6.420   6.944
 7605SOL    HW134846   9.281   6.441   7.020
 7605SOL    HW234847   9.436   6.414   6.978
 7606SOL     OW34848   2.143   1.561   7.016
 7606SOL    HW134849   2.073   1.597   6.953
 7606SOL    HW234850   2.161   1.466   6.994
 7607SOL     OW34851   6.296   6.933   6.994
 7607SOL    HW134852   6.269   6.935   6.898
 7607SOL    HW234853   6.245   6.862   7.042
 7608SOL     OW34854   0.513   2.059   7.287
 7608SOL    HW134855   0.502   2.116   7.205
 7608SOL    HW234856   0.525   2.118   7.367
 7609SOL     OW34857   4.146   3.887   7.040
 7609SOL    HW134858   4.165   3.886   7.138
 7609SOL    HW234859   4.049   3.876   7.024
 7610SOL     OW34860   7.310   4.123   7.420
 7610SOL    HW134861   7.232   4.116   7.482
 7610SOL    HW234862   7.392   4.143   7.473
 7611SOL     OW34863   7.643   3.690   7.394
 7611SOL    HW134864   7.545   3.703   7.410
 7611SOL    HW234865   7.656   3.616   7.329
 7612SOL     OW34866   8.927   7.945   7.329
 7612SOL    HW134867   8.885   7.932   7.239
 7612SOL    HW234868   9.019   7.980   7.318
 7613SOL     OW34869   0.874   7.455   7.509
 7613SOL    HW134870   0.826   7.372   7.480
 7613SOL    HW234871   0.826   7.497   7.585
 7614SOL     OW34872   7.927   6.400   6.936
 7614SOL    HW134873   7.869   6.349   7.001
 7614SOL    HW234874   7.938   6.347   6.853
 7615SOL     OW34875   7.360   5.124   7.479
 7615SOL    HW134876   7.381   5.087   7.388
 7615SOL    HW234877   7.278   5.179   7.474
 7616SOL     OW34878   5.656   2.226   7.168
 7616SOL    HW134879   5.704   2.216   7.256
 7616SOL    HW234880   5.692   2.159   7.104
 7617SOL     OW34881   0.828   4.219   6.799
 7617SOL    HW134882   0.797   4.152   6.866
 7617SOL    HW234883   0.887   4.286   6.844
 7618SOL     OW34884   7.347   0.088   7.477
 7618SOL    HW134885   7.305   0.066   7.389
 7618SOL    HW234886   7.348   0.006   7.534
 7619SOL     OW34887   8.141   3.229   7.078
 7619SOL    HW134888   8.109   3.293   7.149
 7619SOL    HW234889   8.217   3.271   7.029
 7620SOL     OW34890   9.396   5.327   7.145
 7620SOL    HW134891   9.400   5.403   7.080
 7620SOL    HW234892   9.350   5.250   7.102
 7621SOL     OW34893   8.855   8.445   6.753
 7621SOL    HW134894   8.923   8.462   6.681
 7621SOL    HW234895   8.846   8.526   6.810
 7622SOL     OW34896   7.801   3.022   6.998
 7622SOL    HW134897   7.739   3.039   7.074
 7622SOL    HW234898   7.894   3.046   7.025
 7623SOL     OW34899   9.003   8.191   7.388
 7623SOL    HW134900   9.045   8.282   7.379
 7623SOL    HW234901   8.964   8.164   7.301
 7624SOL     OW34902   7.299   8.186   6.834
 7624SOL    HW134903   7.252   8.263   6.789
 7624SOL    HW234904   7.397   8.202   6.831
 7625SOL     OW34905   3.265   6.031   7.167
 7625SOL    HW134906   3.190   6.079   7.121
 7625SOL    HW234907   3.341   6.094   7.182
 7626SOL     OW34908   6.431   4.836   7.147
 7626SOL    HW134909   6.428   4.914   7.209
 7626SOL    HW234910   6.378   4.761   7.185
 7627SOL     OW34911   7.582   5.775   7.291
 7627SOL    HW134912   7.588   5.812   7.385
 7627SOL    HW234913   7.619   5.842   7.228
 7628SOL     OW34914   8.186   7.887   6.891
 7628SOL    HW134915   8.116   7.832   6.938
 7628SOL    HW234916   8.272   7.835   6.888
 7629SOL     OW34917   4.824   5.734   7.351
 7629SOL    HW134918   4.822   5.730   7.250
 7629SOL    HW234919   4.881   5.810   7.380
 7630SOL     OW34920   3.327   5.801   7.231
 7630SOL    HW134921   3.286   5.751   7.308
 7630SOL    HW234922   3.349   5.894   7.260
 7631SOL     OW34923   0.290   5.780   7.324
 7631SOL    HW134924   0.347   5.723   7.264
 7631SOL    HW234925   0.207   5.806   7.276
 7632SOL     OW34926   1.831   3.284   7.181
 7632SOL    HW134927   1.761   3.332   7.128
 7632SOL    HW234928   1.808   3.187   7.187
 7633SOL     OW34929   7.886   5.719   6.719
 7633SOL    HW134930   7.958   5.789   6.721
 7633SOL    HW234931   7.901   5.654   6.793
 7634SOL     OW34932   1.280   3.193   7.279
 7634SOL    HW134933   1.336   3.156   7.205
 7634SOL    HW234934   1.185   3.197   7.250
 7635SOL     OW34935   3.668   3.169   7.204
 7635SOL    HW134936   3.752   3.118   7.223
 7635SOL    HW234937   3.658   3.182   7.106
 7636SOL     OW34938   0.965   1.076   7.429
 7636SOL    HW134939   1.052   1.042   7.393
 7636SOL    HW234940   0.981   1.120   7.517
 7637SOL     OW34941   3.019   3.292   6.799
 7637SOL    HW134942   2.990   3.382   6.765
 7637SOL    HW234943   3.115   3.278   6.778
 7638SOL     OW34944   3.080   2.395   7.178
 7638SOL    HW134945   3.028   2.314   7.148
 7638SOL    HW234946   3.170   2.394   7.138
 7639SOL     OW34947   4.292   6.660   7.236
 7639SOL    HW134948   4.238   6.580   7.211
 7639SOL    HW234949   4.370   6.632   7.290
 7640SOL     OW34950   2.292   1.200   7.331
 7640SOL    HW134951   2.384   1.223   7.299
 7640SOL    HW234952   2.253   1.130   7.273
 7641SOL     OW34953   1.636   7.795   7.333
 7641SOL    HW134954   1.732   7.790   7.361
 7641SOL    HW234955   1.586   7.718   7.371
 7642SOL     OW34956   8.183   7.988   7.118
 7642SOL    HW134957   8.166   8.075   7.164
 7642SOL    HW234958   8.120   7.919   7.153
 7643SOL     OW34959   4.546   7.036   7.347
 7643SOL    HW134960   4.532   6.939   7.327
 7643SOL    HW234961   4.642   7.059   7.334
 7644SOL     OW34962   5.454   1.777   6.920
 7644SOL    HW134963   5.522   1.730   6.977
 7644SOL    HW234964   5.404   1.843   6.977
 7645SOL     OW34965   1.524   6.850   7.346
 7645SOL    HW134966   1.559   6.897   7.427
 7645SOL    HW234967   1.431   6.819   7.363
 7646SOL     OW34968   3.743   2.341   7.233
 7646SOL    HW134969   3.782   2.358   7.142
 7646SOL    HW234970   3.756   2.246   7.258
 7647SOL     OW34971   0.053   2.332   7.361
 7647SOL    HW134972   0.119   2.314   7.435
 7647SOL    HW234973  -0.017   2.395   7.394
 7648SOL     OW34974   8.720   0.550   6.838
 7648SOL    HW134975   8.799   0.488   6.838
 7648SOL    HW234976   8.658   0.525   6.765
 7649SOL     OW34977   3.717   6.764   7.400
 7649SOL    HW134978   3.810   6.801   7.401
 7649SOL    HW234979   3.717   6.673   7.361
 7650SOL     OW34980   8.937   5.926   7.171
 7650SOL    HW134981   9.000   5.901   7.097
 7650SOL    HW234982   8.844   5.907   7.143
 7651SOL     OW34983   9.387   8.195   7.504
 7651SOL    HW134984   9.483   8.205   7.533
 7651SOL    HW234985   9.382   8.128   7.431
 7652SOL     OW34986   2.422   4.028   7.071
 7652SOL    HW134987   2.501   3.990   7.121
 7652SOL    HW234988   2.452   4.104   7.015
 7653SOL     OW34989   0.578   0.062   7.460
 7653SOL    HW134990   0.512   0.058   7.536
 7653SOL    HW234991   0.647  -0.009   7.473
 7654SOL     OW34992   5.804   7.989   7.422
 7654SOL    HW134993   5.835   7.967   7.329
 7654SOL    HW234994   5.847   8.073   7.452
 7655SOL     OW34995   5.099   0.125   7.454
 7655SOL    HW134996   5.145   0.168   7.375
 7655SOL    HW234997   5.153   0.048   7.486
 7656SOL     OW34998   1.299   4.547   6.714
 7656SOL    HW134999   1.268   4.643   6.720
 7656SOL    HW235000   1.340   4.521   6.800
 7657SOL     OW35001   5.600   1.730   7.229
 7657SOL    HW135002   5.504   1.732   7.260
 7657SOL    HW235003   5.632   1.636   7.229
 7658SOL     OW35004   0.056   3.698   6.770
 7658SOL    HW135005  -0.014   3.673   6.838
 7658SOL    HW235006   0.145   3.666   6.801
 7659SOL     OW35007   1.875   8.271   6.872
 7659SOL    HW135008   1.947   8.318   6.924
 7659SOL    HW235009   1.796   8.258   6.929
 7660SOL     OW35010   7.167   4.277   6.856
 7660SOL    HW135011   7.267   4.275   6.864
 7660SOL    HW235012   7.138   4.198   6.803
 7661SOL     OW35013   7.263   7.842   7.321
 7661SOL    HW135014   7.203   7.807   7.248
 7661SOL    HW235015   7.321   7.914   7.284
 7662SOL     OW35016   4.694   1.517   7.557
 7662SOL    HW135017   4.763   1.532   7.485
 7662SOL    HW235018   4.631   1.446   7.527
 7663SOL     OW35019   6.001   4.167   6.910
 7663SOL    HW135020   5.925   4.198   6.851
 7663SOL    HW235021   6.081   4.151   6.853
 7664SOL     OW35022   7.888   0.393   7.020
 7664SOL    HW135023   7.887   0.359   7.115
 7664SOL    HW235024   7.800   0.376   6.978
 7665SOL     OW35025   7.692   4.834   7.346
 7665SOL    HW135026   7.637   4.782   7.279
 7665SOL    HW235027   7.639   4.912   7.379
 7666SOL     OW35028   1.901   4.477   6.875
 7666SOL    HW135029   1.933   4.385   6.852
 7666SOL    HW235030   1.948   4.509   6.957
 7667SOL     OW35031   3.313   6.707   6.945
 7667SOL    HW135032   3.259   6.767   7.005
 7667SOL    HW235033   3.287   6.613   6.961
 7668SOL     OW35034   3.599   3.929   7.373
 7668SOL    HW135035   3.530   3.901   7.306
 7668SOL    HW235036   3.686   3.887   7.350
 7669SOL     OW35037   3.485   1.594   6.786
 7669SOL    HW135038   3.394   1.555   6.765
 7669SOL    HW235039   3.541   1.525   6.830
 7670SOL     OW35040   1.711   7.702   6.786
 7670SOL    HW135041   1.690   7.771   6.716
 7670SOL    HW235042   1.771   7.633   6.747
 7671SOL     OW35043   4.997   2.674   6.719
 7671SOL    HW135044   5.040   2.739   6.782
 7671SOL    HW235045   4.916   2.636   6.762
 7672SOL     OW35046   2.642   5.653   6.750
 7672SOL    HW135047   2.679   5.688   6.837
 7672SOL    HW235048   2.545   5.674   6.745
 7673SOL     OW35049   9.473   7.148   7.263
 7673SOL    HW135050   9.449   7.243   7.240
 7673SOL    HW235051   9.391   7.097   7.285
 7674SOL     OW35052   8.863   6.092   7.471
 7674SOL    HW135053   8.897   6.142   7.391
 7674SOL    HW235054   8.835   6.157   7.541
 7675SOL     OW35055   1.658   2.512   7.244
 7675SOL    HW135056   1.567   2.553   7.230
 7675SOL    HW235057   1.650   2.413   7.246
 7676SOL     OW35058   9.262   8.481   7.240
 7676SOL    HW135059   9.225   8.395   7.276
 7676SOL    HW235060   9.344   8.505   7.290
 7677SOL     OW35061   8.569   2.788   7.032
 7677SOL    HW135062   8.562   2.874   7.084
 7677SOL    HW235063   8.607   2.718   7.091
 7678SOL     OW35064   9.136   2.736   6.788
 7678SOL    HW135065   9.150   2.808   6.720
 7678SOL    HW235066   9.163   2.649   6.750
 7679SOL     OW35067   6.658   3.017   6.818
 7679SOL    HW135068   6.635   2.963   6.899
 7679SOL    HW235069   6.729   3.082   6.840
 7680SOL     OW35070   0.913   5.408   6.750
 7680SOL    HW135071   0.866   5.381   6.834
 7680SOL    HW235072   1.010   5.386   6.758
 7681SOL     OW35073   6.194   1.716   7.550
 7681SOL    HW135074   6.160   1.810   7.556
 7681SOL    HW235075   6.140   1.665   7.484
 7682SOL     OW35076   8.663   6.569   7.277
 7682SOL    HW135077   8.571   6.604   7.301
 7682SOL    HW235078   8.679   6.586   7.180
 7683SOL     OW35079   5.842   6.414   7.251
 7683SOL    HW135080   5.891   6.330   7.224
 7683SOL    HW235081   5.838   6.420   7.350
 7684SOL     OW35082   9.214   0.623   7.403
 7684SOL    HW135083   9.119   0.593   7.399
 7684SOL    HW235084   9.259   0.582   7.482
 7685SOL     OW35085   0.663   6.891   7.265
 7685SOL    HW135086   0.607   6.907   7.183
 7685SOL    HW235087   0.754   6.929   7.251
 7686SOL     OW35088   3.239   7.394   6.931
 7686SOL    HW135089   3.236   7.318   6.997
 7686SOL    HW235090   3.149   7.437   6.926
 7687SOL     OW35091   3.603   0.462   6.901
 7687SOL    HW135092   3.644   0.384   6.949
 7687SOL    HW235093   3.593   0.538   6.964
 7688SOL     OW35094   0.474   4.268   6.830
 7688SOL    HW135095   0.418   4.260   6.914
 7688SOL    HW235096   0.564   4.303   6.854
 7689SOL     OW35097   1.006   7.791   7.109
 7689SOL    HW135098   1.059   7.751   7.034
 7689SOL    HW235099   1.049   7.769   7.196
 7690SOL     OW35100   1.033   3.179   7.442
 7690SOL    HW135101   1.127   3.160   7.412
 7690SOL    HW235102   0.970   3.117   7.397
 7691SOL     OW35103   0.295   6.776   7.438
 7691SOL    HW135104   0.364   6.848   7.439
 7691SOL    HW235105   0.288   6.738   7.347
 7692SOL     OW35106   4.005   2.245   7.363
 7692SOL    HW135107   3.938   2.283   7.297
 7692SOL    HW235108   4.061   2.178   7.317
 7693SOL     OW35109   3.926   1.958   6.860
 7693SOL    HW135110   3.848   1.896   6.875
 7693SOL    HW235111   3.934   2.020   6.937
 7694SOL     OW35112   2.931   7.359   6.842
 7694SOL    HW135113   2.926   7.430   6.772
 7694SOL    HW235114   2.970   7.276   6.803
 7695SOL     OW35115   8.958   5.026   6.925
 7695SOL    HW135116   9.027   4.965   6.964
 7695SOL    HW235117   8.988   5.059   6.836
 7696SOL     OW35118   8.845   0.981   6.834
 7696SOL    HW135119   8.935   0.989   6.879
 7696SOL    HW235120   8.855   0.926   6.752
 7697SOL     OW35121   2.471   5.962   7.450
 7697SOL    HW135122   2.396   5.944   7.514
 7697SOL    HW235123   2.546   5.901   7.470
 7698SOL     OW35124   5.072   6.132   6.982
 7698SOL    HW135125   5.062   6.057   7.048
 7698SOL    HW235126   4.982   6.171   6.963
 7699SOL     OW35127   3.852   1.412   7.511
 7699SOL    HW135128   3.812   1.327   7.545
 7699SOL    HW235129   3.834   1.420   7.413
 7700SOL     OW35130   7.615   2.272   7.465
 7700SOL    HW135131   7.558   2.193   7.440
 7700SOL    HW235132   7.710   2.253   7.442
 7701SOL     OW35133   7.594   1.478   6.785
 7701SOL    HW135134   7.494   1.476   6.785
 7701SOL    HW235135   7.626   1.518   6.700
 7702SOL     OW35136   1.854   2.359   7.204
 7702SOL    HW135137   1.917   2.435   7.221
 7702SOL    HW235138   1.823   2.321   7.291
 7703SOL     OW35139   5.950   7.384   7.136
 7703SOL    HW135140   5.942   7.372   7.037
 7703SOL    HW235141   5.879   7.445   7.168
 7704SOL     OW35142   8.130   1.086   7.238
 7704SOL    HW135143   8.089   1.128   7.156
 7704SOL    HW235144   8.121   1.149   7.315
 7705SOL     OW35145   6.820   8.022   7.087
 7705SOL    HW135146   6.867   7.947   7.040
 7705SOL    HW235147   6.729   8.034   7.047
 7706SOL     OW35148   1.000   4.851   6.724
 7706SOL    HW135149   1.076   4.785   6.734
 7706SOL    HW235150   0.953   4.860   6.811
 7707SOL     OW35151   4.784   6.745   7.406
 7707SOL    HW135152   4.837   6.732   7.491
 7707SOL    HW235153   4.802   6.836   7.370
 7708SOL     OW35154   8.288   4.307   6.812
 7708SOL    HW135155   8.310   4.292   6.716
 7708SOL    HW235156   8.204   4.360   6.819
 7709SOL     OW35157   9.011   6.335   6.956
 7709SOL    HW135158   8.918   6.307   6.930
 7709SOL    HW235159   9.061   6.365   6.876
 7710SOL     OW35160   0.741   1.391   7.263
 7710SOL    HW135161   0.709   1.454   7.191
 7710SOL    HW235162   0.768   1.304   7.221
 7711SOL     OW35163   0.223   4.315   6.715
 7711SOL    HW135164   0.251   4.379   6.787
 7711SOL    HW235165   0.208   4.225   6.754
 7712SOL     OW35166   3.591   1.862   7.132
 7712SOL    HW135167   3.588   1.873   7.232
 7712SOL    HW235168   3.504   1.891   7.094
 7713SOL     OW35169   4.909   6.057   7.177
 7713SOL    HW135170   4.969   5.986   7.216
 7713SOL    HW235171   4.886   6.123   7.248
 7714SOL     OW35172   1.065   3.335   7.300
 7714SOL    HW135173   1.107   3.391   7.373
 7714SOL    HW235174   0.979   3.298   7.334
 7715SOL     OW35175   0.521   2.418   7.202
 7715SOL    HW135176   0.456   2.495   7.194
 7715SOL    HW235177   0.513   2.359   7.123
 7716SOL     OW35178   7.403   4.820   6.787
 7716SOL    HW135179   7.306   4.792   6.783
 7716SOL    HW235180   7.453   4.776   6.713
 7717SOL     OW35181   3.755   1.588   6.924
 7717SOL    HW135182   3.671   1.641   6.933
 7717SOL    HW235183   3.801   1.612   6.839
 7718SOL     OW35184   7.581   0.088   6.887
 7718SOL    HW135185   7.605   0.007   6.831
 7718SOL    HW235186   7.482   0.095   6.893
 7719SOL     OW35187   6.905   1.070   6.785
 7719SOL    HW135188   6.888   0.971   6.783
 7719SOL    HW235189   6.924   1.098   6.878
 7720SOL     OW35190   7.943   0.580   7.521
 7720SOL    HW135191   7.929   0.495   7.468
 7720SOL    HW235192   8.011   0.636   7.475
 7721SOL     OW35193   7.686   2.709   6.929
 7721SOL    HW135194   7.650   2.668   7.014
 7721SOL    HW235195   7.677   2.807   6.934
 7722SOL     OW35196   2.861   8.040   7.048
 7722SOL    HW135197   2.934   8.078   7.106
 7722SOL    HW235198   2.869   8.077   6.956
 7723SOL     OW35199   3.655   8.127   7.179
 7723SOL    HW135200   3.576   8.130   7.241
 7723SOL    HW235201   3.716   8.202   7.199
 7724SOL     OW35202   7.377   8.281   7.286
 7724SOL    HW135203   7.302   8.284   7.353
 7724SOL    HW235204   7.425   8.194   7.294
 7725SOL     OW35205   5.317   8.472   7.110
 7725SOL    HW135206   5.366   8.557   7.131
 7725SOL    HW235207   5.369   8.420   7.043
 7726SOL     OW35208   1.972   6.229   7.199
 7726SOL    HW135209   1.980   6.327   7.222
 7726SOL    HW235210   1.995   6.216   7.103
 7727SOL     OW35211   9.420   5.793   6.774
 7727SOL    HW135212   9.438   5.710   6.720
 7727SOL    HW235213   9.354   5.850   6.727
 7728SOL     OW35214   0.181   7.244   6.855
 7728SOL    HW135215   0.229   7.204   6.776
 7728SOL    HW235216   0.112   7.180   6.887
 7729SOL     OW35217   1.207   0.177   7.481
 7729SOL    HW135218   1.205   0.190   7.581
 7729SOL    HW235219   1.290   0.218   7.444
 7730SOL     OW35220   2.564   0.850   6.817
 7730SOL    HW135221   2.559   0.793   6.734
 7730SOL    HW235222   2.579   0.944   6.791
 7731SOL     OW35223   4.088   3.884   7.474
 7731SOL    HW135224   4.124   3.802   7.519
 7731SOL    HW235225   4.026   3.931   7.535
 7732SOL     OW35226   4.285   2.073   7.461
 7732SOL    HW135227   4.350   2.115   7.397
 7732SOL    HW235228   4.246   1.992   7.420
 7733SOL     OW35229   8.166   5.876   7.322
 7733SOL    HW135230   8.201   5.963   7.284
 7733SOL    HW235231   8.150   5.812   7.248
 7734SOL     OW35232   0.480   3.734   7.426
 7734SOL    HW135233   0.452   3.784   7.343
 7734SOL    HW235234   0.572   3.699   7.415
 7735SOL     OW35235   2.094   6.519   7.476
 7735SOL    HW135236   2.059   6.472   7.394
 7735SOL    HW235237   2.072   6.465   7.556
 7736SOL     OW35238   3.693   7.021   6.779
 7736SOL    HW135239   3.645   7.026   6.867
 7736SOL    HW235240   3.759   6.946   6.781
 7737SOL     OW35241   1.425   0.839   7.346
 7737SOL    HW135242   1.422   0.885   7.257
 7737SOL    HW235243   1.422   0.741   7.333
 7738SOL     OW35244   5.981   2.696   7.258
 7738SOL    HW135245   5.993   2.636   7.178
 7738SOL    HW235246   5.911   2.764   7.236
 7739SOL     OW35247   2.590   1.455   7.384
 7739SOL    HW135248   2.545   1.502   7.307
 7739SOL    HW235249   2.686   1.439   7.361
 7740SOL     OW35250   6.284   1.053   7.291
 7740SOL    HW135251   6.233   1.051   7.205
 7740SOL    HW235252   6.231   1.007   7.362
 7741SOL     OW35253   7.432   5.638   6.929
 7741SOL    HW135254   7.388   5.710   6.874
 7741SOL    HW235255   7.401   5.549   6.898
 7742SOL     OW35256   5.763   7.792   7.192
 7742SOL    HW135257   5.770   7.755   7.285
 7742SOL    HW235258   5.750   7.891   7.197
 7743SOL     OW35259   4.334   1.763   7.111
 7743SOL    HW135260   4.246   1.781   7.156
 7743SOL    HW235261   4.328   1.789   7.015
 7744SOL     OW35262   5.581   6.198   7.031
 7744SOL    HW135263   5.635   6.154   7.104
 7744SOL    HW235264   5.636   6.267   6.986
 7745SOL     OW35265   6.666   2.131   6.924
 7745SOL    HW135266   6.713   2.059   6.976
 7745SOL    HW235267   6.595   2.172   6.979
 7746SOL     OW35268   7.631   7.842   7.330
 7746SOL    HW135269   7.598   7.935   7.308
 7746SOL    HW235270   7.690   7.846   7.410
 7747SOL     OW35271   6.175   3.926   7.410
 7747SOL    HW135272   6.104   3.986   7.371
 7747SOL    HW235273   6.229   3.887   7.337
 7748SOL     OW35274   8.544   2.295   7.414
 7748SOL    HW135275   8.518   2.379   7.463
 7748SOL    HW235276   8.537   2.218   7.476
 7749SOL     OW35277   3.527   1.235   7.030
 7749SOL    HW135278   3.587   1.211   6.953
 7749SOL    HW235279   3.432   1.224   7.002
 7750SOL     OW35280   5.272   5.752   7.338
 7750SOL    HW135281   5.369   5.740   7.362
 7750SOL    HW235282   5.237   5.667   7.302
 7751SOL     OW35283   5.718   4.268   6.979
 7751SOL    HW135284   5.787   4.268   6.906
 7751SOL    HW235285   5.634   4.226   6.947
 7752SOL     OW35286   9.203   0.141   7.435
 7752SOL    HW135287   9.153   0.149   7.521
 7752SOL    HW235288   9.219   0.232   7.397
 7753SOL     OW35289   3.561   0.974   6.821
 7753SOL    HW135290   3.463   0.990   6.836
 7753SOL    HW235291   3.606   0.959   6.909
 7754SOL     OW35292   8.311   2.682   7.118
 7754SOL    HW135293   8.286   2.611   7.185
 7754SOL    HW235294   8.379   2.742   7.158
 7755SOL     OW35295   6.879   4.181   7.430
 7755SOL    HW135296   6.939   4.219   7.501
 7755SOL    HW235297   6.789   4.164   7.469
 7756SOL     OW35298   7.700   8.020   6.795
 7756SOL    HW135299   7.629   8.018   6.723
 7756SOL    HW235300   7.751   7.935   6.792
 7757SOL     OW35301   5.827   2.381   7.367
 7757SOL    HW135302   5.833   2.346   7.273
 7757SOL    HW235303   5.772   2.464   7.368
 7758SOL     OW35304   6.873   4.876   7.307
 7758SOL    HW135305   6.908   4.902   7.397
 7758SOL    HW235306   6.798   4.812   7.318
 7759SOL     OW35307   2.132   0.701   7.044
 7759SOL    HW135308   2.169   0.788   7.009
 7759SOL    HW235309   2.121   0.637   6.969
 7760SOL     OW35310   5.891   8.374   6.891
 7760SOL    HW135311   5.981   8.331   6.904
 7760SOL    HW235312   5.844   8.329   6.816
 7761SOL     OW35313   1.972   8.080   6.872
 7761SOL    HW135314   1.923   8.040   6.793
 7761SOL    HW235315   2.033   8.012   6.911
 7762SOL     OW35316   4.059   4.178   7.349
 7762SOL    HW135317   4.133   4.115   7.376
 7762SOL    HW235318   3.974   4.128   7.343
 7763SOL     OW35319   2.030   5.906   7.507
 7763SOL    HW135320   2.039   5.836   7.579
 7763SOL    HW235321   1.973   5.871   7.434
 7764SOL     OW35322   7.588   5.146   7.352
 7764SOL    HW135323   7.583   5.184   7.259
 7764SOL    HW235324   7.571   5.048   7.348
 7765SOL     OW35325   8.744   2.771   6.984
 7765SOL    HW135326   8.687   2.744   6.905
 7765SOL    HW235327   8.777   2.690   7.030
 7766SOL     OW35328   9.055   2.266   7.245
 7766SOL    HW135329   9.013   2.243   7.333
 7766SOL    HW235330   9.112   2.190   7.215
 7767SOL     OW35331   2.253   6.252   7.091
 7767SOL    HW135332   2.194   6.296   7.159
 7767SOL    HW235333   2.208   6.253   7.003
 7768SOL     OW35334   7.569   2.284   7.195
 7768SOL    HW135335   7.623   2.315   7.274
 7768SOL    HW235336   7.590   2.188   7.177
 7769SOL     OW35337   1.647   2.139   7.140
 7769SOL    HW135338   1.733   2.162   7.093
 7769SOL    HW235339   1.610   2.220   7.183
 7770SOL     OW35340   5.790   2.616   7.402
 7770SOL    HW135341   5.804   2.710   7.436
 7770SOL    HW235342   5.817   2.611   7.306
 7771SOL     OW35343   0.490   8.427   6.912
 7771SOL    HW135344   0.528   8.511   6.952
 7771SOL    HW235345   0.420   8.392   6.972
 7772SOL     OW35346   5.210   5.144   6.860
 7772SOL    HW135347   5.203   5.153   6.960
 7772SOL    HW235348   5.167   5.060   6.831
 7773SOL     OW35349   9.354   2.212   6.810
 7773SOL    HW135350   9.350   2.128   6.754
 7773SOL    HW235351   9.318   2.288   6.757
 7774SOL     OW35352   8.584   6.701   6.744
 7774SOL    HW135353   8.569   6.756   6.826
 7774SOL    HW235354   8.591   6.605   6.770
 7775SOL     OW35355   8.536   4.347   6.852
 7775SOL    HW135356   8.633   4.341   6.876
 7775SOL    HW235357   8.525   4.326   6.755
 7776SOL     OW35358   2.869   2.186   7.234
 7776SOL    HW135359   2.950   2.166   7.178
 7776SOL    HW235360   2.797   2.223   7.175
 7777SOL     OW35361   4.054   7.353   7.246
 7777SOL    HW135362   4.107   7.437   7.258
 7777SOL    HW235363   4.046   7.332   7.149
 7778SOL     OW35364   3.546   1.467   7.149
 7778SOL    HW135365   3.613   1.492   7.219
 7778SOL    HW235366   3.470   1.531   7.153
 7779SOL     OW35367   8.430   7.129   6.916
 7779SOL    HW135368   8.363   7.077   6.970
 7779SOL    HW235369   8.392   7.219   6.894
 7780SOL     OW35370   7.771   1.690   7.159
 7780SOL    HW135371   7.851   1.720   7.211
 7780SOL    HW235372   7.763   1.591   7.165
 7781SOL     OW35373   3.848   3.595   7.086
 7781SOL    HW135374   3.939   3.591   7.044
 7781SOL    HW235375   3.781   3.626   7.019
 7782SOL     OW35376   2.432   5.532   7.400
 7782SOL    HW135377   2.424   5.442   7.356
 7782SOL    HW235378   2.500   5.586   7.352
 7783SOL     OW35379   6.034   4.990   7.397
 7783SOL    HW135380   6.089   4.998   7.481
 7783SOL    HW235381   6.068   5.054   7.329
 7784SOL     OW35382   3.113   3.178   7.059
 7784SOL    HW135383   3.017   3.197   7.085
 7784SOL    HW235384   3.168   3.172   7.141
 7785SOL     OW35385   7.615   5.583   7.448
 7785SOL    HW135386   7.713   5.604   7.460
 7785SOL    HW235387   7.589   5.511   7.512
 7786SOL     OW35388   8.062   7.706   7.142
 7786SOL    HW135389   8.041   7.705   7.240
 7786SOL    HW235390   8.155   7.739   7.128
 7787SOL     OW35391   7.458   5.077   6.961
 7787SOL    HW135392   7.363   5.103   6.985
 7787SOL    HW235393   7.492   5.138   6.891
 7788SOL     OW35394   4.593   7.516   7.340
 7788SOL    HW135395   4.672   7.461   7.369
 7788SOL    HW235396   4.588   7.517   7.240
 7789SOL     OW35397   5.232   0.712   7.434
 7789SOL    HW135398   5.172   0.778   7.480
 7789SOL    HW235399   5.224   0.624   7.479
 7790SOL     OW35400   1.167   4.129   6.902
 7790SOL    HW135401   1.095   4.149   6.969
 7790SOL    HW235402   1.227   4.059   6.937
 7791SOL     OW35403   9.334   3.617   6.942
 7791SOL    HW135404   9.371   3.694   6.995
 7791SOL    HW235405   9.408   3.554   6.920
 7792SOL     OW35406   4.886   8.286   7.474
 7792SOL    HW135407   4.834   8.350   7.531
 7792SOL    HW235408   4.823   8.230   7.421
 7793SOL     OW35409   4.462   1.533   7.026
 7793SOL    HW135410   4.475   1.600   7.099
 7793SOL    HW235411   4.445   1.443   7.066
 7794SOL     OW35412   7.362   2.482   7.235
 7794SOL    HW135413   7.452   2.441   7.215
 7794SOL    HW235414   7.333   2.537   7.158
 7795SOL     OW35415   5.200   1.739   7.382
 7795SOL    HW135416   5.236   1.789   7.303
 7795SOL    HW235417   5.207   1.641   7.365
 7796SOL     OW35418   5.718   2.468   7.082
 7796SOL    HW135419   5.773   2.390   7.114
 7796SOL    HW235420   5.641   2.481   7.143
 7797SOL     OW35421   4.371   3.671   7.230
 7797SOL    HW135422   4.400   3.736   7.301
 7797SOL    HW235423   4.444   3.606   7.213
 7798SOL     OW35424   6.903   0.611   7.142
 7798SOL    HW135425   6.837   0.676   7.105
 7798SOL    HW235426   6.878   0.518   7.114
 7799SOL     OW35427   5.629   4.490   6.920
 7799SOL    HW135428   5.664   4.448   7.004
 7799SOL    HW235429   5.639   4.589   6.925
 7800SOL     OW35430   7.949   6.540   7.067
 7800SOL    HW135431   7.941   6.453   7.117
 7800SOL    HW235432   7.964   6.614   7.132
 7801SOL     OW35433   7.652   6.268   7.246
 7801SOL    HW135434   7.649   6.196   7.316
 7801SOL    HW235435   7.684   6.352   7.287
 7802SOL     OW35436   9.019   0.078   7.032
 7802SOL    HW135437   8.920   0.098   7.025
 7802SOL    HW235438   9.043   0.008   6.966
 7803SOL     OW35439   0.586   7.929   7.476
 7803SOL    HW135440   0.587   7.965   7.570
 7803SOL    HW235441   0.564   7.832   7.477
 7804SOL     OW35442   0.402   2.993   7.064
 7804SOL    HW135443   0.366   2.944   6.984
 7804SOL    HW235444   0.445   3.077   7.034
 7805SOL     OW35445   4.363   0.715   7.438
 7805SOL    HW135446   4.283   0.654   7.435
 7805SOL    HW235447   4.438   0.668   7.483
 7806SOL     OW35448   8.882   7.300   7.208
 7806SOL    HW135449   8.953   7.281   7.140
 7806SOL    HW235450   8.924   7.324   7.295
 7807SOL     OW35451   6.533   4.643   7.249
 7807SOL    HW135452   6.584   4.599   7.324
 7807SOL    HW235453   6.570   4.734   7.232
 7808SOL     OW35454   5.941   6.310   6.795
 7808SOL    HW135455   5.943   6.396   6.743
 7808SOL    HW235456   5.923   6.235   6.732
 7809SOL     OW35457   9.271   6.812   7.020
 7809SOL    HW135458   9.183   6.807   7.068
 7809SOL    HW235459   9.326   6.733   7.044
 7810SOL     OW35460   7.902   1.495   7.434
 7810SOL    HW135461   7.999   1.519   7.423
 7810SOL    HW235462   7.885   1.407   7.391
 7811SOL     OW35463   7.875   6.070   7.122
 7811SOL    HW135464   7.798   6.090   7.060
 7811SOL    HW235465   7.906   5.977   7.107
 7812SOL     OW35466   3.582   1.890   7.498
 7812SOL    HW135467   3.597   1.952   7.420
 7812SOL    HW235468   3.624   1.802   7.479
 7813SOL     OW35469   6.909   3.071   6.862
 7813SOL    HW135470   6.986   3.125   6.827
 7813SOL    HW235471   6.853   3.040   6.787
 7814SOL     OW35472   1.881   7.466   7.192
 7814SOL    HW135473   1.943   7.412   7.136
 7814SOL    HW235474   1.824   7.404   7.246
 7815SOL     OW35475   4.551   7.826   7.448
 7815SOL    HW135476   4.532   7.913   7.495
 7815SOL    HW235477   4.546   7.751   7.513
 7816SOL     OW35478   0.302   0.137   6.826
 7816SOL    HW135479   0.297   0.038   6.843
 7816SOL    HW235480   0.258   0.186   6.901
 7817SOL     OW35481   9.239   2.421   7.157
 7817SOL    HW135482   9.224   2.391   7.252
 7817SOL    HW235483   9.310   2.491   7.156
 7818SOL     OW35484   9.003   6.462   7.276
 7818SOL    HW135485   9.093   6.480   7.234
 7818SOL    HW235486   8.935   6.522   7.236
 7819SOL     OW35487   0.835   2.969   6.801
 7819SOL    HW135488   0.916   2.915   6.776
 7819SOL    HW235489   0.755   2.931   6.755
 7820SOL     OW35490   3.164   1.790   7.017
 7820SOL    HW135491   3.161   1.710   6.956
 7820SOL    HW235492   3.143   1.872   6.965
 7821SOL     OW35493   4.665   2.010   7.371
 7821SOL    HW135494   4.746   2.066   7.348
 7821SOL    HW235495   4.584   2.066   7.366
 7822SOL     OW35496   4.463   7.998   7.217
 7822SOL    HW135497   4.409   7.957   7.144
 7822SOL    HW235498   4.405   8.014   7.296
 7823SOL     OW35499   3.678   4.512   7.506
 7823SOL    HW135500   3.694   4.611   7.506
 7823SOL    HW235501   3.705   4.475   7.417
 7824SOL     OW35502   5.153   3.756   7.404
 7824SOL    HW135503   5.249   3.726   7.401
 7824SOL    HW235504   5.138   3.810   7.486
 7825SOL     OW35505   5.255   1.014   7.436
 7825SOL    HW135506   5.211   1.083   7.494
 7825SOL    HW235507   5.344   0.991   7.473
 7826SOL     OW35508   8.547   6.103   7.377
 7826SOL    HW135509   8.466   6.090   7.319
 7826SOL    HW235510   8.615   6.156   7.327
 7827SOL     OW35511   3.435   5.223   6.796
 7827SOL    HW135512   3.465   5.136   6.755
 7827SOL    HW235513   3.498   5.249   6.867
 7828SOL     OW35514   8.268   1.574   7.527
 7828SOL    HW135515   8.347   1.556   7.587
 7828SOL    HW235516   8.261   1.502   7.459
 7829SOL     OW35517   7.597   5.302   7.010
 7829SOL    HW135518   7.646   5.235   6.953
 7829SOL    HW235519   7.520   5.338   6.959
 7830SOL     OW35520   0.372   7.011   7.430
 7830SOL    HW135521   0.464   6.999   7.467
 7830SOL    HW235522   0.316   7.060   7.495
 7831SOL     OW35523   6.513   2.236   7.399
 7831SOL    HW135524   6.479   2.153   7.445
 7831SOL    HW235525   6.525   2.217   7.302
 7832SOL     OW35526   2.936   0.549   7.408
 7832SOL    HW135527   2.930   0.649   7.402
 7832SOL    HW235528   2.990   0.524   7.487
 7833SOL     OW35529   4.368   6.698   7.076
 7833SOL    HW135530   4.311   6.765   7.026
 7833SOL    HW235531   4.450   6.678   7.023
 7834SOL     OW35532   3.784   4.043   7.144
 7834SOL    HW135533   3.826   3.992   7.069
 7834SOL    HW235534   3.685   4.037   7.137
 7835SOL     OW35535   5.631   0.624   7.199
 7835SOL    HW135536   5.538   0.627   7.236
 7835SOL    HW235537   5.679   0.544   7.235
 7836SOL     OW35538   2.586   6.807   6.777
 7836SOL    HW135539   2.512   6.828   6.842
 7836SOL    HW235540   2.554   6.739   6.712
 7837SOL     OW35541   8.108   4.954   7.042
 7837SOL    HW135542   8.046   4.942   7.120
 7837SOL    HW235543   8.199   4.922   7.067
 7838SOL     OW35544   5.346   0.043   6.723
 7838SOL    HW135545   5.281  -0.011   6.777
 7838SOL    HW235546   5.436   0.035   6.764
 7839SOL     OW35547   4.450   1.265   7.342
 7839SOL    HW135548   4.516   1.202   7.301
 7839SOL    HW235549   4.438   1.242   7.438
 7840SOL     OW35550   3.056   4.275   6.736
 7840SOL    HW135551   3.081   4.282   6.833
 7840SOL    HW235552   3.117   4.211   6.691
 7841SOL     OW35553   3.829   7.452   7.377
 7841SOL    HW135554   3.862   7.437   7.284
 7841SOL    HW235555   3.905   7.442   7.441
 7842SOL     OW35556   5.122   0.424   6.872
 7842SOL    HW135557   5.058   0.352   6.843
 7842SOL    HW235558   5.097   0.510   6.828
 7843SOL     OW35559   8.864   1.303   6.798
 7843SOL    HW135560   8.953   1.337   6.830
 7843SOL    HW235561   8.797   1.376   6.804
 7844SOL     OW35562   0.114   3.634   6.994
 7844SOL    HW135563   0.091   3.561   6.929
 7844SOL    HW235564   0.177   3.598   7.063
 7845SOL     OW35565   5.563   8.244   6.897
 7845SOL    HW135566   5.657   8.211   6.911
 7845SOL    HW235567   5.560   8.298   6.813
 7846SOL     OW35568   1.321   8.426   7.347
 7846SOL    HW135569   1.273   8.463   7.267
 7846SOL    HW235570   1.323   8.494   7.419
 7847SOL     OW35571   5.187   5.137   7.265
 7847SOL    HW135572   5.234   5.088   7.191
 7847SOL    HW235573   5.217   5.231   7.266
 7848SOL     OW35574   2.502   6.554   6.740
 7848SOL    HW135575   2.472   6.552   6.836
 7848SOL    HW235576   2.588   6.504   6.732
 7849SOL     OW35577   2.109   2.355   6.813
 7849SOL    HW135578   2.054   2.319   6.737
 7849SOL    HW235579   2.194   2.303   6.820
 7850SOL     OW35580   1.697   5.644   7.278
 7850SOL    HW135581   1.661   5.704   7.205
 7850SOL    HW235582   1.720   5.556   7.240
 7851SOL     OW35583   1.935   5.449   7.330
 7851SOL    HW135584   1.948   5.380   7.258
 7851SOL    HW235585   1.898   5.532   7.289
 7852SOL     OW35586   6.680   3.384   7.198
 7852SOL    HW135587   6.698   3.289   7.174
 7852SOL    HW235588   6.604   3.418   7.143
 7853SOL     OW35589   0.078   6.827   7.396
 7853SOL    HW135590   0.142   6.858   7.326
 7853SOL    HW235591   0.018   6.758   7.359
 7854SOL     OW35592   0.273   6.443   7.019
 7854SOL    HW135593   0.302   6.357   7.063
 7854SOL    HW235594   0.290   6.519   7.080
 7855SOL     OW35595   7.077   4.621   7.331
 7855SOL    HW135596   7.101   4.555   7.259
 7855SOL    HW235597   7.010   4.685   7.295
 7856SOL     OW35598   8.126   5.723   6.778
 7856SOL    HW135599   8.223   5.701   6.789
 7856SOL    HW235600   8.080   5.648   6.732
 7857SOL     OW35601   1.768   2.952   7.376
 7857SOL    HW135602   1.682   2.942   7.427
 7857SOL    HW235603   1.747   2.974   7.281
 7858SOL     OW35604   7.427   1.701   6.757
 7858SOL    HW135605   7.519   1.683   6.792
 7858SOL    HW235606   7.360   1.658   6.817
 7859SOL     OW35607   9.269   4.961   6.801
 7859SOL    HW135608   9.240   5.043   6.851
 7859SOL    HW235609   9.245   4.880   6.855
 7860SOL     OW35610   7.146   4.781   7.522
 7860SOL    HW135611   7.050   4.799   7.496
 7860SOL    HW235612   7.192   4.735   7.447
 7861SOL     OW35613   8.209   4.334   6.997
 7861SOL    HW135614   8.232   4.238   7.019
 7861SOL    HW235615   8.114   4.351   7.018
 7862SOL     OW35616   7.448   7.648   7.349
 7862SOL    HW135617   7.423   7.710   7.424
 7862SOL    HW235618   7.545   7.626   7.355
 7863SOL     OW35619   2.407   2.855   7.364
 7863SOL    HW135620   2.470   2.784   7.398
 7863SOL    HW235621   2.321   2.814   7.338
 7864SOL     OW35622   6.687   4.357   7.273
 7864SOL    HW135623   6.750   4.283   7.299
 7864SOL    HW235624   6.629   4.326   7.199
 7865SOL     OW35625   8.177   0.035   6.890
 7865SOL    HW135626   8.151  -0.053   6.931
 7865SOL    HW235627   8.095   0.089   6.873
 7866SOL     OW35628   5.327   1.417   6.812
 7866SOL    HW135629   5.426   1.426   6.799
 7866SOL    HW235630   5.281   1.434   6.726
 7867SOL     OW35631   5.958   2.117   7.251
 7867SOL    HW135632   6.050   2.110   7.212
 7867SOL    HW235633   5.944   2.043   7.316
 7868SOL     OW35634   4.876   0.738   7.139
 7868SOL    HW135635   4.914   0.808   7.077
 7868SOL    HW235636   4.949   0.677   7.168
 7869SOL     OW35637   5.117   7.117   7.430
 7869SOL    HW135638   5.034   7.156   7.471
 7869SOL    HW235639   5.143   7.035   7.480
 7870SOL     OW35640   7.893   4.930   7.000
 7870SOL    HW135641   7.946   5.012   7.024
 7870SOL    HW235642   7.936   4.883   6.924
 7871SOL     OW35643   0.140   0.476   6.883
 7871SOL    HW135644   0.189   0.496   6.969
 7871SOL    HW235645   0.206   0.458   6.811
 7872SOL     OW35646   0.297   0.772   7.247
 7872SOL    HW135647   0.330   0.865   7.226
 7872SOL    HW235648   0.367   0.723   7.297
 7873SOL     OW35649   0.316   3.239   7.513
 7873SOL    HW135650   0.236   3.297   7.497
 7873SOL    HW235651   0.292   3.144   7.494
 7874SOL     OW35652   3.328   2.814   6.805
 7874SOL    HW135653   3.382   2.869   6.740
 7874SOL    HW235654   3.231   2.833   6.791
 7875SOL     OW35655   6.610   5.561   6.806
 7875SOL    HW135656   6.708   5.543   6.795
 7875SOL    HW235657   6.590   5.577   6.902
 7876SOL     OW35658   0.544   3.051   6.764
 7876SOL    HW135659   0.522   3.008   6.852
 7876SOL    HW235660   0.507   3.143   6.762
 7877SOL     OW35661   5.043   1.162   6.709
 7877SOL    HW135662   4.991   1.131   6.789
 7877SOL    HW235663   5.127   1.205   6.740
 7878SOL     OW35664   6.019   3.916   7.187
 7878SOL    HW135665   5.990   3.934   7.282
 7878SOL    HW235666   6.074   3.991   7.154
 7879SOL     OW35667   4.954   1.241   6.908
 7879SOL    HW135668   4.910   1.293   6.981
 7879SOL    HW235669   5.052   1.238   6.924
 7880SOL     OW35670   1.987   0.854   7.162
 7880SOL    HW135671   2.083   0.833   7.138
 7880SOL    HW235672   1.954   0.929   7.106
 7881SOL     OW35673   3.123   5.911   7.203
 7881SOL    HW135674   3.200   5.897   7.266
 7881SOL    HW235675   3.089   5.822   7.173
 7882SOL     OW35676   5.519   6.314   6.730
 7882SOL    HW135677   5.608   6.269   6.744
 7882SOL    HW235678   5.446   6.247   6.745
 7883SOL     OW35679   3.065   8.473   7.171
 7883SOL    HW135680   2.977   8.507   7.207
 7883SOL    HW235681   3.091   8.391   7.221
 7884SOL     OW35682   7.847   3.375   7.092
 7884SOL    HW135683   7.801   3.410   7.010
 7884SOL    HW235684   7.882   3.284   7.075
 7885SOL     OW35685   5.415   6.935   7.216
 7885SOL    HW135686   5.319   6.963   7.221
 7885SOL    HW235687   5.440   6.917   7.121
 7886SOL     OW35688   5.293   2.552   7.469
 7886SOL    HW135689   5.314   2.553   7.371
 7886SOL    HW235690   5.362   2.498   7.517
 7887SOL     OW35691   4.255   1.656   7.388
 7887SOL    HW135692   4.337   1.609   7.422
 7887SOL    HW235693   4.207   1.595   7.325
 7888SOL     OW35694   6.864   0.433   7.529
 7888SOL    HW135695   6.835   0.349   7.482
 7888SOL    HW235696   6.918   0.489   7.467
 7889SOL     OW35697   8.645   4.482   7.086
 7889SOL    HW135698   8.613   4.407   7.026
 7889SOL    HW235699   8.702   4.544   7.032
 7890SOL     OW35700   1.691   1.569   7.187
 7890SOL    HW135701   1.708   1.512   7.106
 7890SOL    HW235702   1.593   1.579   7.199
 7891SOL     OW35703   9.154   4.987   7.254
 7891SOL    HW135704   9.201   5.037   7.180
 7891SOL    HW235705   9.122   4.899   7.220
 7892SOL     OW35706   8.902   5.281   7.257
 7892SOL    HW135707   8.908   5.181   7.245
 7892SOL    HW235708   8.959   5.325   7.189
 7893SOL     OW35709   5.168   7.424   7.018
 7893SOL    HW135710   5.258   7.435   7.062
 7893SOL    HW235711   5.098   7.457   7.079
 7894SOL     OW35712   3.425   6.406   7.481
 7894SOL    HW135713   3.375   6.447   7.558
 7894SOL    HW235714   3.476   6.327   7.514
 7895SOL     OW35715   5.512   0.561   6.755
 7895SOL    HW135716   5.474   0.531   6.667
 7895SOL    HW235717   5.528   0.483   6.813
 7896SOL     OW35718   9.194   6.467   7.424
 7896SOL    HW135719   9.256   6.495   7.497
 7896SOL    HW235720   9.100   6.474   7.456
 7897SOL     OW35721   5.103   2.313   7.256
 7897SOL    HW135722   5.164   2.261   7.195
 7897SOL    HW235723   5.151   2.393   7.289
 7898SOL     OW35724   5.036   1.477   6.897
 7898SOL    HW135725   5.000   1.564   6.931
 7898SOL    HW235726   4.970   1.435   6.835
 7899SOL     OW35727   8.208   1.926   7.353
 7899SOL    HW135728   8.294   1.901   7.309
 7899SOL    HW235729   8.225   1.960   7.445
 7900SOL     OW35730   4.141   0.877   7.542
 7900SOL    HW135731   4.088   0.868   7.457
 7900SOL    HW235732   4.227   0.921   7.523
 7901SOL     OW35733   6.644   2.811   7.172
 7901SOL    HW135734   6.657   2.867   7.089
 7901SOL    HW235735   6.622   2.718   7.146
 7902SOL     OW35736   1.580   6.477   6.741
 7902SOL    HW135737   1.635   6.406   6.788
 7902SOL    HW235738   1.572   6.557   6.799
 7903SOL     OW35739   2.784   3.013   7.525
 7903SOL    HW135740   2.798   2.936   7.588
 7903SOL    HW235741   2.789   2.981   7.432
 7904SOL     OW35742   0.783   5.090   7.365
 7904SOL    HW135743   0.872   5.069   7.323
 7904SOL    HW235744   0.710   5.051   7.310
 7905SOL     OW35745   1.054   0.065   7.320
 7905SOL    HW135746   1.126   0.004   7.354
 7905SOL    HW235747   1.053   0.148   7.375
 7906SOL     OW35748   0.300   5.987   7.326
 7906SOL    HW135749   0.205   5.962   7.305
 7906SOL    HW235750   0.307   6.012   7.422
 7907SOL     OW35751   6.410   4.136   7.416
 7907SOL    HW135752   6.470   4.091   7.483
 7907SOL    HW235753   6.380   4.224   7.452
 7908SOL     OW35754   3.258   0.712   7.462
 7908SOL    HW135755   3.270   0.805   7.428
 7908SOL    HW235756   3.305   0.648   7.401
 7909SOL     OW35757   7.791   3.658   7.168
 7909SOL    HW135758   7.863   3.610   7.116
 7909SOL    HW235759   7.704   3.647   7.121
 7910SOL     OW35760   7.979   5.198   7.230
 7910SOL    HW135761   7.947   5.116   7.182
 7910SOL    HW235762   7.970   5.277   7.170
 7911SOL     OW35763   2.335   6.773   6.944
 7911SOL    HW135764   2.353   6.682   6.906
 7911SOL    HW235765   2.264   6.767   7.013
 7912SOL     OW35766   6.790   8.364   7.466
 7912SOL    HW135767   6.854   8.340   7.540
 7912SOL    HW235768   6.729   8.288   7.449
 7913SOL     OW35769   6.289   4.132   6.949
 7913SOL    HW135770   6.241   4.047   6.924
 7913SOL    HW235771   6.384   4.111   6.970
 7914SOL     OW35772   7.594   0.074   7.125
 7914SOL    HW135773   7.622   0.170   7.130
 7914SOL    HW235774   7.515   0.066   7.065
 7915SOL     OW35775   6.991   4.371   7.440
 7915SOL    HW135776   7.032   4.434   7.508
 7915SOL    HW235777   7.043   4.377   7.356
 7916SOL     OW35778   0.936   2.414   7.285
 7916SOL    HW135779   0.857   2.359   7.316
 7916SOL    HW235780   0.911   2.462   7.202
 7917SOL     OW35781   0.893   8.173   7.187
 7917SOL    HW135782   0.972   8.130   7.141
 7917SOL    HW235783   0.922   8.253   7.237
 7918SOL     OW35784   6.397   8.458   7.487
 7918SOL    HW135785   6.385   8.394   7.563
 7918SOL    HW235786   6.467   8.525   7.512
 7919SOL     OW35787   3.871   5.309   6.968
 7919SOL    HW135788   3.955   5.274   6.926
 7919SOL    HW235789   3.816   5.354   6.898
 7920SOL     OW35790   3.445   0.837   6.739
 7920SOL    HW135791   3.404   0.765   6.682
 7920SOL    HW235792   3.409   0.829   6.832
 7921SOL     OW35793   1.900   3.174   7.418
 7921SOL    HW135794   1.897   3.127   7.329
 7921SOL    HW235795   1.828   3.241   7.422
 7922SOL     OW35796   5.724   7.241   7.372
 7922SOL    HW135797   5.738   7.165   7.307
 7922SOL    HW235798   5.671   7.208   7.449
 7923SOL     OW35799   8.775   5.709   7.448
 7923SOL    HW135800   8.822   5.797   7.430
 7923SOL    HW235801   8.805   5.642   7.381
 7924SOL     OW35802   3.833   2.942   6.873
 7924SOL    HW135803   3.887   3.016   6.832
 7924SOL    HW235804   3.859   2.855   6.832
 7925SOL     OW35805   5.121   8.038   6.876
 7925SOL    HW135806   5.140   8.129   6.915
 7925SOL    HW235807   5.086   7.978   6.947
 7926SOL     OW35808   2.181   1.263   7.472
 7926SOL    HW135809   2.097   1.235   7.425
 7926SOL    HW235810   2.205   1.356   7.443
 7927SOL     OW35811   9.186   6.225   6.703
 7927SOL    HW135812   9.215   6.149   6.762
 7927SOL    HW235813   9.176   6.307   6.758
 7928SOL     OW35814   7.235   7.438   7.444
 7928SOL    HW135815   7.254   7.452   7.346
 7928SOL    HW235816   7.282   7.357   7.475
 7929SOL     OW35817   0.901   7.723   6.975
 7929SOL    HW135818   0.914   7.815   6.937
 7929SOL    HW235819   0.954   7.658   6.922
 7930SOL     OW35820   3.239   7.620   6.912
 7930SOL    HW135821   3.302   7.581   6.979
 7930SOL    HW235822   3.191   7.697   6.953
 7931SOL     OW35823   0.893   4.641   7.451
 7931SOL    HW135824   0.849   4.583   7.520
 7931SOL    HW235825   0.975   4.682   7.490
 7932SOL     OW35826   3.407   2.068   7.004
 7932SOL    HW135827   3.456   1.983   6.981
 7932SOL    HW235828   3.473   2.142   7.012
 7933SOL     OW35829   3.354   0.971   7.475
 7933SOL    HW135830   3.279   0.925   7.524
 7933SOL    HW235831   3.315   1.033   7.407
 7934SOL     OW35832   2.980   7.800   7.202
 7934SOL    HW135833   2.918   7.842   7.269
 7934SOL    HW235834   3.024   7.722   7.243
 7935SOL     OW35835   0.231   2.669   6.933
 7935SOL    HW135836   0.145   2.716   6.955
 7935SOL    HW235837   0.268   2.705   6.848
 7936SOL     OW35838   0.261   2.331   7.028
 7936SOL    HW135839   0.199   2.386   6.971
 7936SOL    HW235840   0.259   2.366   7.121
 7937SOL     OW35841   7.963   3.134   7.340
 7937SOL    HW135842   7.981   3.190   7.259
 7937SOL    HW235843   8.015   3.049   7.334
 7938SOL     OW35844   2.910   6.709   7.381
 7938SOL    HW135845   2.988   6.648   7.391
 7938SOL    HW235846   2.851   6.676   7.307
 7939SOL     OW35847   1.664   3.140   6.748
 7939SOL    HW135848   1.611   3.098   6.822
 7939SOL    HW235849   1.749   3.176   6.785
 7940SOL     OW35850   2.808   5.507   7.113
 7940SOL    HW135851   2.845   5.423   7.071
 7940SOL    HW235852   2.745   5.551   7.049
 7941SOL     OW35853   4.688   4.720   7.363
 7941SOL    HW135854   4.776   4.684   7.332
 7941SOL    HW235855   4.637   4.754   7.284
 7942SOL     OW35856   7.821   1.917   6.753
 7942SOL    HW135857   7.912   1.873   6.750
 7942SOL    HW235858   7.808   1.959   6.842
 7943SOL     OW35859   8.420   2.676   6.760
 7943SOL    HW135860   8.349   2.734   6.801
 7943SOL    HW235861   8.487   2.652   6.829
 7944SOL     OW35862   1.525   0.451   7.084
 7944SOL    HW135863   1.584   0.494   7.014
 7944SOL    HW235864   1.504   0.358   7.056
 7945SOL     OW35865   3.192   1.167   7.270
 7945SOL    HW135866   3.249   1.227   7.327
 7945SOL    HW235867   3.206   1.072   7.297
 7946SOL     OW35868   4.002   3.210   6.780
 7946SOL    HW135869   3.957   3.213   6.690
 7946SOL    HW235870   4.099   3.227   6.769
 7947SOL     OW35871   5.367   8.227   7.044
 7947SOL    HW135872   5.347   8.274   7.130
 7947SOL    HW235873   5.383   8.130   7.063
 7948SOL     OW35874   5.749   6.828   7.033
 7948SOL    HW135875   5.733   6.852   7.129
 7948SOL    HW235876   5.674   6.774   6.999
 7949SOL     OW35877   0.040   0.233   7.293
 7949SOL    HW135878   0.092   0.243   7.208
 7949SOL    HW235879  -0.057   0.228   7.271
 7950SOL     OW35880   9.240   8.432   6.839
 7950SOL    HW135881   9.222   8.459   6.744
 7950SOL    HW235882   9.319   8.371   6.842
 7951SOL     OW35883   8.112   2.729   6.980
 7951SOL    HW135884   8.033   2.703   6.924
 7951SOL    HW235885   8.104   2.687   7.070
 7952SOL     OW35886   4.435   4.213   7.192
 7952SOL    HW135887   4.378   4.259   7.262
 7952SOL    HW235888   4.472   4.129   7.230
 7953SOL     OW35889   4.318   7.087   7.197
 7953SOL    HW135890   4.299   7.178   7.161
 7953SOL    HW235891   4.238   7.052   7.245
 7954SOL     OW35892   5.148   6.452   7.427
 7954SOL    HW135893   5.208   6.372   7.419
 7954SOL    HW235894   5.192   6.530   7.384
 7955SOL     OW35895   1.438   2.779   6.771
 7955SOL    HW135896   1.496   2.860   6.787
 7955SOL    HW235897   1.351   2.792   6.816
 7956SOL     OW35898   4.520   6.052   7.258
 7956SOL    HW135899   4.486   6.138   7.220
 7956SOL    HW235900   4.516   5.981   7.188
 7957SOL     OW35901   5.569   1.065   7.289
 7957SOL    HW135902   5.563   0.968   7.316
 7957SOL    HW235903   5.593   1.120   7.368
 7958SOL     OW35904   5.219   7.528   7.472
 7958SOL    HW135905   5.247   7.488   7.384
 7958SOL    HW235906   5.273   7.610   7.489
 7959SOL     OW35907   8.626   8.112   7.301
 7959SOL    HW135908   8.643   8.192   7.243
 7959SOL    HW235909   8.626   8.029   7.245
 7960SOL     OW35910   6.229   8.262   7.163
 7960SOL    HW135911   6.198   8.168   7.149
 7960SOL    HW235912   6.294   8.265   7.238
 7961SOL     OW35913   6.385   7.995   7.027
 7961SOL    HW135914   6.466   8.014   6.972
 7961SOL    HW235915   6.311   7.964   6.968
 7962SOL     OW35916   6.145   3.697   7.181
 7962SOL    HW135917   6.212   3.660   7.117
 7962SOL    HW235918   6.088   3.764   7.135
 7963SOL     OW35919   8.491   7.399   7.521
 7963SOL    HW135920   8.476   7.496   7.499
 7963SOL    HW235921   8.588   7.378   7.514
 7964SOL     OW35922   1.425   6.393   6.766
 7964SOL    HW135923   1.449   6.314   6.709
 7964SOL    HW235924   1.416   6.363   6.860
 7965SOL     OW35925   1.330   1.034   7.478
 7965SOL    HW135926   1.375   1.115   7.518
 7965SOL    HW235927   1.329   0.961   7.545
 7966SOL     OW35928   4.490   6.787   6.723
 7966SOL    HW135929   4.436   6.745   6.796
 7966SOL    HW235930   4.577   6.818   6.760
 7967SOL     OW35931   6.912   6.942   7.260
 7967SOL    HW135932   6.862   7.001   7.324
 7967SOL    HW235933   6.934   6.856   7.305
 7968SOL     OW35934   6.021   5.754   7.029
 7968SOL    HW135935   6.003   5.660   7.059
 7968SOL    HW235936   6.113   5.760   6.993
 7969SOL     OW35937   7.386   6.542   6.779
 7969SOL    HW135938   7.485   6.524   6.770
 7969SOL    HW235939   7.370   6.604   6.855
 7970SOL     OW35940   2.789   4.561   6.841
 7970SOL    HW135941   2.705   4.547   6.788
 7970SOL    HW235942   2.865   4.578   6.779
 7971SOL     OW35943   1.428   2.065   7.031
 7971SOL    HW135944   1.357   2.135   7.039
 7971SOL    HW235945   1.397   1.981   7.075
 7972SOL     OW35946   8.327   0.685   6.873
 7972SOL    HW135947   8.285   0.636   6.796
 7972SOL    HW235948   8.331   0.783   6.852
 7973SOL     OW35949   5.975   6.619   7.339
 7973SOL    HW135950   5.940   6.542   7.284
 7973SOL    HW235951   6.012   6.585   7.424
 7974SOL     OW35952   1.286   3.726   6.755
 7974SOL    HW135953   1.363   3.705   6.815
 7974SOL    HW235954   1.315   3.791   6.685
 7975SOL     OW35955   4.068   2.549   7.178
 7975SOL    HW135956   4.052   2.471   7.239
 7975SOL    HW235957   4.131   2.613   7.222
 7976SOL     OW35958   2.115   0.102   7.224
 7976SOL    HW135959   2.149   0.102   7.319
 7976SOL    HW235960   2.144   0.185   7.179
 7977SOL     OW35961   9.260   8.035   7.333
 7977SOL    HW135962   9.305   7.980   7.262
 7977SOL    HW235963   9.198   8.100   7.291
 7978SOL     OW35964   4.161   2.379   6.791
 7978SOL    HW135965   4.148   2.328   6.705
 7978SOL    HW235966   4.096   2.347   6.858
 7979SOL     OW35967   0.767   2.465   7.046
 7979SOL    HW135968   0.784   2.379   6.998
 7979SOL    HW235969   0.747   2.537   6.980
 7980SOL     OW35970   2.709   0.837   7.385
 7980SOL    HW135971   2.727   0.868   7.478
 7980SOL    HW235972   2.683   0.741   7.387
 7981SOL     OW35973   6.059   7.133   6.911
 7981SOL    HW135974   6.131   7.153   6.844
 7981SOL    HW235975   5.970   7.148   6.868
 7982SOL     OW35976   1.837   5.503   6.990
 7982SOL    HW135977   1.764   5.442   7.025
 7982SOL    HW235978   1.795   5.582   6.947
 7983SOL     OW35979   7.164   7.947   7.094
 7983SOL    HW135980   7.122   7.974   7.181
 7983SOL    HW235981   7.159   8.022   7.030
 7984SOL     OW35982   9.354   7.678   7.412
 7984SOL    HW135983   9.302   7.613   7.355
 7984SOL    HW235984   9.364   7.764   7.362
 7985SOL     OW35985   7.958   7.598   6.816
 7985SOL    HW135986   7.967   7.698   6.817
 7985SOL    HW235987   7.869   7.572   6.853
 7986SOL     OW35988   3.472   2.564   7.155
 7986SOL    HW135989   3.565   2.577   7.120
 7986SOL    HW235990   3.416   2.520   7.086
 7987SOL     OW35991   1.981   4.603   7.354
 7987SOL    HW135992   2.016   4.639   7.440
 7987SOL    HW235993   1.883   4.616   7.350
 7988SOL     OW35994   9.143   4.703   7.477
 7988SOL    HW135995   9.192   4.781   7.518
 7988SOL    HW235996   9.050   4.702   7.512
 7989SOL     OW35997   7.553   0.896   7.055
 7989SOL    HW135998   7.633   0.913   6.998
 7989SOL    HW235999   7.476   0.871   6.997
 7990SOL     OW36000   2.497   1.452   6.951
 7990SOL    HW136001   2.548   1.368   6.974
 7990SOL    HW236002   2.549   1.504   6.884
 7991SOL     OW36003   9.150   5.879   6.824
 7991SOL    HW136004   9.219   5.805   6.820
 7991SOL    HW236005   9.116   5.886   6.917
 7992SOL     OW36006   3.950   1.661   6.958
 7992SOL    HW136007   3.992   1.662   7.049
 7992SOL    HW236008   4.016   1.692   6.891
 7993SOL     OW36009   6.593   4.585   6.861
 7993SOL    HW136010   6.662   4.655   6.883
 7993SOL    HW236011   6.558   4.601   6.769
 7994SOL     OW36012   1.481   8.347   7.113
 7994SOL    HW136013   1.564   8.327   7.061
 7994SOL    HW236014   1.442   8.433   7.080
 7995SOL     OW36015   4.733   5.640   7.078
 7995SOL    HW136016   4.737   5.709   7.005
 7995SOL    HW236017   4.765   5.553   7.042
 7996SOL     OW36018   3.678   2.739   7.322
 7996SOL    HW136019   3.583   2.751   7.291
 7996SOL    HW236020   3.683   2.663   7.386
 7997SOL     OW36021   3.346   2.988   7.407
 7997SOL    HW136022   3.315   3.074   7.366
 7997SOL    HW236023   3.381   3.006   7.498
 7998SOL     OW36024   8.465   2.470   7.214
 7998SOL    HW136025   8.432   2.549   7.266
 7998SOL    HW236026   8.447   2.386   7.265
 7999SOL     OW36027   6.223   0.681   7.365
 7999SOL    HW136028   6.278   0.657   7.284
 7999SOL    HW236029   6.172   0.764   7.346
 8000SOL     OW36030   6.412   5.725   7.320
 8000SOL    HW136031   6.362   5.723   7.233
 8000SOL    HW236032   6.503   5.761   7.305
 8001SOL     OW36033   3.505   3.351   7.242
 8001SOL    HW136034   3.567   3.277   7.269
 8001SOL    HW236035   3.455   3.383   7.322
 8002SOL     OW36036   4.375   5.895   7.106
 8002SOL    HW136037   4.343   5.886   7.201
 8002SOL    HW236038   4.378   5.991   7.081
 8003SOL     OW36039   4.222   3.198   6.879
 8003SOL    HW136040   4.145   3.237   6.930
 8003SOL    HW236041   4.264   3.126   6.933
 8004SOL     OW36042   9.203   2.540   6.872
 8004SOL    HW136043   9.213   2.498   6.782
 8004SOL    HW236044   9.170   2.472   6.937
 8005SOL     OW36045   5.156   5.348   7.362
 8005SOL    HW136046   5.095   5.316   7.290
 8005SOL    HW236047   5.163   5.278   7.433
 8006SOL     OW36048   7.944   0.047   6.821
 8006SOL    HW136049   7.936  -0.038   6.873
 8006SOL    HW236050   7.939   0.124   6.884
 8007SOL     OW36051   3.492   0.194   6.950
 8007SOL    HW136052   3.438   0.272   6.984
 8007SOL    HW236053   3.430   0.124   6.917
 8008SOL     OW36054   0.855   3.731   6.778
 8008SOL    HW136055   0.773   3.706   6.830
 8008SOL    HW236056   0.861   3.675   6.697
 8009SOL     OW36057   2.327   6.580   7.400
 8009SOL    HW136058   2.319   6.671   7.441
 8009SOL    HW236059   2.386   6.584   7.321
 8010SOL     OW36060   4.223   6.735   7.547
 8010SOL    HW136061   4.296   6.675   7.515
 8010SOL    HW236062   4.153   6.744   7.476
 8011SOL     OW36063   3.936   3.757   6.823
 8011SOL    HW136064   3.930   3.857   6.822
 8011SOL    HW236065   3.849   3.718   6.849
 8012SOL     OW36066   2.737   5.755   7.051
 8012SOL    HW136067   2.812   5.806   7.095
 8012SOL    HW236068   2.754   5.748   6.954
 8013SOL     OW36069   2.350   3.673   6.713
 8013SOL    HW136070   2.257   3.710   6.723
 8013SOL    HW236071   2.399   3.682   6.799
 8014SOL     OW36072   1.236   3.279   7.011
 8014SOL    HW136073   1.196   3.263   7.102
 8014SOL    HW236074   1.202   3.210   6.948
 8015SOL     OW36075   1.560   4.317   7.254
 8015SOL    HW136076   1.551   4.218   7.236
 8015SOL    HW236077   1.656   4.339   7.264
 8016SOL     OW36078   2.705   1.852   6.921
 8016SOL    HW136079   2.652   1.892   6.996
 8016SOL    HW236080   2.753   1.771   6.954
 8017SOL     OW36081   3.175   1.678   7.170
 8017SOL    HW136082   3.249   1.626   7.126
 8017SOL    HW236083   3.096   1.681   7.109
 8018SOL     OW36084   8.392   0.550   7.019
 8018SOL    HW136085   8.467   0.507   7.069
 8018SOL    HW236086   8.361   0.488   6.947
 8019SOL     OW36087   4.354   2.350   7.352
 8019SOL    HW136088   4.323   2.419   7.286
 8019SOL    HW236089   4.416   2.286   7.306
 8020SOL     OW36090   4.759   7.344   6.749
 8020SOL    HW136091   4.744   7.444   6.747
 8020SOL    HW236092   4.856   7.326   6.750
 8021SOL     OW36093   3.508   4.311   7.442
 8021SOL    HW136094   3.422   4.259   7.445
 8021SOL    HW236095   3.576   4.267   7.500
 8022SOL     OW36096   6.866   0.866   7.024
 8022SOL    HW136097   6.918   0.849   6.939
 8022SOL    HW236098   6.910   0.938   7.075
 8023SOL     OW36099   8.755   8.256   7.024
 8023SOL    HW136100   8.821   8.286   7.093
 8023SOL    HW236101   8.663   8.273   7.056
 8024SOL     OW36102   2.169   5.974   7.397
 8024SOL    HW136103   2.140   6.069   7.411
 8024SOL    HW236104   2.267   5.972   7.379
 8025SOL     OW36105   7.284   3.260   7.319
 8025SOL    HW136106   7.241   3.239   7.407
 8025SOL    HW236107   7.373   3.216   7.315
 8026SOL     OW36108   9.366   1.022   6.764
 8026SOL    HW136109   9.416   0.970   6.834
 8026SOL    HW236110   9.339   1.110   6.801
 8027SOL     OW36111   7.773   6.823   6.945
 8027SOL    HW136112   7.691   6.870   6.911
 8027SOL    HW236113   7.758   6.796   7.040
 8028SOL     OW36114   6.649   0.558   6.702
 8028SOL    HW136115   6.559   0.567   6.747
 8028SOL    HW236116   6.713   0.516   6.765
 8029SOL     OW36117   1.935   1.276   7.086
 8029SOL    HW136118   1.922   1.211   7.011
 8029SOL    HW236119   2.010   1.246   7.143
 8030SOL     OW36120   4.803   1.889   6.936
 8030SOL    HW136121   4.885   1.859   6.987
 8030SOL    HW236122   4.735   1.921   7.000
 8031SOL     OW36123   5.559   2.384   6.857
 8031SOL    HW136124   5.483   2.353   6.914
 8031SOL    HW236125   5.534   2.469   6.811
 8032SOL     OW36126   4.381   6.450   7.060
 8032SOL    HW136127   4.441   6.424   6.984
 8032SOL    HW236128   4.338   6.537   7.039
 8033SOL     OW36129   5.577   1.459   7.016
 8033SOL    HW136130   5.658   1.409   6.982
 8033SOL    HW236131   5.591   1.480   7.113
 8034SOL     OW36132   7.264   0.744   7.248
 8034SOL    HW136133   7.361   0.718   7.258
 8034SOL    HW236134   7.259   0.838   7.215
 8035SOL     OW36135   4.878   1.083   7.227
 8035SOL    HW136136   4.901   1.027   7.307
 8035SOL    HW236137   4.905   1.178   7.245
 8036SOL     OW36138   1.901   8.492   7.032
 8036SOL    HW136139   1.809   8.468   7.065
 8036SOL    HW236140   1.969   8.454   7.094
 8037SOL     OW36141   4.242   4.246   7.068
 8037SOL    HW136142   4.279   4.324   7.119
 8037SOL    HW236143   4.213   4.175   7.132
 8038SOL     OW36144   3.600   7.968   6.892
 8038SOL    HW136145   3.633   7.924   6.808
 8038SOL    HW236146   3.583   8.064   6.874
 8039SOL     OW36147   0.216   8.036   6.996
 8039SOL    HW136148   0.283   7.996   6.934
 8039SOL    HW236149   0.158   8.100   6.947
 8040SOL     OW36150   4.545   8.089   6.937
 8040SOL    HW136151   4.592   8.131   7.015
 8040SOL    HW236152   4.467   8.037   6.970
 8041SOL     OW36153   4.264   4.010   7.119
 8041SOL    HW136154   4.169   4.039   7.135
 8041SOL    HW236155   4.305   4.067   7.049
 8042SOL     OW36156   6.486   1.574   7.343
 8042SOL    HW136157   6.438   1.655   7.307
 8042SOL    HW236158   6.434   1.493   7.321
 8043SOL     OW36159   5.606   6.583   7.192
 8043SOL    HW136160   5.577   6.489   7.210
 8043SOL    HW236161   5.525   6.640   7.178
 8044SOL     OW36162   6.037   7.484   7.253
 8044SOL    HW136163   6.111   7.416   7.262
 8044SOL    HW236164   5.964   7.461   7.316
 8045SOL     OW36165   7.041   1.859   7.441
 8045SOL    HW136166   6.967   1.926   7.436
 8045SOL    HW236167   7.111   1.882   7.375
 8046SOL     OW36168   1.343   4.852   7.116
 8046SOL    HW136169   1.243   4.842   7.122
 8046SOL    HW236170   1.368   4.889   7.027
 8047SOL     OW36171   6.658   3.324   6.966
 8047SOL    HW136172   6.709   3.307   6.881
 8047SOL    HW236173   6.568   3.284   6.959
 8048SOL     OW36174   8.823   0.321   7.349
 8048SOL    HW136175   8.825   0.246   7.282
 8048SOL    HW236176   8.751   0.385   7.326
 8049SOL     OW36177   8.732   1.060   7.082
 8049SOL    HW136178   8.722   1.093   7.176
 8049SOL    HW236179   8.827   1.069   7.054
 8050SOL     OW36180   6.732   7.447   7.116
 8050SOL    HW136181   6.706   7.405   7.029
 8050SOL    HW236182   6.779   7.533   7.099
 8051SOL     OW36183   1.571   0.754   7.022
 8051SOL    HW136184   1.495   0.736   6.959
 8051SOL    HW236185   1.596   0.850   7.017
 8052SOL     OW36186   1.886   3.821   7.338
 8052SOL    HW136187   1.954   3.884   7.378
 8052SOL    HW236188   1.812   3.807   7.403
 8053SOL     OW36189   9.368   8.066   6.885
 8053SOL    HW136190   9.403   8.128   6.956
 8053SOL    HW236191   9.332   7.984   6.928
 8054SOL     OW36192   9.240   6.312   7.178
 8054SOL    HW136193   9.144   6.302   7.149
 8054SOL    HW236194   9.270   6.228   7.221
 8055SOL     OW36195   4.738   6.312   7.306
 8055SOL    HW136196   4.776   6.381   7.369
 8055SOL    HW236197   4.685   6.246   7.358
 8056SOL     OW36198   1.665   8.454   7.257
 8056SOL    HW136199   1.662   8.368   7.308
 8056SOL    HW236200   1.591   8.456   7.190
 8057SOL     OW36201   3.369   2.279   6.961
 8057SOL    HW136202   3.428   2.312   7.036
 8057SOL    HW236203   3.274   2.286   6.989
 8058SOL     OW36204   0.107   7.775   7.431
 8058SOL    HW136205   0.049   7.857   7.426
 8058SOL    HW236206   0.052   7.699   7.466
 8059SOL     OW36207   2.204   1.584   7.561
 8059SOL    HW136208   2.278   1.611   7.498
 8059SOL    HW236209   2.152   1.510   7.520
 8060SOL     OW36210   4.067   8.217   7.282
 8060SOL    HW136211   4.048   8.140   7.220
 8060SOL    HW236212   4.051   8.188   7.376
 8061SOL     OW36213   7.799   5.418   7.288
 8061SOL    HW136214   7.734   5.416   7.365
 8061SOL    HW236215   7.806   5.511   7.253
 8062SOL     OW36216   4.730   5.122   6.947
 8062SOL    HW136217   4.646   5.136   6.893
 8062SOL    HW236218   4.809   5.147   6.893
 8063SOL     OW36219   1.053   1.796   7.077
 8063SOL    HW136220   1.000   1.842   7.006
 8063SOL    HW236221   1.110   1.725   7.036
 8064SOL     OW36222   1.405   2.682   6.993
 8064SOL    HW136223   1.369   2.736   7.070
 8064SOL    HW236224   1.334   2.623   6.958
 8065SOL     OW36225   7.560   0.313   6.914
 8065SOL    HW136226   7.625   0.265   6.854
 8065SOL    HW236227   7.597   0.318   7.006
 8066SOL     OW36228   4.298   6.507   6.739
 8066SOL    HW136229   4.221   6.508   6.805
 8066SOL    HW236230   4.384   6.506   6.789
 8067SOL     OW36231   0.120   5.165   7.440
 8067SOL    HW136232   0.121   5.118   7.528
 8067SOL    HW236233   0.196   5.133   7.384
 8068SOL     OW36234   4.936   6.727   6.852
 8068SOL    HW136235   5.020   6.685   6.889
 8068SOL    HW236236   4.946   6.826   6.855
 8069SOL     OW36237   6.934   7.641   7.457
 8069SOL    HW136238   6.935   7.595   7.547
 8069SOL    HW236239   6.842   7.639   7.420
 8070SOL     OW36240   0.969   5.017   7.078
 8070SOL    HW136241   1.059   5.016   7.123
 8070SOL    HW236242   0.940   4.924   7.061
 8071X2IT   H1836243   3.457   5.618   6.822
 8071X2IT    N436244   3.508   5.566   6.753
 8071X2IT   H1736245   3.478   5.575   6.657
 8071X2IT   C1436246   3.640   5.543   6.779
 8071X2IT    O536247   3.693   5.554   6.888
 8071X2IT    O436248   3.703   5.499   6.666
 8071X2IT   C1336249   3.842   5.464   6.680
 8071X2IT   C1036250   3.859   5.321   6.733
 8071X2IT    C936251   4.003   5.277   6.743
 8071X2IT    C436252   4.024   5.164   6.667
 8071X2IT    C536253   4.157   5.096   6.654
 8071X2IT    O136254   4.166   4.992   6.586
 8071X2IT    C636255   4.268   5.156   6.724
 8071X2IT   C1236256   4.405   5.092   6.715
 8071X2IT    C736257   4.247   5.268   6.801
 8071X2IT    C836258   4.110   5.337   6.814
 8071X2IT    O236259   4.104   5.440   6.882
 8071X2IT    N336260   4.343   5.330   6.871
 8071X2IT   H1536261   4.439   5.300   6.872
 8071X2IT   H1636262   4.316   5.414   6.924
 8071X2IT    N236263   3.910   5.118   6.611
 8071X2IT    C336264   3.893   5.050   6.482
 8071X2IT    C236265   3.797   5.144   6.409
 8071X2IT    H236266   3.739   5.106   6.324
 8071X2IT    N136267   3.845   5.284   6.409
 8071X2IT   H1436268   3.800   5.335   6.333
 8071X2IT    C136269   3.741   5.241   6.505
 8071X2IT    H136270   3.640   5.280   6.498
 8071X2IT   C1136271   3.796   5.208   6.643
 8071X2IT    O336272   3.689   5.139   6.707
 8071X2IT   C1536273   3.722   5.061   6.822
 8072X2IT   H1836274   0.149   6.097   5.852
 8072X2IT    N436275   0.190   6.182   5.888
 8072X2IT   H1736276   0.127   6.260   5.902
 8072X2IT   C1436277   0.299   6.168   5.968
 8072X2IT    O536278   0.367   6.067   5.978
 8072X2IT    O436279   0.325   6.285   6.033
 8072X2IT   C1336280   0.442   6.288   6.117
 8072X2IT   C1036281   0.569   6.316   6.035
 8072X2IT    C936282   0.694   6.326   6.120
 8072X2IT    C436283   0.754   6.449   6.103
 8072X2IT    C536284   0.879   6.492   6.173
 8072X2IT    O136285   0.928   6.603   6.149
 8072X2IT    C636286   0.936   6.398   6.267
 8072X2IT   C1236287   1.062   6.435   6.342
 8072X2IT    C736288   0.876   6.275   6.284
 8072X2IT    C836289   0.749   6.232   6.210
 8072X2IT    O236290   0.702   6.120   6.236
 8072X2IT    N336291   0.923   6.180   6.367
 8072X2IT   H1536292   1.004   6.192   6.424
 8072X2IT   H1636293   0.870   6.093   6.372
 8072X2IT    N236294   0.691   6.524   6.008
 8072X2IT    C336295   0.675   6.670   6.004
 8072X2IT    C236296   0.524   6.687   6.005
 8072X2IT    H236297   0.480   6.780   5.970
 8072X2IT    N136298   0.460   6.613   6.116
 8072X2IT   H1436299   0.368   6.653   6.135
 8072X2IT    C136300   0.460   6.556   5.980
 8072X2IT    H136301   0.367   6.545   5.925
 8072X2IT   C1136302   0.570   6.453   5.957
 8072X2IT    O336303   0.573   6.437   5.817
 8072X2IT   C1536304   0.691   6.377   5.761
 8073X2IT   H1836305   3.619  -0.145   0.146
 8073X2IT    N436306   3.595  -0.126   0.241
 8073X2IT   H1736307   3.671  -0.123   0.308
 8073X2IT   C1436308   3.486  -0.046   0.262
 8073X2IT    O536309   3.401  -0.021   0.178
 8073X2IT    O436310   3.483  -0.003   0.391
 8073X2IT   C1336311   3.369   0.077   0.430
 8073X2IT   C1036312   3.249  -0.011   0.467
 8073X2IT    C936313   3.129   0.068   0.514
 8073X2IT    C436314   3.093   0.029   0.641
 8073X2IT    C536315   2.979   0.088   0.718
 8073X2IT    O136316   2.951   0.044   0.831
 8073X2IT    C636317   2.906   0.195   0.654
 8073X2IT   C1236318   2.790   0.260   0.726
 8073X2IT    C736319   2.942   0.234   0.526
 8073X2IT    C836320   3.059   0.172   0.448
 8073X2IT    O236321   3.085   0.218   0.336
 8073X2IT    N336322   2.880   0.331   0.457
 8073X2IT   H1536323   2.803   0.384   0.494
 8073X2IT   H1636324   2.916   0.353   0.364
 8073X2IT    N236325   3.168  -0.076   0.686
 8073X2IT    C336326   3.210  -0.105   0.824
 8073X2IT    C236327   3.362  -0.103   0.812
 8073X2IT    H236328   3.422  -0.153   0.888
 8073X2IT    N136329   3.412   0.020   0.748
 8073X2IT   H1436330   3.510   0.034   0.773
 8073X2IT    C136331   3.400  -0.104   0.669
 8073X2IT    H136332   3.489  -0.154   0.632
 8073X2IT   C1136333   3.273  -0.111   0.586
 8073X2IT    O336334   3.265  -0.247   0.547
 8073X2IT   C1536335   3.138  -0.295   0.501
 8074X2IT   H1836336   9.191   6.286   5.487
 8074X2IT    N436337   9.222   6.215   5.552
 8074X2IT   H1736338   9.300   6.157   5.523
 8074X2IT   C1436339   9.206   6.242   5.684
 8074X2IT    O536340   9.133   6.329   5.730
 8074X2IT    O436341   9.279   6.154   5.759
 8074X2IT   C1336342   9.266   6.167   5.903
 8074X2IT   C1036343   9.141   6.093   5.954
 8074X2IT    C936344   9.127   6.098   6.105
 8074X2IT    C436345   9.124   5.970   6.156
 8074X2IT    C536346   9.112   5.939   6.303
 8074X2IT    O136347   9.105   5.820   6.340
 8074X2IT    C636348   9.107   6.052   6.392
 8074X2IT   C1236349   9.095   6.027   6.542
 8074X2IT    C736350   9.109   6.180   6.341
 8074X2IT    C836351   9.121   6.210   6.191
 8074X2IT    O236352   9.127   6.329   6.156
 8074X2IT    N336353   9.103   6.291   6.416
 8074X2IT   H1536354   9.098   6.289   6.516
 8074X2IT   H1636355   9.108   6.381   6.367
 8074X2IT    N236356   9.125   5.875   6.059
 8074X2IT    C336357   9.185   5.741   6.063
 8074X2IT    C236358   9.285   5.747   5.949
 8074X2IT    H236359   9.323   5.655   5.905
 8074X2IT    N136360   9.374   5.865   5.959
 8074X2IT   H1436361   9.459   5.848   5.904
 8074X2IT    C136362   9.259   5.868   5.867
 8074X2IT    H136363   9.274   5.870   5.759
 8074X2IT   C1136364   9.137   5.938   5.925
 8074X2IT    O336365   9.031   5.901   5.838
 8074X2IT   C1536366   8.898   5.919   5.887
 8075X2IT   H1836367   6.502   5.904   6.894
 8075X2IT    N436368   6.598   5.927   6.874
 8075X2IT   H1736369   6.616   5.974   6.786
 8075X2IT   C1436370   6.678   5.953   6.981
 8075X2IT    O536371   6.653   5.924   7.097
 8075X2IT    O436372   6.794   6.012   6.939
 8075X2IT   C1336373   6.892   6.039   7.041
 8075X2IT   C1036374   6.978   5.914   7.072
 8075X2IT    C936375   7.086   5.940   7.173
 8075X2IT    C436376   7.210   5.911   7.120
 8075X2IT    C536377   7.340   5.927   7.194
 8075X2IT    O136378   7.446   5.894   7.139
 8075X2IT    C636379   7.331   5.979   7.328
 8075X2IT   C1236380   7.458   5.997   7.409
 8075X2IT    C736381   7.207   6.007   7.382
 8075X2IT    C836382   7.076   5.990   7.306
 8075X2IT    O236383   6.971   6.023   7.363
 8075X2IT    N336384   7.189   6.054   7.507
 8075X2IT   H1536385   7.265   6.073   7.570
 8075X2IT   H1636386   7.093   6.073   7.536
 8075X2IT    N236387   7.201   5.859   6.995
 8075X2IT    C336388   7.294   5.875   6.882
 8075X2IT    C236389   7.207   5.941   6.776
 8075X2IT    H236390   7.236   5.936   6.671
 8075X2IT    N136391   7.138   6.061   6.828
 8075X2IT   H1436392   7.110   6.120   6.749
 8075X2IT    C136393   7.065   5.933   6.818
 8075X2IT    H136394   6.983   5.921   6.748
 8075X2IT   C1136395   7.059   5.857   6.949
 8075X2IT    O336396   7.017   5.727   6.912
 8075X2IT   C1536397   7.039   5.621   7.007
 8076X2IT   H1836398   2.894   2.283   0.212
 8076X2IT    N436399   2.864   2.375   0.238
 8076X2IT   H1736400   2.765   2.392   0.242
 8076X2IT   C1436401   2.947   2.445   0.322
 8076X2IT    O536402   3.064   2.417   0.344
 8076X2IT    O436403   2.882   2.553   0.373
 8076X2IT   C1336404   2.959   2.640   0.458
 8076X2IT   C1036405   3.042   2.740   0.376
 8076X2IT    C936406   3.120   2.838   0.462
 8076X2IT    C436407   3.084   2.967   0.431
 8076X2IT    C536408   3.141   3.089   0.499
 8076X2IT    O136409   3.106   3.202   0.462
 8076X2IT    C636410   3.237   3.064   0.604
 8076X2IT   C1236411   3.299   3.182   0.676
 8076X2IT    C736412   3.274   2.934   0.634
 8076X2IT    C836413   3.215   2.812   0.563
 8076X2IT    O236414   3.252   2.700   0.602
 8076X2IT    N336415   3.363   2.902   0.728
 8076X2IT   H1536416   3.410   2.970   0.785
 8076X2IT   H1636417   3.382   2.802   0.743
 8076X2IT    N236418   2.996   2.973   0.327
 8076X2IT    C336419   2.888   3.070   0.306
 8076X2IT    C236420   2.765   2.981   0.302
 8076X2IT    H236421   2.673   3.017   0.255
 8076X2IT    N136422   2.756   2.892   0.420
 8076X2IT   H1436423   2.660   2.861   0.432
 8076X2IT    C136424   2.807   2.839   0.291
 8076X2IT    H136425   2.751   2.765   0.236
 8076X2IT   C1136426   2.959   2.836   0.283
 8076X2IT    O336427   2.985   2.816   0.145
 8076X2IT   C1536428   3.117   2.847   0.099
 8077X2IT   H1836429   5.985   1.817   0.856
 8077X2IT    N436430   5.959   1.748   0.788
 8077X2IT   H1736431   5.916   1.664   0.822
 8077X2IT   C1436432   5.925   1.795   0.664
 8077X2IT    O536433   5.949   1.907   0.622
 8077X2IT    O436434   5.862   1.697   0.593
 8077X2IT   C1336435   5.826   1.730   0.457
 8077X2IT   C1036436   5.945   1.712   0.361
 8077X2IT    C936437   5.909   1.739   0.217
 8077X2IT    C436438   5.935   1.628   0.139
 8077X2IT    C536439   5.910   1.621  -0.008
 8077X2IT    O136440   5.940   1.518  -0.071
 8077X2IT    C636441   5.852   1.738  -0.070
 8077X2IT   C1236442   5.824   1.737  -0.218
 8077X2IT    C736443   5.827   1.849   0.008
 8077X2IT    C836444   5.853   1.856   0.158
 8077X2IT    O236445   5.823   1.960   0.219
 8077X2IT    N336446   5.775   1.963  -0.041
 8077X2IT   H1536447   5.749   1.976  -0.137
 8077X2IT   H1636448   5.758   2.039   0.026
 8077X2IT    N236449   5.993   1.528   0.211
 8077X2IT    C336450   5.979   1.383   0.193
 8077X2IT    C236451   5.922   1.339   0.328
 8077X2IT    H236452   5.930   1.235   0.359
 8077X2IT    N136453   5.803   1.418   0.366
 8077X2IT   H1436454   5.749   1.366   0.436
 8077X2IT    C136455   5.935   1.451   0.425
 8077X2IT    H136456   5.954   1.435   0.530
 8077X2IT   C1136457   6.004   1.566   0.355
 8077X2IT    O336458   6.138   1.559   0.401
 8077X2IT   C1536459   6.237   1.629   0.326
 8078X2IT   H1836460   8.701   4.376   6.762
 8078X2IT    N436461   8.755   4.294   6.785
 8078X2IT   H1736462   8.782   4.233   6.709
 8078X2IT   C1436463   8.838   4.305   6.894
 8078X2IT    O536464   8.831   4.392   6.979
 8078X2IT    O436465   8.926   4.201   6.895
 8078X2IT   C1336466   9.016   4.195   7.008
 8078X2IT   C1036467   8.949   4.128   7.129
 8078X2IT    C936468   9.042   4.114   7.248
 8078X2IT    C436469   9.054   3.981   7.284
 8078X2IT    C536470   9.139   3.932   7.397
 8078X2IT    O136471   9.140   3.811   7.425
 8078X2IT    C636472   9.215   4.032   7.469
 8078X2IT   C1236473   9.304   3.989   7.584
 8078X2IT    C736474   9.203   4.165   7.433
 8078X2IT    C836475   9.115   4.214   7.318
 8078X2IT    O236476   9.115   4.335   7.291
 8078X2IT    N336477   9.268   4.265   7.494
 8078X2IT   H1536478   9.332   4.250   7.571
 8078X2IT   H1636479   9.253   4.360   7.458
 8078X2IT    N236480   8.972   3.901   7.210
 8078X2IT    C336481   8.996   3.762   7.168
 8078X2IT    C236482   8.992   3.773   7.016
 8078X2IT    H236483   8.973   3.684   6.956
 8078X2IT    N136484   9.082   3.879   6.965
 8078X2IT   H1436485   9.102   3.861   6.866
 8078X2IT    C136486   8.937   3.906   6.978
 8078X2IT    H136487   8.875   3.922   6.891
 8078X2IT   C1136488   8.901   3.980   7.106
 8078X2IT    O336489   8.760   3.966   7.116
 8078X2IT   C1536490   8.701   3.991   7.244
 8079X2IT   H1836491   1.724   0.817   5.682
 8079X2IT    N436492   1.648   0.860   5.733
 8079X2IT   H1736493   1.556   0.820   5.720
 8079X2IT   C1436494   1.680   0.918   5.852
 8079X2IT    O536495   1.793   0.945   5.889
 8079X2IT    O436496   1.567   0.944   5.923
 8079X2IT   C1336497   1.585   1.011   6.050
 8079X2IT   C1036498   1.597   1.163   6.031
 8079X2IT    C936499   1.609   1.238   6.162
 8079X2IT    C436500   1.507   1.331   6.174
 8079X2IT    C536501   1.489   1.421   6.292
 8079X2IT    O136502   1.397   1.504   6.292
 8079X2IT    C636503   1.584   1.406   6.399
 8079X2IT   C1236504   1.572   1.494   6.522
 8079X2IT    C736505   1.687   1.315   6.387
 8079X2IT    C836506   1.704   1.223   6.266
 8079X2IT    O236507   1.798   1.142   6.267
 8079X2IT    N336508   1.781   1.295   6.481
 8079X2IT   H1536509   1.783   1.345   6.568
 8079X2IT   H1636510   1.852   1.223   6.462
 8079X2IT    N236511   1.429   1.335   6.062
 8079X2IT    C336512   1.285   1.363   6.054
 8079X2IT    C236513   1.232   1.235   5.990
 8079X2IT    H236514   1.135   1.237   5.940
 8079X2IT    N136515   1.276   1.114   6.061
 8079X2IT   H1436516   1.213   1.036   6.039
 8079X2IT    C136517   1.345   1.155   5.938
 8079X2IT    H136518   1.339   1.095   5.848
 8079X2IT   C1136519   1.473   1.233   5.963
 8079X2IT    O336520   1.504   1.291   5.838
 8079X2IT   C1536521   1.597   1.400   5.837
 8080X2IT   H1836522   1.906   3.062   7.184
 8080X2IT    N436523   1.930   2.967   7.162
 8080X2IT   H1736524   1.856   2.908   7.125
 8080X2IT   C1436525   2.059   2.944   7.122
 8080X2IT    O536526   2.152   3.022   7.137
 8080X2IT    O436527   2.069   2.820   7.066
 8080X2IT   C1336528   2.201   2.780   7.025
 8080X2IT   C1036529   2.282   2.723   7.143
 8080X2IT    C936530   2.419   2.673   7.103
 8080X2IT    C436531   2.433   2.540   7.136
 8080X2IT    C536532   2.556   2.459   7.109
 8080X2IT    O136533   2.561   2.341   7.145
 8080X2IT    C636534   2.664   2.527   7.042
 8080X2IT   C1236535   2.792   2.451   7.011
 8080X2IT    C736536   2.651   2.661   7.010
 8080X2IT    C836537   2.524   2.742   7.038
 8080X2IT    O236538   2.522   2.860   7.001
 8080X2IT    N336539   2.746   2.733   6.949
 8080X2IT   H1536540   2.835   2.695   6.921
 8080X2IT   H1636541   2.725   2.831   6.928
 8080X2IT    N236542   2.324   2.492   7.203
 8080X2IT    C336543   2.268   2.356   7.198
 8080X2IT    C236544   2.126   2.382   7.147
 8080X2IT    H236545   2.049   2.308   7.163
 8080X2IT    N136546   2.125   2.463   7.023
 8080X2IT   H1436547   2.037   2.449   6.974
 8080X2IT    C136548   2.098   2.528   7.153
 8080X2IT    H136549   1.999   2.567   7.175
 8080X2IT   C1136550   2.219   2.597   7.213
 8080X2IT    O336551   2.181   2.621   7.347
 8080X2IT   C1536552   2.287   2.650   7.440
 8081X2IT   H1836553   2.232   7.512   7.448
 8081X2IT    N436554   2.304   7.489   7.382
 8081X2IT   H1736555   2.379   7.430   7.413
 8081X2IT   C1436556   2.265   7.482   7.251
 8081X2IT    O536557   2.161   7.528   7.206
 8081X2IT    O436558   2.361   7.421   7.176
 8081X2IT   C1336559   2.337   7.413   7.034
 8081X2IT   C1036560   2.377   7.543   6.963
 8081X2IT    C936561   2.359   7.536   6.813
 8081X2IT    C436562   2.479   7.560   6.749
 8081X2IT    C536563   2.497   7.560   6.600
 8081X2IT    O136564   2.608   7.587   6.552
 8081X2IT    C636565   2.380   7.529   6.521
 8081X2IT   C1236566   2.391   7.527   6.370
 8081X2IT    C736567   2.260   7.506   6.585
 8081X2IT    C836568   2.243   7.507   6.737
 8081X2IT    O236569   2.131   7.480   6.784
 8081X2IT    N336570   2.145   7.478   6.520
 8081X2IT   H1536571   2.139   7.471   6.420
 8081X2IT   H1636572   2.062   7.460   6.578
 8081X2IT    N236573   2.578   7.592   6.837
 8081X2IT    C336574   2.722   7.562   6.826
 8081X2IT    C236575   2.746   7.478   6.951
 8081X2IT    H236576   2.847   7.468   6.990
 8081X2IT    N136577   2.651   7.365   6.963
 8081X2IT   H1436578   2.690   7.294   7.024
 8081X2IT    C136579   2.628   7.488   7.041
 8081X2IT    H136580   2.636   7.487   7.149
 8081X2IT   C1136581   2.529   7.583   6.977
 8081X2IT    O336582   2.547   7.705   7.047
 8081X2IT   C1536583   2.496   7.824   6.986
 8082X2IT   H1836584   4.299   3.757   6.896
 8082X2IT    N436585   4.389   3.762   6.941
 8082X2IT   H1736586   4.450   3.682   6.931
 8082X2IT   C1436587   4.445   3.886   6.951
 8082X2IT    O536588   4.385   3.992   6.937
 8082X2IT    O436589   4.577   3.875   6.984
 8082X2IT   C1336590   4.648   3.999   7.005
 8082X2IT   C1036591   4.626   4.053   7.147
 8082X2IT    C936592   4.705   4.179   7.176
 8082X2IT    C436593   4.789   4.160   7.284
 8082X2IT    C536594   4.881   4.266   7.338
 8082X2IT    O136595   4.950   4.241   7.437
 8082X2IT    C636596   4.882   4.392   7.268
 8082X2IT   C1236597   4.973   4.503   7.317
 8082X2IT    C736598   4.797   4.412   7.161
 8082X2IT    C836599   4.703   4.303   7.107
 8082X2IT    O236600   4.634   4.330   7.008
 8082X2IT    N336601   4.789   4.526   7.092
 8082X2IT   H1536602   4.846   4.607   7.112
 8082X2IT   H1636603   4.724   4.529   7.013
 8082X2IT    N236604   4.772   4.038   7.340
 8082X2IT    C336605   4.874   3.954   7.405
 8082X2IT    C236606   4.872   3.828   7.320
 8082X2IT    H236607   4.911   3.734   7.360
 8082X2IT    N136608   4.886   3.857   7.176
 8082X2IT   H1436609   4.918   3.773   7.127
 8082X2IT    C136610   4.752   3.831   7.232
 8082X2IT    H136611   4.697   3.742   7.204
 8082X2IT   C1136612   4.674   3.957   7.263
 8082X2IT    O336613   4.567   3.912   7.345
 8082X2IT   C1536614   4.498   4.011   7.422
 8083X2IT   H1836615   8.657   6.480   6.758
 8083X2IT    N436616   8.578   6.421   6.741
 8083X2IT   H1736617   8.533   6.429   6.650
 8083X2IT   C1436618   8.576   6.300   6.805
 8083X2IT    O536619   8.647   6.270   6.900
 8083X2IT    O436620   8.481   6.219   6.750
 8083X2IT   C1336621   8.464   6.090   6.812
 8083X2IT   C1036622   8.372   6.099   6.935
 8083X2IT    C936623   8.346   5.964   6.999
 8083X2IT    C436624   8.210   5.939   7.002
 8083X2IT    C536625   8.149   5.813   7.058
 8083X2IT    O136626   8.026   5.800   7.059
 8083X2IT    C636627   8.242   5.714   7.109
 8083X2IT   C1236628   8.187   5.585   7.167
 8083X2IT    C736629   8.377   5.741   7.107
 8083X2IT    C836630   8.437   5.870   7.050
 8083X2IT    O236631   8.561   5.881   7.050
 8083X2IT    N336632   8.470   5.656   7.154
 8083X2IT   H1536633   8.448   5.566   7.193
 8083X2IT   H1636634   8.568   5.686   7.146
 8083X2IT    N236635   8.137   6.043   6.954
 8083X2IT    C336636   8.010   6.038   6.880
 8083X2IT    C236637   8.046   6.107   6.749
 8083X2IT    H236638   7.968   6.149   6.687
 8083X2IT    N136639   8.166   6.047   6.687
 8083X2IT   H1436640   8.167   6.070   6.587
 8083X2IT    C136641   8.179   6.173   6.763
 8083X2IT    H136642   8.204   6.266   6.714
 8083X2IT   C1136643   8.226   6.152   6.906
 8083X2IT    O336644   8.199   6.275   6.970
 8083X2IT   C1536645   8.197   6.275   7.114
 8084X2IT   H1836646   3.025   6.255   1.216
 8084X2IT    N436647   3.084   6.195   1.162
 8084X2IT   H1736648   3.055   6.099   1.150
 8084X2IT   C1436649   3.157   6.255   1.062
 8084X2IT    O536650   3.176   6.375   1.052
 8084X2IT    O436651   3.207   6.160   0.978
 8084X2IT   C1336652   3.292   6.209   0.872
 8084X2IT   C1036653   3.436   6.230   0.920
 8084X2IT    C936654   3.530   6.274   0.809
 8084X2IT    C436655   3.634   6.185   0.797
 8084X2IT    C536656   3.745   6.199   0.696
 8084X2IT    O136657   3.837   6.116   0.694
 8084X2IT    C636658   3.736   6.311   0.606
 8084X2IT   C1236659   3.844   6.331   0.501
 8084X2IT    C736660   3.632   6.401   0.619
 8084X2IT    C836661   3.521   6.386   0.723
 8084X2IT    O236662   3.430   6.471   0.723
 8084X2IT    N336663   3.617   6.510   0.542
 8084X2IT   H1536664   3.680   6.533   0.467
 8084X2IT   H1636665   3.535   6.569   0.560
 8084X2IT    N236666   3.630   6.088   0.891
 8084X2IT    C336667   3.673   5.947   0.879
 8084X2IT    C236668   3.544   5.872   0.908
 8084X2IT    H236669   3.549   5.767   0.939
 8084X2IT    N136670   3.432   5.918   0.824
 8084X2IT   H1436671   3.360   5.845   0.820
 8084X2IT    C136672   3.443   5.965   0.964
 8084X2IT    H136673   3.371   5.936   1.038
 8084X2IT   C1136674   3.508   6.102   0.976
 8084X2IT    O336675   3.541   6.113   1.114
 8084X2IT   C1536676   3.637   6.212   1.151
 8085X2IT   H1836677   5.120   7.261   1.554
 8085X2IT    N436678   5.053   7.193   1.583
 8085X2IT   H1736679   5.089   7.103   1.612
 8085X2IT   C1436680   4.938   7.240   1.639
 8085X2IT    O536681   4.899   7.355   1.632
 8085X2IT    O436682   4.871   7.138   1.701
 8085X2IT   C1336683   4.744   7.172   1.760
 8085X2IT   C1036684   4.631   7.170   1.655
 8085X2IT    C936685   4.495   7.199   1.714
 8085X2IT    C436686   4.409   7.094   1.688
 8085X2IT    C536687   4.266   7.089   1.733
 8085X2IT    O136688   4.195   6.992   1.702
 8085X2IT    C636689   4.219   7.202   1.811
 8085X2IT   C1236690   4.076   7.204   1.860
 8085X2IT    C736691   4.305   7.307   1.836
 8085X2IT    C836692   4.451   7.311   1.788
 8085X2IT    O236693   4.520   7.409   1.820
 8085X2IT    N336694   4.270   7.417   1.905
 8085X2IT   H1536695   4.179   7.430   1.945
 8085X2IT   H1636696   4.343   7.488   1.919
 8085X2IT    N236697   4.467   6.998   1.610
 8085X2IT    C336698   4.443   6.853   1.613
 8085X2IT    C236699   4.582   6.799   1.645
 8085X2IT    H236700   4.606   6.695   1.622
 8085X2IT    N136701   4.641   6.863   1.764
 8085X2IT   H1436702   4.715   6.803   1.803
 8085X2IT    C136703   4.682   6.908   1.630
 8085X2IT    H136704   4.783   6.890   1.594
 8085X2IT   C1136705   4.609   7.032   1.582
 8085X2IT    O336706   4.636   7.038   1.444
 8085X2IT   C1536707   4.551   7.121   1.363
 8086X2IT   H1836708   3.162   7.697   0.182
 8086X2IT    N436709   3.202   7.698   0.274
 8086X2IT   H1736710   3.303   7.699   0.280
 8086X2IT   C1436711   3.129   7.761   0.371
 8086X2IT    O536712   3.011   7.789   0.363
 8086X2IT    O436713   3.207   7.783   0.481
 8086X2IT   C1336714   3.141   7.842   0.595
 8086X2IT   C1036715   3.068   7.736   0.679
 8086X2IT    C936716   3.003   7.794   0.803
 8086X2IT    C436717   3.053   7.731   0.916
 8086X2IT    C536718   3.010   7.765   1.056
 8086X2IT    O136719   3.056   7.700   1.151
 8086X2IT    C636720   2.914   7.872   1.070
 8086X2IT   C1236721   2.867   7.911   1.209
 8086X2IT    C736722   2.864   7.934   0.957
 8086X2IT    C836723   2.908   7.898   0.815
 8086X2IT    O236724   2.860   7.963   0.721
 8086X2IT    N336725   2.774   8.033   0.960
 8086X2IT   H1536726   2.736   8.070   1.046
 8086X2IT   H1636727   2.745   8.073   0.871
 8086X2IT    N236728   3.138   7.630   0.885
 8086X2IT    C336729   3.255   7.584   0.961
 8086X2IT    C236730   3.368   7.605   0.861
 8086X2IT    H236731   3.462   7.551   0.874
 8086X2IT    N136732   3.369   7.742   0.805
 8086X2IT   H1436733   3.462   7.762   0.767
 8086X2IT    C136734   3.311   7.631   0.727
 8086X2IT    H136735   3.357   7.597   0.635
 8086X2IT   C1136736   3.159   7.622   0.738
 8086X2IT    O336737   3.128   7.494   0.687
 8086X2IT   C1536738   2.999   7.441   0.719
 8087X2IT   H1836739   6.677   0.526   0.486
 8087X2IT    N436740   6.617   0.471   0.546
 8087X2IT   H1736741   6.536   0.429   0.504
 8087X2IT   C1436742   6.678   0.409   0.651
 8087X2IT    O536743   6.789   0.435   0.694
 8087X2IT    O436744   6.594   0.315   0.705
 8087X2IT   C1336745   6.642   0.246   0.821
 8087X2IT   C1036746   6.618   0.327   0.950
 8087X2IT    C936747   6.660   0.254   1.075
 8087X2IT    C436748   6.553   0.241   1.161
 8087X2IT    C536749   6.561   0.173   1.295
 8087X2IT    O136750   6.461   0.169   1.368
 8087X2IT    C636751   6.689   0.116   1.331
 8087X2IT   C1236752   6.704   0.046   1.464
 8087X2IT    C736753   6.796   0.130   1.245
 8087X2IT    C836754   6.787   0.201   1.109
 8087X2IT    O236755   6.889   0.204   1.038
 8087X2IT    N336756   6.919   0.083   1.270
 8087X2IT   H1536757   6.942   0.032   1.354
 8087X2IT   H1636758   6.991   0.098   1.199
 8087X2IT    N236759   6.442   0.304   1.115
 8087X2IT    C336760   6.302   0.264   1.134
 8087X2IT    C236761   6.254   0.244   0.990
 8087X2IT    H236762   6.148   0.247   0.968
 8087X2IT    N136763   6.343   0.154   0.914
 8087X2IT   H1436764   6.292   0.116   0.834
 8087X2IT    C136765   6.355   0.300   0.897
 8087X2IT    H136766   6.329   0.347   0.803
 8087X2IT   C1136767   6.467   0.362   0.980
 8087X2IT    O336768   6.440   0.501   0.976
 8087X2IT   C1536769   6.504   0.582   1.075
 8088X2IT   H1836770   3.558   3.465   1.365
 8088X2IT    N436771   3.523   3.464   1.272
 8088X2IT   H1736772   3.527   3.377   1.221
 8088X2IT   C1436773   3.422   3.552   1.244
 8088X2IT    O536774   3.391   3.648   1.313
 8088X2IT    O436775   3.363   3.520   1.125
 8088X2IT   C1336776   3.258   3.608   1.079
 8088X2IT   C1036777   3.316   3.731   1.007
 8088X2IT    C936778   3.210   3.823   0.951
 8088X2IT    C436779   3.226   3.837   0.815
 8088X2IT    C536780   3.136   3.921   0.728
 8088X2IT    O136781   3.160   3.931   0.607
 8088X2IT    C636782   3.026   3.987   0.794
 8088X2IT   C1236783   2.931   4.072   0.713
 8088X2IT    C736784   3.010   3.973   0.931
 8088X2IT    C836785   3.103   3.888   1.018
 8088X2IT    O236786   3.078   3.879   1.139
 8088X2IT    N336787   2.912   4.031   1.002
 8088X2IT   H1536788   2.842   4.089   0.960
 8088X2IT   H1636789   2.910   4.013   1.102
 8088X2IT    N236790   3.336   3.773   0.769
 8088X2IT    C336791   3.356   3.708   0.638
 8088X2IT    C236792   3.385   3.564   0.678
 8088X2IT    H236793   3.436   3.498   0.608
 8088X2IT    N136794   3.283   3.509   0.770
 8088X2IT   H1436795   3.285   3.407   0.766
 8088X2IT    C136796   3.411   3.557   0.824
 8088X2IT    H136797   3.482   3.489   0.869
 8088X2IT   C1136798   3.403   3.699   0.879
 8088X2IT    O336799   3.539   3.738   0.894
 8088X2IT   C1536800   3.566   3.878   0.907
 8089X2IT   H1836801   5.414   2.067   7.025
 8089X2IT    N436802   5.350   2.110   6.960
 8089X2IT   H1736803   5.307   2.196   6.988
 8089X2IT   C1436804   5.375   2.088   6.827
 8089X2IT    O536805   5.448   2.001   6.783
 8089X2IT    O436806   5.302   2.175   6.752
 8089X2IT   C1336807   5.313   2.159   6.609
 8089X2IT   C1036808   5.218   2.049   6.557
 8089X2IT    C936809   5.222   2.034   6.406
 8089X2IT    C436810   5.095   2.053   6.354
 8089X2IT    C536811   5.063   2.046   6.207
 8089X2IT    O136812   4.946   2.061   6.169
 8089X2IT    C636813   5.174   2.021   6.118
 8089X2IT   C1236814   5.149   2.013   5.969
 8089X2IT    C736815   5.301   2.001   6.171
 8089X2IT    C836816   5.331   2.007   6.321
 8089X2IT    O236817   5.449   1.992   6.357
 8089X2IT    N336818   5.409   1.975   6.097
 8089X2IT   H1536819   5.407   1.969   5.997
 8089X2IT   H1636820   5.498   1.963   6.147
 8089X2IT    N236821   5.002   2.071   6.451
 8089X2IT    C336822   4.881   2.155   6.445
 8089X2IT    C236823   4.904   2.253   6.559
 8089X2IT    H236824   4.819   2.306   6.603
 8089X2IT    N136825   5.036   2.319   6.550
 8089X2IT   H1436826   5.034   2.406   6.604
 8089X2IT    C136827   5.017   2.206   6.643
 8089X2IT    H136828   5.022   2.220   6.750
 8089X2IT   C1136829   5.065   2.073   6.585
 8089X2IT    O336830   5.009   1.976   6.672
 8089X2IT   C1536831   5.004   1.841   6.624
 8090X2IT   H1836832   1.377   6.034   6.670
 8090X2IT    N436833   1.306   5.982   6.719
 8090X2IT   H1736834   1.239   5.931   6.663
 8090X2IT   C1436835   1.340   5.933   6.842
 8090X2IT    O536836   1.436   5.969   6.908
 8090X2IT    O436837   1.249   5.840   6.882
 8090X2IT   C1336838   1.268   5.784   7.014
 8090X2IT   C1036839   1.210   5.875   7.123
 8090X2IT    C936840   1.223   5.817   7.262
 8090X2IT    C436841   1.098   5.806   7.320
 8090X2IT    C536842   1.075   5.750   7.458
 8090X2IT    O136843   0.960   5.747   7.504
 8090X2IT    C636844   1.191   5.705   7.530
 8090X2IT   C1236845   1.175   5.647   7.669
 8090X2IT    C736846   1.316   5.717   7.472
 8090X2IT    C836847   1.339   5.774   7.332
 8090X2IT    O236848   1.455   5.777   7.288
 8090X2IT    N336849   1.430   5.679   7.531
 8090X2IT   H1536850   1.433   5.638   7.623
 8090X2IT   H1636851   1.517   5.691   7.478
 8090X2IT    N236852   1.000   5.857   7.242
 8090X2IT    C336853   0.861   5.812   7.230
 8090X2IT    C236854   0.851   5.776   7.082
 8090X2IT    H236855   0.754   5.771   7.034
 8090X2IT    N136856   0.959   5.684   7.039
 8090X2IT   H1436857   0.931   5.636   6.953
 8090X2IT    C136858   0.970   5.829   7.011
 8090X2IT    H136859   0.967   5.866   6.909
 8090X2IT   C1136860   1.056   5.904   7.112
 8090X2IT    O336861   1.026   6.040   7.087
 8090X2IT   C1536862   1.060   6.134   7.190
 8091X2IT   H1836863   5.318   6.784   1.677
 8091X2IT    N436864   5.285   6.797   1.583
 8091X2IT   H1736865   5.190   6.826   1.571
 8091X2IT   C1436866   5.379   6.835   1.491
 8091X2IT    O536867   5.500   6.828   1.506
 8091X2IT    O436868   5.317   6.878   1.377
 8091X2IT   C1336869   5.404   6.915   1.268
 8091X2IT   C1036870   5.449   6.792   1.187
 8091X2IT    C936871   5.534   6.827   1.067
 8091X2IT    C436872   5.476   6.781   0.951
 8091X2IT    C536873   5.535   6.800   0.814
 8091X2IT    O136874   5.477   6.751   0.716
 8091X2IT    C636875   5.658   6.875   0.807
 8091X2IT   C1236876   5.722   6.898   0.672
 8091X2IT    C736877   5.717   6.920   0.923
 8091X2IT    C836878   5.656   6.900   1.062
 8091X2IT    O236879   5.715   6.949   1.159
 8091X2IT    N336880   5.832   6.989   0.926
 8091X2IT   H1536881   5.884   7.014   0.844
 8091X2IT   H1636882   5.865   7.020   1.018
 8091X2IT    N236883   5.364   6.708   0.976
 8091X2IT    C336884   5.243   6.698   0.893
 8091X2IT    C236885   5.135   6.751   0.986
 8091X2IT    H236886   5.030   6.726   0.968
 8091X2IT    N136887   5.170   6.883   1.044
 8091X2IT   H1436888   5.084   6.929   1.076
 8091X2IT    C136889   5.189   6.760   1.124
 8091X2IT    H136890   5.130   6.742   1.213
 8091X2IT   C1136891   5.332   6.708   1.121
 8091X2IT    O336892   5.322   6.577   1.173
 8091X2IT   C1536893   5.432   6.489   1.148
 8092X2IT   H1836894   1.208   7.192   7.525
 8092X2IT    N436895   1.207   7.094   7.502
 8092X2IT   H1736896   1.295   7.045   7.506
 8092X2IT   C1436897   1.091   7.026   7.528
 8092X2IT    O536898   0.983   7.078   7.551
 8092X2IT    O436899   1.113   6.892   7.520
 8092X2IT   C1336900   0.998   6.807   7.540
 8092X2IT   C1036901   0.917   6.792   7.409
 8092X2IT    C936902   0.799   6.699   7.423
 8092X2IT    C436903   0.809   6.595   7.332
 8092X2IT    C536904   0.709   6.484   7.320
 8092X2IT    O136905   0.724   6.397   7.233
 8092X2IT    C636906   0.598   6.487   7.413
 8092X2IT   C1236907   0.493   6.378   7.406
 8092X2IT    C736908   0.587   6.591   7.503
 8092X2IT    C836909   0.690   6.704   7.513
 8092X2IT    O236910   0.673   6.790   7.601
 8092X2IT    N336911   0.487   6.604   7.591
 8092X2IT   H1536912   0.412   6.537   7.599
 8092X2IT   H1636913   0.490   6.684   7.654
 8092X2IT    N236914   0.916   6.609   7.250
 8092X2IT    C336915   1.000   6.504   7.191
 8092X2IT    C236916   1.138   6.536   7.247
 8092X2IT    H236917   1.227   6.498   7.197
 8092X2IT    N136918   1.137   6.551   7.394
 8092X2IT   H1436919   1.232   6.538   7.430
 8092X2IT    C136920   1.135   6.672   7.308
 8092X2IT    H136921   1.220   6.739   7.306
 8092X2IT   C1136922   0.996   6.729   7.288
 8092X2IT    O336923   1.011   6.819   7.180
 8092X2IT   C1536924   0.892   6.861   7.112
 8093X2IT   H1836925   5.738   0.826   7.450
 8093X2IT    N436926   5.814   0.806   7.388
 8093X2IT   H1736927   5.895   0.759   7.428
 8093X2IT   C1436928   5.783   0.784   7.257
 8093X2IT    O536929   5.677   0.813   7.205
 8093X2IT    O436930   5.889   0.728   7.192
 8093X2IT   C1336931   5.872   0.705   7.051
 8093X2IT   C1036932   5.901   0.833   6.969
 8093X2IT    C936933   5.891   0.812   6.820
 8093X2IT    C436934   6.011   0.844   6.759
 8093X2IT    C536935   6.036   0.834   6.611
 8093X2IT    O136936   6.145   0.869   6.565
 8093X2IT    C636937   5.927   0.783   6.531
 8093X2IT   C1236938   5.945   0.769   6.382
 8093X2IT    C736939   5.807   0.751   6.592
 8093X2IT    C836940   5.783   0.763   6.743
 8093X2IT    O236941   5.673   0.728   6.787
 8093X2IT    N336942   5.700   0.705   6.526
 8093X2IT   H1536943   5.699   0.689   6.427
 8093X2IT   H1636944   5.616   0.683   6.581
 8093X2IT    N236945   6.101   0.895   6.847
 8093X2IT    C336946   6.248   0.880   6.845
 8093X2IT    C236947   6.275   0.810   6.978
 8093X2IT    H236948   6.375   0.815   7.021
 8093X2IT    N136949   6.193   0.689   6.995
 8093X2IT   H1436950   6.237   0.628   7.065
 8093X2IT    C136951   6.153   0.814   7.062
 8093X2IT    H136952   6.156   0.823   7.170
 8093X2IT   C1136953   6.046   0.892   6.986
 8093X2IT    O336954   6.047   1.020   7.046
 8093X2IT   C1536955   5.986   1.127   6.973
 8094X2IT   H1836956   1.933   6.266   6.925
 8094X2IT    N436957   1.886   6.353   6.938
 8094X2IT   H1736958   1.785   6.350   6.950
 8094X2IT   C1436959   1.957   6.453   6.998
 8094X2IT    O536960   2.078   6.454   7.013
 8094X2IT    O436961   1.873   6.554   7.036
 8094X2IT   C1336962   1.935   6.669   7.096
 8094X2IT   C1036963   1.988   6.766   6.989
 8094X2IT    C936964   2.048   6.892   7.047
 8094X2IT    C436965   1.982   7.004   6.999
 8094X2IT    C536966   2.016   7.145   7.037
 8094X2IT    O136967   1.955   7.239   6.985
 8094X2IT    C636968   2.122   7.161   7.134
 8094X2IT   C1236969   2.162   7.301   7.177
 8094X2IT    C736970   2.189   7.050   7.182
 8094X2IT    C836971   2.154   6.907   7.141
 8094X2IT    O236972   2.217   6.814   7.194
 8094X2IT    N336973   2.290   7.055   7.270
 8094X2IT   H1536974   2.324   7.142   7.309
 8094X2IT   H1636975   2.330   6.966   7.300
 8094X2IT    N236976   1.889   6.971   6.906
 8094X2IT    C336977   1.761   7.038   6.879
 8094X2IT    C236978   1.660   6.927   6.905
 8094X2IT    H236979   1.560   6.934   6.863
 8094X2IT    N136980   1.680   6.862   7.037
 8094X2IT   H1436981   1.593   6.815   7.065
 8094X2IT    C136982   1.731   6.797   6.915
 8094X2IT    H136983   1.689   6.703   6.880
 8094X2IT   C1136984   1.879   6.823   6.890
 8094X2IT    O336985   1.900   6.782   6.756
 8094X2IT   C1536986   2.018   6.830   6.691
 8095X2IT   H1836987   6.477   3.026   6.671
 8095X2IT    N436988   6.399   3.087   6.688
 8095X2IT   H1736989   6.408   3.183   6.659
 8095X2IT   C1436990   6.275   3.028   6.688
 8095X2IT    O536991   6.254   2.909   6.696
 8095X2IT    O436992   6.178   3.125   6.682
 8095X2IT   C1336993   6.042   3.078   6.687
 8095X2IT   C1036994   5.996   3.055   6.833
 8095X2IT    C936995   5.852   3.013   6.843
 8095X2IT    C436996   5.781   3.102   6.922
 8095X2IT    C536997   5.635   3.090   6.953
 8095X2IT    O136998   5.581   3.173   7.028
 8095X2IT    C636999   5.565   2.979   6.892
 8095X2IT   C1237000   5.417   2.961   6.918
 8095X2IT    C737001   5.636   2.889   6.814
 8095X2IT    C837002   5.785   2.902   6.784
 8095X2IT    O237003   5.837   2.818   6.709
 8095X2IT    N337004   5.580   2.782   6.755
 8095X2IT   H1537005   5.483   2.760   6.762
 8095X2IT   H1637006   5.642   2.723   6.698
 8095X2IT    N237007   5.862   3.197   6.976
 8095X2IT    C337008   5.829   3.338   7.005
 8095X2IT    C237009   5.929   3.414   6.919
 8095X2IT    H237010   5.953   3.517   6.942
 8095X2IT    N137011   5.926   3.369   6.777
 8095X2IT   H1437012   5.965   3.442   6.718
 8095X2IT    C137013   6.031   3.319   6.868
 8095X2IT    H137014   6.135   3.347   6.852
 8095X2IT   C1137015   6.002   3.182   6.926
 8095X2IT    O337016   6.095   3.169   7.032
 8095X2IT   C1537017   6.067   3.068   7.130
 8096X2IT   H1837018   5.896   5.419   7.274
 8096X2IT    N437019   5.993   5.440   7.260
 8096X2IT   H1737020   6.024   5.450   7.164
 8096X2IT   C1437021   6.055   5.512   7.358
 8096X2IT    O537022   6.013   5.528   7.471
 8096X2IT    O437023   6.175   5.559   7.312
 8096X2IT   C1337024   6.256   5.631   7.408
 8096X2IT   C1037025   6.338   5.535   7.496
 8096X2IT    C937026   6.429   5.607   7.593
 8096X2IT    C437027   6.560   5.569   7.573
 8096X2IT    C537028   6.676   5.622   7.652
 8096X2IT    O137029   6.790   5.580   7.629
 8096X2IT    C637030   6.645   5.722   7.752
 8096X2IT   C1237031   6.758   5.780   7.835
 8096X2IT    C737032   6.514   5.759   7.773
 8096X2IT    C837033   6.397   5.703   7.692
 8096X2IT    O237034   6.283   5.747   7.717
 8096X2IT    N337035   6.476   5.849   7.865
 8096X2IT   H1537036   6.540   5.897   7.925
 8096X2IT   H1637037   6.376   5.871   7.871
 8096X2IT    N237038   6.571   5.472   7.479
 8096X2IT    C337039   6.681   5.450   7.383
 8096X2IT    C237040   6.610   5.463   7.249
 8096X2IT    H237041   6.655   5.420   7.160
 8096X2IT    N137042   6.531   5.588   7.238
 8096X2IT   H1437043   6.514   5.609   7.140
 8096X2IT    C137044   6.463   5.460   7.270
 8096X2IT    H137045   6.394   5.416   7.200
 8096X2IT   C1137046   6.438   5.441   7.419
 8096X2IT    O337047   6.405   5.304   7.431
 8096X2IT   C1537048   6.413   5.246   7.562
 8097X2IT   H1837049   8.067   7.040   0.659
 8097X2IT    N437050   8.003   6.991   0.601
 8097X2IT   H1737051   7.912   6.970   0.639
 8097X2IT   C1437052   8.015   7.010   0.466
 8097X2IT    O537053   8.112   7.060   0.411
 8097X2IT    O437054   7.905   6.963   0.402
 8097X2IT   C1337055   7.907   6.971   0.257
 8097X2IT   C1037056   7.982   6.852   0.195
 8097X2IT    C937057   7.981   6.854   0.044
 8097X2IT    C437058   7.925   6.737  -0.004
 8097X2IT    C537059   7.907   6.706  -0.150
 8097X2IT    O137060   7.859   6.597  -0.184
 8097X2IT    C637061   7.949   6.808  -0.243
 8097X2IT   C1237062   7.934   6.784  -0.391
 8097X2IT    C737063   8.006   6.924  -0.195
 8097X2IT    C837064   8.025   6.954  -0.045
 8097X2IT    O237065   8.073   7.064  -0.014
 8097X2IT    N337066   8.050   7.024  -0.273
 8097X2IT   H1537067   8.044   7.022  -0.373
 8097X2IT   H1637068   8.089   7.106  -0.227
 8097X2IT    N237069   7.895   6.650   0.096
 8097X2IT    C337070   7.783   6.554   0.102
 8097X2IT    C237071   7.708   6.599   0.226
 8097X2IT    H237072   7.640   6.530   0.276
 8097X2IT    N137073   7.676   6.744   0.222
 8097X2IT   H1437074   7.598   6.763   0.286
 8097X2IT    C137075   7.791   6.696   0.301
 8097X2IT    H137076   7.790   6.703   0.409
 8097X2IT   C1137077   7.924   6.710   0.229
 8097X2IT    O337078   8.013   6.630   0.305
 8097X2IT   C1537079   8.136   6.591   0.242
 8098X2IT   H1837080   6.943   8.099   1.147
 8098X2IT    N437081   6.999   8.103   1.065
 8098X2IT   H1737082   7.098   8.123   1.077
 8098X2IT   C1437083   6.960   8.023   0.960
 8098X2IT    O537084   6.850   7.971   0.949
 8098X2IT    O437085   7.060   8.014   0.868
 8098X2IT   C1337086   7.030   7.939   0.749
 8098X2IT   C1037087   6.955   8.025   0.645
 8098X2IT    C937088   6.928   7.951   0.516
 8098X2IT    C437089   6.984   8.019   0.410
 8098X2IT    C537090   6.976   7.973   0.267
 8098X2IT    O137091   7.027   8.042   0.178
 8098X2IT    C637092   6.908   7.848   0.243
 8098X2IT   C1237093   6.897   7.796   0.102
 8098X2IT    C737094   6.851   7.781   0.350
 8098X2IT    C837095   6.859   7.829   0.495
 8098X2IT    O237096   6.808   7.758   0.583
 8098X2IT    N337097   6.784   7.665   0.337
 8098X2IT   H1537098   6.771   7.618   0.249
 8098X2IT   H1637099   6.747   7.623   0.423
 8098X2IT    N237100   7.040   8.137   0.448
 8098X2IT    C337101   7.159   8.203   0.392
 8098X2IT    C237102   7.252   8.210   0.512
 8098X2IT    H237103   7.334   8.281   0.513
 8098X2IT    N137104   7.270   8.078   0.577
 8098X2IT   H1437105   7.356   8.078   0.632
 8098X2IT    C137106   7.177   8.177   0.635
 8098X2IT    H137107   7.197   8.222   0.731
 8098X2IT   C1137108   7.032   8.153   0.596
 8098X2IT    O337109   6.966   8.274   0.632
 8098X2IT   C1537110   6.838   8.298   0.574
 8099X2IT   H1837111   3.357   8.041   7.580
 8099X2IT    N437112   3.262   8.037   7.609
 8099X2IT   H1737113   3.237   7.966   7.677
 8099X2IT   C1437114   3.192   8.155   7.608
 8099X2IT    O537115   3.227   8.256   7.550
 8099X2IT    O437116   3.076   8.141   7.678
 8099X2IT   C1337117   2.988   8.256   7.679
 8099X2IT   C1037118   2.901   8.262   7.553
 8099X2IT    C937119   2.803   8.377   7.554
 8099X2IT    C437120   2.674   8.330   7.541
 8099X2IT    C537121   2.552   8.418   7.540
 8099X2IT    O137122   2.440   8.367   7.524
 8099X2IT    C637123   2.575   8.560   7.555
 8099X2IT   C1237124   2.457   8.654   7.555
 8099X2IT    C737125   2.705   8.607   7.567
 8099X2IT    C837126   2.828   8.516   7.568
 8099X2IT    O237127   2.939   8.569   7.583
 8099X2IT    N337128   2.736   8.737   7.580
 8099X2IT   H1537129   2.667   8.810   7.583
 8099X2IT   H1637130   2.835   8.760   7.589
 8099X2IT    N237131   2.670   8.195   7.523
 8099X2IT    C337132   2.567   8.101   7.569
 8099X2IT    C237133   2.647   8.007   7.658
 8099X2IT    H237134   2.608   7.908   7.681
 8099X2IT    N137135   2.726   8.080   7.760
 8099X2IT   H1437136   2.749   8.016   7.837
 8099X2IT    C137137   2.792   8.031   7.637
 8099X2IT    H137138   2.866   7.952   7.642
 8099X2IT   C1137139   2.807   8.137   7.530
 8099X2IT    O337140   2.840   8.064   7.413
 8099X2IT   C1537141   2.822   8.131   7.287
 8100X2IT   H1837142   8.988   6.305   0.532
 8100X2IT    N437143   8.906   6.252   0.514
 8100X2IT   H1737144   8.853   6.275   0.430
 8100X2IT   C1437145   8.906   6.122   0.558
 8100X2IT    O537146   8.983   6.076   0.640
 8100X2IT    O437147   8.803   6.053   0.500
 8100X2IT   C1337148   8.787   5.916   0.542
 8100X2IT   C1037149   8.707   5.907   0.673
 8100X2IT    C937150   8.681   5.765   0.718
 8100X2IT    C437151   8.545   5.742   0.729
 8100X2IT    C537152   8.486   5.610   0.770
 8100X2IT    O137153   8.363   5.600   0.781
 8100X2IT    C637154   8.579   5.503   0.796
 8100X2IT   C1237155   8.525   5.367   0.837
 8100X2IT    C737156   8.714   5.526   0.785
 8100X2IT    C837157   8.774   5.661   0.744
 8100X2IT    O237158   8.897   5.669   0.733
 8100X2IT    N337159   8.808   5.433   0.809
 8100X2IT   H1537160   8.787   5.338   0.835
 8100X2IT   H1637161   8.906   5.461   0.796
 8100X2IT    N237162   8.473   5.854   0.706
 8100X2IT    C337163   8.339   5.864   0.645
 8100X2IT    C237164   8.366   5.952   0.524
 8100X2IT    H237165   8.284   6.006   0.476
 8100X2IT    N137166   8.478   5.901   0.441
 8100X2IT   H1437167   8.470   5.940   0.346
 8100X2IT    C137168   8.501   6.012   0.535
 8100X2IT    H137169   8.525   6.111   0.499
 8100X2IT   C1137170   8.561   5.967   0.667
 8100X2IT    O337171   8.544   6.079   0.753
 8100X2IT   C1537172   8.555   6.056   0.894
 8101X2IT   H1837173   6.841   7.223   7.405
 8101X2IT    N437174   6.857   7.231   7.306
 8101X2IT   H1737175   6.828   7.317   7.262
 8101X2IT   C1437176   6.965   7.165   7.256
 8101X2IT    O537177   7.026   7.076   7.314
 8101X2IT    O437178   6.993   7.209   7.130
 8101X2IT   C1337179   7.101   7.142   7.062
 8101X2IT   C1037180   7.054   7.011   6.995
 8101X2IT    C937181   7.163   6.942   6.917
 8101X2IT    C437182   7.125   6.926   6.785
 8101X2IT    C537183   7.210   6.862   6.680
 8101X2IT    O137184   7.166   6.849   6.565
 8101X2IT    C637185   7.341   6.817   6.721
 8101X2IT   C1237186   7.432   6.752   6.620
 8101X2IT    C737187   7.379   6.832   6.853
 8101X2IT    C837188   7.291   6.897   6.960
 8101X2IT    O237189   7.337   6.909   7.075
 8101X2IT    N337190   7.498   6.792   6.902
 8101X2IT   H1537191   7.569   6.749   6.845
 8101X2IT   H1637192   7.516   6.810   7.001
 8101X2IT    N237193   6.997   6.969   6.764
 8101X2IT    C337194   6.942   7.031   6.642
 8101X2IT    C237195   6.895   7.166   6.694
 8101X2IT    H237196   6.820   7.222   6.637
 8101X2IT    N137197   7.001   7.238   6.767
 8101X2IT   H1437198   6.979   7.338   6.769
 8101X2IT    C137199   6.897   7.166   6.842
 8101X2IT    H137200   6.824   7.220   6.902
 8101X2IT   C1137201   6.940   7.028   6.888
 8101X2IT    O337202   6.819   6.964   6.926
 8101X2IT   C1537203   6.821   6.821   6.937
 8102X2IT   H1837204   8.155   3.057   0.719
 8102X2IT    N437205   8.147   2.962   0.748
 8102X2IT   H1737206   8.210   2.930   0.820
 8102X2IT   C1437207   8.022   2.906   0.740
 8102X2IT    O537208   7.929   2.951   0.677
 8102X2IT    O437209   8.019   2.789   0.811
 8102X2IT   C1337210   7.895   2.715   0.806
 8102X2IT   C1037211   7.887   2.628   0.680
 8102X2IT    C937212   7.761   2.543   0.674
 8102X2IT    C437213   7.795   2.409   0.665
 8102X2IT    C537214   7.694   2.298   0.658
 8102X2IT    O137215   7.732   2.181   0.646
 8102X2IT    C637216   7.555   2.337   0.666
 8102X2IT   C1237217   7.448   2.230   0.660
 8102X2IT    C737218   7.522   2.471   0.674
 8102X2IT    C837219   7.626   2.583   0.680
 8102X2IT    O237220   7.585   2.700   0.692
 8102X2IT    N337221   7.396   2.516   0.680
 8102X2IT   H1537222   7.315   2.456   0.679
 8102X2IT   H1637223   7.383   2.618   0.688
 8102X2IT    N237224   7.929   2.390   0.654
 8102X2IT    C337225   8.009   2.278   0.706
 8102X2IT    C237226   8.105   2.348   0.800
 8102X2IT    H237227   8.198   2.298   0.829
 8102X2IT    N137228   8.036   2.435   0.897
 8102X2IT   H1437229   8.097   2.452   0.978
 8102X2IT    C137230   8.099   2.495   0.778
 8102X2IT    H137231   8.185   2.560   0.787
 8102X2IT   C1137232   8.001   2.520   0.664
 8102X2IT    O337233   8.084   2.544   0.552
 8102X2IT   C1537234   8.023   2.533   0.422
 8103X2IT   H1837235   3.471   5.522   6.949
 8103X2IT    N437236   3.445   5.485   7.038
 8103X2IT   H1737237   3.346   5.480   7.059
 8103X2IT   C1437238   3.529   5.393   7.094
 8103X2IT    O537239   3.644   5.373   7.058
 8103X2IT    O437240   3.468   5.330   7.198
 8103X2IT   C1337241   3.548   5.235   7.271
 8103X2IT   C1037242   3.636   5.304   7.376
 8103X2IT    C937243   3.716   5.206   7.460
 8103X2IT    C437244   3.686   5.222   7.594
 8103X2IT    C537245   3.748   5.140   7.703
 8103X2IT    O137246   3.718   5.164   7.821
 8103X2IT    C637247   3.841   5.038   7.663
 8103X2IT   C1237248   3.906   4.951   7.769
 8103X2IT    C737249   3.872   5.023   7.529
 8103X2IT    C837250   3.809   5.107   7.418
 8103X2IT    O237251   3.840   5.082   7.301
 8103X2IT    N337252   3.958   4.932   7.482
 8103X2IT   H1537253   4.007   4.866   7.541
 8103X2IT   H1637254   3.972   4.928   7.380
 8103X2IT    N237255   3.601   5.325   7.615
 8103X2IT    C337256   3.497   5.337   7.719
 8103X2IT    C237257   3.370   5.352   7.636
 8103X2IT    H237258   3.281   5.395   7.682
 8103X2IT    N137259   3.356   5.246   7.534
 8103X2IT   H1437260   3.258   5.238   7.506
 8103X2IT    C137261   3.406   5.379   7.495
 8103X2IT    H137262   3.348   5.443   7.430
 8103X2IT   C1137263   3.558   5.386   7.486
 8103X2IT    O337264   3.586   5.525   7.481
 8103X2IT   C1537265   3.720   5.566   7.511
 8104X2IT   H1837266   2.453   0.998   0.282
 8104X2IT    N437267   2.501   1.063   0.341
 8104X2IT   H1737268   2.581   1.111   0.302
 8104X2IT   C1437269   2.426   1.127   0.436
 8104X2IT    O537270   2.315   1.093   0.472
 8104X2IT    O437271   2.496   1.232   0.487
 8104X2IT   C1337272   2.432   1.305   0.594
 8104X2IT   C1037273   2.453   1.236   0.730
 8104X2IT    C937274   2.393   1.314   0.845
 8104X2IT    C437275   2.491   1.344   0.938
 8104X2IT    C537276   2.465   1.421   1.065
 8104X2IT    O137277   2.559   1.441   1.144
 8104X2IT    C637278   2.330   1.467   1.086
 8104X2IT   C1237279   2.297   1.545   1.211
 8104X2IT    C737280   2.232   1.435   0.994
 8104X2IT    C837281   2.260   1.356   0.865
 8104X2IT    O237282   2.165   1.337   0.787
 8104X2IT    N337283   2.104   1.472   1.006
 8104X2IT   H1537284   2.069   1.526   1.083
 8104X2IT   H1637285   2.040   1.444   0.930
 8104X2IT    N237286   2.611   1.290   0.906
 8104X2IT    C337287   2.745   1.345   0.932
 8104X2IT    C237288   2.802   1.359   0.791
 8104X2IT    H237289   2.910   1.366   0.777
 8104X2IT    N137290   2.712   1.434   0.701
 8104X2IT   H1437291   2.765   1.471   0.622
 8104X2IT    C137292   2.715   1.286   0.695
 8104X2IT    H137293   2.754   1.235   0.608
 8104X2IT   C1137294   2.604   1.220   0.774
 8104X2IT    O337295   2.644   1.085   0.784
 8104X2IT   C1537296   2.580   1.005   0.885
 8105X2IT   H1837297   1.574  -0.054   0.708
 8105X2IT    N437298   1.635  -0.018   0.779
 8105X2IT   H1737299   1.725  -0.063   0.789
 8105X2IT   C1437300   1.624   0.115   0.806
 8105X2IT    O537301   1.530   0.186   0.773
 8105X2IT    O437302   1.731   0.157   0.879
 8105X2IT   C1337303   1.730   0.295   0.921
 8105X2IT   C1037304   1.647   0.314   1.049
 8105X2IT    C937305   1.648   0.456   1.100
 8105X2IT    C437306   1.697   0.460   1.230
 8105X2IT    C537307   1.713   0.586   1.310
 8105X2IT    O137308   1.754   0.579   1.427
 8105X2IT    C637309   1.677   0.709   1.244
 8105X2IT   C1237310   1.690   0.840   1.319
 8105X2IT    C737311   1.627   0.706   1.115
 8105X2IT    C837312   1.611   0.576   1.035
 8105X2IT    O237313   1.570   0.585   0.918
 8105X2IT    N337314   1.590   0.814   1.046
 8105X2IT   H1537315   1.595   0.908   1.083
 8105X2IT   H1637316   1.556   0.800   0.951
 8105X2IT    N237317   1.722   0.336   1.278
 8105X2IT    C337318   1.827   0.295   1.373
 8105X2IT    C237319   1.905   0.193   1.292
 8105X2IT    H237320   1.968   0.120   1.343
 8105X2IT    N137321   1.946   0.245   1.160
 8105X2IT   H1437322   2.025   0.191   1.124
 8105X2IT    C137323   1.828   0.157   1.170
 8105X2IT    H137324   1.829   0.058   1.126
 8105X2IT   C1137325   1.696   0.232   1.174
 8105X2IT    O337326   1.602   0.135   1.217
 8105X2IT   C1537327   1.477   0.184   1.268
 8106X2IT   H1837328   2.849   6.884   7.119
 8106X2IT    N437329   2.880   6.837   7.036
 8106X2IT   H1737330   2.869   6.736   7.033
 8106X2IT   C1437331   2.873   6.908   6.919
 8106X2IT    O537332   2.859   7.029   6.911
 8106X2IT    O437333   2.888   6.824   6.812
 8106X2IT   C1337334   2.889   6.886   6.682
 8106X2IT   C1037335   3.028   6.941   6.647
 8106X2IT    C937336   3.036   7.001   6.509
 8106X2IT    C437337   3.132   6.936   6.434
 8106X2IT    C537338   3.164   6.970   6.291
 8106X2IT    O137339   3.255   6.910   6.233
 8106X2IT    C637340   3.086   7.075   6.231
 8106X2IT   C1237341   3.113   7.115   6.087
 8106X2IT    C737342   2.990   7.140   6.306
 8106X2IT    C837343   2.958   7.105   6.451
 8106X2IT    O237344   2.867   7.167   6.508
 8106X2IT    N337345   2.913   7.240   6.259
 8106X2IT   H1537346   2.919   7.274   6.165
 8106X2IT   H1637347   2.844   7.280   6.323
 8106X2IT    N237348   3.200   6.844   6.506
 8106X2IT    C337349   3.257   6.716   6.460
 8106X2IT    C237350   3.183   6.615   6.546
 8106X2IT    H237351   3.225   6.515   6.560
 8106X2IT    N137352   3.036   6.632   6.541
 8106X2IT   H1437353   2.991   6.545   6.569
 8106X2IT    C137354   3.112   6.685   6.656
 8106X2IT    H137355   3.099   6.643   6.755
 8106X2IT   C1137356   3.144   6.834   6.644
 8106X2IT    O337357   3.242   6.856   6.743
 8106X2IT   C1537358   3.321   6.975   6.732
 8107X2IT   H1837359   2.047   3.962   6.392
 8107X2IT    N437360   1.987   4.013   6.454
 8107X2IT   H1737361   1.933   4.088   6.415
 8107X2IT   C1437362   1.936   3.943   6.560
 8107X2IT    O537363   1.978   3.835   6.600
 8107X2IT    O437364   1.834   4.013   6.618
 8107X2IT   C1337365   1.775   3.954   6.735
 8107X2IT   C1037366   1.857   3.986   6.862
 8107X2IT    C937367   1.794   3.932   6.988
 8107X2IT    C437368   1.769   4.035   7.077
 8107X2IT    C537369   1.707   4.016   7.212
 8107X2IT    O137370   1.692   4.114   7.287
 8107X2IT    C637371   1.669   3.881   7.247
 8107X2IT   C1237372   1.605   3.855   7.382
 8107X2IT    C737373   1.695   3.778   7.159
 8107X2IT    C837374   1.759   3.799   7.022
 8107X2IT    O237375   1.774   3.700   6.948
 8107X2IT    N337376   1.665   3.650   7.183
 8107X2IT   H1537377   1.620   3.618   7.268
 8107X2IT   H1637378   1.687   3.582   7.110
 8107X2IT    N237379   1.815   4.154   7.031
 8107X2IT    C337380   1.758   4.288   7.054
 8107X2IT    C237381   1.727   4.335   6.912
 8107X2IT    H237382   1.715   4.441   6.892
 8107X2IT    N137383   1.647   4.236   6.837
 8107X2IT   H1437384   1.600   4.282   6.759
 8107X2IT    C137385   1.793   4.244   6.815
 8107X2IT    H137386   1.834   4.277   6.721
 8107X2IT   C1137387   1.872   4.140   6.894
 8107X2IT    O337388   2.006   4.185   6.887
 8107X2IT   C1537389   2.098   4.131   6.983
 8108X2IT   H1837390   2.690   5.694   1.039
 8108X2IT    N437391   2.757   5.745   0.984
 8108X2IT   H1737392   2.822   5.804   1.034
 8108X2IT   C1437393   2.796   5.687   0.867
 8108X2IT    O537394   2.739   5.596   0.811
 8108X2IT    O437395   2.908   5.750   0.819
 8108X2IT   C1337396   2.957   5.703   0.692
 8108X2IT   C1037397   2.881   5.768   0.575
 8108X2IT    C937398   2.935   5.727   0.439
 8108X2IT    C437399   2.975   5.839   0.368
 8108X2IT    C537400   3.033   5.833   0.230
 8108X2IT    O137401   3.063   5.939   0.172
 8108X2IT    C637402   3.050   5.702   0.172
 8108X2IT   C1237403   3.109   5.689   0.033
 8108X2IT    C737404   3.009   5.591   0.243
 8108X2IT    C837405   2.949   5.598   0.384
 8108X2IT    O237406   2.920   5.491   0.440
 8108X2IT    N337407   3.020   5.465   0.197
 8108X2IT   H1537408   3.059   5.442   0.108
 8108X2IT   H1637409   2.988   5.390   0.259
 8108X2IT    N237410   2.948   5.954   0.434
 8108X2IT    C337411   3.024   6.080   0.432
 8108X2IT    C237412   3.062   6.097   0.579
 8108X2IT    H237413   3.090   6.195   0.616
 8108X2IT    N137414   3.126   5.976   0.635
 8108X2IT   H1437415   3.180   6.001   0.718
 8108X2IT    C137416   2.983   6.002   0.661
 8108X2IT    H137417   2.948   6.025   0.761
 8108X2IT   C1137418   2.890   5.926   0.568
 8108X2IT    O337419   2.764   5.988   0.587
 8108X2IT   C1537420   2.665   5.966   0.486
 8109X2IT   H1837421  -0.017   1.932   0.733
 8109X2IT    N437422  -0.024   1.982   0.647
 8109X2IT   H1737423  -0.080   1.940   0.574
 8109X2IT   C1437424  -0.016   2.118   0.655
 8109X2IT    O537425   0.025   2.181   0.751
 8109X2IT    O437426  -0.058   2.175   0.538
 8109X2IT   C1337427  -0.049   2.318   0.529
 8109X2IT   C1037428   0.093   2.363   0.490
 8109X2IT    C937429   0.106   2.513   0.473
 8109X2IT    C437430   0.149   2.543   0.346
 8109X2IT    C537431   0.171   2.683   0.296
 8109X2IT    O137432   0.215   2.701   0.181
 8109X2IT    C637433   0.141   2.790   0.388
 8109X2IT   C1237434   0.161   2.934   0.344
 8109X2IT    C737435   0.098   2.760   0.516
 8109X2IT    C837436   0.077   2.617   0.566
 8109X2IT    O237437   0.034   2.601   0.681
 8109X2IT    N337438   0.069   2.852   0.609
 8109X2IT   H1537439   0.076   2.951   0.592
 8109X2IT   H1637440   0.037   2.818   0.700
 8109X2IT    N237441   0.178   2.432   0.274
 8109X2IT    C337442   0.162   2.412   0.129
 8109X2IT    C237443   0.065   2.295   0.123
 8109X2IT    H237444   0.058   2.235   0.032
 8109X2IT    N137445  -0.057   2.319   0.204
 8109X2IT   H1437446  -0.132   2.259   0.171
 8109X2IT    C137447   0.052   2.235   0.258
 8109X2IT    H137448   0.036   2.129   0.274
 8109X2IT   C1137449   0.145   2.309   0.351
 8109X2IT    O337450   0.257   2.223   0.364
 8109X2IT   C1537451   0.378   2.281   0.414
 8110X2IT   H1837452   3.790   3.891   0.539
 8110X2IT    N437453   3.888   3.875   0.528
 8110X2IT   H1737454   3.921   3.855   0.434
 8110X2IT   C1437455   3.971   3.940   0.614
 8110X2IT    O537456   3.937   3.992   0.719
 8110X2IT    O437457   4.100   3.934   0.569
 8110X2IT   C1337458   4.200   3.993   0.654
 8110X2IT   C1037459   4.244   3.895   0.765
 8110X2IT    C937460   4.354   3.951   0.852
 8110X2IT    C437461   4.465   3.868   0.849
 8110X2IT    C537462   4.592   3.894   0.924
 8110X2IT    O137463   4.685   3.812   0.918
 8110X2IT    C637464   4.597   4.016   1.001
 8110X2IT   C1237465   4.723   4.049   1.079
 8110X2IT    C737466   4.487   4.099   1.005
 8110X2IT    C837467   4.357   4.070   0.929
 8110X2IT    O237468   4.266   4.154   0.937
 8110X2IT    N337469   4.481   4.213   1.076
 8110X2IT   H1537470   4.558   4.248   1.130
 8110X2IT   H1637471   4.395   4.267   1.070
 8110X2IT    N237472   4.442   3.755   0.776
 8110X2IT    C337473   4.538   3.679   0.694
 8110X2IT    C237474   4.475   3.687   0.555
 8110X2IT    H237475   4.503   3.615   0.479
 8110X2IT    N137476   4.444   3.827   0.516
 8110X2IT   H1437477   4.436   3.832   0.414
 8110X2IT    C137478   4.336   3.739   0.567
 8110X2IT    H137479   4.256   3.706   0.502
 8110X2IT   C1137480   4.306   3.760   0.714
 8110X2IT    O337481   4.228   3.647   0.750
 8110X2IT   C1537482   4.216   3.617   0.890
 8111X2IT   H1837483   9.137   1.625  -0.510
 8111X2IT    N437484   9.062   1.641  -0.446
 8111X2IT   H1737485   8.968   1.626  -0.480
 8111X2IT   C1437486   9.089   1.618  -0.314
 8111X2IT    O537487   9.201   1.608  -0.266
 8111X2IT    O437488   8.973   1.613  -0.242
 8111X2IT   C1337489   8.987   1.596  -0.100
 8111X2IT   C1037490   9.013   1.731  -0.030
 8111X2IT    C937491   9.021   1.718   0.121
 8111X2IT    C437492   8.927   1.799   0.181
 8111X2IT    C537493   8.907   1.810   0.329
 8111X2IT    O137494   8.822   1.888   0.374
 8111X2IT    C637495   8.992   1.727   0.411
 8111X2IT   C1237496   8.977   1.733   0.562
 8111X2IT    C737497   9.087   1.647   0.352
 8111X2IT    C837498   9.107   1.638   0.200
 8111X2IT    O237499   9.193   1.559   0.157
 8111X2IT    N337500   9.172   1.568   0.420
 8111X2IT   H1537501   9.172   1.561   0.520
 8111X2IT   H1637502   9.238   1.512   0.365
 8111X2IT    N237503   8.858   1.874   0.090
 8111X2IT    C337504   8.718   1.917   0.096
 8111X2IT    C237505   8.659   1.854  -0.030
 8111X2IT    H237506   8.567   1.893  -0.072
 8111X2IT    N137507   8.688   1.709  -0.038
 8111X2IT   H1437508   8.620   1.665  -0.101
 8111X2IT    C137509   8.769   1.804  -0.116
 8111X2IT    H137510   8.765   1.805  -0.224
 8111X2IT   C1137511   8.901   1.840  -0.049
 8111X2IT    O337512   8.946   1.953  -0.120
 8111X2IT   C1537513   9.047   2.034  -0.057
 8112X2IT   H1837514   0.841   0.888   1.343
 8112X2IT    N437515   0.852   0.966   1.281
 8112X2IT   H1737516   0.767   1.013   1.251
 8112X2IT   C1437517   0.967   1.039   1.294
 8112X2IT    O537518   1.067   1.002   1.353
 8112X2IT    O437519   0.955   1.158   1.227
 8112X2IT   C1337520   1.072   1.242   1.227
 8112X2IT   C1037521   1.171   1.201   1.117
 8112X2IT    C937522   1.291   1.291   1.108
 8112X2IT    C437523   1.301   1.346   0.982
 8112X2IT    C537524   1.409   1.442   0.940
 8112X2IT    O137525   1.412   1.483   0.823
 8112X2IT    C637526   1.505   1.479   1.041
 8112X2IT   C1237527   1.617   1.575   1.005
 8112X2IT    C737528   1.496   1.423   1.167
 8112X2IT    C837529   1.386   1.325   1.208
 8112X2IT    O237530   1.385   1.284   1.325
 8112X2IT    N337531   1.582   1.449   1.267
 8112X2IT   H1537532   1.659   1.513   1.257
 8112X2IT   H1637533   1.565   1.403   1.356
 8112X2IT    N237534   1.206   1.298   0.898
 8112X2IT    C337535   1.139   1.368   0.787
 8112X2IT    C237536   0.992   1.362   0.829
 8112X2IT    H237537   0.914   1.376   0.755
 8112X2IT    N137538   0.971   1.412   0.967
 8112X2IT   H1437539   0.873   1.439   0.979
 8112X2IT    C137540   0.977   1.266   0.942
 8112X2IT    H137541   0.890   1.204   0.955
 8112X2IT   C1137542   1.114   1.206   0.970
 8112X2IT    O337543   1.108   1.078   0.908
 8112X2IT   C1537544   1.233   1.012   0.884
 8113X2IT   H1837545   4.877   3.337   1.338
 8113X2IT    N437546   4.831   3.258   1.297
 8113X2IT   H1737547   4.732   3.247   1.315
 8113X2IT   C1437548   4.881   3.213   1.178
 8113X2IT    O537549   4.991   3.242   1.133
 8113X2IT    O437550   4.792   3.128   1.119
 8113X2IT   C1337551   4.835   3.068   0.995
 8113X2IT   C1037552   4.923   2.944   1.020
 8113X2IT    C937553   4.964   2.873   0.893
 8113X2IT    C437554   4.921   2.742   0.895
 8113X2IT    C537555   4.945   2.644   0.783
 8113X2IT    O137556   4.906   2.527   0.795
 8113X2IT    C637557   5.014   2.695   0.667
 8113X2IT   C1237558   5.041   2.602   0.550
 8113X2IT    C737559   5.057   2.826   0.665
 8113X2IT    C837560   5.033   2.924   0.780
 8113X2IT    O237561   5.073   3.041   0.766
 8113X2IT    N337562   5.124   2.881   0.562
 8113X2IT   H1537563   5.146   2.832   0.478
 8113X2IT   H1637564   5.150   2.980   0.571
 8113X2IT    N237565   4.863   2.709   1.013
 8113X2IT    C337566   4.752   2.615   1.036
 8113X2IT    C237567   4.646   2.704   1.098
 8113X2IT    H237568   4.565   2.659   1.156
 8113X2IT    N137569   4.619   2.825   1.016
 8113X2IT   H1437570   4.527   2.862   1.040
 8113X2IT    C137571   4.706   2.834   1.135
 8113X2IT    H137572   4.675   2.891   1.222
 8113X2IT   C1137573   4.854   2.828   1.102
 8113X2IT    O337574   4.917   2.805   1.227
 8113X2IT   C1537575   5.051   2.756   1.225
 8114X2IT   H1837576   7.000  -0.294   6.732
 8114X2IT    N437577   6.992  -0.206   6.779
 8114X2IT   H1737578   7.078  -0.162   6.810
 8114X2IT   C1437579   6.887  -0.127   6.742
 8114X2IT    O537580   6.789  -0.164   6.680
 8114X2IT    O437581   6.905   0.000   6.789
 8114X2IT   C1337582   6.798   0.094   6.764
 8114X2IT   C1037583   6.686   0.081   6.868
 8114X2IT    C937584   6.575   0.182   6.849
 8114X2IT    C437585   6.561   0.259   6.963
 8114X2IT    C537586   6.460   0.369   6.977
 8114X2IT    O137587   6.451   0.431   7.085
 8114X2IT    C637588   6.377   0.396   6.862
 8114X2IT   C1237589   6.274   0.507   6.869
 8114X2IT    C737590   6.391   0.319   6.749
 8114X2IT    C837591   6.494   0.206   6.736
 8114X2IT    O237592   6.501   0.145   6.628
 8114X2IT    N337593   6.318   0.335   6.638
 8114X2IT   H1537594   6.247   0.406   6.628
 8114X2IT   H1637595   6.338   0.273   6.559
 8114X2IT    N237596   6.643   0.218   7.063
 8114X2IT    C337597   6.707   0.300   7.167
 8114X2IT    C237598   6.855   0.274   7.142
 8114X2IT    H237599   6.927   0.293   7.221
 8114X2IT    N137600   6.893   0.296   7.001
 8114X2IT   H1437601   6.994   0.312   6.995
 8114X2IT    C137602   6.869   0.159   7.049
 8114X2IT    H137603   6.951   0.088   7.056
 8114X2IT   C1137604   6.730   0.106   7.018
 8114X2IT    O337605   6.717  -0.008   7.099
 8114X2IT   C1537606   6.585  -0.058   7.122
 8115X2IT   H1837607   7.921   2.560   6.861
 8115X2IT    N437608   7.960   2.485   6.806
 8115X2IT   H1737609   7.983   2.400   6.855
 8115X2IT   C1437610   7.921   2.480   6.676
 8115X2IT    O537611   7.867   2.570   6.614
 8115X2IT    O437612   7.956   2.359   6.622
 8115X2IT   C1337613   7.927   2.341   6.482
 8115X2IT   C1037614   8.038   2.402   6.393
 8115X2IT    C937615   8.014   2.379   6.246
 8115X2IT    C437616   8.122   2.311   6.191
 8115X2IT    C537617   8.130   2.271   6.046
 8115X2IT    O137618   8.232   2.214   6.004
 8115X2IT    C637619   8.017   2.305   5.963
 8115X2IT   C1237620   8.019   2.268   5.816
 8115X2IT    C737621   7.911   2.373   6.018
 8115X2IT    C837622   7.903   2.414   6.165
 8115X2IT    O237623   7.801   2.471   6.205
 8115X2IT    N337624   7.802   2.410   5.948
 8115X2IT   H1537625   7.789   2.390   5.851
 8115X2IT   H1637626   7.728   2.459   6.000
 8115X2IT    N237627   8.221   2.291   6.281
 8115X2IT    C337628   8.314   2.177   6.289
 8115X2IT    C237629   8.285   2.122   6.428
 8115X2IT    H237630   8.359   2.059   6.478
 8115X2IT    N137631   8.141   2.097   6.449
 8115X2IT   H1437632   8.129   2.030   6.526
 8115X2IT    C137633   8.202   2.220   6.503
 8115X2IT    H137634   8.211   2.235   6.610
 8115X2IT   C1137635   8.182   2.342   6.415
 8115X2IT    O337636   8.274   2.437   6.465
 8115X2IT   C1537637   8.306   2.548   6.380
 8116X2IT   H1837638   0.460   0.575   1.809
 8116X2IT    N437639   0.490   0.566   1.713
 8116X2IT   H1737640   0.539   0.481   1.688
 8116X2IT   C1437641   0.412   0.627   1.619
 8116X2IT    O537642   0.328   0.713   1.642
 8116X2IT    O437643   0.444   0.581   1.495
 8116X2IT   C1337644   0.375   0.643   1.384
 8116X2IT   C1037645   0.441   0.775   1.343
 8116X2IT    C937646   0.375   0.839   1.223
 8116X2IT    C437647   0.467   0.857   1.121
 8116X2IT    C537648   0.434   0.917   0.987
 8116X2IT    O137649   0.524   0.932   0.903
 8116X2IT    C637650   0.297   0.955   0.966
 8116X2IT   C1237651   0.257   1.016   0.833
 8116X2IT    C737652   0.205   0.939   1.068
 8116X2IT    C837653   0.240   0.878   1.204
 8116X2IT    O237654   0.148   0.864   1.287
 8116X2IT    N337655   0.075   0.973   1.058
 8116X2IT   H1537656   0.035   1.012   0.975
 8116X2IT   H1637657   0.016   0.955   1.139
 8116X2IT    N237658   0.592   0.820   1.159
 8116X2IT    C337659   0.698   0.761   1.076
 8116X2IT    C237660   0.723   0.628   1.146
 8116X2IT    H237661   0.818   0.575   1.129
 8116X2IT    N137662   0.599   0.551   1.166
 8116X2IT   H1437663   0.622   0.452   1.180
 8116X2IT    C137664   0.656   0.628   1.278
 8116X2IT    H137665   0.697   0.578   1.365
 8116X2IT   C1137666   0.591   0.764   1.297
 8116X2IT    O337667   0.680   0.833   1.383
 8116X2IT   C1537668   0.667   0.976   1.389
 8117X2IT   H1837669   2.175   0.242   1.273
 8117X2IT    N437670   2.258   0.297   1.283
 8117X2IT   H1737671   2.267   0.378   1.223
 8117X2IT   C1437672   2.316   0.299   1.407
 8117X2IT    O537673   2.292   0.221   1.497
 8117X2IT    O437674   2.407   0.400   1.414
 8117X2IT   C1337675   2.481   0.411   1.537
 8117X2IT   C1037676   2.601   0.315   1.540
 8117X2IT    C937677   2.685   0.327   1.665
 8117X2IT    C437678   2.816   0.359   1.631
 8117X2IT    C537679   2.925   0.379   1.732
 8117X2IT    O137680   3.040   0.403   1.693
 8117X2IT    C637681   2.888   0.368   1.871
 8117X2IT   C1237682   2.993   0.388   1.978
 8117X2IT    C737683   2.757   0.336   1.904
 8117X2IT    C837684   2.647   0.315   1.800
 8117X2IT    O237685   2.532   0.291   1.842
 8117X2IT    N337686   2.714   0.322   2.030
 8117X2IT   H1537687   2.773   0.335   2.111
 8117X2IT   H1637688   2.615   0.300   2.043
 8117X2IT    N237689   2.835   0.360   1.497
 8117X2IT    C337690   2.927   0.446   1.420
 8117X2IT    C237691   2.832   0.521   1.328
 8117X2IT    H237692   2.870   0.567   1.237
 8117X2IT    N137693   2.721   0.585   1.402
 8117X2IT   H1437694   2.681   0.661   1.345
 8117X2IT    C137695   2.698   0.457   1.333
 8117X2IT    H137696   2.632   0.451   1.247
 8117X2IT   C1137697   2.707   0.336   1.425
 8117X2IT    O337698   2.716   0.226   1.336
 8117X2IT   C1537699   2.764   0.102   1.391
 8118X2IT   H1837700   4.152   6.565  -0.237
 8118X2IT    N437701   4.078   6.501  -0.213
 8118X2IT   H1737702   4.025   6.462  -0.290
 8118X2IT   C1437703   4.096   6.426  -0.100
 8118X2IT    O537704   4.178   6.449  -0.013
 8118X2IT    O437705   4.006   6.324  -0.097
 8118X2IT   C1337706   4.008   6.240   0.020
 8118X2IT   C1037707   3.927   6.302   0.135
 8118X2IT    C937708   3.922   6.214   0.258
 8118X2IT    C437709   3.790   6.186   0.291
 8118X2IT    C537710   3.749   6.100   0.407
 8118X2IT    O137711   3.629   6.083   0.431
 8118X2IT    C637712   3.856   6.043   0.485
 8118X2IT   C1237713   3.822   5.955   0.604
 8118X2IT    C737714   3.987   6.072   0.454
 8118X2IT    C837715   4.028   6.160   0.335
 8118X2IT    O237716   4.149   6.176   0.313
 8118X2IT    N337717   4.093   6.025   0.522
 8118X2IT   H1537718   4.084   5.964   0.601
 8118X2IT   H1637719   4.186   6.052   0.488
 8118X2IT    N237720   3.703   6.251   0.210
 8118X2IT    C337721   3.570   6.205   0.165
 8118X2IT    C237722   3.587   6.204   0.013
 8118X2IT    H237723   3.499   6.207  -0.051
 8118X2IT    N137724   3.706   6.128  -0.029
 8118X2IT   H1437725   3.695   6.100  -0.127
 8118X2IT    C137726   3.712   6.275  -0.023
 8118X2IT    H137727   3.722   6.334  -0.114
 8118X2IT   C1137728   3.775   6.328   0.105
 8118X2IT    O337729   3.741   6.465   0.106
 8118X2IT   C1537730   3.752   6.534   0.231
 8119X2IT   H1837731   2.338   3.529   6.782
 8119X2IT    N437732   2.349   3.430   6.784
 8119X2IT   H1737733   2.411   3.391   6.853
 8119X2IT   C1437734   2.240   3.356   6.744
 8119X2IT    O537735   2.145   3.400   6.682
 8119X2IT    O437736   2.257   3.225   6.780
 8119X2IT   C1337737   2.153   3.134   6.738
 8119X2IT   C1037738   2.174   3.088   6.593
 8119X2IT    C937739   2.071   2.987   6.548
 8119X2IT    C437740   2.133   2.870   6.508
 8119X2IT    C537741   2.059   2.749   6.458
 8119X2IT    O137742   2.124   2.650   6.420
 8119X2IT    C637743   1.915   2.757   6.456
 8119X2IT   C1237744   1.835   2.638   6.407
 8119X2IT    C737745   1.853   2.874   6.495
 8119X2IT    C837746   1.930   2.997   6.545
 8119X2IT    O237747   1.864   3.096   6.582
 8119X2IT    N337748   1.720   2.892   6.495
 8119X2IT   H1537749   1.655   2.821   6.467
 8119X2IT   H1637750   1.685   2.983   6.528
 8119X2IT    N237751   2.268   2.880   6.511
 8119X2IT    C337752   2.366   2.775   6.541
 8119X2IT    C237753   2.438   2.831   6.663
 8119X2IT    H237754   2.536   2.793   6.690
 8119X2IT    N137755   2.343   2.872   6.770
 8119X2IT   H1437756   2.393   2.875   6.859
 8119X2IT    C137757   2.401   2.974   6.680
 8119X2IT    H137758   2.470   3.048   6.718
 8119X2IT   C1137759   2.310   3.013   6.565
 8119X2IT    O337760   2.394   3.083   6.476
 8119X2IT   C1537761   2.348   3.099   6.341
 8120X2IT   H1837762   7.795   2.018   1.089
 8120X2IT    N437763   7.728   1.967   1.034
 8120X2IT   H1737764   7.764   1.894   0.973
 8120X2IT   C1437765   7.603   1.954   1.087
 8120X2IT    O537766   7.558   2.019   1.180
 8120X2IT    O437767   7.533   1.859   1.018
 8120X2IT   C1337768   7.396   1.838   1.059
 8120X2IT   C1037769   7.302   1.941   0.994
 8120X2IT    C937770   7.157   1.919   1.029
 8120X2IT    C437771   7.082   1.901   0.914
 8120X2IT    C537772   6.934   1.875   0.913
 8120X2IT    O137773   6.875   1.864   0.805
 8120X2IT    C637774   6.869   1.867   1.042
 8120X2IT   C1237775   6.720   1.841   1.048
 8120X2IT    C737776   6.944   1.887   1.157
 8120X2IT    C837777   7.094   1.913   1.156
 8120X2IT    O237778   7.152   1.924   1.266
 8120X2IT    N337779   6.892   1.883   1.281
 8120X2IT   H1537780   6.795   1.864   1.299
 8120X2IT   H1637781   6.957   1.897   1.359
 8120X2IT    N237782   7.157   1.916   0.802
 8120X2IT    C337783   7.142   1.847   0.673
 8120X2IT    C237784   7.277   1.777   0.658
 8120X2IT    H237785   7.310   1.745   0.560
 8120X2IT    N137786   7.312   1.697   0.778
 8120X2IT   H1437787   7.382   1.627   0.752
 8120X2IT    C137788   7.372   1.831   0.759
 8120X2IT    H137789   7.478   1.843   0.740
 8120X2IT   C1137790   7.300   1.940   0.837
 8120X2IT    O337791   7.349   2.061   0.780
 8120X2IT   C1537792   7.273   2.180   0.804
 8121X2IT   H1837793   5.262   7.712   7.293
 8121X2IT    N437794   5.205   7.751   7.220
 8121X2IT   H1737795   5.153   7.835   7.242
 8121X2IT   C1437796   5.249   7.731   7.092
 8121X2IT    O537797   5.333   7.650   7.058
 8121X2IT    O437798   5.181   7.814   7.007
 8121X2IT   C1337799   5.212   7.799   6.867
 8121X2IT   C1037800   5.133   7.683   6.803
 8121X2IT    C937801   5.157   7.669   6.655
 8121X2IT    C437802   5.037   7.680   6.586
 8121X2IT    C537803   5.026   7.671   6.436
 8121X2IT    O137804   4.914   7.678   6.383
 8121X2IT    C637805   5.149   7.654   6.363
 8121X2IT   C1237806   5.145   7.645   6.212
 8121X2IT    C737807   5.268   7.642   6.432
 8121X2IT    C837808   5.279   7.651   6.585
 8121X2IT    O237809   5.391   7.643   6.636
 8121X2IT    N337810   5.388   7.624   6.373
 8121X2IT   H1537811   5.399   7.619   6.274
 8121X2IT   H1637812   5.470   7.619   6.434
 8121X2IT    N237813   4.931   7.691   6.669
 8121X2IT    C337814   4.806   7.766   6.647
 8121X2IT    C237815   4.807   7.865   6.763
 8121X2IT    H237816   4.714   7.912   6.794
 8121X2IT    N137817   4.934   7.941   6.771
 8121X2IT   H1437818   4.919   8.027   6.824
 8121X2IT    C137819   4.912   7.826   6.861
 8121X2IT    H137820   4.901   7.840   6.967
 8121X2IT   C1137821   4.976   7.697   6.811
 8121X2IT    O337822   4.915   7.596   6.890
 8121X2IT   C1537823   4.926   7.461   6.842
 8122X2IT   H1837824   6.297   3.114   0.281
 8122X2IT    N437825   6.388   3.100   0.322
 8122X2IT   H1737826   6.401   3.015   0.375
 8122X2IT   C1437827   6.494   3.155   0.257
 8122X2IT    O537828   6.487   3.242   0.171
 8122X2IT    O437829   6.611   3.103   0.305
 8122X2IT   C1337830   6.732   3.158   0.250
 8122X2IT   C1037831   6.773   3.289   0.320
 8122X2IT    C937832   6.903   3.345   0.270
 8122X2IT    C437833   6.993   3.358   0.374
 8122X2IT    C537834   7.133   3.410   0.358
 8122X2IT    O137835   7.206   3.421   0.458
 8122X2IT    C637836   7.174   3.446   0.224
 8122X2IT   C1237837   7.314   3.499   0.201
 8122X2IT    C737838   7.084   3.434   0.120
 8122X2IT    C837839   6.941   3.381   0.138
 8122X2IT    O237840   6.870   3.371   0.037
 8122X2IT    N337841   7.112   3.467  -0.007
 8122X2IT   H1537842   7.201   3.501  -0.037
 8122X2IT   H1637843   7.038   3.452  -0.076
 8122X2IT    N237844   6.938   3.325   0.493
 8122X2IT    C337845   7.004   3.262   0.609
 8122X2IT    C237846   6.924   3.133   0.626
 8122X2IT    H237847   6.925   3.081   0.721
 8122X2IT    N137848   6.915   3.056   0.500
 8122X2IT   H1437849   6.893   2.958   0.521
 8122X2IT    C137850   6.801   3.140   0.543
 8122X2IT    H137851   6.707   3.095   0.572
 8122X2IT   C1137852   6.798   3.276   0.475
 8122X2IT    O337853   6.706   3.351   0.552
 8122X2IT   C1537854   6.710   3.494   0.538
 8123X2IT   H1837855   4.956   5.606   7.602
 8123X2IT    N437856   4.918   5.514   7.596
 8123X2IT   H1737857   4.836   5.494   7.653
 8123X2IT   C1437858   4.933   5.449   7.477
 8123X2IT    O537859   5.011   5.481   7.389
 8123X2IT    O437860   4.851   5.339   7.472
 8123X2IT   C1337861   4.862   5.257   7.354
 8123X2IT   C1037862   4.979   5.158   7.365
 8123X2IT    C937863   4.989   5.065   7.246
 8123X2IT    C437864   4.981   4.933   7.288
 8123X2IT    C537865   4.987   4.815   7.195
 8123X2IT    O137866   4.982   4.701   7.241
 8123X2IT    C637867   4.999   4.845   7.054
 8123X2IT   C1237868   5.005   4.731   6.955
 8123X2IT    C737869   5.008   4.977   7.013
 8123X2IT    C837870   5.002   5.096   7.109
 8123X2IT    O237871   5.007   5.210   7.060
 8123X2IT    N337872   5.021   5.014   6.884
 8123X2IT   H1537873   5.024   4.948   6.808
 8123X2IT   H1637874   5.025   5.114   6.865
 8123X2IT    N237875   4.975   4.922   7.423
 8123X2IT    C337876   4.904   4.821   7.503
 8123X2IT    C237877   4.807   4.907   7.584
 8123X2IT    H237878   4.764   4.867   7.676
 8123X2IT    N137879   4.728   4.998   7.499
 8123X2IT   H1437880   4.643   5.026   7.549
 8123X2IT    C137881   4.845   5.050   7.572
 8123X2IT    H137882   4.834   5.121   7.653
 8123X2IT   C1137883   4.971   5.057   7.486
 8123X2IT    O337884   5.075   5.075   7.580
 8123X2IT   C1537885   5.209   5.048   7.535
 8124X2IT   H1837886   6.572   6.142   5.689
 8124X2IT    N437887   6.559   6.045   5.710
 8124X2IT   H1737888   6.592   5.978   5.641
 8124X2IT   C1437889   6.558   6.009   5.842
 8124X2IT    O537890   6.545   6.086   5.935
 8124X2IT    O437891   6.571   5.874   5.854
 8124X2IT   C1337892   6.565   5.821   5.988
 8124X2IT   C1037893   6.420   5.803   6.035
 8124X2IT    C937894   6.410   5.741   6.173
 8124X2IT    C437895   6.336   5.624   6.167
 8124X2IT    C537896   6.308   5.537   6.287
 8124X2IT    O137897   6.238   5.436   6.273
 8124X2IT    C637898   6.365   5.580   6.412
 8124X2IT   C1237899   6.341   5.497   6.537
 8124X2IT    C737900   6.438   5.697   6.418
 8124X2IT    C837901   6.465   5.785   6.295
 8124X2IT    O237902   6.535   5.886   6.311
 8124X2IT    N337903   6.493   5.746   6.530
 8124X2IT   H1537904   6.486   5.700   6.619
 8124X2IT   H1637905   6.546   5.833   6.522
 8124X2IT    N237906   6.286   5.601   6.043
 8124X2IT    C337907   6.263   5.471   5.978
 8124X2IT    C237908   6.352   5.481   5.854
 8124X2IT    H237909   6.333   5.417   5.769
 8124X2IT    N137910   6.491   5.520   5.888
 8124X2IT   H1437911   6.553   5.493   5.811
 8124X2IT    C137912   6.396   5.622   5.837
 8124X2IT    H137913   6.411   5.668   5.740
 8124X2IT   C1137914   6.333   5.705   5.948
 8124X2IT    O337915   6.224   5.770   5.884
 8124X2IT   C1537916   6.122   5.825   5.968
 8125X2IT   H1837917   2.020   0.428   6.985
 8125X2IT    N437918   2.115   0.404   7.003
 8125X2IT   H1737919   2.168   0.469   7.061
 8125X2IT   C1437920   2.146   0.271   7.008
 8125X2IT    O537921   2.075   0.181   6.965
 8125X2IT    O437922   2.269   0.253   7.064
 8125X2IT   C1337923   2.317   0.117   7.069
 8125X2IT   C1037924   2.382   0.075   6.935
 8125X2IT    C937925   2.440  -0.064   6.939
 8125X2IT    C437926   2.575  -0.060   6.909
 8125X2IT    C537927   2.663  -0.182   6.904
 8125X2IT    O137928   2.782  -0.169   6.872
 8125X2IT    C637929   2.601  -0.308   6.937
 8125X2IT   C1237930   2.685  -0.434   6.935
 8125X2IT    C737931   2.466  -0.312   6.966
 8125X2IT    C837932   2.377  -0.187   6.970
 8125X2IT    O237933   2.258  -0.202   7.002
 8125X2IT    N337934   2.399  -0.424   6.996
 8125X2IT   H1537935   2.443  -0.514   7.001
 8125X2IT   H1637936   2.300  -0.415   7.018
 8125X2IT    N237937   2.616   0.065   6.876
 8125X2IT    C337938   2.748   0.126   6.901
 8125X2IT    C237939   2.712   0.246   6.987
 8125X2IT    H237940   2.781   0.330   6.995
 8125X2IT    N137941   2.628   0.208   7.103
 8125X2IT   H1437942   2.635   0.281   7.175
 8125X2IT    C137943   2.565   0.267   6.983
 8125X2IT    H137944   2.519   0.365   6.987
 8125X2IT   C1137945   2.505   0.163   6.890
 8125X2IT    O337946   2.481   0.234   6.770
 8125X2IT   C1537947   2.461   0.156   6.651
 8126X2IT   H1837948   9.847  -0.001   0.360
 8126X2IT    N437949   9.787  -0.021   0.438
 8126X2IT   H1737950   9.790  -0.115   0.475
 8126X2IT   C1437951   9.759   0.083   0.521
 8126X2IT    O537952   9.777   0.201   0.496
 8126X2IT    O437953   9.703   0.037   0.637
 8126X2IT   C1337954   9.662   0.136   0.733
 8126X2IT   C1037955   9.523   0.193   0.699
 8126X2IT    C937956   9.474   0.293   0.801
 8126X2IT    C437957   9.353   0.251   0.855
 8126X2IT    C537958   9.277   0.327   0.960
 8126X2IT    O137959   9.168   0.283   0.999
 8126X2IT    C637960   9.337   0.449   1.007
 8126X2IT   C1237961   9.266   0.530   1.113
 8126X2IT    C737962   9.457   0.491   0.953
 8126X2IT    C837963   9.533   0.413   0.846
 8126X2IT    O237964   9.642   0.459   0.807
 8126X2IT    N337965   9.520   0.604   0.990
 8126X2IT   H1537966   9.485   0.666   1.060
 8126X2IT   H1637967   9.609   0.625   0.944
 8126X2IT    N237968   9.308   0.137   0.796
 8126X2IT    C337969   9.231   0.028   0.857
 8126X2IT    C237970   9.322  -0.092   0.838
 8126X2IT    H237971   9.281  -0.193   0.842
 8126X2IT    N137972   9.460  -0.066   0.887
 8126X2IT   H1437973   9.506  -0.156   0.905
 8126X2IT    C137974   9.431  -0.056   0.743
 8126X2IT    H137975   9.474  -0.126   0.672
 8126X2IT   C1137976   9.407   0.087   0.696
 8126X2IT    O337977   9.349   0.072   0.568
 8126X2IT   C1537978   9.280   0.185   0.513
 8127X2IT   H1837979   4.494   0.865   6.651
 8127X2IT    N437980   4.431   0.918   6.710
 8127X2IT   H1737981   4.461   0.936   6.804
 8127X2IT   C1437982   4.350   1.008   6.646
 8127X2IT    O537983   4.329   1.011   6.527
 8127X2IT    O437984   4.294   1.092   6.738
 8127X2IT   C1337985   4.201   1.190   6.686
 8127X2IT   C1037986   4.060   1.129   6.669
 8127X2IT    C937987   3.958   1.230   6.622
 8127X2IT    C437988   3.854   1.239   6.712
 8127X2IT    C537989   3.736   1.330   6.696
 8127X2IT    O137990   3.645   1.328   6.780
 8127X2IT    C637991   3.736   1.415   6.579
 8127X2IT   C1237992   3.620   1.510   6.556
 8127X2IT    C737993   3.840   1.406   6.488
 8127X2IT    C837994   3.959   1.312   6.506
 8127X2IT    O237995   4.049   1.315   6.420
 8127X2IT    N337996   3.848   1.479   6.376
 8127X2IT   H1537997   3.779   1.548   6.350
 8127X2IT   H1637998   3.930   1.465   6.317
 8127X2IT    N237999   3.867   1.149   6.813
 8127X2IT    C338000   3.825   1.164   6.953
 8127X2IT    C238001   3.956   1.149   7.029
 8127X2IT    H238002   3.955   1.122   7.134
 8127X2IT    N138003   4.061   1.239   6.977
 8127X2IT   H1438004   4.133   1.252   7.048
 8127X2IT    C138005   4.060   1.097   6.936
 8127X2IT    H138006   4.139   1.030   6.968
 8127X2IT   C1138007   3.995   1.074   6.801
 8127X2IT    O338008   3.973   0.934   6.797
 8127X2IT   C1538009   3.879   0.885   6.700
 8128X2IT   H1838010   6.757   2.876   7.854
 8128X2IT    N438011   6.804   2.890   7.767
 8128X2IT   H1738012   6.759   2.951   7.699
 8128X2IT   C1438013   6.940   2.884   7.770
 8128X2IT    O538014   7.007   2.837   7.861
 8128X2IT    O438015   6.992   2.935   7.654
 8128X2IT   C1338016   7.136   2.929   7.641
 8128X2IT   C1038017   7.182   2.791   7.590
 8128X2IT    C938018   7.331   2.783   7.568
 8128X2IT    C438019   7.358   2.749   7.436
 8128X2IT    C538020   7.496   2.733   7.381
 8128X2IT    O138021   7.511   2.699   7.262
 8128X2IT    C638022   7.606   2.759   7.471
 8128X2IT   C1238023   7.748   2.745   7.422
 8128X2IT    C738024   7.579   2.791   7.603
 8128X2IT    C838025   7.437   2.806   7.659
 8128X2IT    O238026   7.424   2.841   7.777
 8128X2IT    N338027   7.673   2.815   7.695
 8128X2IT   H1538028   7.772   2.812   7.675
 8128X2IT   H1638029   7.642   2.840   7.789
 8128X2IT    N238030   7.245   2.724   7.366
 8128X2IT    C338031   7.219   2.749   7.223
 8128X2IT    C238032   7.101   2.845   7.228
 8128X2IT    H238033   7.038   2.857   7.140
 8128X2IT    N138034   7.126   2.961   7.317
 8128X2IT   H1438035   7.063   3.038   7.291
 8128X2IT    C138036   7.045   2.847   7.365
 8128X2IT    H138037   6.939   2.860   7.386
 8128X2IT   C1138038   7.124   2.749   7.450
 8128X2IT    O338039   7.040   2.635   7.457
 8128X2IT   C1538040   7.101   2.511   7.496
 8129X2IT   H1838041   3.763   7.719   7.996
 8129X2IT    N438042   3.696   7.704   7.923
 8129X2IT   H1738043   3.599   7.724   7.944
 8129X2IT   C1438044   3.741   7.719   7.795
 8129X2IT    O538045   3.858   7.723   7.761
 8129X2IT    O438046   3.635   7.726   7.709
 8129X2IT   C1338047   3.667   7.736   7.569
 8129X2IT   C1038048   3.696   7.598   7.508
 8129X2IT    C938049   3.723   7.603   7.359
 8129X2IT    C438050   3.633   7.523   7.291
 8129X2IT    C538051   3.632   7.507   7.142
 8129X2IT    O138052   3.550   7.430   7.089
 8129X2IT    C638053   3.730   7.582   7.068
 8129X2IT   C1238054   3.734   7.570   6.917
 8129X2IT    C738055   3.821   7.661   7.136
 8129X2IT    C838056   3.821   7.676   7.288
 8129X2IT    O238057   3.905   7.753   7.339
 8129X2IT    N338058   3.917   7.733   7.076
 8129X2IT   H1538059   3.930   7.736   6.977
 8129X2IT   H1638060   3.978   7.789   7.137
 8129X2IT    N238061   3.551   7.456   7.375
 8129X2IT    C338062   3.410   7.417   7.353
 8129X2IT    C238063   3.339   7.489   7.467
 8129X2IT    H238064   3.241   7.455   7.499
 8129X2IT    N138065   3.373   7.633   7.473
 8129X2IT   H1438066   3.300   7.683   7.526
 8129X2IT    C138067   3.440   7.538   7.565
 8129X2IT    H138068   3.422   7.542   7.672
 8129X2IT   C1138069   3.577   7.494   7.517
 8129X2IT    O338070   3.608   7.382   7.597
 8129X2IT   C1538071   3.712   7.295   7.551
 8130X2IT   H1838072   3.877   0.906   0.159
 8130X2IT    N438073   3.972   0.930   0.138
 8130X2IT   H1738074   4.023   0.866   0.079
 8130X2IT   C1438075   4.001   1.064   0.132
 8130X2IT    O538076   3.932   1.153   0.176
 8130X2IT    O438077   4.123   1.082   0.072
 8130X2IT   C1338078   4.171   1.218   0.065
 8130X2IT   C1038079   4.239   1.261   0.196
 8130X2IT    C938080   4.296   1.400   0.191
 8130X2IT    C438081   4.432   1.397   0.217
 8130X2IT    C538082   4.519   1.519   0.219
 8130X2IT    O138083   4.639   1.507   0.248
 8130X2IT    C638084   4.456   1.645   0.187
 8130X2IT   C1238085   4.539   1.771   0.186
 8130X2IT    C738086   4.320   1.648   0.161
 8130X2IT    C838087   4.232   1.523   0.161
 8130X2IT    O238088   4.112   1.537   0.132
 8130X2IT    N338089   4.252   1.760   0.132
 8130X2IT   H1538090   4.295   1.850   0.126
 8130X2IT   H1638091   4.152   1.750   0.113
 8130X2IT    N238092   4.475   1.273   0.250
 8130X2IT    C338093   4.606   1.212   0.222
 8130X2IT    C238094   4.568   1.091   0.137
 8130X2IT    H238095   4.637   1.008   0.128
 8130X2IT    N138096   4.481   1.128   0.023
 8130X2IT   H1438097   4.486   1.055  -0.048
 8130X2IT    C138098   4.421   1.070   0.145
 8130X2IT    H138099   4.375   0.972   0.143
 8130X2IT   C1138100   4.363   1.174   0.239
 8130X2IT    O338101   4.343   1.104   0.360
 8130X2IT   C1538102   4.326   1.182   0.479
 8131X2IT   H1838103   5.336   0.770   1.460
 8131X2IT    N438104   5.385   0.821   1.389
 8131X2IT   H1738105   5.469   0.869   1.416
 8131X2IT   C1438106   5.374   0.772   1.261
 8131X2IT    O538107   5.290   0.691   1.224
 8131X2IT    O438108   5.468   0.830   1.181
 8131X2IT   C1338109   5.464   0.792   1.042
 8131X2IT   C1038110   5.360   0.875   0.964
 8131X2IT    C938111   5.358   0.844   0.816
 8131X2IT    C438112   5.383   0.958   0.743
 8131X2IT    C538113   5.389   0.962   0.593
 8131X2IT    O138114   5.408   1.070   0.535
 8131X2IT    C638115   5.370   0.836   0.524
 8131X2IT   C1238116   5.375   0.833   0.373
 8131X2IT    C738117   5.344   0.722   0.598
 8131X2IT    C838118   5.338   0.720   0.751
 8131X2IT    O238119   5.318   0.611   0.806
 8131X2IT    N338120   5.324   0.601   0.543
 8131X2IT   H1538121   5.326   0.584   0.444
 8131X2IT   H1638122   5.307   0.523   0.607
 8131X2IT    N238123   5.393   1.068   0.822
 8131X2IT    C338124   5.478   1.187   0.801
 8131X2IT    C238125   5.566   1.186   0.925
 8131X2IT    H238126   5.616   1.278   0.956
 8131X2IT    N138127   5.632   1.055   0.947
 8131X2IT   H1438128   5.714   1.068   1.007
 8131X2IT    C138129   5.511   1.090   1.024
 8131X2IT    H138130   5.516   1.105   1.131
 8131X2IT   C1138131   5.383   1.031   0.966
 8131X2IT    O338132   5.280   1.101   1.031
 8131X2IT   C1538133   5.149   1.097   0.972
 8132X2IT   H1838134   7.624   4.553   7.817
 8132X2IT    N438135   7.667   4.545   7.727
 8132X2IT   H1738136   7.678   4.630   7.674
 8132X2IT   C1438137   7.757   4.444   7.711
 8132X2IT    O538138   7.770   4.348   7.786
 8132X2IT    O438139   7.829   4.463   7.596
 8132X2IT   C1338140   7.924   4.360   7.563
 8132X2IT   C1038141   7.857   4.243   7.490
 8132X2IT    C938142   7.954   4.136   7.447
 8132X2IT    C438143   7.948   4.117   7.310
 8132X2IT    C538144   8.032   4.019   7.235
 8132X2IT    O138145   8.017   4.006   7.112
 8132X2IT    C638146   8.127   3.943   7.312
 8132X2IT   C1238147   8.216   3.842   7.242
 8132X2IT    C738148   8.133   3.960   7.449
 8132X2IT    C838149   8.046   4.061   7.525
 8132X2IT    O238150   8.062   4.071   7.647
 8132X2IT    N338151   8.217   3.893   7.530
 8132X2IT   H1538152   8.282   3.825   7.496
 8132X2IT   H1638153   8.213   3.915   7.630
 8132X2IT    N238154   7.850   4.193   7.253
 8132X2IT    C338155   7.850   4.254   7.119
 8132X2IT    C238156   7.837   4.402   7.151
 8132X2IT    H238157   7.801   4.471   7.075
 8132X2IT    N138158   7.938   4.448   7.249
 8132X2IT   H1438159   7.949   4.549   7.242
 8132X2IT    C138160   7.800   4.418   7.294
 8132X2IT    H138161   7.736   4.498   7.330
 8132X2IT   C1138162   7.785   4.280   7.355
 8132X2IT    O338163   7.645   4.260   7.359
 8132X2IT   C1538164   7.599   4.125   7.375
 8133X2IT   H1838165   4.655   0.118   6.858
 8133X2IT    N438166   4.615   0.070   6.936
 8133X2IT   H1738167   4.617  -0.031   6.933
 8133X2IT   C1438168   4.620   0.133   7.057
 8133X2IT    O538169   4.644   0.251   7.074
 8133X2IT    O438170   4.592   0.044   7.157
 8133X2IT   C1338171   4.587   0.099   7.291
 8133X2IT   C1038172   4.450   0.163   7.321
 8133X2IT    C938173   4.439   0.215   7.462
 8133X2IT    C438174   4.333   0.155   7.527
 8133X2IT    C538175   4.294   0.184   7.669
 8133X2IT    O138176   4.195   0.128   7.718
 8133X2IT    C638177   4.377   0.278   7.741
 8133X2IT   C1238178   4.344   0.311   7.885
 8133X2IT    C738179   4.483   0.339   7.675
 8133X2IT    C838180   4.521   0.309   7.530
 8133X2IT    O238181   4.620   0.366   7.483
 8133X2IT    N338182   4.564   0.429   7.733
 8133X2IT   H1538183   4.555   0.458   7.829
 8133X2IT   H1638184   4.640   0.466   7.676
 8133X2IT    N238185   4.263   0.073   7.444
 8133X2IT    C338186   4.192  -0.051   7.479
 8133X2IT    C238187   4.263  -0.154   7.391
 8133X2IT    H238188   4.214  -0.248   7.369
 8133X2IT    N138189   4.410  -0.149   7.407
 8133X2IT   H1438190   4.450  -0.238   7.376
 8133X2IT    C138191   4.347  -0.083   7.291
 8133X2IT    H138192   4.363  -0.120   7.191
 8133X2IT   C1138193   4.327   0.066   7.310
 8133X2IT    O338194   4.237   0.103   7.207
 8133X2IT   C1538195   4.168   0.228   7.221
 8134X2IT   H1838196   0.227   1.733   6.977
 8134X2IT    N438197   0.190   1.673   6.905
 8134X2IT   H1738198   0.116   1.610   6.932
 8134X2IT   C1438199   0.195   1.721   6.778
 8134X2IT    O538200   0.263   1.815   6.740
 8134X2IT    O438201   0.115   1.646   6.696
 8134X2IT   C1338202   0.115   1.681   6.557
 8134X2IT   C1038203   0.235   1.618   6.483
 8134X2IT    C938204   0.235   1.647   6.334
 8134X2IT    C438205   0.233   1.528   6.263
 8134X2IT    C538206   0.232   1.521   6.113
 8134X2IT    O138207   0.234   1.411   6.057
 8134X2IT    C638208   0.229   1.647   6.042
 8134X2IT   C1238209   0.227   1.647   5.891
 8134X2IT    C738210   0.231   1.765   6.114
 8134X2IT    C838211   0.233   1.771   6.267
 8134X2IT    O238212   0.231   1.883   6.321
 8134X2IT    N338213   0.231   1.887   6.057
 8134X2IT   H1538214   0.227   1.901   5.958
 8134X2IT   H1638215   0.231   1.968   6.120
 8134X2IT    N238216   0.241   1.419   6.343
 8134X2IT    C338217   0.180   1.287   6.323
 8134X2IT    C238218   0.091   1.274   6.446
 8134X2IT    H238219   0.057   1.175   6.478
 8134X2IT    N138220   0.001   1.390   6.463
 8134X2IT   H1438221  -0.078   1.364   6.522
 8134X2IT    C138222   0.125   1.380   6.544
 8134X2IT    H138223   0.120   1.365   6.651
 8134X2IT   C1138224   0.241   1.460   6.487
 8134X2IT    O338225   0.354   1.411   6.556
 8134X2IT   C1538226   0.483   1.439   6.499
 8135X2IT   H1838227   4.933   3.632   2.005
 8135X2IT    N438228   4.918   3.689   1.924
 8135X2IT   H1738229   4.862   3.772   1.935
 8135X2IT   C1438230   5.017   3.687   1.830
 8135X2IT    O538231   5.106   3.604   1.823
 8135X2IT    O438232   4.999   3.789   1.741
 8135X2IT   C1338233   5.093   3.796   1.632
 8135X2IT   C1038234   5.052   3.702   1.517
 8135X2IT    C938235   5.144   3.711   1.397
 8135X2IT    C438236   5.073   3.746   1.284
 8135X2IT    C538237   5.134   3.764   1.149
 8135X2IT    O138238   5.061   3.792   1.052
 8135X2IT    C638239   5.277   3.747   1.140
 8135X2IT   C1238240   5.345   3.764   1.006
 8135X2IT    C738241   5.349   3.711   1.252
 8135X2IT    C838242   5.285   3.692   1.390
 8135X2IT    O238243   5.359   3.664   1.485
 8135X2IT    N338244   5.481   3.691   1.253
 8135X2IT   H1538245   5.539   3.702   1.172
 8135X2IT   H1638246   5.524   3.667   1.343
 8135X2IT    N238247   4.939   3.754   1.309
 8135X2IT    C338248   4.841   3.844   1.247
 8135X2IT    C238249   4.788   3.921   1.367
 8135X2IT    H238250   4.691   3.971   1.360
 8135X2IT    N138251   4.896   3.980   1.448
 8135X2IT   H1438252   4.858   4.057   1.504
 8135X2IT    C138253   4.832   3.854   1.492
 8135X2IT    H138254   4.772   3.851   1.582
 8135X2IT   C1138255   4.911   3.730   1.453
 8135X2IT    O338256   4.819   3.624   1.473
 8135X2IT   C1538257   4.850   3.499   1.409
 8136X2IT   H1838258   2.570   1.798   0.520
 8136X2IT    N438259   2.540   1.883   0.475
 8136X2IT   H1738260   2.604   1.960   0.475
 8136X2IT   C1438261   2.454   1.868   0.370
 8136X2IT    O538262   2.390   1.767   0.345
 8136X2IT    O438263   2.446   1.985   0.299
 8136X2IT   C1338264   2.353   1.986   0.189
 8136X2IT   C1038265   2.209   2.016   0.237
 8136X2IT    C938266   2.110   2.025   0.123
 8136X2IT    C438267   2.048   2.149   0.124
 8136X2IT    C538268   1.944   2.191   0.024
 8136X2IT    O138269   1.891   2.303   0.034
 8136X2IT    C638270   1.912   2.096  -0.080
 8136X2IT   C1238271   1.808   2.133  -0.184
 8136X2IT    C738272   1.973   1.972  -0.080
 8136X2IT    C838273   2.078   1.930   0.023
 8136X2IT    O238274   2.130   1.818   0.011
 8136X2IT    N338275   1.948   1.877  -0.171
 8136X2IT   H1538276   1.883   1.888  -0.247
 8136X2IT   H1638277   2.001   1.789  -0.162
 8136X2IT    N238278   2.086   2.224   0.230
 8136X2IT    C338279   2.101   2.371   0.236
 8136X2IT    C238280   2.248   2.387   0.272
 8136X2IT    H238281   2.282   2.480   0.317
 8136X2IT    N138282   2.337   2.311   0.181
 8136X2IT   H1438283   2.431   2.351   0.185
 8136X2IT    C138284   2.303   2.256   0.314
 8136X2IT    H138285   2.379   2.245   0.390
 8136X2IT   C1138286   2.190   2.154   0.310
 8136X2IT    O338287   2.152   2.140   0.446
 8136X2IT   C1538288   2.024   2.081   0.471
 8137X2IT   H1838289   4.385   2.660   6.915
 8137X2IT    N438290   4.332   2.673   7.000
 8137X2IT   H1738291   4.250   2.614   7.012
 8137X2IT   C1438292   4.402   2.713   7.110
 8137X2IT    O538293   4.514   2.761   7.108
 8137X2IT    O438294   4.326   2.696   7.222
 8137X2IT   C1338295   4.386   2.741   7.346
 8137X2IT   C1038296   4.365   2.893   7.366
 8137X2IT    C938297   4.420   2.943   7.498
 8137X2IT    C438298   4.319   3.002   7.572
 8137X2IT    C538299   4.339   3.062   7.708
 8137X2IT    O138300   4.244   3.117   7.765
 8137X2IT    C638301   4.471   3.052   7.764
 8137X2IT   C1238302   4.498   3.110   7.902
 8137X2IT    C738303   4.572   2.993   7.690
 8137X2IT    C838304   4.551   2.933   7.551
 8137X2IT    O238305   4.647   2.879   7.495
 8137X2IT    N338306   4.699   2.980   7.733
 8137X2IT   H1538307   4.730   3.012   7.823
 8137X2IT   H1638308   4.765   2.933   7.670
 8137X2IT    N238309   4.202   3.008   7.503
 8137X2IT    C338310   4.065   3.000   7.557
 8137X2IT    C238311   4.010   2.877   7.485
 8137X2IT    H238312   3.902   2.863   7.477
 8137X2IT    N138313   4.099   2.759   7.499
 8137X2IT   H1438314   4.045   2.674   7.482
 8137X2IT    C138315   4.102   2.839   7.375
 8137X2IT    H138316   4.067   2.797   7.281
 8137X2IT   C1138317   4.215   2.940   7.371
 8137X2IT    O338318   4.181   3.026   7.264
 8137X2IT   C1538319   4.246   3.153   7.259
 8138X2IT   H1838320   5.683   7.050   0.384
 8138X2IT    N438321   5.620   7.099   0.445
 8138X2IT   H1738322   5.660   7.162   0.513
 8138X2IT   C1438323   5.496   7.125   0.394
 8138X2IT    O538324   5.447   7.073   0.295
 8138X2IT    O438325   5.432   7.216   0.473
 8138X2IT   C1338326   5.296   7.249   0.436
 8138X2IT   C1038327   5.196   7.146   0.489
 8138X2IT    C938328   5.052   7.181   0.458
 8138X2IT    C438329   4.979   7.191   0.575
 8138X2IT    C538330   4.833   7.225   0.579
 8138X2IT    O138331   4.774   7.228   0.688
 8138X2IT    C638332   4.769   7.251   0.453
 8138X2IT   C1238333   4.622   7.286   0.450
 8138X2IT    C738334   4.842   7.240   0.336
 8138X2IT    C838335   4.991   7.204   0.333
 8138X2IT    O238336   5.047   7.201   0.222
 8138X2IT    N338337   4.791   7.260   0.213
 8138X2IT   H1538338   4.695   7.287   0.197
 8138X2IT   H1638339   4.855   7.251   0.134
 8138X2IT    N238340   5.052   7.159   0.684
 8138X2IT    C338341   5.042   7.214   0.820
 8138X2IT    C238342   5.181   7.274   0.842
 8138X2IT    H238343   5.216   7.293   0.943
 8138X2IT    N138344   5.221   7.364   0.731
 8138X2IT   H1438345   5.295   7.426   0.764
 8138X2IT    C138346   5.272   7.225   0.735
 8138X2IT    H138347   5.377   7.205   0.752
 8138X2IT   C1138348   5.194   7.130   0.646
 8138X2IT    O338349   5.235   7.001   0.689
 8138X2IT   C1538350   5.152   6.890   0.652
 8139X2IT   H1838351   5.955   4.257   1.131
 8139X2IT    N438352   6.014   4.228   1.207
 8139X2IT   H1738353   5.977   4.236   1.300
 8139X2IT   C1438354   6.105   4.129   1.179
 8139X2IT    O538355   6.138   4.093   1.067
 8139X2IT    O438356   6.156   4.079   1.295
 8139X2IT   C1338357   6.258   3.978   1.281
 8139X2IT   C1038358   6.396   4.041   1.258
 8139X2IT    C938359   6.507   3.938   1.250
 8139X2IT    C438360   6.603   3.963   1.347
 8139X2IT    C538361   6.726   3.880   1.367
 8139X2IT    O138362   6.808   3.912   1.453
 8139X2IT    C638363   6.741   3.765   1.280
 8139X2IT   C1238364   6.862   3.676   1.295
 8139X2IT    C738365   6.646   3.740   1.183
 8139X2IT    C838366   6.521   3.827   1.163
 8139X2IT    O238367   6.440   3.793   1.076
 8139X2IT    N338368   6.652   3.638   1.097
 8139X2IT   H1538369   6.726   3.570   1.097
 8139X2IT   H1638370   6.575   3.628   1.030
 8139X2IT    N238371   6.576   4.077   1.416
 8139X2IT    C338372   6.606   4.105   1.558
 8139X2IT    C238373   6.467   4.132   1.615
 8139X2IT    H238374   6.457   4.188   1.708
 8139X2IT    N138375   6.372   4.023   1.583
 8139X2IT   H1438376   6.294   4.026   1.650
 8139X2IT    C138377   6.370   4.148   1.504
 8139X2IT    H138378   6.286   4.215   1.508
 8139X2IT   C1138379   6.447   4.136   1.373
 8139X2IT    O338380   6.462   4.270   1.330
 8139X2IT   C1538381   6.562   4.296   1.231
 8140X2IT   H1838382   3.659   7.027   0.771
 8140X2IT    N438383   3.575   6.977   0.748
 8140X2IT   H1738384   3.555   6.894   0.802
 8140X2IT   C1438385   3.471   7.051   0.699
 8140X2IT    O538386   3.480   7.165   0.656
 8140X2IT    O438387   3.357   6.978   0.702
 8140X2IT   C1338388   3.239   7.041   0.646
 8140X2IT   C1038389   3.234   7.027   0.493
 8140X2IT    C938390   3.110   7.086   0.432
 8140X2IT    C438391   3.041   6.989   0.361
 8140X2IT    C538392   2.912   7.014   0.288
 8140X2IT    O138393   2.859   6.922   0.224
 8140X2IT    C638394   2.857   7.147   0.298
 8140X2IT   C1238395   2.727   7.179   0.227
 8140X2IT    C738396   2.927   7.244   0.368
 8140X2IT    C838397   3.059   7.217   0.441
 8140X2IT    O238398   3.110   7.311   0.504
 8140X2IT    N338399   2.885   7.371   0.381
 8140X2IT   H1538400   2.799   7.405   0.341
 8140X2IT   H1638401   2.944   7.434   0.436
 8140X2IT    N238402   3.107   6.871   0.358
 8140X2IT    C338403   3.051   6.735   0.356
 8140X2IT    C238404   3.108   6.674   0.483
 8140X2IT    H238405   3.113   6.565   0.494
 8140X2IT    N138406   3.083   6.758   0.602
 8140X2IT   H1438407   3.091   6.701   0.686
 8140X2IT    C138408   3.216   6.762   0.536
 8140X2IT    H138409   3.304   6.724   0.586
 8140X2IT   C1138410   3.232   6.878   0.440
 8140X2IT    O338411   3.347   6.845   0.364
 8140X2IT   C1538412   3.367   6.915   0.240
 8141X2IT   H1838413   5.629   6.187   0.389
 8141X2IT    N438414   5.543   6.205   0.436
 8141X2IT   H1738415   5.475   6.264   0.389
 8141X2IT   C1438416   5.497   6.107   0.520
 8141X2IT    O538417   5.564   6.014   0.562
 8141X2IT    O438418   5.367   6.130   0.553
 8141X2IT   C1338419   5.307   6.038   0.646
 8141X2IT   C1038420   5.342   6.075   0.792
 8141X2IT    C938421   5.275   5.984   0.893
 8141X2IT    C438422   5.197   6.059   0.979
 8141X2IT    C538423   5.116   5.999   1.091
 8141X2IT    O138424   5.051   6.074   1.166
 8141X2IT    C638425   5.121   5.856   1.106
 8141X2IT   C1238426   5.042   5.790   1.216
 8141X2IT    C738427   5.201   5.782   1.020
 8141X2IT    C838428   5.283   5.844   0.907
 8141X2IT    O238429   5.347   5.767   0.833
 8141X2IT    N338430   5.213   5.648   1.027
 8141X2IT   H1538431   5.165   5.592   1.094
 8141X2IT   H1638432   5.274   5.604   0.957
 8141X2IT    N238433   5.207   6.192   0.956
 8141X2IT    C338434   5.103   6.295   0.972
 8141X2IT    C238435   5.090   6.351   0.830
 8141X2IT    H238436   5.047   6.449   0.815
 8141X2IT    N138437   5.069   6.244   0.730
 8141X2IT   H1438438   5.028   6.285   0.645
 8141X2IT    C138439   5.204   6.302   0.748
 8141X2IT    H138440   5.250   6.361   0.670
 8141X2IT   C1138441   5.294   6.218   0.838
 8141X2IT    O338442   5.402   6.304   0.869
 8141X2IT   C1538443   5.483   6.269   0.982
 8142X2IT   H1838444   2.182   6.144  -0.103
 8142X2IT    N438445   2.268   6.191  -0.081
 8142X2IT   H1738446   2.305   6.254  -0.150
 8142X2IT   C1438447   2.290   6.217   0.051
 8142X2IT    O538448   2.231   6.164   0.144
 8142X2IT    O438449   2.392   6.306   0.065
 8142X2IT   C1338450   2.432   6.338   0.200
 8142X2IT   C1038451   2.529   6.233   0.256
 8142X2IT    C938452   2.578   6.267   0.395
 8142X2IT    C438453   2.716   6.275   0.396
 8142X2IT    C538454   2.797   6.308   0.518
 8142X2IT    O138455   2.921   6.310   0.511
 8142X2IT    C638456   2.724   6.335   0.639
 8142X2IT   C1238457   2.799   6.368   0.766
 8142X2IT    C738458   2.586   6.325   0.639
 8142X2IT    C838459   2.504   6.291   0.513
 8142X2IT    O238460   2.381   6.289   0.523
 8142X2IT    N338461   2.509   6.346   0.746
 8142X2IT   H1538462   2.546   6.371   0.836
 8142X2IT   H1638463   2.408   6.338   0.734
 8142X2IT    N238464   2.770   6.243   0.276
 8142X2IT    C338465   2.892   6.298   0.214
 8142X2IT    C238466   2.838   6.358   0.085
 8142X2IT    H238467   2.906   6.377   0.001
 8142X2IT    N138468   2.724   6.450   0.109
 8142X2IT   H1438469   2.714   6.513   0.029
 8142X2IT    C138470   2.699   6.311   0.063
 8142X2IT    H138471   2.658   6.292  -0.035
 8142X2IT   C1138472   2.663   6.216   0.176
 8142X2IT    O338473   2.677   6.087   0.118
 8142X2IT   C1538474   2.688   5.976   0.207
 8143X2IT   H1838475   9.457   4.213   0.485
 8143X2IT    N438476   9.449   4.192   0.582
 8143X2IT   H1738477   9.525   4.221   0.643
 8143X2IT   C1438478   9.322   4.189   0.633
 8143X2IT    O538479   9.220   4.181   0.567
 8143X2IT    O438480   9.326   4.191   0.770
 8143X2IT   C1338481   9.199   4.181   0.837
 8143X2IT   C1038482   9.153   4.034   0.850
 8143X2IT    C938483   9.024   4.019   0.926
 8143X2IT    C438484   9.043   3.936   1.035
 8143X2IT    C538485   8.934   3.901   1.133
 8143X2IT    O138486   8.959   3.823   1.226
 8143X2IT    C638487   8.805   3.960   1.110
 8143X2IT   C1238488   8.691   3.929   1.205
 8143X2IT    C738489   8.786   4.042   1.000
 8143X2IT    C838490   8.897   4.077   0.901
 8143X2IT    O238491   8.870   4.155   0.809
 8143X2IT    N338492   8.669   4.100   0.970
 8143X2IT   H1538493   8.586   4.090   1.026
 8143X2IT   H1638494   8.667   4.160   0.887
 8143X2IT    N238495   9.168   3.885   1.040
 8143X2IT    C338496   9.248   3.852   1.159
 8143X2IT    C238497   9.371   3.941   1.141
 8143X2IT    H238498   9.463   3.917   1.193
 8143X2IT    N138499   9.334   4.083   1.117
 8143X2IT   H1438500   9.413   4.143   1.140
 8143X2IT    C138501   9.371   3.997   1.003
 8143X2IT    H138502   9.462   4.016   0.947
 8143X2IT   C1138503   9.251   3.940   0.929
 8143X2IT    O338504   9.306   3.837   0.848
 8143X2IT   C1538505   9.216   3.739   0.796
 8144X2IT   H1838506   1.070   3.390   0.419
 8144X2IT    N438507   1.018   3.476   0.421
 8144X2IT   H1738508   0.925   3.475   0.382
 8144X2IT   C1438509   1.045   3.560   0.525
 8144X2IT    O538510   1.143   3.553   0.597
 8144X2IT    O438511   0.948   3.656   0.534
 8144X2IT   C1338512   0.967   3.757   0.635
 8144X2IT   C1038513   1.061   3.869   0.587
 8144X2IT    C938514   1.078   3.980   0.688
 8144X2IT    C438515   1.039   4.101   0.633
 8144X2IT    C538516   1.043   4.231   0.707
 8144X2IT    O138517   1.010   4.335   0.649
 8144X2IT    C638518   1.086   4.226   0.845
 8144X2IT   C1238519   1.092   4.354   0.925
 8144X2IT    C738520   1.126   4.105   0.899
 8144X2IT    C838521   1.123   3.973   0.822
 8144X2IT    O238522   1.156   3.870   0.883
 8144X2IT    N338523   1.170   4.091   1.025
 8144X2IT   H1538524   1.176   4.168   1.090
 8144X2IT   H1638525   1.195   3.997   1.056
 8144X2IT    N238526   1.005   4.089   0.502
 8144X2IT    C338527   0.904   4.165   0.428
 8144X2IT    C238528   0.809   4.055   0.381
 8144X2IT    H238529   0.743   4.073   0.297
 8144X2IT    N138530   0.765   3.968   0.492
 8144X2IT   H1438531   0.678   3.920   0.465
 8144X2IT    C138532   0.873   3.923   0.402
 8144X2IT    H138533   0.858   3.839   0.336
 8144X2IT   C1138534   1.012   3.946   0.459
 8144X2IT    O338535   1.098   3.929   0.348
 8144X2IT   C1538536   1.231   3.982   0.359
 8145X2IT   H1838537   0.245   3.568   1.249
 8145X2IT    N438538   0.185   3.496   1.284
 8145X2IT   H1738539   0.105   3.524   1.340
 8145X2IT   C1438540   0.174   3.383   1.208
 8145X2IT    O538541   0.251   3.351   1.118
 8145X2IT    O438542   0.068   3.308   1.249
 8145X2IT   C1338543   0.049   3.182   1.182
 8145X2IT   C1038544   0.139   3.072   1.241
 8145X2IT    C938545   0.116   2.936   1.178
 8145X2IT    C438546   0.079   2.844   1.274
 8145X2IT    C538547   0.049   2.700   1.244
 8145X2IT    O138548   0.020   2.623   1.337
 8145X2IT    C638549   0.057   2.660   1.106
 8145X2IT   C1238550   0.027   2.516   1.069
 8145X2IT    C738551   0.095   2.752   1.010
 8145X2IT    C838552   0.126   2.898   1.042
 8145X2IT    O238553   0.155   2.973   0.947
 8145X2IT    N338554   0.106   2.723   0.880
 8145X2IT   H1538555   0.088   2.632   0.841
 8145X2IT   H1638556   0.134   2.800   0.817
 8145X2IT    N238557   0.081   2.897   1.399
 8145X2IT    C338558  -0.006   2.864   1.513
 8145X2IT    C238559  -0.072   2.998   1.542
 8145X2IT    H238560  -0.117   3.015   1.640
 8145X2IT    N138561  -0.133   3.058   1.422
 8145X2IT   H1438562  -0.204   3.126   1.450
 8145X2IT    C138563  -0.001   3.105   1.469
 8145X2IT    H138564   0.011   3.205   1.508
 8145X2IT   C1138565   0.115   3.042   1.394
 8145X2IT    O338566   0.228   3.072   1.474
 8145X2IT   C1538567   0.347   2.995   1.452
 8146X2IT   H1838568   2.195   8.100   0.898
 8146X2IT    N438569   2.217   8.019   0.843
 8146X2IT   H1738570   2.223   7.931   0.893
 8146X2IT   C1438571   2.175   8.019   0.713
 8146X2IT    O538572   2.140   8.118   0.651
 8146X2IT    O438573   2.183   7.893   0.661
 8146X2IT   C1338574   2.149   7.879   0.522
 8146X2IT   C1038575   2.267   7.915   0.431
 8146X2IT    C938576   2.237   7.895   0.284
 8146X2IT    C438577   2.327   7.806   0.228
 8146X2IT    C538578   2.324   7.763   0.084
 8146X2IT    O138579   2.411   7.686   0.042
 8146X2IT    C638580   2.219   7.818   0.002
 8146X2IT   C1238581   2.210   7.779  -0.144
 8146X2IT    C738582   2.130   7.908   0.058
 8146X2IT    C838583   2.134   7.951   0.205
 8146X2IT    O238584   2.046   8.029   0.245
 8146X2IT    N338585   2.029   7.966  -0.010
 8146X2IT   H1538586   2.011   7.947  -0.107
 8146X2IT   H1638587   1.968   8.030   0.041
 8146X2IT    N238588   2.422   7.767   0.317
 8146X2IT    C338589   2.490   7.637   0.326
 8146X2IT    C238590   2.453   7.591   0.466
 8146X2IT    H238591   2.513   7.515   0.516
 8146X2IT    N138592   2.307   7.596   0.490
 8146X2IT   H1438593   2.283   7.534   0.568
 8146X2IT    C138594   2.393   7.704   0.541
 8146X2IT    H138595   2.407   7.719   0.647
 8146X2IT   C1138596   2.396   7.827   0.451
 8146X2IT    O338597   2.507   7.901   0.498
 8146X2IT   C1538598   2.560   8.002   0.410
 8147X2IT   H1838599   3.790   6.455   6.677
 8147X2IT    N438600   3.754   6.370   6.718
 8147X2IT   H1738601   3.702   6.308   6.657
 8147X2IT   C1438602   3.827   6.316   6.820
 8147X2IT    O538603   3.913   6.375   6.884
 8147X2IT    O438604   3.786   6.188   6.844
 8147X2IT   C1338605   3.849   6.121   6.955
 8147X2IT   C1038606   3.783   6.158   7.089
 8147X2IT    C938607   3.842   6.084   7.207
 8147X2IT    C438608   3.744   6.011   7.272
 8147X2IT    C538609   3.769   5.926   7.393
 8147X2IT    O138610   3.674   5.867   7.447
 8147X2IT    C638611   3.905   5.919   7.439
 8147X2IT   C1238612   3.938   5.834   7.561
 8147X2IT    C738613   4.003   5.992   7.375
 8147X2IT    C838614   3.976   6.079   7.252
 8147X2IT    O238615   4.072   6.137   7.200
 8147X2IT    N338616   4.132   5.993   7.412
 8147X2IT   H1538617   4.168   5.940   7.489
 8147X2IT   H1638618   4.196   6.050   7.356
 8147X2IT    N238619   3.621   6.033   7.219
 8147X2IT    C338620   3.509   5.937   7.208
 8147X2IT    C238621   3.486   5.930   7.058
 8147X2IT    H238622   3.391   5.895   7.019
 8147X2IT    N138623   3.611   5.901   6.984
 8147X2IT   H1438624   3.587   5.863   6.891
 8147X2IT    C138625   3.561   6.040   6.992
 8147X2IT    H138626   3.526   6.091   6.903
 8147X2IT   C1138627   3.630   6.122   7.100
 8147X2IT    O338628   3.547   6.236   7.113
 8147X2IT   C1538629   3.562   6.314   7.233
 8148X2IT   H1838630   4.410   8.093   1.007
 8148X2IT    N438631   4.416   8.028   1.083
 8148X2IT   H1738632   4.353   8.041   1.160
 8148X2IT   C1438633   4.457   7.902   1.052
 8148X2IT    O538634   4.512   7.869   0.948
 8148X2IT    O438635   4.432   7.817   1.156
 8148X2IT   C1338636   4.476   7.681   1.140
 8148X2IT   C1038637   4.625   7.665   1.175
 8148X2IT    C938638   4.674   7.523   1.166
 8148X2IT    C438639   4.725   7.482   1.288
 8148X2IT    C538640   4.781   7.345   1.313
 8148X2IT    O138641   4.828   7.318   1.425
 8148X2IT    C638642   4.777   7.252   1.203
 8148X2IT   C1238643   4.831   7.112   1.222
 8148X2IT    C738644   4.727   7.293   1.081
 8148X2IT    C838645   4.670   7.433   1.056
 8148X2IT    O238646   4.624   7.458   0.944
 8148X2IT    N338647   4.720   7.214   0.972
 8148X2IT   H1538648   4.751   7.119   0.972
 8148X2IT   H1638649   4.680   7.255   0.888
 8148X2IT    N238650   4.726   7.582   1.379
 8148X2IT    C338651   4.708   7.572   1.525
 8148X2IT    C238652   4.584   7.658   1.548
 8148X2IT    H238653   4.564   7.698   1.647
 8148X2IT    N138654   4.472   7.620   1.460
 8148X2IT   H1438655   4.384   7.654   1.500
 8148X2IT    C138656   4.555   7.737   1.425
 8148X2IT    H138657   4.514   7.837   1.427
 8148X2IT   C1138658   4.664   7.705   1.323
 8148X2IT    O338659   4.751   7.816   1.329
 8148X2IT   C1538660   4.882   7.800   1.274
 8149X2IT   H1838661   4.110   5.141   1.005
 8149X2IT    N438662   4.107   5.236   0.973
 8149X2IT   H1738663   4.070   5.305   1.037
 8149X2IT   C1438664   4.203   5.274   0.883
 8149X2IT    O538665   4.273   5.197   0.819
 8149X2IT    O438666   4.206   5.410   0.873
 8149X2IT   C1338667   4.298   5.464   0.776
 8149X2IT   C1038668   4.239   5.464   0.634
 8149X2IT    C938669   4.330   5.526   0.531
 8149X2IT    C438670   4.266   5.632   0.469
 8149X2IT    C538671   4.329   5.716   0.362
 8149X2IT    O138672   4.264   5.807   0.309
 8149X2IT    C638673   4.466   5.684   0.327
 8149X2IT   C1238674   4.535   5.766   0.220
 8149X2IT    C738675   4.529   5.578   0.388
 8149X2IT    C838676   4.463   5.492   0.497
 8149X2IT    O238677   4.531   5.402   0.548
 8149X2IT    N338678   4.654   5.540   0.361
 8149X2IT   H1538679   4.713   5.586   0.293
 8149X2IT   H1638680   4.692   5.460   0.414
 8149X2IT    N238681   4.138   5.646   0.510
 8149X2IT    C338682   4.060   5.770   0.524
 8149X2IT    C238683   4.024   5.769   0.672
 8149X2IT    H238684   3.941   5.829   0.708
 8149X2IT    N138685   4.143   5.750   0.759
 8149X2IT   H1438686   4.123   5.784   0.853
 8149X2IT    C138687   4.055   5.635   0.730
 8149X2IT    H138688   3.996   5.590   0.808
 8149X2IT   C1138689   4.106   5.547   0.617
 8149X2IT    O338690   3.994   5.466   0.583
 8149X2IT   C1538691   3.998   5.400   0.456
 8150X2IT   H1838692   7.878   0.526   6.848
 8150X2IT    N438693   7.841   0.508   6.757
 8150X2IT   H1738694   7.853   0.415   6.719
 8150X2IT   C1438695   7.730   0.580   6.721
 8150X2IT    O538696   7.689   0.680   6.778
 8150X2IT    O438697   7.672   0.525   6.610
 8150X2IT   C1338698   7.557   0.594   6.557
 8150X2IT   C1038699   7.599   0.711   6.467
 8150X2IT    C938700   7.481   0.782   6.403
 8150X2IT    C438701   7.492   0.779   6.266
 8150X2IT    C538702   7.391   0.839   6.172
 8150X2IT    O138703   7.411   0.835   6.050
 8150X2IT    C638704   7.276   0.901   6.233
 8150X2IT   C1238705   7.170   0.964   6.145
 8150X2IT    C738706   7.266   0.905   6.371
 8150X2IT    C838707   7.370   0.843   6.465
 8150X2IT    O238708   7.348   0.849   6.587
 8150X2IT    N338709   7.163   0.961   6.437
 8150X2IT   H1538710   7.085   1.004   6.390
 8150X2IT   H1638711   7.165   0.957   6.539
 8150X2IT    N238712   7.608   0.722   6.225
 8150X2IT    C338713   7.632   0.642   6.104
 8150X2IT    C238714   7.679   0.509   6.161
 8150X2IT    H238715   7.736   0.440   6.099
 8150X2IT    N138716   7.586   0.456   6.263
 8150X2IT   H1438717   7.600   0.355   6.274
 8150X2IT    C138718   7.709   0.525   6.306
 8150X2IT    H138719   7.788   0.472   6.356
 8150X2IT   C1138720   7.686   0.672   6.341
 8150X2IT    O338721   7.817   0.726   6.346
 8150X2IT   C1538722   7.828   0.869   6.339
 8151X2IT   H1838723   0.423   4.532   1.518
 8151X2IT    N438724   0.481   4.510   1.439
 8151X2IT   H1738725   0.562   4.451   1.456
 8151X2IT   C1438726   0.419   4.505   1.318
 8151X2IT    O538727   0.309   4.551   1.293
 8151X2IT    O438728   0.501   4.445   1.226
 8151X2IT   C1338729   0.451   4.438   1.091
 8151X2IT   C1038730   0.477   4.569   1.015
 8151X2IT    C938731   0.432   4.564   0.871
 8151X2IT    C438732   0.539   4.590   0.787
 8151X2IT    C538733   0.529   4.591   0.637
 8151X2IT    O138734   0.630   4.619   0.569
 8151X2IT    C638735   0.400   4.561   0.580
 8151X2IT   C1238736   0.383   4.560   0.430
 8151X2IT    C738737   0.293   4.536   0.664
 8151X2IT    C838738   0.305   4.535   0.817
 8151X2IT    O238739   0.203   4.508   0.883
 8151X2IT    N338740   0.169   4.508   0.621
 8151X2IT   H1538741   0.145   4.503   0.524
 8151X2IT   H1638742   0.098   4.490   0.693
 8151X2IT    N238743   0.652   4.621   0.855
 8151X2IT    C338744   0.791   4.592   0.819
 8151X2IT    C238745   0.838   4.506   0.936
 8151X2IT    H238746   0.945   4.496   0.956
 8151X2IT    N138747   0.747   4.393   0.963
 8151X2IT   H1438748   0.797   4.321   1.016
 8151X2IT    C138749   0.739   4.515   1.046
 8151X2IT    H138750   0.766   4.513   1.151
 8151X2IT   C1138751   0.629   4.610   1.002
 8151X2IT    O338752   0.659   4.731   1.069
 8151X2IT   C1538753   0.598   4.851   1.020
 8152X2IT   H1838754   8.751   8.005   7.155
 8152X2IT    N438755   8.716   7.916   7.127
 8152X2IT   H1738756   8.645   7.873   7.185
 8152X2IT   C1438757   8.713   7.892   6.992
 8152X2IT    O538758   8.775   7.955   6.908
 8152X2IT    O438759   8.636   7.783   6.966
 8152X2IT   C1338760   8.629   7.741   6.828
 8152X2IT   C1038761   8.750   7.653   6.790
 8152X2IT    C938762   8.743   7.601   6.648
 8152X2IT    C438763   8.746   7.463   6.647
 8152X2IT    C538764   8.741   7.380   6.522
 8152X2IT    O138765   8.748   7.257   6.531
 8152X2IT    C638766   8.728   7.452   6.398
 8152X2IT   C1238767   8.721   7.374   6.268
 8152X2IT    C738768   8.726   7.590   6.398
 8152X2IT    C838769   8.732   7.673   6.526
 8152X2IT    O238770   8.725   7.797   6.516
 8152X2IT    N338771   8.716   7.665   6.288
 8152X2IT   H1538772   8.709   7.626   6.195
 8152X2IT   H1638773   8.714   7.767   6.300
 8152X2IT    N238774   8.763   7.412   6.772
 8152X2IT    C338775   8.709   7.286   6.825
 8152X2IT    C238776   8.625   7.334   6.942
 8152X2IT    H238777   8.598   7.265   7.022
 8152X2IT    N138778   8.529   7.440   6.903
 8152X2IT   H1438779   8.454   7.445   6.971
 8152X2IT    C138780   8.656   7.477   6.970
 8152X2IT    H138781   8.655   7.519   7.070
 8152X2IT   C1138782   8.765   7.520   6.874
 8152X2IT    O338783   8.883   7.518   6.952
 8152X2IT   C1538784   9.008   7.516   6.881
 8153X2IT   H1838785   7.397   0.324   0.126
 8153X2IT    N438786   7.485   0.345   0.170
 8153X2IT   H1738787   7.545   0.411   0.123
 8153X2IT   C1438788   7.488   0.337   0.306
 8153X2IT    O538789   7.405   0.282   0.376
 8153X2IT    O438790   7.602   0.397   0.353
 8153X2IT   C1338791   7.623   0.391   0.496
 8153X2IT   C1038792   7.687   0.258   0.537
 8153X2IT    C938793   7.717   0.250   0.685
 8153X2IT    C438794   7.852   0.227   0.705
 8153X2IT    C538795   7.915   0.215   0.841
 8153X2IT    O138796   8.037   0.190   0.850
 8153X2IT    C638797   7.828   0.231   0.955
 8153X2IT   C1238798   7.886   0.221   1.094
 8153X2IT    C738799   7.693   0.253   0.934
 8153X2IT    C838800   7.630   0.265   0.796
 8153X2IT    O238801   7.508   0.289   0.789
 8153X2IT    N338802   7.604   0.268   1.034
 8153X2IT   H1538803   7.629   0.265   1.131
 8153X2IT   H1638804   7.507   0.285   1.007
 8153X2IT    N238805   7.919   0.209   0.589
 8153X2IT    C338806   8.058   0.247   0.557
 8153X2IT    C238807   8.039   0.343   0.441
 8153X2IT    H238808   8.122   0.363   0.373
 8153X2IT    N138809   7.942   0.451   0.471
 8153X2IT   H1438810   7.958   0.530   0.408
 8153X2IT    C138811   7.899   0.334   0.391
 8153X2IT    H138812   7.873   0.346   0.287
 8153X2IT   C1138813   7.828   0.228   0.472
 8153X2IT    O338814   7.826   0.114   0.388
 8153X2IT   C1538815   7.800  -0.013   0.449
 8154X2IT   H1838816   6.232   1.969   7.223
 8154X2IT    N438817   6.281   2.056   7.224
 8154X2IT   H1738818   6.338   2.076   7.304
 8154X2IT   C1438819   6.317   2.107   7.102
 8154X2IT    O538820   6.272   2.071   6.995
 8154X2IT    O438821   6.408   2.208   7.119
 8154X2IT   C1338822   6.451   2.275   6.999
 8154X2IT   C1038823   6.351   2.385   6.958
 8154X2IT    C938824   6.395   2.463   6.837
 8154X2IT    C438825   6.404   2.598   6.867
 8154X2IT    C538826   6.447   2.703   6.769
 8154X2IT    O138827   6.449   2.822   6.804
 8154X2IT    C638828   6.483   2.658   6.637
 8154X2IT   C1238829   6.527   2.759   6.533
 8154X2IT    C738830   6.472   2.524   6.606
 8154X2IT    C838831   6.428   2.417   6.707
 8154X2IT    O238832   6.427   2.299   6.669
 8154X2IT    N338833   6.502   2.472   6.486
 8154X2IT   H1538834   6.534   2.528   6.408
 8154X2IT   H1638835   6.492   2.371   6.474
 8154X2IT    N238836   6.363   2.625   6.994
 8154X2IT    C338837   6.413   2.728   7.085
 8154X2IT    C238838   6.463   2.646   7.203
 8154X2IT    H238839   6.475   2.693   7.301
 8154X2IT    N138840   6.555   2.538   7.161
 8154X2IT   H1438841   6.612   2.509   7.241
 8154X2IT    C138842   6.414   2.506   7.190
 8154X2IT    H138843   6.387   2.444   7.275
 8154X2IT   C1138844   6.328   2.499   7.065
 8154X2IT    O338845   6.195   2.501   7.115
 8154X2IT   C1538846   6.091   2.534   7.022
 8155X2IT   H1838847   0.789   0.610   0.722
 8155X2IT    N438848   0.783   0.510   0.734
 8155X2IT   H1738849   0.795   0.453   0.651
 8155X2IT   C1438850   0.822   0.460   0.855
 8155X2IT    O538851   0.836   0.526   0.957
 8155X2IT    O438852   0.837   0.325   0.847
 8155X2IT   C1338853   0.872   0.258   0.970
 8155X2IT   C1038854   0.747   0.229   1.055
 8155X2IT    C938855   0.778   0.152   1.182
 8155X2IT    C438856   0.706   0.033   1.184
 8155X2IT    C538857   0.714  -0.067   1.296
 8155X2IT    O138858   0.644  -0.169   1.292
 8155X2IT    C638859   0.805  -0.036   1.403
 8155X2IT   C1238860   0.819  -0.134   1.519
 8155X2IT    C738861   0.876   0.082   1.401
 8155X2IT    C838862   0.866   0.184   1.287
 8155X2IT    O238863   0.938   0.285   1.293
 8155X2IT    N338864   0.962   0.120   1.497
 8155X2IT   H1538865   0.982   0.064   1.578
 8155X2IT   H1638866   1.010   0.210   1.484
 8155X2IT    N238867   0.622   0.022   1.078
 8155X2IT    C338868   0.581  -0.100   1.008
 8155X2IT    C238869   0.629  -0.073   0.866
 8155X2IT    H238870   0.586  -0.128   0.783
 8155X2IT    N138871   0.772  -0.033   0.861
 8155X2IT   H1438872   0.809  -0.049   0.768
 8155X2IT    C138873   0.666   0.070   0.853
 8155X2IT    H138874   0.652   0.127   0.762
 8155X2IT   C1138875   0.638   0.138   0.986
 8155X2IT    O338876   0.515   0.206   0.965
 8155X2IT   C1538877   0.442   0.247   1.081
 8156X2IT   H1838878   2.104   7.691   5.852
 8156X2IT    N438879   2.047   7.774   5.858
 8156X2IT   H1738880   1.978   7.786   5.785
 8156X2IT   C1438881   2.022   7.823   5.983
 8156X2IT    O538882   2.084   7.793   6.084
 8156X2IT    O438883   1.921   7.914   5.978
 8156X2IT   C1338884   1.888   7.979   6.102
 8156X2IT   C1038885   1.981   8.099   6.129
 8156X2IT    C938886   1.946   8.174   6.255
 8156X2IT    C438887   1.920   8.307   6.226
 8156X2IT    C538888   1.880   8.409   6.328
 8156X2IT    O138889   1.863   8.527   6.293
 8156X2IT    C638890   1.867   8.362   6.464
 8156X2IT   C1238891   1.827   8.461   6.573
 8156X2IT    C738892   1.894   8.230   6.494
 8156X2IT    C838893   1.935   8.127   6.389
 8156X2IT    O238894   1.952   8.010   6.426
 8156X2IT    N338895   1.886   8.178   6.617
 8156X2IT   H1538896   1.859   8.232   6.698
 8156X2IT   H1638897   1.907   8.078   6.627
 8156X2IT    N238898   1.941   8.335   6.095
 8156X2IT    C338899   1.870   8.432   6.010
 8156X2IT    C238900   1.813   8.343   5.900
 8156X2IT    H238901   1.783   8.387   5.805
 8156X2IT    N138902   1.738   8.228   5.954
 8156X2IT   H1438903   1.674   8.192   5.883
 8156X2IT    C138904   1.877   8.209   5.908
 8156X2IT    H138905   1.898   8.149   5.820
 8156X2IT   C1138906   1.979   8.212   6.020
 8156X2IT    O338907   2.103   8.226   5.953
 8156X2IT   C1538908   2.215   8.271   6.032
 8157X2IT   H1838909   7.248   3.527   7.344
 8157X2IT    N438910   7.291   3.596   7.285
 8157X2IT   H1738911   7.373   3.643   7.321
 8157X2IT   C1438912   7.281   3.575   7.150
 8157X2IT    O538913   7.202   3.499   7.097
 8157X2IT    O438914   7.368   3.656   7.084
 8157X2IT   C1338915   7.363   3.650   6.940
 8157X2IT   C1038916   7.251   3.739   6.883
 8157X2IT    C938917   7.247   3.741   6.732
 8157X2IT    C438918   7.261   3.871   6.685
 8157X2IT    C538919   7.263   3.907   6.540
 8157X2IT    O138920   7.272   4.027   6.507
 8157X2IT    C638921   7.251   3.799   6.446
 8157X2IT   C1238922   7.252   3.829   6.297
 8157X2IT    C738923   7.236   3.670   6.492
 8157X2IT    C838924   7.234   3.633   6.641
 8157X2IT    O238925   7.224   3.513   6.672
 8157X2IT    N338926   7.223   3.562   6.413
 8157X2IT   H1538927   7.224   3.568   6.312
 8157X2IT   H1638928   7.213   3.471   6.458
 8157X2IT    N238929   7.266   3.961   6.786
 8157X2IT    C338930   7.341   4.087   6.791
 8157X2IT    C238931   7.433   4.066   6.911
 8157X2IT    H238932   7.477   4.152   6.961
 8157X2IT    N138933   7.508   3.939   6.903
 8157X2IT   H1438934   7.591   3.945   6.963
 8157X2IT    C138935   7.387   3.947   6.987
 8157X2IT    H138936   7.395   3.939   7.095
 8157X2IT   C1138937   7.263   3.893   6.919
 8157X2IT    O338938   7.156   3.939   7.000
 8157X2IT   C1538939   7.025   3.938   6.942
 8158X2IT   H1838940   2.480   4.450   7.049
 8158X2IT    N438941   2.462   4.508   6.969
 8158X2IT   H1738942   2.442   4.461   6.882
 8158X2IT   C1438943   2.404   4.629   6.994
 8158X2IT    O538944   2.398   4.683   7.103
 8158X2IT    O438945   2.356   4.683   6.877
 8158X2IT   C1338946   2.298   4.814   6.887
 8158X2IT   C1038947   2.406   4.924   6.883
 8158X2IT    C938948   2.348   5.064   6.886
 8158X2IT    C438949   2.389   5.134   6.775
 8158X2IT    C538950   2.349   5.276   6.746
 8158X2IT    O138951   2.393   5.333   6.646
 8158X2IT    C638952   2.260   5.338   6.841
 8158X2IT   C1238953   2.215   5.481   6.819
 8158X2IT    C738954   2.220   5.268   6.953
 8158X2IT    C838955   2.262   5.124   6.982
 8158X2IT    O238956   2.217   5.068   7.083
 8158X2IT    N338957   2.139   5.318   7.048
 8158X2IT   H1538958   2.100   5.410   7.044
 8158X2IT   H1638959   2.114   5.256   7.126
 8158X2IT    N238960   2.476   5.064   6.698
 8158X2IT    C338961   2.491   5.067   6.552
 8158X2IT    C238962   2.462   4.923   6.513
 8158X2IT    H238963   2.496   4.885   6.417
 8158X2IT    N138964   2.333   4.875   6.569
 8158X2IT   H1438965   2.301   4.794   6.515
 8158X2IT    C138966   2.461   4.838   6.635
 8158X2IT    H138967   2.495   4.735   6.635
 8158X2IT   C1138968   2.495   4.927   6.753
 8158X2IT    O338969   2.631   4.898   6.779
 8158X2IT   C1538970   2.703   4.993   6.860
 8159X2IT   H1838971   1.570   0.497   0.243
 8159X2IT    N438972   1.637   0.571   0.236
 8159X2IT   H1738973   1.601   0.665   0.227
 8159X2IT   C1438974   1.756   0.552   0.299
 8159X2IT    O538975   1.798   0.445   0.339
 8159X2IT    O438976   1.824   0.670   0.308
 8159X2IT   C1338977   1.956   0.664   0.367
 8159X2IT   C1038978   2.062   0.621   0.263
 8159X2IT    C938979   2.202   0.620   0.320
 8159X2IT    C438980   2.284   0.704   0.246
 8159X2IT    C538981   2.429   0.727   0.276
 8159X2IT    O138982   2.495   0.801   0.202
 8159X2IT    C638983   2.483   0.658   0.390
 8159X2IT   C1238984   2.629   0.676   0.426
 8159X2IT    C738985   2.402   0.573   0.463
 8159X2IT    C838986   2.254   0.550   0.431
 8159X2IT    O238987   2.189   0.475   0.506
 8159X2IT    N338988   2.443   0.503   0.570
 8159X2IT   H1538989   2.537   0.508   0.606
 8159X2IT   H1638990   2.374   0.444   0.617
 8159X2IT    N238991   2.219   0.757   0.139
 8159X2IT    C338992   2.238   0.890   0.079
 8159X2IT    C238993   2.101   0.953   0.094
 8159X2IT    H238994   2.072   1.037   0.031
 8159X2IT    N138995   2.051   0.946   0.233
 8159X2IT   H1438996   1.978   1.017   0.247
 8159X2IT    C138997   2.003   0.848   0.133
 8159X2IT    H138998   1.899   0.849   0.100
 8159X2IT   C1138999   2.076   0.715   0.138
 8159X2IT    O339000   2.041   0.652   0.017
 8159X2IT   C1539001   2.123   0.542  -0.026
 8160X2IT   H1839002   4.235   4.980   0.917
 8160X2IT    N439003   4.261   4.891   0.879
 8160X2IT   H1739004   4.330   4.837   0.930
 8160X2IT   C1439005   4.166   4.824   0.807
 8160X2IT    O539006   4.064   4.874   0.762
 8160X2IT    O439007   4.203   4.694   0.788
 8160X2IT   C1339008   4.115   4.614   0.708
 8160X2IT   C1039009   4.142   4.633   0.558
 8160X2IT    C939010   4.056   4.545   0.470
 8160X2IT    C439011   4.135   4.465   0.390
 8160X2IT    C539012   4.082   4.365   0.292
 8160X2IT    O139013   4.160   4.300   0.221
 8160X2IT    C639014   3.938   4.352   0.285
 8160X2IT   C1239015   3.877   4.252   0.188
 8160X2IT    C739016   3.859   4.432   0.364
 8160X2IT    C839017   3.915   4.535   0.464
 8160X2IT    O239018   3.834   4.599   0.533
 8160X2IT    N339019   3.724   4.429   0.364
 8160X2IT   H1539020   3.671   4.366   0.306
 8160X2IT   H1639021   3.676   4.492   0.428
 8160X2IT    N239022   4.267   4.493   0.405
 8160X2IT    C339023   4.381   4.400   0.396
 8160X2IT    C239024   4.444   4.412   0.534
 8160X2IT    H239025   4.547   4.382   0.550
 8160X2IT    N139026   4.345   4.392   0.643
 8160X2IT   H1439027   4.394   4.366   0.729
 8160X2IT    C139028   4.385   4.529   0.605
 8160X2IT    H139029   4.442   4.591   0.673
 8160X2IT   C1139030   4.288   4.597   0.510
 8160X2IT    O339031   4.359   4.708   0.461
 8160X2IT   C1539032   4.310   4.770   0.341
 8161X2IT   H1839033   2.898   3.795   6.886
 8161X2IT    N439034   2.874   3.716   6.943
 8161X2IT   H1739035   2.909   3.626   6.913
 8161X2IT   C1439036   2.856   3.741   7.076
 8161X2IT    O539037   2.840   3.851   7.126
 8161X2IT    O439038   2.856   3.623   7.145
 8161X2IT   C1339039   2.831   3.633   7.287
 8161X2IT   C1039040   2.680   3.641   7.318
 8161X2IT    C939041   2.650   3.644   7.466
 8161X2IT    C439042   2.568   3.539   7.500
 8161X2IT    C539043   2.519   3.512   7.640
 8161X2IT    O139044   2.442   3.417   7.661
 8161X2IT    C639045   2.566   3.602   7.742
 8161X2IT   C1239046   2.521   3.581   7.885
 8161X2IT    C739047   2.647   3.708   7.708
 8161X2IT    C839048   2.695   3.735   7.565
 8161X2IT    O239049   2.772   3.831   7.546
 8161X2IT    N339050   2.694   3.798   7.796
 8161X2IT   H1539051   2.674   3.795   7.894
 8161X2IT   H1639052   2.755   3.872   7.759
 8161X2IT    N239053   2.529   3.466   7.392
 8161X2IT    C339054   2.503   3.322   7.384
 8161X2IT    C239055   2.604   3.276   7.281
 8161X2IT    H239056   2.589   3.181   7.228
 8161X2IT    N139057   2.742   3.320   7.313
 8161X2IT   H1439058   2.809   3.261   7.264
 8161X2IT    C139059   2.663   3.394   7.212
 8161X2IT    H139060   2.692   3.394   7.108
 8161X2IT   C1139061   2.595   3.518   7.268
 8161X2IT    O339062   2.500   3.553   7.169
 8161X2IT   C1539063   2.395   3.642   7.208
 8162X2IT   H1839064   5.990   6.725   7.199
 8162X2IT    N439065   5.999   6.695   7.104
 8162X2IT   H1739066   6.089   6.661   7.074
 8162X2IT   C1439067   5.886   6.642   7.046
 8162X2IT    O539068   5.773   6.655   7.089
 8162X2IT    O439069   5.919   6.578   6.930
 8162X2IT   C1339070   5.809   6.523   6.855
 8162X2IT   C1039071   5.744   6.630   6.765
 8162X2IT    C939072   5.632   6.575   6.679
 8162X2IT    C439073   5.660   6.598   6.545
 8162X2IT    C539074   5.570   6.555   6.433
 8162X2IT    O139075   5.601   6.583   6.316
 8162X2IT    C639076   5.450   6.483   6.470
 8162X2IT   C1239077   5.355   6.437   6.361
 8162X2IT    C739078   5.422   6.462   6.603
 8162X2IT    C839079   5.515   6.506   6.717
 8162X2IT    O239080   5.482   6.477   6.833
 8162X2IT    N339081   5.313   6.398   6.647
 8162X2IT   H1539082   5.243   6.360   6.586
 8162X2IT   H1639083   5.303   6.386   6.748
 8162X2IT    N239084   5.773   6.670   6.528
 8162X2IT    C339085   5.870   6.661   6.418
 8162X2IT    C239086   5.999   6.624   6.491
 8162X2IT    H239087   6.095   6.642   6.443
 8162X2IT    N139088   5.982   6.507   6.579
 8162X2IT   H1439089   6.073   6.464   6.597
 8162X2IT    C139090   5.980   6.642   6.637
 8162X2IT    H139091   6.059   6.675   6.703
 8162X2IT   C1139092   5.839   6.696   6.659
 8162X2IT    O339093   5.859   6.835   6.682
 8162X2IT   C1539094   5.745   6.920   6.668
 8163X2IT   H1839095   3.501   0.495   0.181
 8163X2IT    N439096   3.553   0.461   0.260
 8163X2IT   H1739097   3.512   0.475   0.351
 8163X2IT   C1439098   3.632   0.351   0.238
 8163X2IT    O539099   3.665   0.309   0.129
 8163X2IT    O439100   3.671   0.298   0.358
 8163X2IT   C1339101   3.761   0.186   0.350
 8163X2IT   C1039102   3.907   0.231   0.332
 8163X2IT    C939103   4.005   0.116   0.331
 8163X2IT    C439104   4.099   0.132   0.432
 8163X2IT    C539105   4.210   0.035   0.459
 8163X2IT    O139106   4.292   0.060   0.549
 8163X2IT    C639107   4.215  -0.082   0.376
 8163X2IT   C1239108   4.325  -0.185   0.398
 8163X2IT    C739109   4.122  -0.098   0.274
 8163X2IT    C839110   4.010   0.002   0.247
 8163X2IT    O239111   3.929  -0.024   0.157
 8163X2IT    N339112   4.120  -0.203   0.191
 8163X2IT   H1539113   4.185  -0.279   0.196
 8163X2IT   H1639114   4.045  -0.205   0.120
 8163X2IT    N239115   4.083   0.250   0.498
 8163X2IT    C339116   4.109   0.278   0.640
 8163X2IT    C239117   3.973   0.322   0.690
 8163X2IT    H239118   3.965   0.381   0.782
 8163X2IT    N139119   3.866   0.225   0.656
 8163X2IT   H1439120   3.786   0.238   0.719
 8163X2IT    C139121   3.883   0.346   0.574
 8163X2IT    H139122   3.807   0.424   0.573
 8163X2IT   C1139123   3.964   0.323   0.447
 8163X2IT    O339124   3.996   0.453   0.403
 8163X2IT   C1539125   4.103   0.465   0.308
 8164X2IT   H1839126   7.608   5.775   1.134
 8164X2IT    N439127   7.607   5.873   1.113
 8164X2IT   H1739128   7.586   5.937   1.189
 8164X2IT   C1439129   7.692   5.914   1.014
 8164X2IT    O539130   7.745   5.841   0.932
 8164X2IT    O439131   7.704   6.050   1.016
 8164X2IT   C1339132   7.785   6.109   0.912
 8164X2IT   C1039133   7.705   6.128   0.783
 8164X2IT    C939134   7.785   6.196   0.673
 8164X2IT    C439135   7.721   6.312   0.633
 8164X2IT    C539136   7.774   6.403   0.526
 8164X2IT    O139137   7.709   6.503   0.493
 8164X2IT    C639138   7.901   6.367   0.467
 8164X2IT   C1239139   7.960   6.455   0.359
 8164X2IT    C739140   7.964   6.250   0.507
 8164X2IT    C839141   7.908   6.157   0.615
 8164X2IT    O239142   7.975   6.058   0.646
 8164X2IT    N339143   8.080   6.207   0.456
 8164X2IT   H1539144   8.131   6.257   0.385
 8164X2IT   H1639145   8.118   6.120   0.494
 8164X2IT    N239146   7.602   6.329   0.695
 8164X2IT    C339147   7.537   6.456   0.733
 8164X2IT    C239148   7.524   6.440   0.884
 8164X2IT    H239149   7.452   6.501   0.939
 8164X2IT    N139150   7.653   6.404   0.948
 8164X2IT   H1439151   7.649   6.429   1.048
 8164X2IT    C139152   7.552   6.300   0.922
 8164X2IT    H139153   7.502   6.250   1.004
 8164X2IT   C1139154   7.579   6.221   0.795
 8164X2IT    O339155   7.457   6.152   0.771
 8164X2IT   C1539156   7.436   6.100   0.639
 8165X2IT   H1839157   0.003   4.482   7.437
 8165X2IT    N439158   0.093   4.504   7.398
 8165X2IT   H1739159   0.168   4.440   7.418
 8165X2IT   C1439160   0.092   4.572   7.279
 8165X2IT    O539161  -0.004   4.631   7.233
 8165X2IT    O439162   0.216   4.568   7.223
 8165X2IT   C1339163   0.233   4.641   7.100
 8165X2IT   C1039164   0.260   4.790   7.126
 8165X2IT    C939165   0.285   4.870   7.000
 8165X2IT    C439166   0.409   4.930   7.005
 8165X2IT    C539167   0.465   5.016   6.895
 8165X2IT    O139168   0.576   5.069   6.910
 8165X2IT    C639169   0.383   5.031   6.777
 8165X2IT   C1239170   0.434   5.116   6.663
 8165X2IT    C739171   0.259   4.972   6.773
 8165X2IT    C839172   0.203   4.885   6.886
 8165X2IT    O239173   0.091   4.833   6.869
 8165X2IT    N339174   0.175   4.982   6.669
 8165X2IT   H1539175   0.197   5.033   6.585
 8165X2IT   H1639176   0.086   4.932   6.675
 8165X2IT    N239177   0.471   4.910   7.124
 8165X2IT    C339178   0.615   4.896   7.150
 8165X2IT    C239179   0.624   4.757   7.211
 8165X2IT    H239180   0.711   4.729   7.271
 8165X2IT    N139181   0.557   4.654   7.128
 8165X2IT   H1439182   0.594   4.562   7.152
 8165X2IT    C139183   0.487   4.709   7.246
 8165X2IT    H139184   0.466   4.647   7.332
 8165X2IT   C1139185   0.390   4.821   7.211
 8165X2IT    O339186   0.361   4.881   7.336
 8165X2IT   C1539187   0.302   5.012   7.334
 8166X2IT   H1839188   4.790   1.869  -0.177
 8166X2IT    N439189   4.782   1.934  -0.101
 8166X2IT   H1739190   4.689   1.962  -0.073
 8166X2IT   C1439191   4.881   1.930  -0.006
 8166X2IT    O539192   4.989   1.875  -0.020
 8166X2IT    O439193   4.842   2.000   0.104
 8166X2IT   C1339194   4.940   2.010   0.211
 8166X2IT   C1039195   5.040   2.124   0.185
 8166X2IT    C939196   5.139   2.142   0.297
 8166X2IT    C439197   5.132   2.271   0.347
 8166X2IT    C539198   5.216   2.322   0.460
 8166X2IT    O139199   5.205   2.440   0.496
 8166X2IT    C639200   5.308   2.227   0.520
 8166X2IT   C1239201   5.396   2.272   0.634
 8166X2IT    C739202   5.316   2.099   0.469
 8166X2IT    C839203   5.230   2.049   0.353
 8166X2IT    O239204   5.242   1.930   0.318
 8166X2IT    N339205   5.399   2.005   0.516
 8166X2IT   H1539206   5.462   2.021   0.593
 8166X2IT   H1639207   5.396   1.913   0.472
 8166X2IT    N239208   5.044   2.348   0.277
 8166X2IT    C339209   4.959   2.457   0.328
 8166X2IT    C239210   4.819   2.406   0.295
 8166X2IT    H239211   4.736   2.477   0.289
 8166X2IT    N139212   4.795   2.269   0.345
 8166X2IT   H1439213   4.695   2.253   0.353
 8166X2IT    C139214   4.829   2.290   0.203
 8166X2IT    H139215   4.756   2.270   0.125
 8166X2IT   C1139216   4.976   2.268   0.172
 8166X2IT    O339217   4.993   2.324   0.043
 8166X2IT   C1539218   5.127   2.353   0.002
 8167X2IT   H1839219   5.284   3.764   6.372
 8167X2IT    N439220   5.352   3.725   6.434
 8167X2IT   H1739221   5.422   3.664   6.393
 8167X2IT   C1439222   5.386   3.801   6.542
 8167X2IT    O539223   5.321   3.895   6.585
 8167X2IT    O439224   5.500   3.752   6.600
 8167X2IT   C1339225   5.544   3.818   6.720
 8167X2IT   C1039226   5.470   3.764   6.844
 8167X2IT    C939227   5.518   3.826   6.973
 8167X2IT    C439228   5.563   3.727   7.059
 8167X2IT    C539229   5.619   3.755   7.196
 8167X2IT    O139230   5.653   3.660   7.268
 8167X2IT    C639231   5.627   3.893   7.236
 8167X2IT   C1239232   5.682   3.928   7.373
 8167X2IT    C739233   5.580   3.991   7.150
 8167X2IT    C839234   5.523   3.962   7.011
 8167X2IT    O239235   5.489   4.058   6.941
 8167X2IT    N339236   5.582   4.122   7.179
 8167X2IT   H1539237   5.618   4.159   7.266
 8167X2IT   H1639238   5.547   4.186   7.108
 8167X2IT    N239239   5.544   3.603   7.009
 8167X2IT    C339240   5.629   3.484   7.028
 8167X2IT    C239241   5.670   3.450   6.885
 8167X2IT    H239242   5.705   3.349   6.862
 8167X2IT    N139243   5.728   3.566   6.814
 8167X2IT   H1439244   5.784   3.533   6.736
 8167X2IT    C139245   5.587   3.528   6.790
 8167X2IT    H139246   5.556   3.490   6.694
 8167X2IT   C1139247   5.488   3.610   6.871
 8167X2IT    O339248   5.366   3.537   6.860
 8167X2IT   C1539249   5.264   3.567   6.956
 8168X2IT   H1839250   7.262   5.755   1.865
 8168X2IT    N439251   7.197   5.789   1.797
 8168X2IT   H1739252   7.126   5.854   1.829
 8168X2IT   C1439253   7.242   5.797   1.668
 8168X2IT    O539254   7.343   5.743   1.626
 8168X2IT    O439255   7.156   5.872   1.593
 8168X2IT   C1339256   7.188   5.884   1.453
 8168X2IT   C1039257   7.138   5.762   1.373
 8168X2IT    C939258   7.163   5.774   1.225
 8168X2IT    C439259   7.044   5.765   1.155
 8168X2IT    C539260   7.033   5.774   1.006
 8168X2IT    O139261   6.923   5.762   0.951
 8168X2IT    C639262   7.157   5.796   0.934
 8168X2IT   C1239263   7.153   5.807   0.782
 8168X2IT    C739264   7.276   5.804   1.003
 8168X2IT    C839265   7.285   5.794   1.156
 8168X2IT    O239266   7.397   5.806   1.208
 8168X2IT    N339267   7.395   5.822   0.945
 8168X2IT   H1539268   7.407   5.833   0.846
 8168X2IT   H1639269   7.477   5.828   1.006
 8168X2IT    N239270   6.939   5.740   1.237
 8168X2IT    C339271   6.800   5.786   1.222
 8168X2IT    C239272   6.778   5.866   1.350
 8168X2IT    H239273   6.677   5.885   1.385
 8168X2IT    N139274   6.884   5.967   1.371
 8168X2IT   H1439275   6.850   6.040   1.434
 8168X2IT    C139276   6.890   5.839   1.444
 8168X2IT    H139277   6.877   5.836   1.551
 8168X2IT   C1139278   6.982   5.737   1.379
 8168X2IT    O339279   6.948   5.615   1.443
 8168X2IT   C1539280   6.989   5.494   1.378
 8169X2IT   H1839281   3.610   6.707   6.767
 8169X2IT    N439282   3.619   6.673   6.673
 8169X2IT   H1739283   3.538   6.680   6.614
 8169X2IT   C1439284   3.743   6.682   6.618
 8169X2IT    O539285   3.847   6.700   6.679
 8169X2IT    O439286   3.735   6.662   6.483
 8169X2IT   C1339287   3.860   6.662   6.411
 8169X2IT   C1039288   3.929   6.524   6.418
 8169X2IT    C939289   4.057   6.517   6.338
 8169X2IT    C439290   4.049   6.417   6.243
 8169X2IT    C539291   4.159   6.384   6.146
 8169X2IT    O139292   4.144   6.291   6.066
 8169X2IT    C639293   4.277   6.466   6.153
 8169X2IT   C1239294   4.392   6.439   6.058
 8169X2IT    C739295   4.286   6.565   6.249
 8169X2IT    C839296   4.173   6.597   6.348
 8169X2IT    O239297   4.190   6.692   6.427
 8169X2IT    N339298   4.393   6.645   6.265
 8169X2IT   H1539299   4.475   6.639   6.207
 8169X2IT   H1639300   4.387   6.716   6.338
 8169X2IT    N239301   3.933   6.347   6.252
 8169X2IT    C339302   3.856   6.285   6.143
 8169X2IT    C239303   3.721   6.356   6.154
 8169X2IT    H239304   3.633   6.310   6.110
 8169X2IT    N139305   3.736   6.503   6.155
 8169X2IT   H1439306   3.647   6.546   6.128
 8169X2IT    C139307   3.716   6.431   6.282
 8169X2IT    H139308   3.625   6.443   6.339
 8169X2IT   C1139309   3.845   6.404   6.358
 8169X2IT    O339310   3.809   6.308   6.455
 8169X2IT   C1539311   3.916   6.234   6.516
 8170X2IT   H1839312   9.133   4.769   0.409
 8170X2IT    N439313   9.099   4.863   0.418
 8170X2IT   H1739314   9.157   4.928   0.469
 8170X2IT   C1439315   9.021   4.910   0.316
 8170X2IT    O539316   8.967   4.840   0.232
 8170X2IT    O439317   9.008   5.045   0.325
 8170X2IT   C1339318   8.922   5.108   0.228
 8170X2IT   C1039319   8.774   5.100   0.270
 8170X2IT    C939320   8.681   5.171   0.174
 8170X2IT    C439321   8.610   5.269   0.240
 8170X2IT    C539322   8.509   5.359   0.173
 8170X2IT    O139323   8.447   5.442   0.241
 8170X2IT    C639324   8.491   5.340   0.031
 8170X2IT   C1239325   8.391   5.427  -0.042
 8170X2IT    C739326   8.561   5.241  -0.034
 8170X2IT    C839327   8.663   5.150   0.035
 8170X2IT    O239328   8.724   5.067  -0.035
 8170X2IT    N339329   8.549   5.215  -0.165
 8170X2IT   H1539330   8.488   5.267  -0.226
 8170X2IT   H1639331   8.608   5.140  -0.204
 8170X2IT    N239332   8.636   5.270   0.373
 8170X2IT    C339333   8.638   5.386   0.464
 8170X2IT    C239334   8.781   5.383   0.516
 8170X2IT    H239335   8.806   5.434   0.609
 8170X2IT    N139336   8.881   5.377   0.407
 8170X2IT   H1439337   8.971   5.409   0.442
 8170X2IT    C139338   8.844   5.253   0.480
 8170X2IT    H139339   8.916   5.203   0.543
 8170X2IT   C1139340   8.740   5.170   0.407
 8170X2IT    O339341   8.695   5.078   0.506
 8170X2IT   C1539342   8.571   5.011   0.481
   9.48825   8.49895   7.63227
