; Topology for DPPC + MMC membrane system
; Generated by build_dppc_mmc_hydrated_cases.sh

#include "../../gromos53a6_lipid.ff/forcefield.itp"
#include "../../dppc.itp"
#include "../../gromos53a6_lipid.ff/spc.itp"
#include "../../gromos53a6_lipid.ff/ions.itp"
#include "../../../mitomycin_c/mmc.itp"

[ system ]
; Name

256 DPPC bilayer + 100 MMC in water

[ molecules ]
; Compound        #mols
DPPC              256
SOL               7814
X2IT               100
