; Pre-insertion topology for DPPC bilayer re-solvation
; Generated by build_dppc_mmc_hydrated_cases.sh

#include "../../gromos53a6_lipid.ff/forcefield.itp"
#include "../../dppc.itp"

#include "../../gromos53a6_lipid.ff/spc.itp"
#include "../../gromos53a6_lipid.ff/ions.itp"

[ system ]
; Name
256 DPPC bilayer in water (pre-insertion)

[ molecules ]
; Compound        #mols
DPPC              256
SOL               0
SOL             11568
