UNITED ATOM STRUCTURE FOR MOLECULE UNK
12320
    0X2IT   H18    1   3.092   2.352   2.583
    0X2IT    N4    2   3.026   2.419   2.548
    0X2IT   H17    3   3.059   2.484   2.478
    0X2IT   C14    4   2.895   2.380   2.546
    0X2IT    O5    5   2.849   2.285   2.607
    0X2IT    O4    6   2.822   2.466   2.469
    0X2IT   C13    7   2.680   2.441   2.463
    0X2IT   C10    8   2.607   2.502   2.584
    0X2IT    C9    9   2.457   2.484   2.578
    0X2IT    C4   10   2.394   2.607   2.582
    0X2IT    C5   11   2.245   2.625   2.577
    0X2IT    O1   12   2.197   2.739   2.585
    0X2IT    C6   13   2.166   2.505   2.564
    0X2IT   C12   14   2.015   2.516   2.558
    0X2IT    C7   15   2.229   2.382   2.561
    0X2IT    C8   16   2.381   2.365   2.567
    0X2IT    O2   17   2.427   2.250   2.559
    0X2IT    N3   18   2.164   2.265   2.551
    0X2IT   H15   19   2.064   2.258   2.544
    0X2IT   H16   20   2.221   2.180   2.548
    0X2IT    N2   21   2.482   2.709   2.599
    0X2IT    C3   22   2.473   2.846   2.546
    0X2IT    C2   23   2.599   2.856   2.461
    0X2IT    H2   24   2.639   2.954   2.435
    0X2IT    N1   25   2.611   2.744   2.365
    0X2IT   H14   26   2.674   2.771   2.289
    0X2IT    C1   27   2.688   2.741   2.491
    0X2IT    H1   28   2.796   2.748   2.490
    0X2IT   C11   29   2.622   2.658   2.600
    0X2IT    O3   30   2.691   2.695   2.718
    0X2IT   C15   31   2.628   2.664   2.843
    1X2IT   H18   32   1.178   1.739   4.381
    1X2IT    N4   33   1.094   1.702   4.423
    1X2IT   H17   34   1.029   1.655   4.361
    1X2IT   C14   35   1.104   1.660   4.553
    1X2IT    O5   36   1.194   1.690   4.629
    1X2IT    O4   37   0.995   1.585   4.586
    1X2IT   C13   38   0.988   1.540   4.723
    1X2IT   C10   39   0.930   1.648   4.815
    1X2IT    C9   40   0.914   1.602   4.958
    1X2IT    C4   41   0.783   1.613   4.998
    1X2IT    C5   42   0.733   1.575   5.134
    1X2IT    O1   43   0.613   1.592   5.163
    1X2IT    C6   44   0.831   1.521   5.226
    1X2IT   C12   45   0.787   1.481   5.365
    1X2IT    C7   46   0.963   1.511   5.186
    1X2IT    C8   47   1.012   1.551   5.047
    1X2IT    O2   48   1.132   1.534   5.021
    1X2IT    N3   49   1.061   1.464   5.265
    1X2IT   H15   50   1.045   1.432   5.359
    1X2IT   H16   51   1.155   1.460   5.225
    1X2IT    N2   52   0.705   1.670   4.902
    1X2IT    C3   53   0.563   1.643   4.873
    1X2IT    C2   54   0.569   1.594   4.728
    1X2IT    H2   55   0.479   1.598   4.667
    1X2IT    N1   56   0.667   1.485   4.709
    1X2IT   H14   57   0.644   1.434   4.624
    1X2IT    C1   58   0.703   1.624   4.672
    1X2IT    H1   59   0.719   1.651   4.568
    1X2IT   C11   60   0.784   1.696   4.779
    1X2IT    O3   61   0.778   1.832   4.740
    1X2IT   C15   62   0.812   1.930   4.839
    2X2IT   H18   63   1.553   0.038   4.573
    2X2IT    N4   64   1.549   0.104   4.498
    2X2IT   H17   65   1.598   0.192   4.510
    2X2IT   C14   66   1.538   0.052   4.372
    2X2IT    O5   67   1.505  -0.063   4.346
    2X2IT    O4   68   1.565   0.148   4.279
    2X2IT   C13   69   1.550   0.108   4.141
    2X2IT   C10   70   1.404   0.118   4.095
    2X2IT    C9   71   1.385   0.084   3.948
    2X2IT    C4   72   1.327   0.190   3.882
    2X2IT    C5   73   1.296   0.190   3.735
    2X2IT    O1   74   1.240   0.289   3.684
    2X2IT    C6   75   1.332   0.072   3.661
    2X2IT   C12   76   1.304   0.065   3.513
    2X2IT    C7   77   1.389  -0.035   3.728
    2X2IT    C8   78   1.420  -0.034   3.878
    2X2IT    O2   79   1.476  -0.134   3.927
    2X2IT    N3   80   1.425  -0.150   3.669
    2X2IT   H15   81   1.414  -0.167   3.570
    2X2IT   H16   82   1.468  -0.222   3.728
    2X2IT    N2   83   1.295   0.292   3.966
    2X2IT    C3   84   1.295   0.436   3.938
    2X2IT    C2   85   1.395   0.489   4.040
    2X2IT    H2   86   1.394   0.594   4.068
    2X2IT    N1   87   1.524   0.415   4.035
    2X2IT   H14   88   1.597   0.473   4.078
    2X2IT    C1   89   1.424   0.382   4.139
    2X2IT    H1   90   1.445   0.403   4.244
    2X2IT   C11   91   1.339   0.261   4.105
    2X2IT    O3   92   1.232   0.267   4.197
    2X2IT   C15   93   1.115   0.190   4.167
    3X2IT   H18   94   3.026   3.173   5.223
    3X2IT    N4   95   2.951   3.108   5.205
    3X2IT   H17   96   2.966   3.012   5.233
    3X2IT   C14   97   2.824   3.160   5.207
    3X2IT    O5   98   2.796   3.278   5.201
    3X2IT    O4   99   2.733   3.058   5.212
    3X2IT   C13  100   2.594   3.097   5.207
    3X2IT   C10  101   2.547   3.120   5.063
    3X2IT    C9  102   2.400   3.154   5.053
    3X2IT    C4  103   2.335   3.063   4.973
    3X2IT    C5  104   2.188   3.067   4.943
    3X2IT    O1  105   2.138   2.983   4.867
    3X2IT    C6  106   2.112   3.173   5.006
    3X2IT   C12  107   1.963   3.183   4.981
    3X2IT    C7  108   2.178   3.265   5.086
    3X2IT    C8  109   2.328   3.260   5.115
    3X2IT    O2  110   2.376   3.345   5.191
    3X2IT    N3  111   2.117   3.367   5.147
    3X2IT   H15  112   2.018   3.384   5.141
    3X2IT   H16  113   2.175   3.429   5.205
    3X2IT    N2  114   2.421   2.973   4.917
    3X2IT    C3  115   2.395   2.832   4.885
    3X2IT    C2  116   2.499   2.760   4.970
    3X2IT    H2  117   2.529   2.658   4.944
    3X2IT    N1  118   2.494   2.802   5.112
    3X2IT   H14  119   2.538   2.730   5.170
    3X2IT    C1  120   2.597   2.859   5.022
    3X2IT    H1  121   2.702   2.837   5.037
    3X2IT   C11  122   2.559   2.996   4.967
    3X2IT    O3  123   2.651   3.016   4.861
    3X2IT   C15  124   2.617   3.117   4.765
    4X2IT   H18  125   3.492   3.291   4.586
    4X2IT    N4  126   3.511   3.255   4.495
    4X2IT   H17  127   3.596   3.287   4.449
    4X2IT   C14  128   3.465   3.129   4.468
    4X2IT    O5  129   3.381   3.069   4.533
    4X2IT    O4  130   3.524   3.081   4.354
    4X2IT   C13  131   3.479   2.951   4.310
    4X2IT   C10  132   3.350   2.961   4.228
    4X2IT    C9  133   3.304   2.828   4.173
    4X2IT    C4  134   3.294   2.833   4.036
    4X2IT    C5  135   3.252   2.717   3.950
    4X2IT    O1  136   3.242   2.732   3.827
    4X2IT    C6  137   3.223   2.593   4.018
    4X2IT   C12  138   3.180   2.472   3.938
    4X2IT    C7  139   3.232   2.588   4.156
    4X2IT    C8  140   3.274   2.707   4.242
    4X2IT    O2  141   3.283   2.690   4.365
    4X2IT    N3  142   3.205   2.479   4.229
    4X2IT   H15  143   3.178   2.391   4.188
    4X2IT   H16  144   3.217   2.486   4.330
    4X2IT    N2  145   3.320   2.957   3.987
    4X2IT    C3  146   3.383   2.993   3.860
    4X2IT    C2  147   3.505   3.072   3.905
    4X2IT    H2  148   3.555   3.140   3.836
    4X2IT    N1  149   3.586   2.998   4.005
    4X2IT   H14  150   3.681   3.035   4.007
    4X2IT    C1  151   3.493   3.103   4.050
    4X2IT    H1  152   3.530   3.195   4.094
    4X2IT   C11  153   3.359   3.049   4.098
    4X2IT    O3  154   3.275   3.164   4.103
    4X2IT   C15  155   3.134   3.142   4.107
    5X2IT   H18  156  -0.367   2.234   2.117
    5X2IT    N4  157  -0.314   2.158   2.080
    5X2IT   H17  158  -0.353   2.065   2.092
    5X2IT   C14  159  -0.236   2.184   1.971
    5X2IT    O5  160  -0.205   2.296   1.933
    5X2IT    O4  161  -0.195   2.067   1.914
    5X2IT   C13  162  -0.106   2.080   1.801
    5X2IT   C10  163   0.040   2.099   1.846
    5X2IT    C9  164   0.137   2.105   1.730
    5X2IT    C4  165   0.232   2.006   1.742
    5X2IT    C5  166   0.343   1.984   1.643
    5X2IT    O1  167   0.427   1.894   1.664
    5X2IT    C6  168   0.346   2.071   1.529
    5X2IT   C12  169   0.455   2.054   1.425
    5X2IT    C7  170   0.251   2.171   1.517
    5X2IT    C8  171   0.139   2.193   1.619
    5X2IT    O2  172   0.056   2.283   1.596
    5X2IT    N3  173   0.246   2.259   1.415
    5X2IT   H15  174   0.311   2.257   1.339
    5X2IT   H16  175   0.171   2.328   1.416
    5X2IT    N2  176   0.218   1.936   1.857
    5X2IT    C3  177   0.247   1.793   1.881
    5X2IT    C2  178   0.112   1.739   1.924
    5X2IT    H2  179   0.106   1.646   1.980
    5X2IT    N1  180   0.004   1.775   1.829
    5X2IT   H14  181  -0.074   1.710   1.841
    5X2IT    C1  182   0.021   1.853   1.953
    5X2IT    H1  183  -0.055   1.850   2.031
    5X2IT   C11  184   0.099   1.982   1.933
    5X2IT    O3  185   0.132   2.023   2.065
    5X2IT   C15  186   0.237   2.119   2.079
    6X2IT   H18  187   4.644   3.790   2.898
    6X2IT    N4  188   4.690   3.767   2.984
    6X2IT   H17  189   4.789   3.746   2.980
    6X2IT   C14  190   4.639   3.823   3.098
    6X2IT    O5  191   4.529   3.875   3.107
    6X2IT    O4  192   4.727   3.809   3.201
    6X2IT   C13  193   4.684   3.858   3.329
    6X2IT   C10  194   4.596   3.755   3.402
    6X2IT    C9  195   4.554   3.800   3.540
    6X2IT    C4  196   4.596   3.709   3.635
    6X2IT    C5  197   4.572   3.724   3.783
    6X2IT    O1  198   4.611   3.635   3.860
    6X2IT    C6  199   4.503   3.843   3.825
    6X2IT   C12  200   4.475   3.865   3.972
    6X2IT    C7  201   4.459   3.934   3.730
    6X2IT    C8  202   4.484   3.917   3.580
    6X2IT    O2  203   4.445   4.007   3.504
    6X2IT    N3  204   4.392   4.047   3.759
    6X2IT   H15  205   4.369   4.074   3.853
    6X2IT   H16  206   4.367   4.107   3.680
    6X2IT    N2  207   4.656   3.601   3.579
    6X2IT    C3  208   4.766   3.520   3.633
    6X2IT    C2  209   4.873   3.535   3.526
    6X2IT    H2  210   4.954   3.463   3.520
    6X2IT    N1  211   4.900   3.677   3.494
    6X2IT   H14  212   4.992   3.686   3.450
    6X2IT    C1  213   4.813   3.597   3.405
    6X2IT    H1  214   4.845   3.572   3.305
    6X2IT   C11  215   4.665   3.616   3.431
    6X2IT    O3  216   4.603   3.509   3.363
    6X2IT   C15  217   4.468   3.477   3.399
    7X2IT   H18  218   3.064   4.769   2.135
    7X2IT    N4  219   3.006   4.737   2.059
    7X2IT   H17  220   3.034   4.652   2.013
    7X2IT   C14  221   2.874   4.770   2.066
    7X2IT    O5  222   2.826   4.855   2.139
    7X2IT    O4  223   2.803   4.696   1.975
    7X2IT   C13  224   2.662   4.724   1.966
    7X2IT   C10  225   2.635   4.845   1.875
    7X2IT    C9  226   2.488   4.874   1.857
    7X2IT    C4  227   2.454   4.870   1.723
    7X2IT    C5  228   2.315   4.893   1.670
    7X2IT    O1  229   2.295   4.891   1.548
    7X2IT    C6  230   2.213   4.918   1.769
    7X2IT   C12  231   2.070   4.942   1.723
    7X2IT    C7  232   2.246   4.924   1.903
    7X2IT    C8  233   2.388   4.901   1.955
    7X2IT    O2  234   2.407   4.903   2.077
    7X2IT    N3  235   2.158   4.948   2.001
    7X2IT   H15  236   2.061   4.964   1.985
    7X2IT   H16  237   2.194   4.948   2.097
    7X2IT    N2  238   2.562   4.850   1.644
    7X2IT    C3  239   2.569   4.777   1.516
    7X2IT    C2  240   2.670   4.667   1.547
    7X2IT    H2  241   2.721   4.616   1.465
    7X2IT    N1  242   2.635   4.592   1.670
    7X2IT   H14  243   2.681   4.500   1.668
    7X2IT    C1  244   2.738   4.697   1.675
    7X2IT    H1  245   2.841   4.672   1.695
    7X2IT   C11  246   2.685   4.830   1.726
    7X2IT    O3  247   2.787   4.923   1.692
    7X2IT   C15  248   2.751   5.062   1.692
    8X2IT   H18  249   3.580   4.662   3.054
    8X2IT    N4  250   3.490   4.619   3.044
    8X2IT   H17  251   3.476   4.560   2.963
    8X2IT   C14  252   3.422   4.590   3.159
    8X2IT    O5  253   3.448   4.636   3.269
    8X2IT    O4  254   3.318   4.505   3.133
    8X2IT   C13  255   3.234   4.471   3.245
    8X2IT   C10  256   3.127   4.579   3.269
    8X2IT    C9  257   3.032   4.544   3.382
    8X2IT    C4  258   2.902   4.543   3.335
    8X2IT    C5  259   2.783   4.511   3.421
    8X2IT    O1  260   2.669   4.516   3.371
    8X2IT    C6  261   2.809   4.477   3.558
    8X2IT   C12  262   2.694   4.443   3.650
    8X2IT    C7  263   2.940   4.479   3.605
    8X2IT    C8  264   3.060   4.513   3.517
    8X2IT    O2  265   3.173   4.507   3.568
    8X2IT    N3  266   2.974   4.451   3.731
    8X2IT   H15  267   2.907   4.425   3.802
    8X2IT   H16  268   3.074   4.454   3.755
    8X2IT    N2  269   2.894   4.582   3.205
    8X2IT    C3  270   2.799   4.535   3.103
    8X2IT    C2  271   2.891   4.476   2.997
    8X2IT    H2  272   2.855   4.464   2.895
    8X2IT    N1  273   2.986   4.378   3.054
    8X2IT   H14  274   3.021   4.317   2.980
    8X2IT    C1  275   3.031   4.516   3.026
    8X2IT    H1  276   3.104   4.536   2.949
    8X2IT   C11  277   3.029   4.606   3.149
    8X2IT    O3  278   3.042   4.737   3.096
    8X2IT   C15  279   3.005   4.846   3.181
    9X2IT   H18  280   2.900   4.116   0.778
    9X2IT    N4  281   2.829   4.087   0.714
    9X2IT   H17  282   2.836   4.118   0.619
    9X2IT   C14  283   2.770   3.966   0.740
    9X2IT    O5  284   2.776   3.906   0.846
    9X2IT    O4  285   2.698   3.925   0.631
    9X2IT   C13  286   2.625   3.802   0.647
    9X2IT   C10  287   2.489   3.825   0.715
    9X2IT    C9  288   2.406   3.700   0.727
    9X2IT    C4  289   2.284   3.717   0.664
    9X2IT    C5  290   2.178   3.611   0.656
    9X2IT    O1  291   2.070   3.637   0.600
    9X2IT    C6  292   2.209   3.484   0.716
    9X2IT   C12  293   2.106   3.372   0.711
    9X2IT    C7  294   2.330   3.467   0.780
    9X2IT    C8  295   2.437   3.576   0.788
    9X2IT    O2  296   2.544   3.548   0.844
    9X2IT    N3  297   2.368   3.353   0.840
    9X2IT   H15  298   2.310   3.270   0.843
    9X2IT   H16  299   2.460   3.351   0.883
    9X2IT    N2  300   2.268   3.843   0.616
    9X2IT    C3  301   2.196   3.887   0.496
    9X2IT    C2  302   2.306   3.954   0.415
    9X2IT    H2  303   2.279   4.025   0.336
    9X2IT    N1  304   2.424   3.868   0.398
    9X2IT   H14  305   2.479   3.900   0.317
    9X2IT    C1  306   2.425   3.974   0.500
    9X2IT    H1  307   2.491   4.059   0.491
    9X2IT   C11  308   2.392   3.924   0.640
    9X2IT    O3  309   2.365   4.042   0.714
    9X2IT   C15  310   2.293   4.027   0.837
   10X2IT   H18  311   0.668   4.966  -0.484
   10X2IT    N4  312   0.694   4.887  -0.427
   10X2IT   H17  313   0.742   4.811  -0.473
   10X2IT   C14  314   0.721   4.913  -0.295
   10X2IT    O5  315   0.690   5.016  -0.236
   10X2IT    O4  316   0.783   4.806  -0.238
   10X2IT   C13  317   0.812   4.817  -0.097
   10X2IT   C10  318   0.689   4.779  -0.012
   10X2IT    C9  319   0.717   4.782   0.136
   10X2IT    C4  320   0.692   4.659   0.193
   10X2IT    C5  321   0.710   4.627   0.338
   10X2IT    O1  322   0.681   4.515   0.381
   10X2IT    C6  323   0.761   4.734   0.421
   10X2IT   C12  324   0.782   4.709   0.569
   10X2IT    C7  325   0.785   4.858   0.365
   10X2IT    C8  326   0.765   4.889   0.217
   10X2IT    O2  327   0.795   5.003   0.176
   10X2IT    N3  328   0.830   4.964   0.435
   10X2IT   H15  329   0.851   4.960   0.533
   10X2IT   H16  330   0.846   5.050   0.383
   10X2IT    N2  331   0.641   4.571   0.102
   10X2IT    C3  332   0.660   4.425   0.096
   10X2IT    C2  333   0.725   4.407  -0.040
   10X2IT    H2  334   0.722   4.310  -0.089
   10X2IT    N1  335   0.843   4.495  -0.059
   10X2IT   H14  336   0.902   4.457  -0.133
   10X2IT    C1  337   0.713   4.533  -0.118
   10X2IT    H1  338   0.699   4.535  -0.225
   10X2IT   C11  339   0.635   4.633  -0.033
   10X2IT    O3  340   0.504   4.630  -0.088
   10X2IT   C15  341   0.399   4.683  -0.007
   11X2IT   H18  342   0.791   4.048   2.984
   11X2IT    N4  343   0.843   4.117   3.036
   11X2IT   H17  344   0.913   4.083   3.100
   11X2IT   C14  345   0.863   4.237   2.973
   11X2IT    O5  346   0.801   4.277   2.876
   11X2IT    O4  347   0.959   4.308   3.039
   11X2IT   C13  348   0.986   4.441   2.988
   11X2IT   C10  349   0.885   4.543   3.044
   11X2IT    C9  350   0.914   4.685   2.998
   11X2IT    C4  351   0.933   4.767   3.108
   11X2IT    C5  352   0.964   4.913   3.098
   11X2IT    O1  353   0.976   4.980   3.202
   11X2IT    C6  354   0.978   4.968   2.965
   11X2IT   C12  355   1.009   5.115   2.948
   11X2IT    C7  356   0.958   4.886   2.856
   11X2IT    C8  357   0.925   4.737   2.867
   11X2IT    O2  358   0.914   4.671   2.762
   11X2IT    N3  359   0.966   4.928   2.729
   11X2IT   H15  360   0.989   5.022   2.703
   11X2IT   H16  361   0.951   4.858   2.655
   11X2IT    N2  362   0.912   4.701   3.225
   11X2IT    C3  363   0.980   4.723   3.354
   11X2IT    C2  364   1.043   4.588   3.381
   11X2IT    H2  365   1.072   4.560   3.482
   11X2IT    N1  366   1.124   4.540   3.266
   11X2IT   H14  367   1.191   4.470   3.299
   11X2IT    C1  368   0.988   4.488   3.286
   11X2IT    H1  369   0.972   4.384   3.312
   11X2IT   C11  370   0.883   4.557   3.201
   11X2IT    O3  371   0.760   4.518   3.258
   11X2IT   C15  372   0.644   4.596   3.225
   12X2IT   H18  373   2.027   1.383   2.658
   12X2IT    N4  374   2.010   1.297   2.706
   12X2IT   H17  375   2.045   1.212   2.664
   12X2IT   C14  376   2.002   1.304   2.843
   12X2IT    O5  377   1.985   1.406   2.907
   12X2IT    O4  378   2.010   1.179   2.896
   12X2IT   C13  379   1.996   1.170   3.040
   12X2IT   C10  380   1.848   1.168   3.082
   12X2IT    C9  381   1.829   1.152   3.231
   12X2IT    C4  382   1.753   1.040   3.258
   12X2IT    C5  383   1.716   0.994   3.396
   12X2IT    O1  384   1.644   0.894   3.410
   12X2IT    C6  385   1.768   1.073   3.506
   12X2IT   C12  386   1.735   1.033   3.648
   12X2IT    C7  387   1.843   1.186   3.479
   12X2IT    C8  388   1.879   1.232   3.337
   12X2IT    O2  389   1.951   1.332   3.325
   12X2IT    N3  390   1.893   1.266   3.574
   12X2IT   H15  391   1.881   1.250   3.672
   12X2IT   H16  392   1.949   1.346   3.543
   12X2IT    N2  393   1.709   0.980   3.144
   12X2IT    C3  394   1.687   0.836   3.121
   12X2IT    C2  395   1.781   0.807   3.005
   12X2IT    H2  396   1.765   0.720   2.942
   12X2IT    N1  397   1.919   0.853   3.033
   12X2IT   H14  398   1.985   0.803   2.972
   12X2IT    C1  399   1.830   0.935   2.948
   12X2IT    H1  400   1.851   0.949   2.843
   12X2IT   C11  401   1.763   1.049   3.024
   12X2IT    O3  402   1.660   1.092   2.937
   12X2IT   C15  403   1.555   1.171   2.994
   13X2IT   H18  404   2.599   1.103   3.461
   13X2IT    N4  405   2.655   1.049   3.398
   13X2IT   H17  406   2.722   0.985   3.440
   13X2IT   C14  407   2.597   1.016   3.279
   13X2IT    O5  408   2.498   1.069   3.231
   13X2IT    O4  409   2.670   0.918   3.218
   13X2IT   C13  410   2.624   0.877   3.087
   13X2IT   C10  411   2.677   0.972   2.977
   13X2IT    C9  412   2.638   0.929   2.838
   13X2IT    C4  413   2.751   0.909   2.760
   13X2IT    C5  414   2.747   0.865   2.617
   13X2IT    O1  415   2.853   0.854   2.554
   13X2IT    C6  416   2.616   0.840   2.560
   13X2IT   C12  417   2.605   0.795   2.416
   13X2IT    C7  418   2.504   0.861   2.638
   13X2IT    C8  419   2.509   0.907   2.784
   13X2IT    O2  420   2.402   0.918   2.845
   13X2IT    N3  421   2.378   0.842   2.593
   13X2IT   H15  422   2.357   0.811   2.501
   13X2IT   H16  423   2.302   0.859   2.660
   13X2IT    N2  424   2.865   0.941   2.827
   13X2IT    C3  425   2.997   0.879   2.814
   13X2IT    C2  426   3.023   0.829   2.955
   13X2IT    H2  427   3.125   0.807   2.987
   13X2IT    N1  428   2.911   0.746   3.006
   13X2IT   H14  429   2.945   0.687   3.083
   13X2IT    C1  430   2.923   0.887   3.047
   13X2IT    H1  431   2.945   0.913   3.150
   13X2IT   C11  432   2.834   0.981   2.967
   13X2IT    O3  433   2.884   1.110   2.997
   13X2IT   C15  434   2.848   1.217   2.909
   14X2IT   H18  435   3.350   2.529   5.533
   14X2IT    N4  436   3.304   2.460   5.477
   14X2IT   H17  437   3.234   2.403   5.522
   14X2IT   C14  438   3.292   2.487   5.344
   14X2IT    O5  439   3.353   2.573   5.284
   14X2IT    O4  440   3.203   2.401   5.287
   14X2IT   C13  441   3.184   2.414   5.144
   14X2IT   C10  442   3.293   2.339   5.066
   14X2IT    C9  443   3.273   2.344   4.916
   14X2IT    C4  444   3.263   2.216   4.865
   14X2IT    C5  445   3.242   2.186   4.719
   14X2IT    O1  446   3.239   2.068   4.681
   14X2IT    C6  447   3.229   2.299   4.631
   14X2IT   C12  448   3.207   2.276   4.483
   14X2IT    C7  449   3.239   2.427   4.682
   14X2IT    C8  450   3.262   2.457   4.831
   14X2IT    O2  451   3.265   2.575   4.867
   14X2IT    N3  452   3.230   2.538   4.608
   14X2IT   H15  453   3.213   2.537   4.509
   14X2IT   H16  454   3.238   2.628   4.657
   14X2IT    N2  455   3.283   2.121   4.960
   14X2IT    C3  456   3.221   1.988   4.968
   14X2IT    C2  457   3.149   1.995   5.102
   14X2IT    H2  458   3.121   1.902   5.153
   14X2IT    N1  459   3.062   2.113   5.113
   14X2IT   H14  460   2.991   2.097   5.185
   14X2IT    C1  461   3.195   2.114   5.177
   14X2IT    H1  462   3.204   2.117   5.285
   14X2IT   C11  463   3.301   2.184   5.094
   14X2IT    O3  464   3.423   2.145   5.154
   14X2IT   C15  465   3.543   2.162   5.077
   15X2IT   H18  466   1.927   3.816   1.527
   15X2IT    N4  467   2.001   3.824   1.595
   15X2IT   H17  468   2.081   3.881   1.570
   15X2IT   C14  469   1.963   3.817   1.726
   15X2IT    O5  470   1.856   3.774   1.766
   15X2IT    O4  471   2.065   3.859   1.806
   15X2IT   C13  472   2.042   3.851   1.948
   15X2IT   C10  473   2.072   3.709   2.001
   15X2IT    C9  474   2.056   3.698   2.151
   15X2IT    C4  475   2.174   3.655   2.209
   15X2IT    C5  476   2.192   3.634   2.356
   15X2IT    O1  477   2.301   3.592   2.399
   15X2IT    C6  478   2.079   3.664   2.440
   15X2IT   C12  479   2.091   3.645   2.590
   15X2IT    C7  480   1.961   3.705   2.383
   15X2IT    C8  481   1.943   3.726   2.232
   15X2IT    O2  482   1.833   3.768   2.191
   15X2IT    N3  483   1.849   3.734   2.452
   15X2IT   H15  484   1.844   3.728   2.552
   15X2IT   H16  485   1.768   3.766   2.399
   15X2IT    N2  486   2.269   3.627   2.116
   15X2IT    C3  487   2.414   3.643   2.128
   15X2IT    C2  488   2.445   3.740   2.014
   15X2IT    H2  489   2.547   3.748   1.975
   15X2IT    N1  490   2.360   3.861   2.020
   15X2IT   H14  491   2.405   3.937   1.967
   15X2IT    C1  492   2.326   3.752   1.926
   15X2IT    H1  493   2.334   3.767   1.819
   15X2IT   C11  494   2.219   3.658   1.979
   15X2IT    O3  495   2.226   3.546   1.893
   15X2IT   C15  496   2.166   3.424   1.939
   16X2IT   H18  497   3.879   3.592   0.969
   16X2IT    N4  498   3.782   3.615   0.981
   16X2IT   H17  499   3.747   3.620   1.076
   16X2IT   C14  500   3.727   3.695   0.885
   16X2IT    O5  501   3.775   3.717   0.775
   16X2IT    O4  502   3.606   3.743   0.928
   16X2IT   C13  503   3.533   3.824   0.834
   16X2IT   C10  504   3.452   3.737   0.736
   16X2IT    C9  505   3.368   3.818   0.640
   16X2IT    C4  506   3.235   3.783   0.652
   16X2IT    C5  507   3.125   3.845   0.571
   16X2IT    O1  508   3.008   3.805   0.586
   16X2IT    C6  509   3.163   3.949   0.479
   16X2IT   C12  510   3.056   4.017   0.395
   16X2IT    C7  511   3.296   3.984   0.467
   16X2IT    C8  512   3.408   3.919   0.549
   16X2IT    O2  513   3.524   3.961   0.533
   16X2IT    N3  514   3.342   4.078   0.383
   16X2IT   H15  515   3.281   4.132   0.323
   16X2IT   H16  516   3.442   4.096   0.383
   16X2IT    N2  517   3.217   3.680   0.739
   16X2IT    C3  518   3.102   3.656   0.827
   16X2IT    C2  519   3.167   3.658   0.965
   16X2IT    H2  520   3.116   3.611   1.049
   16X2IT    N1  521   3.249   3.779   0.987
   16X2IT   H14  522   3.261   3.793   1.088
   16X2IT    C1  523   3.314   3.652   0.950
   16X2IT    H1  524   3.379   3.600   1.020
   16X2IT   C11  525   3.346   3.641   0.802
   16X2IT    O3  526   3.375   3.504   0.782
   16X2IT   C15  527   3.371   3.455   0.648
   17X2IT   H18  528  -0.127   0.300   2.764
   17X2IT    N4  529  -0.043   0.353   2.749
   17X2IT   H17  530  -0.052   0.453   2.745
   17X2IT   C14  531   0.073   0.298   2.796
   17X2IT    O5  532   0.087   0.182   2.829
   17X2IT    O4  533   0.172   0.392   2.797
   17X2IT   C13  534   0.302   0.346   2.838
   17X2IT   C10  535   0.378   0.280   2.722
   17X2IT    C9  536   0.518   0.237   2.760
   17X2IT    C4  537   0.611   0.298   2.677
   17X2IT    C5  538   0.759   0.278   2.688
   17X2IT    O1  539   0.835   0.333   2.607
   17X2IT    C6  540   0.805   0.191   2.794
   17X2IT   C12  541   0.953   0.166   2.811
   17X2IT    C7  542   0.712   0.129   2.876
   17X2IT    C8  543   0.561   0.150   2.863
   17X2IT    O2  544   0.487   0.093   2.945
   17X2IT    N3  545   0.745   0.046   2.976
   17X2IT   H15  546   0.840   0.023   3.000
   17X2IT   H16  547   0.668   0.007   3.032
   17X2IT    N2  548   0.552   0.372   2.580
   17X2IT    C3  549   0.601   0.496   2.519
   17X2IT    C2  550   0.489   0.595   2.552
   17X2IT    H2  551   0.479   0.686   2.493
   17X2IT    N1  552   0.456   0.596   2.696
   17X2IT   H14  553   0.409   0.684   2.720
   17X2IT    C1  554   0.371   0.520   2.602
   17X2IT    H1  555   0.269   0.551   2.583
   17X2IT   C11  556   0.403   0.372   2.597
   17X2IT    O3  557   0.337   0.326   2.480
   17X2IT   C15  558   0.379   0.200   2.426
   18X2IT   H18  559   0.434   3.133   5.290
   18X2IT    N4  560   0.502   3.207   5.286
   18X2IT   H17  561   0.545   3.234   5.373
   18X2IT   C14  562   0.573   3.219   5.170
   18X2IT    O5  563   0.543   3.168   5.064
   18X2IT    O4  564   0.680   3.301   5.189
   18X2IT   C13  565   0.761   3.328   5.073
   18X2IT   C10  566   0.701   3.442   4.988
   18X2IT    C9  567   0.787   3.478   4.869
   18X2IT    C4  568   0.823   3.612   4.875
   18X2IT    C5  569   0.908   3.680   4.772
   18X2IT    O1  570   0.932   3.801   4.783
   18X2IT    C6  571   0.957   3.598   4.664
   18X2IT   C12  572   1.044   3.660   4.557
   18X2IT    C7  573   0.921   3.465   4.658
   18X2IT    C8  574   0.833   3.396   4.763
   18X2IT    O2  575   0.810   3.275   4.750
   18X2IT    N3  576   0.960   3.381   4.561
   18X2IT   H15  577   1.020   3.409   4.485
   18X2IT   H16  578   0.929   3.284   4.567
   18X2IT    N2  579   0.764   3.676   4.979
   18X2IT    C3  580   0.819   3.787   5.059
   18X2IT    C2  581   0.823   3.727   5.199
   18X2IT    H2  582   0.826   3.793   5.286
   18X2IT    N1  583   0.892   3.597   5.203
   18X2IT   H14  584   0.923   3.578   5.299
   18X2IT    C1  585   0.745   3.601   5.201
   18X2IT    H1  586   0.687   3.568   5.287
   18X2IT   C11  587   0.686   3.580   5.062
   18X2IT    O3  588   0.551   3.621   5.076
   18X2IT   C15  589   0.479   3.650   4.955
   19X2IT   H18  590   1.658   3.236   2.975
   19X2IT    N4  591   1.624   3.225   3.069
   19X2IT   H17  592   1.555   3.154   3.085
   19X2IT   C14  593   1.711   3.257   3.170
   19X2IT    O5  594   1.814   3.322   3.156
   19X2IT    O4  595   1.664   3.209   3.289
   19X2IT   C13  596   1.743   3.241   3.405
   19X2IT   C10  597   1.710   3.381   3.459
   19X2IT    C9  598   1.785   3.416   3.586
   19X2IT    C4  599   1.696   3.445   3.687
   19X2IT    C5  600   1.738   3.483   3.827
   19X2IT    O1  601   1.652   3.511   3.911
   19X2IT    C6  602   1.880   3.484   3.853
   19X2IT   C12  603   1.929   3.520   3.992
   19X2IT    C7  604   1.969   3.455   3.751
   19X2IT    C8  605   1.925   3.418   3.609
   19X2IT    O2  606   2.013   3.390   3.527
   19X2IT    N3  607   2.102   3.455   3.766
   19X2IT   H15  608   2.148   3.476   3.853
   19X2IT   H16  609   2.158   3.431   3.684
   19X2IT    N2  610   1.567   3.444   3.645
   19X2IT    C3  611   1.447   3.405   3.721
   19X2IT    C2  612   1.393   3.290   3.638
   19X2IT    H2  613   1.289   3.260   3.648
   19X2IT    N1  614   1.496   3.187   3.611
   19X2IT   H14  615   1.450   3.098   3.587
   19X2IT    C1  616   1.463   3.286   3.507
   19X2IT    H1  617   1.414   3.256   3.415
   19X2IT   C11  618   1.560   3.403   3.502
   19X2IT    O3  619   1.493   3.500   3.422
   19X2IT   C15  620   1.541   3.635   3.431
   20X2IT   H18  621   2.118   2.679   3.657
   20X2IT    N4  622   2.090   2.707   3.749
   20X2IT   H17  623   2.162   2.734   3.815
   20X2IT   C14  624   1.967   2.767   3.759
   20X2IT    O5  625   1.880   2.764   3.673
   20X2IT    O4  626   1.954   2.827   3.881
   20X2IT   C13  627   1.826   2.888   3.908
   20X2IT   C10  628   1.723   2.785   3.958
   20X2IT    C9  629   1.590   2.846   3.994
   20X2IT    C4  630   1.559   2.819   4.126
   20X2IT    C5  631   1.434   2.866   4.194
   20X2IT    O1  632   1.412   2.834   4.312
   20X2IT    C6  633   1.344   2.948   4.115
   20X2IT   C12  634   1.216   2.999   4.178
   20X2IT    C7  635   1.375   2.974   3.983
   20X2IT    C8  636   1.502   2.925   3.915
   20X2IT    O2  637   1.522   2.958   3.797
   20X2IT    N3  638   1.297   3.047   3.902
   20X2IT   H15  639   1.210   3.089   3.931
   20X2IT   H16  640   1.330   3.062   3.806
   20X2IT    N2  641   1.651   2.738   4.184
   20X2IT    C3  642   1.694   2.737   4.325
   20X2IT    C2  643   1.844   2.766   4.312
   20X2IT    H2  644   1.911   2.739   4.394
   20X2IT    N1  645   1.871   2.886   4.231
   20X2IT   H14  646   1.965   2.921   4.253
   20X2IT    C1  647   1.885   2.752   4.170
   20X2IT    H1  648   1.982   2.714   4.140
   20X2IT   C11  649   1.763   2.709   4.090
   20X2IT    O3  650   1.781   2.570   4.071
   20X2IT   C15  651   1.666   2.494   4.033
   21X2IT   H18  652   4.796   2.737   5.164
   21X2IT    N4  653   4.696   2.740   5.163
   21X2IT   H17  654   4.650   2.797   5.232
   21X2IT   C14  655   4.637   2.724   5.040
   21X2IT    O5  656   4.692   2.679   4.941
   21X2IT    O4  657   4.505   2.761   5.047
   21X2IT   C13  658   4.428   2.743   4.926
   21X2IT   C10  659   4.377   2.598   4.913
   21X2IT    C9  660   4.290   2.577   4.791
   21X2IT    C4  661   4.166   2.530   4.829
   21X2IT    C5  662   4.055   2.500   4.733
   21X2IT    O1  663   3.947   2.455   4.776
   21X2IT    C6  664   4.082   2.525   4.593
   21X2IT   C12  665   3.974   2.496   4.491
   21X2IT    C7  666   4.206   2.571   4.555
   21X2IT    C8  667   4.319   2.601   4.655
   21X2IT    O2  668   4.426   2.646   4.610
   21X2IT    N3  669   4.241   2.595   4.428
   21X2IT   H15  670   4.179   2.582   4.350
   21X2IT   H16  671   4.336   2.630   4.412
   21X2IT    N2  672   4.158   2.508   4.963
   21X2IT    C3  673   4.041   2.523   5.051
   21X2IT    C2  674   4.089   2.627   5.151
   21X2IT    H2  675   4.039   2.636   5.247
   21X2IT    N1  676   4.143   2.748   5.084
   21X2IT   H14  677   4.142   2.827   5.150
   21X2IT    C1  678   4.236   2.645   5.137
   21X2IT    H1  679   4.301   2.667   5.220
   21X2IT   C11  680   4.285   2.548   5.030
   21X2IT    O3  681   4.342   2.442   5.104
   21X2IT   C15  682   4.362   2.318   5.035
   22X2IT   H18  683   3.203   3.453   1.335
   22X2IT    N4  684   3.263   3.404   1.400
   22X2IT   H17  685   3.338   3.349   1.361
   22X2IT   C14  686   3.281   3.463   1.522
   22X2IT    O5  687   3.211   3.551   1.569
   22X2IT    O4  688   3.386   3.405   1.587
   22X2IT   C13  689   3.413   3.452   1.721
   22X2IT   C10  690   3.323   3.382   1.824
   22X2IT    C9  691   3.352   3.424   1.966
   22X2IT    C4  692   3.386   3.313   2.042
   22X2IT    C5  693   3.422   3.320   2.188
   22X2IT    O1  694   3.447   3.215   2.249
   22X2IT    C6  695   3.423   3.451   2.248
   22X2IT   C12  696   3.459   3.465   2.395
   22X2IT    C7  697   3.388   3.561   2.172
   22X2IT    C8  698   3.351   3.553   2.024
   22X2IT    O2  699   3.326   3.659   1.964
   22X2IT    N3  700   3.385   3.687   2.220
   22X2IT   H15  701   3.409   3.710   2.315
   22X2IT   H16  702   3.360   3.761   2.154
   22X2IT    N2  703   3.375   3.198   1.972
   22X2IT    C3  704   3.456   3.076   1.985
   22X2IT    C2  705   3.517   3.062   1.846
   22X2IT    H2  706   3.556   2.966   1.813
   22X2IT    N1  707   3.583   3.187   1.802
   22X2IT   H14  708   3.651   3.165   1.728
   22X2IT    C1  709   3.448   3.155   1.753
   22X2IT    H1  710   3.431   3.131   1.649
   22X2IT   C11  711   3.338   3.225   1.831
   22X2IT    O3  712   3.220   3.157   1.793
   22X2IT   C15  713   3.105   3.174   1.876
   23X2IT   H18  714   1.906   4.016   4.600
   23X2IT    N4  715   1.982   3.963   4.638
   23X2IT   H17  716   2.007   3.981   4.735
   23X2IT   C14  717   2.002   3.838   4.586
   23X2IT    O5  718   1.954   3.797   4.482
   23X2IT    O4  719   2.086   3.767   4.666
   23X2IT   C13  720   2.121   3.635   4.621
   23X2IT   C10  721   2.237   3.639   4.518
   23X2IT    C9  722   2.281   3.502   4.473
   23X2IT    C4  723   2.415   3.484   4.500
   23X2IT    C5  724   2.491   3.358   4.469
   23X2IT    O1  725   2.612   3.352   4.493
   23X2IT    C6  726   2.415   3.251   4.409
   23X2IT   C12  727   2.485   3.121   4.375
   23X2IT    C7  728   2.281   3.269   4.381
   23X2IT    C8  729   2.205   3.399   4.413
   23X2IT    O2  730   2.084   3.403   4.387
   23X2IT    N3  731   2.203   3.176   4.324
   23X2IT   H15  732   2.236   3.085   4.298
   23X2IT   H16  733   2.105   3.200   4.309
   23X2IT    N2  734   2.473   3.596   4.552
   23X2IT    C3  735   2.582   3.605   4.650
   23X2IT    C2  736   2.516   3.681   4.764
   23X2IT    H2  737   2.579   3.732   4.838
   23X2IT    N1  738   2.388   3.620   4.807
   23X2IT   H14  739   2.366   3.650   4.902
   23X2IT    C1  740   2.387   3.738   4.718
   23X2IT    H1  741   2.349   3.833   4.753
   23X2IT   C11  742   2.371   3.703   4.571
   23X2IT    O3  743   2.406   3.822   4.503
   23X2IT   C15  744   2.438   3.811   4.364
   24X2IT   H18  745   3.846   4.873   1.830
   24X2IT    N4  746   3.780   4.914   1.767
   24X2IT   H17  747   3.722   4.989   1.803
   24X2IT   C14  748   3.813   4.914   1.635
   24X2IT    O5  749   3.901   4.845   1.585
   24X2IT    O4  750   3.731   4.998   1.566
   24X2IT   C13  751   3.750   5.003   1.423
   24X2IT   C10  752   3.676   4.888   1.352
   24X2IT    C9  753   3.688   4.894   1.202
   24X2IT    C4  754   3.563   4.900   1.144
   24X2IT    C5  755   3.539   4.908   0.996
   24X2IT    O1  756   3.423   4.910   0.953
   24X2IT    C6  757   3.656   4.912   0.912
   24X2IT   C12  758   3.639   4.920   0.761
   24X2IT    C7  759   3.782   4.904   0.969
   24X2IT    C8  760   3.804   4.896   1.121
   24X2IT    O2  761   3.922   4.894   1.162
   24X2IT    N3  762   3.896   4.905   0.900
   24X2IT   H15  763   3.899   4.912   0.799
   24X2IT   H16  764   3.983   4.901   0.953
   24X2IT    N2  765   3.464   4.891   1.236
   24X2IT    C3  766   3.331   4.955   1.233
   24X2IT    C2  767   3.334   5.040   1.360
   24X2IT    H2  768   3.240   5.073   1.404
   24X2IT    N1  769   3.454   5.126   1.368
   24X2IT   H14  770   3.436   5.204   1.432
   24X2IT    C1  771   3.449   5.000   1.444
   24X2IT    H1  772   3.447   5.000   1.552
   24X2IT   C11  773   3.520   4.885   1.374
   24X2IT    O3  774   3.477   4.770   1.444
   24X2IT   C15  775   3.495   4.643   1.379
   25X2IT   H18  776   5.072   3.524   0.124
   25X2IT    N4  777   5.096   3.521   0.221
   25X2IT   H17  778   5.190   3.549   0.247
   25X2IT   C14  779   4.994   3.542   0.310
   25X2IT    O5  780   4.875   3.537   0.283
   25X2IT    O4  781   5.045   3.565   0.435
   25X2IT   C13  782   4.948   3.583   0.540
   25X2IT   C10  783   4.900   3.448   0.596
   25X2IT    C9  784   4.804   3.462   0.711
   25X2IT    C4  785   4.853   3.396   0.823
   25X2IT    C5  786   4.783   3.392   0.955
   25X2IT    O1  787   4.833   3.327   1.049
   25X2IT    C6  788   4.658   3.463   0.964
   25X2IT   C12  789   4.582   3.462   1.095
   25X2IT    C7  790   4.608   3.527   0.853
   25X2IT    C8  791   4.681   3.531   0.718
   25X2IT    O2  792   4.629   3.596   0.626
   25X2IT    N3  793   4.492   3.595   0.851
   25X2IT   H15  794   4.433   3.604   0.932
   25X2IT   H16  795   4.465   3.640   0.763
   25X2IT    N2  796   4.969   3.331   0.796
   25X2IT    C3  797   5.083   3.308   0.887
   25X2IT    C2  798   5.197   3.376   0.813
   25X2IT    H2  799   5.300   3.350   0.836
   25X2IT    N1  800   5.164   3.516   0.775
   25X2IT   H14  801   5.251   3.568   0.759
   25X2IT    C1  802   5.154   3.408   0.674
   25X2IT    H1  803   5.222   3.406   0.589
   25X2IT   C11  804   5.013   3.356   0.656
   25X2IT    O3  805   5.030   3.235   0.584
   25X2IT   C15  806   4.921   3.142   0.584
   26X2IT   H18  807   2.766   0.539   3.594
   26X2IT    N4  808   2.683   0.493   3.628
   26X2IT   H17  809   2.599   0.506   3.573
   26X2IT   C14  810   2.701   0.377   3.697
   26X2IT    O5  811   2.806   0.339   3.745
   26X2IT    O4  812   2.582   0.311   3.709
   26X2IT   C13  813   2.584   0.189   3.786
   26X2IT   C10  814   2.573   0.218   3.937
   26X2IT    C9  815   2.567   0.092   4.021
   26X2IT    C4  816   2.452   0.089   4.096
   26X2IT    C5  817   2.415  -0.022   4.189
   26X2IT    O1  818   2.311  -0.014   4.256
   26X2IT    C6  819   2.507  -0.133   4.197
   26X2IT   C12  820   2.476  -0.249   4.289
   26X2IT    C7  821   2.623  -0.130   4.122
   26X2IT    C8  822   2.660  -0.015   4.027
   26X2IT    O2  823   2.765  -0.025   3.962
   26X2IT    N3  824   2.715  -0.228   4.123
   26X2IT   H15  825   2.706  -0.311   4.178
   26X2IT   H16  826   2.797  -0.216   4.063
   26X2IT    N2  827   2.379   0.203   4.081
   26X2IT    C3  828   2.232   0.218   4.085
   26X2IT    C2  829   2.202   0.275   3.947
   26X2IT    H2  830   2.108   0.327   3.929
   26X2IT    N1  831   2.262   0.194   3.838
   26X2IT   H14  832   2.213   0.212   3.751
   26X2IT    C1  833   2.329   0.318   3.882
   26X2IT    H1  834   2.336   0.403   3.817
   26X2IT   C11  835   2.442   0.294   3.981
   26X2IT    O3  836   2.468   0.422   4.035
   26X2IT   C15  837   2.542   0.427   4.158
   27X2IT   H18  838   4.345   5.207   0.934
   27X2IT    N4  839   4.339   5.120   0.883
   27X2IT   H17  840   4.324   5.126   0.783
   27X2IT   C14  841   4.411   5.015   0.933
   27X2IT    O5  842   4.458   5.010   1.046
   27X2IT    O4  843   4.419   4.916   0.840
   27X2IT   C13  844   4.487   4.796   0.881
   27X2IT   C10  845   4.393   4.702   0.960
   27X2IT    C9  846   4.459   4.571   0.999
   27X2IT    C4  847   4.388   4.465   0.947
   27X2IT    C5  848   4.426   4.321   0.966
   27X2IT    O1  849   4.354   4.232   0.919
   27X2IT    C6  850   4.547   4.296   1.042
   27X2IT   C12  851   4.592   4.153   1.065
   27X2IT    C7  852   4.617   4.403   1.094
   27X2IT    C8  853   4.577   4.549   1.074
   27X2IT    O2  854   4.650   4.637   1.122
   27X2IT    N3  855   4.730   4.390   1.167
   27X2IT   H15  856   4.771   4.301   1.188
   27X2IT   H16  857   4.774   4.476   1.199
   27X2IT    N2  858   4.275   4.505   0.883
   27X2IT    C3  859   4.211   4.444   0.766
   27X2IT    C2  860   4.214   4.557   0.664
   27X2IT    H2  861   4.145   4.555   0.579
   27X2IT    N1  862   4.349   4.614   0.648
   27X2IT   H14  863   4.355   4.663   0.558
   27X2IT    C1  864   4.250   4.684   0.733
   27X2IT    H1  865   4.210   4.780   0.704
   27X2IT   C11  866   4.266   4.654   0.881
   27X2IT    O3  867   4.145   4.700   0.938
   27X2IT   C15  868   4.112   4.652   1.069
   28X2IT   H18  869   2.712   1.784   5.263
   28X2IT    N4  870   2.636   1.831   5.218
   28X2IT   H17  871   2.548   1.834   5.266
   28X2IT   C14  872   2.670   1.936   5.136
   28X2IT    O5  873   2.782   1.958   5.092
   28X2IT    O4  874   2.559   2.009   5.106
   28X2IT   C13  875   2.578   2.119   5.015
   28X2IT   C10  876   2.574   2.072   4.868
   28X2IT    C9  877   2.587   2.185   4.769
   28X2IT    C4  878   2.477   2.187   4.685
   28X2IT    C5  879   2.458   2.288   4.575
   28X2IT    O1  880   2.358   2.280   4.502
   28X2IT    C6  881   2.560   2.389   4.561
   28X2IT   C12  882   2.547   2.494   4.453
   28X2IT    C7  883   2.671   2.386   4.645
   28X2IT    C8  884   2.689   2.282   4.756
   28X2IT    O2  885   2.790   2.292   4.828
   28X2IT    N3  886   2.771   2.474   4.639
   28X2IT   H15  887   2.774   2.550   4.573
   28X2IT   H16  888   2.847   2.463   4.707
   28X2IT    N2  889   2.393   2.083   4.708
   28X2IT    C3  890   2.247   2.081   4.694
   28X2IT    C2  891   2.202   2.046   4.836
   28X2IT    H2  892   2.102   2.004   4.852
   28X2IT    N1  893   2.262   2.135   4.937
   28X2IT   H14  894   2.205   2.133   5.022
   28X2IT    C1  895   2.319   2.001   4.915
   28X2IT    H1  896   2.313   1.925   4.991
   28X2IT   C11  897   2.441   2.002   4.823
   28X2IT    O3  898   2.458   1.866   4.788
   28X2IT   C15  899   2.540   1.838   4.674
   29X2IT   H18  900   4.404   2.762   2.911
   29X2IT    N4  901   4.306   2.770   2.931
   29X2IT   H17  902   4.271   2.720   3.012
   29X2IT   C14  903   4.245   2.886   2.894
   29X2IT    O5  904   4.291   2.968   2.816
   29X2IT    O4  905   4.123   2.897   2.954
   29X2IT   C13  906   4.044   3.012   2.919
   29X2IT   C10  907   3.967   2.990   2.788
   29X2IT    C9  908   3.878   3.107   2.751
   29X2IT    C4  909   3.747   3.065   2.739
   29X2IT    C5  910   3.633   3.156   2.705
   29X2IT    O1  911   3.519   3.108   2.692
   29X2IT    C6  912   3.664   3.295   2.687
   29X2IT   C12  913   3.554   3.392   2.652
   29X2IT    C7  914   3.796   3.337   2.697
   29X2IT    C8  915   3.911   3.243   2.732
   29X2IT    O2  916   4.025   3.292   2.744
   29X2IT    N3  917   3.835   3.464   2.680
   29X2IT   H15  918   3.772   3.539   2.659
   29X2IT   H16  919   3.935   3.484   2.693
   29X2IT    N2  920   3.735   2.930   2.755
   29X2IT    C3  921   3.622   2.856   2.814
   29X2IT    C2  922   3.689   2.784   2.930
   29X2IT    H2  923   3.641   2.696   2.974
   29X2IT    N1  924   3.765   2.876   3.017
   29X2IT   H14  925   3.777   2.834   3.109
   29X2IT    C1  926   3.836   2.794   2.917
   29X2IT    H1  927   3.904   2.716   2.948
   29X2IT   C11  928   3.867   2.869   2.788
   29X2IT    O3  929   3.903   2.767   2.697
   29X2IT   C15  930   3.899   2.800   2.558
   30X2IT   H18  931   2.764   5.450   0.839
   30X2IT    N4  932   2.722   5.375   0.892
   30X2IT   H17  933   2.757   5.358   0.985
   30X2IT   C14  934   2.590   5.349   0.865
   30X2IT    O5  935   2.529   5.388   0.767
   30X2IT    O4  936   2.538   5.269   0.963
   30X2IT   C13  937   2.401   5.228   0.944
   30X2IT   C10  938   2.391   5.106   0.851
   30X2IT    C9  939   2.249   5.055   0.835
   30X2IT    C4  940   2.241   4.923   0.874
   30X2IT    C5  941   2.114   4.842   0.871
   30X2IT    O1  942   2.117   4.723   0.905
   30X2IT    C6  943   1.995   4.911   0.828
   30X2IT   C12  944   1.864   4.836   0.823
   30X2IT    C7  945   2.004   5.043   0.788
   30X2IT    C8  946   2.134   5.124   0.790
   30X2IT    O2  947   2.129   5.243   0.756
   30X2IT    N3  948   1.899   5.114   0.744
   30X2IT   H15  949   1.806   5.077   0.737
   30X2IT   H16  950   1.917   5.212   0.718
   30X2IT    N2  951   2.362   4.872   0.908
   30X2IT    C3  952   2.393   4.770   1.010
   30X2IT    C2  953   2.486   4.846   1.104
   30X2IT    H2  954   2.552   4.790   1.171
   30X2IT    N1  955   2.429   4.975   1.148
   30X2IT   H14  956   2.476   5.005   1.234
   30X2IT    C1  957   2.529   4.972   1.039
   30X2IT    H1  958   2.627   5.015   1.053
   30X2IT   C11  959   2.468   4.977   0.900
   30X2IT    O3  960   2.574   4.940   0.814
   30X2IT   C15  961   2.539   4.898   0.682
   31X2IT   H18  962   0.926   2.224  -0.337
   31X2IT    N4  963   0.870   2.219  -0.254
   31X2IT   H17  964   0.772   2.200  -0.265
   31X2IT   C14  965   0.933   2.174  -0.141
   31X2IT    O5  966   1.054   2.167  -0.126
   31X2IT    O4  967   0.841   2.143  -0.045
   31X2IT   C13  968   0.894   2.100   0.082
   31X2IT   C10  969   0.931   2.220   0.171
   31X2IT    C9  970   0.980   2.180   0.308
   31X2IT    C4  971   0.901   2.238   0.406
   31X2IT    C5  972   0.922   2.217   0.553
   31X2IT    O1  973   0.848   2.276   0.634
   31X2IT    C6  974   1.030   2.130   0.591
   31X2IT   C12  975   1.056   2.105   0.738
   31X2IT    C7  976   1.109   2.073   0.494
   31X2IT    C8  977   1.088   2.095   0.344
   31X2IT    O2  978   1.163   2.036   0.265
   31X2IT    N3  979   1.213   1.992   0.520
   31X2IT   H15  980   1.240   1.965   0.613
   31X2IT   H16  981   1.264   1.954   0.439
   31X2IT    N2  982   0.807   2.321   0.353
   31X2IT    C3  983   0.671   2.347   0.404
   31X2IT    C2  984   0.584   2.303   0.287
   31X2IT    H2  985   0.482   2.340   0.278
   31X2IT    N1  986   0.617   2.167   0.241
   31X2IT   H14  987   0.537   2.128   0.189
   31X2IT    C1  988   0.670   2.283   0.167
   31X2IT    H1  989   0.636   2.304   0.066
   31X2IT   C11  990   0.813   2.319   0.204
   31X2IT    O3  991   0.831   2.448   0.150
   31X2IT   C15  992   0.941   2.525   0.201
   32X2IT   H18  993   0.541   3.208   0.574
   32X2IT    N4  994   0.558   3.116   0.609
   32X2IT   H17  995   0.532   3.038   0.549
   32X2IT   C14  996   0.664   3.101   0.694
   32X2IT    O5  997   0.722   3.193   0.751
   32X2IT    O4  998   0.695   2.969   0.709
   32X2IT   C13  999   0.801   2.938   0.801
   32X2IT   C10 1000   0.750   2.933   0.946
   32X2IT    C9 1001   0.857   2.894   1.046
   32X2IT    C4 1002   0.818   2.781   1.115
   32X2IT    C5 1003   0.902   2.716   1.221
   32X2IT    O1 1004   0.858   2.617   1.281
   32X2IT    C6 1005   1.031   2.775   1.247
   32X2IT   C12 1006   1.121   2.713   1.352
   32X2IT    C7 1007   1.069   2.888   1.178
   32X2IT    C8 1008   0.982   2.955   1.071
   32X2IT    O2 1009   1.028   3.054   1.012
   32X2IT    N3 1010   1.186   2.952   1.197
   32X2IT   H15 1011   1.256   2.920   1.262
   32X2IT   H16 1012   1.204   3.034   1.139
   32X2IT    N2 1013   0.693   2.741   1.082
   32X2IT    C3 1014   0.640   2.604   1.077
   32X2IT    C2 1015   0.598   2.591   0.932
   32X2IT    H2 1016   0.525   2.515   0.903
   32X2IT    N1 1017   0.706   2.629   0.838
   32X2IT   H14 1018   0.687   2.587   0.746
   32X2IT    C1 1019   0.598   2.725   0.868
   32X2IT    H1 1020   0.527   2.755   0.792
   32X2IT   C11 1021   0.637   2.827   0.974
   32X2IT    O3 1022   0.514   2.886   1.012
   32X2IT   C15 1023   0.511   2.958   1.136
   33X2IT   H18 1024   4.349   1.591   5.209
   33X2IT    N4 1025   4.301   1.642   5.137
   33X2IT   H17 1026   4.239   1.716   5.165
   33X2IT   C14 1027   4.366   1.652   5.017
   33X2IT    O5 1028   4.461   1.584   4.983
   33X2IT    O4 1029   4.306   1.747   4.939
   33X2IT   C13 1030   4.360   1.765   4.807
   33X2IT   C10 1031   4.303   1.661   4.709
   33X2IT    C9 1032   4.352   1.680   4.567
   33X2IT    C4 1033   4.245   1.700   4.481
   33X2IT    C5 1034   4.258   1.723   4.334
   33X2IT    O1 1035   4.156   1.735   4.264
   33X2IT    C6 1036   4.393   1.727   4.281
   33X2IT   C12 1037   4.414   1.751   4.133
   33X2IT    C7 1038   4.500   1.707   4.367
   33X2IT    C8 1039   4.484   1.683   4.517
   33X2IT    O2 1040   4.587   1.671   4.585
   33X2IT    N3 1041   4.628   1.708   4.327
   33X2IT   H15 1042   4.656   1.725   4.232
   33X2IT   H16 1043   4.699   1.694   4.399
   33X2IT    N2 1044   4.125   1.687   4.545
   33X2IT    C3 1045   4.000   1.759   4.517
   33X2IT    C2 1046   3.974   1.831   4.649
   33X2IT    H2 1047   3.873   1.866   4.672
   33X2IT    N1 1048   4.091   1.909   4.694
   33X2IT   H14 1049   4.060   1.981   4.760
   33X2IT    C1 1050   4.064   1.777   4.754
   33X2IT    H1 1051   4.035   1.767   4.858
   33X2IT   C11 1052   4.146   1.665   4.691
   33X2IT    O3 1053   4.083   1.547   4.736
   33X2IT   C15 1054   4.112   1.426   4.665
   34X2IT   H18 1055   4.571   0.390   0.901
   34X2IT    N4 1056   4.522   0.450   0.837
   34X2IT   H17 1057   4.486   0.537   0.873
   34X2IT   C14 1058   4.560   0.443   0.706
   34X2IT    O5 1059   4.627   0.354   0.657
   34X2IT    O4 1060   4.509   0.549   0.637
   34X2IT   C13 1061   4.536   0.552   0.495
   34X2IT   C10 1062   4.436   0.464   0.417
   34X2IT    C9 1063   4.456   0.470   0.267
   34X2IT    C4 1064   4.341   0.513   0.205
   34X2IT    C5 1065   4.327   0.531   0.056
   34X2IT    O1 1066   4.219   0.567   0.009
   34X2IT    C6 1067   4.445   0.503  -0.023
   34X2IT   C12 1068   4.438   0.519  -0.173
   34X2IT    C7 1069   4.560   0.458   0.040
   34X2IT    C8 1070   4.572   0.440   0.191
   34X2IT    O2 1071   4.682   0.404   0.237
   34X2IT    N3 1072   4.673   0.428  -0.025
   34X2IT   H15 1073   4.683   0.436  -0.125
   34X2IT   H16 1074   4.753   0.398   0.031
   34X2IT    N2 1075   4.239   0.531   0.293
   34X2IT    C3 1076   4.130   0.630   0.287
   34X2IT    C2 1077   4.150   0.708   0.416
   34X2IT    H2 1078   4.068   0.766   0.458
   34X2IT    N1 1079   4.289   0.756   0.432
   34X2IT   H14 1080   4.291   0.834   0.498
   34X2IT    C1 1081   4.246   0.634   0.503
   34X2IT    H1 1082   4.238   0.633   0.611
   34X2IT   C11 1083   4.284   0.505   0.432
   34X2IT    O3 1084   4.206   0.406   0.496
   34X2IT   C15 1085   4.191   0.281   0.428
   35X2IT   H18 1086   1.298   2.514   0.658
   35X2IT    N4 1087   1.396   2.495   0.659
   35X2IT   H17 1088   1.433   2.439   0.583
   35X2IT   C14 1089   1.476   2.589   0.717
   35X2IT    O5 1090   1.438   2.679   0.789
   35X2IT    O4 1091   1.607   2.566   0.684
   35X2IT   C13 1092   1.704   2.654   0.744
   35X2IT   C10 1093   1.741   2.610   0.886
   35X2IT    C9 1094   1.848   2.696   0.950
   35X2IT    C4 1095   1.957   2.618   0.986
   35X2IT    C5 1096   2.081   2.673   1.050
   35X2IT    O1 1097   2.172   2.595   1.083
   35X2IT    C6 1098   2.085   2.816   1.072
   35X2IT   C12 1099   2.207   2.877   1.137
   35X2IT    C7 1100   1.975   2.893   1.037
   35X2IT    C8 1101   1.849   2.836   0.972
   35X2IT    O2 1102   1.759   2.915   0.940
   35X2IT    N3 1103   1.969   3.026   1.055
   35X2IT   H15 1104   2.044   3.079   1.095
   35X2IT   H16 1105   1.884   3.073   1.024
   35X2IT    N2 1106   1.935   2.486   0.963
   35X2IT    C3 1107   2.033   2.384   0.924
   35X2IT    C2 1108   1.978   2.335   0.790
   35X2IT    H2 1109   2.008   2.238   0.752
   35X2IT    N1 1110   1.951   2.447   0.697
   35X2IT   H14 1111   1.948   2.411   0.601
   35X2IT    C1 1112   1.839   2.387   0.773
   35X2IT    H1 1113   1.762   2.331   0.722
   35X2IT   C11 1114   1.803   2.465   0.898
   35X2IT    O3 1115   1.721   2.376   0.972
   35X2IT   C15 1116   1.702   2.405   1.111
   36X2IT   H18 1117   3.901   3.237   3.275
   36X2IT    N4 1118   3.920   3.289   3.359
   36X2IT   H17 1119   4.008   3.338   3.364
   36X2IT   C14 1120   3.812   3.342   3.425
   36X2IT    O5 1121   3.696   3.308   3.407
   36X2IT    O4 1122   3.853   3.434   3.517
   36X2IT   C13 1123   3.750   3.493   3.598
   36X2IT   C10 1124   3.715   3.403   3.718
   36X2IT    C9 1125   3.612   3.464   3.810
   36X2IT    C4 1126   3.663   3.475   3.938
   36X2IT    C5 1127   3.587   3.532   4.054
   36X2IT    O1 1128   3.640   3.534   4.167
   36X2IT    C6 1129   3.454   3.581   4.026
   36X2IT   C12 1130   3.372   3.641   4.139
   36X2IT    C7 1131   3.403   3.570   3.899
   36X2IT    C8 1132   3.482   3.510   3.781
   36X2IT    O2 1133   3.427   3.509   3.670
   36X2IT    N3 1134   3.280   3.611   3.863
   36X2IT   H15 1135   3.216   3.654   3.927
   36X2IT   H16 1136   3.253   3.599   3.765
   36X2IT    N2 1137   3.787   3.420   3.949
   36X2IT    C3 1138   3.898   3.463   4.036
   36X2IT    C2 1139   4.007   3.495   3.934
   36X2IT    H2 1140   4.111   3.498   3.966
   36X2IT    N1 1141   3.960   3.588   3.829
   36X2IT   H14 1142   4.041   3.633   3.786
   36X2IT    C1 1143   3.968   3.443   3.801
   36X2IT    H1 1144   4.039   3.404   3.729
   36X2IT   C11 1145   3.834   3.371   3.816
   36X2IT    O3 1146   3.869   3.234   3.819
   36X2IT   C15 1147   3.771   3.143   3.871
   37X2IT   H18 1148   3.865   0.945   5.569
   37X2IT    N4 1149   3.796   0.950   5.496
   37X2IT   H17 1150   3.717   1.011   5.512
   37X2IT   C14 1151   3.842   0.933   5.368
   37X2IT    O5 1152   3.949   0.884   5.338
   37X2IT    O4 1153   3.747   0.973   5.279
   37X2IT   C13 1154   3.778   0.954   5.139
   37X2IT   C10 1155   3.747   0.810   5.094
   37X2IT    C9 1156   3.772   0.787   4.947
   37X2IT    C4 1157   3.656   0.745   4.884
   37X2IT    C5 1158   3.646   0.714   4.738
   37X2IT    O1 1159   3.539   0.673   4.691
   37X2IT    C6 1160   3.765   0.734   4.659
   37X2IT   C12 1161   3.762   0.706   4.511
   37X2IT    C7 1162   3.881   0.776   4.722
   37X2IT    C8 1163   3.890   0.806   4.872
   37X2IT    O2 1164   3.999   0.847   4.916
   37X2IT    N3 1165   3.998   0.796   4.658
   37X2IT   H15 1166   4.009   0.783   4.559
   37X2IT   H16 1167   4.077   0.828   4.714
   37X2IT    N2 1168   3.554   0.726   4.973
   37X2IT    C3 1169   3.410   0.747   4.950
   37X2IT    C2 1170   3.376   0.853   5.054
   37X2IT    H2 1171   3.273   0.866   5.086
   37X2IT    N1 1172   3.466   0.970   5.046
   37X2IT   H14 1173   3.421   1.051   5.091
   37X2IT    C1 1174   3.490   0.867   5.149
   37X2IT    H1 1175   3.476   0.889   5.254
   37X2IT   C11 1176   3.596   0.766   5.110
   37X2IT    O3 1177   3.579   0.660   5.203
   37X2IT   C15 1178   3.638   0.534   5.169
   38X2IT   H18 1179   1.170   3.969   2.234
   38X2IT    N4 1180   1.154   4.066   2.251
   38X2IT   H17 1181   1.073   4.108   2.208
   38X2IT   C14 1182   1.198   4.115   2.371
   38X2IT    O5 1183   1.277   4.059   2.445
   38X2IT    O4 1184   1.143   4.238   2.395
   38X2IT   C13 1185   1.185   4.304   2.516
   38X2IT   C10 1186   1.319   4.378   2.495
   38X2IT    C9 1187   1.363   4.455   2.618
   38X2IT    C4 1188   1.379   4.589   2.587
   38X2IT    C5 1189   1.422   4.693   2.686
   38X2IT    O1 1190   1.437   4.810   2.648
   38X2IT    C6 1191   1.444   4.648   2.821
   38X2IT   C12 1192   1.487   4.748   2.926
   38X2IT    C7 1193   1.429   4.514   2.852
   38X2IT    C8 1194   1.386   4.409   2.749
   38X2IT    O2 1195   1.372   4.292   2.789
   38X2IT    N3 1196   1.449   4.463   2.974
   38X2IT   H15 1197   1.476   4.519   3.053
   38X2IT   H16 1198   1.434   4.362   2.986
   38X2IT    N2 1199   1.359   4.613   2.455
   38X2IT    C3 1200   1.303   4.734   2.393
   38X2IT    C2 1201   1.181   4.679   2.320
   38X2IT    H2 1202   1.136   4.736   2.238
   38X2IT    N1 1203   1.094   4.598   2.409
   38X2IT   H14 1204   1.000   4.593   2.369
   38X2IT    C1 1205   1.188   4.531   2.317
   38X2IT    H1 1206   1.151   4.472   2.234
   38X2IT   C11 1207   1.318   4.489   2.384
   38X2IT    O3 1208   1.404   4.459   2.275
   38X2IT   C15 1209   1.545   4.454   2.303
   39X2IT   H18 1210  -0.443   0.488   1.119
   39X2IT    N4 1211  -0.386   0.543   1.058
   39X2IT   H17 1212  -0.403   0.643   1.057
   39X2IT   C14 1213  -0.260   0.496   1.035
   39X2IT    O5 1214  -0.221   0.383   1.058
   39X2IT    O4 1215  -0.184   0.594   0.976
   39X2IT   C13 1216  -0.050   0.557   0.940
   39X2IT   C10 1217  -0.047   0.486   0.803
   39X2IT    C9 1218   0.093   0.451   0.757
   39X2IT    C4 1219   0.120   0.511   0.635
   39X2IT    C5 1220   0.250   0.497   0.562
   39X2IT    O1 1221   0.264   0.551   0.451
   39X2IT    C6 1222   0.353   0.420   0.627
   39X2IT   C12 1223   0.487   0.403   0.559
   39X2IT    C7 1224   0.326   0.360   0.749
   39X2IT    C8 1225   0.193   0.374   0.822
   39X2IT    O2 1226   0.181   0.319   0.933
   39X2IT    N3 1227   0.415   0.285   0.816
   39X2IT   H15 1228   0.508   0.267   0.784
   39X2IT   H16 1229   0.385   0.247   0.907
   39X2IT    N2 1230   0.011   0.575   0.585
   39X2IT    C3 1231   0.009   0.697   0.503
   39X2IT    C2 1232  -0.072   0.793   0.590
   39X2IT    H2 1233  -0.120   0.880   0.544
   39X2IT    N1 1234  -0.019   0.802   0.728
   39X2IT   H14 1235  -0.051   0.889   0.771
   39X2IT    C1 1236  -0.137   0.717   0.700
   39X2IT    H1 1237  -0.234   0.743   0.740
   39X2IT   C11 1238  -0.102   0.570   0.682
   39X2IT    O3 1239  -0.218   0.514   0.624
   39X2IT   C15 1240  -0.205   0.387   0.560
   40X2IT   H18 1241   3.485   3.597  -0.487
   40X2IT    N4 1242   3.476   3.569  -0.391
   40X2IT   H17 1243   3.392   3.520  -0.365
   40X2IT   C14 1244   3.593   3.541  -0.325
   40X2IT    O5 1245   3.704   3.573  -0.363
   40X2IT    O4 1246   3.566   3.475  -0.209
   40X2IT   C13 1247   3.679   3.445  -0.125
   40X2IT   C10 1248   3.718   3.566  -0.038
   40X2IT    C9 1249   3.833   3.536   0.057
   40X2IT    C4 1250   3.794   3.558   0.187
   40X2IT    C5 1251   3.884   3.537   0.306
   40X2IT    O1 1252   3.841   3.563   0.420
   40X2IT    C6 1253   4.016   3.488   0.279
   40X2IT   C12 1254   4.112   3.465   0.394
   40X2IT    C7 1255   4.056   3.467   0.148
   40X2IT    C8 1256   3.963   3.489   0.028
   40X2IT    O2 1257   4.008   3.463  -0.085
   40X2IT    N3 1258   4.177   3.423   0.113
   40X2IT   H15 1259   4.250   3.402   0.179
   40X2IT   H16 1260   4.195   3.410   0.013
   40X2IT    N2 1261   3.668   3.608   0.195
   40X2IT    C3 1262   3.568   3.586   0.301
   40X2IT    C2 1263   3.453   3.523   0.224
   40X2IT    H2 1264   3.353   3.524   0.266
   40X2IT    N1 1265   3.497   3.407   0.142
   40X2IT   H14 1266   3.416   3.348   0.121
   40X2IT    C1 1267   3.477   3.538   0.078
   40X2IT    H1 1268   3.398   3.553   0.006
   40X2IT   C11 1269   3.606   3.617   0.060
   40X2IT    O3 1270   3.563   3.748   0.030
   40X2IT   C15 1271   3.658   3.854   0.046
   41X2IT   H18 1272   0.958   2.640   2.140
   41X2IT    N4 1273   0.928   2.609   2.231
   41X2IT   H17 1274   0.997   2.611   2.305
   41X2IT   C14 1275   0.796   2.630   2.262
   41X2IT    O5 1276   0.708   2.655   2.181
   41X2IT    O4 1277   0.777   2.613   2.396
   41X2IT   C13 1278   0.641   2.625   2.442
   41X2IT   C10 1279   0.563   2.493   2.424
   41X2IT    C9 1280   0.422   2.500   2.478
   41X2IT    C4 1281   0.403   2.402   2.574
   41X2IT    C5 1282   0.274   2.381   2.648
   41X2IT    O1 1283   0.265   2.288   2.730
   41X2IT    C6 1284   0.167   2.472   2.617
   41X2IT   C12 1285   0.034   2.457   2.689
   41X2IT    C7 1286   0.186   2.569   2.521
   41X2IT    C8 1287   0.317   2.589   2.445
   41X2IT    O2 1288   0.324   2.682   2.364
   41X2IT    N3 1289   0.091   2.657   2.484
   41X2IT   H15 1290  -0.001   2.660   2.525
   41X2IT   H16 1291   0.116   2.726   2.412
   41X2IT    N2 1292   0.512   2.322   2.587
   41X2IT    C3 1293   0.561   2.256   2.709
   41X2IT    C2 1294   0.701   2.315   2.724
   41X2IT    H2 1295   0.776   2.264   2.784
   41X2IT    N1 1296   0.700   2.463   2.719
   41X2IT   H14 1297   0.786   2.499   2.762
   41X2IT    C1 1298   0.738   2.386   2.598
   41X2IT    H1 1299   0.839   2.390   2.560
   41X2IT   C11 1300   0.623   2.369   2.500
   41X2IT    O3 1301   0.668   2.267   2.412
   41X2IT   C15 1302   0.569   2.201   2.332
   42X2IT   H18 1303   3.581   5.042   4.550
   42X2IT    N4 1304   3.608   4.981   4.625
   42X2IT   H17 1305   3.699   4.938   4.619
   42X2IT   C14 1306   3.556   5.008   4.748
   42X2IT    O5 1307   3.461   5.081   4.769
   42X2IT    O4 1308   3.623   4.938   4.844
   42X2IT   C13 1309   3.575   4.953   4.979
   42X2IT   C10 1310   3.456   4.858   5.006
   42X2IT    C9 1311   3.407   4.865   5.149
   42X2IT    C4 1312   3.414   4.740   5.208
   42X2IT    C5 1313   3.373   4.712   5.350
   42X2IT    O1 1314   3.379   4.596   5.393
   42X2IT    C6 1315   3.327   4.825   5.427
   42X2IT   C12 1316   3.285   4.804   5.571
   42X2IT    C7 1317   3.319   4.949   5.368
   42X2IT    C8 1318   3.360   4.976   5.223
   42X2IT    O2 1319   3.353   5.093   5.181
   42X2IT    N3 1320   3.276   5.060   5.431
   42X2IT   H15 1321   3.247   5.060   5.527
   42X2IT   H16 1322   3.276   5.147   5.378
   42X2IT    N2 1323   3.455   4.644   5.121
   42X2IT    C3 1324   3.535   4.524   5.149
   42X2IT    C2 1325   3.657   4.546   5.060
   42X2IT    H2 1326   3.719   4.461   5.032
   42X2IT    N1 1327   3.719   4.679   5.081
   42X2IT   H14 1328   3.816   4.676   5.048
   42X2IT    C1 1329   3.630   4.657   4.965
   42X2IT    H1 1330   3.669   4.659   4.864
   42X2IT   C11 1331   3.487   4.705   4.988
   42X2IT    O3 1332   3.413   4.645   4.883
   42X2IT   C15 1333   3.271   4.639   4.899
   43X2IT   H18 1334   4.380   3.923   1.240
   43X2IT    N4 1335   4.397   3.862   1.319
   43X2IT   H17 1336   4.480   3.805   1.315
   43X2IT   C14 1337   4.351   3.905   1.440
   43X2IT    O5 1338   4.269   3.994   1.456
   43X2IT    O4 1339   4.406   3.831   1.540
   43X2IT   C13 1340   4.361   3.861   1.674
   43X2IT   C10 1341   4.229   3.789   1.706
   43X2IT    C9 1342   4.182   3.812   1.848
   43X2IT    C4 1343   4.169   3.691   1.914
   43X2IT    C5 1344   4.125   3.678   2.057
   43X2IT    O1 1345   4.112   3.566   2.107
   43X2IT    C6 1346   4.099   3.801   2.128
   43X2IT   C12 1347   4.054   3.796   2.273
   43X2IT    C7 1348   4.111   3.922   2.061
   43X2IT    C8 1349   4.156   3.934   1.915
   43X2IT    O2 1350   4.168   4.047   1.867
   43X2IT    N3 1351   4.087   4.041   2.118
   43X2IT   H15 1352   4.059   4.052   2.214
   43X2IT   H16 1353   4.101   4.124   2.060
   43X2IT    N2 1354   4.193   3.585   1.833
   43X2IT    C3 1355   4.252   3.455   1.868
   43X2IT    C2 1356   4.376   3.451   1.778
   43X2IT    H2 1357   4.423   3.356   1.756
   43X2IT    N1 1358   4.459   3.573   1.792
   43X2IT   H14 1359   4.554   3.553   1.759
   43X2IT    C1 1360   4.367   3.559   1.677
   43X2IT    H1 1361   4.405   3.549   1.576
   43X2IT   C11 1362   4.234   3.632   1.697
   43X2IT    O3 1363   4.151   3.579   1.595
   43X2IT   C15 1364   4.009   3.598   1.611
   44SOL     OW 1365   0.230   0.628   0.113
   44SOL    HW1 1366   0.137   0.626   0.150
   44SOL    HW2 1367   0.231   0.589   0.021
   45SOL     OW 1368   0.569   1.275   1.165
   45SOL    HW1 1369   0.476   1.268   1.128
   45SOL    HW2 1370   0.580   1.364   1.209
   46SOL     OW 1371   1.555   1.511   0.703
   46SOL    HW1 1372   1.498   1.495   0.784
   46SOL    HW2 1373   1.496   1.521   0.623
   47SOL     OW 1374   1.135   0.703   0.717
   47SOL    HW1 1375   1.192   0.781   0.692
   47SOL    HW2 1376   1.075   0.729   0.793
   48SOL     OW 1377   1.755   0.607   0.231
   48SOL    HW1 1378   1.743   0.594   0.132
   48SOL    HW2 1379   1.725   0.526   0.280
   49SOL     OW 1380   0.768   1.144   1.023
   49SOL    HW1 1381   0.690   1.161   1.083
   49SOL    HW2 1382   0.802   1.231   0.987
   50SOL     OW 1383   0.850   0.798   1.823
   50SOL    HW1 1384   0.846   0.874   1.888
   50SOL    HW2 1385   0.872   0.834   1.732
   51SOL     OW 1386   0.685   1.012   0.665
   51SOL    HW1 1387   0.754   0.996   0.735
   51SOL    HW2 1388   0.612   1.069   0.703
   52SOL     OW 1389   0.686   1.161   1.803
   52SOL    HW1 1390   0.746   1.240   1.817
   52SOL    HW2 1391   0.600   1.192   1.762
   53SOL     OW 1392   0.335   1.435   1.061
   53SOL    HW1 1393   0.257   1.404   1.008
   53SOL    HW2 1394   0.393   1.493   1.004
   54SOL     OW 1395   1.460   1.505   1.339
   54SOL    HW1 1396   1.484   1.599   1.365
   54SOL    HW2 1397   1.444   1.451   1.421
   55SOL     OW 1398   0.438   0.392   1.499
   55SOL    HW1 1399   0.520   0.336   1.508
   55SOL    HW2 1400   0.357   0.334   1.503
   56SOL     OW 1401   1.603   0.447   0.737
   56SOL    HW1 1402   1.529   0.493   0.687
   56SOL    HW2 1403   1.654   0.515   0.790
   57SOL     OW 1404   0.231   1.713   0.483
   57SOL    HW1 1405   0.265   1.790   0.537
   57SOL    HW2 1406   0.275   1.713   0.393
   58SOL     OW 1407   1.127   1.341   1.690
   58SOL    HW1 1408   1.174   1.341   1.778
   58SOL    HW2 1409   1.079   1.254   1.679
   59SOL     OW 1410   0.230   1.434   0.538
   59SOL    HW1 1411   0.204   1.530   0.538
   59SOL    HW2 1412   0.159   1.380   0.583
   60SOL     OW 1413   0.240   1.091   0.886
   60SOL    HW1 1414   0.254   1.007   0.938
   60SOL    HW2 1415   0.185   1.155   0.941
   61SOL     OW 1416   0.620   1.786   1.439
   61SOL    HW1 1417   0.528   1.769   1.474
   61SOL    HW2 1418   0.648   1.878   1.465
   62SOL     OW 1419   0.606   0.964   0.123
   62SOL    HW1 1420   0.613   1.048   0.069
   62SOL    HW2 1421   0.652   0.977   0.211
   63SOL     OW 1422   1.594   0.114   1.480
   63SOL    HW1 1423   1.576   0.181   1.408
   63SOL    HW2 1424   1.591   0.160   1.569
   64SOL     OW 1425   1.842   1.767   0.359
   64SOL    HW1 1426   1.896   1.738   0.439
   64SOL    HW2 1427   1.872   1.857   0.330
   65SOL     OW 1428   0.027   1.596   0.117
   65SOL    HW1 1429   0.008   1.500   0.138
   65SOL    HW2 1430  -0.006   1.654   0.192
   66SOL     OW 1431   1.689   0.922   0.612
   66SOL    HW1 1432   1.784   0.893   0.620
   66SOL    HW2 1433   1.681   0.987   0.537
   67SOL     OW 1434   1.641   1.108   0.432
   67SOL    HW1 1435   1.727   1.110   0.380
   67SOL    HW2 1436   1.655   1.155   0.520
   68SOL     OW 1437   0.113   0.737   1.597
   68SOL    HW1 1438   0.201   0.724   1.642
   68SOL    HW2 1439   0.100   0.834   1.575
   69SOL     OW 1440   0.613   1.365   0.726
   69SOL    HW1 1441   0.564   1.278   0.735
   69SOL    HW2 1442   0.590   1.408   0.639
   70SOL     OW 1443   1.293   1.228   1.423
   70SOL    HW1 1444   1.330   1.155   1.365
   70SOL    HW2 1445   1.345   1.233   1.508
   71SOL     OW 1446   0.197   0.976   1.264
   71SOL    HW1 1447   0.286   0.931   1.250
   71SOL    HW2 1448   0.124   0.911   1.245
   72SOL     OW 1449   1.525   0.999   0.190
   72SOL    HW1 1450   1.462   0.923   0.203
   72SOL    HW2 1451   1.573   1.017   0.276
   73SOL     OW 1452   1.187   1.792   1.616
   73SOL    HW1 1453   1.211   1.852   1.540
   73SOL    HW2 1454   1.194   1.697   1.586
   74SOL     OW 1455   0.317   0.251   1.801
   74SOL    HW1 1456   0.388   0.322   1.807
   74SOL    HW2 1457   0.229   0.290   1.829
   75SOL     OW 1458   1.466   1.417   0.953
   75SOL    HW1 1459   1.407   1.423   1.033
   75SOL    HW2 1460   1.451   1.329   0.907
   76SOL     OW 1461   1.667   1.714   0.572
   76SOL    HW1 1462   1.626   1.691   0.484
   76SOL    HW2 1463   1.649   1.640   0.637
   77SOL     OW 1464   0.598   0.729   0.270
   77SOL    HW1 1465   0.622   0.798   0.202
   77SOL    HW2 1466   0.520   0.762   0.324
   78SOL     OW 1467   1.281   0.345   0.944
   78SOL    HW1 1468   1.195   0.295   0.931
   78SOL    HW2 1469   1.343   0.291   1.000
   79SOL     OW 1470   1.576   1.662   0.307
   79SOL    HW1 1471   1.665   1.708   0.310
   79SOL    HW2 1472   1.555   1.638   0.212
   80SOL     OW 1473   0.807   0.605   1.465
   80SOL    HW1 1474   0.760   0.602   1.554
   80SOL    HW2 1475   0.756   0.550   1.399
   81SOL     OW 1476   1.394   0.469   1.674
   81SOL    HW1 1477   1.374   0.512   1.762
   81SOL    HW2 1478   1.472   0.407   1.683
   82SOL     OW 1479   0.973   0.890   1.572
   82SOL    HW1 1480   1.019   0.806   1.543
   82SOL    HW2 1481   0.917   0.924   1.497
   83SOL     OW 1482   0.991   0.410   1.242
   83SOL    HW1 1483   0.914   0.444   1.296
   83SOL    HW2 1484   0.957   0.359   1.163
   84SOL     OW 1485   1.041   0.701   0.429
   84SOL    HW1 1486   1.067   0.697   0.525
   84SOL    HW2 1487   0.956   0.650   0.415
   85SOL     OW 1488   0.130   1.821   1.571
   85SOL    HW1 1489   0.120   1.806   1.670
   85SOL    HW2 1490   0.044   1.857   1.535
   86SOL     OW 1491   0.865   0.348   0.195
   86SOL    HW1 1492   0.924   0.411   0.146
   86SOL    HW2 1493   0.884   0.254   0.166
   87SOL     OW 1494   1.719   0.585   1.831
   87SOL    HW1 1495   1.693   0.674   1.795
   87SOL    HW2 1496   1.717   0.517   1.758
   88SOL     OW 1497   1.362   1.144   0.545
   88SOL    HW1 1498   1.445   1.115   0.497
   88SOL    HW2 1499   1.313   1.211   0.489
   89SOL     OW 1500   1.008   1.456   0.477
   89SOL    HW1 1501   0.962   1.528   0.425
   89SOL    HW2 1502   1.004   1.476   0.575
   90SOL     OW 1503   0.351   1.801   0.853
   90SOL    HW1 1504   0.401   1.715   0.859
   90SOL    HW2 1505   0.416   1.878   0.850
   91SOL     OW 1506   1.795   1.066   0.873
   91SOL    HW1 1507   1.733   1.051   0.797
   91SOL    HW2 1508   1.743   1.077   0.958
   92SOL     OW 1509   1.227   1.550   1.506
   92SOL    HW1 1510   1.233   1.473   1.570
   92SOL    HW2 1511   1.175   1.524   1.426
   93SOL     OW 1512   0.321   0.943   0.242
   93SOL    HW1 1513   0.403   0.982   0.200
   93SOL    HW2 1514   0.294   0.861   0.193
   94SOL     OW 1515   1.458   0.735   0.728
   94SOL    HW1 1516   1.453   0.670   0.803
   94SOL    HW2 1517   1.538   0.794   0.741
   95SOL     OW 1518   0.461   1.266   1.727
   95SOL    HW1 1519   0.411   1.267   1.641
   95SOL    HW2 1520   0.398   1.248   1.803
   96SOL     OW 1521   1.111   1.776   0.237
   96SOL    HW1 1522   1.051   1.714   0.287
   96SOL    HW2 1523   1.142   1.732   0.152
   97SOL     OW 1524   0.202   0.285   1.498
   97SOL    HW1 1525   0.122   0.345   1.485
   97SOL    HW2 1526   0.192   0.236   1.584
   98SOL     OW 1527   1.632   1.377   0.081
   98SOL    HW1 1528   1.600   1.471   0.071
   98SOL    HW2 1529   1.556   1.314   0.069
   99SOL     OW 1530   0.464   1.743   0.323
   99SOL    HW1 1531   0.497   1.782   0.409
   99SOL    HW2 1532   0.540   1.736   0.258
  100SOL     OW 1533   1.400   0.107   0.426
  100SOL    HW1 1534   1.376   0.070   0.336
  100SOL    HW2 1535   1.499   0.123   0.430
  101SOL     OW 1536   0.249   1.785   1.241
  101SOL    HW1 1537   0.306   1.720   1.291
  101SOL    HW2 1538   0.233   1.752   1.148
  102SOL     OW 1539   0.940   1.698   0.904
  102SOL    HW1 1540   1.020   1.641   0.925
  102SOL    HW2 1541   0.891   1.658   0.827
  103SOL     OW 1542   1.547   0.222   1.729
  103SOL    HW1 1543   1.542   0.259   1.821
  103SOL    HW2 1544   1.475   0.153   1.717
  104SOL     OW 1545   0.614   0.122   0.117
  104SOL    HW1 1546   0.712   0.100   0.124
  104SOL    HW2 1547   0.583   0.105   0.024
  105SOL     OW 1548   0.781   0.264   1.749
  105SOL    HW1 1549   0.848   0.203   1.792
  105SOL    HW2 1550   0.708   0.283   1.814
  106SOL     OW 1551   0.888   1.514   1.195
  106SOL    HW1 1552   0.865   1.489   1.101
  106SOL    HW2 1553   0.949   1.445   1.234
  107SOL     OW 1554   1.351   0.590   1.433
  107SOL    HW1 1555   1.379   0.547   1.518
  107SOL    HW2 1556   1.376   0.686   1.434
  108SOL     OW 1557   0.803   1.402   0.924
  108SOL    HW1 1558   0.893   1.416   0.882
  108SOL    HW2 1559   0.732   1.404   0.853
  109SOL     OW 1560   0.922   0.503   0.899
  109SOL    HW1 1561   0.897   0.494   0.803
  109SOL    HW2 1562   0.970   0.421   0.930
  110SOL     OW 1563   0.539   0.064   0.512
  110SOL    HW1 1564   0.458   0.065   0.570
  110SOL    HW2 1565   0.542   0.147   0.457
  111SOL     OW 1566   1.434   1.188   0.041
  111SOL    HW1 1567   1.466   1.112   0.098
  111SOL    HW2 1568   1.342   1.215   0.071
  112SOL     OW 1569   0.297   0.035   0.171
  112SOL    HW1 1570   0.346   0.119   0.150
  112SOL    HW2 1571   0.359  -0.030   0.216
  113SOL     OW 1572   0.935   0.236   0.480
  113SOL    HW1 1573   0.887   0.277   0.402
  113SOL    HW2 1574   1.034   0.234   0.461
  114SOL     OW 1575   1.076   0.683   1.464
  114SOL    HW1 1576   0.996   0.622   1.467
  114SOL    HW2 1577   1.157   0.630   1.440
  115SOL     OW 1578   1.227   1.570   0.793
  115SOL    HW1 1579   1.248   1.644   0.728
  115SOL    HW2 1580   1.295   1.570   0.866
  116SOL     OW 1581   0.459   1.152   0.741
  116SOL    HW1 1582   0.388   1.125   0.806
  116SOL    HW2 1583   0.433   1.124   0.648
  117SOL     OW 1584   1.032   0.549   0.016
  117SOL    HW1 1585   0.991   0.631  -0.023
  117SOL    HW2 1586   1.096   0.575   0.089
  118SOL     OW 1587   0.078   0.556   1.386
  118SOL    HW1 1588   0.170   0.555   1.345
  118SOL    HW2 1589   0.072   0.630   1.453
  119SOL     OW 1590   0.561   0.222   1.147
  119SOL    HW1 1591   0.599   0.138   1.184
  119SOL    HW2 1592   0.473   0.241   1.191
  120SOL     OW 1593   0.866   0.454   0.642
  120SOL    HW1 1594   0.834   0.526   0.580
  120SOL    HW2 1595   0.890   0.373   0.589
  121SOL     OW 1596   1.017   0.039   0.753
  121SOL    HW1 1597   0.945   0.044   0.684
  121SOL    HW2 1598   0.993  -0.030   0.822
  122SOL     OW 1599   1.429   1.173   0.867
  122SOL    HW1 1600   1.374   1.089   0.860
  122SOL    HW2 1601   1.455   1.202   0.775
  123SOL     OW 1602   1.466   0.590   0.992
  123SOL    HW1 1603   1.436   0.495   0.999
  123SOL    HW2 1604   1.539   0.606   1.058
  124SOL     OW 1605   1.857   0.833   0.377
  124SOL    HW1 1606   1.899   0.769   0.441
  124SOL    HW2 1607   1.819   0.782   0.299
  125SOL     OW 1608   0.488   1.385   0.174
  125SOL    HW1 1609   0.401   1.370   0.221
  125SOL    HW2 1610   0.471   1.411   0.079
  126SOL     OW 1611   1.664   1.280   0.657
  126SOL    HW1 1612   1.763   1.288   0.671
  126SOL    HW2 1613   1.619   1.364   0.688
  127SOL     OW 1614   1.390   0.575   0.078
  127SOL    HW1 1615   1.336   0.554   0.159
  127SOL    HW2 1616   1.481   0.534   0.087
  128SOL     OW 1617   0.527   0.256   0.328
  128SOL    HW1 1618   0.554   0.197   0.253
  128SOL    HW2 1619   0.527   0.351   0.297
  129SOL     OW 1620   1.754   1.223   1.588
  129SOL    HW1 1621   1.845   1.184   1.575
  129SOL    HW2 1622   1.762   1.319   1.612
  130SOL     OW 1623   1.064   1.347   1.340
  130SOL    HW1 1624   0.984   1.324   1.395
  130SOL    HW2 1625   1.147   1.321   1.389
  131SOL     OW 1626   1.592   1.629   1.625
  131SOL    HW1 1627   1.619   1.663   1.535
  131SOL    HW2 1628   1.671   1.591   1.671
  132SOL     OW 1629   1.111   1.195   1.100
  132SOL    HW1 1630   1.071   1.239   1.181
  132SOL    HW2 1631   1.070   1.232   1.017
  133SOL     OW 1632   1.638   1.099   1.079
  133SOL    HW1 1633   1.643   1.180   1.138
  133SOL    HW2 1634   1.552   1.101   1.028
  134SOL     OW 1635   0.915   0.089   1.402
  134SOL    HW1 1636   0.940   0.069   1.307
  134SOL    HW2 1637   0.987   0.145   1.444
  135SOL     OW 1638   0.980   1.116   1.719
  135SOL    HW1 1639   0.881   1.122   1.729
  135SOL    HW2 1640   1.003   1.036   1.663
  136SOL     OW 1641   0.705   1.050   0.368
  136SOL    HW1 1642   0.691   1.057   0.467
  136SOL    HW2 1643   0.789   0.999   0.350
  137SOL     OW 1644   0.410   0.813   1.251
  137SOL    HW1 1645   0.496   0.825   1.301
  137SOL    HW2 1646   0.368   0.726   1.278
  138SOL     OW 1647   1.274   0.386   1.262
  138SOL    HW1 1648   1.295   0.460   1.326
  138SOL    HW2 1649   1.185   0.403   1.219
  139SOL     OW 1650   0.064   1.564   1.331
  139SOL    HW1 1651   0.018   1.646   1.297
  139SOL    HW2 1652   0.162   1.583   1.340
  140SOL     OW 1653   0.367   1.100   0.501
  140SOL    HW1 1654   0.360   1.183   0.445
  140SOL    HW2 1655   0.371   1.020   0.441
  141SOL     OW 1656   0.566   0.537   0.865
  141SOL    HW1 1657   0.578   0.603   0.791
  141SOL    HW2 1658   0.612   0.571   0.948
  142SOL     OW 1659   1.252   1.348   0.388
  142SOL    HW1 1660   1.302   1.425   0.428
  142SOL    HW2 1661   1.157   1.350   0.420
  143SOL     OW 1662   1.272   1.445   1.142
  143SOL    HW1 1663   1.319   1.458   1.229
  143SOL    HW2 1664   1.206   1.371   1.151
  144SOL     OW 1665   1.582   0.639   0.472
  144SOL    HW1 1666   1.551   0.700   0.545
  144SOL    HW2 1667   1.632   0.691   0.403
  145SOL     OW 1668   0.354   1.510   1.329
  145SOL    HW1 1669   0.333   1.466   1.242
  145SOL    HW2 1670   0.451   1.536   1.332
  146SOL     OW 1671   0.402   0.751   1.598
  146SOL    HW1 1672   0.470   0.806   1.551
  146SOL    HW2 1673   0.442   0.663   1.625
  147SOL     OW 1674   1.587   0.779   1.670
  147SOL    HW1 1675   1.495   0.817   1.665
  147SOL    HW2 1676   1.647   0.826   1.605
  148SOL     OW 1677   1.013   0.105   1.770
  148SOL    HW1 1678   1.019   0.190   1.718
  148SOL    HW2 1679   1.045   0.029   1.713
  149SOL     OW 1680   0.504   0.050   1.740
  149SOL    HW1 1681   0.462  -0.007   1.670
  149SOL    HW2 1682   0.438   0.119   1.772
  150SOL     OW 1683   0.573   0.870   1.029
  150SOL    HW1 1684   0.617   0.959   1.020
  150SOL    HW2 1685   0.510   0.870   1.106
  151SOL     OW 1686   1.360   0.862   1.045
  151SOL    HW1 1687   1.285   0.862   0.979
  151SOL    HW2 1688   1.397   0.770   1.054
  152SOL     OW 1689   1.209   0.525   0.275
  152SOL    HW1 1690   1.222   0.441   0.329
  152SOL    HW2 1691   1.180   0.599   0.335
  153SOL     OW 1692   0.307   0.213   1.231
  153SOL    HW1 1693   0.284   0.250   1.321
  153SOL    HW2 1694   0.277   0.118   1.225
  154SOL     OW 1695   0.037   1.310   1.282
  154SOL    HW1 1696   0.090   1.261   1.350
  154SOL    HW2 1697   0.059   1.408   1.287
  155SOL     OW 1698   0.732   0.634   1.064
  155SOL    HW1 1699   0.791   0.608   0.988
  155SOL    HW2 1700   0.704   0.730   1.053
  156SOL     OW 1701   1.728   0.935   1.854
  156SOL    HW1 1702   1.682   0.928   1.765
  156SOL    HW2 1703   1.666   0.979   1.920
  157SOL     OW 1704   0.307   0.063   0.618
  157SOL    HW1 1705   0.296   0.157   0.651
  157SOL    HW2 1706   0.302   0.000   0.695
  158SOL     OW 1707   1.622   0.367   0.374
  158SOL    HW1 1708   1.624   0.291   0.438
  158SOL    HW2 1709   1.574   0.444   0.414
  159SOL     OW 1710   1.023   0.766   0.966
  159SOL    HW1 1711   1.038   0.787   1.062
  159SOL    HW2 1712   0.993   0.671   0.957
  160SOL     OW 1713   0.980   1.573   1.700
  160SOL    HW1 1714   0.960   1.617   1.612
  160SOL    HW2 1715   1.019   1.482   1.684
  161SOL     OW 1716   1.859   1.518   1.605
  161SOL    HW1 1717   1.873   1.545   1.510
  161SOL    HW2 1718   1.942   1.540   1.658
  162SOL     OW 1719   0.350   0.898   1.804
  162SOL    HW1 1720   0.426   0.942   1.852
  162SOL    HW2 1721   0.385   0.851   1.722
  163SOL     OW 1722   1.540   0.274   0.125
  163SOL    HW1 1723   1.479   0.199   0.148
  163SOL    HW2 1724   1.562   0.326   0.208
  164SOL     OW 1725   1.303   0.838   0.042
  164SOL    HW1 1726   1.337   0.745   0.057
  164SOL    HW2 1727   1.321   0.865  -0.053
  165SOL     OW 1728   1.068   1.333   0.849
  165SOL    HW1 1729   1.075   1.249   0.794
  165SOL    HW2 1730   1.130   1.402   0.813
  166SOL     OW 1731   0.319   0.810   0.949
  166SOL    HW1 1732   0.412   0.846   0.954
  166SOL    HW2 1733   0.313   0.725   1.001
  167SOL     OW 1734   0.339   0.509   1.006
  167SOL    HW1 1735   0.287   0.426   0.989
  167SOL    HW2 1736   0.416   0.514   0.942
  168SOL     OW 1737   1.138   0.380   1.678
  168SOL    HW1 1738   1.093   0.443   1.742
  168SOL    HW2 1739   1.231   0.411   1.661
  169SOL     OW 1740   1.160   0.207   1.477
  169SOL    HW1 1741   1.160   0.271   1.554
  169SOL    HW2 1742   1.188   0.255   1.394
  170SOL     OW 1743   0.008   1.326   0.200
  170SOL    HW1 1744  -0.085   1.347   0.169
  170SOL    HW2 1745   0.018   1.227   0.213
  171SOL     OW 1746   0.088   1.801   0.927
  171SOL    HW1 1747   0.046   1.715   0.900
  171SOL    HW2 1748   0.182   1.804   0.893
  172SOL     OW 1749   0.504   1.568   0.910
  172SOL    HW1 1750   0.570   1.642   0.919
  172SOL    HW2 1751   0.548   1.489   0.868
  173SOL     OW 1752   1.002   0.796   1.238
  173SOL    HW1 1753   1.043   0.764   1.324
  173SOL    HW2 1754   0.906   0.769   1.235
  174SOL     OW 1755   0.040   0.544   1.114
  174SOL    HW1 1756   0.125   0.511   1.073
  174SOL    HW2 1757   0.053   0.559   1.212
  175SOL     OW 1758   0.189   0.520   1.722
  175SOL    HW1 1759   0.248   0.480   1.652
  175SOL    HW2 1760   0.131   0.591   1.681
  176SOL     OW 1761   1.369   0.950   1.660
  176SOL    HW1 1762   1.408   1.039   1.680
  176SOL    HW2 1763   1.379   0.930   1.563
  177SOL     OW 1764   0.815   0.572   0.325
  177SOL    HW1 1765   0.822   0.483   0.279
  177SOL    HW2 1766   0.721   0.606   0.317
  178SOL     OW 1767   1.657   0.604   1.206
  178SOL    HW1 1768   1.619   0.535   1.268
  178SOL    HW2 1769   1.739   0.568   1.162
  179SOL     OW 1770   0.252   1.564   1.744
  179SOL    HW1 1771   0.222   1.621   1.820
  179SOL    HW2 1772   0.245   1.467   1.770
  180SOL     OW 1773   0.671   0.464   1.269
  180SOL    HW1 1774   0.637   0.375   1.239
  180SOL    HW2 1775   0.697   0.518   1.189
  181SOL     OW 1776   0.930   1.678   1.465
  181SOL    HW1 1777   0.906   1.660   1.370
  181SOL    HW2 1778   0.960   1.772   1.475
  182SOL     OW 1779   0.473   0.500   0.191
  182SOL    HW1 1780   0.534   0.580   0.195
  182SOL    HW2 1781   0.378   0.531   0.198
  183SOL     OW 1782   0.159   1.137   1.466
  183SOL    HW1 1783   0.181   1.076   1.542
  183SOL    HW2 1784   0.169   1.088   1.380
  184SOL     OW 1785   1.347   1.059   1.234
  184SOL    HW1 1786   1.371   0.996   1.160
  184SOL    HW2 1787   1.257   1.099   1.216
  185SOL     OW 1788   1.302   0.855   0.309
  185SOL    HW1 1789   1.216   0.824   0.351
  185SOL    HW2 1790   1.298   0.841   0.210
  186SOL     OW 1791   1.759   1.747   1.154
  186SOL    HW1 1792   1.820   1.777   1.081
  186SOL    HW2 1793   1.721   1.658   1.132
  187SOL     OW 1794   1.252   1.731   1.128
  187SOL    HW1 1795   1.336   1.736   1.074
  187SOL    HW2 1796   1.229   1.635   1.146
  188SOL     OW 1797   0.083   1.258   1.022
  188SOL    HW1 1798   0.078   1.257   1.122
  188SOL    HW2 1799   0.000   1.217   0.984
  189SOL     OW 1800   0.688   1.662   1.716
  189SOL    HW1 1801   0.632   1.743   1.725
  189SOL    HW2 1802   0.740   1.666   1.630
  190SOL     OW 1803   0.903   0.086   0.133
  190SOL    HW1 1804   0.954   0.087   0.047
  190SOL    HW2 1805   0.959   0.044   0.204
  191SOL     OW 1806   1.726   0.135   0.523
  191SOL    HW1 1807   1.799   0.118   0.456
  191SOL    HW2 1808   1.695   0.048   0.561
  192SOL     OW 1809   1.388   1.573   0.477
  192SOL    HW1 1810   1.455   1.585   0.403
  192SOL    HW2 1811   1.348   1.662   0.500
  193SOL     OW 1812   1.280   0.927   0.672
  193SOL    HW1 1813   1.340   0.846   0.674
  193SOL    HW2 1814   1.320   0.996   0.612
  194SOL     OW 1815   0.830   1.273   1.422
  194SOL    HW1 1816   0.825   1.306   1.517
  194SOL    HW2 1817   0.744   1.292   1.376
  195SOL     OW 1818   1.650   1.720   1.394
  195SOL    HW1 1819   1.703   1.730   1.310
  195SOL    HW2 1820   1.623   1.810   1.428
  196SOL     OW 1821   1.841   0.175   0.963
  196SOL    HW1 1822   1.880   0.090   0.927
  196SOL    HW2 1823   1.743   0.177   0.944
  197SOL     OW 1824   0.822   1.002   1.372
  197SOL    HW1 1825   0.862   1.001   1.280
  197SOL    HW2 1826   0.832   1.094   1.412
  198SOL     OW 1827   0.916   0.910   0.291
  198SOL    HW1 1828   0.979   0.948   0.223
  198SOL    HW2 1829   0.956   0.827   0.330
  199SOL     OW 1830   1.504   1.607   0.044
  199SOL    HW1 1831   1.412   1.644   0.051
  199SOL    HW2 1832   1.542   1.627  -0.046
  200SOL     OW 1833   0.372   1.288   1.490
  200SOL    HW1 1834   0.359   1.381   1.456
  200SOL    HW2 1835   0.288   1.236   1.477
  201SOL     OW 1836   1.614   1.292   1.289
  201SOL    HW1 1837   1.674   1.295   1.369
  201SOL    HW2 1838   1.539   1.356   1.302
  202SOL     OW 1839   1.039   1.098   0.696
  202SOL    HW1 1840   0.969   1.051   0.750
  202SOL    HW2 1841   1.098   1.030   0.653
  203SOL     OW 1842   1.014   0.236   0.971
  203SOL    HW1 1843   1.006   0.200   0.878
  203SOL    HW2 1844   1.012   0.160   1.036
  204SOL     OW 1845   0.590   1.487   0.491
  204SOL    HW1 1846   0.632   1.429   0.421
  204SOL    HW2 1847   0.546   1.566   0.447
  205SOL     OW 1848   1.709   0.385   1.381
  205SOL    HW1 1849   1.782   0.454   1.385
  205SOL    HW2 1850   1.737   0.310   1.322
  206SOL     OW 1851   0.255   1.348   0.290
  206SOL    HW1 1852   0.159   1.349   0.263
  206SOL    HW2 1853   0.267   1.401   0.374
  207SOL     OW 1854   0.105   1.013   1.726
  207SOL    HW1 1855   0.028   0.980   1.780
  207SOL    HW2 1856   0.190   0.983   1.768
  208SOL     OW 1857   0.672   0.203   1.489
  208SOL    HW1 1858   0.762   0.187   1.449
  208SOL    HW2 1859   0.680   0.208   1.588
  209SOL     OW 1860   0.075   0.345   0.033
  209SOL    HW1 1861  -0.017   0.317   0.004
  209SOL    HW2 1862   0.106   0.422  -0.023
  210SOL     OW 1863   1.440   0.856   1.398
  210SOL    HW1 1864   1.383   0.908   1.335
  210SOL    HW2 1865   1.536   0.868   1.374
  211SOL     OW 1866   0.072   0.166   0.318
  211SOL    HW1 1867   0.055   0.249   0.264
  211SOL    HW2 1868   0.162   0.129   0.296
  212SOL     OW 1869   0.613   0.842   1.431
  212SOL    HW1 1870   0.669   0.923   1.414
  212SOL    HW2 1871   0.672   0.762   1.434
  213SOL     OW 1872   1.493   1.767   0.959
  213SOL    HW1 1873   1.526   1.831   0.890
  213SOL    HW2 1874   1.559   1.761   1.034
  214SOL     OW 1875   0.716   0.565   1.708
  214SOL    HW1 1876   0.735   0.630   1.782
  214SOL    HW2 1877   0.776   0.485   1.717
  215SOL     OW 1878   1.450   1.220   1.633
  215SOL    HW1 1879   1.441   1.210   1.732
  215SOL    HW2 1880   1.546   1.213   1.607
  216SOL     OW 1881   0.390   1.741   1.560
  216SOL    HW1 1882   0.299   1.782   1.558
  216SOL    HW2 1883   0.383   1.647   1.592
  217SOL     OW 1884   1.674   0.883   1.254
  217SOL    HW1 1885   1.647   0.794   1.217
  217SOL    HW2 1886   1.675   0.951   1.181
  218SOL     OW 1887   1.225   0.325   0.449
  218SOL    HW1 1888   1.290   0.251   0.438
  218SOL    HW2 1889   1.245   0.375   0.533
  219SOL     OW 1890   0.594   0.745   0.652
  219SOL    HW1 1891   0.644   0.830   0.633
  219SOL    HW2 1892   0.506   0.747   0.604
  220SOL     OW 1893   1.777   0.342   1.642
  220SOL    HW1 1894   1.760   0.373   1.548
  220SOL    HW2 1895   1.693   0.305   1.680
  221SOL     OW 1896   1.730   0.934   1.517
  221SOL    HW1 1897   1.768   1.025   1.532
  221SOL    HW2 1898   1.722   0.917   1.418
  222SOL     OW 1899   0.661   1.790   0.953
  222SOL    HW1 1900   0.615   1.878   0.940
  222SOL    HW2 1901   0.760   1.802   0.946
  223SOL     OW 1902   0.859   0.956   0.861
  223SOL    HW1 1903   0.913   0.887   0.909
  223SOL    HW2 1904   0.827   1.025   0.927
  224SOL     OW 1905   1.083   0.984   0.087
  224SOL    HW1 1906   1.060   1.037   0.005
  224SOL    HW2 1907   1.164   0.928   0.068
  225SOL     OW 1908   1.861   1.569   0.851
  225SOL    HW1 1909   1.790   1.557   0.781
  225SOL    HW2 1910   1.862   1.490   0.911
  226SOL     OW 1911   0.221   1.314   1.844
  226SOL    HW1 1912   0.156   1.241   1.823
  226SOL    HW2 1913   0.225   1.328   1.942
  227SOL     OW 1914   0.079   1.240   0.653
  227SOL    HW1 1915   0.078   1.193   0.741
  227SOL    HW2 1916   0.161   1.212   0.602
  228SOL     OW 1917   0.672   1.391   1.624
  228SOL    HW1 1918   0.594   1.341   1.662
  228SOL    HW2 1919   0.669   1.486   1.655
  229SOL     OW 1920   1.824   0.192   1.227
  229SOL    HW1 1921   1.820   0.102   1.271
  229SOL    HW2 1922   1.827   0.181   1.128
  230SOL     OW 1923   1.705   1.487   1.104
  230SOL    HW1 1924   1.612   1.462   1.077
  230SOL    HW2 1925   1.731   1.437   1.186
  231SOL     OW 1926   0.317   0.547   1.280
  231SOL    HW1 1927   0.355   0.488   1.352
  231SOL    HW2 1928   0.357   0.521   1.192
  232SOL     OW 1929   0.812   1.586   0.687
  232SOL    HW1 1930   0.844   1.596   0.593
  232SOL    HW2 1931   0.733   1.524   0.689
  233SOL     OW 1932   1.424   0.214   1.112
  233SOL    HW1 1933   1.476   0.149   1.167
  233SOL    HW2 1934   1.375   0.277   1.173
  234SOL     OW 1935   1.001   0.034   1.154
  234SOL    HW1 1936   0.938  -0.038   1.123
  234SOL    HW2 1937   1.094  -0.002   1.154
  235SOL     OW 1938   0.618   1.567   1.284
  235SOL    HW1 1939   0.613   1.649   1.341
  235SOL    HW2 1940   0.707   1.564   1.239
  236SOL     OW 1941   1.352   0.052   0.168
  236SOL    HW1 1942   1.387   0.011   0.084
  236SOL    HW2 1943   1.262   0.014   0.188
  237SOL     OW 1944   1.300   0.453   0.691
  237SOL    HW1 1945   1.241   0.533   0.695
  237SOL    HW2 1946   1.315   0.418   0.784
  238SOL     OW 1947   1.593   0.221   0.882
  238SOL    HW1 1948   1.509   0.220   0.936
  238SOL    HW2 1949   1.595   0.304   0.826
  239SOL     OW 1950   0.039   1.077   0.300
  239SOL    HW1 1951   0.138   1.066   0.291
  239SOL    HW2 1952  -0.001   0.991   0.332
  240SOL     OW 1953   0.230   0.628   1.975
  240SOL    HW1 1954   0.137   0.626   2.012
  240SOL    HW2 1955   0.231   0.589   1.883
  241SOL     OW 1956   0.019   0.368   2.509
  241SOL    HW1 1957  -0.063   0.411   2.548
  241SOL    HW2 1958  -0.009   0.295   2.446
  242SOL     OW 1959   0.569   1.275   3.027
  242SOL    HW1 1960   0.476   1.268   2.990
  242SOL    HW2 1961   0.580   1.364   3.071
  243SOL     OW 1962   1.555   1.511   2.565
  243SOL    HW1 1963   1.498   1.495   2.646
  243SOL    HW2 1964   1.496   1.521   2.485
  244SOL     OW 1965   1.135   0.703   2.579
  244SOL    HW1 1966   1.192   0.781   2.554
  244SOL    HW2 1967   1.075   0.729   2.655
  245SOL     OW 1968   1.755   0.607   2.093
  245SOL    HW1 1969   1.743   0.594   1.994
  245SOL    HW2 1970   1.725   0.526   2.142
  246SOL     OW 1971   0.768   1.144   2.885
  246SOL    HW1 1972   0.690   1.161   2.945
  246SOL    HW2 1973   0.802   1.231   2.849
  247SOL     OW 1974   0.850   0.798   3.685
  247SOL    HW1 1975   0.846   0.874   3.750
  247SOL    HW2 1976   0.872   0.834   3.594
  248SOL     OW 1977   0.685   1.012   2.527
  248SOL    HW1 1978   0.754   0.996   2.597
  248SOL    HW2 1979   0.612   1.069   2.565
  249SOL     OW 1980   0.686   1.161   3.665
  249SOL    HW1 1981   0.746   1.240   3.679
  249SOL    HW2 1982   0.600   1.192   3.624
  250SOL     OW 1983   0.335   1.435   2.923
  250SOL    HW1 1984   0.257   1.404   2.870
  250SOL    HW2 1985   0.393   1.493   2.866
  251SOL     OW 1986   1.460   1.505   3.201
  251SOL    HW1 1987   1.484   1.599   3.227
  251SOL    HW2 1988   1.444   1.451   3.283
  252SOL     OW 1989   0.438   0.392   3.361
  252SOL    HW1 1990   0.520   0.336   3.370
  252SOL    HW2 1991   0.357   0.334   3.365
  253SOL     OW 1992   1.603   0.447   2.599
  253SOL    HW1 1993   1.529   0.493   2.549
  253SOL    HW2 1994   1.654   0.515   2.652
  254SOL     OW 1995   0.231   1.713   2.345
  254SOL    HW1 1996   0.265   1.790   2.399
  254SOL    HW2 1997   0.275   1.713   2.255
  255SOL     OW 1998   1.127   1.341   3.552
  255SOL    HW1 1999   1.174   1.341   3.640
  255SOL    HW2 2000   1.079   1.254   3.541
  256SOL     OW 2001   0.230   1.434   2.400
  256SOL    HW1 2002   0.204   1.530   2.400
  256SOL    HW2 2003   0.159   1.380   2.445
  257SOL     OW 2004   0.240   1.091   2.748
  257SOL    HW1 2005   0.254   1.007   2.800
  257SOL    HW2 2006   0.185   1.155   2.803
  258SOL     OW 2007   0.620   1.786   3.301
  258SOL    HW1 2008   0.528   1.769   3.336
  258SOL    HW2 2009   0.648   1.878   3.327
  259SOL     OW 2010   0.606   0.964   1.985
  259SOL    HW1 2011   0.613   1.048   1.931
  259SOL    HW2 2012   0.652   0.977   2.073
  260SOL     OW 2013   1.594   0.114   3.342
  260SOL    HW1 2014   1.576   0.181   3.270
  260SOL    HW2 2015   1.591   0.160   3.431
  261SOL     OW 2016   0.122   0.643   2.425
  261SOL    HW1 2017   0.077   0.555   2.442
  261SOL    HW2 2018   0.121   0.697   2.509
  262SOL     OW 2019   1.842   1.767   2.221
  262SOL    HW1 2020   1.896   1.738   2.301
  262SOL    HW2 2021   1.872   1.857   2.192
  263SOL     OW 2022   1.689   0.922   2.474
  263SOL    HW1 2023   1.784   0.893   2.482
  263SOL    HW2 2024   1.681   0.987   2.399
  264SOL     OW 2025   1.641   1.108   2.294
  264SOL    HW1 2026   1.727   1.110   2.242
  264SOL    HW2 2027   1.655   1.155   2.382
  265SOL     OW 2028   0.113   0.737   3.459
  265SOL    HW1 2029   0.201   0.724   3.504
  265SOL    HW2 2030   0.100   0.834   3.437
  266SOL     OW 2031   0.613   1.365   2.588
  266SOL    HW1 2032   0.564   1.278   2.597
  266SOL    HW2 2033   0.590   1.408   2.501
  267SOL     OW 2034   1.293   1.228   3.285
  267SOL    HW1 2035   1.330   1.155   3.227
  267SOL    HW2 2036   1.345   1.233   3.370
  268SOL     OW 2037   0.809   0.004   2.364
  268SOL    HW1 2038   0.849   0.095   2.355
  268SOL    HW2 2039   0.709   0.012   2.370
  269SOL     OW 2040   0.197   0.976   3.126
  269SOL    HW1 2041   0.286   0.931   3.112
  269SOL    HW2 2042   0.124   0.911   3.107
  270SOL     OW 2043   1.525   0.999   2.052
  270SOL    HW1 2044   1.462   0.923   2.065
  270SOL    HW2 2045   1.573   1.017   2.138
  271SOL     OW 2046   1.187   1.792   3.478
  271SOL    HW1 2047   1.211   1.852   3.402
  271SOL    HW2 2048   1.194   1.697   3.448
  272SOL     OW 2049   0.317   0.251   3.663
  272SOL    HW1 2050   0.388   0.322   3.669
  272SOL    HW2 2051   0.229   0.290   3.691
  273SOL     OW 2052   1.466   1.417   2.815
  273SOL    HW1 2053   1.407   1.423   2.895
  273SOL    HW2 2054   1.451   1.329   2.769
  274SOL     OW 2055   1.667   1.714   2.434
  274SOL    HW1 2056   1.626   1.691   2.346
  274SOL    HW2 2057   1.649   1.640   2.499
  275SOL     OW 2058   0.598   0.729   2.132
  275SOL    HW1 2059   0.622   0.798   2.064
  275SOL    HW2 2060   0.520   0.762   2.186
  276SOL     OW 2061   1.281   0.345   2.806
  276SOL    HW1 2062   1.195   0.295   2.793
  276SOL    HW2 2063   1.343   0.291   2.862
  277SOL     OW 2064   1.576   1.662   2.169
  277SOL    HW1 2065   1.665   1.708   2.172
  277SOL    HW2 2066   1.555   1.638   2.074
  278SOL     OW 2067   0.807   0.605   3.327
  278SOL    HW1 2068   0.760   0.602   3.416
  278SOL    HW2 2069   0.756   0.550   3.261
  279SOL     OW 2070   1.394   0.469   3.536
  279SOL    HW1 2071   1.374   0.512   3.624
  279SOL    HW2 2072   1.472   0.407   3.545
  280SOL     OW 2073   0.973   0.890   3.434
  280SOL    HW1 2074   1.019   0.806   3.405
  280SOL    HW2 2075   0.917   0.924   3.359
  281SOL     OW 2076   0.991   0.410   3.104
  281SOL    HW1 2077   0.914   0.444   3.158
  281SOL    HW2 2078   0.957   0.359   3.025
  282SOL     OW 2079   1.041   0.701   2.291
  282SOL    HW1 2080   1.067   0.697   2.387
  282SOL    HW2 2081   0.956   0.650   2.277
  283SOL     OW 2082   0.076   0.811   2.651
  283SOL    HW1 2083   0.175   0.799   2.660
  283SOL    HW2 2084   0.052   0.906   2.672
  284SOL     OW 2085   0.130   1.821   3.433
  284SOL    HW1 2086   0.120   1.806   3.532
  284SOL    HW2 2087   0.044   1.857   3.397
  285SOL     OW 2088   0.865   0.348   2.057
  285SOL    HW1 2089   0.924   0.411   2.008
  285SOL    HW2 2090   0.884   0.254   2.028
  286SOL     OW 2091   1.719   0.585   3.693
  286SOL    HW1 2092   1.693   0.674   3.657
  286SOL    HW2 2093   1.717   0.517   3.620
  287SOL     OW 2094   1.362   1.144   2.407
  287SOL    HW1 2095   1.445   1.115   2.359
  287SOL    HW2 2096   1.313   1.211   2.351
  288SOL     OW 2097   1.008   1.456   2.339
  288SOL    HW1 2098   0.962   1.528   2.287
  288SOL    HW2 2099   1.004   1.476   2.437
  289SOL     OW 2100   0.351   1.801   2.715
  289SOL    HW1 2101   0.401   1.715   2.721
  289SOL    HW2 2102   0.416   1.878   2.712
  290SOL     OW 2103   1.227   1.550   3.368
  290SOL    HW1 2104   1.233   1.473   3.432
  290SOL    HW2 2105   1.175   1.524   3.288
  291SOL     OW 2106   0.321   0.943   2.104
  291SOL    HW1 2107   0.403   0.982   2.062
  291SOL    HW2 2108   0.294   0.861   2.055
  292SOL     OW 2109   1.458   0.735   2.590
  292SOL    HW1 2110   1.453   0.670   2.665
  292SOL    HW2 2111   1.538   0.794   2.603
  293SOL     OW 2112   0.461   1.266   3.589
  293SOL    HW1 2113   0.411   1.267   3.503
  293SOL    HW2 2114   0.398   1.248   3.665
  294SOL     OW 2115   1.111   1.776   2.099
  294SOL    HW1 2116   1.051   1.714   2.149
  294SOL    HW2 2117   1.142   1.732   2.014
  295SOL     OW 2118   0.202   0.285   3.360
  295SOL    HW1 2119   0.122   0.345   3.347
  295SOL    HW2 2120   0.192   0.236   3.446
  296SOL     OW 2121   1.632   1.377   1.943
  296SOL    HW1 2122   1.600   1.471   1.933
  296SOL    HW2 2123   1.556   1.314   1.931
  297SOL     OW 2124   0.464   1.743   2.185
  297SOL    HW1 2125   0.497   1.782   2.271
  297SOL    HW2 2126   0.540   1.736   2.120
  298SOL     OW 2127   1.400   0.107   2.288
  298SOL    HW1 2128   1.376   0.070   2.198
  298SOL    HW2 2129   1.499   0.123   2.292
  299SOL     OW 2130   0.249   1.785   3.103
  299SOL    HW1 2131   0.306   1.720   3.153
  299SOL    HW2 2132   0.233   1.752   3.010
  300SOL     OW 2133   0.940   1.698   2.766
  300SOL    HW1 2134   1.020   1.641   2.787
  300SOL    HW2 2135   0.891   1.658   2.689
  301SOL     OW 2136   0.382   0.700   2.342
  301SOL    HW1 2137   0.427   0.610   2.339
  301SOL    HW2 2138   0.288   0.689   2.375
  302SOL     OW 2139   1.547   0.222   3.591
  302SOL    HW1 2140   1.542   0.259   3.683
  302SOL    HW2 2141   1.475   0.153   3.579
  303SOL     OW 2142   0.614   0.122   1.979
  303SOL    HW1 2143   0.712   0.100   1.986
  303SOL    HW2 2144   0.583   0.105   1.886
  304SOL     OW 2145   0.781   0.264   3.611
  304SOL    HW1 2146   0.848   0.203   3.654
  304SOL    HW2 2147   0.708   0.283   3.676
  305SOL     OW 2148   0.888   1.514   3.057
  305SOL    HW1 2149   0.865   1.489   2.963
  305SOL    HW2 2150   0.949   1.445   3.096
  306SOL     OW 2151   1.351   0.590   3.295
  306SOL    HW1 2152   1.379   0.547   3.380
  306SOL    HW2 2153   1.376   0.686   3.296
  307SOL     OW 2154   0.803   1.402   2.786
  307SOL    HW1 2155   0.893   1.416   2.744
  307SOL    HW2 2156   0.732   1.404   2.715
  308SOL     OW 2157   0.922   0.503   2.761
  308SOL    HW1 2158   0.897   0.494   2.665
  308SOL    HW2 2159   0.970   0.421   2.792
  309SOL     OW 2160   1.434   1.188   1.903
  309SOL    HW1 2161   1.466   1.112   1.960
  309SOL    HW2 2162   1.342   1.215   1.933
  310SOL     OW 2163   0.297   0.035   2.033
  310SOL    HW1 2164   0.346   0.119   2.012
  310SOL    HW2 2165   0.359  -0.030   2.078
  311SOL     OW 2166   0.935   0.236   2.342
  311SOL    HW1 2167   0.887   0.277   2.264
  311SOL    HW2 2168   1.034   0.234   2.323
  312SOL     OW 2169   1.076   0.683   3.326
  312SOL    HW1 2170   0.996   0.622   3.329
  312SOL    HW2 2171   1.157   0.630   3.302
  313SOL     OW 2172   1.227   1.570   2.655
  313SOL    HW1 2173   1.248   1.644   2.590
  313SOL    HW2 2174   1.295   1.570   2.728
  314SOL     OW 2175   0.459   1.152   2.603
  314SOL    HW1 2176   0.388   1.125   2.668
  314SOL    HW2 2177   0.433   1.124   2.510
  315SOL     OW 2178   1.271   1.797   2.453
  315SOL    HW1 2179   1.315   1.861   2.389
  315SOL    HW2 2180   1.221   1.849   2.523
  316SOL     OW 2181   1.032   0.549   1.878
  316SOL    HW1 2182   0.991   0.631   1.839
  316SOL    HW2 2183   1.096   0.575   1.951
  317SOL     OW 2184   0.078   0.556   3.248
  317SOL    HW1 2185   0.170   0.555   3.207
  317SOL    HW2 2186   0.072   0.630   3.315
  318SOL     OW 2187   1.429   1.173   2.729
  318SOL    HW1 2188   1.374   1.089   2.722
  318SOL    HW2 2189   1.455   1.202   2.637
  319SOL     OW 2190   1.466   0.590   2.854
  319SOL    HW1 2191   1.436   0.495   2.861
  319SOL    HW2 2192   1.539   0.606   2.920
  320SOL     OW 2193   1.857   0.833   2.239
  320SOL    HW1 2194   1.899   0.769   2.303
  320SOL    HW2 2195   1.819   0.782   2.161
  321SOL     OW 2196   0.488   1.385   2.036
  321SOL    HW1 2197   0.401   1.370   2.083
  321SOL    HW2 2198   0.471   1.411   1.941
  322SOL     OW 2199   1.664   1.280   2.519
  322SOL    HW1 2200   1.763   1.288   2.533
  322SOL    HW2 2201   1.619   1.364   2.550
  323SOL     OW 2202   1.390   0.575   1.940
  323SOL    HW1 2203   1.336   0.554   2.021
  323SOL    HW2 2204   1.481   0.534   1.949
  324SOL     OW 2205   0.527   0.256   2.190
  324SOL    HW1 2206   0.554   0.197   2.115
  324SOL    HW2 2207   0.527   0.351   2.159
  325SOL     OW 2208   1.064   1.347   3.202
  325SOL    HW1 2209   0.984   1.324   3.257
  325SOL    HW2 2210   1.147   1.321   3.251
  326SOL     OW 2211   1.592   1.629   3.487
  326SOL    HW1 2212   1.619   1.663   3.397
  326SOL    HW2 2213   1.671   1.591   3.533
  327SOL     OW 2214   1.111   1.195   2.962
  327SOL    HW1 2215   1.071   1.239   3.043
  327SOL    HW2 2216   1.070   1.232   2.879
  328SOL     OW 2217   0.915   0.089   3.264
  328SOL    HW1 2218   0.940   0.069   3.169
  328SOL    HW2 2219   0.987   0.145   3.306
  329SOL     OW 2220   0.980   1.116   3.581
  329SOL    HW1 2221   0.881   1.122   3.591
  329SOL    HW2 2222   1.003   1.036   3.525
  330SOL     OW 2223   0.705   1.050   2.230
  330SOL    HW1 2224   0.691   1.057   2.329
  330SOL    HW2 2225   0.789   0.999   2.212
  331SOL     OW 2226   0.410   0.813   3.113
  331SOL    HW1 2227   0.496   0.825   3.163
  331SOL    HW2 2228   0.368   0.726   3.140
  332SOL     OW 2229   1.274   0.386   3.124
  332SOL    HW1 2230   1.295   0.460   3.188
  332SOL    HW2 2231   1.185   0.403   3.081
  333SOL     OW 2232   0.064   1.564   3.193
  333SOL    HW1 2233   0.018   1.646   3.159
  333SOL    HW2 2234   0.162   1.583   3.202
  334SOL     OW 2235   0.367   1.100   2.363
  334SOL    HW1 2236   0.360   1.183   2.307
  334SOL    HW2 2237   0.371   1.020   2.303
  335SOL     OW 2238   1.252   1.348   2.250
  335SOL    HW1 2239   1.302   1.425   2.290
  335SOL    HW2 2240   1.157   1.350   2.282
  336SOL     OW 2241   1.272   1.445   3.004
  336SOL    HW1 2242   1.319   1.458   3.091
  336SOL    HW2 2243   1.206   1.371   3.013
  337SOL     OW 2244   1.582   0.639   2.334
  337SOL    HW1 2245   1.551   0.700   2.407
  337SOL    HW2 2246   1.632   0.691   2.265
  338SOL     OW 2247   0.354   1.510   3.191
  338SOL    HW1 2248   0.333   1.466   3.104
  338SOL    HW2 2249   0.451   1.536   3.194
  339SOL     OW 2250   0.402   0.751   3.460
  339SOL    HW1 2251   0.470   0.806   3.413
  339SOL    HW2 2252   0.442   0.663   3.487
  340SOL     OW 2253   1.013   0.105   3.632
  340SOL    HW1 2254   1.019   0.190   3.580
  340SOL    HW2 2255   1.045   0.029   3.575
  341SOL     OW 2256   0.504   0.050   3.602
  341SOL    HW1 2257   0.462  -0.007   3.532
  341SOL    HW2 2258   0.438   0.119   3.634
  342SOL     OW 2259   0.573   0.870   2.891
  342SOL    HW1 2260   0.617   0.959   2.882
  342SOL    HW2 2261   0.510   0.870   2.968
  343SOL     OW 2262   1.360   0.862   2.907
  343SOL    HW1 2263   1.285   0.862   2.841
  343SOL    HW2 2264   1.397   0.770   2.916
  344SOL     OW 2265   1.209   0.525   2.137
  344SOL    HW1 2266   1.222   0.441   2.191
  344SOL    HW2 2267   1.180   0.599   2.197
  345SOL     OW 2268   0.307   0.213   3.093
  345SOL    HW1 2269   0.284   0.250   3.183
  345SOL    HW2 2270   0.277   0.118   3.087
  346SOL     OW 2271   0.037   1.310   3.144
  346SOL    HW1 2272   0.090   1.261   3.212
  346SOL    HW2 2273   0.059   1.408   3.149
  347SOL     OW 2274   0.732   0.634   2.926
  347SOL    HW1 2275   0.791   0.608   2.850
  347SOL    HW2 2276   0.704   0.730   2.915
  348SOL     OW 2277   1.622   0.367   2.236
  348SOL    HW1 2278   1.624   0.291   2.300
  348SOL    HW2 2279   1.574   0.444   2.276
  349SOL     OW 2280   1.023   0.766   2.828
  349SOL    HW1 2281   1.038   0.787   2.924
  349SOL    HW2 2282   0.993   0.671   2.819
  350SOL     OW 2283   0.980   1.573   3.562
  350SOL    HW1 2284   0.960   1.617   3.474
  350SOL    HW2 2285   1.019   1.482   3.546
  351SOL     OW 2286   1.859   1.518   3.467
  351SOL    HW1 2287   1.873   1.545   3.372
  351SOL    HW2 2288   1.942   1.540   3.520
  352SOL     OW 2289   0.350   0.898   3.666
  352SOL    HW1 2290   0.426   0.942   3.714
  352SOL    HW2 2291   0.385   0.851   3.584
  353SOL     OW 2292   1.540   0.274   1.987
  353SOL    HW1 2293   1.479   0.199   2.010
  353SOL    HW2 2294   1.562   0.326   2.070
  354SOL     OW 2295   1.303   0.838   1.904
  354SOL    HW1 2296   1.337   0.745   1.919
  354SOL    HW2 2297   1.321   0.865   1.809
  355SOL     OW 2298   1.068   1.333   2.711
  355SOL    HW1 2299   1.075   1.249   2.656
  355SOL    HW2 2300   1.130   1.402   2.675
  356SOL     OW 2301   0.319   0.810   2.811
  356SOL    HW1 2302   0.412   0.846   2.816
  356SOL    HW2 2303   0.313   0.725   2.863
  357SOL     OW 2304   1.138   0.380   3.540
  357SOL    HW1 2305   1.093   0.443   3.604
  357SOL    HW2 2306   1.231   0.411   3.523
  358SOL     OW 2307   1.160   0.207   3.339
  358SOL    HW1 2308   1.160   0.271   3.416
  358SOL    HW2 2309   1.188   0.255   3.256
  359SOL     OW 2310   0.008   1.326   2.062
  359SOL    HW1 2311  -0.085   1.347   2.031
  359SOL    HW2 2312   0.018   1.227   2.075
  360SOL     OW 2313   0.088   1.801   2.789
  360SOL    HW1 2314   0.046   1.715   2.762
  360SOL    HW2 2315   0.182   1.804   2.755
  361SOL     OW 2316   0.504   1.568   2.772
  361SOL    HW1 2317   0.570   1.642   2.781
  361SOL    HW2 2318   0.548   1.489   2.730
  362SOL     OW 2319   1.002   0.796   3.100
  362SOL    HW1 2320   1.043   0.764   3.186
  362SOL    HW2 2321   0.906   0.769   3.097
  363SOL     OW 2322   0.040   0.544   2.976
  363SOL    HW1 2323   0.125   0.511   2.935
  363SOL    HW2 2324   0.053   0.559   3.074
  364SOL     OW 2325   0.189   0.520   3.584
  364SOL    HW1 2326   0.248   0.480   3.514
  364SOL    HW2 2327   0.131   0.591   3.543
  365SOL     OW 2328   1.369   0.950   3.522
  365SOL    HW1 2329   1.408   1.039   3.542
  365SOL    HW2 2330   1.379   0.930   3.425
  366SOL     OW 2331   0.815   0.572   2.187
  366SOL    HW1 2332   0.822   0.483   2.141
  366SOL    HW2 2333   0.721   0.606   2.179
  367SOL     OW 2334   1.657   0.604   3.068
  367SOL    HW1 2335   1.619   0.535   3.130
  367SOL    HW2 2336   1.739   0.568   3.024
  368SOL     OW 2337   0.252   1.564   3.606
  368SOL    HW1 2338   0.222   1.621   3.682
  368SOL    HW2 2339   0.245   1.467   3.632
  369SOL     OW 2340   0.671   0.464   3.131
  369SOL    HW1 2341   0.637   0.375   3.101
  369SOL    HW2 2342   0.697   0.518   3.051
  370SOL     OW 2343   0.930   1.678   3.327
  370SOL    HW1 2344   0.906   1.660   3.232
  370SOL    HW2 2345   0.960   1.772   3.337
  371SOL     OW 2346   0.473   0.500   2.053
  371SOL    HW1 2347   0.534   0.580   2.057
  371SOL    HW2 2348   0.378   0.531   2.060
  372SOL     OW 2349   0.159   1.137   3.328
  372SOL    HW1 2350   0.181   1.076   3.404
  372SOL    HW2 2351   0.169   1.088   3.242
  373SOL     OW 2352   1.347   1.059   3.096
  373SOL    HW1 2353   1.371   0.996   3.022
  373SOL    HW2 2354   1.257   1.099   3.078
  374SOL     OW 2355   1.302   0.855   2.171
  374SOL    HW1 2356   1.216   0.824   2.213
  374SOL    HW2 2357   1.298   0.841   2.072
  375SOL     OW 2358   1.759   1.747   3.016
  375SOL    HW1 2359   1.820   1.777   2.943
  375SOL    HW2 2360   1.721   1.658   2.994
  376SOL     OW 2361   1.252   1.731   2.990
  376SOL    HW1 2362   1.336   1.736   2.936
  376SOL    HW2 2363   1.229   1.635   3.008
  377SOL     OW 2364   0.083   1.258   2.884
  377SOL    HW1 2365   0.078   1.257   2.984
  377SOL    HW2 2366   0.000   1.217   2.846
  378SOL     OW 2367   0.688   1.662   3.578
  378SOL    HW1 2368   0.632   1.743   3.587
  378SOL    HW2 2369   0.740   1.666   3.492
  379SOL     OW 2370   1.726   0.135   2.385
  379SOL    HW1 2371   1.799   0.118   2.318
  379SOL    HW2 2372   1.695   0.048   2.423
  380SOL     OW 2373   1.388   1.573   2.339
  380SOL    HW1 2374   1.455   1.585   2.265
  380SOL    HW2 2375   1.348   1.662   2.362
  381SOL     OW 2376   0.130   1.794   3.713
  381SOL    HW1 2377   0.089   1.720   3.766
  381SOL    HW2 2378   0.194   1.845   3.771
  382SOL     OW 2379   1.280   0.927   2.534
  382SOL    HW1 2380   1.340   0.846   2.536
  382SOL    HW2 2381   1.320   0.996   2.474
  383SOL     OW 2382   0.830   1.273   3.284
  383SOL    HW1 2383   0.825   1.306   3.379
  383SOL    HW2 2384   0.744   1.292   3.238
  384SOL     OW 2385   0.672   1.616   2.016
  384SOL    HW1 2386   0.681   1.626   1.917
  384SOL    HW2 2387   0.632   1.527   2.037
  385SOL     OW 2388   1.650   1.720   3.256
  385SOL    HW1 2389   1.703   1.730   3.172
  385SOL    HW2 2390   1.623   1.810   3.290
  386SOL     OW 2391   1.841   0.175   2.825
  386SOL    HW1 2392   1.880   0.090   2.789
  386SOL    HW2 2393   1.743   0.177   2.806
  387SOL     OW 2394   1.194   1.612   1.893
  387SOL    HW1 2395   1.200   1.519   1.930
  387SOL    HW2 2396   1.135   1.612   1.813
  388SOL     OW 2397   0.822   1.002   3.234
  388SOL    HW1 2398   0.862   1.001   3.142
  388SOL    HW2 2399   0.832   1.094   3.274
  389SOL     OW 2400   0.916   0.910   2.153
  389SOL    HW1 2401   0.979   0.948   2.085
  389SOL    HW2 2402   0.956   0.827   2.192
  390SOL     OW 2403   1.504   1.607   1.906
  390SOL    HW1 2404   1.412   1.644   1.913
  390SOL    HW2 2405   1.542   1.627   1.816
  391SOL     OW 2406   0.372   1.288   3.352
  391SOL    HW1 2407   0.359   1.381   3.318
  391SOL    HW2 2408   0.288   1.236   3.339
  392SOL     OW 2409   1.614   1.292   3.151
  392SOL    HW1 2410   1.674   1.295   3.231
  392SOL    HW2 2411   1.539   1.356   3.164
  393SOL     OW 2412   1.039   1.098   2.558
  393SOL    HW1 2413   0.969   1.051   2.612
  393SOL    HW2 2414   1.098   1.030   2.515
  394SOL     OW 2415   0.590   1.487   2.353
  394SOL    HW1 2416   0.632   1.429   2.283
  394SOL    HW2 2417   0.546   1.566   2.309
  395SOL     OW 2418   1.709   0.385   3.243
  395SOL    HW1 2419   1.782   0.454   3.247
  395SOL    HW2 2420   1.737   0.310   3.184
  396SOL     OW 2421   0.255   1.348   2.152
  396SOL    HW1 2422   0.159   1.349   2.125
  396SOL    HW2 2423   0.267   1.401   2.236
  397SOL     OW 2424   0.105   1.013   3.588
  397SOL    HW1 2425   0.028   0.980   3.642
  397SOL    HW2 2426   0.190   0.983   3.630
  398SOL     OW 2427   0.672   0.203   3.351
  398SOL    HW1 2428   0.762   0.187   3.311
  398SOL    HW2 2429   0.680   0.208   3.450
  399SOL     OW 2430   0.075   0.345   1.895
  399SOL    HW1 2431  -0.017   0.317   1.866
  399SOL    HW2 2432   0.106   0.422   1.839
  400SOL     OW 2433   1.440   0.856   3.260
  400SOL    HW1 2434   1.383   0.908   3.197
  400SOL    HW2 2435   1.536   0.868   3.236
  401SOL     OW 2436   0.072   0.166   2.180
  401SOL    HW1 2437   0.055   0.249   2.126
  401SOL    HW2 2438   0.162   0.129   2.158
  402SOL     OW 2439   1.183   1.335   1.981
  402SOL    HW1 2440   1.084   1.324   1.983
  402SOL    HW2 2441   1.217   1.350   2.074
  403SOL     OW 2442   0.613   0.842   3.293
  403SOL    HW1 2443   0.669   0.923   3.276
  403SOL    HW2 2444   0.672   0.762   3.296
  404SOL     OW 2445   1.493   1.767   2.821
  404SOL    HW1 2446   1.526   1.831   2.752
  404SOL    HW2 2447   1.559   1.761   2.896
  405SOL     OW 2448   0.716   0.565   3.570
  405SOL    HW1 2449   0.735   0.630   3.644
  405SOL    HW2 2450   0.776   0.485   3.579
  406SOL     OW 2451   1.450   1.220   3.495
  406SOL    HW1 2452   1.441   1.210   3.594
  406SOL    HW2 2453   1.546   1.213   3.469
  407SOL     OW 2454   0.390   1.741   3.422
  407SOL    HW1 2455   0.299   1.782   3.420
  407SOL    HW2 2456   0.383   1.647   3.454
  408SOL     OW 2457   1.225   0.325   2.311
  408SOL    HW1 2458   1.290   0.251   2.300
  408SOL    HW2 2459   1.245   0.375   2.395
  409SOL     OW 2460   1.777   0.342   3.504
  409SOL    HW1 2461   1.760   0.373   3.410
  409SOL    HW2 2462   1.693   0.305   3.542
  410SOL     OW 2463   0.859   1.374   1.878
  410SOL    HW1 2464   0.813   1.389   1.966
  410SOL    HW2 2465   0.903   1.459   1.848
  411SOL     OW 2466   0.661   1.790   2.815
  411SOL    HW1 2467   0.615   1.878   2.802
  411SOL    HW2 2468   0.760   1.802   2.808
  412SOL     OW 2469   0.859   0.956   2.723
  412SOL    HW1 2470   0.913   0.887   2.771
  412SOL    HW2 2471   0.827   1.025   2.789
  413SOL     OW 2472   1.083   0.984   1.949
  413SOL    HW1 2473   1.060   1.037   1.867
  413SOL    HW2 2474   1.164   0.928   1.930
  414SOL     OW 2475   1.861   1.569   2.713
  414SOL    HW1 2476   1.790   1.557   2.643
  414SOL    HW2 2477   1.862   1.490   2.773
  415SOL     OW 2478   0.221   1.314   3.706
  415SOL    HW1 2479   0.156   1.241   3.685
  415SOL    HW2 2480   0.225   1.328   3.804
  416SOL     OW 2481   0.079   1.240   2.515
  416SOL    HW1 2482   0.078   1.193   2.603
  416SOL    HW2 2483   0.161   1.212   2.464
  417SOL     OW 2484   0.672   1.391   3.486
  417SOL    HW1 2485   0.594   1.341   3.524
  417SOL    HW2 2486   0.669   1.486   3.517
  418SOL     OW 2487   1.824   0.192   3.089
  418SOL    HW1 2488   1.820   0.102   3.133
  418SOL    HW2 2489   1.827   0.181   2.990
  419SOL     OW 2490   1.705   1.487   2.966
  419SOL    HW1 2491   1.612   1.462   2.939
  419SOL    HW2 2492   1.731   1.437   3.048
  420SOL     OW 2493   0.317   0.547   3.142
  420SOL    HW1 2494   0.355   0.488   3.214
  420SOL    HW2 2495   0.357   0.521   3.054
  421SOL     OW 2496   0.812   1.586   2.549
  421SOL    HW1 2497   0.844   1.596   2.455
  421SOL    HW2 2498   0.733   1.524   2.551
  422SOL     OW 2499   1.424   0.214   2.974
  422SOL    HW1 2500   1.476   0.149   3.029
  422SOL    HW2 2501   1.375   0.277   3.035
  423SOL     OW 2502   0.770   1.330   2.163
  423SOL    HW1 2503   0.724   1.243   2.180
  423SOL    HW2 2504   0.861   1.327   2.204
  424SOL     OW 2505   0.618   1.567   3.146
  424SOL    HW1 2506   0.613   1.649   3.203
  424SOL    HW2 2507   0.707   1.564   3.101
  425SOL     OW 2508   1.352   0.052   2.030
  425SOL    HW1 2509   1.387   0.011   1.946
  425SOL    HW2 2510   1.262   0.014   2.050
  426SOL     OW 2511   1.300   0.453   2.553
  426SOL    HW1 2512   1.241   0.533   2.557
  426SOL    HW2 2513   1.315   0.418   2.646
  427SOL     OW 2514   1.593   0.221   2.744
  427SOL    HW1 2515   1.509   0.220   2.798
  427SOL    HW2 2516   1.595   0.304   2.688
  428SOL     OW 2517   0.039   1.077   2.162
  428SOL    HW1 2518   0.138   1.066   2.153
  428SOL    HW2 2519  -0.001   0.991   2.194
  429SOL     OW 2520   0.875   1.646   2.199
  429SOL    HW1 2521   0.798   1.611   2.145
  429SOL    HW2 2522   0.843   1.717   2.261
  430SOL     OW 2523   0.230   0.628   3.837
  430SOL    HW1 2524   0.137   0.626   3.874
  430SOL    HW2 2525   0.231   0.589   3.745
  431SOL     OW 2526   0.225   0.275   4.720
  431SOL    HW1 2527   0.260   0.258   4.812
  431SOL    HW2 2528   0.137   0.230   4.708
  432SOL     OW 2529   0.019   0.368   4.371
  432SOL    HW1 2530  -0.063   0.411   4.410
  432SOL    HW2 2531  -0.009   0.295   4.308
  433SOL     OW 2532   0.569   1.275   4.889
  433SOL    HW1 2533   0.476   1.268   4.852
  433SOL    HW2 2534   0.580   1.364   4.933
  434SOL     OW 2535   1.555   1.511   4.427
  434SOL    HW1 2536   1.498   1.495   4.508
  434SOL    HW2 2537   1.496   1.521   4.347
  435SOL     OW 2538   1.135   0.703   4.441
  435SOL    HW1 2539   1.192   0.781   4.416
  435SOL    HW2 2540   1.075   0.729   4.517
  436SOL     OW 2541   1.755   0.607   3.955
  436SOL    HW1 2542   1.743   0.594   3.856
  436SOL    HW2 2543   1.725   0.526   4.004
  437SOL     OW 2544   0.768   1.144   4.747
  437SOL    HW1 2545   0.690   1.161   4.807
  437SOL    HW2 2546   0.802   1.231   4.711
  438SOL     OW 2547   0.685   1.012   4.389
  438SOL    HW1 2548   0.754   0.996   4.459
  438SOL    HW2 2549   0.612   1.069   4.427
  439SOL     OW 2550   0.335   1.435   4.785
  439SOL    HW1 2551   0.257   1.404   4.732
  439SOL    HW2 2552   0.393   1.493   4.728
  440SOL     OW 2553   1.603   0.447   4.461
  440SOL    HW1 2554   1.529   0.493   4.411
  440SOL    HW2 2555   1.654   0.515   4.514
  441SOL     OW 2556   0.231   1.713   4.207
  441SOL    HW1 2557   0.265   1.790   4.261
  441SOL    HW2 2558   0.275   1.713   4.117
  442SOL     OW 2559   0.230   1.434   4.262
  442SOL    HW1 2560   0.204   1.530   4.262
  442SOL    HW2 2561   0.159   1.380   4.307
  443SOL     OW 2562   0.240   1.091   4.610
  443SOL    HW1 2563   0.254   1.007   4.662
  443SOL    HW2 2564   0.185   1.155   4.665
  444SOL     OW 2565   0.620   1.786   5.163
  444SOL    HW1 2566   0.528   1.769   5.198
  444SOL    HW2 2567   0.648   1.878   5.189
  445SOL     OW 2568   0.606   0.964   3.847
  445SOL    HW1 2569   0.613   1.048   3.793
  445SOL    HW2 2570   0.652   0.977   3.935
  446SOL     OW 2571   0.122   0.643   4.287
  446SOL    HW1 2572   0.077   0.555   4.304
  446SOL    HW2 2573   0.121   0.697   4.371
  447SOL     OW 2574   1.842   1.767   4.083
  447SOL    HW1 2575   1.896   1.738   4.163
  447SOL    HW2 2576   1.872   1.857   4.054
  448SOL     OW 2577   0.027   1.596   3.841
  448SOL    HW1 2578   0.008   1.500   3.862
  448SOL    HW2 2579  -0.006   1.654   3.916
  449SOL     OW 2580   1.689   0.922   4.336
  449SOL    HW1 2581   1.784   0.893   4.344
  449SOL    HW2 2582   1.681   0.987   4.261
  450SOL     OW 2583   1.641   1.108   4.156
  450SOL    HW1 2584   1.727   1.110   4.104
  450SOL    HW2 2585   1.655   1.155   4.244
  451SOL     OW 2586   0.613   1.365   4.450
  451SOL    HW1 2587   0.564   1.278   4.459
  451SOL    HW2 2588   0.590   1.408   4.363
  452SOL     OW 2589   0.809   0.004   4.226
  452SOL    HW1 2590   0.849   0.095   4.217
  452SOL    HW2 2591   0.709   0.012   4.232
  453SOL     OW 2592   0.197   0.976   4.988
  453SOL    HW1 2593   0.286   0.931   4.974
  453SOL    HW2 2594   0.124   0.911   4.969
  454SOL     OW 2595   1.525   0.999   3.914
  454SOL    HW1 2596   1.462   0.923   3.927
  454SOL    HW2 2597   1.573   1.017   4.000
  455SOL     OW 2598   1.466   1.417   4.677
  455SOL    HW1 2599   1.407   1.423   4.757
  455SOL    HW2 2600   1.451   1.329   4.631
  456SOL     OW 2601   1.667   1.714   4.296
  456SOL    HW1 2602   1.626   1.691   4.208
  456SOL    HW2 2603   1.649   1.640   4.361
  457SOL     OW 2604   0.598   0.729   3.994
  457SOL    HW1 2605   0.622   0.798   3.926
  457SOL    HW2 2606   0.520   0.762   4.048
  458SOL     OW 2607   1.281   0.345   4.668
  458SOL    HW1 2608   1.195   0.295   4.655
  458SOL    HW2 2609   1.343   0.291   4.724
  459SOL     OW 2610   1.576   1.662   4.031
  459SOL    HW1 2611   1.665   1.708   4.034
  459SOL    HW2 2612   1.555   1.638   3.936
  460SOL     OW 2613   0.991   0.410   4.966
  460SOL    HW1 2614   0.914   0.444   5.020
  460SOL    HW2 2615   0.957   0.359   4.887
  461SOL     OW 2616   1.041   0.701   4.153
  461SOL    HW1 2617   1.067   0.697   4.249
  461SOL    HW2 2618   0.956   0.650   4.139
  462SOL     OW 2619   0.076   0.811   4.513
  462SOL    HW1 2620   0.175   0.799   4.522
  462SOL    HW2 2621   0.052   0.906   4.534
  463SOL     OW 2622   0.130   1.821   5.295
  463SOL    HW1 2623   0.120   1.806   5.394
  463SOL    HW2 2624   0.044   1.857   5.259
  464SOL     OW 2625   0.865   0.348   3.919
  464SOL    HW1 2626   0.924   0.411   3.870
  464SOL    HW2 2627   0.884   0.254   3.890
  465SOL     OW 2628   1.362   1.144   4.269
  465SOL    HW1 2629   1.445   1.115   4.221
  465SOL    HW2 2630   1.313   1.211   4.213
  466SOL     OW 2631   0.550   0.196   4.609
  466SOL    HW1 2632   0.545   0.191   4.709
  466SOL    HW2 2633   0.552   0.292   4.580
  467SOL     OW 2634   1.008   1.456   4.201
  467SOL    HW1 2635   0.962   1.528   4.149
  467SOL    HW2 2636   1.004   1.476   4.299
  468SOL     OW 2637   0.351   1.801   4.577
  468SOL    HW1 2638   0.401   1.715   4.583
  468SOL    HW2 2639   0.416   1.878   4.574
  469SOL     OW 2640   1.795   1.066   4.597
  469SOL    HW1 2641   1.733   1.051   4.521
  469SOL    HW2 2642   1.743   1.077   4.682
  470SOL     OW 2643   0.321   0.943   3.966
  470SOL    HW1 2644   0.403   0.982   3.924
  470SOL    HW2 2645   0.294   0.861   3.917
  471SOL     OW 2646   1.458   0.735   4.452
  471SOL    HW1 2647   1.453   0.670   4.527
  471SOL    HW2 2648   1.538   0.794   4.465
  472SOL     OW 2649   1.111   1.776   3.961
  472SOL    HW1 2650   1.051   1.714   4.011
  472SOL    HW2 2651   1.142   1.732   3.876
  473SOL     OW 2652   1.632   1.377   3.805
  473SOL    HW1 2653   1.600   1.471   3.795
  473SOL    HW2 2654   1.556   1.314   3.793
  474SOL     OW 2655   0.464   1.743   4.047
  474SOL    HW1 2656   0.497   1.782   4.133
  474SOL    HW2 2657   0.540   1.736   3.982
  475SOL     OW 2658   0.249   1.785   4.965
  475SOL    HW1 2659   0.306   1.720   5.015
  475SOL    HW2 2660   0.233   1.752   4.872
  476SOL     OW 2661   0.382   0.700   4.204
  476SOL    HW1 2662   0.427   0.610   4.201
  476SOL    HW2 2663   0.288   0.689   4.237
  477SOL     OW 2664   0.614   0.122   3.841
  477SOL    HW1 2665   0.712   0.100   3.848
  477SOL    HW2 2666   0.583   0.105   3.748
  478SOL     OW 2667   0.922   0.503   4.623
  478SOL    HW1 2668   0.897   0.494   4.527
  478SOL    HW2 2669   0.970   0.421   4.654
  479SOL     OW 2670   0.539   0.064   4.236
  479SOL    HW1 2671   0.458   0.065   4.294
  479SOL    HW2 2672   0.542   0.147   4.181
  480SOL     OW 2673   1.434   1.188   3.765
  480SOL    HW1 2674   1.466   1.112   3.822
  480SOL    HW2 2675   1.342   1.215   3.795
  481SOL     OW 2676   0.297   0.035   3.895
  481SOL    HW1 2677   0.346   0.119   3.874
  481SOL    HW2 2678   0.359  -0.030   3.940
  482SOL     OW 2679   0.459   1.152   4.465
  482SOL    HW1 2680   0.388   1.125   4.530
  482SOL    HW2 2681   0.433   1.124   4.372
  483SOL     OW 2682   1.032   0.549   3.740
  483SOL    HW1 2683   0.991   0.631   3.701
  483SOL    HW2 2684   1.096   0.575   3.813
  484SOL     OW 2685   0.561   0.222   4.871
  484SOL    HW1 2686   0.599   0.138   4.908
  484SOL    HW2 2687   0.473   0.241   4.915
  485SOL     OW 2688   0.866   0.454   4.366
  485SOL    HW1 2689   0.834   0.526   4.304
  485SOL    HW2 2690   0.890   0.373   4.313
  486SOL     OW 2691   1.017   0.039   4.477
  486SOL    HW1 2692   0.945   0.044   4.408
  486SOL    HW2 2693   0.993  -0.030   4.546
  487SOL     OW 2694   1.429   1.173   4.591
  487SOL    HW1 2695   1.374   1.089   4.584
  487SOL    HW2 2696   1.455   1.202   4.499
  488SOL     OW 2697   1.466   0.590   4.716
  488SOL    HW1 2698   1.436   0.495   4.723
  488SOL    HW2 2699   1.539   0.606   4.782
  489SOL     OW 2700   1.857   0.833   4.101
  489SOL    HW1 2701   1.899   0.769   4.165
  489SOL    HW2 2702   1.819   0.782   4.023
  490SOL     OW 2703   0.488   1.385   3.898
  490SOL    HW1 2704   0.401   1.370   3.945
  490SOL    HW2 2705   0.471   1.411   3.803
  491SOL     OW 2706   1.664   1.280   4.381
  491SOL    HW1 2707   1.763   1.288   4.395
  491SOL    HW2 2708   1.619   1.364   4.412
  492SOL     OW 2709   0.527   0.256   4.052
  492SOL    HW1 2710   0.554   0.197   3.977
  492SOL    HW2 2711   0.527   0.351   4.021
  493SOL     OW 2712   1.111   1.195   4.824
  493SOL    HW1 2713   1.071   1.239   4.905
  493SOL    HW2 2714   1.070   1.232   4.741
  494SOL     OW 2715   1.638   1.099   4.803
  494SOL    HW1 2716   1.643   1.180   4.862
  494SOL    HW2 2717   1.552   1.101   4.752
  495SOL     OW 2718   0.705   1.050   4.092
  495SOL    HW1 2719   0.691   1.057   4.191
  495SOL    HW2 2720   0.789   0.999   4.074
  496SOL     OW 2721   0.410   0.813   4.975
  496SOL    HW1 2722   0.496   0.825   5.025
  496SOL    HW2 2723   0.368   0.726   5.002
  497SOL     OW 2724   1.274   0.386   4.986
  497SOL    HW1 2725   1.295   0.460   5.050
  497SOL    HW2 2726   1.185   0.403   4.943
  498SOL     OW 2727   0.367   1.100   4.225
  498SOL    HW1 2728   0.360   1.183   4.169
  498SOL    HW2 2729   0.371   1.020   4.165
  499SOL     OW 2730   0.566   0.537   4.589
  499SOL    HW1 2731   0.578   0.603   4.515
  499SOL    HW2 2732   0.612   0.571   4.672
  500SOL     OW 2733   1.252   1.348   4.112
  500SOL    HW1 2734   1.302   1.425   4.152
  500SOL    HW2 2735   1.157   1.350   4.144
  501SOL     OW 2736   1.272   1.445   4.866
  501SOL    HW1 2737   1.319   1.458   4.953
  501SOL    HW2 2738   1.206   1.371   4.875
  502SOL     OW 2739   1.582   0.639   4.196
  502SOL    HW1 2740   1.551   0.700   4.269
  502SOL    HW2 2741   1.632   0.691   4.127
  503SOL     OW 2742   0.354   1.510   5.053
  503SOL    HW1 2743   0.333   1.466   4.966
  503SOL    HW2 2744   0.451   1.536   5.056
  504SOL     OW 2745   0.573   0.870   4.753
  504SOL    HW1 2746   0.617   0.959   4.744
  504SOL    HW2 2747   0.510   0.870   4.830
  505SOL     OW 2748   1.360   0.862   4.769
  505SOL    HW1 2749   1.285   0.862   4.703
  505SOL    HW2 2750   1.397   0.770   4.778
  506SOL     OW 2751   0.307   0.213   4.955
  506SOL    HW1 2752   0.284   0.250   5.045
  506SOL    HW2 2753   0.277   0.118   4.949
  507SOL     OW 2754   0.037   1.310   5.006
  507SOL    HW1 2755   0.090   1.261   5.074
  507SOL    HW2 2756   0.059   1.408   5.011
  508SOL     OW 2757   0.732   0.634   4.788
  508SOL    HW1 2758   0.791   0.608   4.712
  508SOL    HW2 2759   0.704   0.730   4.777
  509SOL     OW 2760   0.307   0.063   4.342
  509SOL    HW1 2761   0.296   0.157   4.375
  509SOL    HW2 2762   0.302   0.000   4.419
  510SOL     OW 2763   1.023   0.766   4.690
  510SOL    HW1 2764   1.038   0.787   4.786
  510SOL    HW2 2765   0.993   0.671   4.681
  511SOL     OW 2766   1.303   0.838   3.766
  511SOL    HW1 2767   1.337   0.745   3.781
  511SOL    HW2 2768   1.321   0.865   3.671
  512SOL     OW 2769   1.068   1.333   4.573
  512SOL    HW1 2770   1.075   1.249   4.518
  512SOL    HW2 2771   1.130   1.402   4.537
  513SOL     OW 2772   0.319   0.810   4.673
  513SOL    HW1 2773   0.412   0.846   4.678
  513SOL    HW2 2774   0.313   0.725   4.725
  514SOL     OW 2775   0.339   0.509   4.730
  514SOL    HW1 2776   0.287   0.426   4.713
  514SOL    HW2 2777   0.416   0.514   4.666
  515SOL     OW 2778   1.160   0.207   5.201
  515SOL    HW1 2779   1.160   0.271   5.278
  515SOL    HW2 2780   1.188   0.255   5.118
  516SOL     OW 2781   0.008   1.326   3.924
  516SOL    HW1 2782  -0.085   1.347   3.893
  516SOL    HW2 2783   0.018   1.227   3.937
  517SOL     OW 2784   0.088   1.801   4.651
  517SOL    HW1 2785   0.046   1.715   4.624
  517SOL    HW2 2786   0.182   1.804   4.617
  518SOL     OW 2787   1.002   0.796   4.962
  518SOL    HW1 2788   1.043   0.764   5.048
  518SOL    HW2 2789   0.906   0.769   4.959
  519SOL     OW 2790   0.040   0.544   4.838
  519SOL    HW1 2791   0.125   0.511   4.797
  519SOL    HW2 2792   0.053   0.559   4.936
  520SOL     OW 2793   0.815   0.572   4.049
  520SOL    HW1 2794   0.822   0.483   4.003
  520SOL    HW2 2795   0.721   0.606   4.041
  521SOL     OW 2796   1.657   0.604   4.930
  521SOL    HW1 2797   1.619   0.535   4.992
  521SOL    HW2 2798   1.739   0.568   4.886
  522SOL     OW 2799   0.671   0.464   4.993
  522SOL    HW1 2800   0.637   0.375   4.963
  522SOL    HW2 2801   0.697   0.518   4.913
  523SOL     OW 2802   0.473   0.500   3.915
  523SOL    HW1 2803   0.534   0.580   3.919
  523SOL    HW2 2804   0.378   0.531   3.922
  524SOL     OW 2805   1.347   1.059   4.958
  524SOL    HW1 2806   1.371   0.996   4.884
  524SOL    HW2 2807   1.257   1.099   4.940
  525SOL     OW 2808   1.302   0.855   4.033
  525SOL    HW1 2809   1.216   0.824   4.075
  525SOL    HW2 2810   1.298   0.841   3.934
  526SOL     OW 2811   1.759   1.747   4.878
  526SOL    HW1 2812   1.820   1.777   4.805
  526SOL    HW2 2813   1.721   1.658   4.856
  527SOL     OW 2814   1.252   1.731   4.852
  527SOL    HW1 2815   1.336   1.736   4.798
  527SOL    HW2 2816   1.229   1.635   4.870
  528SOL     OW 2817   0.083   1.258   4.746
  528SOL    HW1 2818   0.078   1.257   4.846
  528SOL    HW2 2819   0.000   1.217   4.708
  529SOL     OW 2820   1.388   1.573   4.201
  529SOL    HW1 2821   1.455   1.585   4.127
  529SOL    HW2 2822   1.348   1.662   4.224
  530SOL     OW 2823   1.280   0.927   4.396
  530SOL    HW1 2824   1.340   0.846   4.398
  530SOL    HW2 2825   1.320   0.996   4.336
  531SOL     OW 2826   0.672   1.616   3.878
  531SOL    HW1 2827   0.681   1.626   3.779
  531SOL    HW2 2828   0.632   1.527   3.899
  532SOL     OW 2829   1.650   1.720   5.118
  532SOL    HW1 2830   1.703   1.730   5.034
  532SOL    HW2 2831   1.623   1.810   5.152
  533SOL     OW 2832   1.841   0.175   4.687
  533SOL    HW1 2833   1.880   0.090   4.651
  533SOL    HW2 2834   1.743   0.177   4.668
  534SOL     OW 2835   0.263   0.326   4.444
  534SOL    HW1 2836   0.184   0.377   4.410
  534SOL    HW2 2837   0.254   0.311   4.542
  535SOL     OW 2838   1.194   1.612   3.755
  535SOL    HW1 2839   1.200   1.519   3.792
  535SOL    HW2 2840   1.135   1.612   3.675
  536SOL     OW 2841   0.822   1.002   5.096
  536SOL    HW1 2842   0.862   1.001   5.004
  536SOL    HW2 2843   0.832   1.094   5.136
  537SOL     OW 2844   0.916   0.910   4.015
  537SOL    HW1 2845   0.979   0.948   3.947
  537SOL    HW2 2846   0.956   0.827   4.054
  538SOL     OW 2847   1.504   1.607   3.768
  538SOL    HW1 2848   1.412   1.644   3.775
  538SOL    HW2 2849   1.542   1.627   3.678
  539SOL     OW 2850   1.039   1.098   4.420
  539SOL    HW1 2851   0.969   1.051   4.474
  539SOL    HW2 2852   1.098   1.030   4.377
  540SOL     OW 2853   1.014   0.236   4.695
  540SOL    HW1 2854   1.006   0.200   4.602
  540SOL    HW2 2855   1.012   0.160   4.760
  541SOL     OW 2856   0.590   1.487   4.215
  541SOL    HW1 2857   0.632   1.429   4.145
  541SOL    HW2 2858   0.546   1.566   4.171
  542SOL     OW 2859   1.709   0.385   5.105
  542SOL    HW1 2860   1.782   0.454   5.109
  542SOL    HW2 2861   1.737   0.310   5.046
  543SOL     OW 2862   0.255   1.348   4.014
  543SOL    HW1 2863   0.159   1.349   3.987
  543SOL    HW2 2864   0.267   1.401   4.098
  544SOL     OW 2865   0.075   0.345   3.757
  544SOL    HW1 2866  -0.017   0.317   3.728
  544SOL    HW2 2867   0.106   0.422   3.701
  545SOL     OW 2868   0.072   0.166   4.042
  545SOL    HW1 2869   0.055   0.249   3.988
  545SOL    HW2 2870   0.162   0.129   4.020
  546SOL     OW 2871   1.183   1.335   3.843
  546SOL    HW1 2872   1.084   1.324   3.845
  546SOL    HW2 2873   1.217   1.350   3.936
  547SOL     OW 2874   1.493   1.767   4.683
  547SOL    HW1 2875   1.526   1.831   4.614
  547SOL    HW2 2876   1.559   1.761   4.758
  548SOL     OW 2877   1.450   1.220   5.357
  548SOL    HW1 2878   1.441   1.210   5.456
  548SOL    HW2 2879   1.546   1.213   5.331
  549SOL     OW 2880   1.674   0.883   4.978
  549SOL    HW1 2881   1.647   0.794   4.941
  549SOL    HW2 2882   1.675   0.951   4.905
  550SOL     OW 2883   0.594   0.745   4.376
  550SOL    HW1 2884   0.644   0.830   4.357
  550SOL    HW2 2885   0.506   0.747   4.328
  551SOL     OW 2886   1.730   0.934   5.241
  551SOL    HW1 2887   1.768   1.025   5.256
  551SOL    HW2 2888   1.722   0.917   5.142
  552SOL     OW 2889   0.859   1.374   3.740
  552SOL    HW1 2890   0.813   1.389   3.828
  552SOL    HW2 2891   0.903   1.459   3.710
  553SOL     OW 2892   0.859   0.956   4.585
  553SOL    HW1 2893   0.913   0.887   4.633
  553SOL    HW2 2894   0.827   1.025   4.651
  554SOL     OW 2895   1.083   0.984   3.811
  554SOL    HW1 2896   1.060   1.037   3.729
  554SOL    HW2 2897   1.164   0.928   3.792
  555SOL     OW 2898   1.861   1.569   4.575
  555SOL    HW1 2899   1.790   1.557   4.505
  555SOL    HW2 2900   1.862   1.490   4.635
  556SOL     OW 2901   0.079   1.240   4.377
  556SOL    HW1 2902   0.078   1.193   4.465
  556SOL    HW2 2903   0.161   1.212   4.326
  557SOL     OW 2904   1.824   0.192   4.951
  557SOL    HW1 2905   1.820   0.102   4.995
  557SOL    HW2 2906   1.827   0.181   4.852
  558SOL     OW 2907   0.428   0.424   4.244
  558SOL    HW1 2908   0.458   0.352   4.182
  558SOL    HW2 2909   0.389   0.384   4.327
  559SOL     OW 2910   1.705   1.487   4.828
  559SOL    HW1 2911   1.612   1.462   4.801
  559SOL    HW2 2912   1.731   1.437   4.910
  560SOL     OW 2913   0.812   1.586   4.411
  560SOL    HW1 2914   0.844   1.596   4.317
  560SOL    HW2 2915   0.733   1.524   4.413
  561SOL     OW 2916   1.424   0.214   4.836
  561SOL    HW1 2917   1.476   0.149   4.891
  561SOL    HW2 2918   1.375   0.277   4.897
  562SOL     OW 2919   1.001   0.034   4.878
  562SOL    HW1 2920   0.938  -0.038   4.847
  562SOL    HW2 2921   1.094  -0.002   4.878
  563SOL     OW 2922   0.770   1.330   4.025
  563SOL    HW1 2923   0.724   1.243   4.042
  563SOL    HW2 2924   0.861   1.327   4.066
  564SOL     OW 2925   1.300   0.453   4.415
  564SOL    HW1 2926   1.241   0.533   4.419
  564SOL    HW2 2927   1.315   0.418   4.508
  565SOL     OW 2928   0.039   1.077   4.024
  565SOL    HW1 2929   0.138   1.066   4.015
  565SOL    HW2 2930  -0.001   0.991   4.056
  566SOL     OW 2931   0.875   1.646   4.061
  566SOL    HW1 2932   0.798   1.611   4.007
  566SOL    HW2 2933   0.843   1.717   4.123
  567SOL     OW 2934   0.230   2.490   0.113
  567SOL    HW1 2935   0.137   2.488   0.150
  567SOL    HW2 2936   0.231   2.451   0.021
  568SOL     OW 2937   0.225   2.137   0.996
  568SOL    HW1 2938   0.260   2.120   1.088
  568SOL    HW2 2939   0.137   2.092   0.984
  569SOL     OW 2940   0.019   2.230   0.647
  569SOL    HW1 2941  -0.063   2.273   0.686
  569SOL    HW2 2942  -0.009   2.157   0.584
  570SOL     OW 2943   0.569   3.137   1.165
  570SOL    HW1 2944   0.476   3.130   1.128
  570SOL    HW2 2945   0.580   3.226   1.209
  571SOL     OW 2946   1.555   3.373   0.703
  571SOL    HW1 2947   1.498   3.357   0.784
  571SOL    HW2 2948   1.496   3.383   0.623
  572SOL     OW 2949   1.135   2.565   0.717
  572SOL    HW1 2950   1.192   2.643   0.692
  572SOL    HW2 2951   1.075   2.591   0.793
  573SOL     OW 2952   1.755   2.469   0.231
  573SOL    HW1 2953   1.743   2.456   0.132
  573SOL    HW2 2954   1.725   2.388   0.280
  574SOL     OW 2955   0.850   2.660   1.823
  574SOL    HW1 2956   0.846   2.736   1.888
  574SOL    HW2 2957   0.872   2.696   1.732
  575SOL     OW 2958   0.686   3.023   1.803
  575SOL    HW1 2959   0.746   3.102   1.817
  575SOL    HW2 2960   0.600   3.054   1.762
  576SOL     OW 2961   0.335   3.297   1.061
  576SOL    HW1 2962   0.257   3.266   1.008
  576SOL    HW2 2963   0.393   3.355   1.004
  577SOL     OW 2964   1.460   3.367   1.339
  577SOL    HW1 2965   1.484   3.461   1.365
  577SOL    HW2 2966   1.444   3.313   1.421
  578SOL     OW 2967   0.231   3.575   0.483
  578SOL    HW1 2968   0.265   3.652   0.537
  578SOL    HW2 2969   0.275   3.575   0.393
  579SOL     OW 2970   1.127   3.203   1.690
  579SOL    HW1 2971   1.174   3.203   1.778
  579SOL    HW2 2972   1.079   3.116   1.679
  580SOL     OW 2973   0.240   2.953   0.886
  580SOL    HW1 2974   0.254   2.869   0.938
  580SOL    HW2 2975   0.185   3.017   0.941
  581SOL     OW 2976   0.620   3.648   1.439
  581SOL    HW1 2977   0.528   3.631   1.474
  581SOL    HW2 2978   0.648   3.740   1.465
  582SOL     OW 2979   0.606   2.826   0.123
  582SOL    HW1 2980   0.613   2.910   0.069
  582SOL    HW2 2981   0.652   2.839   0.211
  583SOL     OW 2982   1.594   1.976   1.480
  583SOL    HW1 2983   1.576   2.043   1.408
  583SOL    HW2 2984   1.591   2.022   1.569
  584SOL     OW 2985   0.122   2.505   0.563
  584SOL    HW1 2986   0.077   2.417   0.580
  584SOL    HW2 2987   0.121   2.559   0.647
  585SOL     OW 2988   1.842   3.629   0.359
  585SOL    HW1 2989   1.896   3.600   0.439
  585SOL    HW2 2990   1.872   3.719   0.330
  586SOL     OW 2991   1.689   2.784   0.612
  586SOL    HW1 2992   1.784   2.755   0.620
  586SOL    HW2 2993   1.681   2.849   0.537
  587SOL     OW 2994   1.641   2.970   0.432
  587SOL    HW1 2995   1.727   2.972   0.380
  587SOL    HW2 2996   1.655   3.017   0.520
  588SOL     OW 2997   0.113   2.599   1.597
  588SOL    HW1 2998   0.201   2.586   1.642
  588SOL    HW2 2999   0.100   2.696   1.575
  589SOL     OW 3000   1.293   3.090   1.423
  589SOL    HW1 3001   1.330   3.017   1.365
  589SOL    HW2 3002   1.345   3.095   1.508
  590SOL     OW 3003   0.809   1.866   0.502
  590SOL    HW1 3004   0.849   1.957   0.493
  590SOL    HW2 3005   0.709   1.874   0.508
  591SOL     OW 3006   0.197   2.838   1.264
  591SOL    HW1 3007   0.286   2.793   1.250
  591SOL    HW2 3008   0.124   2.773   1.245
  592SOL     OW 3009   1.525   2.861   0.190
  592SOL    HW1 3010   1.462   2.785   0.203
  592SOL    HW2 3011   1.573   2.879   0.276
  593SOL     OW 3012   1.187   3.654   1.616
  593SOL    HW1 3013   1.211   3.714   1.540
  593SOL    HW2 3014   1.194   3.559   1.586
  594SOL     OW 3015   1.466   3.279   0.953
  594SOL    HW1 3016   1.407   3.285   1.033
  594SOL    HW2 3017   1.451   3.191   0.907
  595SOL     OW 3018   1.667   3.576   0.572
  595SOL    HW1 3019   1.626   3.553   0.484
  595SOL    HW2 3020   1.649   3.502   0.637
  596SOL     OW 3021   0.598   2.591   0.270
  596SOL    HW1 3022   0.622   2.660   0.202
  596SOL    HW2 3023   0.520   2.624   0.324
  597SOL     OW 3024   1.281   2.207   0.944
  597SOL    HW1 3025   1.195   2.157   0.931
  597SOL    HW2 3026   1.343   2.153   1.000
  598SOL     OW 3027   1.576   3.524   0.307
  598SOL    HW1 3028   1.665   3.570   0.310
  598SOL    HW2 3029   1.555   3.500   0.212
  599SOL     OW 3030   0.807   2.467   1.465
  599SOL    HW1 3031   0.760   2.464   1.554
  599SOL    HW2 3032   0.756   2.412   1.399
  600SOL     OW 3033   1.394   2.331   1.674
  600SOL    HW1 3034   1.374   2.374   1.762
  600SOL    HW2 3035   1.472   2.269   1.683
  601SOL     OW 3036   0.973   2.752   1.572
  601SOL    HW1 3037   1.019   2.668   1.543
  601SOL    HW2 3038   0.917   2.786   1.497
  602SOL     OW 3039   0.991   2.272   1.242
  602SOL    HW1 3040   0.914   2.306   1.296
  602SOL    HW2 3041   0.957   2.221   1.163
  603SOL     OW 3042   1.041   2.563   0.429
  603SOL    HW1 3043   1.067   2.559   0.525
  603SOL    HW2 3044   0.956   2.512   0.415
  604SOL     OW 3045   0.076   2.673   0.789
  604SOL    HW1 3046   0.175   2.661   0.798
  604SOL    HW2 3047   0.052   2.768   0.810
  605SOL     OW 3048   0.130   3.683   1.571
  605SOL    HW1 3049   0.120   3.668   1.670
  605SOL    HW2 3050   0.044   3.719   1.535
  606SOL     OW 3051   1.719   2.447   1.831
  606SOL    HW1 3052   1.693   2.536   1.795
  606SOL    HW2 3053   1.717   2.379   1.758
  607SOL     OW 3054   1.362   3.006   0.545
  607SOL    HW1 3055   1.445   2.977   0.497
  607SOL    HW2 3056   1.313   3.073   0.489
  608SOL     OW 3057   0.550   2.058   0.885
  608SOL    HW1 3058   0.545   2.053   0.985
  608SOL    HW2 3059   0.552   2.154   0.856
  609SOL     OW 3060   1.008   3.318   0.477
  609SOL    HW1 3061   0.962   3.390   0.425
  609SOL    HW2 3062   1.004   3.338   0.575
  610SOL     OW 3063   0.351   3.663   0.853
  610SOL    HW1 3064   0.401   3.577   0.859
  610SOL    HW2 3065   0.416   3.740   0.850
  611SOL     OW 3066   1.227   3.412   1.506
  611SOL    HW1 3067   1.233   3.335   1.570
  611SOL    HW2 3068   1.175   3.386   1.426
  612SOL     OW 3069   0.321   2.805   0.242
  612SOL    HW1 3070   0.403   2.844   0.200
  612SOL    HW2 3071   0.294   2.723   0.193
  613SOL     OW 3072   0.461   3.128   1.727
  613SOL    HW1 3073   0.411   3.129   1.641
  613SOL    HW2 3074   0.398   3.110   1.803
  614SOL     OW 3075   1.111   3.638   0.237
  614SOL    HW1 3076   1.051   3.576   0.287
  614SOL    HW2 3077   1.142   3.594   0.152
  615SOL     OW 3078   1.632   3.239   0.081
  615SOL    HW1 3079   1.600   3.333   0.071
  615SOL    HW2 3080   1.556   3.176   0.069
  616SOL     OW 3081   0.464   3.605   0.323
  616SOL    HW1 3082   0.497   3.644   0.409
  616SOL    HW2 3083   0.540   3.598   0.258
  617SOL     OW 3084   0.249   3.647   1.241
  617SOL    HW1 3085   0.306   3.582   1.291
  617SOL    HW2 3086   0.233   3.614   1.148
  618SOL     OW 3087   0.940   3.560   0.904
  618SOL    HW1 3088   1.020   3.503   0.925
  618SOL    HW2 3089   0.891   3.520   0.827
  619SOL     OW 3090   0.382   2.562   0.480
  619SOL    HW1 3091   0.427   2.472   0.477
  619SOL    HW2 3092   0.288   2.551   0.513
  620SOL     OW 3093   1.547   2.084   1.729
  620SOL    HW1 3094   1.542   2.121   1.821
  620SOL    HW2 3095   1.475   2.015   1.717
  621SOL     OW 3096   0.781   2.126   1.749
  621SOL    HW1 3097   0.848   2.065   1.792
  621SOL    HW2 3098   0.708   2.145   1.814
  622SOL     OW 3099   0.888   3.376   1.195
  622SOL    HW1 3100   0.865   3.351   1.101
  622SOL    HW2 3101   0.949   3.307   1.234
  623SOL     OW 3102   1.351   2.452   1.433
  623SOL    HW1 3103   1.379   2.409   1.518
  623SOL    HW2 3104   1.376   2.548   1.434
  624SOL     OW 3105   0.922   2.365   0.899
  624SOL    HW1 3106   0.897   2.356   0.803
  624SOL    HW2 3107   0.970   2.283   0.930
  625SOL     OW 3108   0.539   1.926   0.512
  625SOL    HW1 3109   0.458   1.927   0.570
  625SOL    HW2 3110   0.542   2.009   0.457
  626SOL     OW 3111   1.434   3.050   0.041
  626SOL    HW1 3112   1.466   2.974   0.098
  626SOL    HW2 3113   1.342   3.077   0.071
  627SOL     OW 3114   0.297   1.897   0.171
  627SOL    HW1 3115   0.346   1.981   0.150
  627SOL    HW2 3116   0.359   1.832   0.216
  628SOL     OW 3117   1.076   2.545   1.464
  628SOL    HW1 3118   0.996   2.484   1.467
  628SOL    HW2 3119   1.157   2.492   1.440
  629SOL     OW 3120   1.227   3.432   0.793
  629SOL    HW1 3121   1.248   3.506   0.728
  629SOL    HW2 3122   1.295   3.432   0.866
  630SOL     OW 3123   0.459   3.014   0.741
  630SOL    HW1 3124   0.388   2.987   0.806
  630SOL    HW2 3125   0.433   2.986   0.648
  631SOL     OW 3126   1.271   3.659   0.591
  631SOL    HW1 3127   1.315   3.723   0.527
  631SOL    HW2 3128   1.221   3.711   0.661
  632SOL     OW 3129   1.032   2.411   0.016
  632SOL    HW1 3130   0.991   2.493  -0.023
  632SOL    HW2 3131   1.096   2.437   0.089
  633SOL     OW 3132   0.561   2.084   1.147
  633SOL    HW1 3133   0.599   2.000   1.184
  633SOL    HW2 3134   0.473   2.103   1.191
  634SOL     OW 3135   1.017   1.901   0.753
  634SOL    HW1 3136   0.945   1.906   0.684
  634SOL    HW2 3137   0.993   1.832   0.822
  635SOL     OW 3138   1.429   3.035   0.867
  635SOL    HW1 3139   1.374   2.951   0.860
  635SOL    HW2 3140   1.455   3.064   0.775
  636SOL     OW 3141   1.466   2.452   0.992
  636SOL    HW1 3142   1.436   2.357   0.999
  636SOL    HW2 3143   1.539   2.468   1.058
  637SOL     OW 3144   1.857   2.695   0.377
  637SOL    HW1 3145   1.899   2.631   0.441
  637SOL    HW2 3146   1.819   2.644   0.299
  638SOL     OW 3147   1.664   3.142   0.657
  638SOL    HW1 3148   1.763   3.150   0.671
  638SOL    HW2 3149   1.619   3.226   0.688
  639SOL     OW 3150   1.390   2.437   0.078
  639SOL    HW1 3151   1.336   2.416   0.159
  639SOL    HW2 3152   1.481   2.396   0.087
  640SOL     OW 3153   1.754   3.085   1.588
  640SOL    HW1 3154   1.845   3.046   1.575
  640SOL    HW2 3155   1.762   3.181   1.612
  641SOL     OW 3156   1.064   3.209   1.340
  641SOL    HW1 3157   0.984   3.186   1.395
  641SOL    HW2 3158   1.147   3.183   1.389
  642SOL     OW 3159   1.592   3.491   1.625
  642SOL    HW1 3160   1.619   3.525   1.535
  642SOL    HW2 3161   1.671   3.453   1.671
  643SOL     OW 3162   1.638   2.961   1.079
  643SOL    HW1 3163   1.643   3.042   1.138
  643SOL    HW2 3164   1.552   2.963   1.028
  644SOL     OW 3165   0.915   1.951   1.402
  644SOL    HW1 3166   0.940   1.931   1.307
  644SOL    HW2 3167   0.987   2.007   1.444
  645SOL     OW 3168   0.980   2.978   1.719
  645SOL    HW1 3169   0.881   2.984   1.729
  645SOL    HW2 3170   1.003   2.898   1.663
  646SOL     OW 3171   0.705   2.912   0.368
  646SOL    HW1 3172   0.691   2.919   0.467
  646SOL    HW2 3173   0.789   2.861   0.350
  647SOL     OW 3174   0.410   2.675   1.251
  647SOL    HW1 3175   0.496   2.687   1.301
  647SOL    HW2 3176   0.368   2.588   1.278
  648SOL     OW 3177   1.274   2.248   1.262
  648SOL    HW1 3178   1.295   2.322   1.326
  648SOL    HW2 3179   1.185   2.265   1.219
  649SOL     OW 3180   0.064   3.426   1.331
  649SOL    HW1 3181   0.018   3.508   1.297
  649SOL    HW2 3182   0.162   3.445   1.340
  650SOL     OW 3183   0.367   2.962   0.501
  650SOL    HW1 3184   0.360   3.045   0.445
  650SOL    HW2 3185   0.371   2.882   0.441
  651SOL     OW 3186   1.252   3.210   0.388
  651SOL    HW1 3187   1.302   3.287   0.428
  651SOL    HW2 3188   1.157   3.212   0.420
  652SOL     OW 3189   1.272   3.307   1.142
  652SOL    HW1 3190   1.319   3.320   1.229
  652SOL    HW2 3191   1.206   3.233   1.151
  653SOL     OW 3192   0.354   3.372   1.329
  653SOL    HW1 3193   0.333   3.328   1.242
  653SOL    HW2 3194   0.451   3.398   1.332
  654SOL     OW 3195   0.402   2.613   1.598
  654SOL    HW1 3196   0.470   2.668   1.551
  654SOL    HW2 3197   0.442   2.525   1.625
  655SOL     OW 3198   1.587   2.641   1.670
  655SOL    HW1 3199   1.495   2.679   1.665
  655SOL    HW2 3200   1.647   2.688   1.605
  656SOL     OW 3201   1.013   1.967   1.770
  656SOL    HW1 3202   1.019   2.052   1.718
  656SOL    HW2 3203   1.045   1.891   1.713
  657SOL     OW 3204   1.360   2.724   1.045
  657SOL    HW1 3205   1.285   2.724   0.979
  657SOL    HW2 3206   1.397   2.632   1.054
  658SOL     OW 3207   1.209   2.387   0.275
  658SOL    HW1 3208   1.222   2.303   0.329
  658SOL    HW2 3209   1.180   2.461   0.335
  659SOL     OW 3210   0.307   2.075   1.231
  659SOL    HW1 3211   0.284   2.112   1.321
  659SOL    HW2 3212   0.277   1.980   1.225
  660SOL     OW 3213   0.037   3.172   1.282
  660SOL    HW1 3214   0.090   3.123   1.350
  660SOL    HW2 3215   0.059   3.270   1.287
  661SOL     OW 3216   1.728   2.797   1.854
  661SOL    HW1 3217   1.682   2.790   1.765
  661SOL    HW2 3218   1.666   2.841   1.920
  662SOL     OW 3219   0.307   1.925   0.618
  662SOL    HW1 3220   0.296   2.019   0.651
  662SOL    HW2 3221   0.302   1.862   0.695
  663SOL     OW 3222   1.622   2.229   0.374
  663SOL    HW1 3223   1.624   2.153   0.438
  663SOL    HW2 3224   1.574   2.306   0.414
  664SOL     OW 3225   1.023   2.628   0.966
  664SOL    HW1 3226   1.038   2.649   1.062
  664SOL    HW2 3227   0.993   2.533   0.957
  665SOL     OW 3228   0.980   3.435   1.700
  665SOL    HW1 3229   0.960   3.479   1.612
  665SOL    HW2 3230   1.019   3.344   1.684
  666SOL     OW 3231   1.859   3.380   1.605
  666SOL    HW1 3232   1.873   3.407   1.510
  666SOL    HW2 3233   1.942   3.402   1.658
  667SOL     OW 3234   0.350   2.760   1.804
  667SOL    HW1 3235   0.426   2.804   1.852
  667SOL    HW2 3236   0.385   2.713   1.722
  668SOL     OW 3237   1.540   2.136   0.125
  668SOL    HW1 3238   1.479   2.061   0.148
  668SOL    HW2 3239   1.562   2.188   0.208
  669SOL     OW 3240   1.303   2.700   0.042
  669SOL    HW1 3241   1.337   2.607   0.057
  669SOL    HW2 3242   1.321   2.727  -0.053
  670SOL     OW 3243   1.068   3.195   0.849
  670SOL    HW1 3244   1.075   3.111   0.794
  670SOL    HW2 3245   1.130   3.264   0.813
  671SOL     OW 3246   0.319   2.672   0.949
  671SOL    HW1 3247   0.412   2.708   0.954
  671SOL    HW2 3248   0.313   2.587   1.001
  672SOL     OW 3249   0.339   2.371   1.006
  672SOL    HW1 3250   0.287   2.288   0.989
  672SOL    HW2 3251   0.416   2.376   0.942
  673SOL     OW 3252   1.138   2.242   1.678
  673SOL    HW1 3253   1.093   2.305   1.742
  673SOL    HW2 3254   1.231   2.273   1.661
  674SOL     OW 3255   1.160   2.069   1.477
  674SOL    HW1 3256   1.160   2.133   1.554
  674SOL    HW2 3257   1.188   2.117   1.394
  675SOL     OW 3258   0.008   3.188   0.200
  675SOL    HW1 3259  -0.085   3.209   0.169
  675SOL    HW2 3260   0.018   3.089   0.213
  676SOL     OW 3261   0.504   3.430   0.910
  676SOL    HW1 3262   0.570   3.504   0.919
  676SOL    HW2 3263   0.548   3.351   0.868
  677SOL     OW 3264   0.040   2.406   1.114
  677SOL    HW1 3265   0.125   2.373   1.073
  677SOL    HW2 3266   0.053   2.421   1.212
  678SOL     OW 3267   0.189   2.382   1.722
  678SOL    HW1 3268   0.248   2.342   1.652
  678SOL    HW2 3269   0.131   2.453   1.681
  679SOL     OW 3270   1.369   2.812   1.660
  679SOL    HW1 3271   1.408   2.901   1.680
  679SOL    HW2 3272   1.379   2.792   1.563
  680SOL     OW 3273   0.252   3.426   1.744
  680SOL    HW1 3274   0.222   3.483   1.820
  680SOL    HW2 3275   0.245   3.329   1.770
  681SOL     OW 3276   0.671   2.326   1.269
  681SOL    HW1 3277   0.637   2.237   1.239
  681SOL    HW2 3278   0.697   2.380   1.189
  682SOL     OW 3279   0.930   3.540   1.465
  682SOL    HW1 3280   0.906   3.522   1.370
  682SOL    HW2 3281   0.960   3.634   1.475
  683SOL     OW 3282   0.159   2.999   1.466
  683SOL    HW1 3283   0.181   2.938   1.542
  683SOL    HW2 3284   0.169   2.950   1.380
  684SOL     OW 3285   1.302   2.717   0.309
  684SOL    HW1 3286   1.216   2.686   0.351
  684SOL    HW2 3287   1.298   2.703   0.210
  685SOL     OW 3288   1.759   3.609   1.154
  685SOL    HW1 3289   1.820   3.639   1.081
  685SOL    HW2 3290   1.721   3.520   1.132
  686SOL     OW 3291   1.252   3.593   1.128
  686SOL    HW1 3292   1.336   3.598   1.074
  686SOL    HW2 3293   1.229   3.497   1.146
  687SOL     OW 3294   0.083   3.120   1.022
  687SOL    HW1 3295   0.078   3.119   1.122
  687SOL    HW2 3296   0.000   3.079   0.984
  688SOL     OW 3297   0.688   3.524   1.716
  688SOL    HW1 3298   0.632   3.605   1.725
  688SOL    HW2 3299   0.740   3.528   1.630
  689SOL     OW 3300   1.726   1.997   0.523
  689SOL    HW1 3301   1.799   1.980   0.456
  689SOL    HW2 3302   1.695   1.910   0.561
  690SOL     OW 3303   1.388   3.435   0.477
  690SOL    HW1 3304   1.455   3.447   0.403
  690SOL    HW2 3305   1.348   3.524   0.500
  691SOL     OW 3306   0.130   3.656   1.851
  691SOL    HW1 3307   0.089   3.582   1.904
  691SOL    HW2 3308   0.194   3.707   1.909
  692SOL     OW 3309   0.830   3.135   1.422
  692SOL    HW1 3310   0.825   3.168   1.517
  692SOL    HW2 3311   0.744   3.154   1.376
  693SOL     OW 3312   1.650   3.582   1.394
  693SOL    HW1 3313   1.703   3.592   1.310
  693SOL    HW2 3314   1.623   3.672   1.428
  694SOL     OW 3315   1.841   2.037   0.963
  694SOL    HW1 3316   1.880   1.952   0.927
  694SOL    HW2 3317   1.743   2.039   0.944
  695SOL     OW 3318   0.263   2.188   0.720
  695SOL    HW1 3319   0.184   2.239   0.686
  695SOL    HW2 3320   0.254   2.173   0.818
  696SOL     OW 3321   1.194   3.474   0.031
  696SOL    HW1 3322   1.200   3.381   0.068
  696SOL    HW2 3323   1.135   3.474  -0.049
  697SOL     OW 3324   0.916   2.772   0.291
  697SOL    HW1 3325   0.979   2.810   0.223
  697SOL    HW2 3326   0.956   2.689   0.330
  698SOL     OW 3327   1.504   3.469   0.044
  698SOL    HW1 3328   1.412   3.506   0.051
  698SOL    HW2 3329   1.542   3.489  -0.046
  699SOL     OW 3330   0.372   3.150   1.490
  699SOL    HW1 3331   0.359   3.243   1.456
  699SOL    HW2 3332   0.288   3.098   1.477
  700SOL     OW 3333   1.614   3.154   1.289
  700SOL    HW1 3334   1.674   3.157   1.369
  700SOL    HW2 3335   1.539   3.218   1.302
  701SOL     OW 3336   1.039   2.960   0.696
  701SOL    HW1 3337   0.969   2.913   0.750
  701SOL    HW2 3338   1.098   2.892   0.653
  702SOL     OW 3339   0.590   3.349   0.491
  702SOL    HW1 3340   0.632   3.291   0.421
  702SOL    HW2 3341   0.546   3.428   0.447
  703SOL     OW 3342   1.709   2.247   1.381
  703SOL    HW1 3343   1.782   2.316   1.385
  703SOL    HW2 3344   1.737   2.172   1.322
  704SOL     OW 3345   0.255   3.210   0.290
  704SOL    HW1 3346   0.159   3.211   0.263
  704SOL    HW2 3347   0.267   3.263   0.374
  705SOL     OW 3348   0.105   2.875   1.726
  705SOL    HW1 3349   0.028   2.842   1.780
  705SOL    HW2 3350   0.190   2.845   1.768
  706SOL     OW 3351   0.672   2.065   1.489
  706SOL    HW1 3352   0.762   2.049   1.449
  706SOL    HW2 3353   0.680   2.070   1.588
  707SOL     OW 3354   0.075   2.207   0.033
  707SOL    HW1 3355  -0.017   2.179   0.004
  707SOL    HW2 3356   0.106   2.284  -0.023
  708SOL     OW 3357   1.440   2.718   1.398
  708SOL    HW1 3358   1.383   2.770   1.335
  708SOL    HW2 3359   1.536   2.730   1.374
  709SOL     OW 3360   0.072   2.028   0.318
  709SOL    HW1 3361   0.055   2.111   0.264
  709SOL    HW2 3362   0.162   1.991   0.296
  710SOL     OW 3363   1.183   3.197   0.119
  710SOL    HW1 3364   1.084   3.186   0.121
  710SOL    HW2 3365   1.217   3.212   0.212
  711SOL     OW 3366   0.613   2.704   1.431
  711SOL    HW1 3367   0.669   2.785   1.414
  711SOL    HW2 3368   0.672   2.624   1.434
  712SOL     OW 3369   1.493   3.629   0.959
  712SOL    HW1 3370   1.526   3.693   0.890
  712SOL    HW2 3371   1.559   3.623   1.034
  713SOL     OW 3372   0.716   2.427   1.708
  713SOL    HW1 3373   0.735   2.492   1.782
  713SOL    HW2 3374   0.776   2.347   1.717
  714SOL     OW 3375   1.450   3.082   1.633
  714SOL    HW1 3376   1.441   3.072   1.732
  714SOL    HW2 3377   1.546   3.075   1.607
  715SOL     OW 3378   0.390   3.603   1.560
  715SOL    HW1 3379   0.299   3.644   1.558
  715SOL    HW2 3380   0.383   3.509   1.592
  716SOL     OW 3381   1.674   2.745   1.254
  716SOL    HW1 3382   1.647   2.656   1.217
  716SOL    HW2 3383   1.675   2.813   1.181
  717SOL     OW 3384   1.777   2.204   1.642
  717SOL    HW1 3385   1.760   2.235   1.548
  717SOL    HW2 3386   1.693   2.167   1.680
  718SOL     OW 3387   1.730   2.796   1.517
  718SOL    HW1 3388   1.768   2.887   1.532
  718SOL    HW2 3389   1.722   2.779   1.418
  719SOL     OW 3390   0.661   3.652   0.953
  719SOL    HW1 3391   0.615   3.740   0.940
  719SOL    HW2 3392   0.760   3.664   0.946
  720SOL     OW 3393   1.083   2.846   0.087
  720SOL    HW1 3394   1.060   2.899   0.005
  720SOL    HW2 3395   1.164   2.790   0.068
  721SOL     OW 3396   1.861   3.431   0.851
  721SOL    HW1 3397   1.790   3.419   0.781
  721SOL    HW2 3398   1.862   3.352   0.911
  722SOL     OW 3399   0.221   3.176   1.844
  722SOL    HW1 3400   0.156   3.103   1.823
  722SOL    HW2 3401   0.225   3.190   1.942
  723SOL     OW 3402   0.079   3.102   0.653
  723SOL    HW1 3403   0.078   3.055   0.741
  723SOL    HW2 3404   0.161   3.074   0.602
  724SOL     OW 3405   0.672   3.253   1.624
  724SOL    HW1 3406   0.594   3.203   1.662
  724SOL    HW2 3407   0.669   3.348   1.655
  725SOL     OW 3408   1.824   2.054   1.227
  725SOL    HW1 3409   1.820   1.964   1.271
  725SOL    HW2 3410   1.827   2.043   1.128
  726SOL     OW 3411   0.428   2.286   0.520
  726SOL    HW1 3412   0.458   2.214   0.458
  726SOL    HW2 3413   0.389   2.246   0.603
  727SOL     OW 3414   1.705   3.349   1.104
  727SOL    HW1 3415   1.612   3.324   1.077
  727SOL    HW2 3416   1.731   3.299   1.186
  728SOL     OW 3417   0.812   3.448   0.687
  728SOL    HW1 3418   0.844   3.458   0.593
  728SOL    HW2 3419   0.733   3.386   0.689
  729SOL     OW 3420   1.424   2.076   1.112
  729SOL    HW1 3421   1.476   2.011   1.167
  729SOL    HW2 3422   1.375   2.139   1.173
  730SOL     OW 3423   1.001   1.896   1.154
  730SOL    HW1 3424   0.938   1.824   1.123
  730SOL    HW2 3425   1.094   1.860   1.154
  731SOL     OW 3426   0.770   3.192   0.301
  731SOL    HW1 3427   0.724   3.105   0.318
  731SOL    HW2 3428   0.861   3.189   0.342
  732SOL     OW 3429   0.618   3.429   1.284
  732SOL    HW1 3430   0.613   3.511   1.341
  732SOL    HW2 3431   0.707   3.426   1.239
  733SOL     OW 3432   1.352   1.914   0.168
  733SOL    HW1 3433   1.387   1.873   0.084
  733SOL    HW2 3434   1.262   1.876   0.188
  734SOL     OW 3435   1.300   2.315   0.691
  734SOL    HW1 3436   1.241   2.395   0.695
  734SOL    HW2 3437   1.315   2.280   0.784
  735SOL     OW 3438   1.593   2.083   0.882
  735SOL    HW1 3439   1.509   2.082   0.936
  735SOL    HW2 3440   1.595   2.166   0.826
  736SOL     OW 3441   0.039   2.939   0.300
  736SOL    HW1 3442   0.138   2.928   0.291
  736SOL    HW2 3443  -0.001   2.853   0.332
  737SOL     OW 3444   0.230   2.490   1.975
  737SOL    HW1 3445   0.137   2.488   2.012
  737SOL    HW2 3446   0.231   2.451   1.883
  738SOL     OW 3447   0.225   2.137   2.858
  738SOL    HW1 3448   0.260   2.120   2.950
  738SOL    HW2 3449   0.137   2.092   2.846
  739SOL     OW 3450   0.019   2.230   2.509
  739SOL    HW1 3451  -0.063   2.273   2.548
  739SOL    HW2 3452  -0.009   2.157   2.446
  740SOL     OW 3453   0.569   3.137   3.027
  740SOL    HW1 3454   0.476   3.130   2.990
  740SOL    HW2 3455   0.580   3.226   3.071
  741SOL     OW 3456   1.555   3.373   2.565
  741SOL    HW1 3457   1.498   3.357   2.646
  741SOL    HW2 3458   1.496   3.383   2.485
  742SOL     OW 3459   1.135   2.565   2.579
  742SOL    HW1 3460   1.192   2.643   2.554
  742SOL    HW2 3461   1.075   2.591   2.655
  743SOL     OW 3462   1.755   2.469   2.093
  743SOL    HW1 3463   1.743   2.456   1.994
  743SOL    HW2 3464   1.725   2.388   2.142
  744SOL     OW 3465   0.768   3.006   2.885
  744SOL    HW1 3466   0.690   3.023   2.945
  744SOL    HW2 3467   0.802   3.093   2.849
  745SOL     OW 3468   0.850   2.660   3.685
  745SOL    HW1 3469   0.846   2.736   3.750
  745SOL    HW2 3470   0.872   2.696   3.594
  746SOL     OW 3471   0.685   2.874   2.527
  746SOL    HW1 3472   0.754   2.858   2.597
  746SOL    HW2 3473   0.612   2.931   2.565
  747SOL     OW 3474   0.686   3.023   3.665
  747SOL    HW1 3475   0.746   3.102   3.679
  747SOL    HW2 3476   0.600   3.054   3.624
  748SOL     OW 3477   0.335   3.297   2.923
  748SOL    HW1 3478   0.257   3.266   2.870
  748SOL    HW2 3479   0.393   3.355   2.866
  749SOL     OW 3480   1.460   3.367   3.201
  749SOL    HW1 3481   1.484   3.461   3.227
  749SOL    HW2 3482   1.444   3.313   3.283
  750SOL     OW 3483   0.438   2.254   3.361
  750SOL    HW1 3484   0.520   2.198   3.370
  750SOL    HW2 3485   0.357   2.196   3.365
  751SOL     OW 3486   1.603   2.309   2.599
  751SOL    HW1 3487   1.529   2.355   2.549
  751SOL    HW2 3488   1.654   2.377   2.652
  752SOL     OW 3489   0.231   3.575   2.345
  752SOL    HW1 3490   0.265   3.652   2.399
  752SOL    HW2 3491   0.275   3.575   2.255
  753SOL     OW 3492   0.230   3.296   2.400
  753SOL    HW1 3493   0.204   3.392   2.400
  753SOL    HW2 3494   0.159   3.242   2.445
  754SOL     OW 3495   0.240   2.953   2.748
  754SOL    HW1 3496   0.254   2.869   2.800
  754SOL    HW2 3497   0.185   3.017   2.803
  755SOL     OW 3498   0.620   3.648   3.301
  755SOL    HW1 3499   0.528   3.631   3.336
  755SOL    HW2 3500   0.648   3.740   3.327
  756SOL     OW 3501   0.606   2.826   1.985
  756SOL    HW1 3502   0.613   2.910   1.931
  756SOL    HW2 3503   0.652   2.839   2.073
  757SOL     OW 3504   1.594   1.976   3.342
  757SOL    HW1 3505   1.576   2.043   3.270
  757SOL    HW2 3506   1.591   2.022   3.431
  758SOL     OW 3507   0.027   3.458   1.979
  758SOL    HW1 3508   0.008   3.362   2.000
  758SOL    HW2 3509  -0.006   3.516   2.054
  759SOL     OW 3510   1.689   2.784   2.474
  759SOL    HW1 3511   1.784   2.755   2.482
  759SOL    HW2 3512   1.681   2.849   2.399
  760SOL     OW 3513   1.641   2.970   2.294
  760SOL    HW1 3514   1.727   2.972   2.242
  760SOL    HW2 3515   1.655   3.017   2.382
  761SOL     OW 3516   0.113   2.599   3.459
  761SOL    HW1 3517   0.201   2.586   3.504
  761SOL    HW2 3518   0.100   2.696   3.437
  762SOL     OW 3519   0.613   3.227   2.588
  762SOL    HW1 3520   0.564   3.140   2.597
  762SOL    HW2 3521   0.590   3.270   2.501
  763SOL     OW 3522   1.293   3.090   3.285
  763SOL    HW1 3523   1.330   3.017   3.227
  763SOL    HW2 3524   1.345   3.095   3.370
  764SOL     OW 3525   0.809   1.866   2.364
  764SOL    HW1 3526   0.849   1.957   2.355
  764SOL    HW2 3527   0.709   1.874   2.370
  765SOL     OW 3528   0.197   2.838   3.126
  765SOL    HW1 3529   0.286   2.793   3.112
  765SOL    HW2 3530   0.124   2.773   3.107
  766SOL     OW 3531   1.525   2.861   2.052
  766SOL    HW1 3532   1.462   2.785   2.065
  766SOL    HW2 3533   1.573   2.879   2.138
  767SOL     OW 3534   1.187   3.654   3.478
  767SOL    HW1 3535   1.211   3.714   3.402
  767SOL    HW2 3536   1.194   3.559   3.448
  768SOL     OW 3537   0.317   2.113   3.663
  768SOL    HW1 3538   0.388   2.184   3.669
  768SOL    HW2 3539   0.229   2.152   3.691
  769SOL     OW 3540   1.466   3.279   2.815
  769SOL    HW1 3541   1.407   3.285   2.895
  769SOL    HW2 3542   1.451   3.191   2.769
  770SOL     OW 3543   1.667   3.576   2.434
  770SOL    HW1 3544   1.626   3.553   2.346
  770SOL    HW2 3545   1.649   3.502   2.499
  771SOL     OW 3546   1.281   2.207   2.806
  771SOL    HW1 3547   1.195   2.157   2.793
  771SOL    HW2 3548   1.343   2.153   2.862
  772SOL     OW 3549   1.576   3.524   2.169
  772SOL    HW1 3550   1.665   3.570   2.172
  772SOL    HW2 3551   1.555   3.500   2.074
  773SOL     OW 3552   0.807   2.467   3.327
  773SOL    HW1 3553   0.760   2.464   3.416
  773SOL    HW2 3554   0.756   2.412   3.261
  774SOL     OW 3555   1.394   2.331   3.536
  774SOL    HW1 3556   1.374   2.374   3.624
  774SOL    HW2 3557   1.472   2.269   3.545
  775SOL     OW 3558   0.973   2.752   3.434
  775SOL    HW1 3559   1.019   2.668   3.405
  775SOL    HW2 3560   0.917   2.786   3.359
  776SOL     OW 3561   0.991   2.272   3.104
  776SOL    HW1 3562   0.914   2.306   3.158
  776SOL    HW2 3563   0.957   2.221   3.025
  777SOL     OW 3564   0.130   3.683   3.433
  777SOL    HW1 3565   0.120   3.668   3.532
  777SOL    HW2 3566   0.044   3.719   3.397
  778SOL     OW 3567   0.865   2.210   2.057
  778SOL    HW1 3568   0.924   2.273   2.008
  778SOL    HW2 3569   0.884   2.116   2.028
  779SOL     OW 3570   1.719   2.447   3.693
  779SOL    HW1 3571   1.693   2.536   3.657
  779SOL    HW2 3572   1.717   2.379   3.620
  780SOL     OW 3573   1.362   3.006   2.407
  780SOL    HW1 3574   1.445   2.977   2.359
  780SOL    HW2 3575   1.313   3.073   2.351
  781SOL     OW 3576   1.008   3.318   2.339
  781SOL    HW1 3577   0.962   3.390   2.287
  781SOL    HW2 3578   1.004   3.338   2.437
  782SOL     OW 3579   0.351   3.663   2.715
  782SOL    HW1 3580   0.401   3.577   2.721
  782SOL    HW2 3581   0.416   3.740   2.712
  783SOL     OW 3582   1.795   2.928   2.735
  783SOL    HW1 3583   1.733   2.913   2.659
  783SOL    HW2 3584   1.743   2.939   2.820
  784SOL     OW 3585   1.227   3.412   3.368
  784SOL    HW1 3586   1.233   3.335   3.432
  784SOL    HW2 3587   1.175   3.386   3.288
  785SOL     OW 3588   0.321   2.805   2.104
  785SOL    HW1 3589   0.403   2.844   2.062
  785SOL    HW2 3590   0.294   2.723   2.055
  786SOL     OW 3591   1.458   2.597   2.590
  786SOL    HW1 3592   1.453   2.532   2.665
  786SOL    HW2 3593   1.538   2.656   2.603
  787SOL     OW 3594   0.461   3.128   3.589
  787SOL    HW1 3595   0.411   3.129   3.503
  787SOL    HW2 3596   0.398   3.110   3.665
  788SOL     OW 3597   1.111   3.638   2.099
  788SOL    HW1 3598   1.051   3.576   2.149
  788SOL    HW2 3599   1.142   3.594   2.014
  789SOL     OW 3600   0.202   2.147   3.360
  789SOL    HW1 3601   0.122   2.207   3.347
  789SOL    HW2 3602   0.192   2.098   3.446
  790SOL     OW 3603   1.632   3.239   1.943
  790SOL    HW1 3604   1.600   3.333   1.933
  790SOL    HW2 3605   1.556   3.176   1.931
  791SOL     OW 3606   0.464   3.605   2.185
  791SOL    HW1 3607   0.497   3.644   2.271
  791SOL    HW2 3608   0.540   3.598   2.120
  792SOL     OW 3609   1.400   1.969   2.288
  792SOL    HW1 3610   1.376   1.932   2.198
  792SOL    HW2 3611   1.499   1.985   2.292
  793SOL     OW 3612   0.249   3.647   3.103
  793SOL    HW1 3613   0.306   3.582   3.153
  793SOL    HW2 3614   0.233   3.614   3.010
  794SOL     OW 3615   0.940   3.560   2.766
  794SOL    HW1 3616   1.020   3.503   2.787
  794SOL    HW2 3617   0.891   3.520   2.689
  795SOL     OW 3618   1.547   2.084   3.591
  795SOL    HW1 3619   1.542   2.121   3.683
  795SOL    HW2 3620   1.475   2.015   3.579
  796SOL     OW 3621   0.614   1.984   1.979
  796SOL    HW1 3622   0.712   1.962   1.986
  796SOL    HW2 3623   0.583   1.967   1.886
  797SOL     OW 3624   0.781   2.126   3.611
  797SOL    HW1 3625   0.848   2.065   3.654
  797SOL    HW2 3626   0.708   2.145   3.676
  798SOL     OW 3627   0.888   3.376   3.057
  798SOL    HW1 3628   0.865   3.351   2.963
  798SOL    HW2 3629   0.949   3.307   3.096
  799SOL     OW 3630   1.351   2.452   3.295
  799SOL    HW1 3631   1.379   2.409   3.380
  799SOL    HW2 3632   1.376   2.548   3.296
  800SOL     OW 3633   0.803   3.264   2.786
  800SOL    HW1 3634   0.893   3.278   2.744
  800SOL    HW2 3635   0.732   3.266   2.715
  801SOL     OW 3636   0.539   1.926   2.374
  801SOL    HW1 3637   0.458   1.927   2.432
  801SOL    HW2 3638   0.542   2.009   2.319
  802SOL     OW 3639   1.434   3.050   1.903
  802SOL    HW1 3640   1.466   2.974   1.960
  802SOL    HW2 3641   1.342   3.077   1.933
  803SOL     OW 3642   0.297   1.897   2.033
  803SOL    HW1 3643   0.346   1.981   2.012
  803SOL    HW2 3644   0.359   1.832   2.078
  804SOL     OW 3645   0.935   2.098   2.342
  804SOL    HW1 3646   0.887   2.139   2.264
  804SOL    HW2 3647   1.034   2.096   2.323
  805SOL     OW 3648   1.076   2.545   3.326
  805SOL    HW1 3649   0.996   2.484   3.329
  805SOL    HW2 3650   1.157   2.492   3.302
  806SOL     OW 3651   1.227   3.432   2.655
  806SOL    HW1 3652   1.248   3.506   2.590
  806SOL    HW2 3653   1.295   3.432   2.728
  807SOL     OW 3654   0.459   3.014   2.603
  807SOL    HW1 3655   0.388   2.987   2.668
  807SOL    HW2 3656   0.433   2.986   2.510
  808SOL     OW 3657   1.271   3.659   2.453
  808SOL    HW1 3658   1.315   3.723   2.389
  808SOL    HW2 3659   1.221   3.711   2.523
  809SOL     OW 3660   1.032   2.411   1.878
  809SOL    HW1 3661   0.991   2.493   1.839
  809SOL    HW2 3662   1.096   2.437   1.951
  810SOL     OW 3663   0.078   2.418   3.248
  810SOL    HW1 3664   0.170   2.417   3.207
  810SOL    HW2 3665   0.072   2.492   3.315
  811SOL     OW 3666   0.561   2.084   3.009
  811SOL    HW1 3667   0.599   2.000   3.046
  811SOL    HW2 3668   0.473   2.103   3.053
  812SOL     OW 3669   1.017   1.901   2.615
  812SOL    HW1 3670   0.945   1.906   2.546
  812SOL    HW2 3671   0.993   1.832   2.684
  813SOL     OW 3672   1.429   3.035   2.729
  813SOL    HW1 3673   1.374   2.951   2.722
  813SOL    HW2 3674   1.455   3.064   2.637
  814SOL     OW 3675   1.466   2.452   2.854
  814SOL    HW1 3676   1.436   2.357   2.861
  814SOL    HW2 3677   1.539   2.468   2.920
  815SOL     OW 3678   1.857   2.695   2.239
  815SOL    HW1 3679   1.899   2.631   2.303
  815SOL    HW2 3680   1.819   2.644   2.161
  816SOL     OW 3681   0.488   3.247   2.036
  816SOL    HW1 3682   0.401   3.232   2.083
  816SOL    HW2 3683   0.471   3.273   1.941
  817SOL     OW 3684   1.664   3.142   2.519
  817SOL    HW1 3685   1.763   3.150   2.533
  817SOL    HW2 3686   1.619   3.226   2.550
  818SOL     OW 3687   1.390   2.437   1.940
  818SOL    HW1 3688   1.336   2.416   2.021
  818SOL    HW2 3689   1.481   2.396   1.949
  819SOL     OW 3690   1.064   3.209   3.202
  819SOL    HW1 3691   0.984   3.186   3.257
  819SOL    HW2 3692   1.147   3.183   3.251
  820SOL     OW 3693   1.111   3.057   2.962
  820SOL    HW1 3694   1.071   3.101   3.043
  820SOL    HW2 3695   1.070   3.094   2.879
  821SOL     OW 3696   1.638   2.961   2.941
  821SOL    HW1 3697   1.643   3.042   3.000
  821SOL    HW2 3698   1.552   2.963   2.890
  822SOL     OW 3699   0.915   1.951   3.264
  822SOL    HW1 3700   0.940   1.931   3.169
  822SOL    HW2 3701   0.987   2.007   3.306
  823SOL     OW 3702   0.980   2.978   3.581
  823SOL    HW1 3703   0.881   2.984   3.591
  823SOL    HW2 3704   1.003   2.898   3.525
  824SOL     OW 3705   0.705   2.912   2.230
  824SOL    HW1 3706   0.691   2.919   2.329
  824SOL    HW2 3707   0.789   2.861   2.212
  825SOL     OW 3708   0.410   2.675   3.113
  825SOL    HW1 3709   0.496   2.687   3.163
  825SOL    HW2 3710   0.368   2.588   3.140
  826SOL     OW 3711   1.274   2.248   3.124
  826SOL    HW1 3712   1.295   2.322   3.188
  826SOL    HW2 3713   1.185   2.265   3.081
  827SOL     OW 3714   0.064   3.426   3.193
  827SOL    HW1 3715   0.018   3.508   3.159
  827SOL    HW2 3716   0.162   3.445   3.202
  828SOL     OW 3717   0.367   2.962   2.363
  828SOL    HW1 3718   0.360   3.045   2.307
  828SOL    HW2 3719   0.371   2.882   2.303
  829SOL     OW 3720   1.252   3.210   2.250
  829SOL    HW1 3721   1.302   3.287   2.290
  829SOL    HW2 3722   1.157   3.212   2.282
  830SOL     OW 3723   1.272   3.307   3.004
  830SOL    HW1 3724   1.319   3.320   3.091
  830SOL    HW2 3725   1.206   3.233   3.013
  831SOL     OW 3726   1.582   2.501   2.334
  831SOL    HW1 3727   1.551   2.562   2.407
  831SOL    HW2 3728   1.632   2.553   2.265
  832SOL     OW 3729   0.354   3.372   3.191
  832SOL    HW1 3730   0.333   3.328   3.104
  832SOL    HW2 3731   0.451   3.398   3.194
  833SOL     OW 3732   0.402   2.613   3.460
  833SOL    HW1 3733   0.470   2.668   3.413
  833SOL    HW2 3734   0.442   2.525   3.487
  834SOL     OW 3735   1.587   2.641   3.532
  834SOL    HW1 3736   1.495   2.679   3.527
  834SOL    HW2 3737   1.647   2.688   3.467
  835SOL     OW 3738   1.013   1.967   3.632
  835SOL    HW1 3739   1.019   2.052   3.580
  835SOL    HW2 3740   1.045   1.891   3.575
  836SOL     OW 3741   0.504   1.912   3.602
  836SOL    HW1 3742   0.462   1.855   3.532
  836SOL    HW2 3743   0.438   1.981   3.634
  837SOL     OW 3744   0.573   2.732   2.891
  837SOL    HW1 3745   0.617   2.821   2.882
  837SOL    HW2 3746   0.510   2.732   2.968
  838SOL     OW 3747   1.360   2.724   2.907
  838SOL    HW1 3748   1.285   2.724   2.841
  838SOL    HW2 3749   1.397   2.632   2.916
  839SOL     OW 3750   1.209   2.387   2.137
  839SOL    HW1 3751   1.222   2.303   2.191
  839SOL    HW2 3752   1.180   2.461   2.197
  840SOL     OW 3753   0.307   2.075   3.093
  840SOL    HW1 3754   0.284   2.112   3.183
  840SOL    HW2 3755   0.277   1.980   3.087
  841SOL     OW 3756   0.037   3.172   3.144
  841SOL    HW1 3757   0.090   3.123   3.212
  841SOL    HW2 3758   0.059   3.270   3.149
  842SOL     OW 3759   0.307   1.925   2.480
  842SOL    HW1 3760   0.296   2.019   2.513
  842SOL    HW2 3761   0.302   1.862   2.557
  843SOL     OW 3762   1.622   2.229   2.236
  843SOL    HW1 3763   1.624   2.153   2.300
  843SOL    HW2 3764   1.574   2.306   2.276
  844SOL     OW 3765   1.023   2.628   2.828
  844SOL    HW1 3766   1.038   2.649   2.924
  844SOL    HW2 3767   0.993   2.533   2.819
  845SOL     OW 3768   0.980   3.435   3.562
  845SOL    HW1 3769   0.960   3.479   3.474
  845SOL    HW2 3770   1.019   3.344   3.546
  846SOL     OW 3771   0.350   2.760   3.666
  846SOL    HW1 3772   0.426   2.804   3.714
  846SOL    HW2 3773   0.385   2.713   3.584
  847SOL     OW 3774   1.540   2.136   1.987
  847SOL    HW1 3775   1.479   2.061   2.010
  847SOL    HW2 3776   1.562   2.188   2.070
  848SOL     OW 3777   1.303   2.700   1.904
  848SOL    HW1 3778   1.337   2.607   1.919
  848SOL    HW2 3779   1.321   2.727   1.809
  849SOL     OW 3780   1.068   3.195   2.711
  849SOL    HW1 3781   1.075   3.111   2.656
  849SOL    HW2 3782   1.130   3.264   2.675
  850SOL     OW 3783   0.319   2.672   2.811
  850SOL    HW1 3784   0.412   2.708   2.816
  850SOL    HW2 3785   0.313   2.587   2.863
  851SOL     OW 3786   1.138   2.242   3.540
  851SOL    HW1 3787   1.093   2.305   3.604
  851SOL    HW2 3788   1.231   2.273   3.523
  852SOL     OW 3789   1.160   2.069   3.339
  852SOL    HW1 3790   1.160   2.133   3.416
  852SOL    HW2 3791   1.188   2.117   3.256
  853SOL     OW 3792   0.008   3.188   2.062
  853SOL    HW1 3793  -0.085   3.209   2.031
  853SOL    HW2 3794   0.018   3.089   2.075
  854SOL     OW 3795   0.088   3.663   2.789
  854SOL    HW1 3796   0.046   3.577   2.762
  854SOL    HW2 3797   0.182   3.666   2.755
  855SOL     OW 3798   0.504   3.430   2.772
  855SOL    HW1 3799   0.570   3.504   2.781
  855SOL    HW2 3800   0.548   3.351   2.730
  856SOL     OW 3801   1.002   2.658   3.100
  856SOL    HW1 3802   1.043   2.626   3.186
  856SOL    HW2 3803   0.906   2.631   3.097
  857SOL     OW 3804   0.040   2.406   2.976
  857SOL    HW1 3805   0.125   2.373   2.935
  857SOL    HW2 3806   0.053   2.421   3.074
  858SOL     OW 3807   0.189   2.382   3.584
  858SOL    HW1 3808   0.248   2.342   3.514
  858SOL    HW2 3809   0.131   2.453   3.543
  859SOL     OW 3810   1.369   2.812   3.522
  859SOL    HW1 3811   1.408   2.901   3.542
  859SOL    HW2 3812   1.379   2.792   3.425
  860SOL     OW 3813   0.815   2.434   2.187
  860SOL    HW1 3814   0.822   2.345   2.141
  860SOL    HW2 3815   0.721   2.468   2.179
  861SOL     OW 3816   1.657   2.466   3.068
  861SOL    HW1 3817   1.619   2.397   3.130
  861SOL    HW2 3818   1.739   2.430   3.024
  862SOL     OW 3819   0.252   3.426   3.606
  862SOL    HW1 3820   0.222   3.483   3.682
  862SOL    HW2 3821   0.245   3.329   3.632
  863SOL     OW 3822   0.671   2.326   3.131
  863SOL    HW1 3823   0.637   2.237   3.101
  863SOL    HW2 3824   0.697   2.380   3.051
  864SOL     OW 3825   0.930   3.540   3.327
  864SOL    HW1 3826   0.906   3.522   3.232
  864SOL    HW2 3827   0.960   3.634   3.337
  865SOL     OW 3828   0.473   2.362   2.053
  865SOL    HW1 3829   0.534   2.442   2.057
  865SOL    HW2 3830   0.378   2.393   2.060
  866SOL     OW 3831   0.159   2.999   3.328
  866SOL    HW1 3832   0.181   2.938   3.404
  866SOL    HW2 3833   0.169   2.950   3.242
  867SOL     OW 3834   1.347   2.921   3.096
  867SOL    HW1 3835   1.371   2.858   3.022
  867SOL    HW2 3836   1.257   2.961   3.078
  868SOL     OW 3837   1.302   2.717   2.171
  868SOL    HW1 3838   1.216   2.686   2.213
  868SOL    HW2 3839   1.298   2.703   2.072
  869SOL     OW 3840   1.759   3.609   3.016
  869SOL    HW1 3841   1.820   3.639   2.943
  869SOL    HW2 3842   1.721   3.520   2.994
  870SOL     OW 3843   1.252   3.593   2.990
  870SOL    HW1 3844   1.336   3.598   2.936
  870SOL    HW2 3845   1.229   3.497   3.008
  871SOL     OW 3846   0.083   3.120   2.884
  871SOL    HW1 3847   0.078   3.119   2.984
  871SOL    HW2 3848   0.000   3.079   2.846
  872SOL     OW 3849   0.688   3.524   3.578
  872SOL    HW1 3850   0.632   3.605   3.587
  872SOL    HW2 3851   0.740   3.528   3.492
  873SOL     OW 3852   1.726   1.997   2.385
  873SOL    HW1 3853   1.799   1.980   2.318
  873SOL    HW2 3854   1.695   1.910   2.423
  874SOL     OW 3855   1.388   3.435   2.339
  874SOL    HW1 3856   1.455   3.447   2.265
  874SOL    HW2 3857   1.348   3.524   2.362
  875SOL     OW 3858   0.130   3.656   3.713
  875SOL    HW1 3859   0.089   3.582   3.766
  875SOL    HW2 3860   0.194   3.707   3.771
  876SOL     OW 3861   1.280   2.789   2.534
  876SOL    HW1 3862   1.340   2.708   2.536
  876SOL    HW2 3863   1.320   2.858   2.474
  877SOL     OW 3864   0.830   3.135   3.284
  877SOL    HW1 3865   0.825   3.168   3.379
  877SOL    HW2 3866   0.744   3.154   3.238
  878SOL     OW 3867   0.672   3.478   2.016
  878SOL    HW1 3868   0.681   3.488   1.917
  878SOL    HW2 3869   0.632   3.389   2.037
  879SOL     OW 3870   1.650   3.582   3.256
  879SOL    HW1 3871   1.703   3.592   3.172
  879SOL    HW2 3872   1.623   3.672   3.290
  880SOL     OW 3873   1.841   2.037   2.825
  880SOL    HW1 3874   1.880   1.952   2.789
  880SOL    HW2 3875   1.743   2.039   2.806
  881SOL     OW 3876   1.194   3.474   1.893
  881SOL    HW1 3877   1.200   3.381   1.930
  881SOL    HW2 3878   1.135   3.474   1.813
  882SOL     OW 3879   0.822   2.864   3.234
  882SOL    HW1 3880   0.862   2.863   3.142
  882SOL    HW2 3881   0.832   2.956   3.274
  883SOL     OW 3882   1.504   3.469   1.906
  883SOL    HW1 3883   1.412   3.506   1.913
  883SOL    HW2 3884   1.542   3.489   1.816
  884SOL     OW 3885   0.372   3.150   3.352
  884SOL    HW1 3886   0.359   3.243   3.318
  884SOL    HW2 3887   0.288   3.098   3.339
  885SOL     OW 3888   1.039   2.960   2.558
  885SOL    HW1 3889   0.969   2.913   2.612
  885SOL    HW2 3890   1.098   2.892   2.515
  886SOL     OW 3891   1.014   2.098   2.833
  886SOL    HW1 3892   1.006   2.062   2.740
  886SOL    HW2 3893   1.012   2.022   2.898
  887SOL     OW 3894   0.590   3.349   2.353
  887SOL    HW1 3895   0.632   3.291   2.283
  887SOL    HW2 3896   0.546   3.428   2.309
  888SOL     OW 3897   1.709   2.247   3.243
  888SOL    HW1 3898   1.782   2.316   3.247
  888SOL    HW2 3899   1.737   2.172   3.184
  889SOL     OW 3900   0.255   3.210   2.152
  889SOL    HW1 3901   0.159   3.211   2.125
  889SOL    HW2 3902   0.267   3.263   2.236
  890SOL     OW 3903   0.105   2.875   3.588
  890SOL    HW1 3904   0.028   2.842   3.642
  890SOL    HW2 3905   0.190   2.845   3.630
  891SOL     OW 3906   0.672   2.065   3.351
  891SOL    HW1 3907   0.762   2.049   3.311
  891SOL    HW2 3908   0.680   2.070   3.450
  892SOL     OW 3909   1.440   2.718   3.260
  892SOL    HW1 3910   1.383   2.770   3.197
  892SOL    HW2 3911   1.536   2.730   3.236
  893SOL     OW 3912   1.183   3.197   1.981
  893SOL    HW1 3913   1.084   3.186   1.983
  893SOL    HW2 3914   1.217   3.212   2.074
  894SOL     OW 3915   0.613   2.704   3.293
  894SOL    HW1 3916   0.669   2.785   3.276
  894SOL    HW2 3917   0.672   2.624   3.296
  895SOL     OW 3918   1.493   3.629   2.821
  895SOL    HW1 3919   1.526   3.693   2.752
  895SOL    HW2 3920   1.559   3.623   2.896
  896SOL     OW 3921   0.716   2.427   3.570
  896SOL    HW1 3922   0.735   2.492   3.644
  896SOL    HW2 3923   0.776   2.347   3.579
  897SOL     OW 3924   0.390   3.603   3.422
  897SOL    HW1 3925   0.299   3.644   3.420
  897SOL    HW2 3926   0.383   3.509   3.454
  898SOL     OW 3927   1.674   2.745   3.116
  898SOL    HW1 3928   1.647   2.656   3.079
  898SOL    HW2 3929   1.675   2.813   3.043
  899SOL     OW 3930   1.225   2.187   2.311
  899SOL    HW1 3931   1.290   2.113   2.300
  899SOL    HW2 3932   1.245   2.237   2.395
  900SOL     OW 3933   1.777   2.204   3.504
  900SOL    HW1 3934   1.760   2.235   3.410
  900SOL    HW2 3935   1.693   2.167   3.542
  901SOL     OW 3936   1.730   2.796   3.379
  901SOL    HW1 3937   1.768   2.887   3.394
  901SOL    HW2 3938   1.722   2.779   3.280
  902SOL     OW 3939   0.859   3.236   1.878
  902SOL    HW1 3940   0.813   3.251   1.966
  902SOL    HW2 3941   0.903   3.321   1.848
  903SOL     OW 3942   0.661   3.652   2.815
  903SOL    HW1 3943   0.615   3.740   2.802
  903SOL    HW2 3944   0.760   3.664   2.808
  904SOL     OW 3945   0.859   2.818   2.723
  904SOL    HW1 3946   0.913   2.749   2.771
  904SOL    HW2 3947   0.827   2.887   2.789
  905SOL     OW 3948   1.083   2.846   1.949
  905SOL    HW1 3949   1.060   2.899   1.867
  905SOL    HW2 3950   1.164   2.790   1.930
  906SOL     OW 3951   1.861   3.431   2.713
  906SOL    HW1 3952   1.790   3.419   2.643
  906SOL    HW2 3953   1.862   3.352   2.773
  907SOL     OW 3954   0.221   3.176   3.706
  907SOL    HW1 3955   0.156   3.103   3.685
  907SOL    HW2 3956   0.225   3.190   3.804
  908SOL     OW 3957   0.079   3.102   2.515
  908SOL    HW1 3958   0.078   3.055   2.603
  908SOL    HW2 3959   0.161   3.074   2.464
  909SOL     OW 3960   0.672   3.253   3.486
  909SOL    HW1 3961   0.594   3.203   3.524
  909SOL    HW2 3962   0.669   3.348   3.517
  910SOL     OW 3963   1.824   2.054   3.089
  910SOL    HW1 3964   1.820   1.964   3.133
  910SOL    HW2 3965   1.827   2.043   2.990
  911SOL     OW 3966   0.317   2.409   3.142
  911SOL    HW1 3967   0.355   2.350   3.214
  911SOL    HW2 3968   0.357   2.383   3.054
  912SOL     OW 3969   0.812   3.448   2.549
  912SOL    HW1 3970   0.844   3.458   2.455
  912SOL    HW2 3971   0.733   3.386   2.551
  913SOL     OW 3972   1.424   2.076   2.974
  913SOL    HW1 3973   1.476   2.011   3.029
  913SOL    HW2 3974   1.375   2.139   3.035
  914SOL     OW 3975   1.001   1.896   3.016
  914SOL    HW1 3976   0.938   1.824   2.985
  914SOL    HW2 3977   1.094   1.860   3.016
  915SOL     OW 3978   0.770   3.192   2.163
  915SOL    HW1 3979   0.724   3.105   2.180
  915SOL    HW2 3980   0.861   3.189   2.204
  916SOL     OW 3981   0.618   3.429   3.146
  916SOL    HW1 3982   0.613   3.511   3.203
  916SOL    HW2 3983   0.707   3.426   3.101
  917SOL     OW 3984   1.352   1.914   2.030
  917SOL    HW1 3985   1.387   1.873   1.946
  917SOL    HW2 3986   1.262   1.876   2.050
  918SOL     OW 3987   1.300   2.315   2.553
  918SOL    HW1 3988   1.241   2.395   2.557
  918SOL    HW2 3989   1.315   2.280   2.646
  919SOL     OW 3990   1.593   2.083   2.744
  919SOL    HW1 3991   1.509   2.082   2.798
  919SOL    HW2 3992   1.595   2.166   2.688
  920SOL     OW 3993   0.039   2.939   2.162
  920SOL    HW1 3994   0.138   2.928   2.153
  920SOL    HW2 3995  -0.001   2.853   2.194
  921SOL     OW 3996   0.875   3.508   2.199
  921SOL    HW1 3997   0.798   3.473   2.145
  921SOL    HW2 3998   0.843   3.579   2.261
  922SOL     OW 3999   0.230   2.490   3.837
  922SOL    HW1 4000   0.137   2.488   3.874
  922SOL    HW2 4001   0.231   2.451   3.745
  923SOL     OW 4002   0.225   2.137   4.720
  923SOL    HW1 4003   0.260   2.120   4.812
  923SOL    HW2 4004   0.137   2.092   4.708
  924SOL     OW 4005   0.019   2.230   4.371
  924SOL    HW1 4006  -0.063   2.273   4.410
  924SOL    HW2 4007  -0.009   2.157   4.308
  925SOL     OW 4008   1.555   3.373   4.427
  925SOL    HW1 4009   1.498   3.357   4.508
  925SOL    HW2 4010   1.496   3.383   4.347
  926SOL     OW 4011   1.135   2.565   4.441
  926SOL    HW1 4012   1.192   2.643   4.416
  926SOL    HW2 4013   1.075   2.591   4.517
  927SOL     OW 4014   0.768   3.006   4.747
  927SOL    HW1 4015   0.690   3.023   4.807
  927SOL    HW2 4016   0.802   3.093   4.711
  928SOL     OW 4017   0.685   2.874   4.389
  928SOL    HW1 4018   0.754   2.858   4.459
  928SOL    HW2 4019   0.612   2.931   4.427
  929SOL     OW 4020   0.335   3.297   4.785
  929SOL    HW1 4021   0.257   3.266   4.732
  929SOL    HW2 4022   0.393   3.355   4.728
  930SOL     OW 4023   1.603   2.309   4.461
  930SOL    HW1 4024   1.529   2.355   4.411
  930SOL    HW2 4025   1.654   2.377   4.514
  931SOL     OW 4026   0.231   3.575   4.207
  931SOL    HW1 4027   0.265   3.652   4.261
  931SOL    HW2 4028   0.275   3.575   4.117
  932SOL     OW 4029   0.230   3.296   4.262
  932SOL    HW1 4030   0.204   3.392   4.262
  932SOL    HW2 4031   0.159   3.242   4.307
  933SOL     OW 4032   0.240   2.953   4.610
  933SOL    HW1 4033   0.254   2.869   4.662
  933SOL    HW2 4034   0.185   3.017   4.665
  934SOL     OW 4035   0.606   2.826   3.847
  934SOL    HW1 4036   0.613   2.910   3.793
  934SOL    HW2 4037   0.652   2.839   3.935
  935SOL     OW 4038   0.122   2.505   4.287
  935SOL    HW1 4039   0.077   2.417   4.304
  935SOL    HW2 4040   0.121   2.559   4.371
  936SOL     OW 4041   0.027   3.458   3.841
  936SOL    HW1 4042   0.008   3.362   3.862
  936SOL    HW2 4043  -0.006   3.516   3.916
  937SOL     OW 4044   0.613   3.227   4.450
  937SOL    HW1 4045   0.564   3.140   4.459
  937SOL    HW2 4046   0.590   3.270   4.363
  938SOL     OW 4047   0.809   1.866   4.226
  938SOL    HW1 4048   0.849   1.957   4.217
  938SOL    HW2 4049   0.709   1.874   4.232
  939SOL     OW 4050   0.197   2.838   4.988
  939SOL    HW1 4051   0.286   2.793   4.974
  939SOL    HW2 4052   0.124   2.773   4.969
  940SOL     OW 4053   1.466   3.279   4.677
  940SOL    HW1 4054   1.407   3.285   4.757
  940SOL    HW2 4055   1.451   3.191   4.631
  941SOL     OW 4056   1.667   3.576   4.296
  941SOL    HW1 4057   1.626   3.553   4.208
  941SOL    HW2 4058   1.649   3.502   4.361
  942SOL     OW 4059   0.598   2.591   3.994
  942SOL    HW1 4060   0.622   2.660   3.926
  942SOL    HW2 4061   0.520   2.624   4.048
  943SOL     OW 4062   1.281   2.207   4.668
  943SOL    HW1 4063   1.195   2.157   4.655
  943SOL    HW2 4064   1.343   2.153   4.724
  944SOL     OW 4065   1.041   2.563   4.153
  944SOL    HW1 4066   1.067   2.559   4.249
  944SOL    HW2 4067   0.956   2.512   4.139
  945SOL     OW 4068   0.076   2.673   4.513
  945SOL    HW1 4069   0.175   2.661   4.522
  945SOL    HW2 4070   0.052   2.768   4.534
  946SOL     OW 4071   0.865   2.210   3.919
  946SOL    HW1 4072   0.924   2.273   3.870
  946SOL    HW2 4073   0.884   2.116   3.890
  947SOL     OW 4074   0.550   2.058   4.609
  947SOL    HW1 4075   0.545   2.053   4.709
  947SOL    HW2 4076   0.552   2.154   4.580
  948SOL     OW 4077   1.008   3.318   4.201
  948SOL    HW1 4078   0.962   3.390   4.149
  948SOL    HW2 4079   1.004   3.338   4.299
  949SOL     OW 4080   0.351   3.663   4.577
  949SOL    HW1 4081   0.401   3.577   4.583
  949SOL    HW2 4082   0.416   3.740   4.574
  950SOL     OW 4083   1.795   2.928   4.597
  950SOL    HW1 4084   1.733   2.913   4.521
  950SOL    HW2 4085   1.743   2.939   4.682
  951SOL     OW 4086   0.321   2.805   3.966
  951SOL    HW1 4087   0.403   2.844   3.924
  951SOL    HW2 4088   0.294   2.723   3.917
  952SOL     OW 4089   1.458   2.597   4.452
  952SOL    HW1 4090   1.453   2.532   4.527
  952SOL    HW2 4091   1.538   2.656   4.465
  953SOL     OW 4092   1.111   3.638   3.961
  953SOL    HW1 4093   1.051   3.576   4.011
  953SOL    HW2 4094   1.142   3.594   3.876
  954SOL     OW 4095   1.632   3.239   3.805
  954SOL    HW1 4096   1.600   3.333   3.795
  954SOL    HW2 4097   1.556   3.176   3.793
  955SOL     OW 4098   0.464   3.605   4.047
  955SOL    HW1 4099   0.497   3.644   4.133
  955SOL    HW2 4100   0.540   3.598   3.982
  956SOL     OW 4101   1.400   1.969   4.150
  956SOL    HW1 4102   1.376   1.932   4.060
  956SOL    HW2 4103   1.499   1.985   4.154
  957SOL     OW 4104   0.249   3.647   4.965
  957SOL    HW1 4105   0.306   3.582   5.015
  957SOL    HW2 4106   0.233   3.614   4.872
  958SOL     OW 4107   0.382   2.562   4.204
  958SOL    HW1 4108   0.427   2.472   4.201
  958SOL    HW2 4109   0.288   2.551   4.237
  959SOL     OW 4110   0.614   1.984   3.841
  959SOL    HW1 4111   0.712   1.962   3.848
  959SOL    HW2 4112   0.583   1.967   3.748
  960SOL     OW 4113   0.539   1.926   4.236
  960SOL    HW1 4114   0.458   1.927   4.294
  960SOL    HW2 4115   0.542   2.009   4.181
  961SOL     OW 4116   0.297   1.897   3.895
  961SOL    HW1 4117   0.346   1.981   3.874
  961SOL    HW2 4118   0.359   1.832   3.940
  962SOL     OW 4119   0.935   2.098   4.204
  962SOL    HW1 4120   0.887   2.139   4.126
  962SOL    HW2 4121   1.034   2.096   4.185
  963SOL     OW 4122   1.227   3.432   4.517
  963SOL    HW1 4123   1.248   3.506   4.452
  963SOL    HW2 4124   1.295   3.432   4.590
  964SOL     OW 4125   0.459   3.014   4.465
  964SOL    HW1 4126   0.388   2.987   4.530
  964SOL    HW2 4127   0.433   2.986   4.372
  965SOL     OW 4128   1.271   3.659   4.315
  965SOL    HW1 4129   1.315   3.723   4.251
  965SOL    HW2 4130   1.221   3.711   4.385
  966SOL     OW 4131   1.032   2.411   3.740
  966SOL    HW1 4132   0.991   2.493   3.701
  966SOL    HW2 4133   1.096   2.437   3.813
  967SOL     OW 4134   0.561   2.084   4.871
  967SOL    HW1 4135   0.599   2.000   4.908
  967SOL    HW2 4136   0.473   2.103   4.915
  968SOL     OW 4137   0.866   2.316   4.366
  968SOL    HW1 4138   0.834   2.388   4.304
  968SOL    HW2 4139   0.890   2.235   4.313
  969SOL     OW 4140   1.017   1.901   4.477
  969SOL    HW1 4141   0.945   1.906   4.408
  969SOL    HW2 4142   0.993   1.832   4.546
  970SOL     OW 4143   1.429   3.035   4.591
  970SOL    HW1 4144   1.374   2.951   4.584
  970SOL    HW2 4145   1.455   3.064   4.499
  971SOL     OW 4146   1.466   2.452   4.716
  971SOL    HW1 4147   1.436   2.357   4.723
  971SOL    HW2 4148   1.539   2.468   4.782
  972SOL     OW 4149   0.488   3.247   3.898
  972SOL    HW1 4150   0.401   3.232   3.945
  972SOL    HW2 4151   0.471   3.273   3.803
  973SOL     OW 4152   1.664   3.142   4.381
  973SOL    HW1 4153   1.763   3.150   4.395
  973SOL    HW2 4154   1.619   3.226   4.412
  974SOL     OW 4155   1.390   2.437   3.802
  974SOL    HW1 4156   1.336   2.416   3.883
  974SOL    HW2 4157   1.481   2.396   3.811
  975SOL     OW 4158   0.527   2.118   4.052
  975SOL    HW1 4159   0.554   2.059   3.977
  975SOL    HW2 4160   0.527   2.213   4.021
  976SOL     OW 4161   1.111   3.057   4.824
  976SOL    HW1 4162   1.071   3.101   4.905
  976SOL    HW2 4163   1.070   3.094   4.741
  977SOL     OW 4164   1.638   2.961   4.803
  977SOL    HW1 4165   1.643   3.042   4.862
  977SOL    HW2 4166   1.552   2.963   4.752
  978SOL     OW 4167   0.705   2.912   4.092
  978SOL    HW1 4168   0.691   2.919   4.191
  978SOL    HW2 4169   0.789   2.861   4.074
  979SOL     OW 4170   0.410   2.675   4.975
  979SOL    HW1 4171   0.496   2.687   5.025
  979SOL    HW2 4172   0.368   2.588   5.002
  980SOL     OW 4173   1.274   2.248   4.986
  980SOL    HW1 4174   1.295   2.322   5.050
  980SOL    HW2 4175   1.185   2.265   4.943
  981SOL     OW 4176   0.367   2.962   4.225
  981SOL    HW1 4177   0.360   3.045   4.169
  981SOL    HW2 4178   0.371   2.882   4.165
  982SOL     OW 4179   0.566   2.399   4.589
  982SOL    HW1 4180   0.578   2.465   4.515
  982SOL    HW2 4181   0.612   2.433   4.672
  983SOL     OW 4182   1.252   3.210   4.112
  983SOL    HW1 4183   1.302   3.287   4.152
  983SOL    HW2 4184   1.157   3.212   4.144
  984SOL     OW 4185   1.272   3.307   4.866
  984SOL    HW1 4186   1.319   3.320   4.953
  984SOL    HW2 4187   1.206   3.233   4.875
  985SOL     OW 4188   0.354   3.372   5.053
  985SOL    HW1 4189   0.333   3.328   4.966
  985SOL    HW2 4190   0.451   3.398   5.056
  986SOL     OW 4191   0.573   2.732   4.753
  986SOL    HW1 4192   0.617   2.821   4.744
  986SOL    HW2 4193   0.510   2.732   4.830
  987SOL     OW 4194   1.360   2.724   4.769
  987SOL    HW1 4195   1.285   2.724   4.703
  987SOL    HW2 4196   1.397   2.632   4.778
  988SOL     OW 4197   1.209   2.387   3.999
  988SOL    HW1 4198   1.222   2.303   4.053
  988SOL    HW2 4199   1.180   2.461   4.059
  989SOL     OW 4200   0.307   2.075   4.955
  989SOL    HW1 4201   0.284   2.112   5.045
  989SOL    HW2 4202   0.277   1.980   4.949
  990SOL     OW 4203   0.037   3.172   5.006
  990SOL    HW1 4204   0.090   3.123   5.074
  990SOL    HW2 4205   0.059   3.270   5.011
  991SOL     OW 4206   0.732   2.496   4.788
  991SOL    HW1 4207   0.791   2.470   4.712
  991SOL    HW2 4208   0.704   2.592   4.777
  992SOL     OW 4209   0.307   1.925   4.342
  992SOL    HW1 4210   0.296   2.019   4.375
  992SOL    HW2 4211   0.302   1.862   4.419
  993SOL     OW 4212   1.622   2.229   4.098
  993SOL    HW1 4213   1.624   2.153   4.162
  993SOL    HW2 4214   1.574   2.306   4.138
  994SOL     OW 4215   1.023   2.628   4.690
  994SOL    HW1 4216   1.038   2.649   4.786
  994SOL    HW2 4217   0.993   2.533   4.681
  995SOL     OW 4218   1.540   2.136   3.849
  995SOL    HW1 4219   1.479   2.061   3.872
  995SOL    HW2 4220   1.562   2.188   3.932
  996SOL     OW 4221   1.303   2.700   3.766
  996SOL    HW1 4222   1.337   2.607   3.781
  996SOL    HW2 4223   1.321   2.727   3.671
  997SOL     OW 4224   1.068   3.195   4.573
  997SOL    HW1 4225   1.075   3.111   4.518
  997SOL    HW2 4226   1.130   3.264   4.537
  998SOL     OW 4227   0.319   2.672   4.673
  998SOL    HW1 4228   0.412   2.708   4.678
  998SOL    HW2 4229   0.313   2.587   4.725
  999SOL     OW 4230   0.339   2.371   4.730
  999SOL    HW1 4231   0.287   2.288   4.713
  999SOL    HW2 4232   0.416   2.376   4.666
 1000SOL     OW 4233   0.008   3.188   3.924
 1000SOL    HW1 4234  -0.085   3.209   3.893
 1000SOL    HW2 4235   0.018   3.089   3.937
 1001SOL     OW 4236   0.088   3.663   4.651
 1001SOL    HW1 4237   0.046   3.577   4.624
 1001SOL    HW2 4238   0.182   3.666   4.617
 1002SOL     OW 4239   0.504   3.430   4.634
 1002SOL    HW1 4240   0.570   3.504   4.643
 1002SOL    HW2 4241   0.548   3.351   4.592
 1003SOL     OW 4242   1.002   2.658   4.962
 1003SOL    HW1 4243   1.043   2.626   5.048
 1003SOL    HW2 4244   0.906   2.631   4.959
 1004SOL     OW 4245   0.040   2.406   4.838
 1004SOL    HW1 4246   0.125   2.373   4.797
 1004SOL    HW2 4247   0.053   2.421   4.936
 1005SOL     OW 4248   0.815   2.434   4.049
 1005SOL    HW1 4249   0.822   2.345   4.003
 1005SOL    HW2 4250   0.721   2.468   4.041
 1006SOL     OW 4251   1.657   2.466   4.930
 1006SOL    HW1 4252   1.619   2.397   4.992
 1006SOL    HW2 4253   1.739   2.430   4.886
 1007SOL     OW 4254   0.671   2.326   4.993
 1007SOL    HW1 4255   0.637   2.237   4.963
 1007SOL    HW2 4256   0.697   2.380   4.913
 1008SOL     OW 4257   0.473   2.362   3.915
 1008SOL    HW1 4258   0.534   2.442   3.919
 1008SOL    HW2 4259   0.378   2.393   3.922
 1009SOL     OW 4260   1.347   2.921   4.958
 1009SOL    HW1 4261   1.371   2.858   4.884
 1009SOL    HW2 4262   1.257   2.961   4.940
 1010SOL     OW 4263   1.302   2.717   4.033
 1010SOL    HW1 4264   1.216   2.686   4.075
 1010SOL    HW2 4265   1.298   2.703   3.934
 1011SOL     OW 4266   1.759   3.609   4.878
 1011SOL    HW1 4267   1.820   3.639   4.805
 1011SOL    HW2 4268   1.721   3.520   4.856
 1012SOL     OW 4269   1.252   3.593   4.852
 1012SOL    HW1 4270   1.336   3.598   4.798
 1012SOL    HW2 4271   1.229   3.497   4.870
 1013SOL     OW 4272   0.083   3.120   4.746
 1013SOL    HW1 4273   0.078   3.119   4.846
 1013SOL    HW2 4274   0.000   3.079   4.708
 1014SOL     OW 4275   1.726   1.997   4.247
 1014SOL    HW1 4276   1.799   1.980   4.180
 1014SOL    HW2 4277   1.695   1.910   4.285
 1015SOL     OW 4278   1.388   3.435   4.201
 1015SOL    HW1 4279   1.455   3.447   4.127
 1015SOL    HW2 4280   1.348   3.524   4.224
 1016SOL     OW 4281   0.672   3.478   3.878
 1016SOL    HW1 4282   0.681   3.488   3.779
 1016SOL    HW2 4283   0.632   3.389   3.899
 1017SOL     OW 4284   1.650   3.582   5.118
 1017SOL    HW1 4285   1.703   3.592   5.034
 1017SOL    HW2 4286   1.623   3.672   5.152
 1018SOL     OW 4287   1.841   2.037   4.687
 1018SOL    HW1 4288   1.880   1.952   4.651
 1018SOL    HW2 4289   1.743   2.039   4.668
 1019SOL     OW 4290   0.263   2.188   4.444
 1019SOL    HW1 4291   0.184   2.239   4.410
 1019SOL    HW2 4292   0.254   2.173   4.542
 1020SOL     OW 4293   1.194   3.474   3.755
 1020SOL    HW1 4294   1.200   3.381   3.792
 1020SOL    HW2 4295   1.135   3.474   3.675
 1021SOL     OW 4296   0.822   2.864   5.096
 1021SOL    HW1 4297   0.862   2.863   5.004
 1021SOL    HW2 4298   0.832   2.956   5.136
 1022SOL     OW 4299   0.916   2.772   4.015
 1022SOL    HW1 4300   0.979   2.810   3.947
 1022SOL    HW2 4301   0.956   2.689   4.054
 1023SOL     OW 4302   1.039   2.960   4.420
 1023SOL    HW1 4303   0.969   2.913   4.474
 1023SOL    HW2 4304   1.098   2.892   4.377
 1024SOL     OW 4305   1.014   2.098   4.695
 1024SOL    HW1 4306   1.006   2.062   4.602
 1024SOL    HW2 4307   1.012   2.022   4.760
 1025SOL     OW 4308   0.590   3.349   4.215
 1025SOL    HW1 4309   0.632   3.291   4.145
 1025SOL    HW2 4310   0.546   3.428   4.171
 1026SOL     OW 4311   1.709   2.247   5.105
 1026SOL    HW1 4312   1.782   2.316   5.109
 1026SOL    HW2 4313   1.737   2.172   5.046
 1027SOL     OW 4314   0.255   3.210   4.014
 1027SOL    HW1 4315   0.159   3.211   3.987
 1027SOL    HW2 4316   0.267   3.263   4.098
 1028SOL     OW 4317   0.075   2.207   3.757
 1028SOL    HW1 4318  -0.017   2.179   3.728
 1028SOL    HW2 4319   0.106   2.284   3.701
 1029SOL     OW 4320   0.072   2.028   4.042
 1029SOL    HW1 4321   0.055   2.111   3.988
 1029SOL    HW2 4322   0.162   1.991   4.020
 1030SOL     OW 4323   1.493   3.629   4.683
 1030SOL    HW1 4324   1.526   3.693   4.614
 1030SOL    HW2 4325   1.559   3.623   4.758
 1031SOL     OW 4326   1.450   3.082   5.357
 1031SOL    HW1 4327   1.441   3.072   5.456
 1031SOL    HW2 4328   1.546   3.075   5.331
 1032SOL     OW 4329   1.674   2.745   4.978
 1032SOL    HW1 4330   1.647   2.656   4.941
 1032SOL    HW2 4331   1.675   2.813   4.905
 1033SOL     OW 4332   1.225   2.187   4.173
 1033SOL    HW1 4333   1.290   2.113   4.162
 1033SOL    HW2 4334   1.245   2.237   4.257
 1034SOL     OW 4335   0.594   2.607   4.376
 1034SOL    HW1 4336   0.644   2.692   4.357
 1034SOL    HW2 4337   0.506   2.609   4.328
 1035SOL     OW 4338   1.730   2.796   5.241
 1035SOL    HW1 4339   1.768   2.887   5.256
 1035SOL    HW2 4340   1.722   2.779   5.142
 1036SOL     OW 4341   0.859   3.236   3.740
 1036SOL    HW1 4342   0.813   3.251   3.828
 1036SOL    HW2 4343   0.903   3.321   3.710
 1037SOL     OW 4344   0.661   3.652   4.677
 1037SOL    HW1 4345   0.615   3.740   4.664
 1037SOL    HW2 4346   0.760   3.664   4.670
 1038SOL     OW 4347   0.859   2.818   4.585
 1038SOL    HW1 4348   0.913   2.749   4.633
 1038SOL    HW2 4349   0.827   2.887   4.651
 1039SOL     OW 4350   1.083   2.846   3.811
 1039SOL    HW1 4351   1.060   2.899   3.729
 1039SOL    HW2 4352   1.164   2.790   3.792
 1040SOL     OW 4353   1.861   3.431   4.575
 1040SOL    HW1 4354   1.790   3.419   4.505
 1040SOL    HW2 4355   1.862   3.352   4.635
 1041SOL     OW 4356   0.079   3.102   4.377
 1041SOL    HW1 4357   0.078   3.055   4.465
 1041SOL    HW2 4358   0.161   3.074   4.326
 1042SOL     OW 4359   1.824   2.054   4.951
 1042SOL    HW1 4360   1.820   1.964   4.995
 1042SOL    HW2 4361   1.827   2.043   4.852
 1043SOL     OW 4362   0.428   2.286   4.244
 1043SOL    HW1 4363   0.458   2.214   4.182
 1043SOL    HW2 4364   0.389   2.246   4.327
 1044SOL     OW 4365   1.705   3.349   4.828
 1044SOL    HW1 4366   1.612   3.324   4.801
 1044SOL    HW2 4367   1.731   3.299   4.910
 1045SOL     OW 4368   0.812   3.448   4.411
 1045SOL    HW1 4369   0.844   3.458   4.317
 1045SOL    HW2 4370   0.733   3.386   4.413
 1046SOL     OW 4371   1.424   2.076   4.836
 1046SOL    HW1 4372   1.476   2.011   4.891
 1046SOL    HW2 4373   1.375   2.139   4.897
 1047SOL     OW 4374   0.770   3.192   4.025
 1047SOL    HW1 4375   0.724   3.105   4.042
 1047SOL    HW2 4376   0.861   3.189   4.066
 1048SOL     OW 4377   1.352   1.914   3.892
 1048SOL    HW1 4378   1.387   1.873   3.808
 1048SOL    HW2 4379   1.262   1.876   3.912
 1049SOL     OW 4380   1.300   2.315   4.415
 1049SOL    HW1 4381   1.241   2.395   4.419
 1049SOL    HW2 4382   1.315   2.280   4.508
 1050SOL     OW 4383   1.593   2.083   4.606
 1050SOL    HW1 4384   1.509   2.082   4.660
 1050SOL    HW2 4385   1.595   2.166   4.550
 1051SOL     OW 4386   0.039   2.939   4.024
 1051SOL    HW1 4387   0.138   2.928   4.015
 1051SOL    HW2 4388  -0.001   2.853   4.056
 1052SOL     OW 4389   0.875   3.508   4.061
 1052SOL    HW1 4390   0.798   3.473   4.007
 1052SOL    HW2 4391   0.843   3.579   4.123
 1053SOL     OW 4392   0.230   4.352   0.113
 1053SOL    HW1 4393   0.137   4.350   0.150
 1053SOL    HW2 4394   0.231   4.313   0.021
 1054SOL     OW 4395   0.225   3.999   0.996
 1054SOL    HW1 4396   0.260   3.982   1.088
 1054SOL    HW2 4397   0.137   3.954   0.984
 1055SOL     OW 4398   0.019   4.092   0.647
 1055SOL    HW1 4399  -0.063   4.135   0.686
 1055SOL    HW2 4400  -0.009   4.019   0.584
 1056SOL     OW 4401   0.569   4.999   1.165
 1056SOL    HW1 4402   0.476   4.992   1.128
 1056SOL    HW2 4403   0.580   5.088   1.209
 1057SOL     OW 4404   1.555   5.235   0.703
 1057SOL    HW1 4405   1.498   5.219   0.784
 1057SOL    HW2 4406   1.496   5.245   0.623
 1058SOL     OW 4407   1.135   4.427   0.717
 1058SOL    HW1 4408   1.192   4.505   0.692
 1058SOL    HW2 4409   1.075   4.453   0.793
 1059SOL     OW 4410   1.755   4.331   0.231
 1059SOL    HW1 4411   1.743   4.318   0.132
 1059SOL    HW2 4412   1.725   4.250   0.280
 1060SOL     OW 4413   0.768   4.868   1.023
 1060SOL    HW1 4414   0.690   4.885   1.083
 1060SOL    HW2 4415   0.802   4.955   0.987
 1061SOL     OW 4416   0.850   4.522   1.823
 1061SOL    HW1 4417   0.846   4.598   1.888
 1061SOL    HW2 4418   0.872   4.558   1.732
 1062SOL     OW 4419   0.686   4.885   1.803
 1062SOL    HW1 4420   0.746   4.964   1.817
 1062SOL    HW2 4421   0.600   4.916   1.762
 1063SOL     OW 4422   0.335   5.159   1.061
 1063SOL    HW1 4423   0.257   5.128   1.008
 1063SOL    HW2 4424   0.393   5.217   1.004
 1064SOL     OW 4425   0.438   4.116   1.499
 1064SOL    HW1 4426   0.520   4.060   1.508
 1064SOL    HW2 4427   0.357   4.058   1.503
 1065SOL     OW 4428   1.603   4.171   0.737
 1065SOL    HW1 4429   1.529   4.217   0.687
 1065SOL    HW2 4430   1.654   4.239   0.790
 1066SOL     OW 4431   0.240   4.815   0.886
 1066SOL    HW1 4432   0.254   4.731   0.938
 1066SOL    HW2 4433   0.185   4.879   0.941
 1067SOL     OW 4434   1.594   3.838   1.480
 1067SOL    HW1 4435   1.576   3.905   1.408
 1067SOL    HW2 4436   1.591   3.884   1.569
 1068SOL     OW 4437   0.122   4.367   0.563
 1068SOL    HW1 4438   0.077   4.279   0.580
 1068SOL    HW2 4439   0.121   4.421   0.647
 1069SOL     OW 4440   1.689   4.646   0.612
 1069SOL    HW1 4441   1.784   4.617   0.620
 1069SOL    HW2 4442   1.681   4.711   0.537
 1070SOL     OW 4443   1.641   4.832   0.432
 1070SOL    HW1 4444   1.727   4.834   0.380
 1070SOL    HW2 4445   1.655   4.879   0.520
 1071SOL     OW 4446   0.113   4.461   1.597
 1071SOL    HW1 4447   0.201   4.448   1.642
 1071SOL    HW2 4448   0.100   4.558   1.575
 1072SOL     OW 4449   1.293   4.952   1.423
 1072SOL    HW1 4450   1.330   4.879   1.365
 1072SOL    HW2 4451   1.345   4.957   1.508
 1073SOL     OW 4452   0.809   3.728   0.502
 1073SOL    HW1 4453   0.849   3.819   0.493
 1073SOL    HW2 4454   0.709   3.736   0.508
 1074SOL     OW 4455   0.197   4.700   1.264
 1074SOL    HW1 4456   0.286   4.655   1.250
 1074SOL    HW2 4457   0.124   4.635   1.245
 1075SOL     OW 4458   1.525   4.723   0.190
 1075SOL    HW1 4459   1.462   4.647   0.203
 1075SOL    HW2 4460   1.573   4.741   0.276
 1076SOL     OW 4461   0.317   3.975   1.801
 1076SOL    HW1 4462   0.388   4.046   1.807
 1076SOL    HW2 4463   0.229   4.014   1.829
 1077SOL     OW 4464   1.466   5.141   0.953
 1077SOL    HW1 4465   1.407   5.147   1.033
 1077SOL    HW2 4466   1.451   5.053   0.907
 1078SOL     OW 4467   1.281   4.069   0.944
 1078SOL    HW1 4468   1.195   4.019   0.931
 1078SOL    HW2 4469   1.343   4.015   1.000
 1079SOL     OW 4470   0.807   4.329   1.465
 1079SOL    HW1 4471   0.760   4.326   1.554
 1079SOL    HW2 4472   0.756   4.274   1.399
 1080SOL     OW 4473   1.394   4.193   1.674
 1080SOL    HW1 4474   1.374   4.236   1.762
 1080SOL    HW2 4475   1.472   4.131   1.683
 1081SOL     OW 4476   0.973   4.614   1.572
 1081SOL    HW1 4477   1.019   4.530   1.543
 1081SOL    HW2 4478   0.917   4.648   1.497
 1082SOL     OW 4479   0.991   4.134   1.242
 1082SOL    HW1 4480   0.914   4.168   1.296
 1082SOL    HW2 4481   0.957   4.083   1.163
 1083SOL     OW 4482   1.041   4.425   0.429
 1083SOL    HW1 4483   1.067   4.421   0.525
 1083SOL    HW2 4484   0.956   4.374   0.415
 1084SOL     OW 4485   0.076   4.535   0.789
 1084SOL    HW1 4486   0.175   4.523   0.798
 1084SOL    HW2 4487   0.052   4.630   0.810
 1085SOL     OW 4488   0.865   4.072   0.195
 1085SOL    HW1 4489   0.924   4.135   0.146
 1085SOL    HW2 4490   0.884   3.978   0.166
 1086SOL     OW 4491   1.719   4.309   1.831
 1086SOL    HW1 4492   1.693   4.398   1.795
 1086SOL    HW2 4493   1.717   4.241   1.758
 1087SOL     OW 4494   1.362   4.868   0.545
 1087SOL    HW1 4495   1.445   4.839   0.497
 1087SOL    HW2 4496   1.313   4.935   0.489
 1088SOL     OW 4497   0.550   3.920   0.885
 1088SOL    HW1 4498   0.545   3.915   0.985
 1088SOL    HW2 4499   0.552   4.016   0.856
 1089SOL     OW 4500   0.321   4.667   0.242
 1089SOL    HW1 4501   0.403   4.706   0.200
 1089SOL    HW2 4502   0.294   4.585   0.193
 1090SOL     OW 4503   1.458   4.459   0.728
 1090SOL    HW1 4504   1.453   4.394   0.803
 1090SOL    HW2 4505   1.538   4.518   0.741
 1091SOL     OW 4506   0.202   4.009   1.498
 1091SOL    HW1 4507   0.122   4.069   1.485
 1091SOL    HW2 4508   0.192   3.960   1.584
 1092SOL     OW 4509   1.632   5.101   0.081
 1092SOL    HW1 4510   1.600   5.195   0.071
 1092SOL    HW2 4511   1.556   5.038   0.069
 1093SOL     OW 4512   1.400   3.831   0.426
 1093SOL    HW1 4513   1.376   3.794   0.336
 1093SOL    HW2 4514   1.499   3.847   0.430
 1094SOL     OW 4515   0.382   4.424   0.480
 1094SOL    HW1 4516   0.427   4.334   0.477
 1094SOL    HW2 4517   0.288   4.413   0.513
 1095SOL     OW 4518   1.547   3.946   1.729
 1095SOL    HW1 4519   1.542   3.983   1.821
 1095SOL    HW2 4520   1.475   3.877   1.717
 1096SOL     OW 4521   0.781   3.988   1.749
 1096SOL    HW1 4522   0.848   3.927   1.792
 1096SOL    HW2 4523   0.708   4.007   1.814
 1097SOL     OW 4524   1.351   4.314   1.433
 1097SOL    HW1 4525   1.379   4.271   1.518
 1097SOL    HW2 4526   1.376   4.410   1.434
 1098SOL     OW 4527   0.803   5.126   0.924
 1098SOL    HW1 4528   0.893   5.140   0.882
 1098SOL    HW2 4529   0.732   5.128   0.853
 1099SOL     OW 4530   0.922   4.227   0.899
 1099SOL    HW1 4531   0.897   4.218   0.803
 1099SOL    HW2 4532   0.970   4.145   0.930
 1100SOL     OW 4533   0.539   3.788   0.512
 1100SOL    HW1 4534   0.458   3.789   0.570
 1100SOL    HW2 4535   0.542   3.871   0.457
 1101SOL     OW 4536   1.434   4.912   0.041
 1101SOL    HW1 4537   1.466   4.836   0.098
 1101SOL    HW2 4538   1.342   4.939   0.071
 1102SOL     OW 4539   0.297   3.759   0.171
 1102SOL    HW1 4540   0.346   3.843   0.150
 1102SOL    HW2 4541   0.359   3.694   0.216
 1103SOL     OW 4542   0.935   3.960   0.480
 1103SOL    HW1 4543   0.887   4.001   0.402
 1103SOL    HW2 4544   1.034   3.958   0.461
 1104SOL     OW 4545   1.076   4.407   1.464
 1104SOL    HW1 4546   0.996   4.346   1.467
 1104SOL    HW2 4547   1.157   4.354   1.440
 1105SOL     OW 4548   1.227   5.294   0.793
 1105SOL    HW1 4549   1.248   5.368   0.728
 1105SOL    HW2 4550   1.295   5.294   0.866
 1106SOL     OW 4551   0.459   4.876   0.741
 1106SOL    HW1 4552   0.388   4.849   0.806
 1106SOL    HW2 4553   0.433   4.848   0.648
 1107SOL     OW 4554   1.032   4.273   0.016
 1107SOL    HW1 4555   0.991   4.355  -0.023
 1107SOL    HW2 4556   1.096   4.299   0.089
 1108SOL     OW 4557   0.078   4.280   1.386
 1108SOL    HW1 4558   0.170   4.279   1.345
 1108SOL    HW2 4559   0.072   4.354   1.453
 1109SOL     OW 4560   0.561   3.946   1.147
 1109SOL    HW1 4561   0.599   3.862   1.184
 1109SOL    HW2 4562   0.473   3.965   1.191
 1110SOL     OW 4563   0.866   4.178   0.642
 1110SOL    HW1 4564   0.834   4.250   0.580
 1110SOL    HW2 4565   0.890   4.097   0.589
 1111SOL     OW 4566   1.017   3.763   0.753
 1111SOL    HW1 4567   0.945   3.768   0.684
 1111SOL    HW2 4568   0.993   3.694   0.822
 1112SOL     OW 4569   1.429   4.897   0.867
 1112SOL    HW1 4570   1.374   4.813   0.860
 1112SOL    HW2 4571   1.455   4.926   0.775
 1113SOL     OW 4572   1.466   4.314   0.992
 1113SOL    HW1 4573   1.436   4.219   0.999
 1113SOL    HW2 4574   1.539   4.330   1.058
 1114SOL     OW 4575   1.857   4.557   0.377
 1114SOL    HW1 4576   1.899   4.493   0.441
 1114SOL    HW2 4577   1.819   4.506   0.299
 1115SOL     OW 4578   1.390   4.299   0.078
 1115SOL    HW1 4579   1.336   4.278   0.159
 1115SOL    HW2 4580   1.481   4.258   0.087
 1116SOL     OW 4581   0.527   3.980   0.328
 1116SOL    HW1 4582   0.554   3.921   0.253
 1116SOL    HW2 4583   0.527   4.075   0.297
 1117SOL     OW 4584   1.754   4.947   1.588
 1117SOL    HW1 4585   1.845   4.908   1.575
 1117SOL    HW2 4586   1.762   5.043   1.612
 1118SOL     OW 4587   1.638   4.823   1.079
 1118SOL    HW1 4588   1.643   4.904   1.138
 1118SOL    HW2 4589   1.552   4.825   1.028
 1119SOL     OW 4590   0.915   3.813   1.402
 1119SOL    HW1 4591   0.940   3.793   1.307
 1119SOL    HW2 4592   0.987   3.869   1.444
 1120SOL     OW 4593   0.980   4.840   1.719
 1120SOL    HW1 4594   0.881   4.846   1.729
 1120SOL    HW2 4595   1.003   4.760   1.663
 1121SOL     OW 4596   0.410   4.537   1.251
 1121SOL    HW1 4597   0.496   4.549   1.301
 1121SOL    HW2 4598   0.368   4.450   1.278
 1122SOL     OW 4599   1.274   4.110   1.262
 1122SOL    HW1 4600   1.295   4.184   1.326
 1122SOL    HW2 4601   1.185   4.127   1.219
 1123SOL     OW 4602   0.367   4.824   0.501
 1123SOL    HW1 4603   0.360   4.907   0.445
 1123SOL    HW2 4604   0.371   4.744   0.441
 1124SOL     OW 4605   0.566   4.261   0.865
 1124SOL    HW1 4606   0.578   4.327   0.791
 1124SOL    HW2 4607   0.612   4.295   0.948
 1125SOL     OW 4608   1.582   4.363   0.472
 1125SOL    HW1 4609   1.551   4.424   0.545
 1125SOL    HW2 4610   1.632   4.415   0.403
 1126SOL     OW 4611   0.402   4.475   1.598
 1126SOL    HW1 4612   0.470   4.530   1.551
 1126SOL    HW2 4613   0.442   4.387   1.625
 1127SOL     OW 4614   1.587   4.503   1.670
 1127SOL    HW1 4615   1.495   4.541   1.665
 1127SOL    HW2 4616   1.647   4.550   1.605
 1128SOL     OW 4617   1.013   3.829   1.770
 1128SOL    HW1 4618   1.019   3.914   1.718
 1128SOL    HW2 4619   1.045   3.753   1.713
 1129SOL     OW 4620   0.504   3.774   1.740
 1129SOL    HW1 4621   0.462   3.717   1.670
 1129SOL    HW2 4622   0.438   3.843   1.772
 1130SOL     OW 4623   0.573   4.594   1.029
 1130SOL    HW1 4624   0.617   4.683   1.020
 1130SOL    HW2 4625   0.510   4.594   1.106
 1131SOL     OW 4626   1.360   4.586   1.045
 1131SOL    HW1 4627   1.285   4.586   0.979
 1131SOL    HW2 4628   1.397   4.494   1.054
 1132SOL     OW 4629   1.209   4.249   0.275
 1132SOL    HW1 4630   1.222   4.165   0.329
 1132SOL    HW2 4631   1.180   4.323   0.335
 1133SOL     OW 4632   0.307   3.937   1.231
 1133SOL    HW1 4633   0.284   3.974   1.321
 1133SOL    HW2 4634   0.277   3.842   1.225
 1134SOL     OW 4635   0.037   5.034   1.282
 1134SOL    HW1 4636   0.090   4.985   1.350
 1134SOL    HW2 4637   0.059   5.132   1.287
 1135SOL     OW 4638   0.732   4.358   1.064
 1135SOL    HW1 4639   0.791   4.332   0.988
 1135SOL    HW2 4640   0.704   4.454   1.053
 1136SOL     OW 4641   1.728   4.659   1.854
 1136SOL    HW1 4642   1.682   4.652   1.765
 1136SOL    HW2 4643   1.666   4.703   1.920
 1137SOL     OW 4644   0.307   3.787   0.618
 1137SOL    HW1 4645   0.296   3.881   0.651
 1137SOL    HW2 4646   0.302   3.724   0.695
 1138SOL     OW 4647   1.622   4.091   0.374
 1138SOL    HW1 4648   1.624   4.015   0.438
 1138SOL    HW2 4649   1.574   4.168   0.414
 1139SOL     OW 4650   1.023   4.490   0.966
 1139SOL    HW1 4651   1.038   4.511   1.062
 1139SOL    HW2 4652   0.993   4.395   0.957
 1140SOL     OW 4653   1.859   5.242   1.605
 1140SOL    HW1 4654   1.873   5.269   1.510
 1140SOL    HW2 4655   1.942   5.264   1.658
 1141SOL     OW 4656   0.350   4.622   1.804
 1141SOL    HW1 4657   0.426   4.666   1.852
 1141SOL    HW2 4658   0.385   4.575   1.722
 1142SOL     OW 4659   1.540   3.998   0.125
 1142SOL    HW1 4660   1.479   3.923   0.148
 1142SOL    HW2 4661   1.562   4.050   0.208
 1143SOL     OW 4662   1.303   4.562   0.042
 1143SOL    HW1 4663   1.337   4.469   0.057
 1143SOL    HW2 4664   1.321   4.589  -0.053
 1144SOL     OW 4665   0.319   4.534   0.949
 1144SOL    HW1 4666   0.412   4.570   0.954
 1144SOL    HW2 4667   0.313   4.449   1.001
 1145SOL     OW 4668   0.339   4.233   1.006
 1145SOL    HW1 4669   0.287   4.150   0.989
 1145SOL    HW2 4670   0.416   4.238   0.942
 1146SOL     OW 4671   1.138   4.104   1.678
 1146SOL    HW1 4672   1.093   4.167   1.742
 1146SOL    HW2 4673   1.231   4.135   1.661
 1147SOL     OW 4674   1.160   3.931   1.477
 1147SOL    HW1 4675   1.160   3.995   1.554
 1147SOL    HW2 4676   1.188   3.979   1.394
 1148SOL     OW 4677   0.008   5.050   0.200
 1148SOL    HW1 4678  -0.085   5.071   0.169
 1148SOL    HW2 4679   0.018   4.951   0.213
 1149SOL     OW 4680   1.002   4.520   1.238
 1149SOL    HW1 4681   1.043   4.488   1.324
 1149SOL    HW2 4682   0.906   4.493   1.235
 1150SOL     OW 4683   0.040   4.268   1.114
 1150SOL    HW1 4684   0.125   4.235   1.073
 1150SOL    HW2 4685   0.053   4.283   1.212
 1151SOL     OW 4686   0.189   4.244   1.722
 1151SOL    HW1 4687   0.248   4.204   1.652
 1151SOL    HW2 4688   0.131   4.315   1.681
 1152SOL     OW 4689   1.369   4.674   1.660
 1152SOL    HW1 4690   1.408   4.763   1.680
 1152SOL    HW2 4691   1.379   4.654   1.563
 1153SOL     OW 4692   0.815   4.296   0.325
 1153SOL    HW1 4693   0.822   4.207   0.279
 1153SOL    HW2 4694   0.721   4.330   0.317
 1154SOL     OW 4695   1.657   4.328   1.206
 1154SOL    HW1 4696   1.619   4.259   1.268
 1154SOL    HW2 4697   1.739   4.292   1.162
 1155SOL     OW 4698   0.671   4.188   1.269
 1155SOL    HW1 4699   0.637   4.099   1.239
 1155SOL    HW2 4700   0.697   4.242   1.189
 1156SOL     OW 4701   0.473   4.224   0.191
 1156SOL    HW1 4702   0.534   4.304   0.195
 1156SOL    HW2 4703   0.378   4.255   0.198
 1157SOL     OW 4704   0.159   4.861   1.466
 1157SOL    HW1 4705   0.181   4.800   1.542
 1157SOL    HW2 4706   0.169   4.812   1.380
 1158SOL     OW 4707   1.347   4.783   1.234
 1158SOL    HW1 4708   1.371   4.720   1.160
 1158SOL    HW2 4709   1.257   4.823   1.216
 1159SOL     OW 4710   1.302   4.579   0.309
 1159SOL    HW1 4711   1.216   4.548   0.351
 1159SOL    HW2 4712   1.298   4.565   0.210
 1160SOL     OW 4713   0.083   4.982   1.022
 1160SOL    HW1 4714   0.078   4.981   1.122
 1160SOL    HW2 4715   0.000   4.941   0.984
 1161SOL     OW 4716   1.726   3.859   0.523
 1161SOL    HW1 4717   1.799   3.842   0.456
 1161SOL    HW2 4718   1.695   3.772   0.561
 1162SOL     OW 4719   1.280   4.651   0.672
 1162SOL    HW1 4720   1.340   4.570   0.674
 1162SOL    HW2 4721   1.320   4.720   0.612
 1163SOL     OW 4722   0.830   4.997   1.422
 1163SOL    HW1 4723   0.825   5.030   1.517
 1163SOL    HW2 4724   0.744   5.016   1.376
 1164SOL     OW 4725   1.841   3.899   0.963
 1164SOL    HW1 4726   1.880   3.814   0.927
 1164SOL    HW2 4727   1.743   3.901   0.944
 1165SOL     OW 4728   0.263   4.050   0.720
 1165SOL    HW1 4729   0.184   4.101   0.686
 1165SOL    HW2 4730   0.254   4.035   0.818
 1166SOL     OW 4731   0.822   4.726   1.372
 1166SOL    HW1 4732   0.862   4.725   1.280
 1166SOL    HW2 4733   0.832   4.818   1.412
 1167SOL     OW 4734   0.916   4.634   0.291
 1167SOL    HW1 4735   0.979   4.672   0.223
 1167SOL    HW2 4736   0.956   4.551   0.330
 1168SOL     OW 4737   0.372   5.012   1.490
 1168SOL    HW1 4738   0.359   5.105   1.456
 1168SOL    HW2 4739   0.288   4.960   1.477
 1169SOL     OW 4740   1.614   5.016   1.289
 1169SOL    HW1 4741   1.674   5.019   1.369
 1169SOL    HW2 4742   1.539   5.080   1.302
 1170SOL     OW 4743   1.039   4.822   0.696
 1170SOL    HW1 4744   0.969   4.775   0.750
 1170SOL    HW2 4745   1.098   4.754   0.653
 1171SOL     OW 4746   1.014   3.960   0.971
 1171SOL    HW1 4747   1.006   3.924   0.878
 1171SOL    HW2 4748   1.012   3.884   1.036
 1172SOL     OW 4749   1.709   4.109   1.381
 1172SOL    HW1 4750   1.782   4.178   1.385
 1172SOL    HW2 4751   1.737   4.034   1.322
 1173SOL     OW 4752   0.105   4.737   1.726
 1173SOL    HW1 4753   0.028   4.704   1.780
 1173SOL    HW2 4754   0.190   4.707   1.768
 1174SOL     OW 4755   0.672   3.927   1.489
 1174SOL    HW1 4756   0.762   3.911   1.449
 1174SOL    HW2 4757   0.680   3.932   1.588
 1175SOL     OW 4758   0.075   4.069   0.033
 1175SOL    HW1 4759  -0.017   4.041   0.004
 1175SOL    HW2 4760   0.106   4.146  -0.023
 1176SOL     OW 4761   1.440   4.580   1.398
 1176SOL    HW1 4762   1.383   4.632   1.335
 1176SOL    HW2 4763   1.536   4.592   1.374
 1177SOL     OW 4764   0.072   3.890   0.318
 1177SOL    HW1 4765   0.055   3.973   0.264
 1177SOL    HW2 4766   0.162   3.853   0.296
 1178SOL     OW 4767   0.613   4.566   1.431
 1178SOL    HW1 4768   0.669   4.647   1.414
 1178SOL    HW2 4769   0.672   4.486   1.434
 1179SOL     OW 4770   0.716   4.289   1.708
 1179SOL    HW1 4771   0.735   4.354   1.782
 1179SOL    HW2 4772   0.776   4.209   1.717
 1180SOL     OW 4773   1.450   4.944   1.633
 1180SOL    HW1 4774   1.441   4.934   1.732
 1180SOL    HW2 4775   1.546   4.937   1.607
 1181SOL     OW 4776   1.674   4.607   1.254
 1181SOL    HW1 4777   1.647   4.518   1.217
 1181SOL    HW2 4778   1.675   4.675   1.181
 1182SOL     OW 4779   1.225   4.049   0.449
 1182SOL    HW1 4780   1.290   3.975   0.438
 1182SOL    HW2 4781   1.245   4.099   0.533
 1183SOL     OW 4782   0.594   4.469   0.652
 1183SOL    HW1 4783   0.644   4.554   0.633
 1183SOL    HW2 4784   0.506   4.471   0.604
 1184SOL     OW 4785   1.777   4.066   1.642
 1184SOL    HW1 4786   1.760   4.097   1.548
 1184SOL    HW2 4787   1.693   4.029   1.680
 1185SOL     OW 4788   1.730   4.658   1.517
 1185SOL    HW1 4789   1.768   4.749   1.532
 1185SOL    HW2 4790   1.722   4.641   1.418
 1186SOL     OW 4791   0.859   4.680   0.861
 1186SOL    HW1 4792   0.913   4.611   0.909
 1186SOL    HW2 4793   0.827   4.749   0.927
 1187SOL     OW 4794   1.083   4.708   0.087
 1187SOL    HW1 4795   1.060   4.761   0.005
 1187SOL    HW2 4796   1.164   4.652   0.068
 1188SOL     OW 4797   0.079   4.964   0.653
 1188SOL    HW1 4798   0.078   4.917   0.741
 1188SOL    HW2 4799   0.161   4.936   0.602
 1189SOL     OW 4800   1.824   3.916   1.227
 1189SOL    HW1 4801   1.820   3.826   1.271
 1189SOL    HW2 4802   1.827   3.905   1.128
 1190SOL     OW 4803   0.428   4.148   0.520
 1190SOL    HW1 4804   0.458   4.076   0.458
 1190SOL    HW2 4805   0.389   4.108   0.603
 1191SOL     OW 4806   0.317   4.271   1.280
 1191SOL    HW1 4807   0.355   4.212   1.352
 1191SOL    HW2 4808   0.357   4.245   1.192
 1192SOL     OW 4809   1.424   3.938   1.112
 1192SOL    HW1 4810   1.476   3.873   1.167
 1192SOL    HW2 4811   1.375   4.001   1.173
 1193SOL     OW 4812   1.001   3.758   1.154
 1193SOL    HW1 4813   0.938   3.686   1.123
 1193SOL    HW2 4814   1.094   3.722   1.154
 1194SOL     OW 4815   1.352   3.776   0.168
 1194SOL    HW1 4816   1.387   3.735   0.084
 1194SOL    HW2 4817   1.262   3.738   0.188
 1195SOL     OW 4818   1.300   4.177   0.691
 1195SOL    HW1 4819   1.241   4.257   0.695
 1195SOL    HW2 4820   1.315   4.142   0.784
 1196SOL     OW 4821   1.593   3.945   0.882
 1196SOL    HW1 4822   1.509   3.944   0.936
 1196SOL    HW2 4823   1.595   4.028   0.826
 1197SOL     OW 4824   0.039   4.801   0.300
 1197SOL    HW1 4825   0.138   4.790   0.291
 1197SOL    HW2 4826  -0.001   4.715   0.332
 1198SOL     OW 4827   0.230   4.352   1.975
 1198SOL    HW1 4828   0.137   4.350   2.012
 1198SOL    HW2 4829   0.231   4.313   1.883
 1199SOL     OW 4830   0.225   3.999   2.858
 1199SOL    HW1 4831   0.260   3.982   2.950
 1199SOL    HW2 4832   0.137   3.954   2.846
 1200SOL     OW 4833   0.019   4.092   2.509
 1200SOL    HW1 4834  -0.063   4.135   2.548
 1200SOL    HW2 4835  -0.009   4.019   2.446
 1201SOL     OW 4836   1.555   5.235   2.565
 1201SOL    HW1 4837   1.498   5.219   2.646
 1201SOL    HW2 4838   1.496   5.245   2.485
 1202SOL     OW 4839   1.755   4.331   2.093
 1202SOL    HW1 4840   1.743   4.318   1.994
 1202SOL    HW2 4841   1.725   4.250   2.142
 1203SOL     OW 4842   0.768   4.868   2.885
 1203SOL    HW1 4843   0.690   4.885   2.945
 1203SOL    HW2 4844   0.802   4.955   2.849
 1204SOL     OW 4845   0.850   4.522   3.685
 1204SOL    HW1 4846   0.846   4.598   3.750
 1204SOL    HW2 4847   0.872   4.558   3.594
 1205SOL     OW 4848   0.685   4.736   2.527
 1205SOL    HW1 4849   0.754   4.720   2.597
 1205SOL    HW2 4850   0.612   4.793   2.565
 1206SOL     OW 4851   0.686   4.885   3.665
 1206SOL    HW1 4852   0.746   4.964   3.679
 1206SOL    HW2 4853   0.600   4.916   3.624
 1207SOL     OW 4854   0.438   4.116   3.361
 1207SOL    HW1 4855   0.520   4.060   3.370
 1207SOL    HW2 4856   0.357   4.058   3.365
 1208SOL     OW 4857   1.603   4.171   2.599
 1208SOL    HW1 4858   1.529   4.217   2.549
 1208SOL    HW2 4859   1.654   4.239   2.652
 1209SOL     OW 4860   0.240   4.815   2.748
 1209SOL    HW1 4861   0.254   4.731   2.800
 1209SOL    HW2 4862   0.185   4.879   2.803
 1210SOL     OW 4863   0.606   4.688   1.985
 1210SOL    HW1 4864   0.613   4.772   1.931
 1210SOL    HW2 4865   0.652   4.701   2.073
 1211SOL     OW 4866   1.594   3.838   3.342
 1211SOL    HW1 4867   1.576   3.905   3.270
 1211SOL    HW2 4868   1.591   3.884   3.431
 1212SOL     OW 4869   0.122   4.367   2.425
 1212SOL    HW1 4870   0.077   4.279   2.442
 1212SOL    HW2 4871   0.121   4.421   2.509
 1213SOL     OW 4872   1.689   4.646   2.474
 1213SOL    HW1 4873   1.784   4.617   2.482
 1213SOL    HW2 4874   1.681   4.711   2.399
 1214SOL     OW 4875   1.641   4.832   2.294
 1214SOL    HW1 4876   1.727   4.834   2.242
 1214SOL    HW2 4877   1.655   4.879   2.382
 1215SOL     OW 4878   0.113   4.461   3.459
 1215SOL    HW1 4879   0.201   4.448   3.504
 1215SOL    HW2 4880   0.100   4.558   3.437
 1216SOL     OW 4881   1.293   4.952   3.285
 1216SOL    HW1 4882   1.330   4.879   3.227
 1216SOL    HW2 4883   1.345   4.957   3.370
 1217SOL     OW 4884   0.809   3.728   2.364
 1217SOL    HW1 4885   0.849   3.819   2.355
 1217SOL    HW2 4886   0.709   3.736   2.370
 1218SOL     OW 4887   0.197   4.700   3.126
 1218SOL    HW1 4888   0.286   4.655   3.112
 1218SOL    HW2 4889   0.124   4.635   3.107
 1219SOL     OW 4890   1.525   4.723   2.052
 1219SOL    HW1 4891   1.462   4.647   2.065
 1219SOL    HW2 4892   1.573   4.741   2.138
 1220SOL     OW 4893   0.317   3.975   3.663
 1220SOL    HW1 4894   0.388   4.046   3.669
 1220SOL    HW2 4895   0.229   4.014   3.691
 1221SOL     OW 4896   1.466   5.141   2.815
 1221SOL    HW1 4897   1.407   5.147   2.895
 1221SOL    HW2 4898   1.451   5.053   2.769
 1222SOL     OW 4899   0.598   4.453   2.132
 1222SOL    HW1 4900   0.622   4.522   2.064
 1222SOL    HW2 4901   0.520   4.486   2.186
 1223SOL     OW 4902   1.281   4.069   2.806
 1223SOL    HW1 4903   1.195   4.019   2.793
 1223SOL    HW2 4904   1.343   4.015   2.862
 1224SOL     OW 4905   0.807   4.329   3.327
 1224SOL    HW1 4906   0.760   4.326   3.416
 1224SOL    HW2 4907   0.756   4.274   3.261
 1225SOL     OW 4908   1.394   4.193   3.536
 1225SOL    HW1 4909   1.374   4.236   3.624
 1225SOL    HW2 4910   1.472   4.131   3.545
 1226SOL     OW 4911   0.076   4.535   2.651
 1226SOL    HW1 4912   0.175   4.523   2.660
 1226SOL    HW2 4913   0.052   4.630   2.672
 1227SOL     OW 4914   0.865   4.072   2.057
 1227SOL    HW1 4915   0.924   4.135   2.008
 1227SOL    HW2 4916   0.884   3.978   2.028
 1228SOL     OW 4917   1.719   4.309   3.693
 1228SOL    HW1 4918   1.693   4.398   3.657
 1228SOL    HW2 4919   1.717   4.241   3.620
 1229SOL     OW 4920   0.550   3.920   2.747
 1229SOL    HW1 4921   0.545   3.915   2.847
 1229SOL    HW2 4922   0.552   4.016   2.718
 1230SOL     OW 4923   1.795   4.790   2.735
 1230SOL    HW1 4924   1.733   4.775   2.659
 1230SOL    HW2 4925   1.743   4.801   2.820
 1231SOL     OW 4926   0.321   4.667   2.104
 1231SOL    HW1 4927   0.403   4.706   2.062
 1231SOL    HW2 4928   0.294   4.585   2.055
 1232SOL     OW 4929   0.202   4.009   3.360
 1232SOL    HW1 4930   0.122   4.069   3.347
 1232SOL    HW2 4931   0.192   3.960   3.446
 1233SOL     OW 4932   1.632   5.101   1.943
 1233SOL    HW1 4933   1.600   5.195   1.933
 1233SOL    HW2 4934   1.556   5.038   1.931
 1234SOL     OW 4935   1.400   3.831   2.288
 1234SOL    HW1 4936   1.376   3.794   2.198
 1234SOL    HW2 4937   1.499   3.847   2.292
 1235SOL     OW 4938   0.382   4.424   2.342
 1235SOL    HW1 4939   0.427   4.334   2.339
 1235SOL    HW2 4940   0.288   4.413   2.375
 1236SOL     OW 4941   1.547   3.946   3.591
 1236SOL    HW1 4942   1.542   3.983   3.683
 1236SOL    HW2 4943   1.475   3.877   3.579
 1237SOL     OW 4944   0.614   3.846   1.979
 1237SOL    HW1 4945   0.712   3.824   1.986
 1237SOL    HW2 4946   0.583   3.829   1.886
 1238SOL     OW 4947   0.781   3.988   3.611
 1238SOL    HW1 4948   0.848   3.927   3.654
 1238SOL    HW2 4949   0.708   4.007   3.676
 1239SOL     OW 4950   1.351   4.314   3.295
 1239SOL    HW1 4951   1.379   4.271   3.380
 1239SOL    HW2 4952   1.376   4.410   3.296
 1240SOL     OW 4953   0.922   4.227   2.761
 1240SOL    HW1 4954   0.897   4.218   2.665
 1240SOL    HW2 4955   0.970   4.145   2.792
 1241SOL     OW 4956   0.539   3.788   2.374
 1241SOL    HW1 4957   0.458   3.789   2.432
 1241SOL    HW2 4958   0.542   3.871   2.319
 1242SOL     OW 4959   1.434   4.912   1.903
 1242SOL    HW1 4960   1.466   4.836   1.960
 1242SOL    HW2 4961   1.342   4.939   1.933
 1243SOL     OW 4962   0.297   3.759   2.033
 1243SOL    HW1 4963   0.346   3.843   2.012
 1243SOL    HW2 4964   0.359   3.694   2.078
 1244SOL     OW 4965   0.935   3.960   2.342
 1244SOL    HW1 4966   0.887   4.001   2.264
 1244SOL    HW2 4967   1.034   3.958   2.323
 1245SOL     OW 4968   1.227   5.294   2.655
 1245SOL    HW1 4969   1.248   5.368   2.590
 1245SOL    HW2 4970   1.295   5.294   2.728
 1246SOL     OW 4971   0.459   4.876   2.603
 1246SOL    HW1 4972   0.388   4.849   2.668
 1246SOL    HW2 4973   0.433   4.848   2.510
 1247SOL     OW 4974   1.032   4.273   1.878
 1247SOL    HW1 4975   0.991   4.355   1.839
 1247SOL    HW2 4976   1.096   4.299   1.951
 1248SOL     OW 4977   0.078   4.280   3.248
 1248SOL    HW1 4978   0.170   4.279   3.207
 1248SOL    HW2 4979   0.072   4.354   3.315
 1249SOL     OW 4980   0.561   3.946   3.009
 1249SOL    HW1 4981   0.599   3.862   3.046
 1249SOL    HW2 4982   0.473   3.965   3.053
 1250SOL     OW 4983   0.866   4.178   2.504
 1250SOL    HW1 4984   0.834   4.250   2.442
 1250SOL    HW2 4985   0.890   4.097   2.451
 1251SOL     OW 4986   1.017   3.763   2.615
 1251SOL    HW1 4987   0.945   3.768   2.546
 1251SOL    HW2 4988   0.993   3.694   2.684
 1252SOL     OW 4989   1.857   4.557   2.239
 1252SOL    HW1 4990   1.899   4.493   2.303
 1252SOL    HW2 4991   1.819   4.506   2.161
 1253SOL     OW 4992   1.664   5.004   2.519
 1253SOL    HW1 4993   1.763   5.012   2.533
 1253SOL    HW2 4994   1.619   5.088   2.550
 1254SOL     OW 4995   1.390   4.299   1.940
 1254SOL    HW1 4996   1.336   4.278   2.021
 1254SOL    HW2 4997   1.481   4.258   1.949
 1255SOL     OW 4998   0.527   3.980   2.190
 1255SOL    HW1 4999   0.554   3.921   2.115
 1255SOL    HW2 5000   0.527   4.075   2.159
 1256SOL     OW 5001   1.754   4.947   3.450
 1256SOL    HW1 5002   1.845   4.908   3.437
 1256SOL    HW2 5003   1.762   5.043   3.474
 1257SOL     OW 5004   0.915   3.813   3.264
 1257SOL    HW1 5005   0.940   3.793   3.169
 1257SOL    HW2 5006   0.987   3.869   3.306
 1258SOL     OW 5007   0.980   4.840   3.581
 1258SOL    HW1 5008   0.881   4.846   3.591
 1258SOL    HW2 5009   1.003   4.760   3.525
 1259SOL     OW 5010   0.705   4.774   2.230
 1259SOL    HW1 5011   0.691   4.781   2.329
 1259SOL    HW2 5012   0.789   4.723   2.212
 1260SOL     OW 5013   0.410   4.537   3.113
 1260SOL    HW1 5014   0.496   4.549   3.163
 1260SOL    HW2 5015   0.368   4.450   3.140
 1261SOL     OW 5016   1.274   4.110   3.124
 1261SOL    HW1 5017   1.295   4.184   3.188
 1261SOL    HW2 5018   1.185   4.127   3.081
 1262SOL     OW 5019   0.367   4.824   2.363
 1262SOL    HW1 5020   0.360   4.907   2.307
 1262SOL    HW2 5021   0.371   4.744   2.303
 1263SOL     OW 5022   0.566   4.261   2.727
 1263SOL    HW1 5023   0.578   4.327   2.653
 1263SOL    HW2 5024   0.612   4.295   2.810
 1264SOL     OW 5025   0.402   4.475   3.460
 1264SOL    HW1 5026   0.470   4.530   3.413
 1264SOL    HW2 5027   0.442   4.387   3.487
 1265SOL     OW 5028   1.587   4.503   3.532
 1265SOL    HW1 5029   1.495   4.541   3.527
 1265SOL    HW2 5030   1.647   4.550   3.467
 1266SOL     OW 5031   1.013   3.829   3.632
 1266SOL    HW1 5032   1.019   3.914   3.580
 1266SOL    HW2 5033   1.045   3.753   3.575
 1267SOL     OW 5034   0.504   3.774   3.602
 1267SOL    HW1 5035   0.462   3.717   3.532
 1267SOL    HW2 5036   0.438   3.843   3.634
 1268SOL     OW 5037   0.573   4.594   2.891
 1268SOL    HW1 5038   0.617   4.683   2.882
 1268SOL    HW2 5039   0.510   4.594   2.968
 1269SOL     OW 5040   0.307   3.937   3.093
 1269SOL    HW1 5041   0.284   3.974   3.183
 1269SOL    HW2 5042   0.277   3.842   3.087
 1270SOL     OW 5043   0.037   5.034   3.144
 1270SOL    HW1 5044   0.090   4.985   3.212
 1270SOL    HW2 5045   0.059   5.132   3.149
 1271SOL     OW 5046   1.728   4.659   3.716
 1271SOL    HW1 5047   1.682   4.652   3.627
 1271SOL    HW2 5048   1.666   4.703   3.782
 1272SOL     OW 5049   0.307   3.787   2.480
 1272SOL    HW1 5050   0.296   3.881   2.513
 1272SOL    HW2 5051   0.302   3.724   2.557
 1273SOL     OW 5052   1.622   4.091   2.236
 1273SOL    HW1 5053   1.624   4.015   2.300
 1273SOL    HW2 5054   1.574   4.168   2.276
 1274SOL     OW 5055   1.859   5.242   3.467
 1274SOL    HW1 5056   1.873   5.269   3.372
 1274SOL    HW2 5057   1.942   5.264   3.520
 1275SOL     OW 5058   0.350   4.622   3.666
 1275SOL    HW1 5059   0.426   4.666   3.714
 1275SOL    HW2 5060   0.385   4.575   3.584
 1276SOL     OW 5061   1.540   3.998   1.987
 1276SOL    HW1 5062   1.479   3.923   2.010
 1276SOL    HW2 5063   1.562   4.050   2.070
 1277SOL     OW 5064   1.303   4.562   1.904
 1277SOL    HW1 5065   1.337   4.469   1.919
 1277SOL    HW2 5066   1.321   4.589   1.809
 1278SOL     OW 5067   0.319   4.534   2.811
 1278SOL    HW1 5068   0.412   4.570   2.816
 1278SOL    HW2 5069   0.313   4.449   2.863
 1279SOL     OW 5070   0.339   4.233   2.868
 1279SOL    HW1 5071   0.287   4.150   2.851
 1279SOL    HW2 5072   0.416   4.238   2.804
 1280SOL     OW 5073   1.138   4.104   3.540
 1280SOL    HW1 5074   1.093   4.167   3.604
 1280SOL    HW2 5075   1.231   4.135   3.523
 1281SOL     OW 5076   1.160   3.931   3.339
 1281SOL    HW1 5077   1.160   3.995   3.416
 1281SOL    HW2 5078   1.188   3.979   3.256
 1282SOL     OW 5079   0.008   5.050   2.062
 1282SOL    HW1 5080  -0.085   5.071   2.031
 1282SOL    HW2 5081   0.018   4.951   2.075
 1283SOL     OW 5082   0.040   4.268   2.976
 1283SOL    HW1 5083   0.125   4.235   2.935
 1283SOL    HW2 5084   0.053   4.283   3.074
 1284SOL     OW 5085   0.189   4.244   3.584
 1284SOL    HW1 5086   0.248   4.204   3.514
 1284SOL    HW2 5087   0.131   4.315   3.543
 1285SOL     OW 5088   1.369   4.674   3.522
 1285SOL    HW1 5089   1.408   4.763   3.542
 1285SOL    HW2 5090   1.379   4.654   3.425
 1286SOL     OW 5091   0.815   4.296   2.187
 1286SOL    HW1 5092   0.822   4.207   2.141
 1286SOL    HW2 5093   0.721   4.330   2.179
 1287SOL     OW 5094   1.657   4.328   3.068
 1287SOL    HW1 5095   1.619   4.259   3.130
 1287SOL    HW2 5096   1.739   4.292   3.024
 1288SOL     OW 5097   0.671   4.188   3.131
 1288SOL    HW1 5098   0.637   4.099   3.101
 1288SOL    HW2 5099   0.697   4.242   3.051
 1289SOL     OW 5100   0.473   4.224   2.053
 1289SOL    HW1 5101   0.534   4.304   2.057
 1289SOL    HW2 5102   0.378   4.255   2.060
 1290SOL     OW 5103   0.159   4.861   3.328
 1290SOL    HW1 5104   0.181   4.800   3.404
 1290SOL    HW2 5105   0.169   4.812   3.242
 1291SOL     OW 5106   0.083   4.982   2.884
 1291SOL    HW1 5107   0.078   4.981   2.984
 1291SOL    HW2 5108   0.000   4.941   2.846
 1292SOL     OW 5109   1.841   3.899   2.825
 1292SOL    HW1 5110   1.880   3.814   2.789
 1292SOL    HW2 5111   1.743   3.901   2.806
 1293SOL     OW 5112   0.263   4.050   2.582
 1293SOL    HW1 5113   0.184   4.101   2.548
 1293SOL    HW2 5114   0.254   4.035   2.680
 1294SOL     OW 5115   1.194   5.336   1.893
 1294SOL    HW1 5116   1.200   5.243   1.930
 1294SOL    HW2 5117   1.135   5.336   1.813
 1295SOL     OW 5118   0.916   4.634   2.153
 1295SOL    HW1 5119   0.979   4.672   2.085
 1295SOL    HW2 5120   0.956   4.551   2.192
 1296SOL     OW 5121   0.372   5.012   3.352
 1296SOL    HW1 5122   0.359   5.105   3.318
 1296SOL    HW2 5123   0.288   4.960   3.339
 1297SOL     OW 5124   1.614   5.016   3.151
 1297SOL    HW1 5125   1.674   5.019   3.231
 1297SOL    HW2 5126   1.539   5.080   3.164
 1298SOL     OW 5127   1.014   3.960   2.833
 1298SOL    HW1 5128   1.006   3.924   2.740
 1298SOL    HW2 5129   1.012   3.884   2.898
 1299SOL     OW 5130   1.709   4.109   3.243
 1299SOL    HW1 5131   1.782   4.178   3.247
 1299SOL    HW2 5132   1.737   4.034   3.184
 1300SOL     OW 5133   0.105   4.737   3.588
 1300SOL    HW1 5134   0.028   4.704   3.642
 1300SOL    HW2 5135   0.190   4.707   3.630
 1301SOL     OW 5136   0.672   3.927   3.351
 1301SOL    HW1 5137   0.762   3.911   3.311
 1301SOL    HW2 5138   0.680   3.932   3.450
 1302SOL     OW 5139   0.075   4.069   1.895
 1302SOL    HW1 5140  -0.017   4.041   1.866
 1302SOL    HW2 5141   0.106   4.146   1.839
 1303SOL     OW 5142   1.440   4.580   3.260
 1303SOL    HW1 5143   1.383   4.632   3.197
 1303SOL    HW2 5144   1.536   4.592   3.236
 1304SOL     OW 5145   0.072   3.890   2.180
 1304SOL    HW1 5146   0.055   3.973   2.126
 1304SOL    HW2 5147   0.162   3.853   2.158
 1305SOL     OW 5148   0.716   4.289   3.570
 1305SOL    HW1 5149   0.735   4.354   3.644
 1305SOL    HW2 5150   0.776   4.209   3.579
 1306SOL     OW 5151   1.674   4.607   3.116
 1306SOL    HW1 5152   1.647   4.518   3.079
 1306SOL    HW2 5153   1.675   4.675   3.043
 1307SOL     OW 5154   0.594   4.469   2.514
 1307SOL    HW1 5155   0.644   4.554   2.495
 1307SOL    HW2 5156   0.506   4.471   2.466
 1308SOL     OW 5157   1.777   4.066   3.504
 1308SOL    HW1 5158   1.760   4.097   3.410
 1308SOL    HW2 5159   1.693   4.029   3.542
 1309SOL     OW 5160   1.730   4.658   3.379
 1309SOL    HW1 5161   1.768   4.749   3.394
 1309SOL    HW2 5162   1.722   4.641   3.280
 1310SOL     OW 5163   1.083   4.708   1.949
 1310SOL    HW1 5164   1.060   4.761   1.867
 1310SOL    HW2 5165   1.164   4.652   1.930
 1311SOL     OW 5166   0.079   4.964   2.515
 1311SOL    HW1 5167   0.078   4.917   2.603
 1311SOL    HW2 5168   0.161   4.936   2.464
 1312SOL     OW 5169   1.824   3.916   3.089
 1312SOL    HW1 5170   1.820   3.826   3.133
 1312SOL    HW2 5171   1.827   3.905   2.990
 1313SOL     OW 5172   0.428   4.148   2.382
 1313SOL    HW1 5173   0.458   4.076   2.320
 1313SOL    HW2 5174   0.389   4.108   2.465
 1314SOL     OW 5175   0.317   4.271   3.142
 1314SOL    HW1 5176   0.355   4.212   3.214
 1314SOL    HW2 5177   0.357   4.245   3.054
 1315SOL     OW 5178   1.424   3.938   2.974
 1315SOL    HW1 5179   1.476   3.873   3.029
 1315SOL    HW2 5180   1.375   4.001   3.035
 1316SOL     OW 5181   1.001   3.758   3.016
 1316SOL    HW1 5182   0.938   3.686   2.985
 1316SOL    HW2 5183   1.094   3.722   3.016
 1317SOL     OW 5184   0.770   5.054   2.163
 1317SOL    HW1 5185   0.724   4.967   2.180
 1317SOL    HW2 5186   0.861   5.051   2.204
 1318SOL     OW 5187   1.352   3.776   2.030
 1318SOL    HW1 5188   1.387   3.735   1.946
 1318SOL    HW2 5189   1.262   3.738   2.050
 1319SOL     OW 5190   1.593   3.945   2.744
 1319SOL    HW1 5191   1.509   3.944   2.798
 1319SOL    HW2 5192   1.595   4.028   2.688
 1320SOL     OW 5193   0.039   4.801   2.162
 1320SOL    HW1 5194   0.138   4.790   2.153
 1320SOL    HW2 5195  -0.001   4.715   2.194
 1321SOL     OW 5196   0.230   4.352   3.837
 1321SOL    HW1 5197   0.137   4.350   3.874
 1321SOL    HW2 5198   0.231   4.313   3.745
 1322SOL     OW 5199   0.225   3.999   4.720
 1322SOL    HW1 5200   0.260   3.982   4.812
 1322SOL    HW2 5201   0.137   3.954   4.708
 1323SOL     OW 5202   0.019   4.092   4.371
 1323SOL    HW1 5203  -0.063   4.135   4.410
 1323SOL    HW2 5204  -0.009   4.019   4.308
 1324SOL     OW 5205   1.135   4.427   4.441
 1324SOL    HW1 5206   1.192   4.505   4.416
 1324SOL    HW2 5207   1.075   4.453   4.517
 1325SOL     OW 5208   1.755   4.331   3.955
 1325SOL    HW1 5209   1.743   4.318   3.856
 1325SOL    HW2 5210   1.725   4.250   4.004
 1326SOL     OW 5211   0.685   4.736   4.389
 1326SOL    HW1 5212   0.754   4.720   4.459
 1326SOL    HW2 5213   0.612   4.793   4.427
 1327SOL     OW 5214   0.335   5.159   4.785
 1327SOL    HW1 5215   0.257   5.128   4.732
 1327SOL    HW2 5216   0.393   5.217   4.728
 1328SOL     OW 5217   1.603   4.171   4.461
 1328SOL    HW1 5218   1.529   4.217   4.411
 1328SOL    HW2 5219   1.654   4.239   4.514
 1329SOL     OW 5220   0.240   4.815   4.610
 1329SOL    HW1 5221   0.254   4.731   4.662
 1329SOL    HW2 5222   0.185   4.879   4.665
 1330SOL     OW 5223   0.606   4.688   3.847
 1330SOL    HW1 5224   0.613   4.772   3.793
 1330SOL    HW2 5225   0.652   4.701   3.935
 1331SOL     OW 5226   0.122   4.367   4.287
 1331SOL    HW1 5227   0.077   4.279   4.304
 1331SOL    HW2 5228   0.121   4.421   4.371
 1332SOL     OW 5229   1.689   4.646   4.336
 1332SOL    HW1 5230   1.784   4.617   4.344
 1332SOL    HW2 5231   1.681   4.711   4.261
 1333SOL     OW 5232   1.641   4.832   4.156
 1333SOL    HW1 5233   1.727   4.834   4.104
 1333SOL    HW2 5234   1.655   4.879   4.244
 1334SOL     OW 5235   0.809   3.728   4.226
 1334SOL    HW1 5236   0.849   3.819   4.217
 1334SOL    HW2 5237   0.709   3.736   4.232
 1335SOL     OW 5238   1.525   4.723   3.914
 1335SOL    HW1 5239   1.462   4.647   3.927
 1335SOL    HW2 5240   1.573   4.741   4.000
 1336SOL     OW 5241   0.598   4.453   3.994
 1336SOL    HW1 5242   0.622   4.522   3.926
 1336SOL    HW2 5243   0.520   4.486   4.048
 1337SOL     OW 5244   1.281   4.069   4.668
 1337SOL    HW1 5245   1.195   4.019   4.655
 1337SOL    HW2 5246   1.343   4.015   4.724
 1338SOL     OW 5247   0.991   4.134   4.966
 1338SOL    HW1 5248   0.914   4.168   5.020
 1338SOL    HW2 5249   0.957   4.083   4.887
 1339SOL     OW 5250   1.041   4.425   4.153
 1339SOL    HW1 5251   1.067   4.421   4.249
 1339SOL    HW2 5252   0.956   4.374   4.139
 1340SOL     OW 5253   0.076   4.535   4.513
 1340SOL    HW1 5254   0.175   4.523   4.522
 1340SOL    HW2 5255   0.052   4.630   4.534
 1341SOL     OW 5256   0.865   4.072   3.919
 1341SOL    HW1 5257   0.924   4.135   3.870
 1341SOL    HW2 5258   0.884   3.978   3.890
 1342SOL     OW 5259   1.362   4.868   4.269
 1342SOL    HW1 5260   1.445   4.839   4.221
 1342SOL    HW2 5261   1.313   4.935   4.213
 1343SOL     OW 5262   0.550   3.920   4.609
 1343SOL    HW1 5263   0.545   3.915   4.709
 1343SOL    HW2 5264   0.552   4.016   4.580
 1344SOL     OW 5265   1.795   4.790   4.597
 1344SOL    HW1 5266   1.733   4.775   4.521
 1344SOL    HW2 5267   1.743   4.801   4.682
 1345SOL     OW 5268   0.321   4.667   3.966
 1345SOL    HW1 5269   0.403   4.706   3.924
 1345SOL    HW2 5270   0.294   4.585   3.917
 1346SOL     OW 5271   1.458   4.459   4.452
 1346SOL    HW1 5272   1.453   4.394   4.527
 1346SOL    HW2 5273   1.538   4.518   4.465
 1347SOL     OW 5274   1.400   3.831   4.150
 1347SOL    HW1 5275   1.376   3.794   4.060
 1347SOL    HW2 5276   1.499   3.847   4.154
 1348SOL     OW 5277   0.382   4.424   4.204
 1348SOL    HW1 5278   0.427   4.334   4.201
 1348SOL    HW2 5279   0.288   4.413   4.237
 1349SOL     OW 5280   0.614   3.846   3.841
 1349SOL    HW1 5281   0.712   3.824   3.848
 1349SOL    HW2 5282   0.583   3.829   3.748
 1350SOL     OW 5283   0.803   5.126   4.648
 1350SOL    HW1 5284   0.893   5.140   4.606
 1350SOL    HW2 5285   0.732   5.128   4.577
 1351SOL     OW 5286   0.922   4.227   4.623
 1351SOL    HW1 5287   0.897   4.218   4.527
 1351SOL    HW2 5288   0.970   4.145   4.654
 1352SOL     OW 5289   0.539   3.788   4.236
 1352SOL    HW1 5290   0.458   3.789   4.294
 1352SOL    HW2 5291   0.542   3.871   4.181
 1353SOL     OW 5292   0.297   3.759   3.895
 1353SOL    HW1 5293   0.346   3.843   3.874
 1353SOL    HW2 5294   0.359   3.694   3.940
 1354SOL     OW 5295   0.935   3.960   4.204
 1354SOL    HW1 5296   0.887   4.001   4.126
 1354SOL    HW2 5297   1.034   3.958   4.185
 1355SOL     OW 5298   1.227   5.294   4.517
 1355SOL    HW1 5299   1.248   5.368   4.452
 1355SOL    HW2 5300   1.295   5.294   4.590
 1356SOL     OW 5301   0.459   4.876   4.465
 1356SOL    HW1 5302   0.388   4.849   4.530
 1356SOL    HW2 5303   0.433   4.848   4.372
 1357SOL     OW 5304   1.032   4.273   3.740
 1357SOL    HW1 5305   0.991   4.355   3.701
 1357SOL    HW2 5306   1.096   4.299   3.813
 1358SOL     OW 5307   0.561   3.946   4.871
 1358SOL    HW1 5308   0.599   3.862   4.908
 1358SOL    HW2 5309   0.473   3.965   4.915
 1359SOL     OW 5310   0.866   4.178   4.366
 1359SOL    HW1 5311   0.834   4.250   4.304
 1359SOL    HW2 5312   0.890   4.097   4.313
 1360SOL     OW 5313   1.429   4.897   4.591
 1360SOL    HW1 5314   1.374   4.813   4.584
 1360SOL    HW2 5315   1.455   4.926   4.499
 1361SOL     OW 5316   1.466   4.314   4.716
 1361SOL    HW1 5317   1.436   4.219   4.723
 1361SOL    HW2 5318   1.539   4.330   4.782
 1362SOL     OW 5319   1.857   4.557   4.101
 1362SOL    HW1 5320   1.899   4.493   4.165
 1362SOL    HW2 5321   1.819   4.506   4.023
 1363SOL     OW 5322   1.390   4.299   3.802
 1363SOL    HW1 5323   1.336   4.278   3.883
 1363SOL    HW2 5324   1.481   4.258   3.811
 1364SOL     OW 5325   0.527   3.980   4.052
 1364SOL    HW1 5326   0.554   3.921   3.977
 1364SOL    HW2 5327   0.527   4.075   4.021
 1365SOL     OW 5328   1.638   4.823   4.803
 1365SOL    HW1 5329   1.643   4.904   4.862
 1365SOL    HW2 5330   1.552   4.825   4.752
 1366SOL     OW 5331   0.705   4.774   4.092
 1366SOL    HW1 5332   0.691   4.781   4.191
 1366SOL    HW2 5333   0.789   4.723   4.074
 1367SOL     OW 5334   1.274   4.110   4.986
 1367SOL    HW1 5335   1.295   4.184   5.050
 1367SOL    HW2 5336   1.185   4.127   4.943
 1368SOL     OW 5337   0.367   4.824   4.225
 1368SOL    HW1 5338   0.360   4.907   4.169
 1368SOL    HW2 5339   0.371   4.744   4.165
 1369SOL     OW 5340   0.566   4.261   4.589
 1369SOL    HW1 5341   0.578   4.327   4.515
 1369SOL    HW2 5342   0.612   4.295   4.672
 1370SOL     OW 5343   1.582   4.363   4.196
 1370SOL    HW1 5344   1.551   4.424   4.269
 1370SOL    HW2 5345   1.632   4.415   4.127
 1371SOL     OW 5346   0.573   4.594   4.753
 1371SOL    HW1 5347   0.617   4.683   4.744
 1371SOL    HW2 5348   0.510   4.594   4.830
 1372SOL     OW 5349   1.360   4.586   4.769
 1372SOL    HW1 5350   1.285   4.586   4.703
 1372SOL    HW2 5351   1.397   4.494   4.778
 1373SOL     OW 5352   1.209   4.249   3.999
 1373SOL    HW1 5353   1.222   4.165   4.053
 1373SOL    HW2 5354   1.180   4.323   4.059
 1374SOL     OW 5355   0.307   3.937   4.955
 1374SOL    HW1 5356   0.284   3.974   5.045
 1374SOL    HW2 5357   0.277   3.842   4.949
 1375SOL     OW 5358   0.037   5.034   5.006
 1375SOL    HW1 5359   0.090   4.985   5.074
 1375SOL    HW2 5360   0.059   5.132   5.011
 1376SOL     OW 5361   0.307   3.787   4.342
 1376SOL    HW1 5362   0.296   3.881   4.375
 1376SOL    HW2 5363   0.302   3.724   4.419
 1377SOL     OW 5364   1.622   4.091   4.098
 1377SOL    HW1 5365   1.624   4.015   4.162
 1377SOL    HW2 5366   1.574   4.168   4.138
 1378SOL     OW 5367   1.023   4.490   4.690
 1378SOL    HW1 5368   1.038   4.511   4.786
 1378SOL    HW2 5369   0.993   4.395   4.681
 1379SOL     OW 5370   1.540   3.998   3.849
 1379SOL    HW1 5371   1.479   3.923   3.872
 1379SOL    HW2 5372   1.562   4.050   3.932
 1380SOL     OW 5373   1.303   4.562   3.766
 1380SOL    HW1 5374   1.337   4.469   3.781
 1380SOL    HW2 5375   1.321   4.589   3.671
 1381SOL     OW 5376   0.319   4.534   4.673
 1381SOL    HW1 5377   0.412   4.570   4.678
 1381SOL    HW2 5378   0.313   4.449   4.725
 1382SOL     OW 5379   0.339   4.233   4.730
 1382SOL    HW1 5380   0.287   4.150   4.713
 1382SOL    HW2 5381   0.416   4.238   4.666
 1383SOL     OW 5382   1.160   3.931   5.201
 1383SOL    HW1 5383   1.160   3.995   5.278
 1383SOL    HW2 5384   1.188   3.979   5.118
 1384SOL     OW 5385   0.008   5.050   3.924
 1384SOL    HW1 5386  -0.085   5.071   3.893
 1384SOL    HW2 5387   0.018   4.951   3.937
 1385SOL     OW 5388   0.040   4.268   4.838
 1385SOL    HW1 5389   0.125   4.235   4.797
 1385SOL    HW2 5390   0.053   4.283   4.936
 1386SOL     OW 5391   0.815   4.296   4.049
 1386SOL    HW1 5392   0.822   4.207   4.003
 1386SOL    HW2 5393   0.721   4.330   4.041
 1387SOL     OW 5394   1.657   4.328   4.930
 1387SOL    HW1 5395   1.619   4.259   4.992
 1387SOL    HW2 5396   1.739   4.292   4.886
 1388SOL     OW 5397   0.473   4.224   3.915
 1388SOL    HW1 5398   0.534   4.304   3.919
 1388SOL    HW2 5399   0.378   4.255   3.922
 1389SOL     OW 5400   1.347   4.783   4.958
 1389SOL    HW1 5401   1.371   4.720   4.884
 1389SOL    HW2 5402   1.257   4.823   4.940
 1390SOL     OW 5403   1.302   4.579   4.033
 1390SOL    HW1 5404   1.216   4.548   4.075
 1390SOL    HW2 5405   1.298   4.565   3.934
 1391SOL     OW 5406   0.083   4.982   4.746
 1391SOL    HW1 5407   0.078   4.981   4.846
 1391SOL    HW2 5408   0.000   4.941   4.708
 1392SOL     OW 5409   1.726   3.859   4.247
 1392SOL    HW1 5410   1.799   3.842   4.180
 1392SOL    HW2 5411   1.695   3.772   4.285
 1393SOL     OW 5412   1.280   4.651   4.396
 1393SOL    HW1 5413   1.340   4.570   4.398
 1393SOL    HW2 5414   1.320   4.720   4.336
 1394SOL     OW 5415   0.263   4.050   4.444
 1394SOL    HW1 5416   0.184   4.101   4.410
 1394SOL    HW2 5417   0.254   4.035   4.542
 1395SOL     OW 5418   0.916   4.634   4.015
 1395SOL    HW1 5419   0.979   4.672   3.947
 1395SOL    HW2 5420   0.956   4.551   4.054
 1396SOL     OW 5421   1.039   4.822   4.420
 1396SOL    HW1 5422   0.969   4.775   4.474
 1396SOL    HW2 5423   1.098   4.754   4.377
 1397SOL     OW 5424   1.709   4.109   5.105
 1397SOL    HW1 5425   1.782   4.178   5.109
 1397SOL    HW2 5426   1.737   4.034   5.046
 1398SOL     OW 5427   0.075   4.069   3.757
 1398SOL    HW1 5428  -0.017   4.041   3.728
 1398SOL    HW2 5429   0.106   4.146   3.701
 1399SOL     OW 5430   0.072   3.890   4.042
 1399SOL    HW1 5431   0.055   3.973   3.988
 1399SOL    HW2 5432   0.162   3.853   4.020
 1400SOL     OW 5433   1.450   4.944   5.357
 1400SOL    HW1 5434   1.441   4.934   5.456
 1400SOL    HW2 5435   1.546   4.937   5.331
 1401SOL     OW 5436   1.674   4.607   4.978
 1401SOL    HW1 5437   1.647   4.518   4.941
 1401SOL    HW2 5438   1.675   4.675   4.905
 1402SOL     OW 5439   1.225   4.049   4.173
 1402SOL    HW1 5440   1.290   3.975   4.162
 1402SOL    HW2 5441   1.245   4.099   4.257
 1403SOL     OW 5442   0.594   4.469   4.376
 1403SOL    HW1 5443   0.644   4.554   4.357
 1403SOL    HW2 5444   0.506   4.471   4.328
 1404SOL     OW 5445   1.730   4.658   5.241
 1404SOL    HW1 5446   1.768   4.749   5.256
 1404SOL    HW2 5447   1.722   4.641   5.142
 1405SOL     OW 5448   1.083   4.708   3.811
 1405SOL    HW1 5449   1.060   4.761   3.729
 1405SOL    HW2 5450   1.164   4.652   3.792
 1406SOL     OW 5451   0.079   4.964   4.377
 1406SOL    HW1 5452   0.078   4.917   4.465
 1406SOL    HW2 5453   0.161   4.936   4.326
 1407SOL     OW 5454   1.824   3.916   4.951
 1407SOL    HW1 5455   1.820   3.826   4.995
 1407SOL    HW2 5456   1.827   3.905   4.852
 1408SOL     OW 5457   0.428   4.148   4.244
 1408SOL    HW1 5458   0.458   4.076   4.182
 1408SOL    HW2 5459   0.389   4.108   4.327
 1409SOL     OW 5460   1.424   3.938   4.836
 1409SOL    HW1 5461   1.476   3.873   4.891
 1409SOL    HW2 5462   1.375   4.001   4.897
 1410SOL     OW 5463   0.770   5.054   4.025
 1410SOL    HW1 5464   0.724   4.967   4.042
 1410SOL    HW2 5465   0.861   5.051   4.066
 1411SOL     OW 5466   1.352   3.776   3.892
 1411SOL    HW1 5467   1.387   3.735   3.808
 1411SOL    HW2 5468   1.262   3.738   3.912
 1412SOL     OW 5469   1.300   4.177   4.415
 1412SOL    HW1 5470   1.241   4.257   4.419
 1412SOL    HW2 5471   1.315   4.142   4.508
 1413SOL     OW 5472   1.593   3.945   4.606
 1413SOL    HW1 5473   1.509   3.944   4.660
 1413SOL    HW2 5474   1.595   4.028   4.550
 1414SOL     OW 5475   0.039   4.801   4.024
 1414SOL    HW1 5476   0.138   4.790   4.015
 1414SOL    HW2 5477  -0.001   4.715   4.056
 1415SOL     OW 5478   2.092   0.628   0.113
 1415SOL    HW1 5479   1.999   0.626   0.150
 1415SOL    HW2 5480   2.093   0.589   0.021
 1416SOL     OW 5481   2.087   0.275   0.996
 1416SOL    HW1 5482   2.122   0.258   1.088
 1416SOL    HW2 5483   1.999   0.230   0.984
 1417SOL     OW 5484   1.881   0.368   0.647
 1417SOL    HW1 5485   1.799   0.411   0.686
 1417SOL    HW2 5486   1.853   0.295   0.584
 1418SOL     OW 5487   2.431   1.275   1.165
 1418SOL    HW1 5488   2.338   1.268   1.128
 1418SOL    HW2 5489   2.442   1.364   1.209
 1419SOL     OW 5490   3.417   1.511   0.703
 1419SOL    HW1 5491   3.360   1.495   0.784
 1419SOL    HW2 5492   3.358   1.521   0.623
 1420SOL     OW 5493   2.997   0.703   0.717
 1420SOL    HW1 5494   3.054   0.781   0.692
 1420SOL    HW2 5495   2.937   0.729   0.793
 1421SOL     OW 5496   2.630   1.144   1.023
 1421SOL    HW1 5497   2.552   1.161   1.083
 1421SOL    HW2 5498   2.664   1.231   0.987
 1422SOL     OW 5499   2.712   0.798   1.823
 1422SOL    HW1 5500   2.708   0.874   1.888
 1422SOL    HW2 5501   2.734   0.834   1.732
 1423SOL     OW 5502   2.547   1.012   0.665
 1423SOL    HW1 5503   2.616   0.996   0.735
 1423SOL    HW2 5504   2.474   1.069   0.703
 1424SOL     OW 5505   2.548   1.161   1.803
 1424SOL    HW1 5506   2.608   1.240   1.817
 1424SOL    HW2 5507   2.462   1.192   1.762
 1425SOL     OW 5508   2.197   1.435   1.061
 1425SOL    HW1 5509   2.119   1.404   1.008
 1425SOL    HW2 5510   2.255   1.493   1.004
 1426SOL     OW 5511   3.322   1.505   1.339
 1426SOL    HW1 5512   3.346   1.599   1.365
 1426SOL    HW2 5513   3.306   1.451   1.421
 1427SOL     OW 5514   2.300   0.392   1.499
 1427SOL    HW1 5515   2.382   0.336   1.508
 1427SOL    HW2 5516   2.219   0.334   1.503
 1428SOL     OW 5517   3.465   0.447   0.737
 1428SOL    HW1 5518   3.391   0.493   0.687
 1428SOL    HW2 5519   3.516   0.515   0.790
 1429SOL     OW 5520   2.093   1.713   0.483
 1429SOL    HW1 5521   2.127   1.790   0.537
 1429SOL    HW2 5522   2.137   1.713   0.393
 1430SOL     OW 5523   2.989   1.341   1.690
 1430SOL    HW1 5524   3.036   1.341   1.778
 1430SOL    HW2 5525   2.941   1.254   1.679
 1431SOL     OW 5526   2.092   1.434   0.538
 1431SOL    HW1 5527   2.066   1.530   0.538
 1431SOL    HW2 5528   2.021   1.380   0.583
 1432SOL     OW 5529   2.102   1.091   0.886
 1432SOL    HW1 5530   2.116   1.007   0.938
 1432SOL    HW2 5531   2.047   1.155   0.941
 1433SOL     OW 5532   2.482   1.786   1.439
 1433SOL    HW1 5533   2.390   1.769   1.474
 1433SOL    HW2 5534   2.510   1.878   1.465
 1434SOL     OW 5535   2.468   0.964   0.123
 1434SOL    HW1 5536   2.475   1.048   0.069
 1434SOL    HW2 5537   2.514   0.977   0.211
 1435SOL     OW 5538   1.984   0.643   0.563
 1435SOL    HW1 5539   1.939   0.555   0.580
 1435SOL    HW2 5540   1.983   0.697   0.647
 1436SOL     OW 5541   3.704   1.767   0.359
 1436SOL    HW1 5542   3.758   1.738   0.439
 1436SOL    HW2 5543   3.734   1.857   0.330
 1437SOL     OW 5544   1.889   1.596   0.117
 1437SOL    HW1 5545   1.870   1.500   0.138
 1437SOL    HW2 5546   1.856   1.654   0.192
 1438SOL     OW 5547   3.551   0.922   0.612
 1438SOL    HW1 5548   3.646   0.893   0.620
 1438SOL    HW2 5549   3.543   0.987   0.537
 1439SOL     OW 5550   3.503   1.108   0.432
 1439SOL    HW1 5551   3.589   1.110   0.380
 1439SOL    HW2 5552   3.517   1.155   0.520
 1440SOL     OW 5553   1.975   0.737   1.597
 1440SOL    HW1 5554   2.063   0.724   1.642
 1440SOL    HW2 5555   1.962   0.834   1.575
 1441SOL     OW 5556   2.475   1.365   0.726
 1441SOL    HW1 5557   2.426   1.278   0.735
 1441SOL    HW2 5558   2.452   1.408   0.639
 1442SOL     OW 5559   3.155   1.228   1.423
 1442SOL    HW1 5560   3.192   1.155   1.365
 1442SOL    HW2 5561   3.207   1.233   1.508
 1443SOL     OW 5562   2.671   0.004   0.502
 1443SOL    HW1 5563   2.711   0.095   0.493
 1443SOL    HW2 5564   2.571   0.012   0.508
 1444SOL     OW 5565   2.059   0.976   1.264
 1444SOL    HW1 5566   2.148   0.931   1.250
 1444SOL    HW2 5567   1.986   0.911   1.245
 1445SOL     OW 5568   3.049   1.792   1.616
 1445SOL    HW1 5569   3.073   1.852   1.540
 1445SOL    HW2 5570   3.056   1.697   1.586
 1446SOL     OW 5571   2.179   0.251   1.801
 1446SOL    HW1 5572   2.250   0.322   1.807
 1446SOL    HW2 5573   2.091   0.290   1.829
 1447SOL     OW 5574   3.328   1.417   0.953
 1447SOL    HW1 5575   3.269   1.423   1.033
 1447SOL    HW2 5576   3.313   1.329   0.907
 1448SOL     OW 5577   3.529   1.714   0.572
 1448SOL    HW1 5578   3.488   1.691   0.484
 1448SOL    HW2 5579   3.511   1.640   0.637
 1449SOL     OW 5580   2.460   0.729   0.270
 1449SOL    HW1 5581   2.484   0.798   0.202
 1449SOL    HW2 5582   2.382   0.762   0.324
 1450SOL     OW 5583   3.143   0.345   0.944
 1450SOL    HW1 5584   3.057   0.295   0.931
 1450SOL    HW2 5585   3.205   0.291   1.000
 1451SOL     OW 5586   3.438   1.662   0.307
 1451SOL    HW1 5587   3.527   1.708   0.310
 1451SOL    HW2 5588   3.417   1.638   0.212
 1452SOL     OW 5589   2.669   0.605   1.465
 1452SOL    HW1 5590   2.622   0.602   1.554
 1452SOL    HW2 5591   2.618   0.550   1.399
 1453SOL     OW 5592   3.256   0.469   1.674
 1453SOL    HW1 5593   3.236   0.512   1.762
 1453SOL    HW2 5594   3.334   0.407   1.683
 1454SOL     OW 5595   2.835   0.890   1.572
 1454SOL    HW1 5596   2.881   0.806   1.543
 1454SOL    HW2 5597   2.779   0.924   1.497
 1455SOL     OW 5598   2.853   0.410   1.242
 1455SOL    HW1 5599   2.776   0.444   1.296
 1455SOL    HW2 5600   2.819   0.359   1.163
 1456SOL     OW 5601   2.903   0.701   0.429
 1456SOL    HW1 5602   2.929   0.697   0.525
 1456SOL    HW2 5603   2.818   0.650   0.415
 1457SOL     OW 5604   1.938   0.811   0.789
 1457SOL    HW1 5605   2.037   0.799   0.798
 1457SOL    HW2 5606   1.914   0.906   0.810
 1458SOL     OW 5607   1.992   1.821   1.571
 1458SOL    HW1 5608   1.982   1.806   1.670
 1458SOL    HW2 5609   1.906   1.857   1.535
 1459SOL     OW 5610   2.727   0.348   0.195
 1459SOL    HW1 5611   2.786   0.411   0.146
 1459SOL    HW2 5612   2.746   0.254   0.166
 1460SOL     OW 5613   3.581   0.585   1.831
 1460SOL    HW1 5614   3.555   0.674   1.795
 1460SOL    HW2 5615   3.579   0.517   1.758
 1461SOL     OW 5616   3.224   1.144   0.545
 1461SOL    HW1 5617   3.307   1.115   0.497
 1461SOL    HW2 5618   3.175   1.211   0.489
 1462SOL     OW 5619   2.870   1.456   0.477
 1462SOL    HW1 5620   2.824   1.528   0.425
 1462SOL    HW2 5621   2.866   1.476   0.575
 1463SOL     OW 5622   2.213   1.801   0.853
 1463SOL    HW1 5623   2.263   1.715   0.859
 1463SOL    HW2 5624   2.278   1.878   0.850
 1464SOL     OW 5625   3.657   1.066   0.873
 1464SOL    HW1 5626   3.595   1.051   0.797
 1464SOL    HW2 5627   3.605   1.077   0.958
 1465SOL     OW 5628   3.089   1.550   1.506
 1465SOL    HW1 5629   3.095   1.473   1.570
 1465SOL    HW2 5630   3.037   1.524   1.426
 1466SOL     OW 5631   2.183   0.943   0.242
 1466SOL    HW1 5632   2.265   0.982   0.200
 1466SOL    HW2 5633   2.156   0.861   0.193
 1467SOL     OW 5634   3.320   0.735   0.728
 1467SOL    HW1 5635   3.315   0.670   0.803
 1467SOL    HW2 5636   3.400   0.794   0.741
 1468SOL     OW 5637   2.323   1.266   1.727
 1468SOL    HW1 5638   2.273   1.267   1.641
 1468SOL    HW2 5639   2.260   1.248   1.803
 1469SOL     OW 5640   2.973   1.776   0.237
 1469SOL    HW1 5641   2.913   1.714   0.287
 1469SOL    HW2 5642   3.004   1.732   0.152
 1470SOL     OW 5643   2.064   0.285   1.498
 1470SOL    HW1 5644   1.984   0.345   1.485
 1470SOL    HW2 5645   2.054   0.236   1.584
 1471SOL     OW 5646   3.494   1.377   0.081
 1471SOL    HW1 5647   3.462   1.471   0.071
 1471SOL    HW2 5648   3.418   1.314   0.069
 1472SOL     OW 5649   2.326   1.743   0.323
 1472SOL    HW1 5650   2.359   1.782   0.409
 1472SOL    HW2 5651   2.402   1.736   0.258
 1473SOL     OW 5652   2.111   1.785   1.241
 1473SOL    HW1 5653   2.168   1.720   1.291
 1473SOL    HW2 5654   2.095   1.752   1.148
 1474SOL     OW 5655   2.802   1.698   0.904
 1474SOL    HW1 5656   2.882   1.641   0.925
 1474SOL    HW2 5657   2.753   1.658   0.827
 1475SOL     OW 5658   2.244   0.700   0.480
 1475SOL    HW1 5659   2.289   0.610   0.477
 1475SOL    HW2 5660   2.150   0.689   0.513
 1476SOL     OW 5661   3.409   0.222   1.729
 1476SOL    HW1 5662   3.404   0.259   1.821
 1476SOL    HW2 5663   3.337   0.153   1.717
 1477SOL     OW 5664   2.476   0.122   0.117
 1477SOL    HW1 5665   2.574   0.100   0.124
 1477SOL    HW2 5666   2.445   0.105   0.024
 1478SOL     OW 5667   2.643   0.264   1.749
 1478SOL    HW1 5668   2.710   0.203   1.792
 1478SOL    HW2 5669   2.570   0.283   1.814
 1479SOL     OW 5670   2.750   1.514   1.195
 1479SOL    HW1 5671   2.727   1.489   1.101
 1479SOL    HW2 5672   2.811   1.445   1.234
 1480SOL     OW 5673   3.213   0.590   1.433
 1480SOL    HW1 5674   3.241   0.547   1.518
 1480SOL    HW2 5675   3.238   0.686   1.434
 1481SOL     OW 5676   2.665   1.402   0.924
 1481SOL    HW1 5677   2.755   1.416   0.882
 1481SOL    HW2 5678   2.594   1.404   0.853
 1482SOL     OW 5679   2.401   0.064   0.512
 1482SOL    HW1 5680   2.320   0.065   0.570
 1482SOL    HW2 5681   2.404   0.147   0.457
 1483SOL     OW 5682   3.296   1.188   0.041
 1483SOL    HW1 5683   3.328   1.112   0.098
 1483SOL    HW2 5684   3.204   1.215   0.071
 1484SOL     OW 5685   2.159   0.035   0.171
 1484SOL    HW1 5686   2.208   0.119   0.150
 1484SOL    HW2 5687   2.221  -0.030   0.216
 1485SOL     OW 5688   2.797   0.236   0.480
 1485SOL    HW1 5689   2.749   0.277   0.402
 1485SOL    HW2 5690   2.896   0.234   0.461
 1486SOL     OW 5691   2.938   0.683   1.464
 1486SOL    HW1 5692   2.858   0.622   1.467
 1486SOL    HW2 5693   3.019   0.630   1.440
 1487SOL     OW 5694   3.089   1.570   0.793
 1487SOL    HW1 5695   3.110   1.644   0.728
 1487SOL    HW2 5696   3.157   1.570   0.866
 1488SOL     OW 5697   2.321   1.152   0.741
 1488SOL    HW1 5698   2.250   1.125   0.806
 1488SOL    HW2 5699   2.295   1.124   0.648
 1489SOL     OW 5700   3.133   1.797   0.591
 1489SOL    HW1 5701   3.177   1.861   0.527
 1489SOL    HW2 5702   3.083   1.849   0.661
 1490SOL     OW 5703   2.894   0.549   0.016
 1490SOL    HW1 5704   2.853   0.631  -0.023
 1490SOL    HW2 5705   2.958   0.575   0.089
 1491SOL     OW 5706   1.940   0.556   1.386
 1491SOL    HW1 5707   2.032   0.555   1.345
 1491SOL    HW2 5708   1.934   0.630   1.453
 1492SOL     OW 5709   2.423   0.222   1.147
 1492SOL    HW1 5710   2.461   0.138   1.184
 1492SOL    HW2 5711   2.335   0.241   1.191
 1493SOL     OW 5712   2.728   0.454   0.642
 1493SOL    HW1 5713   2.696   0.526   0.580
 1493SOL    HW2 5714   2.752   0.373   0.589
 1494SOL     OW 5715   2.879   0.039   0.753
 1494SOL    HW1 5716   2.807   0.044   0.684
 1494SOL    HW2 5717   2.855  -0.030   0.822
 1495SOL     OW 5718   3.291   1.173   0.867
 1495SOL    HW1 5719   3.236   1.089   0.860
 1495SOL    HW2 5720   3.317   1.202   0.775
 1496SOL     OW 5721   3.328   0.590   0.992
 1496SOL    HW1 5722   3.298   0.495   0.999
 1496SOL    HW2 5723   3.401   0.606   1.058
 1497SOL     OW 5724   2.350   1.385   0.174
 1497SOL    HW1 5725   2.263   1.370   0.221
 1497SOL    HW2 5726   2.333   1.411   0.079
 1498SOL     OW 5727   3.526   1.280   0.657
 1498SOL    HW1 5728   3.625   1.288   0.671
 1498SOL    HW2 5729   3.481   1.364   0.688
 1499SOL     OW 5730   3.252   0.575   0.078
 1499SOL    HW1 5731   3.198   0.554   0.159
 1499SOL    HW2 5732   3.343   0.534   0.087
 1500SOL     OW 5733   2.389   0.256   0.328
 1500SOL    HW1 5734   2.416   0.197   0.253
 1500SOL    HW2 5735   2.389   0.351   0.297
 1501SOL     OW 5736   3.616   1.223   1.588
 1501SOL    HW1 5737   3.707   1.184   1.575
 1501SOL    HW2 5738   3.624   1.319   1.612
 1502SOL     OW 5739   2.926   1.347   1.340
 1502SOL    HW1 5740   2.846   1.324   1.395
 1502SOL    HW2 5741   3.009   1.321   1.389
 1503SOL     OW 5742   3.454   1.629   1.625
 1503SOL    HW1 5743   3.481   1.663   1.535
 1503SOL    HW2 5744   3.533   1.591   1.671
 1504SOL     OW 5745   2.973   1.195   1.100
 1504SOL    HW1 5746   2.933   1.239   1.181
 1504SOL    HW2 5747   2.932   1.232   1.017
 1505SOL     OW 5748   3.500   1.099   1.079
 1505SOL    HW1 5749   3.505   1.180   1.138
 1505SOL    HW2 5750   3.414   1.101   1.028
 1506SOL     OW 5751   2.777   0.089   1.402
 1506SOL    HW1 5752   2.802   0.069   1.307
 1506SOL    HW2 5753   2.849   0.145   1.444
 1507SOL     OW 5754   2.842   1.116   1.719
 1507SOL    HW1 5755   2.743   1.122   1.729
 1507SOL    HW2 5756   2.865   1.036   1.663
 1508SOL     OW 5757   2.567   1.050   0.368
 1508SOL    HW1 5758   2.553   1.057   0.467
 1508SOL    HW2 5759   2.651   0.999   0.350
 1509SOL     OW 5760   2.272   0.813   1.251
 1509SOL    HW1 5761   2.358   0.825   1.301
 1509SOL    HW2 5762   2.230   0.726   1.278
 1510SOL     OW 5763   3.136   0.386   1.262
 1510SOL    HW1 5764   3.157   0.460   1.326
 1510SOL    HW2 5765   3.047   0.403   1.219
 1511SOL     OW 5766   1.926   1.564   1.331
 1511SOL    HW1 5767   1.880   1.646   1.297
 1511SOL    HW2 5768   2.024   1.583   1.340
 1512SOL     OW 5769   2.229   1.100   0.501
 1512SOL    HW1 5770   2.222   1.183   0.445
 1512SOL    HW2 5771   2.233   1.020   0.441
 1513SOL     OW 5772   2.428   0.537   0.865
 1513SOL    HW1 5773   2.440   0.603   0.791
 1513SOL    HW2 5774   2.474   0.571   0.948
 1514SOL     OW 5775   3.114   1.348   0.388
 1514SOL    HW1 5776   3.164   1.425   0.428
 1514SOL    HW2 5777   3.019   1.350   0.420
 1515SOL     OW 5778   3.134   1.445   1.142
 1515SOL    HW1 5779   3.181   1.458   1.229
 1515SOL    HW2 5780   3.068   1.371   1.151
 1516SOL     OW 5781   3.444   0.639   0.472
 1516SOL    HW1 5782   3.413   0.700   0.545
 1516SOL    HW2 5783   3.494   0.691   0.403
 1517SOL     OW 5784   2.216   1.510   1.329
 1517SOL    HW1 5785   2.195   1.466   1.242
 1517SOL    HW2 5786   2.313   1.536   1.332
 1518SOL     OW 5787   2.264   0.751   1.598
 1518SOL    HW1 5788   2.332   0.806   1.551
 1518SOL    HW2 5789   2.304   0.663   1.625
 1519SOL     OW 5790   3.449   0.779   1.670
 1519SOL    HW1 5791   3.357   0.817   1.665
 1519SOL    HW2 5792   3.509   0.826   1.605
 1520SOL     OW 5793   2.875   0.105   1.770
 1520SOL    HW1 5794   2.881   0.190   1.718
 1520SOL    HW2 5795   2.907   0.029   1.713
 1521SOL     OW 5796   2.366   0.050   1.740
 1521SOL    HW1 5797   2.324  -0.007   1.670
 1521SOL    HW2 5798   2.300   0.119   1.772
 1522SOL     OW 5799   2.435   0.870   1.029
 1522SOL    HW1 5800   2.479   0.959   1.020
 1522SOL    HW2 5801   2.372   0.870   1.106
 1523SOL     OW 5802   3.222   0.862   1.045
 1523SOL    HW1 5803   3.147   0.862   0.979
 1523SOL    HW2 5804   3.259   0.770   1.054
 1524SOL     OW 5805   3.071   0.525   0.275
 1524SOL    HW1 5806   3.084   0.441   0.329
 1524SOL    HW2 5807   3.042   0.599   0.335
 1525SOL     OW 5808   2.169   0.213   1.231
 1525SOL    HW1 5809   2.146   0.250   1.321
 1525SOL    HW2 5810   2.139   0.118   1.225
 1526SOL     OW 5811   1.899   1.310   1.282
 1526SOL    HW1 5812   1.952   1.261   1.350
 1526SOL    HW2 5813   1.921   1.408   1.287
 1527SOL     OW 5814   2.594   0.634   1.064
 1527SOL    HW1 5815   2.653   0.608   0.988
 1527SOL    HW2 5816   2.566   0.730   1.053
 1528SOL     OW 5817   3.590   0.935   1.854
 1528SOL    HW1 5818   3.544   0.928   1.765
 1528SOL    HW2 5819   3.528   0.979   1.920
 1529SOL     OW 5820   3.484   0.367   0.374
 1529SOL    HW1 5821   3.486   0.291   0.438
 1529SOL    HW2 5822   3.436   0.444   0.414
 1530SOL     OW 5823   2.885   0.766   0.966
 1530SOL    HW1 5824   2.900   0.787   1.062
 1530SOL    HW2 5825   2.855   0.671   0.957
 1531SOL     OW 5826   2.842   1.573   1.700
 1531SOL    HW1 5827   2.822   1.617   1.612
 1531SOL    HW2 5828   2.881   1.482   1.684
 1532SOL     OW 5829   3.721   1.518   1.605
 1532SOL    HW1 5830   3.735   1.545   1.510
 1532SOL    HW2 5831   3.804   1.540   1.658
 1533SOL     OW 5832   2.212   0.898   1.804
 1533SOL    HW1 5833   2.288   0.942   1.852
 1533SOL    HW2 5834   2.247   0.851   1.722
 1534SOL     OW 5835   3.402   0.274   0.125
 1534SOL    HW1 5836   3.341   0.199   0.148
 1534SOL    HW2 5837   3.424   0.326   0.208
 1535SOL     OW 5838   2.930   1.333   0.849
 1535SOL    HW1 5839   2.937   1.249   0.794
 1535SOL    HW2 5840   2.992   1.402   0.813
 1536SOL     OW 5841   2.181   0.810   0.949
 1536SOL    HW1 5842   2.274   0.846   0.954
 1536SOL    HW2 5843   2.175   0.725   1.001
 1537SOL     OW 5844   2.201   0.509   1.006
 1537SOL    HW1 5845   2.149   0.426   0.989
 1537SOL    HW2 5846   2.278   0.514   0.942
 1538SOL     OW 5847   3.000   0.380   1.678
 1538SOL    HW1 5848   2.955   0.443   1.742
 1538SOL    HW2 5849   3.093   0.411   1.661
 1539SOL     OW 5850   3.022   0.207   1.477
 1539SOL    HW1 5851   3.022   0.271   1.554
 1539SOL    HW2 5852   3.050   0.255   1.394
 1540SOL     OW 5853   1.950   1.801   0.927
 1540SOL    HW1 5854   1.908   1.715   0.900
 1540SOL    HW2 5855   2.044   1.804   0.893
 1541SOL     OW 5856   2.366   1.568   0.910
 1541SOL    HW1 5857   2.432   1.642   0.919
 1541SOL    HW2 5858   2.410   1.489   0.868
 1542SOL     OW 5859   2.864   0.796   1.238
 1542SOL    HW1 5860   2.905   0.764   1.324
 1542SOL    HW2 5861   2.768   0.769   1.235
 1543SOL     OW 5862   1.902   0.544   1.114
 1543SOL    HW1 5863   1.987   0.511   1.073
 1543SOL    HW2 5864   1.915   0.559   1.212
 1544SOL     OW 5865   2.051   0.520   1.722
 1544SOL    HW1 5866   2.110   0.480   1.652
 1544SOL    HW2 5867   1.993   0.591   1.681
 1545SOL     OW 5868   3.231   0.950   1.660
 1545SOL    HW1 5869   3.270   1.039   1.680
 1545SOL    HW2 5870   3.241   0.930   1.563
 1546SOL     OW 5871   2.677   0.572   0.325
 1546SOL    HW1 5872   2.684   0.483   0.279
 1546SOL    HW2 5873   2.583   0.606   0.317
 1547SOL     OW 5874   3.519   0.604   1.206
 1547SOL    HW1 5875   3.481   0.535   1.268
 1547SOL    HW2 5876   3.601   0.568   1.162
 1548SOL     OW 5877   2.114   1.564   1.744
 1548SOL    HW1 5878   2.084   1.621   1.820
 1548SOL    HW2 5879   2.107   1.467   1.770
 1549SOL     OW 5880   2.533   0.464   1.269
 1549SOL    HW1 5881   2.499   0.375   1.239
 1549SOL    HW2 5882   2.559   0.518   1.189
 1550SOL     OW 5883   2.792   1.678   1.465
 1550SOL    HW1 5884   2.768   1.660   1.370
 1550SOL    HW2 5885   2.822   1.772   1.475
 1551SOL     OW 5886   2.335   0.500   0.191
 1551SOL    HW1 5887   2.396   0.580   0.195
 1551SOL    HW2 5888   2.240   0.531   0.198
 1552SOL     OW 5889   2.021   1.137   1.466
 1552SOL    HW1 5890   2.043   1.076   1.542
 1552SOL    HW2 5891   2.031   1.088   1.380
 1553SOL     OW 5892   3.209   1.059   1.234
 1553SOL    HW1 5893   3.233   0.996   1.160
 1553SOL    HW2 5894   3.119   1.099   1.216
 1554SOL     OW 5895   3.164   0.855   0.309
 1554SOL    HW1 5896   3.078   0.824   0.351
 1554SOL    HW2 5897   3.160   0.841   0.210
 1555SOL     OW 5898   3.621   1.747   1.154
 1555SOL    HW1 5899   3.682   1.777   1.081
 1555SOL    HW2 5900   3.583   1.658   1.132
 1556SOL     OW 5901   3.114   1.731   1.128
 1556SOL    HW1 5902   3.198   1.736   1.074
 1556SOL    HW2 5903   3.091   1.635   1.146
 1557SOL     OW 5904   1.945   1.258   1.022
 1557SOL    HW1 5905   1.940   1.257   1.122
 1557SOL    HW2 5906   1.862   1.217   0.984
 1558SOL     OW 5907   2.550   1.662   1.716
 1558SOL    HW1 5908   2.494   1.743   1.725
 1558SOL    HW2 5909   2.602   1.666   1.630
 1559SOL     OW 5910   2.765   0.086   0.133
 1559SOL    HW1 5911   2.816   0.087   0.047
 1559SOL    HW2 5912   2.821   0.044   0.204
 1560SOL     OW 5913   3.588   0.135   0.523
 1560SOL    HW1 5914   3.661   0.118   0.456
 1560SOL    HW2 5915   3.557   0.048   0.561
 1561SOL     OW 5916   3.250   1.573   0.477
 1561SOL    HW1 5917   3.317   1.585   0.403
 1561SOL    HW2 5918   3.210   1.662   0.500
 1562SOL     OW 5919   1.992   1.794   1.851
 1562SOL    HW1 5920   1.951   1.720   1.904
 1562SOL    HW2 5921   2.056   1.845   1.909
 1563SOL     OW 5922   3.142   0.927   0.672
 1563SOL    HW1 5923   3.202   0.846   0.674
 1563SOL    HW2 5924   3.182   0.996   0.612
 1564SOL     OW 5925   2.692   1.273   1.422
 1564SOL    HW1 5926   2.687   1.306   1.517
 1564SOL    HW2 5927   2.606   1.292   1.376
 1565SOL     OW 5928   2.534   1.616   0.154
 1565SOL    HW1 5929   2.543   1.626   0.055
 1565SOL    HW2 5930   2.494   1.527   0.175
 1566SOL     OW 5931   3.512   1.720   1.394
 1566SOL    HW1 5932   3.565   1.730   1.310
 1566SOL    HW2 5933   3.485   1.810   1.428
 1567SOL     OW 5934   3.703   0.175   0.963
 1567SOL    HW1 5935   3.742   0.090   0.927
 1567SOL    HW2 5936   3.605   0.177   0.944
 1568SOL     OW 5937   2.125   0.326   0.720
 1568SOL    HW1 5938   2.046   0.377   0.686
 1568SOL    HW2 5939   2.116   0.311   0.818
 1569SOL     OW 5940   3.056   1.612   0.031
 1569SOL    HW1 5941   3.062   1.519   0.068
 1569SOL    HW2 5942   2.997   1.612  -0.049
 1570SOL     OW 5943   2.684   1.002   1.372
 1570SOL    HW1 5944   2.724   1.001   1.280
 1570SOL    HW2 5945   2.694   1.094   1.412
 1571SOL     OW 5946   2.778   0.910   0.291
 1571SOL    HW1 5947   2.841   0.948   0.223
 1571SOL    HW2 5948   2.818   0.827   0.330
 1572SOL     OW 5949   3.366   1.607   0.044
 1572SOL    HW1 5950   3.274   1.644   0.051
 1572SOL    HW2 5951   3.404   1.627  -0.046
 1573SOL     OW 5952   2.234   1.288   1.490
 1573SOL    HW1 5953   2.221   1.381   1.456
 1573SOL    HW2 5954   2.150   1.236   1.477
 1574SOL     OW 5955   3.476   1.292   1.289
 1574SOL    HW1 5956   3.536   1.295   1.369
 1574SOL    HW2 5957   3.401   1.356   1.302
 1575SOL     OW 5958   2.901   1.098   0.696
 1575SOL    HW1 5959   2.831   1.051   0.750
 1575SOL    HW2 5960   2.960   1.030   0.653
 1576SOL     OW 5961   2.452   1.487   0.491
 1576SOL    HW1 5962   2.494   1.429   0.421
 1576SOL    HW2 5963   2.408   1.566   0.447
 1577SOL     OW 5964   3.571   0.385   1.381
 1577SOL    HW1 5965   3.644   0.454   1.385
 1577SOL    HW2 5966   3.599   0.310   1.322
 1578SOL     OW 5967   2.117   1.348   0.290
 1578SOL    HW1 5968   2.021   1.349   0.263
 1578SOL    HW2 5969   2.129   1.401   0.374
 1579SOL     OW 5970   1.967   1.013   1.726
 1579SOL    HW1 5971   1.890   0.980   1.780
 1579SOL    HW2 5972   2.052   0.983   1.768
 1580SOL     OW 5973   2.534   0.203   1.489
 1580SOL    HW1 5974   2.624   0.187   1.449
 1580SOL    HW2 5975   2.542   0.208   1.588
 1581SOL     OW 5976   3.302   0.856   1.398
 1581SOL    HW1 5977   3.245   0.908   1.335
 1581SOL    HW2 5978   3.398   0.868   1.374
 1582SOL     OW 5979   1.934   0.166   0.318
 1582SOL    HW1 5980   1.917   0.249   0.264
 1582SOL    HW2 5981   2.024   0.129   0.296
 1583SOL     OW 5982   3.045   1.335   0.119
 1583SOL    HW1 5983   2.946   1.324   0.121
 1583SOL    HW2 5984   3.079   1.350   0.212
 1584SOL     OW 5985   2.475   0.842   1.431
 1584SOL    HW1 5986   2.531   0.923   1.414
 1584SOL    HW2 5987   2.534   0.762   1.434
 1585SOL     OW 5988   3.355   1.767   0.959
 1585SOL    HW1 5989   3.388   1.831   0.890
 1585SOL    HW2 5990   3.421   1.761   1.034
 1586SOL     OW 5991   2.578   0.565   1.708
 1586SOL    HW1 5992   2.597   0.630   1.782
 1586SOL    HW2 5993   2.638   0.485   1.717
 1587SOL     OW 5994   3.312   1.220   1.633
 1587SOL    HW1 5995   3.303   1.210   1.732
 1587SOL    HW2 5996   3.408   1.213   1.607
 1588SOL     OW 5997   2.252   1.741   1.560
 1588SOL    HW1 5998   2.161   1.782   1.558
 1588SOL    HW2 5999   2.245   1.647   1.592
 1589SOL     OW 6000   3.536   0.883   1.254
 1589SOL    HW1 6001   3.509   0.794   1.217
 1589SOL    HW2 6002   3.537   0.951   1.181
 1590SOL     OW 6003   3.087   0.325   0.449
 1590SOL    HW1 6004   3.152   0.251   0.438
 1590SOL    HW2 6005   3.107   0.375   0.533
 1591SOL     OW 6006   2.456   0.745   0.652
 1591SOL    HW1 6007   2.506   0.830   0.633
 1591SOL    HW2 6008   2.368   0.747   0.604
 1592SOL     OW 6009   3.639   0.342   1.642
 1592SOL    HW1 6010   3.622   0.373   1.548
 1592SOL    HW2 6011   3.555   0.305   1.680
 1593SOL     OW 6012   3.592   0.934   1.517
 1593SOL    HW1 6013   3.630   1.025   1.532
 1593SOL    HW2 6014   3.584   0.917   1.418
 1594SOL     OW 6015   2.721   1.374   0.016
 1594SOL    HW1 6016   2.675   1.389   0.104
 1594SOL    HW2 6017   2.765   1.459  -0.014
 1595SOL     OW 6018   2.523   1.790   0.953
 1595SOL    HW1 6019   2.477   1.878   0.940
 1595SOL    HW2 6020   2.622   1.802   0.946
 1596SOL     OW 6021   2.721   0.956   0.861
 1596SOL    HW1 6022   2.775   0.887   0.909
 1596SOL    HW2 6023   2.689   1.025   0.927
 1597SOL     OW 6024   2.945   0.984   0.087
 1597SOL    HW1 6025   2.922   1.037   0.005
 1597SOL    HW2 6026   3.026   0.928   0.068
 1598SOL     OW 6027   3.723   1.569   0.851
 1598SOL    HW1 6028   3.652   1.557   0.781
 1598SOL    HW2 6029   3.724   1.490   0.911
 1599SOL     OW 6030   2.083   1.314   1.844
 1599SOL    HW1 6031   2.018   1.241   1.823
 1599SOL    HW2 6032   2.087   1.328   1.942
 1600SOL     OW 6033   1.941   1.240   0.653
 1600SOL    HW1 6034   1.940   1.193   0.741
 1600SOL    HW2 6035   2.023   1.212   0.602
 1601SOL     OW 6036   2.534   1.391   1.624
 1601SOL    HW1 6037   2.456   1.341   1.662
 1601SOL    HW2 6038   2.531   1.486   1.655
 1602SOL     OW 6039   3.686   0.192   1.227
 1602SOL    HW1 6040   3.682   0.102   1.271
 1602SOL    HW2 6041   3.689   0.181   1.128
 1603SOL     OW 6042   2.290   0.424   0.520
 1603SOL    HW1 6043   2.320   0.352   0.458
 1603SOL    HW2 6044   2.251   0.384   0.603
 1604SOL     OW 6045   3.567   1.487   1.104
 1604SOL    HW1 6046   3.474   1.462   1.077
 1604SOL    HW2 6047   3.593   1.437   1.186
 1605SOL     OW 6048   2.179   0.547   1.280
 1605SOL    HW1 6049   2.217   0.488   1.352
 1605SOL    HW2 6050   2.219   0.521   1.192
 1606SOL     OW 6051   2.674   1.586   0.687
 1606SOL    HW1 6052   2.706   1.596   0.593
 1606SOL    HW2 6053   2.595   1.524   0.689
 1607SOL     OW 6054   3.286   0.214   1.112
 1607SOL    HW1 6055   3.338   0.149   1.167
 1607SOL    HW2 6056   3.237   0.277   1.173
 1608SOL     OW 6057   2.863   0.034   1.154
 1608SOL    HW1 6058   2.800  -0.038   1.123
 1608SOL    HW2 6059   2.956  -0.002   1.154
 1609SOL     OW 6060   2.632   1.330   0.301
 1609SOL    HW1 6061   2.586   1.243   0.318
 1609SOL    HW2 6062   2.723   1.327   0.342
 1610SOL     OW 6063   2.480   1.567   1.284
 1610SOL    HW1 6064   2.475   1.649   1.341
 1610SOL    HW2 6065   2.569   1.564   1.239
 1611SOL     OW 6066   3.162   0.453   0.691
 1611SOL    HW1 6067   3.103   0.533   0.695
 1611SOL    HW2 6068   3.177   0.418   0.784
 1612SOL     OW 6069   3.455   0.221   0.882
 1612SOL    HW1 6070   3.371   0.220   0.936
 1612SOL    HW2 6071   3.457   0.304   0.826
 1613SOL     OW 6072   1.901   1.077   0.300
 1613SOL    HW1 6073   2.000   1.066   0.291
 1613SOL    HW2 6074   1.861   0.991   0.332
 1614SOL     OW 6075   2.737   1.646   0.337
 1614SOL    HW1 6076   2.660   1.611   0.283
 1614SOL    HW2 6077   2.705   1.717   0.399
 1615SOL     OW 6078   2.092   0.628   1.975
 1615SOL    HW1 6079   1.999   0.626   2.012
 1615SOL    HW2 6080   2.093   0.589   1.883
 1616SOL     OW 6081   2.087   0.275   2.858
 1616SOL    HW1 6082   2.122   0.258   2.950
 1616SOL    HW2 6083   1.999   0.230   2.846
 1617SOL     OW 6084   1.881   0.368   2.509
 1617SOL    HW1 6085   1.799   0.411   2.548
 1617SOL    HW2 6086   1.853   0.295   2.446
 1618SOL     OW 6087   2.431   1.275   3.027
 1618SOL    HW1 6088   2.338   1.268   2.990
 1618SOL    HW2 6089   2.442   1.364   3.071
 1619SOL     OW 6090   3.417   1.511   2.565
 1619SOL    HW1 6091   3.360   1.495   2.646
 1619SOL    HW2 6092   3.358   1.521   2.485
 1620SOL     OW 6093   2.997   0.703   2.579
 1620SOL    HW1 6094   3.054   0.781   2.554
 1620SOL    HW2 6095   2.937   0.729   2.655
 1621SOL     OW 6096   3.617   0.607   2.093
 1621SOL    HW1 6097   3.605   0.594   1.994
 1621SOL    HW2 6098   3.587   0.526   2.142
 1622SOL     OW 6099   2.630   1.144   2.885
 1622SOL    HW1 6100   2.552   1.161   2.945
 1622SOL    HW2 6101   2.664   1.231   2.849
 1623SOL     OW 6102   2.712   0.798   3.685
 1623SOL    HW1 6103   2.708   0.874   3.750
 1623SOL    HW2 6104   2.734   0.834   3.594
 1624SOL     OW 6105   2.548   1.161   3.665
 1624SOL    HW1 6106   2.608   1.240   3.679
 1624SOL    HW2 6107   2.462   1.192   3.624
 1625SOL     OW 6108   3.322   1.505   3.201
 1625SOL    HW1 6109   3.346   1.599   3.227
 1625SOL    HW2 6110   3.306   1.451   3.283
 1626SOL     OW 6111   2.300   0.392   3.361
 1626SOL    HW1 6112   2.382   0.336   3.370
 1626SOL    HW2 6113   2.219   0.334   3.365
 1627SOL     OW 6114   3.465   0.447   2.599
 1627SOL    HW1 6115   3.391   0.493   2.549
 1627SOL    HW2 6116   3.516   0.515   2.652
 1628SOL     OW 6117   2.093   1.713   2.345
 1628SOL    HW1 6118   2.127   1.790   2.399
 1628SOL    HW2 6119   2.137   1.713   2.255
 1629SOL     OW 6120   2.989   1.341   3.552
 1629SOL    HW1 6121   3.036   1.341   3.640
 1629SOL    HW2 6122   2.941   1.254   3.541
 1630SOL     OW 6123   2.092   1.434   2.400
 1630SOL    HW1 6124   2.066   1.530   2.400
 1630SOL    HW2 6125   2.021   1.380   2.445
 1631SOL     OW 6126   2.482   1.786   3.301
 1631SOL    HW1 6127   2.390   1.769   3.336
 1631SOL    HW2 6128   2.510   1.878   3.327
 1632SOL     OW 6129   2.468   0.964   1.985
 1632SOL    HW1 6130   2.475   1.048   1.931
 1632SOL    HW2 6131   2.514   0.977   2.073
 1633SOL     OW 6132   3.456   0.114   3.342
 1633SOL    HW1 6133   3.438   0.181   3.270
 1633SOL    HW2 6134   3.453   0.160   3.431
 1634SOL     OW 6135   1.984   0.643   2.425
 1634SOL    HW1 6136   1.939   0.555   2.442
 1634SOL    HW2 6137   1.983   0.697   2.509
 1635SOL     OW 6138   3.704   1.767   2.221
 1635SOL    HW1 6139   3.758   1.738   2.301
 1635SOL    HW2 6140   3.734   1.857   2.192
 1636SOL     OW 6141   1.889   1.596   1.979
 1636SOL    HW1 6142   1.870   1.500   2.000
 1636SOL    HW2 6143   1.856   1.654   2.054
 1637SOL     OW 6144   3.551   0.922   2.474
 1637SOL    HW1 6145   3.646   0.893   2.482
 1637SOL    HW2 6146   3.543   0.987   2.399
 1638SOL     OW 6147   3.503   1.108   2.294
 1638SOL    HW1 6148   3.589   1.110   2.242
 1638SOL    HW2 6149   3.517   1.155   2.382
 1639SOL     OW 6150   1.975   0.737   3.459
 1639SOL    HW1 6151   2.063   0.724   3.504
 1639SOL    HW2 6152   1.962   0.834   3.437
 1640SOL     OW 6153   2.475   1.365   2.588
 1640SOL    HW1 6154   2.426   1.278   2.597
 1640SOL    HW2 6155   2.452   1.408   2.501
 1641SOL     OW 6156   3.155   1.228   3.285
 1641SOL    HW1 6157   3.192   1.155   3.227
 1641SOL    HW2 6158   3.207   1.233   3.370
 1642SOL     OW 6159   2.671   0.004   2.364
 1642SOL    HW1 6160   2.711   0.095   2.355
 1642SOL    HW2 6161   2.571   0.012   2.370
 1643SOL     OW 6162   3.387   0.999   2.052
 1643SOL    HW1 6163   3.324   0.923   2.065
 1643SOL    HW2 6164   3.435   1.017   2.138
 1644SOL     OW 6165   3.049   1.792   3.478
 1644SOL    HW1 6166   3.073   1.852   3.402
 1644SOL    HW2 6167   3.056   1.697   3.448
 1645SOL     OW 6168   3.328   1.417   2.815
 1645SOL    HW1 6169   3.269   1.423   2.895
 1645SOL    HW2 6170   3.313   1.329   2.769
 1646SOL     OW 6171   3.529   1.714   2.434
 1646SOL    HW1 6172   3.488   1.691   2.346
 1646SOL    HW2 6173   3.511   1.640   2.499
 1647SOL     OW 6174   2.460   0.729   2.132
 1647SOL    HW1 6175   2.484   0.798   2.064
 1647SOL    HW2 6176   2.382   0.762   2.186
 1648SOL     OW 6177   3.143   0.345   2.806
 1648SOL    HW1 6178   3.057   0.295   2.793
 1648SOL    HW2 6179   3.205   0.291   2.862
 1649SOL     OW 6180   3.438   1.662   2.169
 1649SOL    HW1 6181   3.527   1.708   2.172
 1649SOL    HW2 6182   3.417   1.638   2.074
 1650SOL     OW 6183   2.669   0.605   3.327
 1650SOL    HW1 6184   2.622   0.602   3.416
 1650SOL    HW2 6185   2.618   0.550   3.261
 1651SOL     OW 6186   3.256   0.469   3.536
 1651SOL    HW1 6187   3.236   0.512   3.624
 1651SOL    HW2 6188   3.334   0.407   3.545
 1652SOL     OW 6189   2.853   0.410   3.104
 1652SOL    HW1 6190   2.776   0.444   3.158
 1652SOL    HW2 6191   2.819   0.359   3.025
 1653SOL     OW 6192   2.903   0.701   2.291
 1653SOL    HW1 6193   2.929   0.697   2.387
 1653SOL    HW2 6194   2.818   0.650   2.277
 1654SOL     OW 6195   1.938   0.811   2.651
 1654SOL    HW1 6196   2.037   0.799   2.660
 1654SOL    HW2 6197   1.914   0.906   2.672
 1655SOL     OW 6198   1.992   1.821   3.433
 1655SOL    HW1 6199   1.982   1.806   3.532
 1655SOL    HW2 6200   1.906   1.857   3.397
 1656SOL     OW 6201   2.727   0.348   2.057
 1656SOL    HW1 6202   2.786   0.411   2.008
 1656SOL    HW2 6203   2.746   0.254   2.028
 1657SOL     OW 6204   3.581   0.585   3.693
 1657SOL    HW1 6205   3.555   0.674   3.657
 1657SOL    HW2 6206   3.579   0.517   3.620
 1658SOL     OW 6207   3.224   1.144   2.407
 1658SOL    HW1 6208   3.307   1.115   2.359
 1658SOL    HW2 6209   3.175   1.211   2.351
 1659SOL     OW 6210   2.412   0.196   2.747
 1659SOL    HW1 6211   2.407   0.191   2.847
 1659SOL    HW2 6212   2.414   0.292   2.718
 1660SOL     OW 6213   2.870   1.456   2.339
 1660SOL    HW1 6214   2.824   1.528   2.287
 1660SOL    HW2 6215   2.866   1.476   2.437
 1661SOL     OW 6216   2.213   1.801   2.715
 1661SOL    HW1 6217   2.263   1.715   2.721
 1661SOL    HW2 6218   2.278   1.878   2.712
 1662SOL     OW 6219   3.657   1.066   2.735
 1662SOL    HW1 6220   3.595   1.051   2.659
 1662SOL    HW2 6221   3.605   1.077   2.820
 1663SOL     OW 6222   3.089   1.550   3.368
 1663SOL    HW1 6223   3.095   1.473   3.432
 1663SOL    HW2 6224   3.037   1.524   3.288
 1664SOL     OW 6225   2.183   0.943   2.104
 1664SOL    HW1 6226   2.265   0.982   2.062
 1664SOL    HW2 6227   2.156   0.861   2.055
 1665SOL     OW 6228   3.320   0.735   2.590
 1665SOL    HW1 6229   3.315   0.670   2.665
 1665SOL    HW2 6230   3.400   0.794   2.603
 1666SOL     OW 6231   2.323   1.266   3.589
 1666SOL    HW1 6232   2.273   1.267   3.503
 1666SOL    HW2 6233   2.260   1.248   3.665
 1667SOL     OW 6234   2.973   1.776   2.099
 1667SOL    HW1 6235   2.913   1.714   2.149
 1667SOL    HW2 6236   3.004   1.732   2.014
 1668SOL     OW 6237   2.064   0.285   3.360
 1668SOL    HW1 6238   1.984   0.345   3.347
 1668SOL    HW2 6239   2.054   0.236   3.446
 1669SOL     OW 6240   3.494   1.377   1.943
 1669SOL    HW1 6241   3.462   1.471   1.933
 1669SOL    HW2 6242   3.418   1.314   1.931
 1670SOL     OW 6243   2.326   1.743   2.185
 1670SOL    HW1 6244   2.359   1.782   2.271
 1670SOL    HW2 6245   2.402   1.736   2.120
 1671SOL     OW 6246   3.262   0.107   2.288
 1671SOL    HW1 6247   3.238   0.070   2.198
 1671SOL    HW2 6248   3.361   0.123   2.292
 1672SOL     OW 6249   2.111   1.785   3.103
 1672SOL    HW1 6250   2.168   1.720   3.153
 1672SOL    HW2 6251   2.095   1.752   3.010
 1673SOL     OW 6252   2.802   1.698   2.766
 1673SOL    HW1 6253   2.882   1.641   2.787
 1673SOL    HW2 6254   2.753   1.658   2.689
 1674SOL     OW 6255   2.244   0.700   2.342
 1674SOL    HW1 6256   2.289   0.610   2.339
 1674SOL    HW2 6257   2.150   0.689   2.375
 1675SOL     OW 6258   3.409   0.222   3.591
 1675SOL    HW1 6259   3.404   0.259   3.683
 1675SOL    HW2 6260   3.337   0.153   3.579
 1676SOL     OW 6261   2.476   0.122   1.979
 1676SOL    HW1 6262   2.574   0.100   1.986
 1676SOL    HW2 6263   2.445   0.105   1.886
 1677SOL     OW 6264   2.750   1.514   3.057
 1677SOL    HW1 6265   2.727   1.489   2.963
 1677SOL    HW2 6266   2.811   1.445   3.096
 1678SOL     OW 6267   3.213   0.590   3.295
 1678SOL    HW1 6268   3.241   0.547   3.380
 1678SOL    HW2 6269   3.238   0.686   3.296
 1679SOL     OW 6270   2.665   1.402   2.786
 1679SOL    HW1 6271   2.755   1.416   2.744
 1679SOL    HW2 6272   2.594   1.404   2.715
 1680SOL     OW 6273   2.784   0.503   2.761
 1680SOL    HW1 6274   2.759   0.494   2.665
 1680SOL    HW2 6275   2.832   0.421   2.792
 1681SOL     OW 6276   2.401   0.064   2.374
 1681SOL    HW1 6277   2.320   0.065   2.432
 1681SOL    HW2 6278   2.404   0.147   2.319
 1682SOL     OW 6279   3.296   1.188   1.903
 1682SOL    HW1 6280   3.328   1.112   1.960
 1682SOL    HW2 6281   3.204   1.215   1.933
 1683SOL     OW 6282   2.797   0.236   2.342
 1683SOL    HW1 6283   2.749   0.277   2.264
 1683SOL    HW2 6284   2.896   0.234   2.323
 1684SOL     OW 6285   2.938   0.683   3.326
 1684SOL    HW1 6286   2.858   0.622   3.329
 1684SOL    HW2 6287   3.019   0.630   3.302
 1685SOL     OW 6288   3.089   1.570   2.655
 1685SOL    HW1 6289   3.110   1.644   2.590
 1685SOL    HW2 6290   3.157   1.570   2.728
 1686SOL     OW 6291   2.321   1.152   2.603
 1686SOL    HW1 6292   2.250   1.125   2.668
 1686SOL    HW2 6293   2.295   1.124   2.510
 1687SOL     OW 6294   3.133   1.797   2.453
 1687SOL    HW1 6295   3.177   1.861   2.389
 1687SOL    HW2 6296   3.083   1.849   2.523
 1688SOL     OW 6297   2.894   0.549   1.878
 1688SOL    HW1 6298   2.853   0.631   1.839
 1688SOL    HW2 6299   2.958   0.575   1.951
 1689SOL     OW 6300   1.940   0.556   3.248
 1689SOL    HW1 6301   2.032   0.555   3.207
 1689SOL    HW2 6302   1.934   0.630   3.315
 1690SOL     OW 6303   2.423   0.222   3.009
 1690SOL    HW1 6304   2.461   0.138   3.046
 1690SOL    HW2 6305   2.335   0.241   3.053
 1691SOL     OW 6306   2.728   0.454   2.504
 1691SOL    HW1 6307   2.696   0.526   2.442
 1691SOL    HW2 6308   2.752   0.373   2.451
 1692SOL     OW 6309   2.879   0.039   2.615
 1692SOL    HW1 6310   2.807   0.044   2.546
 1692SOL    HW2 6311   2.855  -0.030   2.684
 1693SOL     OW 6312   3.291   1.173   2.729
 1693SOL    HW1 6313   3.236   1.089   2.722
 1693SOL    HW2 6314   3.317   1.202   2.637
 1694SOL     OW 6315   3.328   0.590   2.854
 1694SOL    HW1 6316   3.298   0.495   2.861
 1694SOL    HW2 6317   3.401   0.606   2.920
 1695SOL     OW 6318   3.719   0.833   2.239
 1695SOL    HW1 6319   3.761   0.769   2.303
 1695SOL    HW2 6320   3.681   0.782   2.161
 1696SOL     OW 6321   2.350   1.385   2.036
 1696SOL    HW1 6322   2.263   1.370   2.083
 1696SOL    HW2 6323   2.333   1.411   1.941
 1697SOL     OW 6324   3.526   1.280   2.519
 1697SOL    HW1 6325   3.625   1.288   2.533
 1697SOL    HW2 6326   3.481   1.364   2.550
 1698SOL     OW 6327   3.252   0.575   1.940
 1698SOL    HW1 6328   3.198   0.554   2.021
 1698SOL    HW2 6329   3.343   0.534   1.949
 1699SOL     OW 6330   2.389   0.256   2.190
 1699SOL    HW1 6331   2.416   0.197   2.115
 1699SOL    HW2 6332   2.389   0.351   2.159
 1700SOL     OW 6333   3.616   1.223   3.450
 1700SOL    HW1 6334   3.707   1.184   3.437
 1700SOL    HW2 6335   3.624   1.319   3.474
 1701SOL     OW 6336   2.926   1.347   3.202
 1701SOL    HW1 6337   2.846   1.324   3.257
 1701SOL    HW2 6338   3.009   1.321   3.251
 1702SOL     OW 6339   3.454   1.629   3.487
 1702SOL    HW1 6340   3.481   1.663   3.397
 1702SOL    HW2 6341   3.533   1.591   3.533
 1703SOL     OW 6342   3.500   1.099   2.941
 1703SOL    HW1 6343   3.505   1.180   3.000
 1703SOL    HW2 6344   3.414   1.101   2.890
 1704SOL     OW 6345   2.777   0.089   3.264
 1704SOL    HW1 6346   2.802   0.069   3.169
 1704SOL    HW2 6347   2.849   0.145   3.306
 1705SOL     OW 6348   2.842   1.116   3.581
 1705SOL    HW1 6349   2.743   1.122   3.591
 1705SOL    HW2 6350   2.865   1.036   3.525
 1706SOL     OW 6351   2.567   1.050   2.230
 1706SOL    HW1 6352   2.553   1.057   2.329
 1706SOL    HW2 6353   2.651   0.999   2.212
 1707SOL     OW 6354   2.272   0.813   3.113
 1707SOL    HW1 6355   2.358   0.825   3.163
 1707SOL    HW2 6356   2.230   0.726   3.140
 1708SOL     OW 6357   3.136   0.386   3.124
 1708SOL    HW1 6358   3.157   0.460   3.188
 1708SOL    HW2 6359   3.047   0.403   3.081
 1709SOL     OW 6360   1.926   1.564   3.193
 1709SOL    HW1 6361   1.880   1.646   3.159
 1709SOL    HW2 6362   2.024   1.583   3.202
 1710SOL     OW 6363   2.229   1.100   2.363
 1710SOL    HW1 6364   2.222   1.183   2.307
 1710SOL    HW2 6365   2.233   1.020   2.303
 1711SOL     OW 6366   2.428   0.537   2.727
 1711SOL    HW1 6367   2.440   0.603   2.653
 1711SOL    HW2 6368   2.474   0.571   2.810
 1712SOL     OW 6369   3.114   1.348   2.250
 1712SOL    HW1 6370   3.164   1.425   2.290
 1712SOL    HW2 6371   3.019   1.350   2.282
 1713SOL     OW 6372   3.134   1.445   3.004
 1713SOL    HW1 6373   3.181   1.458   3.091
 1713SOL    HW2 6374   3.068   1.371   3.013
 1714SOL     OW 6375   3.444   0.639   2.334
 1714SOL    HW1 6376   3.413   0.700   2.407
 1714SOL    HW2 6377   3.494   0.691   2.265
 1715SOL     OW 6378   2.216   1.510   3.191
 1715SOL    HW1 6379   2.195   1.466   3.104
 1715SOL    HW2 6380   2.313   1.536   3.194
 1716SOL     OW 6381   2.264   0.751   3.460
 1716SOL    HW1 6382   2.332   0.806   3.413
 1716SOL    HW2 6383   2.304   0.663   3.487
 1717SOL     OW 6384   3.449   0.779   3.532
 1717SOL    HW1 6385   3.357   0.817   3.527
 1717SOL    HW2 6386   3.509   0.826   3.467
 1718SOL     OW 6387   2.875   0.105   3.632
 1718SOL    HW1 6388   2.881   0.190   3.580
 1718SOL    HW2 6389   2.907   0.029   3.575
 1719SOL     OW 6390   2.366   0.050   3.602
 1719SOL    HW1 6391   2.324  -0.007   3.532
 1719SOL    HW2 6392   2.300   0.119   3.634
 1720SOL     OW 6393   3.071   0.525   2.137
 1720SOL    HW1 6394   3.084   0.441   2.191
 1720SOL    HW2 6395   3.042   0.599   2.197
 1721SOL     OW 6396   2.169   0.213   3.093
 1721SOL    HW1 6397   2.146   0.250   3.183
 1721SOL    HW2 6398   2.139   0.118   3.087
 1722SOL     OW 6399   2.594   0.634   2.926
 1722SOL    HW1 6400   2.653   0.608   2.850
 1722SOL    HW2 6401   2.566   0.730   2.915
 1723SOL     OW 6402   3.590   0.935   3.716
 1723SOL    HW1 6403   3.544   0.928   3.627
 1723SOL    HW2 6404   3.528   0.979   3.782
 1724SOL     OW 6405   2.169   0.063   2.480
 1724SOL    HW1 6406   2.158   0.157   2.513
 1724SOL    HW2 6407   2.164   0.000   2.557
 1725SOL     OW 6408   3.484   0.367   2.236
 1725SOL    HW1 6409   3.486   0.291   2.300
 1725SOL    HW2 6410   3.436   0.444   2.276
 1726SOL     OW 6411   2.842   1.573   3.562
 1726SOL    HW1 6412   2.822   1.617   3.474
 1726SOL    HW2 6413   2.881   1.482   3.546
 1727SOL     OW 6414   3.721   1.518   3.467
 1727SOL    HW1 6415   3.735   1.545   3.372
 1727SOL    HW2 6416   3.804   1.540   3.520
 1728SOL     OW 6417   2.212   0.898   3.666
 1728SOL    HW1 6418   2.288   0.942   3.714
 1728SOL    HW2 6419   2.247   0.851   3.584
 1729SOL     OW 6420   3.402   0.274   1.987
 1729SOL    HW1 6421   3.341   0.199   2.010
 1729SOL    HW2 6422   3.424   0.326   2.070
 1730SOL     OW 6423   3.165   0.838   1.904
 1730SOL    HW1 6424   3.199   0.745   1.919
 1730SOL    HW2 6425   3.183   0.865   1.809
 1731SOL     OW 6426   2.930   1.333   2.711
 1731SOL    HW1 6427   2.937   1.249   2.656
 1731SOL    HW2 6428   2.992   1.402   2.675
 1732SOL     OW 6429   2.201   0.509   2.868
 1732SOL    HW1 6430   2.149   0.426   2.851
 1732SOL    HW2 6431   2.278   0.514   2.804
 1733SOL     OW 6432   3.000   0.380   3.540
 1733SOL    HW1 6433   2.955   0.443   3.604
 1733SOL    HW2 6434   3.093   0.411   3.523
 1734SOL     OW 6435   3.022   0.207   3.339
 1734SOL    HW1 6436   3.022   0.271   3.416
 1734SOL    HW2 6437   3.050   0.255   3.256
 1735SOL     OW 6438   1.870   1.326   2.062
 1735SOL    HW1 6439   1.777   1.347   2.031
 1735SOL    HW2 6440   1.880   1.227   2.075
 1736SOL     OW 6441   1.950   1.801   2.789
 1736SOL    HW1 6442   1.908   1.715   2.762
 1736SOL    HW2 6443   2.044   1.804   2.755
 1737SOL     OW 6444   2.366   1.568   2.772
 1737SOL    HW1 6445   2.432   1.642   2.781
 1737SOL    HW2 6446   2.410   1.489   2.730
 1738SOL     OW 6447   1.902   0.544   2.976
 1738SOL    HW1 6448   1.987   0.511   2.935
 1738SOL    HW2 6449   1.915   0.559   3.074
 1739SOL     OW 6450   2.051   0.520   3.584
 1739SOL    HW1 6451   2.110   0.480   3.514
 1739SOL    HW2 6452   1.993   0.591   3.543
 1740SOL     OW 6453   3.231   0.950   3.522
 1740SOL    HW1 6454   3.270   1.039   3.542
 1740SOL    HW2 6455   3.241   0.930   3.425
 1741SOL     OW 6456   2.677   0.572   2.187
 1741SOL    HW1 6457   2.684   0.483   2.141
 1741SOL    HW2 6458   2.583   0.606   2.179
 1742SOL     OW 6459   3.519   0.604   3.068
 1742SOL    HW1 6460   3.481   0.535   3.130
 1742SOL    HW2 6461   3.601   0.568   3.024
 1743SOL     OW 6462   2.114   1.564   3.606
 1743SOL    HW1 6463   2.084   1.621   3.682
 1743SOL    HW2 6464   2.107   1.467   3.632
 1744SOL     OW 6465   2.533   0.464   3.131
 1744SOL    HW1 6466   2.499   0.375   3.101
 1744SOL    HW2 6467   2.559   0.518   3.051
 1745SOL     OW 6468   2.792   1.678   3.327
 1745SOL    HW1 6469   2.768   1.660   3.232
 1745SOL    HW2 6470   2.822   1.772   3.337
 1746SOL     OW 6471   2.335   0.500   2.053
 1746SOL    HW1 6472   2.396   0.580   2.057
 1746SOL    HW2 6473   2.240   0.531   2.060
 1747SOL     OW 6474   3.209   1.059   3.096
 1747SOL    HW1 6475   3.233   0.996   3.022
 1747SOL    HW2 6476   3.119   1.099   3.078
 1748SOL     OW 6477   3.164   0.855   2.171
 1748SOL    HW1 6478   3.078   0.824   2.213
 1748SOL    HW2 6479   3.160   0.841   2.072
 1749SOL     OW 6480   3.621   1.747   3.016
 1749SOL    HW1 6481   3.682   1.777   2.943
 1749SOL    HW2 6482   3.583   1.658   2.994
 1750SOL     OW 6483   3.114   1.731   2.990
 1750SOL    HW1 6484   3.198   1.736   2.936
 1750SOL    HW2 6485   3.091   1.635   3.008
 1751SOL     OW 6486   2.550   1.662   3.578
 1751SOL    HW1 6487   2.494   1.743   3.587
 1751SOL    HW2 6488   2.602   1.666   3.492
 1752SOL     OW 6489   3.588   0.135   2.385
 1752SOL    HW1 6490   3.661   0.118   2.318
 1752SOL    HW2 6491   3.557   0.048   2.423
 1753SOL     OW 6492   3.250   1.573   2.339
 1753SOL    HW1 6493   3.317   1.585   2.265
 1753SOL    HW2 6494   3.210   1.662   2.362
 1754SOL     OW 6495   1.992   1.794   3.713
 1754SOL    HW1 6496   1.951   1.720   3.766
 1754SOL    HW2 6497   2.056   1.845   3.771
 1755SOL     OW 6498   3.142   0.927   2.534
 1755SOL    HW1 6499   3.202   0.846   2.536
 1755SOL    HW2 6500   3.182   0.996   2.474
 1756SOL     OW 6501   2.692   1.273   3.284
 1756SOL    HW1 6502   2.687   1.306   3.379
 1756SOL    HW2 6503   2.606   1.292   3.238
 1757SOL     OW 6504   2.534   1.616   2.016
 1757SOL    HW1 6505   2.543   1.626   1.917
 1757SOL    HW2 6506   2.494   1.527   2.037
 1758SOL     OW 6507   3.512   1.720   3.256
 1758SOL    HW1 6508   3.565   1.730   3.172
 1758SOL    HW2 6509   3.485   1.810   3.290
 1759SOL     OW 6510   3.703   0.175   2.825
 1759SOL    HW1 6511   3.742   0.090   2.789
 1759SOL    HW2 6512   3.605   0.177   2.806
 1760SOL     OW 6513   2.125   0.326   2.582
 1760SOL    HW1 6514   2.046   0.377   2.548
 1760SOL    HW2 6515   2.116   0.311   2.680
 1761SOL     OW 6516   3.056   1.612   1.893
 1761SOL    HW1 6517   3.062   1.519   1.930
 1761SOL    HW2 6518   2.997   1.612   1.813
 1762SOL     OW 6519   2.778   0.910   2.153
 1762SOL    HW1 6520   2.841   0.948   2.085
 1762SOL    HW2 6521   2.818   0.827   2.192
 1763SOL     OW 6522   3.366   1.607   1.906
 1763SOL    HW1 6523   3.274   1.644   1.913
 1763SOL    HW2 6524   3.404   1.627   1.816
 1764SOL     OW 6525   2.234   1.288   3.352
 1764SOL    HW1 6526   2.221   1.381   3.318
 1764SOL    HW2 6527   2.150   1.236   3.339
 1765SOL     OW 6528   3.476   1.292   3.151
 1765SOL    HW1 6529   3.536   1.295   3.231
 1765SOL    HW2 6530   3.401   1.356   3.164
 1766SOL     OW 6531   2.901   1.098   2.558
 1766SOL    HW1 6532   2.831   1.051   2.612
 1766SOL    HW2 6533   2.960   1.030   2.515
 1767SOL     OW 6534   2.876   0.236   2.833
 1767SOL    HW1 6535   2.868   0.200   2.740
 1767SOL    HW2 6536   2.874   0.160   2.898
 1768SOL     OW 6537   2.452   1.487   2.353
 1768SOL    HW1 6538   2.494   1.429   2.283
 1768SOL    HW2 6539   2.408   1.566   2.309
 1769SOL     OW 6540   3.571   0.385   3.243
 1769SOL    HW1 6541   3.644   0.454   3.247
 1769SOL    HW2 6542   3.599   0.310   3.184
 1770SOL     OW 6543   2.117   1.348   2.152
 1770SOL    HW1 6544   2.021   1.349   2.125
 1770SOL    HW2 6545   2.129   1.401   2.236
 1771SOL     OW 6546   2.534   0.203   3.351
 1771SOL    HW1 6547   2.624   0.187   3.311
 1771SOL    HW2 6548   2.542   0.208   3.450
 1772SOL     OW 6549   1.937   0.345   1.895
 1772SOL    HW1 6550   1.845   0.317   1.866
 1772SOL    HW2 6551   1.968   0.422   1.839
 1773SOL     OW 6552   3.302   0.856   3.260
 1773SOL    HW1 6553   3.245   0.908   3.197
 1773SOL    HW2 6554   3.398   0.868   3.236
 1774SOL     OW 6555   1.934   0.166   2.180
 1774SOL    HW1 6556   1.917   0.249   2.126
 1774SOL    HW2 6557   2.024   0.129   2.158
 1775SOL     OW 6558   3.045   1.335   1.981
 1775SOL    HW1 6559   2.946   1.324   1.983
 1775SOL    HW2 6560   3.079   1.350   2.074
 1776SOL     OW 6561   3.355   1.767   2.821
 1776SOL    HW1 6562   3.388   1.831   2.752
 1776SOL    HW2 6563   3.421   1.761   2.896
 1777SOL     OW 6564   3.312   1.220   3.495
 1777SOL    HW1 6565   3.303   1.210   3.594
 1777SOL    HW2 6566   3.408   1.213   3.469
 1778SOL     OW 6567   2.252   1.741   3.422
 1778SOL    HW1 6568   2.161   1.782   3.420
 1778SOL    HW2 6569   2.245   1.647   3.454
 1779SOL     OW 6570   3.536   0.883   3.116
 1779SOL    HW1 6571   3.509   0.794   3.079
 1779SOL    HW2 6572   3.537   0.951   3.043
 1780SOL     OW 6573   3.087   0.325   2.311
 1780SOL    HW1 6574   3.152   0.251   2.300
 1780SOL    HW2 6575   3.107   0.375   2.395
 1781SOL     OW 6576   3.639   0.342   3.504
 1781SOL    HW1 6577   3.622   0.373   3.410
 1781SOL    HW2 6578   3.555   0.305   3.542
 1782SOL     OW 6579   3.592   0.934   3.379
 1782SOL    HW1 6580   3.630   1.025   3.394
 1782SOL    HW2 6581   3.584   0.917   3.280
 1783SOL     OW 6582   2.721   1.374   1.878
 1783SOL    HW1 6583   2.675   1.389   1.966
 1783SOL    HW2 6584   2.765   1.459   1.848
 1784SOL     OW 6585   2.523   1.790   2.815
 1784SOL    HW1 6586   2.477   1.878   2.802
 1784SOL    HW2 6587   2.622   1.802   2.808
 1785SOL     OW 6588   2.945   0.984   1.949
 1785SOL    HW1 6589   2.922   1.037   1.867
 1785SOL    HW2 6590   3.026   0.928   1.930
 1786SOL     OW 6591   3.723   1.569   2.713
 1786SOL    HW1 6592   3.652   1.557   2.643
 1786SOL    HW2 6593   3.724   1.490   2.773
 1787SOL     OW 6594   2.083   1.314   3.706
 1787SOL    HW1 6595   2.018   1.241   3.685
 1787SOL    HW2 6596   2.087   1.328   3.804
 1788SOL     OW 6597   2.534   1.391   3.486
 1788SOL    HW1 6598   2.456   1.341   3.524
 1788SOL    HW2 6599   2.531   1.486   3.517
 1789SOL     OW 6600   3.686   0.192   3.089
 1789SOL    HW1 6601   3.682   0.102   3.133
 1789SOL    HW2 6602   3.689   0.181   2.990
 1790SOL     OW 6603   2.290   0.424   2.382
 1790SOL    HW1 6604   2.320   0.352   2.320
 1790SOL    HW2 6605   2.251   0.384   2.465
 1791SOL     OW 6606   3.567   1.487   2.966
 1791SOL    HW1 6607   3.474   1.462   2.939
 1791SOL    HW2 6608   3.593   1.437   3.048
 1792SOL     OW 6609   2.179   0.547   3.142
 1792SOL    HW1 6610   2.217   0.488   3.214
 1792SOL    HW2 6611   2.219   0.521   3.054
 1793SOL     OW 6612   2.674   1.586   2.549
 1793SOL    HW1 6613   2.706   1.596   2.455
 1793SOL    HW2 6614   2.595   1.524   2.551
 1794SOL     OW 6615   3.286   0.214   2.974
 1794SOL    HW1 6616   3.338   0.149   3.029
 1794SOL    HW2 6617   3.237   0.277   3.035
 1795SOL     OW 6618   2.863   0.034   3.016
 1795SOL    HW1 6619   2.800  -0.038   2.985
 1795SOL    HW2 6620   2.956  -0.002   3.016
 1796SOL     OW 6621   2.632   1.330   2.163
 1796SOL    HW1 6622   2.586   1.243   2.180
 1796SOL    HW2 6623   2.723   1.327   2.204
 1797SOL     OW 6624   2.480   1.567   3.146
 1797SOL    HW1 6625   2.475   1.649   3.203
 1797SOL    HW2 6626   2.569   1.564   3.101
 1798SOL     OW 6627   3.214   0.052   2.030
 1798SOL    HW1 6628   3.249   0.011   1.946
 1798SOL    HW2 6629   3.124   0.014   2.050
 1799SOL     OW 6630   3.162   0.453   2.553
 1799SOL    HW1 6631   3.103   0.533   2.557
 1799SOL    HW2 6632   3.177   0.418   2.646
 1800SOL     OW 6633   3.455   0.221   2.744
 1800SOL    HW1 6634   3.371   0.220   2.798
 1800SOL    HW2 6635   3.457   0.304   2.688
 1801SOL     OW 6636   1.901   1.077   2.162
 1801SOL    HW1 6637   2.000   1.066   2.153
 1801SOL    HW2 6638   1.861   0.991   2.194
 1802SOL     OW 6639   2.737   1.646   2.199
 1802SOL    HW1 6640   2.660   1.611   2.145
 1802SOL    HW2 6641   2.705   1.717   2.261
 1803SOL     OW 6642   2.092   0.628   3.837
 1803SOL    HW1 6643   1.999   0.626   3.874
 1803SOL    HW2 6644   2.093   0.589   3.745
 1804SOL     OW 6645   2.087   0.275   4.720
 1804SOL    HW1 6646   2.122   0.258   4.812
 1804SOL    HW2 6647   1.999   0.230   4.708
 1805SOL     OW 6648   1.881   0.368   4.371
 1805SOL    HW1 6649   1.799   0.411   4.410
 1805SOL    HW2 6650   1.853   0.295   4.308
 1806SOL     OW 6651   2.431   1.275   4.889
 1806SOL    HW1 6652   2.338   1.268   4.852
 1806SOL    HW2 6653   2.442   1.364   4.933
 1807SOL     OW 6654   3.417   1.511   4.427
 1807SOL    HW1 6655   3.360   1.495   4.508
 1807SOL    HW2 6656   3.358   1.521   4.347
 1808SOL     OW 6657   2.997   0.703   4.441
 1808SOL    HW1 6658   3.054   0.781   4.416
 1808SOL    HW2 6659   2.937   0.729   4.517
 1809SOL     OW 6660   3.617   0.607   3.955
 1809SOL    HW1 6661   3.605   0.594   3.856
 1809SOL    HW2 6662   3.587   0.526   4.004
 1810SOL     OW 6663   2.630   1.144   4.747
 1810SOL    HW1 6664   2.552   1.161   4.807
 1810SOL    HW2 6665   2.664   1.231   4.711
 1811SOL     OW 6666   2.547   1.012   4.389
 1811SOL    HW1 6667   2.616   0.996   4.459
 1811SOL    HW2 6668   2.474   1.069   4.427
 1812SOL     OW 6669   2.197   1.435   4.785
 1812SOL    HW1 6670   2.119   1.404   4.732
 1812SOL    HW2 6671   2.255   1.493   4.728
 1813SOL     OW 6672   3.465   0.447   4.461
 1813SOL    HW1 6673   3.391   0.493   4.411
 1813SOL    HW2 6674   3.516   0.515   4.514
 1814SOL     OW 6675   2.093   1.713   4.207
 1814SOL    HW1 6676   2.127   1.790   4.261
 1814SOL    HW2 6677   2.137   1.713   4.117
 1815SOL     OW 6678   2.092   1.434   4.262
 1815SOL    HW1 6679   2.066   1.530   4.262
 1815SOL    HW2 6680   2.021   1.380   4.307
 1816SOL     OW 6681   2.102   1.091   4.610
 1816SOL    HW1 6682   2.116   1.007   4.662
 1816SOL    HW2 6683   2.047   1.155   4.665
 1817SOL     OW 6684   2.468   0.964   3.847
 1817SOL    HW1 6685   2.475   1.048   3.793
 1817SOL    HW2 6686   2.514   0.977   3.935
 1818SOL     OW 6687   1.984   0.643   4.287
 1818SOL    HW1 6688   1.939   0.555   4.304
 1818SOL    HW2 6689   1.983   0.697   4.371
 1819SOL     OW 6690   3.704   1.767   4.083
 1819SOL    HW1 6691   3.758   1.738   4.163
 1819SOL    HW2 6692   3.734   1.857   4.054
 1820SOL     OW 6693   1.889   1.596   3.841
 1820SOL    HW1 6694   1.870   1.500   3.862
 1820SOL    HW2 6695   1.856   1.654   3.916
 1821SOL     OW 6696   3.551   0.922   4.336
 1821SOL    HW1 6697   3.646   0.893   4.344
 1821SOL    HW2 6698   3.543   0.987   4.261
 1822SOL     OW 6699   3.503   1.108   4.156
 1822SOL    HW1 6700   3.589   1.110   4.104
 1822SOL    HW2 6701   3.517   1.155   4.244
 1823SOL     OW 6702   2.475   1.365   4.450
 1823SOL    HW1 6703   2.426   1.278   4.459
 1823SOL    HW2 6704   2.452   1.408   4.363
 1824SOL     OW 6705   2.059   0.976   4.988
 1824SOL    HW1 6706   2.148   0.931   4.974
 1824SOL    HW2 6707   1.986   0.911   4.969
 1825SOL     OW 6708   3.387   0.999   3.914
 1825SOL    HW1 6709   3.324   0.923   3.927
 1825SOL    HW2 6710   3.435   1.017   4.000
 1826SOL     OW 6711   3.328   1.417   4.677
 1826SOL    HW1 6712   3.269   1.423   4.757
 1826SOL    HW2 6713   3.313   1.329   4.631
 1827SOL     OW 6714   3.529   1.714   4.296
 1827SOL    HW1 6715   3.488   1.691   4.208
 1827SOL    HW2 6716   3.511   1.640   4.361
 1828SOL     OW 6717   2.460   0.729   3.994
 1828SOL    HW1 6718   2.484   0.798   3.926
 1828SOL    HW2 6719   2.382   0.762   4.048
 1829SOL     OW 6720   3.143   0.345   4.668
 1829SOL    HW1 6721   3.057   0.295   4.655
 1829SOL    HW2 6722   3.205   0.291   4.724
 1830SOL     OW 6723   3.438   1.662   4.031
 1830SOL    HW1 6724   3.527   1.708   4.034
 1830SOL    HW2 6725   3.417   1.638   3.936
 1831SOL     OW 6726   2.853   0.410   4.966
 1831SOL    HW1 6727   2.776   0.444   5.020
 1831SOL    HW2 6728   2.819   0.359   4.887
 1832SOL     OW 6729   2.903   0.701   4.153
 1832SOL    HW1 6730   2.929   0.697   4.249
 1832SOL    HW2 6731   2.818   0.650   4.139
 1833SOL     OW 6732   1.938   0.811   4.513
 1833SOL    HW1 6733   2.037   0.799   4.522
 1833SOL    HW2 6734   1.914   0.906   4.534
 1834SOL     OW 6735   3.224   1.144   4.269
 1834SOL    HW1 6736   3.307   1.115   4.221
 1834SOL    HW2 6737   3.175   1.211   4.213
 1835SOL     OW 6738   2.412   0.196   4.609
 1835SOL    HW1 6739   2.407   0.191   4.709
 1835SOL    HW2 6740   2.414   0.292   4.580
 1836SOL     OW 6741   2.870   1.456   4.201
 1836SOL    HW1 6742   2.824   1.528   4.149
 1836SOL    HW2 6743   2.866   1.476   4.299
 1837SOL     OW 6744   2.213   1.801   4.577
 1837SOL    HW1 6745   2.263   1.715   4.583
 1837SOL    HW2 6746   2.278   1.878   4.574
 1838SOL     OW 6747   3.657   1.066   4.597
 1838SOL    HW1 6748   3.595   1.051   4.521
 1838SOL    HW2 6749   3.605   1.077   4.682
 1839SOL     OW 6750   2.183   0.943   3.966
 1839SOL    HW1 6751   2.265   0.982   3.924
 1839SOL    HW2 6752   2.156   0.861   3.917
 1840SOL     OW 6753   3.320   0.735   4.452
 1840SOL    HW1 6754   3.315   0.670   4.527
 1840SOL    HW2 6755   3.400   0.794   4.465
 1841SOL     OW 6756   2.973   1.776   3.961
 1841SOL    HW1 6757   2.913   1.714   4.011
 1841SOL    HW2 6758   3.004   1.732   3.876
 1842SOL     OW 6759   3.494   1.377   3.805
 1842SOL    HW1 6760   3.462   1.471   3.795
 1842SOL    HW2 6761   3.418   1.314   3.793
 1843SOL     OW 6762   2.326   1.743   4.047
 1843SOL    HW1 6763   2.359   1.782   4.133
 1843SOL    HW2 6764   2.402   1.736   3.982
 1844SOL     OW 6765   3.262   0.107   4.150
 1844SOL    HW1 6766   3.238   0.070   4.060
 1844SOL    HW2 6767   3.361   0.123   4.154
 1845SOL     OW 6768   2.111   1.785   4.965
 1845SOL    HW1 6769   2.168   1.720   5.015
 1845SOL    HW2 6770   2.095   1.752   4.872
 1846SOL     OW 6771   2.802   1.698   4.628
 1846SOL    HW1 6772   2.882   1.641   4.649
 1846SOL    HW2 6773   2.753   1.658   4.551
 1847SOL     OW 6774   2.244   0.700   4.204
 1847SOL    HW1 6775   2.289   0.610   4.201
 1847SOL    HW2 6776   2.150   0.689   4.237
 1848SOL     OW 6777   2.665   1.402   4.648
 1848SOL    HW1 6778   2.755   1.416   4.606
 1848SOL    HW2 6779   2.594   1.404   4.577
 1849SOL     OW 6780   2.784   0.503   4.623
 1849SOL    HW1 6781   2.759   0.494   4.527
 1849SOL    HW2 6782   2.832   0.421   4.654
 1850SOL     OW 6783   3.296   1.188   3.765
 1850SOL    HW1 6784   3.328   1.112   3.822
 1850SOL    HW2 6785   3.204   1.215   3.795
 1851SOL     OW 6786   2.797   0.236   4.204
 1851SOL    HW1 6787   2.749   0.277   4.126
 1851SOL    HW2 6788   2.896   0.234   4.185
 1852SOL     OW 6789   3.089   1.570   4.517
 1852SOL    HW1 6790   3.110   1.644   4.452
 1852SOL    HW2 6791   3.157   1.570   4.590
 1853SOL     OW 6792   2.321   1.152   4.465
 1853SOL    HW1 6793   2.250   1.125   4.530
 1853SOL    HW2 6794   2.295   1.124   4.372
 1854SOL     OW 6795   3.133   1.797   4.315
 1854SOL    HW1 6796   3.177   1.861   4.251
 1854SOL    HW2 6797   3.083   1.849   4.385
 1855SOL     OW 6798   2.894   0.549   3.740
 1855SOL    HW1 6799   2.853   0.631   3.701
 1855SOL    HW2 6800   2.958   0.575   3.813
 1856SOL     OW 6801   2.423   0.222   4.871
 1856SOL    HW1 6802   2.461   0.138   4.908
 1856SOL    HW2 6803   2.335   0.241   4.915
 1857SOL     OW 6804   2.728   0.454   4.366
 1857SOL    HW1 6805   2.696   0.526   4.304
 1857SOL    HW2 6806   2.752   0.373   4.313
 1858SOL     OW 6807   2.879   0.039   4.477
 1858SOL    HW1 6808   2.807   0.044   4.408
 1858SOL    HW2 6809   2.855  -0.030   4.546
 1859SOL     OW 6810   3.291   1.173   4.591
 1859SOL    HW1 6811   3.236   1.089   4.584
 1859SOL    HW2 6812   3.317   1.202   4.499
 1860SOL     OW 6813   3.328   0.590   4.716
 1860SOL    HW1 6814   3.298   0.495   4.723
 1860SOL    HW2 6815   3.401   0.606   4.782
 1861SOL     OW 6816   3.719   0.833   4.101
 1861SOL    HW1 6817   3.761   0.769   4.165
 1861SOL    HW2 6818   3.681   0.782   4.023
 1862SOL     OW 6819   2.350   1.385   3.898
 1862SOL    HW1 6820   2.263   1.370   3.945
 1862SOL    HW2 6821   2.333   1.411   3.803
 1863SOL     OW 6822   3.526   1.280   4.381
 1863SOL    HW1 6823   3.625   1.288   4.395
 1863SOL    HW2 6824   3.481   1.364   4.412
 1864SOL     OW 6825   3.252   0.575   3.802
 1864SOL    HW1 6826   3.198   0.554   3.883
 1864SOL    HW2 6827   3.343   0.534   3.811
 1865SOL     OW 6828   2.973   1.195   4.824
 1865SOL    HW1 6829   2.933   1.239   4.905
 1865SOL    HW2 6830   2.932   1.232   4.741
 1866SOL     OW 6831   3.500   1.099   4.803
 1866SOL    HW1 6832   3.505   1.180   4.862
 1866SOL    HW2 6833   3.414   1.101   4.752
 1867SOL     OW 6834   2.567   1.050   4.092
 1867SOL    HW1 6835   2.553   1.057   4.191
 1867SOL    HW2 6836   2.651   0.999   4.074
 1868SOL     OW 6837   2.272   0.813   4.975
 1868SOL    HW1 6838   2.358   0.825   5.025
 1868SOL    HW2 6839   2.230   0.726   5.002
 1869SOL     OW 6840   3.136   0.386   4.986
 1869SOL    HW1 6841   3.157   0.460   5.050
 1869SOL    HW2 6842   3.047   0.403   4.943
 1870SOL     OW 6843   2.229   1.100   4.225
 1870SOL    HW1 6844   2.222   1.183   4.169
 1870SOL    HW2 6845   2.233   1.020   4.165
 1871SOL     OW 6846   2.428   0.537   4.589
 1871SOL    HW1 6847   2.440   0.603   4.515
 1871SOL    HW2 6848   2.474   0.571   4.672
 1872SOL     OW 6849   3.114   1.348   4.112
 1872SOL    HW1 6850   3.164   1.425   4.152
 1872SOL    HW2 6851   3.019   1.350   4.144
 1873SOL     OW 6852   3.134   1.445   4.866
 1873SOL    HW1 6853   3.181   1.458   4.953
 1873SOL    HW2 6854   3.068   1.371   4.875
 1874SOL     OW 6855   3.444   0.639   4.196
 1874SOL    HW1 6856   3.413   0.700   4.269
 1874SOL    HW2 6857   3.494   0.691   4.127
 1875SOL     OW 6858   2.216   1.510   5.053
 1875SOL    HW1 6859   2.195   1.466   4.966
 1875SOL    HW2 6860   2.313   1.536   5.056
 1876SOL     OW 6861   2.435   0.870   4.753
 1876SOL    HW1 6862   2.479   0.959   4.744
 1876SOL    HW2 6863   2.372   0.870   4.830
 1877SOL     OW 6864   3.222   0.862   4.769
 1877SOL    HW1 6865   3.147   0.862   4.703
 1877SOL    HW2 6866   3.259   0.770   4.778
 1878SOL     OW 6867   3.071   0.525   3.999
 1878SOL    HW1 6868   3.084   0.441   4.053
 1878SOL    HW2 6869   3.042   0.599   4.059
 1879SOL     OW 6870   2.169   0.213   4.955
 1879SOL    HW1 6871   2.146   0.250   5.045
 1879SOL    HW2 6872   2.139   0.118   4.949
 1880SOL     OW 6873   1.899   1.310   5.006
 1880SOL    HW1 6874   1.952   1.261   5.074
 1880SOL    HW2 6875   1.921   1.408   5.011
 1881SOL     OW 6876   2.594   0.634   4.788
 1881SOL    HW1 6877   2.653   0.608   4.712
 1881SOL    HW2 6878   2.566   0.730   4.777
 1882SOL     OW 6879   2.169   0.063   4.342
 1882SOL    HW1 6880   2.158   0.157   4.375
 1882SOL    HW2 6881   2.164   0.000   4.419
 1883SOL     OW 6882   3.484   0.367   4.098
 1883SOL    HW1 6883   3.486   0.291   4.162
 1883SOL    HW2 6884   3.436   0.444   4.138
 1884SOL     OW 6885   2.885   0.766   4.690
 1884SOL    HW1 6886   2.900   0.787   4.786
 1884SOL    HW2 6887   2.855   0.671   4.681
 1885SOL     OW 6888   3.402   0.274   3.849
 1885SOL    HW1 6889   3.341   0.199   3.872
 1885SOL    HW2 6890   3.424   0.326   3.932
 1886SOL     OW 6891   3.165   0.838   3.766
 1886SOL    HW1 6892   3.199   0.745   3.781
 1886SOL    HW2 6893   3.183   0.865   3.671
 1887SOL     OW 6894   2.930   1.333   4.573
 1887SOL    HW1 6895   2.937   1.249   4.518
 1887SOL    HW2 6896   2.992   1.402   4.537
 1888SOL     OW 6897   2.181   0.810   4.673
 1888SOL    HW1 6898   2.274   0.846   4.678
 1888SOL    HW2 6899   2.175   0.725   4.725
 1889SOL     OW 6900   2.201   0.509   4.730
 1889SOL    HW1 6901   2.149   0.426   4.713
 1889SOL    HW2 6902   2.278   0.514   4.666
 1890SOL     OW 6903   3.022   0.207   5.201
 1890SOL    HW1 6904   3.022   0.271   5.278
 1890SOL    HW2 6905   3.050   0.255   5.118
 1891SOL     OW 6906   1.870   1.326   3.924
 1891SOL    HW1 6907   1.777   1.347   3.893
 1891SOL    HW2 6908   1.880   1.227   3.937
 1892SOL     OW 6909   1.950   1.801   4.651
 1892SOL    HW1 6910   1.908   1.715   4.624
 1892SOL    HW2 6911   2.044   1.804   4.617
 1893SOL     OW 6912   2.366   1.568   4.634
 1893SOL    HW1 6913   2.432   1.642   4.643
 1893SOL    HW2 6914   2.410   1.489   4.592
 1894SOL     OW 6915   2.864   0.796   4.962
 1894SOL    HW1 6916   2.905   0.764   5.048
 1894SOL    HW2 6917   2.768   0.769   4.959
 1895SOL     OW 6918   1.902   0.544   4.838
 1895SOL    HW1 6919   1.987   0.511   4.797
 1895SOL    HW2 6920   1.915   0.559   4.936
 1896SOL     OW 6921   2.677   0.572   4.049
 1896SOL    HW1 6922   2.684   0.483   4.003
 1896SOL    HW2 6923   2.583   0.606   4.041
 1897SOL     OW 6924   2.533   0.464   4.993
 1897SOL    HW1 6925   2.499   0.375   4.963
 1897SOL    HW2 6926   2.559   0.518   4.913
 1898SOL     OW 6927   3.209   1.059   4.958
 1898SOL    HW1 6928   3.233   0.996   4.884
 1898SOL    HW2 6929   3.119   1.099   4.940
 1899SOL     OW 6930   3.164   0.855   4.033
 1899SOL    HW1 6931   3.078   0.824   4.075
 1899SOL    HW2 6932   3.160   0.841   3.934
 1900SOL     OW 6933   3.621   1.747   4.878
 1900SOL    HW1 6934   3.682   1.777   4.805
 1900SOL    HW2 6935   3.583   1.658   4.856
 1901SOL     OW 6936   3.114   1.731   4.852
 1901SOL    HW1 6937   3.198   1.736   4.798
 1901SOL    HW2 6938   3.091   1.635   4.870
 1902SOL     OW 6939   1.945   1.258   4.746
 1902SOL    HW1 6940   1.940   1.257   4.846
 1902SOL    HW2 6941   1.862   1.217   4.708
 1903SOL     OW 6942   3.588   0.135   4.247
 1903SOL    HW1 6943   3.661   0.118   4.180
 1903SOL    HW2 6944   3.557   0.048   4.285
 1904SOL     OW 6945   3.250   1.573   4.201
 1904SOL    HW1 6946   3.317   1.585   4.127
 1904SOL    HW2 6947   3.210   1.662   4.224
 1905SOL     OW 6948   3.142   0.927   4.396
 1905SOL    HW1 6949   3.202   0.846   4.398
 1905SOL    HW2 6950   3.182   0.996   4.336
 1906SOL     OW 6951   2.534   1.616   3.878
 1906SOL    HW1 6952   2.543   1.626   3.779
 1906SOL    HW2 6953   2.494   1.527   3.899
 1907SOL     OW 6954   3.512   1.720   5.118
 1907SOL    HW1 6955   3.565   1.730   5.034
 1907SOL    HW2 6956   3.485   1.810   5.152
 1908SOL     OW 6957   3.703   0.175   4.687
 1908SOL    HW1 6958   3.742   0.090   4.651
 1908SOL    HW2 6959   3.605   0.177   4.668
 1909SOL     OW 6960   2.125   0.326   4.444
 1909SOL    HW1 6961   2.046   0.377   4.410
 1909SOL    HW2 6962   2.116   0.311   4.542
 1910SOL     OW 6963   3.056   1.612   3.755
 1910SOL    HW1 6964   3.062   1.519   3.792
 1910SOL    HW2 6965   2.997   1.612   3.675
 1911SOL     OW 6966   2.684   1.002   5.096
 1911SOL    HW1 6967   2.724   1.001   5.004
 1911SOL    HW2 6968   2.694   1.094   5.136
 1912SOL     OW 6969   2.778   0.910   4.015
 1912SOL    HW1 6970   2.841   0.948   3.947
 1912SOL    HW2 6971   2.818   0.827   4.054
 1913SOL     OW 6972   3.366   1.607   3.768
 1913SOL    HW1 6973   3.274   1.644   3.775
 1913SOL    HW2 6974   3.404   1.627   3.678
 1914SOL     OW 6975   2.901   1.098   4.420
 1914SOL    HW1 6976   2.831   1.051   4.474
 1914SOL    HW2 6977   2.960   1.030   4.377
 1915SOL     OW 6978   2.876   0.236   4.695
 1915SOL    HW1 6979   2.868   0.200   4.602
 1915SOL    HW2 6980   2.874   0.160   4.760
 1916SOL     OW 6981   2.452   1.487   4.215
 1916SOL    HW1 6982   2.494   1.429   4.145
 1916SOL    HW2 6983   2.408   1.566   4.171
 1917SOL     OW 6984   2.117   1.348   4.014
 1917SOL    HW1 6985   2.021   1.349   3.987
 1917SOL    HW2 6986   2.129   1.401   4.098
 1918SOL     OW 6987   1.937   0.345   3.757
 1918SOL    HW1 6988   1.845   0.317   3.728
 1918SOL    HW2 6989   1.968   0.422   3.701
 1919SOL     OW 6990   1.934   0.166   4.042
 1919SOL    HW1 6991   1.917   0.249   3.988
 1919SOL    HW2 6992   2.024   0.129   4.020
 1920SOL     OW 6993   3.045   1.335   3.843
 1920SOL    HW1 6994   2.946   1.324   3.845
 1920SOL    HW2 6995   3.079   1.350   3.936
 1921SOL     OW 6996   3.355   1.767   4.683
 1921SOL    HW1 6997   3.388   1.831   4.614
 1921SOL    HW2 6998   3.421   1.761   4.758
 1922SOL     OW 6999   3.312   1.220   5.357
 1922SOL    HW1 7000   3.303   1.210   5.456
 1922SOL    HW2 7001   3.408   1.213   5.331
 1923SOL     OW 7002   3.087   0.325   4.173
 1923SOL    HW1 7003   3.152   0.251   4.162
 1923SOL    HW2 7004   3.107   0.375   4.257
 1924SOL     OW 7005   2.456   0.745   4.376
 1924SOL    HW1 7006   2.506   0.830   4.357
 1924SOL    HW2 7007   2.368   0.747   4.328
 1925SOL     OW 7008   2.721   1.374   3.740
 1925SOL    HW1 7009   2.675   1.389   3.828
 1925SOL    HW2 7010   2.765   1.459   3.710
 1926SOL     OW 7011   2.721   0.956   4.585
 1926SOL    HW1 7012   2.775   0.887   4.633
 1926SOL    HW2 7013   2.689   1.025   4.651
 1927SOL     OW 7014   2.945   0.984   3.811
 1927SOL    HW1 7015   2.922   1.037   3.729
 1927SOL    HW2 7016   3.026   0.928   3.792
 1928SOL     OW 7017   3.723   1.569   4.575
 1928SOL    HW1 7018   3.652   1.557   4.505
 1928SOL    HW2 7019   3.724   1.490   4.635
 1929SOL     OW 7020   1.941   1.240   4.377
 1929SOL    HW1 7021   1.940   1.193   4.465
 1929SOL    HW2 7022   2.023   1.212   4.326
 1930SOL     OW 7023   3.686   0.192   4.951
 1930SOL    HW1 7024   3.682   0.102   4.995
 1930SOL    HW2 7025   3.689   0.181   4.852
 1931SOL     OW 7026   2.290   0.424   4.244
 1931SOL    HW1 7027   2.320   0.352   4.182
 1931SOL    HW2 7028   2.251   0.384   4.327
 1932SOL     OW 7029   3.567   1.487   4.828
 1932SOL    HW1 7030   3.474   1.462   4.801
 1932SOL    HW2 7031   3.593   1.437   4.910
 1933SOL     OW 7032   2.674   1.586   4.411
 1933SOL    HW1 7033   2.706   1.596   4.317
 1933SOL    HW2 7034   2.595   1.524   4.413
 1934SOL     OW 7035   3.286   0.214   4.836
 1934SOL    HW1 7036   3.338   0.149   4.891
 1934SOL    HW2 7037   3.237   0.277   4.897
 1935SOL     OW 7038   2.863   0.034   4.878
 1935SOL    HW1 7039   2.800  -0.038   4.847
 1935SOL    HW2 7040   2.956  -0.002   4.878
 1936SOL     OW 7041   2.632   1.330   4.025
 1936SOL    HW1 7042   2.586   1.243   4.042
 1936SOL    HW2 7043   2.723   1.327   4.066
 1937SOL     OW 7044   3.214   0.052   3.892
 1937SOL    HW1 7045   3.249   0.011   3.808
 1937SOL    HW2 7046   3.124   0.014   3.912
 1938SOL     OW 7047   3.162   0.453   4.415
 1938SOL    HW1 7048   3.103   0.533   4.419
 1938SOL    HW2 7049   3.177   0.418   4.508
 1939SOL     OW 7050   3.455   0.221   4.606
 1939SOL    HW1 7051   3.371   0.220   4.660
 1939SOL    HW2 7052   3.457   0.304   4.550
 1940SOL     OW 7053   1.901   1.077   4.024
 1940SOL    HW1 7054   2.000   1.066   4.015
 1940SOL    HW2 7055   1.861   0.991   4.056
 1941SOL     OW 7056   2.737   1.646   4.061
 1941SOL    HW1 7057   2.660   1.611   4.007
 1941SOL    HW2 7058   2.705   1.717   4.123
 1942SOL     OW 7059   2.092   2.490   0.113
 1942SOL    HW1 7060   1.999   2.488   0.150
 1942SOL    HW2 7061   2.093   2.451   0.021
 1943SOL     OW 7062   2.087   2.137   0.996
 1943SOL    HW1 7063   2.122   2.120   1.088
 1943SOL    HW2 7064   1.999   2.092   0.984
 1944SOL     OW 7065   2.431   3.137   1.165
 1944SOL    HW1 7066   2.338   3.130   1.128
 1944SOL    HW2 7067   2.442   3.226   1.209
 1945SOL     OW 7068   2.997   2.565   0.717
 1945SOL    HW1 7069   3.054   2.643   0.692
 1945SOL    HW2 7070   2.937   2.591   0.793
 1946SOL     OW 7071   3.617   2.469   0.231
 1946SOL    HW1 7072   3.605   2.456   0.132
 1946SOL    HW2 7073   3.587   2.388   0.280
 1947SOL     OW 7074   2.630   3.006   1.023
 1947SOL    HW1 7075   2.552   3.023   1.083
 1947SOL    HW2 7076   2.664   3.093   0.987
 1948SOL     OW 7077   2.712   2.660   1.823
 1948SOL    HW1 7078   2.708   2.736   1.888
 1948SOL    HW2 7079   2.734   2.696   1.732
 1949SOL     OW 7080   2.547   2.874   0.665
 1949SOL    HW1 7081   2.616   2.858   0.735
 1949SOL    HW2 7082   2.474   2.931   0.703
 1950SOL     OW 7083   2.548   3.023   1.803
 1950SOL    HW1 7084   2.608   3.102   1.817
 1950SOL    HW2 7085   2.462   3.054   1.762
 1951SOL     OW 7086   2.197   3.297   1.061
 1951SOL    HW1 7087   2.119   3.266   1.008
 1951SOL    HW2 7088   2.255   3.355   1.004
 1952SOL     OW 7089   2.300   2.254   1.499
 1952SOL    HW1 7090   2.382   2.198   1.508
 1952SOL    HW2 7091   2.219   2.196   1.503
 1953SOL     OW 7092   3.465   2.309   0.737
 1953SOL    HW1 7093   3.391   2.355   0.687
 1953SOL    HW2 7094   3.516   2.377   0.790
 1954SOL     OW 7095   2.092   3.296   0.538
 1954SOL    HW1 7096   2.066   3.392   0.538
 1954SOL    HW2 7097   2.021   3.242   0.583
 1955SOL     OW 7098   2.482   3.648   1.439
 1955SOL    HW1 7099   2.390   3.631   1.474
 1955SOL    HW2 7100   2.510   3.740   1.465
 1956SOL     OW 7101   3.456   1.976   1.480
 1956SOL    HW1 7102   3.438   2.043   1.408
 1956SOL    HW2 7103   3.453   2.022   1.569
 1957SOL     OW 7104   1.889   3.458   0.117
 1957SOL    HW1 7105   1.870   3.362   0.138
 1957SOL    HW2 7106   1.856   3.516   0.192
 1958SOL     OW 7107   3.551   2.784   0.612
 1958SOL    HW1 7108   3.646   2.755   0.620
 1958SOL    HW2 7109   3.543   2.849   0.537
 1959SOL     OW 7110   3.503   2.970   0.432
 1959SOL    HW1 7111   3.589   2.972   0.380
 1959SOL    HW2 7112   3.517   3.017   0.520
 1960SOL     OW 7113   1.975   2.599   1.597
 1960SOL    HW1 7114   2.063   2.586   1.642
 1960SOL    HW2 7115   1.962   2.696   1.575
 1961SOL     OW 7116   2.475   3.227   0.726
 1961SOL    HW1 7117   2.426   3.140   0.735
 1961SOL    HW2 7118   2.452   3.270   0.639
 1962SOL     OW 7119   3.155   3.090   1.423
 1962SOL    HW1 7120   3.192   3.017   1.365
 1962SOL    HW2 7121   3.207   3.095   1.508
 1963SOL     OW 7122   2.671   1.866   0.502
 1963SOL    HW1 7123   2.711   1.957   0.493
 1963SOL    HW2 7124   2.571   1.874   0.508
 1964SOL     OW 7125   3.387   2.861   0.190
 1964SOL    HW1 7126   3.324   2.785   0.203
 1964SOL    HW2 7127   3.435   2.879   0.276
 1965SOL     OW 7128   3.049   3.654   1.616
 1965SOL    HW1 7129   3.073   3.714   1.540
 1965SOL    HW2 7130   3.056   3.559   1.586
 1966SOL     OW 7131   2.179   2.113   1.801
 1966SOL    HW1 7132   2.250   2.184   1.807
 1966SOL    HW2 7133   2.091   2.152   1.829
 1967SOL     OW 7134   3.328   3.279   0.953
 1967SOL    HW1 7135   3.269   3.285   1.033
 1967SOL    HW2 7136   3.313   3.191   0.907
 1968SOL     OW 7137   2.460   2.591   0.270
 1968SOL    HW1 7138   2.484   2.660   0.202
 1968SOL    HW2 7139   2.382   2.624   0.324
 1969SOL     OW 7140   3.143   2.207   0.944
 1969SOL    HW1 7141   3.057   2.157   0.931
 1969SOL    HW2 7142   3.205   2.153   1.000
 1970SOL     OW 7143   2.669   2.467   1.465
 1970SOL    HW1 7144   2.622   2.464   1.554
 1970SOL    HW2 7145   2.618   2.412   1.399
 1971SOL     OW 7146   3.256   2.331   1.674
 1971SOL    HW1 7147   3.236   2.374   1.762
 1971SOL    HW2 7148   3.334   2.269   1.683
 1972SOL     OW 7149   2.835   2.752   1.572
 1972SOL    HW1 7150   2.881   2.668   1.543
 1972SOL    HW2 7151   2.779   2.786   1.497
 1973SOL     OW 7152   2.853   2.272   1.242
 1973SOL    HW1 7153   2.776   2.306   1.296
 1973SOL    HW2 7154   2.819   2.221   1.163
 1974SOL     OW 7155   2.903   2.563   0.429
 1974SOL    HW1 7156   2.929   2.559   0.525
 1974SOL    HW2 7157   2.818   2.512   0.415
 1975SOL     OW 7158   1.938   2.673   0.789
 1975SOL    HW1 7159   2.037   2.661   0.798
 1975SOL    HW2 7160   1.914   2.768   0.810
 1976SOL     OW 7161   2.727   2.210   0.195
 1976SOL    HW1 7162   2.786   2.273   0.146
 1976SOL    HW2 7163   2.746   2.116   0.166
 1977SOL     OW 7164   3.581   2.447   1.831
 1977SOL    HW1 7165   3.555   2.536   1.795
 1977SOL    HW2 7166   3.579   2.379   1.758
 1978SOL     OW 7167   3.224   3.006   0.545
 1978SOL    HW1 7168   3.307   2.977   0.497
 1978SOL    HW2 7169   3.175   3.073   0.489
 1979SOL     OW 7170   2.412   2.058   0.885
 1979SOL    HW1 7171   2.407   2.053   0.985
 1979SOL    HW2 7172   2.414   2.154   0.856
 1980SOL     OW 7173   2.870   3.318   0.477
 1980SOL    HW1 7174   2.824   3.390   0.425
 1980SOL    HW2 7175   2.866   3.338   0.575
 1981SOL     OW 7176   3.657   2.928   0.873
 1981SOL    HW1 7177   3.595   2.913   0.797
 1981SOL    HW2 7178   3.605   2.939   0.958
 1982SOL     OW 7179   3.089   3.412   1.506
 1982SOL    HW1 7180   3.095   3.335   1.570
 1982SOL    HW2 7181   3.037   3.386   1.426
 1983SOL     OW 7182   2.183   2.805   0.242
 1983SOL    HW1 7183   2.265   2.844   0.200
 1983SOL    HW2 7184   2.156   2.723   0.193
 1984SOL     OW 7185   3.320   2.597   0.728
 1984SOL    HW1 7186   3.315   2.532   0.803
 1984SOL    HW2 7187   3.400   2.656   0.741
 1985SOL     OW 7188   2.323   3.128   1.727
 1985SOL    HW1 7189   2.273   3.129   1.641
 1985SOL    HW2 7190   2.260   3.110   1.803
 1986SOL     OW 7191   2.973   3.638   0.237
 1986SOL    HW1 7192   2.913   3.576   0.287
 1986SOL    HW2 7193   3.004   3.594   0.152
 1987SOL     OW 7194   2.064   2.147   1.498
 1987SOL    HW1 7195   1.984   2.207   1.485
 1987SOL    HW2 7196   2.054   2.098   1.584
 1988SOL     OW 7197   2.326   3.605   0.323
 1988SOL    HW1 7198   2.359   3.644   0.409
 1988SOL    HW2 7199   2.402   3.598   0.258
 1989SOL     OW 7200   3.262   1.969   0.426
 1989SOL    HW1 7201   3.238   1.932   0.336
 1989SOL    HW2 7202   3.361   1.985   0.430
 1990SOL     OW 7203   2.111   3.647   1.241
 1990SOL    HW1 7204   2.168   3.582   1.291
 1990SOL    HW2 7205   2.095   3.614   1.148
 1991SOL     OW 7206   2.802   3.560   0.904
 1991SOL    HW1 7207   2.882   3.503   0.925
 1991SOL    HW2 7208   2.753   3.520   0.827
 1992SOL     OW 7209   2.244   2.562   0.480
 1992SOL    HW1 7210   2.289   2.472   0.477
 1992SOL    HW2 7211   2.150   2.551   0.513
 1993SOL     OW 7212   3.409   2.084   1.729
 1993SOL    HW1 7213   3.404   2.121   1.821
 1993SOL    HW2 7214   3.337   2.015   1.717
 1994SOL     OW 7215   2.643   2.126   1.749
 1994SOL    HW1 7216   2.710   2.065   1.792
 1994SOL    HW2 7217   2.570   2.145   1.814
 1995SOL     OW 7218   2.750   3.376   1.195
 1995SOL    HW1 7219   2.727   3.351   1.101
 1995SOL    HW2 7220   2.811   3.307   1.234
 1996SOL     OW 7221   3.213   2.452   1.433
 1996SOL    HW1 7222   3.241   2.409   1.518
 1996SOL    HW2 7223   3.238   2.548   1.434
 1997SOL     OW 7224   2.665   3.264   0.924
 1997SOL    HW1 7225   2.755   3.278   0.882
 1997SOL    HW2 7226   2.594   3.266   0.853
 1998SOL     OW 7227   2.784   2.365   0.899
 1998SOL    HW1 7228   2.759   2.356   0.803
 1998SOL    HW2 7229   2.832   2.283   0.930
 1999SOL     OW 7230   2.401   1.926   0.512
 1999SOL    HW1 7231   2.320   1.927   0.570
 1999SOL    HW2 7232   2.404   2.009   0.457
 2000SOL     OW 7233   3.296   3.050   0.041
 2000SOL    HW1 7234   3.328   2.974   0.098
 2000SOL    HW2 7235   3.204   3.077   0.071
 2001SOL     OW 7236   2.159   1.897   0.171
 2001SOL    HW1 7237   2.208   1.981   0.150
 2001SOL    HW2 7238   2.221   1.832   0.216
 2002SOL     OW 7239   2.797   2.098   0.480
 2002SOL    HW1 7240   2.749   2.139   0.402
 2002SOL    HW2 7241   2.896   2.096   0.461
 2003SOL     OW 7242   2.938   2.545   1.464
 2003SOL    HW1 7243   2.858   2.484   1.467
 2003SOL    HW2 7244   3.019   2.492   1.440
 2004SOL     OW 7245   3.089   3.432   0.793
 2004SOL    HW1 7246   3.110   3.506   0.728
 2004SOL    HW2 7247   3.157   3.432   0.866
 2005SOL     OW 7248   2.321   3.014   0.741
 2005SOL    HW1 7249   2.250   2.987   0.806
 2005SOL    HW2 7250   2.295   2.986   0.648
 2006SOL     OW 7251   2.894   2.411   0.016
 2006SOL    HW1 7252   2.853   2.493  -0.023
 2006SOL    HW2 7253   2.958   2.437   0.089
 2007SOL     OW 7254   1.940   2.418   1.386
 2007SOL    HW1 7255   2.032   2.417   1.345
 2007SOL    HW2 7256   1.934   2.492   1.453
 2008SOL     OW 7257   2.423   2.084   1.147
 2008SOL    HW1 7258   2.461   2.000   1.184
 2008SOL    HW2 7259   2.335   2.103   1.191
 2009SOL     OW 7260   2.728   2.316   0.642
 2009SOL    HW1 7261   2.696   2.388   0.580
 2009SOL    HW2 7262   2.752   2.235   0.589
 2010SOL     OW 7263   2.879   1.901   0.753
 2010SOL    HW1 7264   2.807   1.906   0.684
 2010SOL    HW2 7265   2.855   1.832   0.822
 2011SOL     OW 7266   3.291   3.035   0.867
 2011SOL    HW1 7267   3.236   2.951   0.860
 2011SOL    HW2 7268   3.317   3.064   0.775
 2012SOL     OW 7269   3.328   2.452   0.992
 2012SOL    HW1 7270   3.298   2.357   0.999
 2012SOL    HW2 7271   3.401   2.468   1.058
 2013SOL     OW 7272   3.719   2.695   0.377
 2013SOL    HW1 7273   3.761   2.631   0.441
 2013SOL    HW2 7274   3.681   2.644   0.299
 2014SOL     OW 7275   3.526   3.142   0.657
 2014SOL    HW1 7276   3.625   3.150   0.671
 2014SOL    HW2 7277   3.481   3.226   0.688
 2015SOL     OW 7278   2.389   2.118   0.328
 2015SOL    HW1 7279   2.416   2.059   0.253
 2015SOL    HW2 7280   2.389   2.213   0.297
 2016SOL     OW 7281   2.926   3.209   1.340
 2016SOL    HW1 7282   2.846   3.186   1.395
 2016SOL    HW2 7283   3.009   3.183   1.389
 2017SOL     OW 7284   2.973   3.057   1.100
 2017SOL    HW1 7285   2.933   3.101   1.181
 2017SOL    HW2 7286   2.932   3.094   1.017
 2018SOL     OW 7287   3.500   2.961   1.079
 2018SOL    HW1 7288   3.505   3.042   1.138
 2018SOL    HW2 7289   3.414   2.963   1.028
 2019SOL     OW 7290   2.777   1.951   1.402
 2019SOL    HW1 7291   2.802   1.931   1.307
 2019SOL    HW2 7292   2.849   2.007   1.444
 2020SOL     OW 7293   2.842   2.978   1.719
 2020SOL    HW1 7294   2.743   2.984   1.729
 2020SOL    HW2 7295   2.865   2.898   1.663
 2021SOL     OW 7296   2.567   2.912   0.368
 2021SOL    HW1 7297   2.553   2.919   0.467
 2021SOL    HW2 7298   2.651   2.861   0.350
 2022SOL     OW 7299   2.272   2.675   1.251
 2022SOL    HW1 7300   2.358   2.687   1.301
 2022SOL    HW2 7301   2.230   2.588   1.278
 2023SOL     OW 7302   3.136   2.248   1.262
 2023SOL    HW1 7303   3.157   2.322   1.326
 2023SOL    HW2 7304   3.047   2.265   1.219
 2024SOL     OW 7305   1.926   3.426   1.331
 2024SOL    HW1 7306   1.880   3.508   1.297
 2024SOL    HW2 7307   2.024   3.445   1.340
 2025SOL     OW 7308   2.229   2.962   0.501
 2025SOL    HW1 7309   2.222   3.045   0.445
 2025SOL    HW2 7310   2.233   2.882   0.441
 2026SOL     OW 7311   2.428   2.399   0.865
 2026SOL    HW1 7312   2.440   2.465   0.791
 2026SOL    HW2 7313   2.474   2.433   0.948
 2027SOL     OW 7314   3.114   3.210   0.388
 2027SOL    HW1 7315   3.164   3.287   0.428
 2027SOL    HW2 7316   3.019   3.212   0.420
 2028SOL     OW 7317   3.134   3.307   1.142
 2028SOL    HW1 7318   3.181   3.320   1.229
 2028SOL    HW2 7319   3.068   3.233   1.151
 2029SOL     OW 7320   2.216   3.372   1.329
 2029SOL    HW1 7321   2.195   3.328   1.242
 2029SOL    HW2 7322   2.313   3.398   1.332
 2030SOL     OW 7323   2.264   2.613   1.598
 2030SOL    HW1 7324   2.332   2.668   1.551
 2030SOL    HW2 7325   2.304   2.525   1.625
 2031SOL     OW 7326   3.449   2.641   1.670
 2031SOL    HW1 7327   3.357   2.679   1.665
 2031SOL    HW2 7328   3.509   2.688   1.605
 2032SOL     OW 7329   2.875   1.967   1.770
 2032SOL    HW1 7330   2.881   2.052   1.718
 2032SOL    HW2 7331   2.907   1.891   1.713
 2033SOL     OW 7332   2.366   1.912   1.740
 2033SOL    HW1 7333   2.324   1.855   1.670
 2033SOL    HW2 7334   2.300   1.981   1.772
 2034SOL     OW 7335   2.435   2.732   1.029
 2034SOL    HW1 7336   2.479   2.821   1.020
 2034SOL    HW2 7337   2.372   2.732   1.106
 2035SOL     OW 7338   3.222   2.724   1.045
 2035SOL    HW1 7339   3.147   2.724   0.979
 2035SOL    HW2 7340   3.259   2.632   1.054
 2036SOL     OW 7341   2.169   2.075   1.231
 2036SOL    HW1 7342   2.146   2.112   1.321
 2036SOL    HW2 7343   2.139   1.980   1.225
 2037SOL     OW 7344   1.899   3.172   1.282
 2037SOL    HW1 7345   1.952   3.123   1.350
 2037SOL    HW2 7346   1.921   3.270   1.287
 2038SOL     OW 7347   2.594   2.496   1.064
 2038SOL    HW1 7348   2.653   2.470   0.988
 2038SOL    HW2 7349   2.566   2.592   1.053
 2039SOL     OW 7350   3.590   2.797   1.854
 2039SOL    HW1 7351   3.544   2.790   1.765
 2039SOL    HW2 7352   3.528   2.841   1.920
 2040SOL     OW 7353   2.169   1.925   0.618
 2040SOL    HW1 7354   2.158   2.019   0.651
 2040SOL    HW2 7355   2.164   1.862   0.695
 2041SOL     OW 7356   3.484   2.229   0.374
 2041SOL    HW1 7357   3.486   2.153   0.438
 2041SOL    HW2 7358   3.436   2.306   0.414
 2042SOL     OW 7359   2.885   2.628   0.966
 2042SOL    HW1 7360   2.900   2.649   1.062
 2042SOL    HW2 7361   2.855   2.533   0.957
 2043SOL     OW 7362   2.842   3.435   1.700
 2043SOL    HW1 7363   2.822   3.479   1.612
 2043SOL    HW2 7364   2.881   3.344   1.684
 2044SOL     OW 7365   3.721   3.380   1.605
 2044SOL    HW1 7366   3.735   3.407   1.510
 2044SOL    HW2 7367   3.804   3.402   1.658
 2045SOL     OW 7368   2.212   2.760   1.804
 2045SOL    HW1 7369   2.288   2.804   1.852
 2045SOL    HW2 7370   2.247   2.713   1.722
 2046SOL     OW 7371   3.165   2.700   0.042
 2046SOL    HW1 7372   3.199   2.607   0.057
 2046SOL    HW2 7373   3.183   2.727  -0.053
 2047SOL     OW 7374   2.930   3.195   0.849
 2047SOL    HW1 7375   2.937   3.111   0.794
 2047SOL    HW2 7376   2.992   3.264   0.813
 2048SOL     OW 7377   3.000   2.242   1.678
 2048SOL    HW1 7378   2.955   2.305   1.742
 2048SOL    HW2 7379   3.093   2.273   1.661
 2049SOL     OW 7380   3.022   2.069   1.477
 2049SOL    HW1 7381   3.022   2.133   1.554
 2049SOL    HW2 7382   3.050   2.117   1.394
 2050SOL     OW 7383   1.950   3.663   0.927
 2050SOL    HW1 7384   1.908   3.577   0.900
 2050SOL    HW2 7385   2.044   3.666   0.893
 2051SOL     OW 7386   2.864   2.658   1.238
 2051SOL    HW1 7387   2.905   2.626   1.324
 2051SOL    HW2 7388   2.768   2.631   1.235
 2052SOL     OW 7389   2.051   2.382   1.722
 2052SOL    HW1 7390   2.110   2.342   1.652
 2052SOL    HW2 7391   1.993   2.453   1.681
 2053SOL     OW 7392   3.231   2.812   1.660
 2053SOL    HW1 7393   3.270   2.901   1.680
 2053SOL    HW2 7394   3.241   2.792   1.563
 2054SOL     OW 7395   2.677   2.434   0.325
 2054SOL    HW1 7396   2.684   2.345   0.279
 2054SOL    HW2 7397   2.583   2.468   0.317
 2055SOL     OW 7398   3.519   2.466   1.206
 2055SOL    HW1 7399   3.481   2.397   1.268
 2055SOL    HW2 7400   3.601   2.430   1.162
 2056SOL     OW 7401   2.533   2.326   1.269
 2056SOL    HW1 7402   2.499   2.237   1.239
 2056SOL    HW2 7403   2.559   2.380   1.189
 2057SOL     OW 7404   2.792   3.540   1.465
 2057SOL    HW1 7405   2.768   3.522   1.370
 2057SOL    HW2 7406   2.822   3.634   1.475
 2058SOL     OW 7407   2.335   2.362   0.191
 2058SOL    HW1 7408   2.396   2.442   0.195
 2058SOL    HW2 7409   2.240   2.393   0.198
 2059SOL     OW 7410   2.021   2.999   1.466
 2059SOL    HW1 7411   2.043   2.938   1.542
 2059SOL    HW2 7412   2.031   2.950   1.380
 2060SOL     OW 7413   3.209   2.921   1.234
 2060SOL    HW1 7414   3.233   2.858   1.160
 2060SOL    HW2 7415   3.119   2.961   1.216
 2061SOL     OW 7416   3.164   2.717   0.309
 2061SOL    HW1 7417   3.078   2.686   0.351
 2061SOL    HW2 7418   3.160   2.703   0.210
 2062SOL     OW 7419   2.550   3.524   1.716
 2062SOL    HW1 7420   2.494   3.605   1.725
 2062SOL    HW2 7421   2.602   3.528   1.630
 2063SOL     OW 7422   3.588   1.997   0.523
 2063SOL    HW1 7423   3.661   1.980   0.456
 2063SOL    HW2 7424   3.557   1.910   0.561
 2064SOL     OW 7425   3.250   3.435   0.477
 2064SOL    HW1 7426   3.317   3.447   0.403
 2064SOL    HW2 7427   3.210   3.524   0.500
 2065SOL     OW 7428   3.142   2.789   0.672
 2065SOL    HW1 7429   3.202   2.708   0.674
 2065SOL    HW2 7430   3.182   2.858   0.612
 2066SOL     OW 7431   2.692   3.135   1.422
 2066SOL    HW1 7432   2.687   3.168   1.517
 2066SOL    HW2 7433   2.606   3.154   1.376
 2067SOL     OW 7434   3.512   3.582   1.394
 2067SOL    HW1 7435   3.565   3.592   1.310
 2067SOL    HW2 7436   3.485   3.672   1.428
 2068SOL     OW 7437   3.703   2.037   0.963
 2068SOL    HW1 7438   3.742   1.952   0.927
 2068SOL    HW2 7439   3.605   2.039   0.944
 2069SOL     OW 7440   3.056   3.474   0.031
 2069SOL    HW1 7441   3.062   3.381   0.068
 2069SOL    HW2 7442   2.997   3.474  -0.049
 2070SOL     OW 7443   2.684   2.864   1.372
 2070SOL    HW1 7444   2.724   2.863   1.280
 2070SOL    HW2 7445   2.694   2.956   1.412
 2071SOL     OW 7446   2.778   2.772   0.291
 2071SOL    HW1 7447   2.841   2.810   0.223
 2071SOL    HW2 7448   2.818   2.689   0.330
 2072SOL     OW 7449   2.234   3.150   1.490
 2072SOL    HW1 7450   2.221   3.243   1.456
 2072SOL    HW2 7451   2.150   3.098   1.477
 2073SOL     OW 7452   3.476   3.154   1.289
 2073SOL    HW1 7453   3.536   3.157   1.369
 2073SOL    HW2 7454   3.401   3.218   1.302
 2074SOL     OW 7455   2.901   2.960   0.696
 2074SOL    HW1 7456   2.831   2.913   0.750
 2074SOL    HW2 7457   2.960   2.892   0.653
 2075SOL     OW 7458   2.876   2.098   0.971
 2075SOL    HW1 7459   2.868   2.062   0.878
 2075SOL    HW2 7460   2.874   2.022   1.036
 2076SOL     OW 7461   2.452   3.349   0.491
 2076SOL    HW1 7462   2.494   3.291   0.421
 2076SOL    HW2 7463   2.408   3.428   0.447
 2077SOL     OW 7464   3.571   2.247   1.381
 2077SOL    HW1 7465   3.644   2.316   1.385
 2077SOL    HW2 7466   3.599   2.172   1.322
 2078SOL     OW 7467   2.117   3.210   0.290
 2078SOL    HW1 7468   2.021   3.211   0.263
 2078SOL    HW2 7469   2.129   3.263   0.374
 2079SOL     OW 7470   1.967   2.875   1.726
 2079SOL    HW1 7471   1.890   2.842   1.780
 2079SOL    HW2 7472   2.052   2.845   1.768
 2080SOL     OW 7473   2.534   2.065   1.489
 2080SOL    HW1 7474   2.624   2.049   1.449
 2080SOL    HW2 7475   2.542   2.070   1.588
 2081SOL     OW 7476   3.302   2.718   1.398
 2081SOL    HW1 7477   3.245   2.770   1.335
 2081SOL    HW2 7478   3.398   2.730   1.374
 2082SOL     OW 7479   1.934   2.028   0.318
 2082SOL    HW1 7480   1.917   2.111   0.264
 2082SOL    HW2 7481   2.024   1.991   0.296
 2083SOL     OW 7482   2.475   2.704   1.431
 2083SOL    HW1 7483   2.531   2.785   1.414
 2083SOL    HW2 7484   2.534   2.624   1.434
 2084SOL     OW 7485   2.578   2.427   1.708
 2084SOL    HW1 7486   2.597   2.492   1.782
 2084SOL    HW2 7487   2.638   2.347   1.717
 2085SOL     OW 7488   2.252   3.603   1.560
 2085SOL    HW1 7489   2.161   3.644   1.558
 2085SOL    HW2 7490   2.245   3.509   1.592
 2086SOL     OW 7491   3.536   2.745   1.254
 2086SOL    HW1 7492   3.509   2.656   1.217
 2086SOL    HW2 7493   3.537   2.813   1.181
 2087SOL     OW 7494   3.087   2.187   0.449
 2087SOL    HW1 7495   3.152   2.113   0.438
 2087SOL    HW2 7496   3.107   2.237   0.533
 2088SOL     OW 7497   2.456   2.607   0.652
 2088SOL    HW1 7498   2.506   2.692   0.633
 2088SOL    HW2 7499   2.368   2.609   0.604
 2089SOL     OW 7500   3.639   2.204   1.642
 2089SOL    HW1 7501   3.622   2.235   1.548
 2089SOL    HW2 7502   3.555   2.167   1.680
 2090SOL     OW 7503   3.592   2.796   1.517
 2090SOL    HW1 7504   3.630   2.887   1.532
 2090SOL    HW2 7505   3.584   2.779   1.418
 2091SOL     OW 7506   2.721   2.818   0.861
 2091SOL    HW1 7507   2.775   2.749   0.909
 2091SOL    HW2 7508   2.689   2.887   0.927
 2092SOL     OW 7509   2.945   2.846   0.087
 2092SOL    HW1 7510   2.922   2.899   0.005
 2092SOL    HW2 7511   3.026   2.790   0.068
 2093SOL     OW 7512   3.723   3.431   0.851
 2093SOL    HW1 7513   3.652   3.419   0.781
 2093SOL    HW2 7514   3.724   3.352   0.911
 2094SOL     OW 7515   2.083   3.176   1.844
 2094SOL    HW1 7516   2.018   3.103   1.823
 2094SOL    HW2 7517   2.087   3.190   1.942
 2095SOL     OW 7518   1.941   3.102   0.653
 2095SOL    HW1 7519   1.940   3.055   0.741
 2095SOL    HW2 7520   2.023   3.074   0.602
 2096SOL     OW 7521   2.534   3.253   1.624
 2096SOL    HW1 7522   2.456   3.203   1.662
 2096SOL    HW2 7523   2.531   3.348   1.655
 2097SOL     OW 7524   3.686   2.054   1.227
 2097SOL    HW1 7525   3.682   1.964   1.271
 2097SOL    HW2 7526   3.689   2.043   1.128
 2098SOL     OW 7527   2.290   2.286   0.520
 2098SOL    HW1 7528   2.320   2.214   0.458
 2098SOL    HW2 7529   2.251   2.246   0.603
 2099SOL     OW 7530   3.567   3.349   1.104
 2099SOL    HW1 7531   3.474   3.324   1.077
 2099SOL    HW2 7532   3.593   3.299   1.186
 2100SOL     OW 7533   2.179   2.409   1.280
 2100SOL    HW1 7534   2.217   2.350   1.352
 2100SOL    HW2 7535   2.219   2.383   1.192
 2101SOL     OW 7536   2.674   3.448   0.687
 2101SOL    HW1 7537   2.706   3.458   0.593
 2101SOL    HW2 7538   2.595   3.386   0.689
 2102SOL     OW 7539   3.286   2.076   1.112
 2102SOL    HW1 7540   3.338   2.011   1.167
 2102SOL    HW2 7541   3.237   2.139   1.173
 2103SOL     OW 7542   2.863   1.896   1.154
 2103SOL    HW1 7543   2.800   1.824   1.123
 2103SOL    HW2 7544   2.956   1.860   1.154
 2104SOL     OW 7545   2.632   3.192   0.301
 2104SOL    HW1 7546   2.586   3.105   0.318
 2104SOL    HW2 7547   2.723   3.189   0.342
 2105SOL     OW 7548   2.480   3.429   1.284
 2105SOL    HW1 7549   2.475   3.511   1.341
 2105SOL    HW2 7550   2.569   3.426   1.239
 2106SOL     OW 7551   3.162   2.315   0.691
 2106SOL    HW1 7552   3.103   2.395   0.695
 2106SOL    HW2 7553   3.177   2.280   0.784
 2107SOL     OW 7554   3.455   2.083   0.882
 2107SOL    HW1 7555   3.371   2.082   0.936
 2107SOL    HW2 7556   3.457   2.166   0.826
 2108SOL     OW 7557   1.901   2.939   0.300
 2108SOL    HW1 7558   2.000   2.928   0.291
 2108SOL    HW2 7559   1.861   2.853   0.332
 2109SOL     OW 7560   2.737   3.508   0.337
 2109SOL    HW1 7561   2.660   3.473   0.283
 2109SOL    HW2 7562   2.705   3.579   0.399
 2110SOL     OW 7563   2.092   2.490   1.975
 2110SOL    HW1 7564   1.999   2.488   2.012
 2110SOL    HW2 7565   2.093   2.451   1.883
 2111SOL     OW 7566   2.087   2.137   2.858
 2111SOL    HW1 7567   2.122   2.120   2.950
 2111SOL    HW2 7568   1.999   2.092   2.846
 2112SOL     OW 7569   1.881   2.230   2.509
 2112SOL    HW1 7570   1.799   2.273   2.548
 2112SOL    HW2 7571   1.853   2.157   2.446
 2113SOL     OW 7572   2.431   3.137   3.027
 2113SOL    HW1 7573   2.338   3.130   2.990
 2113SOL    HW2 7574   2.442   3.226   3.071
 2114SOL     OW 7575   3.617   2.469   2.093
 2114SOL    HW1 7576   3.605   2.456   1.994
 2114SOL    HW2 7577   3.587   2.388   2.142
 2115SOL     OW 7578   2.630   3.006   2.885
 2115SOL    HW1 7579   2.552   3.023   2.945
 2115SOL    HW2 7580   2.664   3.093   2.849
 2116SOL     OW 7581   2.712   2.660   3.685
 2116SOL    HW1 7582   2.708   2.736   3.750
 2116SOL    HW2 7583   2.734   2.696   3.594
 2117SOL     OW 7584   2.548   3.023   3.665
 2117SOL    HW1 7585   2.608   3.102   3.679
 2117SOL    HW2 7586   2.462   3.054   3.624
 2118SOL     OW 7587   2.197   3.297   2.923
 2118SOL    HW1 7588   2.119   3.266   2.870
 2118SOL    HW2 7589   2.255   3.355   2.866
 2119SOL     OW 7590   3.322   3.367   3.201
 2119SOL    HW1 7591   3.346   3.461   3.227
 2119SOL    HW2 7592   3.306   3.313   3.283
 2120SOL     OW 7593   2.300   2.254   3.361
 2120SOL    HW1 7594   2.382   2.198   3.370
 2120SOL    HW2 7595   2.219   2.196   3.365
 2121SOL     OW 7596   3.465   2.309   2.599
 2121SOL    HW1 7597   3.391   2.355   2.549
 2121SOL    HW2 7598   3.516   2.377   2.652
 2122SOL     OW 7599   2.989   3.203   3.552
 2122SOL    HW1 7600   3.036   3.203   3.640
 2122SOL    HW2 7601   2.941   3.116   3.541
 2123SOL     OW 7602   2.092   3.296   2.400
 2123SOL    HW1 7603   2.066   3.392   2.400
 2123SOL    HW2 7604   2.021   3.242   2.445
 2124SOL     OW 7605   2.102   2.953   2.748
 2124SOL    HW1 7606   2.116   2.869   2.800
 2124SOL    HW2 7607   2.047   3.017   2.803
 2125SOL     OW 7608   2.482   3.648   3.301
 2125SOL    HW1 7609   2.390   3.631   3.336
 2125SOL    HW2 7610   2.510   3.740   3.327
 2126SOL     OW 7611   2.468   2.826   1.985
 2126SOL    HW1 7612   2.475   2.910   1.931
 2126SOL    HW2 7613   2.514   2.839   2.073
 2127SOL     OW 7614   3.456   1.976   3.342
 2127SOL    HW1 7615   3.438   2.043   3.270
 2127SOL    HW2 7616   3.453   2.022   3.431
 2128SOL     OW 7617   3.704   3.629   2.221
 2128SOL    HW1 7618   3.758   3.600   2.301
 2128SOL    HW2 7619   3.734   3.719   2.192
 2129SOL     OW 7620   1.889   3.458   1.979
 2129SOL    HW1 7621   1.870   3.362   2.000
 2129SOL    HW2 7622   1.856   3.516   2.054
 2130SOL     OW 7623   3.551   2.784   2.474
 2130SOL    HW1 7624   3.646   2.755   2.482
 2130SOL    HW2 7625   3.543   2.849   2.399
 2131SOL     OW 7626   3.503   2.970   2.294
 2131SOL    HW1 7627   3.589   2.972   2.242
 2131SOL    HW2 7628   3.517   3.017   2.382
 2132SOL     OW 7629   1.975   2.599   3.459
 2132SOL    HW1 7630   2.063   2.586   3.504
 2132SOL    HW2 7631   1.962   2.696   3.437
 2133SOL     OW 7632   2.475   3.227   2.588
 2133SOL    HW1 7633   2.426   3.140   2.597
 2133SOL    HW2 7634   2.452   3.270   2.501
 2134SOL     OW 7635   3.155   3.090   3.285
 2134SOL    HW1 7636   3.192   3.017   3.227
 2134SOL    HW2 7637   3.207   3.095   3.370
 2135SOL     OW 7638   2.671   1.866   2.364
 2135SOL    HW1 7639   2.711   1.957   2.355
 2135SOL    HW2 7640   2.571   1.874   2.370
 2136SOL     OW 7641   2.059   2.838   3.126
 2136SOL    HW1 7642   2.148   2.793   3.112
 2136SOL    HW2 7643   1.986   2.773   3.107
 2137SOL     OW 7644   3.387   2.861   2.052
 2137SOL    HW1 7645   3.324   2.785   2.065
 2137SOL    HW2 7646   3.435   2.879   2.138
 2138SOL     OW 7647   3.049   3.654   3.478
 2138SOL    HW1 7648   3.073   3.714   3.402
 2138SOL    HW2 7649   3.056   3.559   3.448
 2139SOL     OW 7650   2.179   2.113   3.663
 2139SOL    HW1 7651   2.250   2.184   3.669
 2139SOL    HW2 7652   2.091   2.152   3.691
 2140SOL     OW 7653   3.328   3.279   2.815
 2140SOL    HW1 7654   3.269   3.285   2.895
 2140SOL    HW2 7655   3.313   3.191   2.769
 2141SOL     OW 7656   2.460   2.591   2.132
 2141SOL    HW1 7657   2.484   2.660   2.064
 2141SOL    HW2 7658   2.382   2.624   2.186
 2142SOL     OW 7659   3.143   2.207   2.806
 2142SOL    HW1 7660   3.057   2.157   2.793
 2142SOL    HW2 7661   3.205   2.153   2.862
 2143SOL     OW 7662   2.669   2.467   3.327
 2143SOL    HW1 7663   2.622   2.464   3.416
 2143SOL    HW2 7664   2.618   2.412   3.261
 2144SOL     OW 7665   3.256   2.331   3.536
 2144SOL    HW1 7666   3.236   2.374   3.624
 2144SOL    HW2 7667   3.334   2.269   3.545
 2145SOL     OW 7668   2.835   2.752   3.434
 2145SOL    HW1 7669   2.881   2.668   3.405
 2145SOL    HW2 7670   2.779   2.786   3.359
 2146SOL     OW 7671   2.853   2.272   3.104
 2146SOL    HW1 7672   2.776   2.306   3.158
 2146SOL    HW2 7673   2.819   2.221   3.025
 2147SOL     OW 7674   2.903   2.563   2.291
 2147SOL    HW1 7675   2.929   2.559   2.387
 2147SOL    HW2 7676   2.818   2.512   2.277
 2148SOL     OW 7677   1.938   2.673   2.651
 2148SOL    HW1 7678   2.037   2.661   2.660
 2148SOL    HW2 7679   1.914   2.768   2.672
 2149SOL     OW 7680   1.992   3.683   3.433
 2149SOL    HW1 7681   1.982   3.668   3.532
 2149SOL    HW2 7682   1.906   3.719   3.397
 2150SOL     OW 7683   2.727   2.210   2.057
 2150SOL    HW1 7684   2.786   2.273   2.008
 2150SOL    HW2 7685   2.746   2.116   2.028
 2151SOL     OW 7686   3.581   2.447   3.693
 2151SOL    HW1 7687   3.555   2.536   3.657
 2151SOL    HW2 7688   3.579   2.379   3.620
 2152SOL     OW 7689   3.224   3.006   2.407
 2152SOL    HW1 7690   3.307   2.977   2.359
 2152SOL    HW2 7691   3.175   3.073   2.351
 2153SOL     OW 7692   2.412   2.058   2.747
 2153SOL    HW1 7693   2.407   2.053   2.847
 2153SOL    HW2 7694   2.414   2.154   2.718
 2154SOL     OW 7695   2.870   3.318   2.339
 2154SOL    HW1 7696   2.824   3.390   2.287
 2154SOL    HW2 7697   2.866   3.338   2.437
 2155SOL     OW 7698   3.089   3.412   3.368
 2155SOL    HW1 7699   3.095   3.335   3.432
 2155SOL    HW2 7700   3.037   3.386   3.288
 2156SOL     OW 7701   2.183   2.805   2.104
 2156SOL    HW1 7702   2.265   2.844   2.062
 2156SOL    HW2 7703   2.156   2.723   2.055
 2157SOL     OW 7704   3.320   2.597   2.590
 2157SOL    HW1 7705   3.315   2.532   2.665
 2157SOL    HW2 7706   3.400   2.656   2.603
 2158SOL     OW 7707   2.323   3.128   3.589
 2158SOL    HW1 7708   2.273   3.129   3.503
 2158SOL    HW2 7709   2.260   3.110   3.665
 2159SOL     OW 7710   2.973   3.638   2.099
 2159SOL    HW1 7711   2.913   3.576   2.149
 2159SOL    HW2 7712   3.004   3.594   2.014
 2160SOL     OW 7713   2.064   2.147   3.360
 2160SOL    HW1 7714   1.984   2.207   3.347
 2160SOL    HW2 7715   2.054   2.098   3.446
 2161SOL     OW 7716   3.262   1.969   2.288
 2161SOL    HW1 7717   3.238   1.932   2.198
 2161SOL    HW2 7718   3.361   1.985   2.292
 2162SOL     OW 7719   2.111   3.647   3.103
 2162SOL    HW1 7720   2.168   3.582   3.153
 2162SOL    HW2 7721   2.095   3.614   3.010
 2163SOL     OW 7722   2.802   3.560   2.766
 2163SOL    HW1 7723   2.882   3.503   2.787
 2163SOL    HW2 7724   2.753   3.520   2.689
 2164SOL     OW 7725   2.244   2.562   2.342
 2164SOL    HW1 7726   2.289   2.472   2.339
 2164SOL    HW2 7727   2.150   2.551   2.375
 2165SOL     OW 7728   3.409   2.084   3.591
 2165SOL    HW1 7729   3.404   2.121   3.683
 2165SOL    HW2 7730   3.337   2.015   3.579
 2166SOL     OW 7731   2.476   1.984   1.979
 2166SOL    HW1 7732   2.574   1.962   1.986
 2166SOL    HW2 7733   2.445   1.967   1.886
 2167SOL     OW 7734   2.643   2.126   3.611
 2167SOL    HW1 7735   2.710   2.065   3.654
 2167SOL    HW2 7736   2.570   2.145   3.676
 2168SOL     OW 7737   2.750   3.376   3.057
 2168SOL    HW1 7738   2.727   3.351   2.963
 2168SOL    HW2 7739   2.811   3.307   3.096
 2169SOL     OW 7740   3.213   2.452   3.295
 2169SOL    HW1 7741   3.241   2.409   3.380
 2169SOL    HW2 7742   3.238   2.548   3.296
 2170SOL     OW 7743   2.665   3.264   2.786
 2170SOL    HW1 7744   2.755   3.278   2.744
 2170SOL    HW2 7745   2.594   3.266   2.715
 2171SOL     OW 7746   2.401   1.926   2.374
 2171SOL    HW1 7747   2.320   1.927   2.432
 2171SOL    HW2 7748   2.404   2.009   2.319
 2172SOL     OW 7749   2.159   1.897   2.033
 2172SOL    HW1 7750   2.208   1.981   2.012
 2172SOL    HW2 7751   2.221   1.832   2.078
 2173SOL     OW 7752   2.797   2.098   2.342
 2173SOL    HW1 7753   2.749   2.139   2.264
 2173SOL    HW2 7754   2.896   2.096   2.323
 2174SOL     OW 7755   2.938   2.545   3.326
 2174SOL    HW1 7756   2.858   2.484   3.329
 2174SOL    HW2 7757   3.019   2.492   3.302
 2175SOL     OW 7758   3.089   3.432   2.655
 2175SOL    HW1 7759   3.110   3.506   2.590
 2175SOL    HW2 7760   3.157   3.432   2.728
 2176SOL     OW 7761   2.321   3.014   2.603
 2176SOL    HW1 7762   2.250   2.987   2.668
 2176SOL    HW2 7763   2.295   2.986   2.510
 2177SOL     OW 7764   3.133   3.659   2.453
 2177SOL    HW1 7765   3.177   3.723   2.389
 2177SOL    HW2 7766   3.083   3.711   2.523
 2178SOL     OW 7767   2.894   2.411   1.878
 2178SOL    HW1 7768   2.853   2.493   1.839
 2178SOL    HW2 7769   2.958   2.437   1.951
 2179SOL     OW 7770   1.940   2.418   3.248
 2179SOL    HW1 7771   2.032   2.417   3.207
 2179SOL    HW2 7772   1.934   2.492   3.315
 2180SOL     OW 7773   2.423   2.084   3.009
 2180SOL    HW1 7774   2.461   2.000   3.046
 2180SOL    HW2 7775   2.335   2.103   3.053
 2181SOL     OW 7776   2.879   1.901   2.615
 2181SOL    HW1 7777   2.807   1.906   2.546
 2181SOL    HW2 7778   2.855   1.832   2.684
 2182SOL     OW 7779   3.291   3.035   2.729
 2182SOL    HW1 7780   3.236   2.951   2.722
 2182SOL    HW2 7781   3.317   3.064   2.637
 2183SOL     OW 7782   3.328   2.452   2.854
 2183SOL    HW1 7783   3.298   2.357   2.861
 2183SOL    HW2 7784   3.401   2.468   2.920
 2184SOL     OW 7785   3.719   2.695   2.239
 2184SOL    HW1 7786   3.761   2.631   2.303
 2184SOL    HW2 7787   3.681   2.644   2.161
 2185SOL     OW 7788   2.350   3.247   2.036
 2185SOL    HW1 7789   2.263   3.232   2.083
 2185SOL    HW2 7790   2.333   3.273   1.941
 2186SOL     OW 7791   3.526   3.142   2.519
 2186SOL    HW1 7792   3.625   3.150   2.533
 2186SOL    HW2 7793   3.481   3.226   2.550
 2187SOL     OW 7794   3.252   2.437   1.940
 2187SOL    HW1 7795   3.198   2.416   2.021
 2187SOL    HW2 7796   3.343   2.396   1.949
 2188SOL     OW 7797   2.389   2.118   2.190
 2188SOL    HW1 7798   2.416   2.059   2.115
 2188SOL    HW2 7799   2.389   2.213   2.159
 2189SOL     OW 7800   3.616   3.085   3.450
 2189SOL    HW1 7801   3.707   3.046   3.437
 2189SOL    HW2 7802   3.624   3.181   3.474
 2190SOL     OW 7803   2.926   3.209   3.202
 2190SOL    HW1 7804   2.846   3.186   3.257
 2190SOL    HW2 7805   3.009   3.183   3.251
 2191SOL     OW 7806   3.454   3.491   3.487
 2191SOL    HW1 7807   3.481   3.525   3.397
 2191SOL    HW2 7808   3.533   3.453   3.533
 2192SOL     OW 7809   2.973   3.057   2.962
 2192SOL    HW1 7810   2.933   3.101   3.043
 2192SOL    HW2 7811   2.932   3.094   2.879
 2193SOL     OW 7812   3.500   2.961   2.941
 2193SOL    HW1 7813   3.505   3.042   3.000
 2193SOL    HW2 7814   3.414   2.963   2.890
 2194SOL     OW 7815   2.777   1.951   3.264
 2194SOL    HW1 7816   2.802   1.931   3.169
 2194SOL    HW2 7817   2.849   2.007   3.306
 2195SOL     OW 7818   2.842   2.978   3.581
 2195SOL    HW1 7819   2.743   2.984   3.591
 2195SOL    HW2 7820   2.865   2.898   3.525
 2196SOL     OW 7821   2.272   2.675   3.113
 2196SOL    HW1 7822   2.358   2.687   3.163
 2196SOL    HW2 7823   2.230   2.588   3.140
 2197SOL     OW 7824   3.136   2.248   3.124
 2197SOL    HW1 7825   3.157   2.322   3.188
 2197SOL    HW2 7826   3.047   2.265   3.081
 2198SOL     OW 7827   2.229   2.962   2.363
 2198SOL    HW1 7828   2.222   3.045   2.307
 2198SOL    HW2 7829   2.233   2.882   2.303
 2199SOL     OW 7830   3.114   3.210   2.250
 2199SOL    HW1 7831   3.164   3.287   2.290
 2199SOL    HW2 7832   3.019   3.212   2.282
 2200SOL     OW 7833   3.134   3.307   3.004
 2200SOL    HW1 7834   3.181   3.320   3.091
 2200SOL    HW2 7835   3.068   3.233   3.013
 2201SOL     OW 7836   3.444   2.501   2.334
 2201SOL    HW1 7837   3.413   2.562   2.407
 2201SOL    HW2 7838   3.494   2.553   2.265
 2202SOL     OW 7839   2.216   3.372   3.191
 2202SOL    HW1 7840   2.195   3.328   3.104
 2202SOL    HW2 7841   2.313   3.398   3.194
 2203SOL     OW 7842   2.264   2.613   3.460
 2203SOL    HW1 7843   2.332   2.668   3.413
 2203SOL    HW2 7844   2.304   2.525   3.487
 2204SOL     OW 7845   3.449   2.641   3.532
 2204SOL    HW1 7846   3.357   2.679   3.527
 2204SOL    HW2 7847   3.509   2.688   3.467
 2205SOL     OW 7848   2.875   1.967   3.632
 2205SOL    HW1 7849   2.881   2.052   3.580
 2205SOL    HW2 7850   2.907   1.891   3.575
 2206SOL     OW 7851   2.366   1.912   3.602
 2206SOL    HW1 7852   2.324   1.855   3.532
 2206SOL    HW2 7853   2.300   1.981   3.634
 2207SOL     OW 7854   2.435   2.732   2.891
 2207SOL    HW1 7855   2.479   2.821   2.882
 2207SOL    HW2 7856   2.372   2.732   2.968
 2208SOL     OW 7857   3.222   2.724   2.907
 2208SOL    HW1 7858   3.147   2.724   2.841
 2208SOL    HW2 7859   3.259   2.632   2.916
 2209SOL     OW 7860   3.071   2.387   2.137
 2209SOL    HW1 7861   3.084   2.303   2.191
 2209SOL    HW2 7862   3.042   2.461   2.197
 2210SOL     OW 7863   2.169   2.075   3.093
 2210SOL    HW1 7864   2.146   2.112   3.183
 2210SOL    HW2 7865   2.139   1.980   3.087
 2211SOL     OW 7866   3.590   2.797   3.716
 2211SOL    HW1 7867   3.544   2.790   3.627
 2211SOL    HW2 7868   3.528   2.841   3.782
 2212SOL     OW 7869   2.169   1.925   2.480
 2212SOL    HW1 7870   2.158   2.019   2.513
 2212SOL    HW2 7871   2.164   1.862   2.557
 2213SOL     OW 7872   3.484   2.229   2.236
 2213SOL    HW1 7873   3.486   2.153   2.300
 2213SOL    HW2 7874   3.436   2.306   2.276
 2214SOL     OW 7875   2.885   2.628   2.828
 2214SOL    HW1 7876   2.900   2.649   2.924
 2214SOL    HW2 7877   2.855   2.533   2.819
 2215SOL     OW 7878   2.842   3.435   3.562
 2215SOL    HW1 7879   2.822   3.479   3.474
 2215SOL    HW2 7880   2.881   3.344   3.546
 2216SOL     OW 7881   3.402   2.136   1.987
 2216SOL    HW1 7882   3.341   2.061   2.010
 2216SOL    HW2 7883   3.424   2.188   2.070
 2217SOL     OW 7884   3.165   2.700   1.904
 2217SOL    HW1 7885   3.199   2.607   1.919
 2217SOL    HW2 7886   3.183   2.727   1.809
 2218SOL     OW 7887   2.930   3.195   2.711
 2218SOL    HW1 7888   2.937   3.111   2.656
 2218SOL    HW2 7889   2.992   3.264   2.675
 2219SOL     OW 7890   2.181   2.672   2.811
 2219SOL    HW1 7891   2.274   2.708   2.816
 2219SOL    HW2 7892   2.175   2.587   2.863
 2220SOL     OW 7893   2.201   2.371   2.868
 2220SOL    HW1 7894   2.149   2.288   2.851
 2220SOL    HW2 7895   2.278   2.376   2.804
 2221SOL     OW 7896   3.000   2.242   3.540
 2221SOL    HW1 7897   2.955   2.305   3.604
 2221SOL    HW2 7898   3.093   2.273   3.523
 2222SOL     OW 7899   3.022   2.069   3.339
 2222SOL    HW1 7900   3.022   2.133   3.416
 2222SOL    HW2 7901   3.050   2.117   3.256
 2223SOL     OW 7902   1.870   3.188   2.062
 2223SOL    HW1 7903   1.777   3.209   2.031
 2223SOL    HW2 7904   1.880   3.089   2.075
 2224SOL     OW 7905   1.950   3.663   2.789
 2224SOL    HW1 7906   1.908   3.577   2.762
 2224SOL    HW2 7907   2.044   3.666   2.755
 2225SOL     OW 7908   2.366   3.430   2.772
 2225SOL    HW1 7909   2.432   3.504   2.781
 2225SOL    HW2 7910   2.410   3.351   2.730
 2226SOL     OW 7911   2.864   2.658   3.100
 2226SOL    HW1 7912   2.905   2.626   3.186
 2226SOL    HW2 7913   2.768   2.631   3.097
 2227SOL     OW 7914   1.902   2.406   2.976
 2227SOL    HW1 7915   1.987   2.373   2.935
 2227SOL    HW2 7916   1.915   2.421   3.074
 2228SOL     OW 7917   2.051   2.382   3.584
 2228SOL    HW1 7918   2.110   2.342   3.514
 2228SOL    HW2 7919   1.993   2.453   3.543
 2229SOL     OW 7920   3.231   2.812   3.522
 2229SOL    HW1 7921   3.270   2.901   3.542
 2229SOL    HW2 7922   3.241   2.792   3.425
 2230SOL     OW 7923   2.677   2.434   2.187
 2230SOL    HW1 7924   2.684   2.345   2.141
 2230SOL    HW2 7925   2.583   2.468   2.179
 2231SOL     OW 7926   3.519   2.466   3.068
 2231SOL    HW1 7927   3.481   2.397   3.130
 2231SOL    HW2 7928   3.601   2.430   3.024
 2232SOL     OW 7929   2.533   2.326   3.131
 2232SOL    HW1 7930   2.499   2.237   3.101
 2232SOL    HW2 7931   2.559   2.380   3.051
 2233SOL     OW 7932   2.792   3.540   3.327
 2233SOL    HW1 7933   2.768   3.522   3.232
 2233SOL    HW2 7934   2.822   3.634   3.337
 2234SOL     OW 7935   2.335   2.362   2.053
 2234SOL    HW1 7936   2.396   2.442   2.057
 2234SOL    HW2 7937   2.240   2.393   2.060
 2235SOL     OW 7938   2.021   2.999   3.328
 2235SOL    HW1 7939   2.043   2.938   3.404
 2235SOL    HW2 7940   2.031   2.950   3.242
 2236SOL     OW 7941   3.209   2.921   3.096
 2236SOL    HW1 7942   3.233   2.858   3.022
 2236SOL    HW2 7943   3.119   2.961   3.078
 2237SOL     OW 7944   3.164   2.717   2.171
 2237SOL    HW1 7945   3.078   2.686   2.213
 2237SOL    HW2 7946   3.160   2.703   2.072
 2238SOL     OW 7947   3.621   3.609   3.016
 2238SOL    HW1 7948   3.682   3.639   2.943
 2238SOL    HW2 7949   3.583   3.520   2.994
 2239SOL     OW 7950   3.114   3.593   2.990
 2239SOL    HW1 7951   3.198   3.598   2.936
 2239SOL    HW2 7952   3.091   3.497   3.008
 2240SOL     OW 7953   1.945   3.120   2.884
 2240SOL    HW1 7954   1.940   3.119   2.984
 2240SOL    HW2 7955   1.862   3.079   2.846
 2241SOL     OW 7956   2.550   3.524   3.578
 2241SOL    HW1 7957   2.494   3.605   3.587
 2241SOL    HW2 7958   2.602   3.528   3.492
 2242SOL     OW 7959   3.588   1.997   2.385
 2242SOL    HW1 7960   3.661   1.980   2.318
 2242SOL    HW2 7961   3.557   1.910   2.423
 2243SOL     OW 7962   3.142   2.789   2.534
 2243SOL    HW1 7963   3.202   2.708   2.536
 2243SOL    HW2 7964   3.182   2.858   2.474
 2244SOL     OW 7965   2.692   3.135   3.284
 2244SOL    HW1 7966   2.687   3.168   3.379
 2244SOL    HW2 7967   2.606   3.154   3.238
 2245SOL     OW 7968   2.534   3.478   2.016
 2245SOL    HW1 7969   2.543   3.488   1.917
 2245SOL    HW2 7970   2.494   3.389   2.037
 2246SOL     OW 7971   3.512   3.582   3.256
 2246SOL    HW1 7972   3.565   3.592   3.172
 2246SOL    HW2 7973   3.485   3.672   3.290
 2247SOL     OW 7974   3.703   2.037   2.825
 2247SOL    HW1 7975   3.742   1.952   2.789
 2247SOL    HW2 7976   3.605   2.039   2.806
 2248SOL     OW 7977   3.056   3.474   1.893
 2248SOL    HW1 7978   3.062   3.381   1.930
 2248SOL    HW2 7979   2.997   3.474   1.813
 2249SOL     OW 7980   2.684   2.864   3.234
 2249SOL    HW1 7981   2.724   2.863   3.142
 2249SOL    HW2 7982   2.694   2.956   3.274
 2250SOL     OW 7983   2.778   2.772   2.153
 2250SOL    HW1 7984   2.841   2.810   2.085
 2250SOL    HW2 7985   2.818   2.689   2.192
 2251SOL     OW 7986   2.234   3.150   3.352
 2251SOL    HW1 7987   2.221   3.243   3.318
 2251SOL    HW2 7988   2.150   3.098   3.339
 2252SOL     OW 7989   3.476   3.154   3.151
 2252SOL    HW1 7990   3.536   3.157   3.231
 2252SOL    HW2 7991   3.401   3.218   3.164
 2253SOL     OW 7992   2.901   2.960   2.558
 2253SOL    HW1 7993   2.831   2.913   2.612
 2253SOL    HW2 7994   2.960   2.892   2.515
 2254SOL     OW 7995   2.876   2.098   2.833
 2254SOL    HW1 7996   2.868   2.062   2.740
 2254SOL    HW2 7997   2.874   2.022   2.898
 2255SOL     OW 7998   2.452   3.349   2.353
 2255SOL    HW1 7999   2.494   3.291   2.283
 2255SOL    HW2 8000   2.408   3.428   2.309
 2256SOL     OW 8001   3.571   2.247   3.243
 2256SOL    HW1 8002   3.644   2.316   3.247
 2256SOL    HW2 8003   3.599   2.172   3.184
 2257SOL     OW 8004   2.117   3.210   2.152
 2257SOL    HW1 8005   2.021   3.211   2.125
 2257SOL    HW2 8006   2.129   3.263   2.236
 2258SOL     OW 8007   2.534   2.065   3.351
 2258SOL    HW1 8008   2.624   2.049   3.311
 2258SOL    HW2 8009   2.542   2.070   3.450
 2259SOL     OW 8010   1.937   2.207   1.895
 2259SOL    HW1 8011   1.845   2.179   1.866
 2259SOL    HW2 8012   1.968   2.284   1.839
 2260SOL     OW 8013   3.302   2.718   3.260
 2260SOL    HW1 8014   3.245   2.770   3.197
 2260SOL    HW2 8015   3.398   2.730   3.236
 2261SOL     OW 8016   1.934   2.028   2.180
 2261SOL    HW1 8017   1.917   2.111   2.126
 2261SOL    HW2 8018   2.024   1.991   2.158
 2262SOL     OW 8019   2.475   2.704   3.293
 2262SOL    HW1 8020   2.531   2.785   3.276
 2262SOL    HW2 8021   2.534   2.624   3.296
 2263SOL     OW 8022   3.355   3.629   2.821
 2263SOL    HW1 8023   3.388   3.693   2.752
 2263SOL    HW2 8024   3.421   3.623   2.896
 2264SOL     OW 8025   2.578   2.427   3.570
 2264SOL    HW1 8026   2.597   2.492   3.644
 2264SOL    HW2 8027   2.638   2.347   3.579
 2265SOL     OW 8028   3.312   3.082   3.495
 2265SOL    HW1 8029   3.303   3.072   3.594
 2265SOL    HW2 8030   3.408   3.075   3.469
 2266SOL     OW 8031   2.252   3.603   3.422
 2266SOL    HW1 8032   2.161   3.644   3.420
 2266SOL    HW2 8033   2.245   3.509   3.454
 2267SOL     OW 8034   3.536   2.745   3.116
 2267SOL    HW1 8035   3.509   2.656   3.079
 2267SOL    HW2 8036   3.537   2.813   3.043
 2268SOL     OW 8037   3.087   2.187   2.311
 2268SOL    HW1 8038   3.152   2.113   2.300
 2268SOL    HW2 8039   3.107   2.237   2.395
 2269SOL     OW 8040   3.639   2.204   3.504
 2269SOL    HW1 8041   3.622   2.235   3.410
 2269SOL    HW2 8042   3.555   2.167   3.542
 2270SOL     OW 8043   3.592   2.796   3.379
 2270SOL    HW1 8044   3.630   2.887   3.394
 2270SOL    HW2 8045   3.584   2.779   3.280
 2271SOL     OW 8046   2.721   3.236   1.878
 2271SOL    HW1 8047   2.675   3.251   1.966
 2271SOL    HW2 8048   2.765   3.321   1.848
 2272SOL     OW 8049   2.523   3.652   2.815
 2272SOL    HW1 8050   2.477   3.740   2.802
 2272SOL    HW2 8051   2.622   3.664   2.808
 2273SOL     OW 8052   2.945   2.846   1.949
 2273SOL    HW1 8053   2.922   2.899   1.867
 2273SOL    HW2 8054   3.026   2.790   1.930
 2274SOL     OW 8055   2.083   3.176   3.706
 2274SOL    HW1 8056   2.018   3.103   3.685
 2274SOL    HW2 8057   2.087   3.190   3.804
 2275SOL     OW 8058   1.941   3.102   2.515
 2275SOL    HW1 8059   1.940   3.055   2.603
 2275SOL    HW2 8060   2.023   3.074   2.464
 2276SOL     OW 8061   2.534   3.253   3.486
 2276SOL    HW1 8062   2.456   3.203   3.524
 2276SOL    HW2 8063   2.531   3.348   3.517
 2277SOL     OW 8064   3.686   2.054   3.089
 2277SOL    HW1 8065   3.682   1.964   3.133
 2277SOL    HW2 8066   3.689   2.043   2.990
 2278SOL     OW 8067   3.567   3.349   2.966
 2278SOL    HW1 8068   3.474   3.324   2.939
 2278SOL    HW2 8069   3.593   3.299   3.048
 2279SOL     OW 8070   2.179   2.409   3.142
 2279SOL    HW1 8071   2.217   2.350   3.214
 2279SOL    HW2 8072   2.219   2.383   3.054
 2280SOL     OW 8073   2.674   3.448   2.549
 2280SOL    HW1 8074   2.706   3.458   2.455
 2280SOL    HW2 8075   2.595   3.386   2.551
 2281SOL     OW 8076   3.286   2.076   2.974
 2281SOL    HW1 8077   3.338   2.011   3.029
 2281SOL    HW2 8078   3.237   2.139   3.035
 2282SOL     OW 8079   2.863   1.896   3.016
 2282SOL    HW1 8080   2.800   1.824   2.985
 2282SOL    HW2 8081   2.956   1.860   3.016
 2283SOL     OW 8082   2.632   3.192   2.163
 2283SOL    HW1 8083   2.586   3.105   2.180
 2283SOL    HW2 8084   2.723   3.189   2.204
 2284SOL     OW 8085   2.480   3.429   3.146
 2284SOL    HW1 8086   2.475   3.511   3.203
 2284SOL    HW2 8087   2.569   3.426   3.101
 2285SOL     OW 8088   3.214   1.914   2.030
 2285SOL    HW1 8089   3.249   1.873   1.946
 2285SOL    HW2 8090   3.124   1.876   2.050
 2286SOL     OW 8091   3.455   2.083   2.744
 2286SOL    HW1 8092   3.371   2.082   2.798
 2286SOL    HW2 8093   3.457   2.166   2.688
 2287SOL     OW 8094   1.901   2.939   2.162
 2287SOL    HW1 8095   2.000   2.928   2.153
 2287SOL    HW2 8096   1.861   2.853   2.194
 2288SOL     OW 8097   2.737   3.508   2.199
 2288SOL    HW1 8098   2.660   3.473   2.145
 2288SOL    HW2 8099   2.705   3.579   2.261
 2289SOL     OW 8100   2.092   2.490   3.837
 2289SOL    HW1 8101   1.999   2.488   3.874
 2289SOL    HW2 8102   2.093   2.451   3.745
 2290SOL     OW 8103   1.881   2.230   4.371
 2290SOL    HW1 8104   1.799   2.273   4.410
 2290SOL    HW2 8105   1.853   2.157   4.308
 2291SOL     OW 8106   2.997   2.565   4.441
 2291SOL    HW1 8107   3.054   2.643   4.416
 2291SOL    HW2 8108   2.937   2.591   4.517
 2292SOL     OW 8109   3.617   2.469   3.955
 2292SOL    HW1 8110   3.605   2.456   3.856
 2292SOL    HW2 8111   3.587   2.388   4.004
 2293SOL     OW 8112   2.547   2.874   4.389
 2293SOL    HW1 8113   2.616   2.858   4.459
 2293SOL    HW2 8114   2.474   2.931   4.427
 2294SOL     OW 8115   2.197   3.297   4.785
 2294SOL    HW1 8116   2.119   3.266   4.732
 2294SOL    HW2 8117   2.255   3.355   4.728
 2295SOL     OW 8118   3.465   2.309   4.461
 2295SOL    HW1 8119   3.391   2.355   4.411
 2295SOL    HW2 8120   3.516   2.377   4.514
 2296SOL     OW 8121   2.093   3.575   4.207
 2296SOL    HW1 8122   2.127   3.652   4.261
 2296SOL    HW2 8123   2.137   3.575   4.117
 2297SOL     OW 8124   2.102   2.953   4.610
 2297SOL    HW1 8125   2.116   2.869   4.662
 2297SOL    HW2 8126   2.047   3.017   4.665
 2298SOL     OW 8127   2.482   3.648   5.163
 2298SOL    HW1 8128   2.390   3.631   5.198
 2298SOL    HW2 8129   2.510   3.740   5.189
 2299SOL     OW 8130   2.468   2.826   3.847
 2299SOL    HW1 8131   2.475   2.910   3.793
 2299SOL    HW2 8132   2.514   2.839   3.935
 2300SOL     OW 8133   1.984   2.505   4.287
 2300SOL    HW1 8134   1.939   2.417   4.304
 2300SOL    HW2 8135   1.983   2.559   4.371
 2301SOL     OW 8136   2.671   1.866   4.226
 2301SOL    HW1 8137   2.711   1.957   4.217
 2301SOL    HW2 8138   2.571   1.874   4.232
 2302SOL     OW 8139   2.059   2.838   4.988
 2302SOL    HW1 8140   2.148   2.793   4.974
 2302SOL    HW2 8141   1.986   2.773   4.969
 2303SOL     OW 8142   3.328   3.279   4.677
 2303SOL    HW1 8143   3.269   3.285   4.757
 2303SOL    HW2 8144   3.313   3.191   4.631
 2304SOL     OW 8145   2.460   2.591   3.994
 2304SOL    HW1 8146   2.484   2.660   3.926
 2304SOL    HW2 8147   2.382   2.624   4.048
 2305SOL     OW 8148   2.903   2.563   4.153
 2305SOL    HW1 8149   2.929   2.559   4.249
 2305SOL    HW2 8150   2.818   2.512   4.139
 2306SOL     OW 8151   2.727   2.210   3.919
 2306SOL    HW1 8152   2.786   2.273   3.870
 2306SOL    HW2 8153   2.746   2.116   3.890
 2307SOL     OW 8154   2.870   3.318   4.201
 2307SOL    HW1 8155   2.824   3.390   4.149
 2307SOL    HW2 8156   2.866   3.338   4.299
 2308SOL     OW 8157   3.657   2.928   4.597
 2308SOL    HW1 8158   3.595   2.913   4.521
 2308SOL    HW2 8159   3.605   2.939   4.682
 2309SOL     OW 8160   2.973   3.638   3.961
 2309SOL    HW1 8161   2.913   3.576   4.011
 2309SOL    HW2 8162   3.004   3.594   3.876
 2310SOL     OW 8163   2.326   3.605   4.047
 2310SOL    HW1 8164   2.359   3.644   4.133
 2310SOL    HW2 8165   2.402   3.598   3.982
 2311SOL     OW 8166   3.262   1.969   4.150
 2311SOL    HW1 8167   3.238   1.932   4.060
 2311SOL    HW2 8168   3.361   1.985   4.154
 2312SOL     OW 8169   2.111   3.647   4.965
 2312SOL    HW1 8170   2.168   3.582   5.015
 2312SOL    HW2 8171   2.095   3.614   4.872
 2313SOL     OW 8172   2.802   3.560   4.628
 2313SOL    HW1 8173   2.882   3.503   4.649
 2313SOL    HW2 8174   2.753   3.520   4.551
 2314SOL     OW 8175   2.244   2.562   4.204
 2314SOL    HW1 8176   2.289   2.472   4.201
 2314SOL    HW2 8177   2.150   2.551   4.237
 2315SOL     OW 8178   2.476   1.984   3.841
 2315SOL    HW1 8179   2.574   1.962   3.848
 2315SOL    HW2 8180   2.445   1.967   3.748
 2316SOL     OW 8181   2.401   1.926   4.236
 2316SOL    HW1 8182   2.320   1.927   4.294
 2316SOL    HW2 8183   2.404   2.009   4.181
 2317SOL     OW 8184   2.159   1.897   3.895
 2317SOL    HW1 8185   2.208   1.981   3.874
 2317SOL    HW2 8186   2.221   1.832   3.940
 2318SOL     OW 8187   2.797   2.098   4.204
 2318SOL    HW1 8188   2.749   2.139   4.126
 2318SOL    HW2 8189   2.896   2.096   4.185
 2319SOL     OW 8190   3.089   3.432   4.517
 2319SOL    HW1 8191   3.110   3.506   4.452
 2319SOL    HW2 8192   3.157   3.432   4.590
 2320SOL     OW 8193   2.321   3.014   4.465
 2320SOL    HW1 8194   2.250   2.987   4.530
 2320SOL    HW2 8195   2.295   2.986   4.372
 2321SOL     OW 8196   3.133   3.659   4.315
 2321SOL    HW1 8197   3.177   3.723   4.251
 2321SOL    HW2 8198   3.083   3.711   4.385
 2322SOL     OW 8199   2.894   2.411   3.740
 2322SOL    HW1 8200   2.853   2.493   3.701
 2322SOL    HW2 8201   2.958   2.437   3.813
 2323SOL     OW 8202   2.728   2.316   4.366
 2323SOL    HW1 8203   2.696   2.388   4.304
 2323SOL    HW2 8204   2.752   2.235   4.313
 2324SOL     OW 8205   2.879   1.901   4.477
 2324SOL    HW1 8206   2.807   1.906   4.408
 2324SOL    HW2 8207   2.855   1.832   4.546
 2325SOL     OW 8208   3.719   2.695   4.101
 2325SOL    HW1 8209   3.761   2.631   4.165
 2325SOL    HW2 8210   3.681   2.644   4.023
 2326SOL     OW 8211   2.350   3.247   3.898
 2326SOL    HW1 8212   2.263   3.232   3.945
 2326SOL    HW2 8213   2.333   3.273   3.803
 2327SOL     OW 8214   2.389   2.118   4.052
 2327SOL    HW1 8215   2.416   2.059   3.977
 2327SOL    HW2 8216   2.389   2.213   4.021
 2328SOL     OW 8217   2.973   3.057   4.824
 2328SOL    HW1 8218   2.933   3.101   4.905
 2328SOL    HW2 8219   2.932   3.094   4.741
 2329SOL     OW 8220   3.500   2.961   4.803
 2329SOL    HW1 8221   3.505   3.042   4.862
 2329SOL    HW2 8222   3.414   2.963   4.752
 2330SOL     OW 8223   2.567   2.912   4.092
 2330SOL    HW1 8224   2.553   2.919   4.191
 2330SOL    HW2 8225   2.651   2.861   4.074
 2331SOL     OW 8226   2.272   2.675   4.975
 2331SOL    HW1 8227   2.358   2.687   5.025
 2331SOL    HW2 8228   2.230   2.588   5.002
 2332SOL     OW 8229   3.134   3.307   4.866
 2332SOL    HW1 8230   3.181   3.320   4.953
 2332SOL    HW2 8231   3.068   3.233   4.875
 2333SOL     OW 8232   3.444   2.501   4.196
 2333SOL    HW1 8233   3.413   2.562   4.269
 2333SOL    HW2 8234   3.494   2.553   4.127
 2334SOL     OW 8235   2.169   1.925   4.342
 2334SOL    HW1 8236   2.158   2.019   4.375
 2334SOL    HW2 8237   2.164   1.862   4.419
 2335SOL     OW 8238   3.484   2.229   4.098
 2335SOL    HW1 8239   3.486   2.153   4.162
 2335SOL    HW2 8240   3.436   2.306   4.138
 2336SOL     OW 8241   3.402   2.136   3.849
 2336SOL    HW1 8242   3.341   2.061   3.872
 2336SOL    HW2 8243   3.424   2.188   3.932
 2337SOL     OW 8244   2.930   3.195   4.573
 2337SOL    HW1 8245   2.937   3.111   4.518
 2337SOL    HW2 8246   2.992   3.264   4.537
 2338SOL     OW 8247   2.181   2.672   4.673
 2338SOL    HW1 8248   2.274   2.708   4.678
 2338SOL    HW2 8249   2.175   2.587   4.725
 2339SOL     OW 8250   2.201   2.371   4.730
 2339SOL    HW1 8251   2.149   2.288   4.713
 2339SOL    HW2 8252   2.278   2.376   4.666
 2340SOL     OW 8253   1.870   3.188   3.924
 2340SOL    HW1 8254   1.777   3.209   3.893
 2340SOL    HW2 8255   1.880   3.089   3.937
 2341SOL     OW 8256   2.864   2.658   4.962
 2341SOL    HW1 8257   2.905   2.626   5.048
 2341SOL    HW2 8258   2.768   2.631   4.959
 2342SOL     OW 8259   1.902   2.406   4.838
 2342SOL    HW1 8260   1.987   2.373   4.797
 2342SOL    HW2 8261   1.915   2.421   4.936
 2343SOL     OW 8262   2.677   2.434   4.049
 2343SOL    HW1 8263   2.684   2.345   4.003
 2343SOL    HW2 8264   2.583   2.468   4.041
 2344SOL     OW 8265   3.519   2.466   4.930
 2344SOL    HW1 8266   3.481   2.397   4.992
 2344SOL    HW2 8267   3.601   2.430   4.886
 2345SOL     OW 8268   2.792   3.540   5.189
 2345SOL    HW1 8269   2.768   3.522   5.094
 2345SOL    HW2 8270   2.822   3.634   5.199
 2346SOL     OW 8271   2.335   2.362   3.915
 2346SOL    HW1 8272   2.396   2.442   3.919
 2346SOL    HW2 8273   2.240   2.393   3.922
 2347SOL     OW 8274   3.209   2.921   4.958
 2347SOL    HW1 8275   3.233   2.858   4.884
 2347SOL    HW2 8276   3.119   2.961   4.940
 2348SOL     OW 8277   3.114   3.593   4.852
 2348SOL    HW1 8278   3.198   3.598   4.798
 2348SOL    HW2 8279   3.091   3.497   4.870
 2349SOL     OW 8280   3.588   1.997   4.247
 2349SOL    HW1 8281   3.661   1.980   4.180
 2349SOL    HW2 8282   3.557   1.910   4.285
 2350SOL     OW 8283   3.250   3.435   4.201
 2350SOL    HW1 8284   3.317   3.447   4.127
 2350SOL    HW2 8285   3.210   3.524   4.224
 2351SOL     OW 8286   2.534   3.478   3.878
 2351SOL    HW1 8287   2.543   3.488   3.779
 2351SOL    HW2 8288   2.494   3.389   3.899
 2352SOL     OW 8289   3.703   2.037   4.687
 2352SOL    HW1 8290   3.742   1.952   4.651
 2352SOL    HW2 8291   3.605   2.039   4.668
 2353SOL     OW 8292   2.125   2.188   4.444
 2353SOL    HW1 8293   2.046   2.239   4.410
 2353SOL    HW2 8294   2.116   2.173   4.542
 2354SOL     OW 8295   3.056   3.474   3.755
 2354SOL    HW1 8296   3.062   3.381   3.792
 2354SOL    HW2 8297   2.997   3.474   3.675
 2355SOL     OW 8298   2.778   2.772   4.015
 2355SOL    HW1 8299   2.841   2.810   3.947
 2355SOL    HW2 8300   2.818   2.689   4.054
 2356SOL     OW 8301   2.901   2.960   4.420
 2356SOL    HW1 8302   2.831   2.913   4.474
 2356SOL    HW2 8303   2.960   2.892   4.377
 2357SOL     OW 8304   2.876   2.098   4.695
 2357SOL    HW1 8305   2.868   2.062   4.602
 2357SOL    HW2 8306   2.874   2.022   4.760
 2358SOL     OW 8307   2.452   3.349   4.215
 2358SOL    HW1 8308   2.494   3.291   4.145
 2358SOL    HW2 8309   2.408   3.428   4.171
 2359SOL     OW 8310   2.117   3.210   4.014
 2359SOL    HW1 8311   2.021   3.211   3.987
 2359SOL    HW2 8312   2.129   3.263   4.098
 2360SOL     OW 8313   1.937   2.207   3.757
 2360SOL    HW1 8314   1.845   2.179   3.728
 2360SOL    HW2 8315   1.968   2.284   3.701
 2361SOL     OW 8316   1.934   2.028   4.042
 2361SOL    HW1 8317   1.917   2.111   3.988
 2361SOL    HW2 8318   2.024   1.991   4.020
 2362SOL     OW 8319   3.045   3.197   3.843
 2362SOL    HW1 8320   2.946   3.186   3.845
 2362SOL    HW2 8321   3.079   3.212   3.936
 2363SOL     OW 8322   3.312   3.082   5.357
 2363SOL    HW1 8323   3.303   3.072   5.456
 2363SOL    HW2 8324   3.408   3.075   5.331
 2364SOL     OW 8325   3.536   2.745   4.978
 2364SOL    HW1 8326   3.509   2.656   4.941
 2364SOL    HW2 8327   3.537   2.813   4.905
 2365SOL     OW 8328   3.087   2.187   4.173
 2365SOL    HW1 8329   3.152   2.113   4.162
 2365SOL    HW2 8330   3.107   2.237   4.257
 2366SOL     OW 8331   3.592   2.796   5.241
 2366SOL    HW1 8332   3.630   2.887   5.256
 2366SOL    HW2 8333   3.584   2.779   5.142
 2367SOL     OW 8334   2.721   3.236   3.740
 2367SOL    HW1 8335   2.675   3.251   3.828
 2367SOL    HW2 8336   2.765   3.321   3.710
 2368SOL     OW 8337   2.721   2.818   4.585
 2368SOL    HW1 8338   2.775   2.749   4.633
 2368SOL    HW2 8339   2.689   2.887   4.651
 2369SOL     OW 8340   2.945   2.846   3.811
 2369SOL    HW1 8341   2.922   2.899   3.729
 2369SOL    HW2 8342   3.026   2.790   3.792
 2370SOL     OW 8343   3.723   3.431   4.575
 2370SOL    HW1 8344   3.652   3.419   4.505
 2370SOL    HW2 8345   3.724   3.352   4.635
 2371SOL     OW 8346   1.941   3.102   4.377
 2371SOL    HW1 8347   1.940   3.055   4.465
 2371SOL    HW2 8348   2.023   3.074   4.326
 2372SOL     OW 8349   3.686   2.054   4.951
 2372SOL    HW1 8350   3.682   1.964   4.995
 2372SOL    HW2 8351   3.689   2.043   4.852
 2373SOL     OW 8352   2.290   2.286   4.244
 2373SOL    HW1 8353   2.320   2.214   4.182
 2373SOL    HW2 8354   2.251   2.246   4.327
 2374SOL     OW 8355   2.863   1.896   4.878
 2374SOL    HW1 8356   2.800   1.824   4.847
 2374SOL    HW2 8357   2.956   1.860   4.878
 2375SOL     OW 8358   2.632   3.192   4.025
 2375SOL    HW1 8359   2.586   3.105   4.042
 2375SOL    HW2 8360   2.723   3.189   4.066
 2376SOL     OW 8361   3.214   1.914   3.892
 2376SOL    HW1 8362   3.249   1.873   3.808
 2376SOL    HW2 8363   3.124   1.876   3.912
 2377SOL     OW 8364   2.737   3.508   4.061
 2377SOL    HW1 8365   2.660   3.473   4.007
 2377SOL    HW2 8366   2.705   3.579   4.123
 2378SOL     OW 8367   2.092   4.352   0.113
 2378SOL    HW1 8368   1.999   4.350   0.150
 2378SOL    HW2 8369   2.093   4.313   0.021
 2379SOL     OW 8370   2.087   3.999   0.996
 2379SOL    HW1 8371   2.122   3.982   1.088
 2379SOL    HW2 8372   1.999   3.954   0.984
 2380SOL     OW 8373   1.881   4.092   0.647
 2380SOL    HW1 8374   1.799   4.135   0.686
 2380SOL    HW2 8375   1.853   4.019   0.584
 2381SOL     OW 8376   3.417   5.235   0.703
 2381SOL    HW1 8377   3.360   5.219   0.784
 2381SOL    HW2 8378   3.358   5.245   0.623
 2382SOL     OW 8379   2.997   4.427   0.717
 2382SOL    HW1 8380   3.054   4.505   0.692
 2382SOL    HW2 8381   2.937   4.453   0.793
 2383SOL     OW 8382   3.617   4.331   0.231
 2383SOL    HW1 8383   3.605   4.318   0.132
 2383SOL    HW2 8384   3.587   4.250   0.280
 2384SOL     OW 8385   2.300   4.116   1.499
 2384SOL    HW1 8386   2.382   4.060   1.508
 2384SOL    HW2 8387   2.219   4.058   1.503
 2385SOL     OW 8388   3.465   4.171   0.737
 2385SOL    HW1 8389   3.391   4.217   0.687
 2385SOL    HW2 8390   3.516   4.239   0.790
 2386SOL     OW 8391   2.468   4.688   0.123
 2386SOL    HW1 8392   2.475   4.772   0.069
 2386SOL    HW2 8393   2.514   4.701   0.211
 2387SOL     OW 8394   3.456   3.838   1.480
 2387SOL    HW1 8395   3.438   3.905   1.408
 2387SOL    HW2 8396   3.453   3.884   1.569
 2388SOL     OW 8397   1.984   4.367   0.563
 2388SOL    HW1 8398   1.939   4.279   0.580
 2388SOL    HW2 8399   1.983   4.421   0.647
 2389SOL     OW 8400   3.551   4.646   0.612
 2389SOL    HW1 8401   3.646   4.617   0.620
 2389SOL    HW2 8402   3.543   4.711   0.537
 2390SOL     OW 8403   3.503   4.832   0.432
 2390SOL    HW1 8404   3.589   4.834   0.380
 2390SOL    HW2 8405   3.517   4.879   0.520
 2391SOL     OW 8406   1.975   4.461   1.597
 2391SOL    HW1 8407   2.063   4.448   1.642
 2391SOL    HW2 8408   1.962   4.558   1.575
 2392SOL     OW 8409   2.059   4.700   1.264
 2392SOL    HW1 8410   2.148   4.655   1.250
 2392SOL    HW2 8411   1.986   4.635   1.245
 2393SOL     OW 8412   3.328   5.141   0.953
 2393SOL    HW1 8413   3.269   5.147   1.033
 2393SOL    HW2 8414   3.313   5.053   0.907
 2394SOL     OW 8415   2.460   4.453   0.270
 2394SOL    HW1 8416   2.484   4.522   0.202
 2394SOL    HW2 8417   2.382   4.486   0.324
 2395SOL     OW 8418   3.143   4.069   0.944
 2395SOL    HW1 8419   3.057   4.019   0.931
 2395SOL    HW2 8420   3.205   4.015   1.000
 2396SOL     OW 8421   2.669   4.329   1.465
 2396SOL    HW1 8422   2.622   4.326   1.554
 2396SOL    HW2 8423   2.618   4.274   1.399
 2397SOL     OW 8424   3.256   4.193   1.674
 2397SOL    HW1 8425   3.236   4.236   1.762
 2397SOL    HW2 8426   3.334   4.131   1.683
 2398SOL     OW 8427   2.853   4.134   1.242
 2398SOL    HW1 8428   2.776   4.168   1.296
 2398SOL    HW2 8429   2.819   4.083   1.163
 2399SOL     OW 8430   2.903   4.425   0.429
 2399SOL    HW1 8431   2.929   4.421   0.525
 2399SOL    HW2 8432   2.818   4.374   0.415
 2400SOL     OW 8433   1.938   4.535   0.789
 2400SOL    HW1 8434   2.037   4.523   0.798
 2400SOL    HW2 8435   1.914   4.630   0.810
 2401SOL     OW 8436   2.727   4.072   0.195
 2401SOL    HW1 8437   2.786   4.135   0.146
 2401SOL    HW2 8438   2.746   3.978   0.166
 2402SOL     OW 8439   3.581   4.309   1.831
 2402SOL    HW1 8440   3.555   4.398   1.795
 2402SOL    HW2 8441   3.579   4.241   1.758
 2403SOL     OW 8442   2.183   4.667   0.242
 2403SOL    HW1 8443   2.265   4.706   0.200
 2403SOL    HW2 8444   2.156   4.585   0.193
 2404SOL     OW 8445   3.320   4.459   0.728
 2404SOL    HW1 8446   3.315   4.394   0.803
 2404SOL    HW2 8447   3.400   4.518   0.741
 2405SOL     OW 8448   2.244   4.424   0.480
 2405SOL    HW1 8449   2.289   4.334   0.477
 2405SOL    HW2 8450   2.150   4.413   0.513
 2406SOL     OW 8451   3.409   3.946   1.729
 2406SOL    HW1 8452   3.404   3.983   1.821
 2406SOL    HW2 8453   3.337   3.877   1.717
 2407SOL     OW 8454   2.643   3.988   1.749
 2407SOL    HW1 8455   2.710   3.927   1.792
 2407SOL    HW2 8456   2.570   4.007   1.814
 2408SOL     OW 8457   3.213   4.314   1.433
 2408SOL    HW1 8458   3.241   4.271   1.518
 2408SOL    HW2 8459   3.238   4.410   1.434
 2409SOL     OW 8460   2.665   5.126   0.924
 2409SOL    HW1 8461   2.755   5.140   0.882
 2409SOL    HW2 8462   2.594   5.128   0.853
 2410SOL     OW 8463   2.784   4.227   0.899
 2410SOL    HW1 8464   2.759   4.218   0.803
 2410SOL    HW2 8465   2.832   4.145   0.930
 2411SOL     OW 8466   2.159   3.759   0.171
 2411SOL    HW1 8467   2.208   3.843   0.150
 2411SOL    HW2 8468   2.221   3.694   0.216
 2412SOL     OW 8469   2.797   3.960   0.480
 2412SOL    HW1 8470   2.749   4.001   0.402
 2412SOL    HW2 8471   2.896   3.958   0.461
 2413SOL     OW 8472   2.938   4.407   1.464
 2413SOL    HW1 8473   2.858   4.346   1.467
 2413SOL    HW2 8474   3.019   4.354   1.440
 2414SOL     OW 8475   3.089   5.294   0.793
 2414SOL    HW1 8476   3.110   5.368   0.728
 2414SOL    HW2 8477   3.157   5.294   0.866
 2415SOL     OW 8478   2.894   4.273   0.016
 2415SOL    HW1 8479   2.853   4.355  -0.023
 2415SOL    HW2 8480   2.958   4.299   0.089
 2416SOL     OW 8481   1.940   4.280   1.386
 2416SOL    HW1 8482   2.032   4.279   1.345
 2416SOL    HW2 8483   1.934   4.354   1.453
 2417SOL     OW 8484   2.423   3.946   1.147
 2417SOL    HW1 8485   2.461   3.862   1.184
 2417SOL    HW2 8486   2.335   3.965   1.191
 2418SOL     OW 8487   2.879   3.763   0.753
 2418SOL    HW1 8488   2.807   3.768   0.684
 2418SOL    HW2 8489   2.855   3.694   0.822
 2419SOL     OW 8490   3.328   4.314   0.992
 2419SOL    HW1 8491   3.298   4.219   0.999
 2419SOL    HW2 8492   3.401   4.330   1.058
 2420SOL     OW 8493   3.719   4.557   0.377
 2420SOL    HW1 8494   3.761   4.493   0.441
 2420SOL    HW2 8495   3.681   4.506   0.299
 2421SOL     OW 8496   3.252   4.299   0.078
 2421SOL    HW1 8497   3.198   4.278   0.159
 2421SOL    HW2 8498   3.343   4.258   0.087
 2422SOL     OW 8499   2.777   3.813   1.402
 2422SOL    HW1 8500   2.802   3.793   1.307
 2422SOL    HW2 8501   2.849   3.869   1.444
 2423SOL     OW 8502   2.567   4.774   0.368
 2423SOL    HW1 8503   2.553   4.781   0.467
 2423SOL    HW2 8504   2.651   4.723   0.350
 2424SOL     OW 8505   2.272   4.537   1.251
 2424SOL    HW1 8506   2.358   4.549   1.301
 2424SOL    HW2 8507   2.230   4.450   1.278
 2425SOL     OW 8508   3.136   4.110   1.262
 2425SOL    HW1 8509   3.157   4.184   1.326
 2425SOL    HW2 8510   3.047   4.127   1.219
 2426SOL     OW 8511   2.229   4.824   0.501
 2426SOL    HW1 8512   2.222   4.907   0.445
 2426SOL    HW2 8513   2.233   4.744   0.441
 2427SOL     OW 8514   2.428   4.261   0.865
 2427SOL    HW1 8515   2.440   4.327   0.791
 2427SOL    HW2 8516   2.474   4.295   0.948
 2428SOL     OW 8517   3.444   4.363   0.472
 2428SOL    HW1 8518   3.413   4.424   0.545
 2428SOL    HW2 8519   3.494   4.415   0.403
 2429SOL     OW 8520   2.264   4.475   1.598
 2429SOL    HW1 8521   2.332   4.530   1.551
 2429SOL    HW2 8522   2.304   4.387   1.625
 2430SOL     OW 8523   3.449   4.503   1.670
 2430SOL    HW1 8524   3.357   4.541   1.665
 2430SOL    HW2 8525   3.509   4.550   1.605
 2431SOL     OW 8526   2.875   3.829   1.770
 2431SOL    HW1 8527   2.881   3.914   1.718
 2431SOL    HW2 8528   2.907   3.753   1.713
 2432SOL     OW 8529   3.222   4.586   1.045
 2432SOL    HW1 8530   3.147   4.586   0.979
 2432SOL    HW2 8531   3.259   4.494   1.054
 2433SOL     OW 8532   2.169   3.937   1.231
 2433SOL    HW1 8533   2.146   3.974   1.321
 2433SOL    HW2 8534   2.139   3.842   1.225
 2434SOL     OW 8535   2.594   4.358   1.064
 2434SOL    HW1 8536   2.653   4.332   0.988
 2434SOL    HW2 8537   2.566   4.454   1.053
 2435SOL     OW 8538   3.590   4.659   1.854
 2435SOL    HW1 8539   3.544   4.652   1.765
 2435SOL    HW2 8540   3.528   4.703   1.920
 2436SOL     OW 8541   2.885   4.490   0.966
 2436SOL    HW1 8542   2.900   4.511   1.062
 2436SOL    HW2 8543   2.855   4.395   0.957
 2437SOL     OW 8544   3.721   5.242   1.605
 2437SOL    HW1 8545   3.735   5.269   1.510
 2437SOL    HW2 8546   3.804   5.264   1.658
 2438SOL     OW 8547   2.212   4.622   1.804
 2438SOL    HW1 8548   2.288   4.666   1.852
 2438SOL    HW2 8549   2.247   4.575   1.722
 2439SOL     OW 8550   3.402   3.998   0.125
 2439SOL    HW1 8551   3.341   3.923   0.148
 2439SOL    HW2 8552   3.424   4.050   0.208
 2440SOL     OW 8553   3.165   4.562   0.042
 2440SOL    HW1 8554   3.199   4.469   0.057
 2440SOL    HW2 8555   3.183   4.589  -0.053
 2441SOL     OW 8556   2.181   4.534   0.949
 2441SOL    HW1 8557   2.274   4.570   0.954
 2441SOL    HW2 8558   2.175   4.449   1.001
 2442SOL     OW 8559   2.201   4.233   1.006
 2442SOL    HW1 8560   2.149   4.150   0.989
 2442SOL    HW2 8561   2.278   4.238   0.942
 2443SOL     OW 8562   3.000   4.104   1.678
 2443SOL    HW1 8563   2.955   4.167   1.742
 2443SOL    HW2 8564   3.093   4.135   1.661
 2444SOL     OW 8565   3.022   3.931   1.477
 2444SOL    HW1 8566   3.022   3.995   1.554
 2444SOL    HW2 8567   3.050   3.979   1.394
 2445SOL     OW 8568   2.864   4.520   1.238
 2445SOL    HW1 8569   2.905   4.488   1.324
 2445SOL    HW2 8570   2.768   4.493   1.235
 2446SOL     OW 8571   1.902   4.268   1.114
 2446SOL    HW1 8572   1.987   4.235   1.073
 2446SOL    HW2 8573   1.915   4.283   1.212
 2447SOL     OW 8574   2.051   4.244   1.722
 2447SOL    HW1 8575   2.110   4.204   1.652
 2447SOL    HW2 8576   1.993   4.315   1.681
 2448SOL     OW 8577   3.231   4.674   1.660
 2448SOL    HW1 8578   3.270   4.763   1.680
 2448SOL    HW2 8579   3.241   4.654   1.563
 2449SOL     OW 8580   2.677   4.296   0.325
 2449SOL    HW1 8581   2.684   4.207   0.279
 2449SOL    HW2 8582   2.583   4.330   0.317
 2450SOL     OW 8583   3.519   4.328   1.206
 2450SOL    HW1 8584   3.481   4.259   1.268
 2450SOL    HW2 8585   3.601   4.292   1.162
 2451SOL     OW 8586   2.533   4.188   1.269
 2451SOL    HW1 8587   2.499   4.099   1.239
 2451SOL    HW2 8588   2.559   4.242   1.189
 2452SOL     OW 8589   2.335   4.224   0.191
 2452SOL    HW1 8590   2.396   4.304   0.195
 2452SOL    HW2 8591   2.240   4.255   0.198
 2453SOL     OW 8592   2.021   4.861   1.466
 2453SOL    HW1 8593   2.043   4.800   1.542
 2453SOL    HW2 8594   2.031   4.812   1.380
 2454SOL     OW 8595   3.209   4.783   1.234
 2454SOL    HW1 8596   3.233   4.720   1.160
 2454SOL    HW2 8597   3.119   4.823   1.216
 2455SOL     OW 8598   3.164   4.579   0.309
 2455SOL    HW1 8599   3.078   4.548   0.351
 2455SOL    HW2 8600   3.160   4.565   0.210
 2456SOL     OW 8601   1.945   4.982   1.022
 2456SOL    HW1 8602   1.940   4.981   1.122
 2456SOL    HW2 8603   1.862   4.941   0.984
 2457SOL     OW 8604   2.765   3.810   0.133
 2457SOL    HW1 8605   2.816   3.811   0.047
 2457SOL    HW2 8606   2.821   3.768   0.204
 2458SOL     OW 8607   3.142   4.651   0.672
 2458SOL    HW1 8608   3.202   4.570   0.674
 2458SOL    HW2 8609   3.182   4.720   0.612
 2459SOL     OW 8610   2.692   4.997   1.422
 2459SOL    HW1 8611   2.687   5.030   1.517
 2459SOL    HW2 8612   2.606   5.016   1.376
 2460SOL     OW 8613   2.125   4.050   0.720
 2460SOL    HW1 8614   2.046   4.101   0.686
 2460SOL    HW2 8615   2.116   4.035   0.818
 2461SOL     OW 8616   2.778   4.634   0.291
 2461SOL    HW1 8617   2.841   4.672   0.223
 2461SOL    HW2 8618   2.818   4.551   0.330
 2462SOL     OW 8619   2.901   4.822   0.696
 2462SOL    HW1 8620   2.831   4.775   0.750
 2462SOL    HW2 8621   2.960   4.754   0.653
 2463SOL     OW 8622   3.571   4.109   1.381
 2463SOL    HW1 8623   3.644   4.178   1.385
 2463SOL    HW2 8624   3.599   4.034   1.322
 2464SOL     OW 8625   1.967   4.737   1.726
 2464SOL    HW1 8626   1.890   4.704   1.780
 2464SOL    HW2 8627   2.052   4.707   1.768
 2465SOL     OW 8628   2.534   3.927   1.489
 2465SOL    HW1 8629   2.624   3.911   1.449
 2465SOL    HW2 8630   2.542   3.932   1.588
 2466SOL     OW 8631   1.934   3.890   0.318
 2466SOL    HW1 8632   1.917   3.973   0.264
 2466SOL    HW2 8633   2.024   3.853   0.296
 2467SOL     OW 8634   2.475   4.566   1.431
 2467SOL    HW1 8635   2.531   4.647   1.414
 2467SOL    HW2 8636   2.534   4.486   1.434
 2468SOL     OW 8637   2.578   4.289   1.708
 2468SOL    HW1 8638   2.597   4.354   1.782
 2468SOL    HW2 8639   2.638   4.209   1.717
 2469SOL     OW 8640   2.456   4.469   0.652
 2469SOL    HW1 8641   2.506   4.554   0.633
 2469SOL    HW2 8642   2.368   4.471   0.604
 2470SOL     OW 8643   3.639   4.066   1.642
 2470SOL    HW1 8644   3.622   4.097   1.548
 2470SOL    HW2 8645   3.555   4.029   1.680
 2471SOL     OW 8646   2.721   4.680   0.861
 2471SOL    HW1 8647   2.775   4.611   0.909
 2471SOL    HW2 8648   2.689   4.749   0.927
 2472SOL     OW 8649   2.945   4.708   0.087
 2472SOL    HW1 8650   2.922   4.761   0.005
 2472SOL    HW2 8651   3.026   4.652   0.068
 2473SOL     OW 8652   3.686   3.916   1.227
 2473SOL    HW1 8653   3.682   3.826   1.271
 2473SOL    HW2 8654   3.689   3.905   1.128
 2474SOL     OW 8655   2.179   4.271   1.280
 2474SOL    HW1 8656   2.217   4.212   1.352
 2474SOL    HW2 8657   2.219   4.245   1.192
 2475SOL     OW 8658   2.863   3.758   1.154
 2475SOL    HW1 8659   2.800   3.686   1.123
 2475SOL    HW2 8660   2.956   3.722   1.154
 2476SOL     OW 8661   2.632   5.054   0.301
 2476SOL    HW1 8662   2.586   4.967   0.318
 2476SOL    HW2 8663   2.723   5.051   0.342
 2477SOL     OW 8664   3.214   3.776   0.168
 2477SOL    HW1 8665   3.249   3.735   0.084
 2477SOL    HW2 8666   3.124   3.738   0.188
 2478SOL     OW 8667   3.162   4.177   0.691
 2478SOL    HW1 8668   3.103   4.257   0.695
 2478SOL    HW2 8669   3.177   4.142   0.784
 2479SOL     OW 8670   1.901   4.801   0.300
 2479SOL    HW1 8671   2.000   4.790   0.291
 2479SOL    HW2 8672   1.861   4.715   0.332
 2480SOL     OW 8673   2.092   4.352   1.975
 2480SOL    HW1 8674   1.999   4.350   2.012
 2480SOL    HW2 8675   2.093   4.313   1.883
 2481SOL     OW 8676   2.087   3.999   2.858
 2481SOL    HW1 8677   2.122   3.982   2.950
 2481SOL    HW2 8678   1.999   3.954   2.846
 2482SOL     OW 8679   1.881   4.092   2.509
 2482SOL    HW1 8680   1.799   4.135   2.548
 2482SOL    HW2 8681   1.853   4.019   2.446
 2483SOL     OW 8682   2.431   4.999   3.027
 2483SOL    HW1 8683   2.338   4.992   2.990
 2483SOL    HW2 8684   2.442   5.088   3.071
 2484SOL     OW 8685   3.417   5.235   2.565
 2484SOL    HW1 8686   3.360   5.219   2.646
 2484SOL    HW2 8687   3.358   5.245   2.485
 2485SOL     OW 8688   2.997   4.427   2.579
 2485SOL    HW1 8689   3.054   4.505   2.554
 2485SOL    HW2 8690   2.937   4.453   2.655
 2486SOL     OW 8691   3.617   4.331   2.093
 2486SOL    HW1 8692   3.605   4.318   1.994
 2486SOL    HW2 8693   3.587   4.250   2.142
 2487SOL     OW 8694   2.630   4.868   2.885
 2487SOL    HW1 8695   2.552   4.885   2.945
 2487SOL    HW2 8696   2.664   4.955   2.849
 2488SOL     OW 8697   2.547   4.736   2.527
 2488SOL    HW1 8698   2.616   4.720   2.597
 2488SOL    HW2 8699   2.474   4.793   2.565
 2489SOL     OW 8700   2.548   4.885   3.665
 2489SOL    HW1 8701   2.608   4.964   3.679
 2489SOL    HW2 8702   2.462   4.916   3.624
 2490SOL     OW 8703   2.197   5.159   2.923
 2490SOL    HW1 8704   2.119   5.128   2.870
 2490SOL    HW2 8705   2.255   5.217   2.866
 2491SOL     OW 8706   2.300   4.116   3.361
 2491SOL    HW1 8707   2.382   4.060   3.370
 2491SOL    HW2 8708   2.219   4.058   3.365
 2492SOL     OW 8709   3.465   4.171   2.599
 2492SOL    HW1 8710   3.391   4.217   2.549
 2492SOL    HW2 8711   3.516   4.239   2.652
 2493SOL     OW 8712   2.102   4.815   2.748
 2493SOL    HW1 8713   2.116   4.731   2.800
 2493SOL    HW2 8714   2.047   4.879   2.803
 2494SOL     OW 8715   3.456   3.838   3.342
 2494SOL    HW1 8716   3.438   3.905   3.270
 2494SOL    HW2 8717   3.453   3.884   3.431
 2495SOL     OW 8718   1.984   4.367   2.425
 2495SOL    HW1 8719   1.939   4.279   2.442
 2495SOL    HW2 8720   1.983   4.421   2.509
 2496SOL     OW 8721   3.551   4.646   2.474
 2496SOL    HW1 8722   3.646   4.617   2.482
 2496SOL    HW2 8723   3.543   4.711   2.399
 2497SOL     OW 8724   3.503   4.832   2.294
 2497SOL    HW1 8725   3.589   4.834   2.242
 2497SOL    HW2 8726   3.517   4.879   2.382
 2498SOL     OW 8727   1.975   4.461   3.459
 2498SOL    HW1 8728   2.063   4.448   3.504
 2498SOL    HW2 8729   1.962   4.558   3.437
 2499SOL     OW 8730   3.155   4.952   3.285
 2499SOL    HW1 8731   3.192   4.879   3.227
 2499SOL    HW2 8732   3.207   4.957   3.370
 2500SOL     OW 8733   2.671   3.728   2.364
 2500SOL    HW1 8734   2.711   3.819   2.355
 2500SOL    HW2 8735   2.571   3.736   2.370
 2501SOL     OW 8736   2.059   4.700   3.126
 2501SOL    HW1 8737   2.148   4.655   3.112
 2501SOL    HW2 8738   1.986   4.635   3.107
 2502SOL     OW 8739   3.387   4.723   2.052
 2502SOL    HW1 8740   3.324   4.647   2.065
 2502SOL    HW2 8741   3.435   4.741   2.138
 2503SOL     OW 8742   2.179   3.975   3.663
 2503SOL    HW1 8743   2.250   4.046   3.669
 2503SOL    HW2 8744   2.091   4.014   3.691
 2504SOL     OW 8745   3.328   5.141   2.815
 2504SOL    HW1 8746   3.269   5.147   2.895
 2504SOL    HW2 8747   3.313   5.053   2.769
 2505SOL     OW 8748   2.460   4.453   2.132
 2505SOL    HW1 8749   2.484   4.522   2.064
 2505SOL    HW2 8750   2.382   4.486   2.186
 2506SOL     OW 8751   3.143   4.069   2.806
 2506SOL    HW1 8752   3.057   4.019   2.793
 2506SOL    HW2 8753   3.205   4.015   2.862
 2507SOL     OW 8754   2.669   4.329   3.327
 2507SOL    HW1 8755   2.622   4.326   3.416
 2507SOL    HW2 8756   2.618   4.274   3.261
 2508SOL     OW 8757   3.256   4.193   3.536
 2508SOL    HW1 8758   3.236   4.236   3.624
 2508SOL    HW2 8759   3.334   4.131   3.545
 2509SOL     OW 8760   2.853   4.134   3.104
 2509SOL    HW1 8761   2.776   4.168   3.158
 2509SOL    HW2 8762   2.819   4.083   3.025
 2510SOL     OW 8763   2.903   4.425   2.291
 2510SOL    HW1 8764   2.929   4.421   2.387
 2510SOL    HW2 8765   2.818   4.374   2.277
 2511SOL     OW 8766   1.938   4.535   2.651
 2511SOL    HW1 8767   2.037   4.523   2.660
 2511SOL    HW2 8768   1.914   4.630   2.672
 2512SOL     OW 8769   2.727   4.072   2.057
 2512SOL    HW1 8770   2.786   4.135   2.008
 2512SOL    HW2 8771   2.746   3.978   2.028
 2513SOL     OW 8772   3.581   4.309   3.693
 2513SOL    HW1 8773   3.555   4.398   3.657
 2513SOL    HW2 8774   3.579   4.241   3.620
 2514SOL     OW 8775   3.224   4.868   2.407
 2514SOL    HW1 8776   3.307   4.839   2.359
 2514SOL    HW2 8777   3.175   4.935   2.351
 2515SOL     OW 8778   2.412   3.920   2.747
 2515SOL    HW1 8779   2.407   3.915   2.847
 2515SOL    HW2 8780   2.414   4.016   2.718
 2516SOL     OW 8781   3.657   4.790   2.735
 2516SOL    HW1 8782   3.595   4.775   2.659
 2516SOL    HW2 8783   3.605   4.801   2.820
 2517SOL     OW 8784   2.183   4.667   2.104
 2517SOL    HW1 8785   2.265   4.706   2.062
 2517SOL    HW2 8786   2.156   4.585   2.055
 2518SOL     OW 8787   3.320   4.459   2.590
 2518SOL    HW1 8788   3.315   4.394   2.665
 2518SOL    HW2 8789   3.400   4.518   2.603
 2519SOL     OW 8790   2.064   4.009   3.360
 2519SOL    HW1 8791   1.984   4.069   3.347
 2519SOL    HW2 8792   2.054   3.960   3.446
 2520SOL     OW 8793   3.494   5.101   1.943
 2520SOL    HW1 8794   3.462   5.195   1.933
 2520SOL    HW2 8795   3.418   5.038   1.931
 2521SOL     OW 8796   2.244   4.424   2.342
 2521SOL    HW1 8797   2.289   4.334   2.339
 2521SOL    HW2 8798   2.150   4.413   2.375
 2522SOL     OW 8799   3.409   3.946   3.591
 2522SOL    HW1 8800   3.404   3.983   3.683
 2522SOL    HW2 8801   3.337   3.877   3.579
 2523SOL     OW 8802   2.643   3.988   3.611
 2523SOL    HW1 8803   2.710   3.927   3.654
 2523SOL    HW2 8804   2.570   4.007   3.676
 2524SOL     OW 8805   2.665   5.126   2.786
 2524SOL    HW1 8806   2.755   5.140   2.744
 2524SOL    HW2 8807   2.594   5.128   2.715
 2525SOL     OW 8808   2.784   4.227   2.761
 2525SOL    HW1 8809   2.759   4.218   2.665
 2525SOL    HW2 8810   2.832   4.145   2.792
 2526SOL     OW 8811   2.401   3.788   2.374
 2526SOL    HW1 8812   2.320   3.789   2.432
 2526SOL    HW2 8813   2.404   3.871   2.319
 2527SOL     OW 8814   3.296   4.912   1.903
 2527SOL    HW1 8815   3.328   4.836   1.960
 2527SOL    HW2 8816   3.204   4.939   1.933
 2528SOL     OW 8817   2.797   3.960   2.342
 2528SOL    HW1 8818   2.749   4.001   2.264
 2528SOL    HW2 8819   2.896   3.958   2.323
 2529SOL     OW 8820   3.089   5.294   2.655
 2529SOL    HW1 8821   3.110   5.368   2.590
 2529SOL    HW2 8822   3.157   5.294   2.728
 2530SOL     OW 8823   2.321   4.876   2.603
 2530SOL    HW1 8824   2.250   4.849   2.668
 2530SOL    HW2 8825   2.295   4.848   2.510
 2531SOL     OW 8826   2.894   4.273   1.878
 2531SOL    HW1 8827   2.853   4.355   1.839
 2531SOL    HW2 8828   2.958   4.299   1.951
 2532SOL     OW 8829   1.940   4.280   3.248
 2532SOL    HW1 8830   2.032   4.279   3.207
 2532SOL    HW2 8831   1.934   4.354   3.315
 2533SOL     OW 8832   2.423   3.946   3.009
 2533SOL    HW1 8833   2.461   3.862   3.046
 2533SOL    HW2 8834   2.335   3.965   3.053
 2534SOL     OW 8835   2.728   4.178   2.504
 2534SOL    HW1 8836   2.696   4.250   2.442
 2534SOL    HW2 8837   2.752   4.097   2.451
 2535SOL     OW 8838   2.879   3.763   2.615
 2535SOL    HW1 8839   2.807   3.768   2.546
 2535SOL    HW2 8840   2.855   3.694   2.684
 2536SOL     OW 8841   3.291   4.897   2.729
 2536SOL    HW1 8842   3.236   4.813   2.722
 2536SOL    HW2 8843   3.317   4.926   2.637
 2537SOL     OW 8844   3.328   4.314   2.854
 2537SOL    HW1 8845   3.298   4.219   2.861
 2537SOL    HW2 8846   3.401   4.330   2.920
 2538SOL     OW 8847   3.719   4.557   2.239
 2538SOL    HW1 8848   3.761   4.493   2.303
 2538SOL    HW2 8849   3.681   4.506   2.161
 2539SOL     OW 8850   3.526   5.004   2.519
 2539SOL    HW1 8851   3.625   5.012   2.533
 2539SOL    HW2 8852   3.481   5.088   2.550
 2540SOL     OW 8853   3.252   4.299   1.940
 2540SOL    HW1 8854   3.198   4.278   2.021
 2540SOL    HW2 8855   3.343   4.258   1.949
 2541SOL     OW 8856   3.616   4.947   3.450
 2541SOL    HW1 8857   3.707   4.908   3.437
 2541SOL    HW2 8858   3.624   5.043   3.474
 2542SOL     OW 8859   3.500   4.823   2.941
 2542SOL    HW1 8860   3.505   4.904   3.000
 2542SOL    HW2 8861   3.414   4.825   2.890
 2543SOL     OW 8862   2.777   3.813   3.264
 2543SOL    HW1 8863   2.802   3.793   3.169
 2543SOL    HW2 8864   2.849   3.869   3.306
 2544SOL     OW 8865   2.842   4.840   3.581
 2544SOL    HW1 8866   2.743   4.846   3.591
 2544SOL    HW2 8867   2.865   4.760   3.525
 2545SOL     OW 8868   2.567   4.774   2.230
 2545SOL    HW1 8869   2.553   4.781   2.329
 2545SOL    HW2 8870   2.651   4.723   2.212
 2546SOL     OW 8871   2.272   4.537   3.113
 2546SOL    HW1 8872   2.358   4.549   3.163
 2546SOL    HW2 8873   2.230   4.450   3.140
 2547SOL     OW 8874   3.136   4.110   3.124
 2547SOL    HW1 8875   3.157   4.184   3.188
 2547SOL    HW2 8876   3.047   4.127   3.081
 2548SOL     OW 8877   2.229   4.824   2.363
 2548SOL    HW1 8878   2.222   4.907   2.307
 2548SOL    HW2 8879   2.233   4.744   2.303
 2549SOL     OW 8880   2.428   4.261   2.727
 2549SOL    HW1 8881   2.440   4.327   2.653
 2549SOL    HW2 8882   2.474   4.295   2.810
 2550SOL     OW 8883   3.444   4.363   2.334
 2550SOL    HW1 8884   3.413   4.424   2.407
 2550SOL    HW2 8885   3.494   4.415   2.265
 2551SOL     OW 8886   2.264   4.475   3.460
 2551SOL    HW1 8887   2.332   4.530   3.413
 2551SOL    HW2 8888   2.304   4.387   3.487
 2552SOL     OW 8889   3.449   4.503   3.532
 2552SOL    HW1 8890   3.357   4.541   3.527
 2552SOL    HW2 8891   3.509   4.550   3.467
 2553SOL     OW 8892   2.875   3.829   3.632
 2553SOL    HW1 8893   2.881   3.914   3.580
 2553SOL    HW2 8894   2.907   3.753   3.575
 2554SOL     OW 8895   2.366   3.774   3.602
 2554SOL    HW1 8896   2.324   3.717   3.532
 2554SOL    HW2 8897   2.300   3.843   3.634
 2555SOL     OW 8898   2.435   4.594   2.891
 2555SOL    HW1 8899   2.479   4.683   2.882
 2555SOL    HW2 8900   2.372   4.594   2.968
 2556SOL     OW 8901   3.071   4.249   2.137
 2556SOL    HW1 8902   3.084   4.165   2.191
 2556SOL    HW2 8903   3.042   4.323   2.197
 2557SOL     OW 8904   2.169   3.937   3.093
 2557SOL    HW1 8905   2.146   3.974   3.183
 2557SOL    HW2 8906   2.139   3.842   3.087
 2558SOL     OW 8907   2.594   4.358   2.926
 2558SOL    HW1 8908   2.653   4.332   2.850
 2558SOL    HW2 8909   2.566   4.454   2.915
 2559SOL     OW 8910   3.590   4.659   3.716
 2559SOL    HW1 8911   3.544   4.652   3.627
 2559SOL    HW2 8912   3.528   4.703   3.782
 2560SOL     OW 8913   3.484   4.091   2.236
 2560SOL    HW1 8914   3.486   4.015   2.300
 2560SOL    HW2 8915   3.436   4.168   2.276
 2561SOL     OW 8916   3.721   5.242   3.467
 2561SOL    HW1 8917   3.735   5.269   3.372
 2561SOL    HW2 8918   3.804   5.264   3.520
 2562SOL     OW 8919   2.212   4.622   3.666
 2562SOL    HW1 8920   2.288   4.666   3.714
 2562SOL    HW2 8921   2.247   4.575   3.584
 2563SOL     OW 8922   3.402   3.998   1.987
 2563SOL    HW1 8923   3.341   3.923   2.010
 2563SOL    HW2 8924   3.424   4.050   2.070
 2564SOL     OW 8925   3.165   4.562   1.904
 2564SOL    HW1 8926   3.199   4.469   1.919
 2564SOL    HW2 8927   3.183   4.589   1.809
 2565SOL     OW 8928   2.181   4.534   2.811
 2565SOL    HW1 8929   2.274   4.570   2.816
 2565SOL    HW2 8930   2.175   4.449   2.863
 2566SOL     OW 8931   2.201   4.233   2.868
 2566SOL    HW1 8932   2.149   4.150   2.851
 2566SOL    HW2 8933   2.278   4.238   2.804
 2567SOL     OW 8934   3.000   4.104   3.540
 2567SOL    HW1 8935   2.955   4.167   3.604
 2567SOL    HW2 8936   3.093   4.135   3.523
 2568SOL     OW 8937   3.022   3.931   3.339
 2568SOL    HW1 8938   3.022   3.995   3.416
 2568SOL    HW2 8939   3.050   3.979   3.256
 2569SOL     OW 8940   1.870   5.050   2.062
 2569SOL    HW1 8941   1.777   5.071   2.031
 2569SOL    HW2 8942   1.880   4.951   2.075
 2570SOL     OW 8943   1.902   4.268   2.976
 2570SOL    HW1 8944   1.987   4.235   2.935
 2570SOL    HW2 8945   1.915   4.283   3.074
 2571SOL     OW 8946   2.051   4.244   3.584
 2571SOL    HW1 8947   2.110   4.204   3.514
 2571SOL    HW2 8948   1.993   4.315   3.543
 2572SOL     OW 8949   3.231   4.674   3.522
 2572SOL    HW1 8950   3.270   4.763   3.542
 2572SOL    HW2 8951   3.241   4.654   3.425
 2573SOL     OW 8952   2.677   4.296   2.187
 2573SOL    HW1 8953   2.684   4.207   2.141
 2573SOL    HW2 8954   2.583   4.330   2.179
 2574SOL     OW 8955   3.519   4.328   3.068
 2574SOL    HW1 8956   3.481   4.259   3.130
 2574SOL    HW2 8957   3.601   4.292   3.024
 2575SOL     OW 8958   2.533   4.188   3.131
 2575SOL    HW1 8959   2.499   4.099   3.101
 2575SOL    HW2 8960   2.559   4.242   3.051
 2576SOL     OW 8961   2.335   4.224   2.053
 2576SOL    HW1 8962   2.396   4.304   2.057
 2576SOL    HW2 8963   2.240   4.255   2.060
 2577SOL     OW 8964   2.021   4.861   3.328
 2577SOL    HW1 8965   2.043   4.800   3.404
 2577SOL    HW2 8966   2.031   4.812   3.242
 2578SOL     OW 8967   3.164   4.579   2.171
 2578SOL    HW1 8968   3.078   4.548   2.213
 2578SOL    HW2 8969   3.160   4.565   2.072
 2579SOL     OW 8970   1.945   4.982   2.884
 2579SOL    HW1 8971   1.940   4.981   2.984
 2579SOL    HW2 8972   1.862   4.941   2.846
 2580SOL     OW 8973   3.588   3.859   2.385
 2580SOL    HW1 8974   3.661   3.842   2.318
 2580SOL    HW2 8975   3.557   3.772   2.423
 2581SOL     OW 8976   3.142   4.651   2.534
 2581SOL    HW1 8977   3.202   4.570   2.536
 2581SOL    HW2 8978   3.182   4.720   2.474
 2582SOL     OW 8979   2.692   4.997   3.284
 2582SOL    HW1 8980   2.687   5.030   3.379
 2582SOL    HW2 8981   2.606   5.016   3.238
 2583SOL     OW 8982   3.703   3.899   2.825
 2583SOL    HW1 8983   3.742   3.814   2.789
 2583SOL    HW2 8984   3.605   3.901   2.806
 2584SOL     OW 8985   2.125   4.050   2.582
 2584SOL    HW1 8986   2.046   4.101   2.548
 2584SOL    HW2 8987   2.116   4.035   2.680
 2585SOL     OW 8988   3.056   5.336   1.893
 2585SOL    HW1 8989   3.062   5.243   1.930
 2585SOL    HW2 8990   2.997   5.336   1.813
 2586SOL     OW 8991   2.684   4.726   3.234
 2586SOL    HW1 8992   2.724   4.725   3.142
 2586SOL    HW2 8993   2.694   4.818   3.274
 2587SOL     OW 8994   2.234   5.012   3.352
 2587SOL    HW1 8995   2.221   5.105   3.318
 2587SOL    HW2 8996   2.150   4.960   3.339
 2588SOL     OW 8997   3.476   5.016   3.151
 2588SOL    HW1 8998   3.536   5.019   3.231
 2588SOL    HW2 8999   3.401   5.080   3.164
 2589SOL     OW 9000   2.901   4.822   2.558
 2589SOL    HW1 9001   2.831   4.775   2.612
 2589SOL    HW2 9002   2.960   4.754   2.515
 2590SOL     OW 9003   2.876   3.960   2.833
 2590SOL    HW1 9004   2.868   3.924   2.740
 2590SOL    HW2 9005   2.874   3.884   2.898
 2591SOL     OW 9006   3.571   4.109   3.243
 2591SOL    HW1 9007   3.644   4.178   3.247
 2591SOL    HW2 9008   3.599   4.034   3.184
 2592SOL     OW 9009   1.967   4.737   3.588
 2592SOL    HW1 9010   1.890   4.704   3.642
 2592SOL    HW2 9011   2.052   4.707   3.630
 2593SOL     OW 9012   2.534   3.927   3.351
 2593SOL    HW1 9013   2.624   3.911   3.311
 2593SOL    HW2 9014   2.542   3.932   3.450
 2594SOL     OW 9015   1.937   4.069   1.895
 2594SOL    HW1 9016   1.845   4.041   1.866
 2594SOL    HW2 9017   1.968   4.146   1.839
 2595SOL     OW 9018   2.475   4.566   3.293
 2595SOL    HW1 9019   2.531   4.647   3.276
 2595SOL    HW2 9020   2.534   4.486   3.296
 2596SOL     OW 9021   3.312   4.944   3.495
 2596SOL    HW1 9022   3.303   4.934   3.594
 2596SOL    HW2 9023   3.408   4.937   3.469
 2597SOL     OW 9024   3.087   4.049   2.311
 2597SOL    HW1 9025   3.152   3.975   2.300
 2597SOL    HW2 9026   3.107   4.099   2.395
 2598SOL     OW 9027   2.456   4.469   2.514
 2598SOL    HW1 9028   2.506   4.554   2.495
 2598SOL    HW2 9029   2.368   4.471   2.466
 2599SOL     OW 9030   3.639   4.066   3.504
 2599SOL    HW1 9031   3.622   4.097   3.410
 2599SOL    HW2 9032   3.555   4.029   3.542
 2600SOL     OW 9033   2.721   4.680   2.723
 2600SOL    HW1 9034   2.775   4.611   2.771
 2600SOL    HW2 9035   2.689   4.749   2.789
 2601SOL     OW 9036   1.941   4.964   2.515
 2601SOL    HW1 9037   1.940   4.917   2.603
 2601SOL    HW2 9038   2.023   4.936   2.464
 2602SOL     OW 9039   3.686   3.916   3.089
 2602SOL    HW1 9040   3.682   3.826   3.133
 2602SOL    HW2 9041   3.689   3.905   2.990
 2603SOL     OW 9042   2.290   4.148   2.382
 2603SOL    HW1 9043   2.320   4.076   2.320
 2603SOL    HW2 9044   2.251   4.108   2.465
 2604SOL     OW 9045   2.179   4.271   3.142
 2604SOL    HW1 9046   2.217   4.212   3.214
 2604SOL    HW2 9047   2.219   4.245   3.054
 2605SOL     OW 9048   3.286   3.938   2.974
 2605SOL    HW1 9049   3.338   3.873   3.029
 2605SOL    HW2 9050   3.237   4.001   3.035
 2606SOL     OW 9051   2.863   3.758   3.016
 2606SOL    HW1 9052   2.800   3.686   2.985
 2606SOL    HW2 9053   2.956   3.722   3.016
 2607SOL     OW 9054   2.632   5.054   2.163
 2607SOL    HW1 9055   2.586   4.967   2.180
 2607SOL    HW2 9056   2.723   5.051   2.204
 2608SOL     OW 9057   3.162   4.177   2.553
 2608SOL    HW1 9058   3.103   4.257   2.557
 2608SOL    HW2 9059   3.177   4.142   2.646
 2609SOL     OW 9060   3.455   3.945   2.744
 2609SOL    HW1 9061   3.371   3.944   2.798
 2609SOL    HW2 9062   3.457   4.028   2.688
 2610SOL     OW 9063   1.901   4.801   2.162
 2610SOL    HW1 9064   2.000   4.790   2.153
 2610SOL    HW2 9065   1.861   4.715   2.194
 2611SOL     OW 9066   2.092   4.352   3.837
 2611SOL    HW1 9067   1.999   4.350   3.874
 2611SOL    HW2 9068   2.093   4.313   3.745
 2612SOL     OW 9069   1.881   4.092   4.371
 2612SOL    HW1 9070   1.799   4.135   4.410
 2612SOL    HW2 9071   1.853   4.019   4.308
 2613SOL     OW 9072   2.431   4.999   4.889
 2613SOL    HW1 9073   2.338   4.992   4.852
 2613SOL    HW2 9074   2.442   5.088   4.933
 2614SOL     OW 9075   3.417   5.235   4.427
 2614SOL    HW1 9076   3.360   5.219   4.508
 2614SOL    HW2 9077   3.358   5.245   4.347
 2615SOL     OW 9078   2.997   4.427   4.441
 2615SOL    HW1 9079   3.054   4.505   4.416
 2615SOL    HW2 9080   2.937   4.453   4.517
 2616SOL     OW 9081   3.617   4.331   3.955
 2616SOL    HW1 9082   3.605   4.318   3.856
 2616SOL    HW2 9083   3.587   4.250   4.004
 2617SOL     OW 9084   2.630   4.868   4.747
 2617SOL    HW1 9085   2.552   4.885   4.807
 2617SOL    HW2 9086   2.664   4.955   4.711
 2618SOL     OW 9087   2.197   5.159   4.785
 2618SOL    HW1 9088   2.119   5.128   4.732
 2618SOL    HW2 9089   2.255   5.217   4.728
 2619SOL     OW 9090   3.465   4.171   4.461
 2619SOL    HW1 9091   3.391   4.217   4.411
 2619SOL    HW2 9092   3.516   4.239   4.514
 2620SOL     OW 9093   2.102   4.815   4.610
 2620SOL    HW1 9094   2.116   4.731   4.662
 2620SOL    HW2 9095   2.047   4.879   4.665
 2621SOL     OW 9096   2.468   4.688   3.847
 2621SOL    HW1 9097   2.475   4.772   3.793
 2621SOL    HW2 9098   2.514   4.701   3.935
 2622SOL     OW 9099   1.984   4.367   4.287
 2622SOL    HW1 9100   1.939   4.279   4.304
 2622SOL    HW2 9101   1.983   4.421   4.371
 2623SOL     OW 9102   3.551   4.646   4.336
 2623SOL    HW1 9103   3.646   4.617   4.344
 2623SOL    HW2 9104   3.543   4.711   4.261
 2624SOL     OW 9105   3.503   4.832   4.156
 2624SOL    HW1 9106   3.589   4.834   4.104
 2624SOL    HW2 9107   3.517   4.879   4.244
 2625SOL     OW 9108   2.671   3.728   4.226
 2625SOL    HW1 9109   2.711   3.819   4.217
 2625SOL    HW2 9110   2.571   3.736   4.232
 2626SOL     OW 9111   2.059   4.700   4.988
 2626SOL    HW1 9112   2.148   4.655   4.974
 2626SOL    HW2 9113   1.986   4.635   4.969
 2627SOL     OW 9114   3.387   4.723   3.914
 2627SOL    HW1 9115   3.324   4.647   3.927
 2627SOL    HW2 9116   3.435   4.741   4.000
 2628SOL     OW 9117   2.460   4.453   3.994
 2628SOL    HW1 9118   2.484   4.522   3.926
 2628SOL    HW2 9119   2.382   4.486   4.048
 2629SOL     OW 9120   3.143   4.069   4.668
 2629SOL    HW1 9121   3.057   4.019   4.655
 2629SOL    HW2 9122   3.205   4.015   4.724
 2630SOL     OW 9123   2.853   4.134   4.966
 2630SOL    HW1 9124   2.776   4.168   5.020
 2630SOL    HW2 9125   2.819   4.083   4.887
 2631SOL     OW 9126   2.903   4.425   4.153
 2631SOL    HW1 9127   2.929   4.421   4.249
 2631SOL    HW2 9128   2.818   4.374   4.139
 2632SOL     OW 9129   1.938   4.535   4.513
 2632SOL    HW1 9130   2.037   4.523   4.522
 2632SOL    HW2 9131   1.914   4.630   4.534
 2633SOL     OW 9132   2.727   4.072   3.919
 2633SOL    HW1 9133   2.786   4.135   3.870
 2633SOL    HW2 9134   2.746   3.978   3.890
 2634SOL     OW 9135   3.224   4.868   4.269
 2634SOL    HW1 9136   3.307   4.839   4.221
 2634SOL    HW2 9137   3.175   4.935   4.213
 2635SOL     OW 9138   3.657   4.790   4.597
 2635SOL    HW1 9139   3.595   4.775   4.521
 2635SOL    HW2 9140   3.605   4.801   4.682
 2636SOL     OW 9141   2.183   4.667   3.966
 2636SOL    HW1 9142   2.265   4.706   3.924
 2636SOL    HW2 9143   2.156   4.585   3.917
 2637SOL     OW 9144   3.320   4.459   4.452
 2637SOL    HW1 9145   3.315   4.394   4.527
 2637SOL    HW2 9146   3.400   4.518   4.465
 2638SOL     OW 9147   3.494   5.101   3.805
 2638SOL    HW1 9148   3.462   5.195   3.795
 2638SOL    HW2 9149   3.418   5.038   3.793
 2639SOL     OW 9150   3.262   3.831   4.150
 2639SOL    HW1 9151   3.238   3.794   4.060
 2639SOL    HW2 9152   3.361   3.847   4.154
 2640SOL     OW 9153   2.244   4.424   4.204
 2640SOL    HW1 9154   2.289   4.334   4.201
 2640SOL    HW2 9155   2.150   4.413   4.237
 2641SOL     OW 9156   2.476   3.846   3.841
 2641SOL    HW1 9157   2.574   3.824   3.848
 2641SOL    HW2 9158   2.445   3.829   3.748
 2642SOL     OW 9159   2.665   5.126   4.648
 2642SOL    HW1 9160   2.755   5.140   4.606
 2642SOL    HW2 9161   2.594   5.128   4.577
 2643SOL     OW 9162   2.784   4.227   4.623
 2643SOL    HW1 9163   2.759   4.218   4.527
 2643SOL    HW2 9164   2.832   4.145   4.654
 2644SOL     OW 9165   3.296   4.912   3.765
 2644SOL    HW1 9166   3.328   4.836   3.822
 2644SOL    HW2 9167   3.204   4.939   3.795
 2645SOL     OW 9168   2.159   3.759   3.895
 2645SOL    HW1 9169   2.208   3.843   3.874
 2645SOL    HW2 9170   2.221   3.694   3.940
 2646SOL     OW 9171   2.797   3.960   4.204
 2646SOL    HW1 9172   2.749   4.001   4.126
 2646SOL    HW2 9173   2.896   3.958   4.185
 2647SOL     OW 9174   3.089   5.294   4.517
 2647SOL    HW1 9175   3.110   5.368   4.452
 2647SOL    HW2 9176   3.157   5.294   4.590
 2648SOL     OW 9177   2.321   4.876   4.465
 2648SOL    HW1 9178   2.250   4.849   4.530
 2648SOL    HW2 9179   2.295   4.848   4.372
 2649SOL     OW 9180   2.423   3.946   4.871
 2649SOL    HW1 9181   2.461   3.862   4.908
 2649SOL    HW2 9182   2.335   3.965   4.915
 2650SOL     OW 9183   2.728   4.178   4.366
 2650SOL    HW1 9184   2.696   4.250   4.304
 2650SOL    HW2 9185   2.752   4.097   4.313
 2651SOL     OW 9186   2.879   3.763   4.477
 2651SOL    HW1 9187   2.807   3.768   4.408
 2651SOL    HW2 9188   2.855   3.694   4.546
 2652SOL     OW 9189   3.291   4.897   4.591
 2652SOL    HW1 9190   3.236   4.813   4.584
 2652SOL    HW2 9191   3.317   4.926   4.499
 2653SOL     OW 9192   3.328   4.314   4.716
 2653SOL    HW1 9193   3.298   4.219   4.723
 2653SOL    HW2 9194   3.401   4.330   4.782
 2654SOL     OW 9195   3.719   4.557   4.101
 2654SOL    HW1 9196   3.761   4.493   4.165
 2654SOL    HW2 9197   3.681   4.506   4.023
 2655SOL     OW 9198   3.526   5.004   4.381
 2655SOL    HW1 9199   3.625   5.012   4.395
 2655SOL    HW2 9200   3.481   5.088   4.412
 2656SOL     OW 9201   3.252   4.299   3.802
 2656SOL    HW1 9202   3.198   4.278   3.883
 2656SOL    HW2 9203   3.343   4.258   3.811
 2657SOL     OW 9204   2.389   3.980   4.052
 2657SOL    HW1 9205   2.416   3.921   3.977
 2657SOL    HW2 9206   2.389   4.075   4.021
 2658SOL     OW 9207   2.272   4.537   4.975
 2658SOL    HW1 9208   2.358   4.549   5.025
 2658SOL    HW2 9209   2.230   4.450   5.002
 2659SOL     OW 9210   3.136   4.110   4.986
 2659SOL    HW1 9211   3.157   4.184   5.050
 2659SOL    HW2 9212   3.047   4.127   4.943
 2660SOL     OW 9213   2.229   4.824   4.225
 2660SOL    HW1 9214   2.222   4.907   4.169
 2660SOL    HW2 9215   2.233   4.744   4.165
 2661SOL     OW 9216   2.428   4.261   4.589
 2661SOL    HW1 9217   2.440   4.327   4.515
 2661SOL    HW2 9218   2.474   4.295   4.672
 2662SOL     OW 9219   3.444   4.363   4.196
 2662SOL    HW1 9220   3.413   4.424   4.269
 2662SOL    HW2 9221   3.494   4.415   4.127
 2663SOL     OW 9222   2.435   4.594   4.753
 2663SOL    HW1 9223   2.479   4.683   4.744
 2663SOL    HW2 9224   2.372   4.594   4.830
 2664SOL     OW 9225   3.071   4.249   3.999
 2664SOL    HW1 9226   3.084   4.165   4.053
 2664SOL    HW2 9227   3.042   4.323   4.059
 2665SOL     OW 9228   2.169   3.937   4.955
 2665SOL    HW1 9229   2.146   3.974   5.045
 2665SOL    HW2 9230   2.139   3.842   4.949
 2666SOL     OW 9231   2.594   4.358   4.788
 2666SOL    HW1 9232   2.653   4.332   4.712
 2666SOL    HW2 9233   2.566   4.454   4.777
 2667SOL     OW 9234   3.484   4.091   4.098
 2667SOL    HW1 9235   3.486   4.015   4.162
 2667SOL    HW2 9236   3.436   4.168   4.138
 2668SOL     OW 9237   2.885   4.490   4.690
 2668SOL    HW1 9238   2.900   4.511   4.786
 2668SOL    HW2 9239   2.855   4.395   4.681
 2669SOL     OW 9240   3.402   3.998   3.849
 2669SOL    HW1 9241   3.341   3.923   3.872
 2669SOL    HW2 9242   3.424   4.050   3.932
 2670SOL     OW 9243   2.181   4.534   4.673
 2670SOL    HW1 9244   2.274   4.570   4.678
 2670SOL    HW2 9245   2.175   4.449   4.725
 2671SOL     OW 9246   2.201   4.233   4.730
 2671SOL    HW1 9247   2.149   4.150   4.713
 2671SOL    HW2 9248   2.278   4.238   4.666
 2672SOL     OW 9249   3.022   3.931   5.201
 2672SOL    HW1 9250   3.022   3.995   5.278
 2672SOL    HW2 9251   3.050   3.979   5.118
 2673SOL     OW 9252   1.870   5.050   3.924
 2673SOL    HW1 9253   1.777   5.071   3.893
 2673SOL    HW2 9254   1.880   4.951   3.937
 2674SOL     OW 9255   2.864   4.520   4.962
 2674SOL    HW1 9256   2.905   4.488   5.048
 2674SOL    HW2 9257   2.768   4.493   4.959
 2675SOL     OW 9258   1.902   4.268   4.838
 2675SOL    HW1 9259   1.987   4.235   4.797
 2675SOL    HW2 9260   1.915   4.283   4.936
 2676SOL     OW 9261   2.677   4.296   4.049
 2676SOL    HW1 9262   2.684   4.207   4.003
 2676SOL    HW2 9263   2.583   4.330   4.041
 2677SOL     OW 9264   3.519   4.328   4.930
 2677SOL    HW1 9265   3.481   4.259   4.992
 2677SOL    HW2 9266   3.601   4.292   4.886
 2678SOL     OW 9267   2.533   4.188   4.993
 2678SOL    HW1 9268   2.499   4.099   4.963
 2678SOL    HW2 9269   2.559   4.242   4.913
 2679SOL     OW 9270   2.335   4.224   3.915
 2679SOL    HW1 9271   2.396   4.304   3.919
 2679SOL    HW2 9272   2.240   4.255   3.922
 2680SOL     OW 9273   3.164   4.579   4.033
 2680SOL    HW1 9274   3.078   4.548   4.075
 2680SOL    HW2 9275   3.160   4.565   3.934
 2681SOL     OW 9276   1.945   4.982   4.746
 2681SOL    HW1 9277   1.940   4.981   4.846
 2681SOL    HW2 9278   1.862   4.941   4.708
 2682SOL     OW 9279   3.588   3.859   4.247
 2682SOL    HW1 9280   3.661   3.842   4.180
 2682SOL    HW2 9281   3.557   3.772   4.285
 2683SOL     OW 9282   3.142   4.651   4.396
 2683SOL    HW1 9283   3.202   4.570   4.398
 2683SOL    HW2 9284   3.182   4.720   4.336
 2684SOL     OW 9285   2.692   4.997   5.146
 2684SOL    HW1 9286   2.687   5.030   5.241
 2684SOL    HW2 9287   2.606   5.016   5.100
 2685SOL     OW 9288   3.703   3.899   4.687
 2685SOL    HW1 9289   3.742   3.814   4.651
 2685SOL    HW2 9290   3.605   3.901   4.668
 2686SOL     OW 9291   2.125   4.050   4.444
 2686SOL    HW1 9292   2.046   4.101   4.410
 2686SOL    HW2 9293   2.116   4.035   4.542
 2687SOL     OW 9294   3.056   5.336   3.755
 2687SOL    HW1 9295   3.062   5.243   3.792
 2687SOL    HW2 9296   2.997   5.336   3.675
 2688SOL     OW 9297   2.684   4.726   5.096
 2688SOL    HW1 9298   2.724   4.725   5.004
 2688SOL    HW2 9299   2.694   4.818   5.136
 2689SOL     OW 9300   2.778   4.634   4.015
 2689SOL    HW1 9301   2.841   4.672   3.947
 2689SOL    HW2 9302   2.818   4.551   4.054
 2690SOL     OW 9303   2.901   4.822   4.420
 2690SOL    HW1 9304   2.831   4.775   4.474
 2690SOL    HW2 9305   2.960   4.754   4.377
 2691SOL     OW 9306   2.876   3.960   4.695
 2691SOL    HW1 9307   2.868   3.924   4.602
 2691SOL    HW2 9308   2.874   3.884   4.760
 2692SOL     OW 9309   3.571   4.109   5.105
 2692SOL    HW1 9310   3.644   4.178   5.109
 2692SOL    HW2 9311   3.599   4.034   5.046
 2693SOL     OW 9312   1.937   4.069   3.757
 2693SOL    HW1 9313   1.845   4.041   3.728
 2693SOL    HW2 9314   1.968   4.146   3.701
 2694SOL     OW 9315   1.934   3.890   4.042
 2694SOL    HW1 9316   1.917   3.973   3.988
 2694SOL    HW2 9317   2.024   3.853   4.020
 2695SOL     OW 9318   3.087   4.049   4.173
 2695SOL    HW1 9319   3.152   3.975   4.162
 2695SOL    HW2 9320   3.107   4.099   4.257
 2696SOL     OW 9321   2.456   4.469   4.376
 2696SOL    HW1 9322   2.506   4.554   4.357
 2696SOL    HW2 9323   2.368   4.471   4.328
 2697SOL     OW 9324   2.721   4.680   4.585
 2697SOL    HW1 9325   2.775   4.611   4.633
 2697SOL    HW2 9326   2.689   4.749   4.651
 2698SOL     OW 9327   2.945   4.708   3.811
 2698SOL    HW1 9328   2.922   4.761   3.729
 2698SOL    HW2 9329   3.026   4.652   3.792
 2699SOL     OW 9330   1.941   4.964   4.377
 2699SOL    HW1 9331   1.940   4.917   4.465
 2699SOL    HW2 9332   2.023   4.936   4.326
 2700SOL     OW 9333   2.290   4.148   4.244
 2700SOL    HW1 9334   2.320   4.076   4.182
 2700SOL    HW2 9335   2.251   4.108   4.327
 2701SOL     OW 9336   3.286   3.938   4.836
 2701SOL    HW1 9337   3.338   3.873   4.891
 2701SOL    HW2 9338   3.237   4.001   4.897
 2702SOL     OW 9339   2.863   3.758   4.878
 2702SOL    HW1 9340   2.800   3.686   4.847
 2702SOL    HW2 9341   2.956   3.722   4.878
 2703SOL     OW 9342   3.162   4.177   4.415
 2703SOL    HW1 9343   3.103   4.257   4.419
 2703SOL    HW2 9344   3.177   4.142   4.508
 2704SOL     OW 9345   3.455   3.945   4.606
 2704SOL    HW1 9346   3.371   3.944   4.660
 2704SOL    HW2 9347   3.457   4.028   4.550
 2705SOL     OW 9348   1.901   4.801   4.024
 2705SOL    HW1 9349   2.000   4.790   4.015
 2705SOL    HW2 9350   1.861   4.715   4.056
 2706SOL     OW 9351   3.954   0.628   0.113
 2706SOL    HW1 9352   3.861   0.626   0.150
 2706SOL    HW2 9353   3.955   0.589   0.021
 2707SOL     OW 9354   3.949   0.275   0.996
 2707SOL    HW1 9355   3.984   0.258   1.088
 2707SOL    HW2 9356   3.861   0.230   0.984
 2708SOL     OW 9357   3.743   0.368   0.647
 2708SOL    HW1 9358   3.661   0.411   0.686
 2708SOL    HW2 9359   3.715   0.295   0.584
 2709SOL     OW 9360   4.293   1.275   1.165
 2709SOL    HW1 9361   4.200   1.268   1.128
 2709SOL    HW2 9362   4.304   1.364   1.209
 2710SOL     OW 9363   4.492   1.144   1.023
 2710SOL    HW1 9364   4.414   1.161   1.083
 2710SOL    HW2 9365   4.526   1.231   0.987
 2711SOL     OW 9366   4.574   0.798   1.823
 2711SOL    HW1 9367   4.570   0.874   1.888
 2711SOL    HW2 9368   4.596   0.834   1.732
 2712SOL     OW 9369   4.409   1.012   0.665
 2712SOL    HW1 9370   4.478   0.996   0.735
 2712SOL    HW2 9371   4.336   1.069   0.703
 2713SOL     OW 9372   4.410   1.161   1.803
 2713SOL    HW1 9373   4.470   1.240   1.817
 2713SOL    HW2 9374   4.324   1.192   1.762
 2714SOL     OW 9375   4.059   1.435   1.061
 2714SOL    HW1 9376   3.981   1.404   1.008
 2714SOL    HW2 9377   4.117   1.493   1.004
 2715SOL     OW 9378   4.162   0.392   1.499
 2715SOL    HW1 9379   4.244   0.336   1.508
 2715SOL    HW2 9380   4.081   0.334   1.503
 2716SOL     OW 9381   3.955   1.713   0.483
 2716SOL    HW1 9382   3.989   1.790   0.537
 2716SOL    HW2 9383   3.999   1.713   0.393
 2717SOL     OW 9384   4.851   1.341   1.690
 2717SOL    HW1 9385   4.898   1.341   1.778
 2717SOL    HW2 9386   4.803   1.254   1.679
 2718SOL     OW 9387   3.954   1.434   0.538
 2718SOL    HW1 9388   3.928   1.530   0.538
 2718SOL    HW2 9389   3.883   1.380   0.583
 2719SOL     OW 9390   3.964   1.091   0.886
 2719SOL    HW1 9391   3.978   1.007   0.938
 2719SOL    HW2 9392   3.909   1.155   0.941
 2720SOL     OW 9393   4.344   1.786   1.439
 2720SOL    HW1 9394   4.252   1.769   1.474
 2720SOL    HW2 9395   4.372   1.878   1.465
 2721SOL     OW 9396   4.330   0.964   0.123
 2721SOL    HW1 9397   4.337   1.048   0.069
 2721SOL    HW2 9398   4.376   0.977   0.211
 2722SOL     OW 9399   3.846   0.643   0.563
 2722SOL    HW1 9400   3.801   0.555   0.580
 2722SOL    HW2 9401   3.845   0.697   0.647
 2723SOL     OW 9402   3.751   1.596   0.117
 2723SOL    HW1 9403   3.732   1.500   0.138
 2723SOL    HW2 9404   3.718   1.654   0.192
 2724SOL     OW 9405   3.837   0.737   1.597
 2724SOL    HW1 9406   3.925   0.724   1.642
 2724SOL    HW2 9407   3.824   0.834   1.575
 2725SOL     OW 9408   4.337   1.365   0.726
 2725SOL    HW1 9409   4.288   1.278   0.735
 2725SOL    HW2 9410   4.314   1.408   0.639
 2726SOL     OW 9411   5.017   1.228   1.423
 2726SOL    HW1 9412   5.054   1.155   1.365
 2726SOL    HW2 9413   5.069   1.233   1.508
 2727SOL     OW 9414   4.533   0.004   0.502
 2727SOL    HW1 9415   4.573   0.095   0.493
 2727SOL    HW2 9416   4.433   0.012   0.508
 2728SOL     OW 9417   3.921   0.976   1.264
 2728SOL    HW1 9418   4.010   0.931   1.250
 2728SOL    HW2 9419   3.848   0.911   1.245
 2729SOL     OW 9420   4.911   1.792   1.616
 2729SOL    HW1 9421   4.935   1.852   1.540
 2729SOL    HW2 9422   4.918   1.697   1.586
 2730SOL     OW 9423   4.041   0.251   1.801
 2730SOL    HW1 9424   4.112   0.322   1.807
 2730SOL    HW2 9425   3.953   0.290   1.829
 2731SOL     OW 9426   5.005   0.345   0.944
 2731SOL    HW1 9427   4.919   0.295   0.931
 2731SOL    HW2 9428   5.067   0.291   1.000
 2732SOL     OW 9429   4.531   0.605   1.465
 2732SOL    HW1 9430   4.484   0.602   1.554
 2732SOL    HW2 9431   4.480   0.550   1.399
 2733SOL     OW 9432   4.697   0.890   1.572
 2733SOL    HW1 9433   4.743   0.806   1.543
 2733SOL    HW2 9434   4.641   0.924   1.497
 2734SOL     OW 9435   4.715   0.410   1.242
 2734SOL    HW1 9436   4.638   0.444   1.296
 2734SOL    HW2 9437   4.681   0.359   1.163
 2735SOL     OW 9438   4.765   0.701   0.429
 2735SOL    HW1 9439   4.791   0.697   0.525
 2735SOL    HW2 9440   4.680   0.650   0.415
 2736SOL     OW 9441   3.800   0.811   0.789
 2736SOL    HW1 9442   3.899   0.799   0.798
 2736SOL    HW2 9443   3.776   0.906   0.810
 2737SOL     OW 9444   3.854   1.821   1.571
 2737SOL    HW1 9445   3.844   1.806   1.670
 2737SOL    HW2 9446   3.768   1.857   1.535
 2738SOL     OW 9447   4.732   1.456   0.477
 2738SOL    HW1 9448   4.686   1.528   0.425
 2738SOL    HW2 9449   4.728   1.476   0.575
 2739SOL     OW 9450   4.075   1.801   0.853
 2739SOL    HW1 9451   4.125   1.715   0.859
 2739SOL    HW2 9452   4.140   1.878   0.850
 2740SOL     OW 9453   4.951   1.550   1.506
 2740SOL    HW1 9454   4.957   1.473   1.570
 2740SOL    HW2 9455   4.899   1.524   1.426
 2741SOL     OW 9456   4.185   1.266   1.727
 2741SOL    HW1 9457   4.135   1.267   1.641
 2741SOL    HW2 9458   4.122   1.248   1.803
 2742SOL     OW 9459   4.835   1.776   0.237
 2742SOL    HW1 9460   4.775   1.714   0.287
 2742SOL    HW2 9461   4.866   1.732   0.152
 2743SOL     OW 9462   3.926   0.285   1.498
 2743SOL    HW1 9463   3.846   0.345   1.485
 2743SOL    HW2 9464   3.916   0.236   1.584
 2744SOL     OW 9465   5.356   1.377   0.081
 2744SOL    HW1 9466   5.324   1.471   0.071
 2744SOL    HW2 9467   5.280   1.314   0.069
 2745SOL     OW 9468   4.188   1.743   0.323
 2745SOL    HW1 9469   4.221   1.782   0.409
 2745SOL    HW2 9470   4.264   1.736   0.258
 2746SOL     OW 9471   3.973   1.785   1.241
 2746SOL    HW1 9472   4.030   1.720   1.291
 2746SOL    HW2 9473   3.957   1.752   1.148
 2747SOL     OW 9474   4.664   1.698   0.904
 2747SOL    HW1 9475   4.744   1.641   0.925
 2747SOL    HW2 9476   4.615   1.658   0.827
 2748SOL     OW 9477   4.338   0.122   0.117
 2748SOL    HW1 9478   4.436   0.100   0.124
 2748SOL    HW2 9479   4.307   0.105   0.024
 2749SOL     OW 9480   4.505   0.264   1.749
 2749SOL    HW1 9481   4.572   0.203   1.792
 2749SOL    HW2 9482   4.432   0.283   1.814
 2750SOL     OW 9483   4.612   1.514   1.195
 2750SOL    HW1 9484   4.589   1.489   1.101
 2750SOL    HW2 9485   4.673   1.445   1.234
 2751SOL     OW 9486   4.527   1.402   0.924
 2751SOL    HW1 9487   4.617   1.416   0.882
 2751SOL    HW2 9488   4.456   1.404   0.853
 2752SOL     OW 9489   4.021   0.035   0.171
 2752SOL    HW1 9490   4.070   0.119   0.150
 2752SOL    HW2 9491   4.083  -0.030   0.216
 2753SOL     OW 9492   4.659   0.236   0.480
 2753SOL    HW1 9493   4.611   0.277   0.402
 2753SOL    HW2 9494   4.758   0.234   0.461
 2754SOL     OW 9495   4.800   0.683   1.464
 2754SOL    HW1 9496   4.720   0.622   1.467
 2754SOL    HW2 9497   4.881   0.630   1.440
 2755SOL     OW 9498   4.951   1.570   0.793
 2755SOL    HW1 9499   4.972   1.644   0.728
 2755SOL    HW2 9500   5.019   1.570   0.866
 2756SOL     OW 9501   4.183   1.152   0.741
 2756SOL    HW1 9502   4.112   1.125   0.806
 2756SOL    HW2 9503   4.157   1.124   0.648
 2757SOL     OW 9504   4.995   1.797   0.591
 2757SOL    HW1 9505   5.039   1.861   0.527
 2757SOL    HW2 9506   4.945   1.849   0.661
 2758SOL     OW 9507   3.802   0.556   1.386
 2758SOL    HW1 9508   3.894   0.555   1.345
 2758SOL    HW2 9509   3.796   0.630   1.453
 2759SOL     OW 9510   4.285   0.222   1.147
 2759SOL    HW1 9511   4.323   0.138   1.184
 2759SOL    HW2 9512   4.197   0.241   1.191
 2760SOL     OW 9513   4.741   0.039   0.753
 2760SOL    HW1 9514   4.669   0.044   0.684
 2760SOL    HW2 9515   4.717  -0.030   0.822
 2761SOL     OW 9516   4.212   1.385   0.174
 2761SOL    HW1 9517   4.125   1.370   0.221
 2761SOL    HW2 9518   4.195   1.411   0.079
 2762SOL     OW 9519   5.388   1.280   0.657
 2762SOL    HW1 9520   5.487   1.288   0.671
 2762SOL    HW2 9521   5.343   1.364   0.688
 2763SOL     OW 9522   4.788   1.347   1.340
 2763SOL    HW1 9523   4.708   1.324   1.395
 2763SOL    HW2 9524   4.871   1.321   1.389
 2764SOL     OW 9525   4.835   1.195   1.100
 2764SOL    HW1 9526   4.795   1.239   1.181
 2764SOL    HW2 9527   4.794   1.232   1.017
 2765SOL     OW 9528   4.639   0.089   1.402
 2765SOL    HW1 9529   4.664   0.069   1.307
 2765SOL    HW2 9530   4.711   0.145   1.444
 2766SOL     OW 9531   4.704   1.116   1.719
 2766SOL    HW1 9532   4.605   1.122   1.729
 2766SOL    HW2 9533   4.727   1.036   1.663
 2767SOL     OW 9534   4.429   1.050   0.368
 2767SOL    HW1 9535   4.415   1.057   0.467
 2767SOL    HW2 9536   4.513   0.999   0.350
 2768SOL     OW 9537   4.134   0.813   1.251
 2768SOL    HW1 9538   4.220   0.825   1.301
 2768SOL    HW2 9539   4.092   0.726   1.278
 2769SOL     OW 9540   4.998   0.386   1.262
 2769SOL    HW1 9541   5.019   0.460   1.326
 2769SOL    HW2 9542   4.909   0.403   1.219
 2770SOL     OW 9543   3.788   1.564   1.331
 2770SOL    HW1 9544   3.742   1.646   1.297
 2770SOL    HW2 9545   3.886   1.583   1.340
 2771SOL     OW 9546   4.091   1.100   0.501
 2771SOL    HW1 9547   4.084   1.183   0.445
 2771SOL    HW2 9548   4.095   1.020   0.441
 2772SOL     OW 9549   4.290   0.537   0.865
 2772SOL    HW1 9550   4.302   0.603   0.791
 2772SOL    HW2 9551   4.336   0.571   0.948
 2773SOL     OW 9552   4.976   1.348   0.388
 2773SOL    HW1 9553   5.026   1.425   0.428
 2773SOL    HW2 9554   4.881   1.350   0.420
 2774SOL     OW 9555   4.078   1.510   1.329
 2774SOL    HW1 9556   4.057   1.466   1.242
 2774SOL    HW2 9557   4.175   1.536   1.332
 2775SOL     OW 9558   4.126   0.751   1.598
 2775SOL    HW1 9559   4.194   0.806   1.551
 2775SOL    HW2 9560   4.166   0.663   1.625
 2776SOL     OW 9561   4.737   0.105   1.770
 2776SOL    HW1 9562   4.743   0.190   1.718
 2776SOL    HW2 9563   4.769   0.029   1.713
 2777SOL     OW 9564   4.228   0.050   1.740
 2777SOL    HW1 9565   4.186  -0.007   1.670
 2777SOL    HW2 9566   4.162   0.119   1.772
 2778SOL     OW 9567   4.297   0.870   1.029
 2778SOL    HW1 9568   4.341   0.959   1.020
 2778SOL    HW2 9569   4.234   0.870   1.106
 2779SOL     OW 9570   5.084   0.862   1.045
 2779SOL    HW1 9571   5.009   0.862   0.979
 2779SOL    HW2 9572   5.121   0.770   1.054
 2780SOL     OW 9573   4.933   0.525   0.275
 2780SOL    HW1 9574   4.946   0.441   0.329
 2780SOL    HW2 9575   4.904   0.599   0.335
 2781SOL     OW 9576   4.031   0.213   1.231
 2781SOL    HW1 9577   4.008   0.250   1.321
 2781SOL    HW2 9578   4.001   0.118   1.225
 2782SOL     OW 9579   3.761   1.310   1.282
 2782SOL    HW1 9580   3.814   1.261   1.350
 2782SOL    HW2 9581   3.783   1.408   1.287
 2783SOL     OW 9582   4.456   0.634   1.064
 2783SOL    HW1 9583   4.515   0.608   0.988
 2783SOL    HW2 9584   4.428   0.730   1.053
 2784SOL     OW 9585   4.031   0.063   0.618
 2784SOL    HW1 9586   4.020   0.157   0.651
 2784SOL    HW2 9587   4.026   0.000   0.695
 2785SOL     OW 9588   4.704   1.573   1.700
 2785SOL    HW1 9589   4.684   1.617   1.612
 2785SOL    HW2 9590   4.743   1.482   1.684
 2786SOL     OW 9591   4.074   0.898   1.804
 2786SOL    HW1 9592   4.150   0.942   1.852
 2786SOL    HW2 9593   4.109   0.851   1.722
 2787SOL     OW 9594   5.027   0.838   0.042
 2787SOL    HW1 9595   5.061   0.745   0.057
 2787SOL    HW2 9596   5.045   0.865  -0.053
 2788SOL     OW 9597   4.792   1.333   0.849
 2788SOL    HW1 9598   4.799   1.249   0.794
 2788SOL    HW2 9599   4.854   1.402   0.813
 2789SOL     OW 9600   4.043   0.810   0.949
 2789SOL    HW1 9601   4.136   0.846   0.954
 2789SOL    HW2 9602   4.037   0.725   1.001
 2790SOL     OW 9603   4.063   0.509   1.006
 2790SOL    HW1 9604   4.011   0.426   0.989
 2790SOL    HW2 9605   4.140   0.514   0.942
 2791SOL     OW 9606   4.862   0.380   1.678
 2791SOL    HW1 9607   4.817   0.443   1.742
 2791SOL    HW2 9608   4.955   0.411   1.661
 2792SOL     OW 9609   4.884   0.207   1.477
 2792SOL    HW1 9610   4.884   0.271   1.554
 2792SOL    HW2 9611   4.912   0.255   1.394
 2793SOL     OW 9612   3.812   1.801   0.927
 2793SOL    HW1 9613   3.770   1.715   0.900
 2793SOL    HW2 9614   3.906   1.804   0.893
 2794SOL     OW 9615   4.228   1.568   0.910
 2794SOL    HW1 9616   4.294   1.642   0.919
 2794SOL    HW2 9617   4.272   1.489   0.868
 2795SOL     OW 9618   4.726   0.796   1.238
 2795SOL    HW1 9619   4.767   0.764   1.324
 2795SOL    HW2 9620   4.630   0.769   1.235
 2796SOL     OW 9621   3.764   0.544   1.114
 2796SOL    HW1 9622   3.849   0.511   1.073
 2796SOL    HW2 9623   3.777   0.559   1.212
 2797SOL     OW 9624   3.913   0.520   1.722
 2797SOL    HW1 9625   3.972   0.480   1.652
 2797SOL    HW2 9626   3.855   0.591   1.681
 2798SOL     OW 9627   3.976   1.564   1.744
 2798SOL    HW1 9628   3.946   1.621   1.820
 2798SOL    HW2 9629   3.969   1.467   1.770
 2799SOL     OW 9630   4.395   0.464   1.269
 2799SOL    HW1 9631   4.361   0.375   1.239
 2799SOL    HW2 9632   4.421   0.518   1.189
 2800SOL     OW 9633   4.654   1.678   1.465
 2800SOL    HW1 9634   4.630   1.660   1.370
 2800SOL    HW2 9635   4.684   1.772   1.475
 2801SOL     OW 9636   3.883   1.137   1.466
 2801SOL    HW1 9637   3.905   1.076   1.542
 2801SOL    HW2 9638   3.893   1.088   1.380
 2802SOL     OW 9639   5.071   1.059   1.234
 2802SOL    HW1 9640   5.095   0.996   1.160
 2802SOL    HW2 9641   4.981   1.099   1.216
 2803SOL     OW 9642   4.976   1.731   1.128
 2803SOL    HW1 9643   5.060   1.736   1.074
 2803SOL    HW2 9644   4.953   1.635   1.146
 2804SOL     OW 9645   3.807   1.258   1.022
 2804SOL    HW1 9646   3.802   1.257   1.122
 2804SOL    HW2 9647   3.724   1.217   0.984
 2805SOL     OW 9648   4.412   1.662   1.716
 2805SOL    HW1 9649   4.356   1.743   1.725
 2805SOL    HW2 9650   4.464   1.666   1.630
 2806SOL     OW 9651   4.627   0.086   0.133
 2806SOL    HW1 9652   4.678   0.087   0.047
 2806SOL    HW2 9653   4.683   0.044   0.204
 2807SOL     OW 9654   5.112   1.573   0.477
 2807SOL    HW1 9655   5.179   1.585   0.403
 2807SOL    HW2 9656   5.072   1.662   0.500
 2808SOL     OW 9657   3.854   1.794   1.851
 2808SOL    HW1 9658   3.813   1.720   1.904
 2808SOL    HW2 9659   3.918   1.845   1.909
 2809SOL     OW 9660   4.554   1.273   1.422
 2809SOL    HW1 9661   4.549   1.306   1.517
 2809SOL    HW2 9662   4.468   1.292   1.376
 2810SOL     OW 9663   3.987   0.326   0.720
 2810SOL    HW1 9664   3.908   0.377   0.686
 2810SOL    HW2 9665   3.978   0.311   0.818
 2811SOL     OW 9666   4.918   1.612   0.031
 2811SOL    HW1 9667   4.924   1.519   0.068
 2811SOL    HW2 9668   4.859   1.612  -0.049
 2812SOL     OW 9669   4.546   1.002   1.372
 2812SOL    HW1 9670   4.586   1.001   1.280
 2812SOL    HW2 9671   4.556   1.094   1.412
 2813SOL     OW 9672   4.640   0.910   0.291
 2813SOL    HW1 9673   4.703   0.948   0.223
 2813SOL    HW2 9674   4.680   0.827   0.330
 2814SOL     OW 9675   4.096   1.288   1.490
 2814SOL    HW1 9676   4.083   1.381   1.456
 2814SOL    HW2 9677   4.012   1.236   1.477
 2815SOL     OW 9678   4.763   1.098   0.696
 2815SOL    HW1 9679   4.693   1.051   0.750
 2815SOL    HW2 9680   4.822   1.030   0.653
 2816SOL     OW 9681   4.738   0.236   0.971
 2816SOL    HW1 9682   4.730   0.200   0.878
 2816SOL    HW2 9683   4.736   0.160   1.036
 2817SOL     OW 9684   4.314   1.487   0.491
 2817SOL    HW1 9685   4.356   1.429   0.421
 2817SOL    HW2 9686   4.270   1.566   0.447
 2818SOL     OW 9687   3.979   1.348   0.290
 2818SOL    HW1 9688   3.883   1.349   0.263
 2818SOL    HW2 9689   3.991   1.401   0.374
 2819SOL     OW 9690   3.829   1.013   1.726
 2819SOL    HW1 9691   3.752   0.980   1.780
 2819SOL    HW2 9692   3.914   0.983   1.768
 2820SOL     OW 9693   4.396   0.203   1.489
 2820SOL    HW1 9694   4.486   0.187   1.449
 2820SOL    HW2 9695   4.404   0.208   1.588
 2821SOL     OW 9696   5.164   0.856   1.398
 2821SOL    HW1 9697   5.107   0.908   1.335
 2821SOL    HW2 9698   5.260   0.868   1.374
 2822SOL     OW 9699   3.796   0.166   0.318
 2822SOL    HW1 9700   3.779   0.249   0.264
 2822SOL    HW2 9701   3.886   0.129   0.296
 2823SOL     OW 9702   4.337   0.842   1.431
 2823SOL    HW1 9703   4.393   0.923   1.414
 2823SOL    HW2 9704   4.396   0.762   1.434
 2824SOL     OW 9705   4.440   0.565   1.708
 2824SOL    HW1 9706   4.459   0.630   1.782
 2824SOL    HW2 9707   4.500   0.485   1.717
 2825SOL     OW 9708   4.114   1.741   1.560
 2825SOL    HW1 9709   4.023   1.782   1.558
 2825SOL    HW2 9710   4.107   1.647   1.592
 2826SOL     OW 9711   4.583   1.374   0.016
 2826SOL    HW1 9712   4.537   1.389   0.104
 2826SOL    HW2 9713   4.627   1.459  -0.014
 2827SOL     OW 9714   4.385   1.790   0.953
 2827SOL    HW1 9715   4.339   1.878   0.940
 2827SOL    HW2 9716   4.484   1.802   0.946
 2828SOL     OW 9717   4.583   0.956   0.861
 2828SOL    HW1 9718   4.637   0.887   0.909
 2828SOL    HW2 9719   4.551   1.025   0.927
 2829SOL     OW 9720   4.807   0.984   0.087
 2829SOL    HW1 9721   4.784   1.037   0.005
 2829SOL    HW2 9722   4.888   0.928   0.068
 2830SOL     OW 9723   3.945   1.314   1.844
 2830SOL    HW1 9724   3.880   1.241   1.823
 2830SOL    HW2 9725   3.949   1.328   1.942
 2831SOL     OW 9726   3.803   1.240   0.653
 2831SOL    HW1 9727   3.802   1.193   0.741
 2831SOL    HW2 9728   3.885   1.212   0.602
 2832SOL     OW 9729   4.396   1.391   1.624
 2832SOL    HW1 9730   4.318   1.341   1.662
 2832SOL    HW2 9731   4.393   1.486   1.655
 2833SOL     OW 9732   4.041   0.547   1.280
 2833SOL    HW1 9733   4.079   0.488   1.352
 2833SOL    HW2 9734   4.081   0.521   1.192
 2834SOL     OW 9735   4.536   1.586   0.687
 2834SOL    HW1 9736   4.568   1.596   0.593
 2834SOL    HW2 9737   4.457   1.524   0.689
 2835SOL     OW 9738   4.725   0.034   1.154
 2835SOL    HW1 9739   4.662  -0.038   1.123
 2835SOL    HW2 9740   4.818  -0.002   1.154
 2836SOL     OW 9741   4.494   1.330   0.301
 2836SOL    HW1 9742   4.448   1.243   0.318
 2836SOL    HW2 9743   4.585   1.327   0.342
 2837SOL     OW 9744   4.342   1.567   1.284
 2837SOL    HW1 9745   4.337   1.649   1.341
 2837SOL    HW2 9746   4.431   1.564   1.239
 2838SOL     OW 9747   4.599   1.646   0.337
 2838SOL    HW1 9748   4.522   1.611   0.283
 2838SOL    HW2 9749   4.567   1.717   0.399
 2839SOL     OW 9750   3.954   0.628   1.975
 2839SOL    HW1 9751   3.861   0.626   2.012
 2839SOL    HW2 9752   3.955   0.589   1.883
 2840SOL     OW 9753   3.949   0.275   2.858
 2840SOL    HW1 9754   3.984   0.258   2.950
 2840SOL    HW2 9755   3.861   0.230   2.846
 2841SOL     OW 9756   3.743   0.368   2.509
 2841SOL    HW1 9757   3.661   0.411   2.548
 2841SOL    HW2 9758   3.715   0.295   2.446
 2842SOL     OW 9759   4.293   1.275   3.027
 2842SOL    HW1 9760   4.200   1.268   2.990
 2842SOL    HW2 9761   4.304   1.364   3.071
 2843SOL     OW 9762   4.859   0.703   2.579
 2843SOL    HW1 9763   4.916   0.781   2.554
 2843SOL    HW2 9764   4.799   0.729   2.655
 2844SOL     OW 9765   4.492   1.144   2.885
 2844SOL    HW1 9766   4.414   1.161   2.945
 2844SOL    HW2 9767   4.526   1.231   2.849
 2845SOL     OW 9768   4.574   0.798   3.685
 2845SOL    HW1 9769   4.570   0.874   3.750
 2845SOL    HW2 9770   4.596   0.834   3.594
 2846SOL     OW 9771   4.409   1.012   2.527
 2846SOL    HW1 9772   4.478   0.996   2.597
 2846SOL    HW2 9773   4.336   1.069   2.565
 2847SOL     OW 9774   4.410   1.161   3.665
 2847SOL    HW1 9775   4.470   1.240   3.679
 2847SOL    HW2 9776   4.324   1.192   3.624
 2848SOL     OW 9777   4.059   1.435   2.923
 2848SOL    HW1 9778   3.981   1.404   2.870
 2848SOL    HW2 9779   4.117   1.493   2.866
 2849SOL     OW 9780   4.162   0.392   3.361
 2849SOL    HW1 9781   4.244   0.336   3.370
 2849SOL    HW2 9782   4.081   0.334   3.365
 2850SOL     OW 9783   3.955   1.713   2.345
 2850SOL    HW1 9784   3.989   1.790   2.399
 2850SOL    HW2 9785   3.999   1.713   2.255
 2851SOL     OW 9786   4.851   1.341   3.552
 2851SOL    HW1 9787   4.898   1.341   3.640
 2851SOL    HW2 9788   4.803   1.254   3.541
 2852SOL     OW 9789   3.954   1.434   2.400
 2852SOL    HW1 9790   3.928   1.530   2.400
 2852SOL    HW2 9791   3.883   1.380   2.445
 2853SOL     OW 9792   3.964   1.091   2.748
 2853SOL    HW1 9793   3.978   1.007   2.800
 2853SOL    HW2 9794   3.909   1.155   2.803
 2854SOL     OW 9795   4.344   1.786   3.301
 2854SOL    HW1 9796   4.252   1.769   3.336
 2854SOL    HW2 9797   4.372   1.878   3.327
 2855SOL     OW 9798   4.330   0.964   1.985
 2855SOL    HW1 9799   4.337   1.048   1.931
 2855SOL    HW2 9800   4.376   0.977   2.073
 2856SOL     OW 9801   3.846   0.643   2.425
 2856SOL    HW1 9802   3.801   0.555   2.442
 2856SOL    HW2 9803   3.845   0.697   2.509
 2857SOL     OW 9804   3.751   1.596   1.979
 2857SOL    HW1 9805   3.732   1.500   2.000
 2857SOL    HW2 9806   3.718   1.654   2.054
 2858SOL     OW 9807   3.837   0.737   3.459
 2858SOL    HW1 9808   3.925   0.724   3.504
 2858SOL    HW2 9809   3.824   0.834   3.437
 2859SOL     OW 9810   4.337   1.365   2.588
 2859SOL    HW1 9811   4.288   1.278   2.597
 2859SOL    HW2 9812   4.314   1.408   2.501
 2860SOL     OW 9813   5.017   1.228   3.285
 2860SOL    HW1 9814   5.054   1.155   3.227
 2860SOL    HW2 9815   5.069   1.233   3.370
 2861SOL     OW 9816   4.533   0.004   2.364
 2861SOL    HW1 9817   4.573   0.095   2.355
 2861SOL    HW2 9818   4.433   0.012   2.370
 2862SOL     OW 9819   3.921   0.976   3.126
 2862SOL    HW1 9820   4.010   0.931   3.112
 2862SOL    HW2 9821   3.848   0.911   3.107
 2863SOL     OW 9822   4.911   1.792   3.478
 2863SOL    HW1 9823   4.935   1.852   3.402
 2863SOL    HW2 9824   4.918   1.697   3.448
 2864SOL     OW 9825   4.041   0.251   3.663
 2864SOL    HW1 9826   4.112   0.322   3.669
 2864SOL    HW2 9827   3.953   0.290   3.691
 2865SOL     OW 9828   4.322   0.729   2.132
 2865SOL    HW1 9829   4.346   0.798   2.064
 2865SOL    HW2 9830   4.244   0.762   2.186
 2866SOL     OW 9831   4.531   0.605   3.327
 2866SOL    HW1 9832   4.484   0.602   3.416
 2866SOL    HW2 9833   4.480   0.550   3.261
 2867SOL     OW 9834   4.697   0.890   3.434
 2867SOL    HW1 9835   4.743   0.806   3.405
 2867SOL    HW2 9836   4.641   0.924   3.359
 2868SOL     OW 9837   4.715   0.410   3.104
 2868SOL    HW1 9838   4.638   0.444   3.158
 2868SOL    HW2 9839   4.681   0.359   3.025
 2869SOL     OW 9840   4.765   0.701   2.291
 2869SOL    HW1 9841   4.791   0.697   2.387
 2869SOL    HW2 9842   4.680   0.650   2.277
 2870SOL     OW 9843   3.800   0.811   2.651
 2870SOL    HW1 9844   3.899   0.799   2.660
 2870SOL    HW2 9845   3.776   0.906   2.672
 2871SOL     OW 9846   3.854   1.821   3.433
 2871SOL    HW1 9847   3.844   1.806   3.532
 2871SOL    HW2 9848   3.768   1.857   3.397
 2872SOL     OW 9849   4.589   0.348   2.057
 2872SOL    HW1 9850   4.648   0.411   2.008
 2872SOL    HW2 9851   4.608   0.254   2.028
 2873SOL     OW 9852   4.274   0.196   2.747
 2873SOL    HW1 9853   4.269   0.191   2.847
 2873SOL    HW2 9854   4.276   0.292   2.718
 2874SOL     OW 9855   4.732   1.456   2.339
 2874SOL    HW1 9856   4.686   1.528   2.287
 2874SOL    HW2 9857   4.728   1.476   2.437
 2875SOL     OW 9858   4.075   1.801   2.715
 2875SOL    HW1 9859   4.125   1.715   2.721
 2875SOL    HW2 9860   4.140   1.878   2.712
 2876SOL     OW 9861   4.951   1.550   3.368
 2876SOL    HW1 9862   4.957   1.473   3.432
 2876SOL    HW2 9863   4.899   1.524   3.288
 2877SOL     OW 9864   4.045   0.943   2.104
 2877SOL    HW1 9865   4.127   0.982   2.062
 2877SOL    HW2 9866   4.018   0.861   2.055
 2878SOL     OW 9867   4.185   1.266   3.589
 2878SOL    HW1 9868   4.135   1.267   3.503
 2878SOL    HW2 9869   4.122   1.248   3.665
 2879SOL     OW 9870   4.835   1.776   2.099
 2879SOL    HW1 9871   4.775   1.714   2.149
 2879SOL    HW2 9872   4.866   1.732   2.014
 2880SOL     OW 9873   3.926   0.285   3.360
 2880SOL    HW1 9874   3.846   0.345   3.347
 2880SOL    HW2 9875   3.916   0.236   3.446
 2881SOL     OW 9876   4.188   1.743   2.185
 2881SOL    HW1 9877   4.221   1.782   2.271
 2881SOL    HW2 9878   4.264   1.736   2.120
 2882SOL     OW 9879   3.973   1.785   3.103
 2882SOL    HW1 9880   4.030   1.720   3.153
 2882SOL    HW2 9881   3.957   1.752   3.010
 2883SOL     OW 9882   4.664   1.698   2.766
 2883SOL    HW1 9883   4.744   1.641   2.787
 2883SOL    HW2 9884   4.615   1.658   2.689
 2884SOL     OW 9885   4.106   0.700   2.342
 2884SOL    HW1 9886   4.151   0.610   2.339
 2884SOL    HW2 9887   4.012   0.689   2.375
 2885SOL     OW 9888   4.338   0.122   1.979
 2885SOL    HW1 9889   4.436   0.100   1.986
 2885SOL    HW2 9890   4.307   0.105   1.886
 2886SOL     OW 9891   4.505   0.264   3.611
 2886SOL    HW1 9892   4.572   0.203   3.654
 2886SOL    HW2 9893   4.432   0.283   3.676
 2887SOL     OW 9894   4.612   1.514   3.057
 2887SOL    HW1 9895   4.589   1.489   2.963
 2887SOL    HW2 9896   4.673   1.445   3.096
 2888SOL     OW 9897   4.527   1.402   2.786
 2888SOL    HW1 9898   4.617   1.416   2.744
 2888SOL    HW2 9899   4.456   1.404   2.715
 2889SOL     OW 9900   4.646   0.503   2.761
 2889SOL    HW1 9901   4.621   0.494   2.665
 2889SOL    HW2 9902   4.694   0.421   2.792
 2890SOL     OW 9903   4.263   0.064   2.374
 2890SOL    HW1 9904   4.182   0.065   2.432
 2890SOL    HW2 9905   4.266   0.147   2.319
 2891SOL     OW 9906   4.021   0.035   2.033
 2891SOL    HW1 9907   4.070   0.119   2.012
 2891SOL    HW2 9908   4.083  -0.030   2.078
 2892SOL     OW 9909   4.659   0.236   2.342
 2892SOL    HW1 9910   4.611   0.277   2.264
 2892SOL    HW2 9911   4.758   0.234   2.323
 2893SOL     OW 9912   4.800   0.683   3.326
 2893SOL    HW1 9913   4.720   0.622   3.329
 2893SOL    HW2 9914   4.881   0.630   3.302
 2894SOL     OW 9915   4.951   1.570   2.655
 2894SOL    HW1 9916   4.972   1.644   2.590
 2894SOL    HW2 9917   5.019   1.570   2.728
 2895SOL     OW 9918   4.183   1.152   2.603
 2895SOL    HW1 9919   4.112   1.125   2.668
 2895SOL    HW2 9920   4.157   1.124   2.510
 2896SOL     OW 9921   4.995   1.797   2.453
 2896SOL    HW1 9922   5.039   1.861   2.389
 2896SOL    HW2 9923   4.945   1.849   2.523
 2897SOL     OW 9924   4.756   0.549   1.878
 2897SOL    HW1 9925   4.715   0.631   1.839
 2897SOL    HW2 9926   4.820   0.575   1.951
 2898SOL     OW 9927   3.802   0.556   3.248
 2898SOL    HW1 9928   3.894   0.555   3.207
 2898SOL    HW2 9929   3.796   0.630   3.315
 2899SOL     OW 9930   4.285   0.222   3.009
 2899SOL    HW1 9931   4.323   0.138   3.046
 2899SOL    HW2 9932   4.197   0.241   3.053
 2900SOL     OW 9933   4.590   0.454   2.504
 2900SOL    HW1 9934   4.558   0.526   2.442
 2900SOL    HW2 9935   4.614   0.373   2.451
 2901SOL     OW 9936   4.741   0.039   2.615
 2901SOL    HW1 9937   4.669   0.044   2.546
 2901SOL    HW2 9938   4.717  -0.030   2.684
 2902SOL     OW 9939   4.212   1.385   2.036
 2902SOL    HW1 9940   4.125   1.370   2.083
 2902SOL    HW2 9941   4.195   1.411   1.941
 2903SOL     OW 9942   5.388   1.280   2.519
 2903SOL    HW1 9943   5.487   1.288   2.533
 2903SOL    HW2 9944   5.343   1.364   2.550
 2904SOL     OW 9945   4.251   0.256   2.190
 2904SOL    HW1 9946   4.278   0.197   2.115
 2904SOL    HW2 9947   4.251   0.351   2.159
 2905SOL     OW 9948   4.788   1.347   3.202
 2905SOL    HW1 9949   4.708   1.324   3.257
 2905SOL    HW2 9950   4.871   1.321   3.251
 2906SOL     OW 9951   4.835   1.195   2.962
 2906SOL    HW1 9952   4.795   1.239   3.043
 2906SOL    HW2 9953   4.794   1.232   2.879
 2907SOL     OW 9954   4.639   0.089   3.264
 2907SOL    HW1 9955   4.664   0.069   3.169
 2907SOL    HW2 9956   4.711   0.145   3.306
 2908SOL     OW 9957   4.704   1.116   3.581
 2908SOL    HW1 9958   4.605   1.122   3.591
 2908SOL    HW2 9959   4.727   1.036   3.525
 2909SOL     OW 9960   4.429   1.050   2.230
 2909SOL    HW1 9961   4.415   1.057   2.329
 2909SOL    HW2 9962   4.513   0.999   2.212
 2910SOL     OW 9963   4.134   0.813   3.113
 2910SOL    HW1 9964   4.220   0.825   3.163
 2910SOL    HW2 9965   4.092   0.726   3.140
 2911SOL     OW 9966   4.998   0.386   3.124
 2911SOL    HW1 9967   5.019   0.460   3.188
 2911SOL    HW2 9968   4.909   0.403   3.081
 2912SOL     OW 9969   3.788   1.564   3.193
 2912SOL    HW1 9970   3.742   1.646   3.159
 2912SOL    HW2 9971   3.886   1.583   3.202
 2913SOL     OW 9972   4.091   1.100   2.363
 2913SOL    HW1 9973   4.084   1.183   2.307
 2913SOL    HW2 9974   4.095   1.020   2.303
 2914SOL     OW 9975   4.290   0.537   2.727
 2914SOL    HW1 9976   4.302   0.603   2.653
 2914SOL    HW2 9977   4.336   0.571   2.810
 2915SOL     OW 9978   4.976   1.348   2.250
 2915SOL    HW1 9979   5.026   1.425   2.290
 2915SOL    HW2 9980   4.881   1.350   2.282
 2916SOL     OW 9981   4.078   1.510   3.191
 2916SOL    HW1 9982   4.057   1.466   3.104
 2916SOL    HW2 9983   4.175   1.536   3.194
 2917SOL     OW 9984   4.126   0.751   3.460
 2917SOL    HW1 9985   4.194   0.806   3.413
 2917SOL    HW2 9986   4.166   0.663   3.487
 2918SOL     OW 9987   4.737   0.105   3.632
 2918SOL    HW1 9988   4.743   0.190   3.580
 2918SOL    HW2 9989   4.769   0.029   3.575
 2919SOL     OW 9990   4.228   0.050   3.602
 2919SOL    HW1 9991   4.186  -0.007   3.532
 2919SOL    HW2 9992   4.162   0.119   3.634
 2920SOL     OW 9993   4.297   0.870   2.891
 2920SOL    HW1 9994   4.341   0.959   2.882
 2920SOL    HW2 9995   4.234   0.870   2.968
 2921SOL     OW 9996   5.084   0.862   2.907
 2921SOL    HW1 9997   5.009   0.862   2.841
 2921SOL    HW2 9998   5.121   0.770   2.916
 2922SOL     OW 9999   4.933   0.525   2.137
 2922SOL    HW110000   4.946   0.441   2.191
 2922SOL    HW210001   4.904   0.599   2.197
 2923SOL     OW10002   4.031   0.213   3.093
 2923SOL    HW110003   4.008   0.250   3.183
 2923SOL    HW210004   4.001   0.118   3.087
 2924SOL     OW10005   3.761   1.310   3.144
 2924SOL    HW110006   3.814   1.261   3.212
 2924SOL    HW210007   3.783   1.408   3.149
 2925SOL     OW10008   4.456   0.634   2.926
 2925SOL    HW110009   4.515   0.608   2.850
 2925SOL    HW210010   4.428   0.730   2.915
 2926SOL     OW10011   4.031   0.063   2.480
 2926SOL    HW110012   4.020   0.157   2.513
 2926SOL    HW210013   4.026   0.000   2.557
 2927SOL     OW10014   5.346   0.367   2.236
 2927SOL    HW110015   5.348   0.291   2.300
 2927SOL    HW210016   5.298   0.444   2.276
 2928SOL     OW10017   4.747   0.766   2.828
 2928SOL    HW110018   4.762   0.787   2.924
 2928SOL    HW210019   4.717   0.671   2.819
 2929SOL     OW10020   4.704   1.573   3.562
 2929SOL    HW110021   4.684   1.617   3.474
 2929SOL    HW210022   4.743   1.482   3.546
 2930SOL     OW10023   4.074   0.898   3.666
 2930SOL    HW110024   4.150   0.942   3.714
 2930SOL    HW210025   4.109   0.851   3.584
 2931SOL     OW10026   5.027   0.838   1.904
 2931SOL    HW110027   5.061   0.745   1.919
 2931SOL    HW210028   5.045   0.865   1.809
 2932SOL     OW10029   4.792   1.333   2.711
 2932SOL    HW110030   4.799   1.249   2.656
 2932SOL    HW210031   4.854   1.402   2.675
 2933SOL     OW10032   4.043   0.810   2.811
 2933SOL    HW110033   4.136   0.846   2.816
 2933SOL    HW210034   4.037   0.725   2.863
 2934SOL     OW10035   4.063   0.509   2.868
 2934SOL    HW110036   4.011   0.426   2.851
 2934SOL    HW210037   4.140   0.514   2.804
 2935SOL     OW10038   4.862   0.380   3.540
 2935SOL    HW110039   4.817   0.443   3.604
 2935SOL    HW210040   4.955   0.411   3.523
 2936SOL     OW10041   4.884   0.207   3.339
 2936SOL    HW110042   4.884   0.271   3.416
 2936SOL    HW210043   4.912   0.255   3.256
 2937SOL     OW10044   3.732   1.326   2.062
 2937SOL    HW110045   3.639   1.347   2.031
 2937SOL    HW210046   3.742   1.227   2.075
 2938SOL     OW10047   3.812   1.801   2.789
 2938SOL    HW110048   3.770   1.715   2.762
 2938SOL    HW210049   3.906   1.804   2.755
 2939SOL     OW10050   4.228   1.568   2.772
 2939SOL    HW110051   4.294   1.642   2.781
 2939SOL    HW210052   4.272   1.489   2.730
 2940SOL     OW10053   4.726   0.796   3.100
 2940SOL    HW110054   4.767   0.764   3.186
 2940SOL    HW210055   4.630   0.769   3.097
 2941SOL     OW10056   3.764   0.544   2.976
 2941SOL    HW110057   3.849   0.511   2.935
 2941SOL    HW210058   3.777   0.559   3.074
 2942SOL     OW10059   3.913   0.520   3.584
 2942SOL    HW110060   3.972   0.480   3.514
 2942SOL    HW210061   3.855   0.591   3.543
 2943SOL     OW10062   4.539   0.572   2.187
 2943SOL    HW110063   4.546   0.483   2.141
 2943SOL    HW210064   4.445   0.606   2.179
 2944SOL     OW10065   3.976   1.564   3.606
 2944SOL    HW110066   3.946   1.621   3.682
 2944SOL    HW210067   3.969   1.467   3.632
 2945SOL     OW10068   4.395   0.464   3.131
 2945SOL    HW110069   4.361   0.375   3.101
 2945SOL    HW210070   4.421   0.518   3.051
 2946SOL     OW10071   4.654   1.678   3.327
 2946SOL    HW110072   4.630   1.660   3.232
 2946SOL    HW210073   4.684   1.772   3.337
 2947SOL     OW10074   4.197   0.500   2.053
 2947SOL    HW110075   4.258   0.580   2.057
 2947SOL    HW210076   4.102   0.531   2.060
 2948SOL     OW10077   3.883   1.137   3.328
 2948SOL    HW110078   3.905   1.076   3.404
 2948SOL    HW210079   3.893   1.088   3.242
 2949SOL     OW10080   5.071   1.059   3.096
 2949SOL    HW110081   5.095   0.996   3.022
 2949SOL    HW210082   4.981   1.099   3.078
 2950SOL     OW10083   4.976   1.731   2.990
 2950SOL    HW110084   5.060   1.736   2.936
 2950SOL    HW210085   4.953   1.635   3.008
 2951SOL     OW10086   3.807   1.258   2.884
 2951SOL    HW110087   3.802   1.257   2.984
 2951SOL    HW210088   3.724   1.217   2.846
 2952SOL     OW10089   4.412   1.662   3.578
 2952SOL    HW110090   4.356   1.743   3.587
 2952SOL    HW210091   4.464   1.666   3.492
 2953SOL     OW10092   5.112   1.573   2.339
 2953SOL    HW110093   5.179   1.585   2.265
 2953SOL    HW210094   5.072   1.662   2.362
 2954SOL     OW10095   3.854   1.794   3.713
 2954SOL    HW110096   3.813   1.720   3.766
 2954SOL    HW210097   3.918   1.845   3.771
 2955SOL     OW10098   5.004   0.927   2.534
 2955SOL    HW110099   5.064   0.846   2.536
 2955SOL    HW210100   5.044   0.996   2.474
 2956SOL     OW10101   4.554   1.273   3.284
 2956SOL    HW110102   4.549   1.306   3.379
 2956SOL    HW210103   4.468   1.292   3.238
 2957SOL     OW10104   4.396   1.616   2.016
 2957SOL    HW110105   4.405   1.626   1.917
 2957SOL    HW210106   4.356   1.527   2.037
 2958SOL     OW10107   3.987   0.326   2.582
 2958SOL    HW110108   3.908   0.377   2.548
 2958SOL    HW210109   3.978   0.311   2.680
 2959SOL     OW10110   4.546   1.002   3.234
 2959SOL    HW110111   4.586   1.001   3.142
 2959SOL    HW210112   4.556   1.094   3.274
 2960SOL     OW10113   4.640   0.910   2.153
 2960SOL    HW110114   4.703   0.948   2.085
 2960SOL    HW210115   4.680   0.827   2.192
 2961SOL     OW10116   4.096   1.288   3.352
 2961SOL    HW110117   4.083   1.381   3.318
 2961SOL    HW210118   4.012   1.236   3.339
 2962SOL     OW10119   4.763   1.098   2.558
 2962SOL    HW110120   4.693   1.051   2.612
 2962SOL    HW210121   4.822   1.030   2.515
 2963SOL     OW10122   4.738   0.236   2.833
 2963SOL    HW110123   4.730   0.200   2.740
 2963SOL    HW210124   4.736   0.160   2.898
 2964SOL     OW10125   4.314   1.487   2.353
 2964SOL    HW110126   4.356   1.429   2.283
 2964SOL    HW210127   4.270   1.566   2.309
 2965SOL     OW10128   3.979   1.348   2.152
 2965SOL    HW110129   3.883   1.349   2.125
 2965SOL    HW210130   3.991   1.401   2.236
 2966SOL     OW10131   3.829   1.013   3.588
 2966SOL    HW110132   3.752   0.980   3.642
 2966SOL    HW210133   3.914   0.983   3.630
 2967SOL     OW10134   4.396   0.203   3.351
 2967SOL    HW110135   4.486   0.187   3.311
 2967SOL    HW210136   4.404   0.208   3.450
 2968SOL     OW10137   3.799   0.345   1.895
 2968SOL    HW110138   3.707   0.317   1.866
 2968SOL    HW210139   3.830   0.422   1.839
 2969SOL     OW10140   5.164   0.856   3.260
 2969SOL    HW110141   5.107   0.908   3.197
 2969SOL    HW210142   5.260   0.868   3.236
 2970SOL     OW10143   3.796   0.166   2.180
 2970SOL    HW110144   3.779   0.249   2.126
 2970SOL    HW210145   3.886   0.129   2.158
 2971SOL     OW10146   4.337   0.842   3.293
 2971SOL    HW110147   4.393   0.923   3.276
 2971SOL    HW210148   4.396   0.762   3.296
 2972SOL     OW10149   4.440   0.565   3.570
 2972SOL    HW110150   4.459   0.630   3.644
 2972SOL    HW210151   4.500   0.485   3.579
 2973SOL     OW10152   4.114   1.741   3.422
 2973SOL    HW110153   4.023   1.782   3.420
 2973SOL    HW210154   4.107   1.647   3.454
 2974SOL     OW10155   4.949   0.325   2.311
 2974SOL    HW110156   5.014   0.251   2.300
 2974SOL    HW210157   4.969   0.375   2.395
 2975SOL     OW10158   4.318   0.745   2.514
 2975SOL    HW110159   4.368   0.830   2.495
 2975SOL    HW210160   4.230   0.747   2.466
 2976SOL     OW10161   4.583   1.374   1.878
 2976SOL    HW110162   4.537   1.389   1.966
 2976SOL    HW210163   4.627   1.459   1.848
 2977SOL     OW10164   4.385   1.790   2.815
 2977SOL    HW110165   4.339   1.878   2.802
 2977SOL    HW210166   4.484   1.802   2.808
 2978SOL     OW10167   4.583   0.956   2.723
 2978SOL    HW110168   4.637   0.887   2.771
 2978SOL    HW210169   4.551   1.025   2.789
 2979SOL     OW10170   4.807   0.984   1.949
 2979SOL    HW110171   4.784   1.037   1.867
 2979SOL    HW210172   4.888   0.928   1.930
 2980SOL     OW10173   3.945   1.314   3.706
 2980SOL    HW110174   3.880   1.241   3.685
 2980SOL    HW210175   3.949   1.328   3.804
 2981SOL     OW10176   3.803   1.240   2.515
 2981SOL    HW110177   3.802   1.193   2.603
 2981SOL    HW210178   3.885   1.212   2.464
 2982SOL     OW10179   4.396   1.391   3.486
 2982SOL    HW110180   4.318   1.341   3.524
 2982SOL    HW210181   4.393   1.486   3.517
 2983SOL     OW10182   4.152   0.424   2.382
 2983SOL    HW110183   4.182   0.352   2.320
 2983SOL    HW210184   4.113   0.384   2.465
 2984SOL     OW10185   4.041   0.547   3.142
 2984SOL    HW110186   4.079   0.488   3.214
 2984SOL    HW210187   4.081   0.521   3.054
 2985SOL     OW10188   4.536   1.586   2.549
 2985SOL    HW110189   4.568   1.596   2.455
 2985SOL    HW210190   4.457   1.524   2.551
 2986SOL     OW10191   4.725   0.034   3.016
 2986SOL    HW110192   4.662  -0.038   2.985
 2986SOL    HW210193   4.818  -0.002   3.016
 2987SOL     OW10194   4.494   1.330   2.163
 2987SOL    HW110195   4.448   1.243   2.180
 2987SOL    HW210196   4.585   1.327   2.204
 2988SOL     OW10197   4.342   1.567   3.146
 2988SOL    HW110198   4.337   1.649   3.203
 2988SOL    HW210199   4.431   1.564   3.101
 2989SOL     OW10200   3.763   1.077   2.162
 2989SOL    HW110201   3.862   1.066   2.153
 2989SOL    HW210202   3.723   0.991   2.194
 2990SOL     OW10203   4.599   1.646   2.199
 2990SOL    HW110204   4.522   1.611   2.145
 2990SOL    HW210205   4.567   1.717   2.261
 2991SOL     OW10206   3.954   0.628   3.837
 2991SOL    HW110207   3.861   0.626   3.874
 2991SOL    HW210208   3.955   0.589   3.745
 2992SOL     OW10209   3.949   0.275   4.720
 2992SOL    HW110210   3.984   0.258   4.812
 2992SOL    HW210211   3.861   0.230   4.708
 2993SOL     OW10212   3.743   0.368   4.371
 2993SOL    HW110213   3.661   0.411   4.410
 2993SOL    HW210214   3.715   0.295   4.308
 2994SOL     OW10215   4.293   1.275   4.889
 2994SOL    HW110216   4.200   1.268   4.852
 2994SOL    HW210217   4.304   1.364   4.933
 2995SOL     OW10218   4.859   0.703   4.441
 2995SOL    HW110219   4.916   0.781   4.416
 2995SOL    HW210220   4.799   0.729   4.517
 2996SOL     OW10221   4.492   1.144   4.747
 2996SOL    HW110222   4.414   1.161   4.807
 2996SOL    HW210223   4.526   1.231   4.711
 2997SOL     OW10224   4.409   1.012   4.389
 2997SOL    HW110225   4.478   0.996   4.459
 2997SOL    HW210226   4.336   1.069   4.427
 2998SOL     OW10227   3.955   1.713   4.207
 2998SOL    HW110228   3.989   1.790   4.261
 2998SOL    HW210229   3.999   1.713   4.117
 2999SOL     OW10230   3.954   1.434   4.262
 2999SOL    HW110231   3.928   1.530   4.262
 2999SOL    HW210232   3.883   1.380   4.307
 3000SOL     OW10233   3.964   1.091   4.610
 3000SOL    HW110234   3.978   1.007   4.662
 3000SOL    HW210235   3.909   1.155   4.665
 3001SOL     OW10236   4.330   0.964   3.847
 3001SOL    HW110237   4.337   1.048   3.793
 3001SOL    HW210238   4.376   0.977   3.935
 3002SOL     OW10239   3.751   1.596   3.841
 3002SOL    HW110240   3.732   1.500   3.862
 3002SOL    HW210241   3.718   1.654   3.916
 3003SOL     OW10242   4.337   1.365   4.450
 3003SOL    HW110243   4.288   1.278   4.459
 3003SOL    HW210244   4.314   1.408   4.363
 3004SOL     OW10245   4.533   0.004   4.226
 3004SOL    HW110246   4.573   0.095   4.217
 3004SOL    HW210247   4.433   0.012   4.232
 3005SOL     OW10248   4.322   0.729   3.994
 3005SOL    HW110249   4.346   0.798   3.926
 3005SOL    HW210250   4.244   0.762   4.048
 3006SOL     OW10251   5.005   0.345   4.668
 3006SOL    HW110252   4.919   0.295   4.655
 3006SOL    HW210253   5.067   0.291   4.724
 3007SOL     OW10254   4.765   0.701   4.153
 3007SOL    HW110255   4.791   0.697   4.249
 3007SOL    HW210256   4.680   0.650   4.139
 3008SOL     OW10257   4.589   0.348   3.919
 3008SOL    HW110258   4.648   0.411   3.870
 3008SOL    HW210259   4.608   0.254   3.890
 3009SOL     OW10260   4.274   0.196   4.609
 3009SOL    HW110261   4.269   0.191   4.709
 3009SOL    HW210262   4.276   0.292   4.580
 3010SOL     OW10263   4.732   1.456   4.201
 3010SOL    HW110264   4.686   1.528   4.149
 3010SOL    HW210265   4.728   1.476   4.299
 3011SOL     OW10266   4.045   0.943   3.966
 3011SOL    HW110267   4.127   0.982   3.924
 3011SOL    HW210268   4.018   0.861   3.917
 3012SOL     OW10269   4.835   1.776   3.961
 3012SOL    HW110270   4.775   1.714   4.011
 3012SOL    HW210271   4.866   1.732   3.876
 3013SOL     OW10272   4.106   0.700   4.204
 3013SOL    HW110273   4.151   0.610   4.201
 3013SOL    HW210274   4.012   0.689   4.237
 3014SOL     OW10275   4.338   0.122   3.841
 3014SOL    HW110276   4.436   0.100   3.848
 3014SOL    HW210277   4.307   0.105   3.748
 3015SOL     OW10278   4.527   1.402   4.648
 3015SOL    HW110279   4.617   1.416   4.606
 3015SOL    HW210280   4.456   1.404   4.577
 3016SOL     OW10281   4.646   0.503   4.623
 3016SOL    HW110282   4.621   0.494   4.527
 3016SOL    HW210283   4.694   0.421   4.654
 3017SOL     OW10284   4.263   0.064   4.236
 3017SOL    HW110285   4.182   0.065   4.294
 3017SOL    HW210286   4.266   0.147   4.181
 3018SOL     OW10287   4.021   0.035   3.895
 3018SOL    HW110288   4.070   0.119   3.874
 3018SOL    HW210289   4.083  -0.030   3.940
 3019SOL     OW10290   4.659   0.236   4.204
 3019SOL    HW110291   4.611   0.277   4.126
 3019SOL    HW210292   4.758   0.234   4.185
 3020SOL     OW10293   4.951   1.570   4.517
 3020SOL    HW110294   4.972   1.644   4.452
 3020SOL    HW210295   5.019   1.570   4.590
 3021SOL     OW10296   4.183   1.152   4.465
 3021SOL    HW110297   4.112   1.125   4.530
 3021SOL    HW210298   4.157   1.124   4.372
 3022SOL     OW10299   4.995   1.797   4.315
 3022SOL    HW110300   5.039   1.861   4.251
 3022SOL    HW210301   4.945   1.849   4.385
 3023SOL     OW10302   4.756   0.549   3.740
 3023SOL    HW110303   4.715   0.631   3.701
 3023SOL    HW210304   4.820   0.575   3.813
 3024SOL     OW10305   4.285   0.222   4.871
 3024SOL    HW110306   4.323   0.138   4.908
 3024SOL    HW210307   4.197   0.241   4.915
 3025SOL     OW10308   4.590   0.454   4.366
 3025SOL    HW110309   4.558   0.526   4.304
 3025SOL    HW210310   4.614   0.373   4.313
 3026SOL     OW10311   4.741   0.039   4.477
 3026SOL    HW110312   4.669   0.044   4.408
 3026SOL    HW210313   4.717  -0.030   4.546
 3027SOL     OW10314   4.212   1.385   3.898
 3027SOL    HW110315   4.125   1.370   3.945
 3027SOL    HW210316   4.195   1.411   3.803
 3028SOL     OW10317   5.388   1.280   4.381
 3028SOL    HW110318   5.487   1.288   4.395
 3028SOL    HW210319   5.343   1.364   4.412
 3029SOL     OW10320   4.251   0.256   4.052
 3029SOL    HW110321   4.278   0.197   3.977
 3029SOL    HW210322   4.251   0.351   4.021
 3030SOL     OW10323   5.316   1.629   5.349
 3030SOL    HW110324   5.343   1.663   5.259
 3030SOL    HW210325   5.395   1.591   5.395
 3031SOL     OW10326   4.835   1.195   4.824
 3031SOL    HW110327   4.795   1.239   4.905
 3031SOL    HW210328   4.794   1.232   4.741
 3032SOL     OW10329   4.429   1.050   4.092
 3032SOL    HW110330   4.415   1.057   4.191
 3032SOL    HW210331   4.513   0.999   4.074
 3033SOL     OW10332   4.091   1.100   4.225
 3033SOL    HW110333   4.084   1.183   4.169
 3033SOL    HW210334   4.095   1.020   4.165
 3034SOL     OW10335   4.290   0.537   4.589
 3034SOL    HW110336   4.302   0.603   4.515
 3034SOL    HW210337   4.336   0.571   4.672
 3035SOL     OW10338   4.976   1.348   4.112
 3035SOL    HW110339   5.026   1.425   4.152
 3035SOL    HW210340   4.881   1.350   4.144
 3036SOL     OW10341   4.078   1.510   5.053
 3036SOL    HW110342   4.057   1.466   4.966
 3036SOL    HW210343   4.175   1.536   5.056
 3037SOL     OW10344   4.297   0.870   4.753
 3037SOL    HW110345   4.341   0.959   4.744
 3037SOL    HW210346   4.234   0.870   4.830
 3038SOL     OW10347   5.084   0.862   4.769
 3038SOL    HW110348   5.009   0.862   4.703
 3038SOL    HW210349   5.121   0.770   4.778
 3039SOL     OW10350   4.933   0.525   3.999
 3039SOL    HW110351   4.946   0.441   4.053
 3039SOL    HW210352   4.904   0.599   4.059
 3040SOL     OW10353   4.031   0.213   4.955
 3040SOL    HW110354   4.008   0.250   5.045
 3040SOL    HW210355   4.001   0.118   4.949
 3041SOL     OW10356   3.761   1.310   5.006
 3041SOL    HW110357   3.814   1.261   5.074
 3041SOL    HW210358   3.783   1.408   5.011
 3042SOL     OW10359   4.031   0.063   4.342
 3042SOL    HW110360   4.020   0.157   4.375
 3042SOL    HW210361   4.026   0.000   4.419
 3043SOL     OW10362   5.346   0.367   4.098
 3043SOL    HW110363   5.348   0.291   4.162
 3043SOL    HW210364   5.298   0.444   4.138
 3044SOL     OW10365   4.747   0.766   4.690
 3044SOL    HW110366   4.762   0.787   4.786
 3044SOL    HW210367   4.717   0.671   4.681
 3045SOL     OW10368   5.027   0.838   3.766
 3045SOL    HW110369   5.061   0.745   3.781
 3045SOL    HW210370   5.045   0.865   3.671
 3046SOL     OW10371   4.792   1.333   4.573
 3046SOL    HW110372   4.799   1.249   4.518
 3046SOL    HW210373   4.854   1.402   4.537
 3047SOL     OW10374   4.063   0.509   4.730
 3047SOL    HW110375   4.011   0.426   4.713
 3047SOL    HW210376   4.140   0.514   4.666
 3048SOL     OW10377   4.884   0.207   5.201
 3048SOL    HW110378   4.884   0.271   5.278
 3048SOL    HW210379   4.912   0.255   5.118
 3049SOL     OW10380   3.732   1.326   3.924
 3049SOL    HW110381   3.639   1.347   3.893
 3049SOL    HW210382   3.742   1.227   3.937
 3050SOL     OW10383   4.726   0.796   4.962
 3050SOL    HW110384   4.767   0.764   5.048
 3050SOL    HW210385   4.630   0.769   4.959
 3051SOL     OW10386   3.764   0.544   4.838
 3051SOL    HW110387   3.849   0.511   4.797
 3051SOL    HW210388   3.777   0.559   4.936
 3052SOL     OW10389   4.539   0.572   4.049
 3052SOL    HW110390   4.546   0.483   4.003
 3052SOL    HW210391   4.445   0.606   4.041
 3053SOL     OW10392   4.654   1.678   5.189
 3053SOL    HW110393   4.630   1.660   5.094
 3053SOL    HW210394   4.684   1.772   5.199
 3054SOL     OW10395   4.197   0.500   3.915
 3054SOL    HW110396   4.258   0.580   3.919
 3054SOL    HW210397   4.102   0.531   3.922
 3055SOL     OW10398   5.071   1.059   4.958
 3055SOL    HW110399   5.095   0.996   4.884
 3055SOL    HW210400   4.981   1.099   4.940
 3056SOL     OW10401   4.976   1.731   4.852
 3056SOL    HW110402   5.060   1.736   4.798
 3056SOL    HW210403   4.953   1.635   4.870
 3057SOL     OW10404   3.807   1.258   4.746
 3057SOL    HW110405   3.802   1.257   4.846
 3057SOL    HW210406   3.724   1.217   4.708
 3058SOL     OW10407   5.112   1.573   4.201
 3058SOL    HW110408   5.179   1.585   4.127
 3058SOL    HW210409   5.072   1.662   4.224
 3059SOL     OW10410   5.004   0.927   4.396
 3059SOL    HW110411   5.064   0.846   4.398
 3059SOL    HW210412   5.044   0.996   4.336
 3060SOL     OW10413   4.396   1.616   3.878
 3060SOL    HW110414   4.405   1.626   3.779
 3060SOL    HW210415   4.356   1.527   3.899
 3061SOL     OW10416   3.987   0.326   4.444
 3061SOL    HW110417   3.908   0.377   4.410
 3061SOL    HW210418   3.978   0.311   4.542
 3062SOL     OW10419   4.918   1.612   3.755
 3062SOL    HW110420   4.924   1.519   3.792
 3062SOL    HW210421   4.859   1.612   3.675
 3063SOL     OW10422   4.546   1.002   5.096
 3063SOL    HW110423   4.586   1.001   5.004
 3063SOL    HW210424   4.556   1.094   5.136
 3064SOL     OW10425   4.640   0.910   4.015
 3064SOL    HW110426   4.703   0.948   3.947
 3064SOL    HW210427   4.680   0.827   4.054
 3065SOL     OW10428   4.763   1.098   4.420
 3065SOL    HW110429   4.693   1.051   4.474
 3065SOL    HW210430   4.822   1.030   4.377
 3066SOL     OW10431   4.738   0.236   4.695
 3066SOL    HW110432   4.730   0.200   4.602
 3066SOL    HW210433   4.736   0.160   4.760
 3067SOL     OW10434   4.314   1.487   4.215
 3067SOL    HW110435   4.356   1.429   4.145
 3067SOL    HW210436   4.270   1.566   4.171
 3068SOL     OW10437   3.979   1.348   4.014
 3068SOL    HW110438   3.883   1.349   3.987
 3068SOL    HW210439   3.991   1.401   4.098
 3069SOL     OW10440   3.799   0.345   3.757
 3069SOL    HW110441   3.707   0.317   3.728
 3069SOL    HW210442   3.830   0.422   3.701
 3070SOL     OW10443   3.796   0.166   4.042
 3070SOL    HW110444   3.779   0.249   3.988
 3070SOL    HW210445   3.886   0.129   4.020
 3071SOL     OW10446   4.949   0.325   4.173
 3071SOL    HW110447   5.014   0.251   4.162
 3071SOL    HW210448   4.969   0.375   4.257
 3072SOL     OW10449   4.318   0.745   4.376
 3072SOL    HW110450   4.368   0.830   4.357
 3072SOL    HW210451   4.230   0.747   4.328
 3073SOL     OW10452   4.583   1.374   3.740
 3073SOL    HW110453   4.537   1.389   3.828
 3073SOL    HW210454   4.627   1.459   3.710
 3074SOL     OW10455   4.583   0.956   4.585
 3074SOL    HW110456   4.637   0.887   4.633
 3074SOL    HW210457   4.551   1.025   4.651
 3075SOL     OW10458   4.807   0.984   3.811
 3075SOL    HW110459   4.784   1.037   3.729
 3075SOL    HW210460   4.888   0.928   3.792
 3076SOL     OW10461   3.803   1.240   4.377
 3076SOL    HW110462   3.802   1.193   4.465
 3076SOL    HW210463   3.885   1.212   4.326
 3077SOL     OW10464   4.152   0.424   4.244
 3077SOL    HW110465   4.182   0.352   4.182
 3077SOL    HW210466   4.113   0.384   4.327
 3078SOL     OW10467   4.725   0.034   4.878
 3078SOL    HW110468   4.662  -0.038   4.847
 3078SOL    HW210469   4.818  -0.002   4.878
 3079SOL     OW10470   4.494   1.330   4.025
 3079SOL    HW110471   4.448   1.243   4.042
 3079SOL    HW210472   4.585   1.327   4.066
 3080SOL     OW10473   3.763   1.077   4.024
 3080SOL    HW110474   3.862   1.066   4.015
 3080SOL    HW210475   3.723   0.991   4.056
 3081SOL     OW10476   3.949   2.137   0.996
 3081SOL    HW110477   3.984   2.120   1.088
 3081SOL    HW210478   3.861   2.092   0.984
 3082SOL     OW10479   3.743   2.230   0.647
 3082SOL    HW110480   3.661   2.273   0.686
 3082SOL    HW210481   3.715   2.157   0.584
 3083SOL     OW10482   4.293   3.137   1.165
 3083SOL    HW110483   4.200   3.130   1.128
 3083SOL    HW210484   4.304   3.226   1.209
 3084SOL     OW10485   4.859   2.565   0.717
 3084SOL    HW110486   4.916   2.643   0.692
 3084SOL    HW210487   4.799   2.591   0.793
 3085SOL     OW10488   4.492   3.006   1.023
 3085SOL    HW110489   4.414   3.023   1.083
 3085SOL    HW210490   4.526   3.093   0.987
 3086SOL     OW10491   4.574   2.660   1.823
 3086SOL    HW110492   4.570   2.736   1.888
 3086SOL    HW210493   4.596   2.696   1.732
 3087SOL     OW10494   4.409   2.874   0.665
 3087SOL    HW110495   4.478   2.858   0.735
 3087SOL    HW210496   4.336   2.931   0.703
 3088SOL     OW10497   4.410   3.023   1.803
 3088SOL    HW110498   4.470   3.102   1.817
 3088SOL    HW210499   4.324   3.054   1.762
 3089SOL     OW10500   4.059   3.297   1.061
 3089SOL    HW110501   3.981   3.266   1.008
 3089SOL    HW210502   4.117   3.355   1.004
 3090SOL     OW10503   4.162   2.254   1.499
 3090SOL    HW110504   4.244   2.198   1.508
 3090SOL    HW210505   4.081   2.196   1.503
 3091SOL     OW10506   4.851   3.203   1.690
 3091SOL    HW110507   4.898   3.203   1.778
 3091SOL    HW210508   4.803   3.116   1.679
 3092SOL     OW10509   3.954   3.296   0.538
 3092SOL    HW110510   3.928   3.392   0.538
 3092SOL    HW210511   3.883   3.242   0.583
 3093SOL     OW10512   3.964   2.953   0.886
 3093SOL    HW110513   3.978   2.869   0.938
 3093SOL    HW210514   3.909   3.017   0.941
 3094SOL     OW10515   4.330   2.826   0.123
 3094SOL    HW110516   4.337   2.910   0.069
 3094SOL    HW210517   4.376   2.839   0.211
 3095SOL     OW10518   3.846   2.505   0.563
 3095SOL    HW110519   3.801   2.417   0.580
 3095SOL    HW210520   3.845   2.559   0.647
 3096SOL     OW10521   3.837   2.599   1.597
 3096SOL    HW110522   3.925   2.586   1.642
 3096SOL    HW210523   3.824   2.696   1.575
 3097SOL     OW10524   4.337   3.227   0.726
 3097SOL    HW110525   4.288   3.140   0.735
 3097SOL    HW210526   4.314   3.270   0.639
 3098SOL     OW10527   5.017   3.090   1.423
 3098SOL    HW110528   5.054   3.017   1.365
 3098SOL    HW210529   5.069   3.095   1.508
 3099SOL     OW10530   4.533   1.866   0.502
 3099SOL    HW110531   4.573   1.957   0.493
 3099SOL    HW210532   4.433   1.874   0.508
 3100SOL     OW10533   3.921   2.838   1.264
 3100SOL    HW110534   4.010   2.793   1.250
 3100SOL    HW210535   3.848   2.773   1.245
 3101SOL     OW10536   4.911   3.654   1.616
 3101SOL    HW110537   4.935   3.714   1.540
 3101SOL    HW210538   4.918   3.559   1.586
 3102SOL     OW10539   4.041   2.113   1.801
 3102SOL    HW110540   4.112   2.184   1.807
 3102SOL    HW210541   3.953   2.152   1.829
 3103SOL     OW10542   5.005   2.207   0.944
 3103SOL    HW110543   4.919   2.157   0.931
 3103SOL    HW210544   5.067   2.153   1.000
 3104SOL     OW10545   4.531   2.467   1.465
 3104SOL    HW110546   4.484   2.464   1.554
 3104SOL    HW210547   4.480   2.412   1.399
 3105SOL     OW10548   4.697   2.752   1.572
 3105SOL    HW110549   4.743   2.668   1.543
 3105SOL    HW210550   4.641   2.786   1.497
 3106SOL     OW10551   4.715   2.272   1.242
 3106SOL    HW110552   4.638   2.306   1.296
 3106SOL    HW210553   4.681   2.221   1.163
 3107SOL     OW10554   4.765   2.563   0.429
 3107SOL    HW110555   4.791   2.559   0.525
 3107SOL    HW210556   4.680   2.512   0.415
 3108SOL     OW10557   3.800   2.673   0.789
 3108SOL    HW110558   3.899   2.661   0.798
 3108SOL    HW210559   3.776   2.768   0.810
 3109SOL     OW10560   4.589   2.210   0.195
 3109SOL    HW110561   4.648   2.273   0.146
 3109SOL    HW210562   4.608   2.116   0.166
 3110SOL     OW10563   4.274   2.058   0.885
 3110SOL    HW110564   4.269   2.053   0.985
 3110SOL    HW210565   4.276   2.154   0.856
 3111SOL     OW10566   4.732   3.318   0.477
 3111SOL    HW110567   4.686   3.390   0.425
 3111SOL    HW210568   4.728   3.338   0.575
 3112SOL     OW10569   4.075   3.663   0.853
 3112SOL    HW110570   4.125   3.577   0.859
 3112SOL    HW210571   4.140   3.740   0.850
 3113SOL     OW10572   4.951   3.412   1.506
 3113SOL    HW110573   4.957   3.335   1.570
 3113SOL    HW210574   4.899   3.386   1.426
 3114SOL     OW10575   4.185   3.128   1.727
 3114SOL    HW110576   4.135   3.129   1.641
 3114SOL    HW210577   4.122   3.110   1.803
 3115SOL     OW10578   3.926   2.147   1.498
 3115SOL    HW110579   3.846   2.207   1.485
 3115SOL    HW210580   3.916   2.098   1.584
 3116SOL     OW10581   5.356   3.239   0.081
 3116SOL    HW110582   5.324   3.333   0.071
 3116SOL    HW210583   5.280   3.176   0.069
 3117SOL     OW10584   3.973   3.647   1.241
 3117SOL    HW110585   4.030   3.582   1.291
 3117SOL    HW210586   3.957   3.614   1.148
 3118SOL     OW10587   4.106   2.562   0.480
 3118SOL    HW110588   4.151   2.472   0.477
 3118SOL    HW210589   4.012   2.551   0.513
 3119SOL     OW10590   4.505   2.126   1.749
 3119SOL    HW110591   4.572   2.065   1.792
 3119SOL    HW210592   4.432   2.145   1.814
 3120SOL     OW10593   4.527   3.264   0.924
 3120SOL    HW110594   4.617   3.278   0.882
 3120SOL    HW210595   4.456   3.266   0.853
 3121SOL     OW10596   4.646   2.365   0.899
 3121SOL    HW110597   4.621   2.356   0.803
 3121SOL    HW210598   4.694   2.283   0.930
 3122SOL     OW10599   4.263   1.926   0.512
 3122SOL    HW110600   4.182   1.927   0.570
 3122SOL    HW210601   4.266   2.009   0.457
 3123SOL     OW10602   4.021   1.897   0.171
 3123SOL    HW110603   4.070   1.981   0.150
 3123SOL    HW210604   4.083   1.832   0.216
 3124SOL     OW10605   4.659   2.098   0.480
 3124SOL    HW110606   4.611   2.139   0.402
 3124SOL    HW210607   4.758   2.096   0.461
 3125SOL     OW10608   4.800   2.545   1.464
 3125SOL    HW110609   4.720   2.484   1.467
 3125SOL    HW210610   4.881   2.492   1.440
 3126SOL     OW10611   4.183   3.014   0.741
 3126SOL    HW110612   4.112   2.987   0.806
 3126SOL    HW210613   4.157   2.986   0.648
 3127SOL     OW10614   4.756   2.411   0.016
 3127SOL    HW110615   4.715   2.493  -0.023
 3127SOL    HW210616   4.820   2.437   0.089
 3128SOL     OW10617   3.802   2.418   1.386
 3128SOL    HW110618   3.894   2.417   1.345
 3128SOL    HW210619   3.796   2.492   1.453
 3129SOL     OW10620   4.285   2.084   1.147
 3129SOL    HW110621   4.323   2.000   1.184
 3129SOL    HW210622   4.197   2.103   1.191
 3130SOL     OW10623   4.590   2.316   0.642
 3130SOL    HW110624   4.558   2.388   0.580
 3130SOL    HW210625   4.614   2.235   0.589
 3131SOL     OW10626   4.741   1.901   0.753
 3131SOL    HW110627   4.669   1.906   0.684
 3131SOL    HW210628   4.717   1.832   0.822
 3132SOL     OW10629   5.388   3.142   0.657
 3132SOL    HW110630   5.487   3.150   0.671
 3132SOL    HW210631   5.343   3.226   0.688
 3133SOL     OW10632   4.251   2.118   0.328
 3133SOL    HW110633   4.278   2.059   0.253
 3133SOL    HW210634   4.251   2.213   0.297
 3134SOL     OW10635   4.788   3.209   1.340
 3134SOL    HW110636   4.708   3.186   1.395
 3134SOL    HW210637   4.871   3.183   1.389
 3135SOL     OW10638   4.835   3.057   1.100
 3135SOL    HW110639   4.795   3.101   1.181
 3135SOL    HW210640   4.794   3.094   1.017
 3136SOL     OW10641   4.639   1.951   1.402
 3136SOL    HW110642   4.664   1.931   1.307
 3136SOL    HW210643   4.711   2.007   1.444
 3137SOL     OW10644   4.704   2.978   1.719
 3137SOL    HW110645   4.605   2.984   1.729
 3137SOL    HW210646   4.727   2.898   1.663
 3138SOL     OW10647   4.429   2.912   0.368
 3138SOL    HW110648   4.415   2.919   0.467
 3138SOL    HW210649   4.513   2.861   0.350
 3139SOL     OW10650   4.134   2.675   1.251
 3139SOL    HW110651   4.220   2.687   1.301
 3139SOL    HW210652   4.092   2.588   1.278
 3140SOL     OW10653   4.998   2.248   1.262
 3140SOL    HW110654   5.019   2.322   1.326
 3140SOL    HW210655   4.909   2.265   1.219
 3141SOL     OW10656   3.788   3.426   1.331
 3141SOL    HW110657   3.742   3.508   1.297
 3141SOL    HW210658   3.886   3.445   1.340
 3142SOL     OW10659   4.091   2.962   0.501
 3142SOL    HW110660   4.084   3.045   0.445
 3142SOL    HW210661   4.095   2.882   0.441
 3143SOL     OW10662   4.290   2.399   0.865
 3143SOL    HW110663   4.302   2.465   0.791
 3143SOL    HW210664   4.336   2.433   0.948
 3144SOL     OW10665   4.976   3.210   0.388
 3144SOL    HW110666   5.026   3.287   0.428
 3144SOL    HW210667   4.881   3.212   0.420
 3145SOL     OW10668   4.078   3.372   1.329
 3145SOL    HW110669   4.057   3.328   1.242
 3145SOL    HW210670   4.175   3.398   1.332
 3146SOL     OW10671   4.126   2.613   1.598
 3146SOL    HW110672   4.194   2.668   1.551
 3146SOL    HW210673   4.166   2.525   1.625
 3147SOL     OW10674   4.737   1.967   1.770
 3147SOL    HW110675   4.743   2.052   1.718
 3147SOL    HW210676   4.769   1.891   1.713
 3148SOL     OW10677   4.228   1.912   1.740
 3148SOL    HW110678   4.186   1.855   1.670
 3148SOL    HW210679   4.162   1.981   1.772
 3149SOL     OW10680   4.297   2.732   1.029
 3149SOL    HW110681   4.341   2.821   1.020
 3149SOL    HW210682   4.234   2.732   1.106
 3150SOL     OW10683   5.084   2.724   1.045
 3150SOL    HW110684   5.009   2.724   0.979
 3150SOL    HW210685   5.121   2.632   1.054
 3151SOL     OW10686   4.933   2.387   0.275
 3151SOL    HW110687   4.946   2.303   0.329
 3151SOL    HW210688   4.904   2.461   0.335
 3152SOL     OW10689   4.031   2.075   1.231
 3152SOL    HW110690   4.008   2.112   1.321
 3152SOL    HW210691   4.001   1.980   1.225
 3153SOL     OW10692   3.761   3.172   1.282
 3153SOL    HW110693   3.814   3.123   1.350
 3153SOL    HW210694   3.783   3.270   1.287
 3154SOL     OW10695   4.456   2.496   1.064
 3154SOL    HW110696   4.515   2.470   0.988
 3154SOL    HW210697   4.428   2.592   1.053
 3155SOL     OW10698   4.031   1.925   0.618
 3155SOL    HW110699   4.020   2.019   0.651
 3155SOL    HW210700   4.026   1.862   0.695
 3156SOL     OW10701   5.346   2.229   0.374
 3156SOL    HW110702   5.348   2.153   0.438
 3156SOL    HW210703   5.298   2.306   0.414
 3157SOL     OW10704   4.747   2.628   0.966
 3157SOL    HW110705   4.762   2.649   1.062
 3157SOL    HW210706   4.717   2.533   0.957
 3158SOL     OW10707   4.704   3.435   1.700
 3158SOL    HW110708   4.684   3.479   1.612
 3158SOL    HW210709   4.743   3.344   1.684
 3159SOL     OW10710   4.074   2.760   1.804
 3159SOL    HW110711   4.150   2.804   1.852
 3159SOL    HW210712   4.109   2.713   1.722
 3160SOL     OW10713   5.027   2.700   0.042
 3160SOL    HW110714   5.061   2.607   0.057
 3160SOL    HW210715   5.045   2.727  -0.053
 3161SOL     OW10716   4.043   2.672   0.949
 3161SOL    HW110717   4.136   2.708   0.954
 3161SOL    HW210718   4.037   2.587   1.001
 3162SOL     OW10719   4.063   2.371   1.006
 3162SOL    HW110720   4.011   2.288   0.989
 3162SOL    HW210721   4.140   2.376   0.942
 3163SOL     OW10722   4.862   2.242   1.678
 3163SOL    HW110723   4.817   2.305   1.742
 3163SOL    HW210724   4.955   2.273   1.661
 3164SOL     OW10725   4.884   2.069   1.477
 3164SOL    HW110726   4.884   2.133   1.554
 3164SOL    HW210727   4.912   2.117   1.394
 3165SOL     OW10728   4.228   3.430   0.910
 3165SOL    HW110729   4.294   3.504   0.919
 3165SOL    HW210730   4.272   3.351   0.868
 3166SOL     OW10731   4.726   2.658   1.238
 3166SOL    HW110732   4.767   2.626   1.324
 3166SOL    HW210733   4.630   2.631   1.235
 3167SOL     OW10734   3.764   2.406   1.114
 3167SOL    HW110735   3.849   2.373   1.073
 3167SOL    HW210736   3.777   2.421   1.212
 3168SOL     OW10737   3.913   2.382   1.722
 3168SOL    HW110738   3.972   2.342   1.652
 3168SOL    HW210739   3.855   2.453   1.681
 3169SOL     OW10740   4.539   2.434   0.325
 3169SOL    HW110741   4.546   2.345   0.279
 3169SOL    HW210742   4.445   2.468   0.317
 3170SOL     OW10743   3.976   3.426   1.744
 3170SOL    HW110744   3.946   3.483   1.820
 3170SOL    HW210745   3.969   3.329   1.770
 3171SOL     OW10746   4.395   2.326   1.269
 3171SOL    HW110747   4.361   2.237   1.239
 3171SOL    HW210748   4.421   2.380   1.189
 3172SOL     OW10749   4.654   3.540   1.465
 3172SOL    HW110750   4.630   3.522   1.370
 3172SOL    HW210751   4.684   3.634   1.475
 3173SOL     OW10752   4.197   2.362   0.191
 3173SOL    HW110753   4.258   2.442   0.195
 3173SOL    HW210754   4.102   2.393   0.198
 3174SOL     OW10755   3.883   2.999   1.466
 3174SOL    HW110756   3.905   2.938   1.542
 3174SOL    HW210757   3.893   2.950   1.380
 3175SOL     OW10758   5.071   2.921   1.234
 3175SOL    HW110759   5.095   2.858   1.160
 3175SOL    HW210760   4.981   2.961   1.216
 3176SOL     OW10761   4.976   3.593   1.128
 3176SOL    HW110762   5.060   3.598   1.074
 3176SOL    HW210763   4.953   3.497   1.146
 3177SOL     OW10764   3.807   3.120   1.022
 3177SOL    HW110765   3.802   3.119   1.122
 3177SOL    HW210766   3.724   3.079   0.984
 3178SOL     OW10767   4.627   1.948   0.133
 3178SOL    HW110768   4.678   1.949   0.047
 3178SOL    HW210769   4.683   1.906   0.204
 3179SOL     OW10770   3.854   3.656   1.851
 3179SOL    HW110771   3.813   3.582   1.904
 3179SOL    HW210772   3.918   3.707   1.909
 3180SOL     OW10773   5.004   2.789   0.672
 3180SOL    HW110774   5.064   2.708   0.674
 3180SOL    HW210775   5.044   2.858   0.612
 3181SOL     OW10776   4.554   3.135   1.422
 3181SOL    HW110777   4.549   3.168   1.517
 3181SOL    HW210778   4.468   3.154   1.376
 3182SOL     OW10779   3.987   2.188   0.720
 3182SOL    HW110780   3.908   2.239   0.686
 3182SOL    HW210781   3.978   2.173   0.818
 3183SOL     OW10782   4.918   3.474   0.031
 3183SOL    HW110783   4.924   3.381   0.068
 3183SOL    HW210784   4.859   3.474  -0.049
 3184SOL     OW10785   4.546   2.864   1.372
 3184SOL    HW110786   4.586   2.863   1.280
 3184SOL    HW210787   4.556   2.956   1.412
 3185SOL     OW10788   4.096   3.150   1.490
 3185SOL    HW110789   4.083   3.243   1.456
 3185SOL    HW210790   4.012   3.098   1.477
 3186SOL     OW10791   4.763   2.960   0.696
 3186SOL    HW110792   4.693   2.913   0.750
 3186SOL    HW210793   4.822   2.892   0.653
 3187SOL     OW10794   4.738   2.098   0.971
 3187SOL    HW110795   4.730   2.062   0.878
 3187SOL    HW210796   4.736   2.022   1.036
 3188SOL     OW10797   4.314   3.349   0.491
 3188SOL    HW110798   4.356   3.291   0.421
 3188SOL    HW210799   4.270   3.428   0.447
 3189SOL     OW10800   3.979   3.210   0.290
 3189SOL    HW110801   3.883   3.211   0.263
 3189SOL    HW210802   3.991   3.263   0.374
 3190SOL     OW10803   3.829   2.875   1.726
 3190SOL    HW110804   3.752   2.842   1.780
 3190SOL    HW210805   3.914   2.845   1.768
 3191SOL     OW10806   4.396   2.065   1.489
 3191SOL    HW110807   4.486   2.049   1.449
 3191SOL    HW210808   4.404   2.070   1.588
 3192SOL     OW10809   5.164   2.718   1.398
 3192SOL    HW110810   5.107   2.770   1.335
 3192SOL    HW210811   5.260   2.730   1.374
 3193SOL     OW10812   3.796   2.028   0.318
 3193SOL    HW110813   3.779   2.111   0.264
 3193SOL    HW210814   3.886   1.991   0.296
 3194SOL     OW10815   4.337   2.704   1.431
 3194SOL    HW110816   4.393   2.785   1.414
 3194SOL    HW210817   4.396   2.624   1.434
 3195SOL     OW10818   4.440   2.427   1.708
 3195SOL    HW110819   4.459   2.492   1.782
 3195SOL    HW210820   4.500   2.347   1.717
 3196SOL     OW10821   4.949   2.187   0.449
 3196SOL    HW110822   5.014   2.113   0.438
 3196SOL    HW210823   4.969   2.237   0.533
 3197SOL     OW10824   4.318   2.607   0.652
 3197SOL    HW110825   4.368   2.692   0.633
 3197SOL    HW210826   4.230   2.609   0.604
 3198SOL     OW10827   4.583   3.236   0.016
 3198SOL    HW110828   4.537   3.251   0.104
 3198SOL    HW210829   4.627   3.321  -0.014
 3199SOL     OW10830   4.583   2.818   0.861
 3199SOL    HW110831   4.637   2.749   0.909
 3199SOL    HW210832   4.551   2.887   0.927
 3200SOL     OW10833   3.945   3.176   1.844
 3200SOL    HW110834   3.880   3.103   1.823
 3200SOL    HW210835   3.949   3.190   1.942
 3201SOL     OW10836   3.803   3.102   0.653
 3201SOL    HW110837   3.802   3.055   0.741
 3201SOL    HW210838   3.885   3.074   0.602
 3202SOL     OW10839   4.152   2.286   0.520
 3202SOL    HW110840   4.182   2.214   0.458
 3202SOL    HW210841   4.113   2.246   0.603
 3203SOL     OW10842   4.041   2.409   1.280
 3203SOL    HW110843   4.079   2.350   1.352
 3203SOL    HW210844   4.081   2.383   1.192
 3204SOL     OW10845   4.725   1.896   1.154
 3204SOL    HW110846   4.662   1.824   1.123
 3204SOL    HW210847   4.818   1.860   1.154
 3205SOL     OW10848   4.494   3.192   0.301
 3205SOL    HW110849   4.448   3.105   0.318
 3205SOL    HW210850   4.585   3.189   0.342
 3206SOL     OW10851   4.342   3.429   1.284
 3206SOL    HW110852   4.337   3.511   1.341
 3206SOL    HW210853   4.431   3.426   1.239
 3207SOL     OW10854   3.763   2.939   0.300
 3207SOL    HW110855   3.862   2.928   0.291
 3207SOL    HW210856   3.723   2.853   0.332
 3208SOL     OW10857   4.599   3.508   0.337
 3208SOL    HW110858   4.522   3.473   0.283
 3208SOL    HW210859   4.567   3.579   0.399
 3209SOL     OW10860   3.954   2.490   1.975
 3209SOL    HW110861   3.861   2.488   2.012
 3209SOL    HW210862   3.955   2.451   1.883
 3210SOL     OW10863   3.949   2.137   2.858
 3210SOL    HW110864   3.984   2.120   2.950
 3210SOL    HW210865   3.861   2.092   2.846
 3211SOL     OW10866   3.743   2.230   2.509
 3211SOL    HW110867   3.661   2.273   2.548
 3211SOL    HW210868   3.715   2.157   2.446
 3212SOL     OW10869   4.293   3.137   3.027
 3212SOL    HW110870   4.200   3.130   2.990
 3212SOL    HW210871   4.304   3.226   3.071
 3213SOL     OW10872   4.859   2.565   2.579
 3213SOL    HW110873   4.916   2.643   2.554
 3213SOL    HW210874   4.799   2.591   2.655
 3214SOL     OW10875   4.492   3.006   2.885
 3214SOL    HW110876   4.414   3.023   2.945
 3214SOL    HW210877   4.526   3.093   2.849
 3215SOL     OW10878   4.574   2.660   3.685
 3215SOL    HW110879   4.570   2.736   3.750
 3215SOL    HW210880   4.596   2.696   3.594
 3216SOL     OW10881   4.409   2.874   2.527
 3216SOL    HW110882   4.478   2.858   2.597
 3216SOL    HW210883   4.336   2.931   2.565
 3217SOL     OW10884   4.410   3.023   3.665
 3217SOL    HW110885   4.470   3.102   3.679
 3217SOL    HW210886   4.324   3.054   3.624
 3218SOL     OW10887   4.162   2.254   3.361
 3218SOL    HW110888   4.244   2.198   3.370
 3218SOL    HW210889   4.081   2.196   3.365
 3219SOL     OW10890   3.955   3.575   2.345
 3219SOL    HW110891   3.989   3.652   2.399
 3219SOL    HW210892   3.999   3.575   2.255
 3220SOL     OW10893   4.851   3.203   3.552
 3220SOL    HW110894   4.898   3.203   3.640
 3220SOL    HW210895   4.803   3.116   3.541
 3221SOL     OW10896   3.954   3.296   2.400
 3221SOL    HW110897   3.928   3.392   2.400
 3221SOL    HW210898   3.883   3.242   2.445
 3222SOL     OW10899   4.344   3.648   3.301
 3222SOL    HW110900   4.252   3.631   3.336
 3222SOL    HW210901   4.372   3.740   3.327
 3223SOL     OW10902   4.330   2.826   1.985
 3223SOL    HW110903   4.337   2.910   1.931
 3223SOL    HW210904   4.376   2.839   2.073
 3224SOL     OW10905   3.846   2.505   2.425
 3224SOL    HW110906   3.801   2.417   2.442
 3224SOL    HW210907   3.845   2.559   2.509
 3225SOL     OW10908   3.751   3.458   1.979
 3225SOL    HW110909   3.732   3.362   2.000
 3225SOL    HW210910   3.718   3.516   2.054
 3226SOL     OW10911   3.837   2.599   3.459
 3226SOL    HW110912   3.925   2.586   3.504
 3226SOL    HW210913   3.824   2.696   3.437
 3227SOL     OW10914   4.337   3.227   2.588
 3227SOL    HW110915   4.288   3.140   2.597
 3227SOL    HW210916   4.314   3.270   2.501
 3228SOL     OW10917   5.017   3.090   3.285
 3228SOL    HW110918   5.054   3.017   3.227
 3228SOL    HW210919   5.069   3.095   3.370
 3229SOL     OW10920   4.533   1.866   2.364
 3229SOL    HW110921   4.573   1.957   2.355
 3229SOL    HW210922   4.433   1.874   2.370
 3230SOL     OW10923   4.041   2.113   3.663
 3230SOL    HW110924   4.112   2.184   3.669
 3230SOL    HW210925   3.953   2.152   3.691
 3231SOL     OW10926   4.322   2.591   2.132
 3231SOL    HW110927   4.346   2.660   2.064
 3231SOL    HW210928   4.244   2.624   2.186
 3232SOL     OW10929   5.005   2.207   2.806
 3232SOL    HW110930   4.919   2.157   2.793
 3232SOL    HW210931   5.067   2.153   2.862
 3233SOL     OW10932   4.531   2.467   3.327
 3233SOL    HW110933   4.484   2.464   3.416
 3233SOL    HW210934   4.480   2.412   3.261
 3234SOL     OW10935   4.697   2.752   3.434
 3234SOL    HW110936   4.743   2.668   3.405
 3234SOL    HW210937   4.641   2.786   3.359
 3235SOL     OW10938   4.715   2.272   3.104
 3235SOL    HW110939   4.638   2.306   3.158
 3235SOL    HW210940   4.681   2.221   3.025
 3236SOL     OW10941   4.765   2.563   2.291
 3236SOL    HW110942   4.791   2.559   2.387
 3236SOL    HW210943   4.680   2.512   2.277
 3237SOL     OW10944   3.854   3.683   3.433
 3237SOL    HW110945   3.844   3.668   3.532
 3237SOL    HW210946   3.768   3.719   3.397
 3238SOL     OW10947   4.274   2.058   2.747
 3238SOL    HW110948   4.269   2.053   2.847
 3238SOL    HW210949   4.276   2.154   2.718
 3239SOL     OW10950   4.732   3.318   2.339
 3239SOL    HW110951   4.686   3.390   2.287
 3239SOL    HW210952   4.728   3.338   2.437
 3240SOL     OW10953   4.075   3.663   2.715
 3240SOL    HW110954   4.125   3.577   2.721
 3240SOL    HW210955   4.140   3.740   2.712
 3241SOL     OW10956   4.951   3.412   3.368
 3241SOL    HW110957   4.957   3.335   3.432
 3241SOL    HW210958   4.899   3.386   3.288
 3242SOL     OW10959   4.045   2.805   2.104
 3242SOL    HW110960   4.127   2.844   2.062
 3242SOL    HW210961   4.018   2.723   2.055
 3243SOL     OW10962   4.185   3.128   3.589
 3243SOL    HW110963   4.135   3.129   3.503
 3243SOL    HW210964   4.122   3.110   3.665
 3244SOL     OW10965   4.835   3.638   2.099
 3244SOL    HW110966   4.775   3.576   2.149
 3244SOL    HW210967   4.866   3.594   2.014
 3245SOL     OW10968   3.926   2.147   3.360
 3245SOL    HW110969   3.846   2.207   3.347
 3245SOL    HW210970   3.916   2.098   3.446
 3246SOL     OW10971   3.973   3.647   3.103
 3246SOL    HW110972   4.030   3.582   3.153
 3246SOL    HW210973   3.957   3.614   3.010
 3247SOL     OW10974   4.664   3.560   2.766
 3247SOL    HW110975   4.744   3.503   2.787
 3247SOL    HW210976   4.615   3.520   2.689
 3248SOL     OW10977   4.106   2.562   2.342
 3248SOL    HW110978   4.151   2.472   2.339
 3248SOL    HW210979   4.012   2.551   2.375
 3249SOL     OW10980   4.338   1.984   1.979
 3249SOL    HW110981   4.436   1.962   1.986
 3249SOL    HW210982   4.307   1.967   1.886
 3250SOL     OW10983   4.505   2.126   3.611
 3250SOL    HW110984   4.572   2.065   3.654
 3250SOL    HW210985   4.432   2.145   3.676
 3251SOL     OW10986   4.612   3.376   3.057
 3251SOL    HW110987   4.589   3.351   2.963
 3251SOL    HW210988   4.673   3.307   3.096
 3252SOL     OW10989   4.527   3.264   2.786
 3252SOL    HW110990   4.617   3.278   2.744
 3252SOL    HW210991   4.456   3.266   2.715
 3253SOL     OW10992   4.646   2.365   2.761
 3253SOL    HW110993   4.621   2.356   2.665
 3253SOL    HW210994   4.694   2.283   2.792
 3254SOL     OW10995   4.263   1.926   2.374
 3254SOL    HW110996   4.182   1.927   2.432
 3254SOL    HW210997   4.266   2.009   2.319
 3255SOL     OW10998   4.021   1.897   2.033
 3255SOL    HW110999   4.070   1.981   2.012
 3255SOL    HW211000   4.083   1.832   2.078
 3256SOL     OW11001   4.659   2.098   2.342
 3256SOL    HW111002   4.611   2.139   2.264
 3256SOL    HW211003   4.758   2.096   2.323
 3257SOL     OW11004   4.800   2.545   3.326
 3257SOL    HW111005   4.720   2.484   3.329
 3257SOL    HW211006   4.881   2.492   3.302
 3258SOL     OW11007   4.951   3.432   2.655
 3258SOL    HW111008   4.972   3.506   2.590
 3258SOL    HW211009   5.019   3.432   2.728
 3259SOL     OW11010   4.183   3.014   2.603
 3259SOL    HW111011   4.112   2.987   2.668
 3259SOL    HW211012   4.157   2.986   2.510
 3260SOL     OW11013   4.995   3.659   2.453
 3260SOL    HW111014   5.039   3.723   2.389
 3260SOL    HW211015   4.945   3.711   2.523
 3261SOL     OW11016   4.756   2.411   1.878
 3261SOL    HW111017   4.715   2.493   1.839
 3261SOL    HW211018   4.820   2.437   1.951
 3262SOL     OW11019   3.802   2.418   3.248
 3262SOL    HW111020   3.894   2.417   3.207
 3262SOL    HW211021   3.796   2.492   3.315
 3263SOL     OW11022   4.285   2.084   3.009
 3263SOL    HW111023   4.323   2.000   3.046
 3263SOL    HW211024   4.197   2.103   3.053
 3264SOL     OW11025   4.590   2.316   2.504
 3264SOL    HW111026   4.558   2.388   2.442
 3264SOL    HW211027   4.614   2.235   2.451
 3265SOL     OW11028   4.741   1.901   2.615
 3265SOL    HW111029   4.669   1.906   2.546
 3265SOL    HW211030   4.717   1.832   2.684
 3266SOL     OW11031   4.212   3.247   2.036
 3266SOL    HW111032   4.125   3.232   2.083
 3266SOL    HW211033   4.195   3.273   1.941
 3267SOL     OW11034   5.388   3.142   2.519
 3267SOL    HW111035   5.487   3.150   2.533
 3267SOL    HW211036   5.343   3.226   2.550
 3268SOL     OW11037   4.251   2.118   2.190
 3268SOL    HW111038   4.278   2.059   2.115
 3268SOL    HW211039   4.251   2.213   2.159
 3269SOL     OW11040   4.788   3.209   3.202
 3269SOL    HW111041   4.708   3.186   3.257
 3269SOL    HW211042   4.871   3.183   3.251
 3270SOL     OW11043   4.835   3.057   2.962
 3270SOL    HW111044   4.795   3.101   3.043
 3270SOL    HW211045   4.794   3.094   2.879
 3271SOL     OW11046   4.639   1.951   3.264
 3271SOL    HW111047   4.664   1.931   3.169
 3271SOL    HW211048   4.711   2.007   3.306
 3272SOL     OW11049   4.704   2.978   3.581
 3272SOL    HW111050   4.605   2.984   3.591
 3272SOL    HW211051   4.727   2.898   3.525
 3273SOL     OW11052   4.429   2.912   2.230
 3273SOL    HW111053   4.415   2.919   2.329
 3273SOL    HW211054   4.513   2.861   2.212
 3274SOL     OW11055   4.134   2.675   3.113
 3274SOL    HW111056   4.220   2.687   3.163
 3274SOL    HW211057   4.092   2.588   3.140
 3275SOL     OW11058   4.998   2.248   3.124
 3275SOL    HW111059   5.019   2.322   3.188
 3275SOL    HW211060   4.909   2.265   3.081
 3276SOL     OW11061   3.788   3.426   3.193
 3276SOL    HW111062   3.742   3.508   3.159
 3276SOL    HW211063   3.886   3.445   3.202
 3277SOL     OW11064   4.091   2.962   2.363
 3277SOL    HW111065   4.084   3.045   2.307
 3277SOL    HW211066   4.095   2.882   2.303
 3278SOL     OW11067   4.290   2.399   2.727
 3278SOL    HW111068   4.302   2.465   2.653
 3278SOL    HW211069   4.336   2.433   2.810
 3279SOL     OW11070   4.976   3.210   2.250
 3279SOL    HW111071   5.026   3.287   2.290
 3279SOL    HW211072   4.881   3.212   2.282
 3280SOL     OW11073   4.078   3.372   3.191
 3280SOL    HW111074   4.057   3.328   3.104
 3280SOL    HW211075   4.175   3.398   3.194
 3281SOL     OW11076   4.126   2.613   3.460
 3281SOL    HW111077   4.194   2.668   3.413
 3281SOL    HW211078   4.166   2.525   3.487
 3282SOL     OW11079   4.737   1.967   3.632
 3282SOL    HW111080   4.743   2.052   3.580
 3282SOL    HW211081   4.769   1.891   3.575
 3283SOL     OW11082   4.228   1.912   3.602
 3283SOL    HW111083   4.186   1.855   3.532
 3283SOL    HW211084   4.162   1.981   3.634
 3284SOL     OW11085   5.084   2.724   2.907
 3284SOL    HW111086   5.009   2.724   2.841
 3284SOL    HW211087   5.121   2.632   2.916
 3285SOL     OW11088   4.933   2.387   2.137
 3285SOL    HW111089   4.946   2.303   2.191
 3285SOL    HW211090   4.904   2.461   2.197
 3286SOL     OW11091   4.031   2.075   3.093
 3286SOL    HW111092   4.008   2.112   3.183
 3286SOL    HW211093   4.001   1.980   3.087
 3287SOL     OW11094   3.761   3.172   3.144
 3287SOL    HW111095   3.814   3.123   3.212
 3287SOL    HW211096   3.783   3.270   3.149
 3288SOL     OW11097   4.456   2.496   2.926
 3288SOL    HW111098   4.515   2.470   2.850
 3288SOL    HW211099   4.428   2.592   2.915
 3289SOL     OW11100   4.031   1.925   2.480
 3289SOL    HW111101   4.020   2.019   2.513
 3289SOL    HW211102   4.026   1.862   2.557
 3290SOL     OW11103   5.346   2.229   2.236
 3290SOL    HW111104   5.348   2.153   2.300
 3290SOL    HW211105   5.298   2.306   2.276
 3291SOL     OW11106   4.747   2.628   2.828
 3291SOL    HW111107   4.762   2.649   2.924
 3291SOL    HW211108   4.717   2.533   2.819
 3292SOL     OW11109   4.074   2.760   3.666
 3292SOL    HW111110   4.150   2.804   3.714
 3292SOL    HW211111   4.109   2.713   3.584
 3293SOL     OW11112   5.027   2.700   1.904
 3293SOL    HW111113   5.061   2.607   1.919
 3293SOL    HW211114   5.045   2.727   1.809
 3294SOL     OW11115   4.792   3.195   2.711
 3294SOL    HW111116   4.799   3.111   2.656
 3294SOL    HW211117   4.854   3.264   2.675
 3295SOL     OW11118   4.043   2.672   2.811
 3295SOL    HW111119   4.136   2.708   2.816
 3295SOL    HW211120   4.037   2.587   2.863
 3296SOL     OW11121   4.063   2.371   2.868
 3296SOL    HW111122   4.011   2.288   2.851
 3296SOL    HW211123   4.140   2.376   2.804
 3297SOL     OW11124   4.862   2.242   3.540
 3297SOL    HW111125   4.817   2.305   3.604
 3297SOL    HW211126   4.955   2.273   3.523
 3298SOL     OW11127   4.884   2.069   3.339
 3298SOL    HW111128   4.884   2.133   3.416
 3298SOL    HW211129   4.912   2.117   3.256
 3299SOL     OW11130   3.732   3.188   2.062
 3299SOL    HW111131   3.639   3.209   2.031
 3299SOL    HW211132   3.742   3.089   2.075
 3300SOL     OW11133   4.228   3.430   2.772
 3300SOL    HW111134   4.294   3.504   2.781
 3300SOL    HW211135   4.272   3.351   2.730
 3301SOL     OW11136   4.726   2.658   3.100
 3301SOL    HW111137   4.767   2.626   3.186
 3301SOL    HW211138   4.630   2.631   3.097
 3302SOL     OW11139   3.764   2.406   2.976
 3302SOL    HW111140   3.849   2.373   2.935
 3302SOL    HW211141   3.777   2.421   3.074
 3303SOL     OW11142   3.913   2.382   3.584
 3303SOL    HW111143   3.972   2.342   3.514
 3303SOL    HW211144   3.855   2.453   3.543
 3304SOL     OW11145   4.539   2.434   2.187
 3304SOL    HW111146   4.546   2.345   2.141
 3304SOL    HW211147   4.445   2.468   2.179
 3305SOL     OW11148   4.395   2.326   3.131
 3305SOL    HW111149   4.361   2.237   3.101
 3305SOL    HW211150   4.421   2.380   3.051
 3306SOL     OW11151   4.197   2.362   2.053
 3306SOL    HW111152   4.258   2.442   2.057
 3306SOL    HW211153   4.102   2.393   2.060
 3307SOL     OW11154   3.883   2.999   3.328
 3307SOL    HW111155   3.905   2.938   3.404
 3307SOL    HW211156   3.893   2.950   3.242
 3308SOL     OW11157   5.071   2.921   3.096
 3308SOL    HW111158   5.095   2.858   3.022
 3308SOL    HW211159   4.981   2.961   3.078
 3309SOL     OW11160   4.976   3.593   2.990
 3309SOL    HW111161   5.060   3.598   2.936
 3309SOL    HW211162   4.953   3.497   3.008
 3310SOL     OW11163   5.112   3.435   2.339
 3310SOL    HW111164   5.179   3.447   2.265
 3310SOL    HW211165   5.072   3.524   2.362
 3311SOL     OW11166   4.554   3.135   3.284
 3311SOL    HW111167   4.549   3.168   3.379
 3311SOL    HW211168   4.468   3.154   3.238
 3312SOL     OW11169   3.987   2.188   2.582
 3312SOL    HW111170   3.908   2.239   2.548
 3312SOL    HW211171   3.978   2.173   2.680
 3313SOL     OW11172   4.918   3.474   1.893
 3313SOL    HW111173   4.924   3.381   1.930
 3313SOL    HW211174   4.859   3.474   1.813
 3314SOL     OW11175   4.546   2.864   3.234
 3314SOL    HW111176   4.586   2.863   3.142
 3314SOL    HW211177   4.556   2.956   3.274
 3315SOL     OW11178   4.640   2.772   2.153
 3315SOL    HW111179   4.703   2.810   2.085
 3315SOL    HW211180   4.680   2.689   2.192
 3316SOL     OW11181   4.763   2.960   2.558
 3316SOL    HW111182   4.693   2.913   2.612
 3316SOL    HW211183   4.822   2.892   2.515
 3317SOL     OW11184   4.738   2.098   2.833
 3317SOL    HW111185   4.730   2.062   2.740
 3317SOL    HW211186   4.736   2.022   2.898
 3318SOL     OW11187   4.314   3.349   2.353
 3318SOL    HW111188   4.356   3.291   2.283
 3318SOL    HW211189   4.270   3.428   2.309
 3319SOL     OW11190   3.979   3.210   2.152
 3319SOL    HW111191   3.883   3.211   2.125
 3319SOL    HW211192   3.991   3.263   2.236
 3320SOL     OW11193   3.829   2.875   3.588
 3320SOL    HW111194   3.752   2.842   3.642
 3320SOL    HW211195   3.914   2.845   3.630
 3321SOL     OW11196   4.396   2.065   3.351
 3321SOL    HW111197   4.486   2.049   3.311
 3321SOL    HW211198   4.404   2.070   3.450
 3322SOL     OW11199   3.799   2.207   1.895
 3322SOL    HW111200   3.707   2.179   1.866
 3322SOL    HW211201   3.830   2.284   1.839
 3323SOL     OW11202   5.164   2.718   3.260
 3323SOL    HW111203   5.107   2.770   3.197
 3323SOL    HW211204   5.260   2.730   3.236
 3324SOL     OW11205   3.796   2.028   2.180
 3324SOL    HW111206   3.779   2.111   2.126
 3324SOL    HW211207   3.886   1.991   2.158
 3325SOL     OW11208   4.337   2.704   3.293
 3325SOL    HW111209   4.393   2.785   3.276
 3325SOL    HW211210   4.396   2.624   3.296
 3326SOL     OW11211   4.440   2.427   3.570
 3326SOL    HW111212   4.459   2.492   3.644
 3326SOL    HW211213   4.500   2.347   3.579
 3327SOL     OW11214   4.114   3.603   3.422
 3327SOL    HW111215   4.023   3.644   3.420
 3327SOL    HW211216   4.107   3.509   3.454
 3328SOL     OW11217   4.949   2.187   2.311
 3328SOL    HW111218   5.014   2.113   2.300
 3328SOL    HW211219   4.969   2.237   2.395
 3329SOL     OW11220   4.318   2.607   2.514
 3329SOL    HW111221   4.368   2.692   2.495
 3329SOL    HW211222   4.230   2.609   2.466
 3330SOL     OW11223   4.583   3.236   1.878
 3330SOL    HW111224   4.537   3.251   1.966
 3330SOL    HW211225   4.627   3.321   1.848
 3331SOL     OW11226   4.385   3.652   2.815
 3331SOL    HW111227   4.339   3.740   2.802
 3331SOL    HW211228   4.484   3.664   2.808
 3332SOL     OW11229   4.583   2.818   2.723
 3332SOL    HW111230   4.637   2.749   2.771
 3332SOL    HW211231   4.551   2.887   2.789
 3333SOL     OW11232   4.807   2.846   1.949
 3333SOL    HW111233   4.784   2.899   1.867
 3333SOL    HW211234   4.888   2.790   1.930
 3334SOL     OW11235   4.396   3.253   3.486
 3334SOL    HW111236   4.318   3.203   3.524
 3334SOL    HW211237   4.393   3.348   3.517
 3335SOL     OW11238   4.152   2.286   2.382
 3335SOL    HW111239   4.182   2.214   2.320
 3335SOL    HW211240   4.113   2.246   2.465
 3336SOL     OW11241   4.041   2.409   3.142
 3336SOL    HW111242   4.079   2.350   3.214
 3336SOL    HW211243   4.081   2.383   3.054
 3337SOL     OW11244   4.536   3.448   2.549
 3337SOL    HW111245   4.568   3.458   2.455
 3337SOL    HW211246   4.457   3.386   2.551
 3338SOL     OW11247   4.725   1.896   3.016
 3338SOL    HW111248   4.662   1.824   2.985
 3338SOL    HW211249   4.818   1.860   3.016
 3339SOL     OW11250   4.494   3.192   2.163
 3339SOL    HW111251   4.448   3.105   2.180
 3339SOL    HW211252   4.585   3.189   2.204
 3340SOL     OW11253   4.342   3.429   3.146
 3340SOL    HW111254   4.337   3.511   3.203
 3340SOL    HW211255   4.431   3.426   3.101
 3341SOL     OW11256   3.763   2.939   2.162
 3341SOL    HW111257   3.862   2.928   2.153
 3341SOL    HW211258   3.723   2.853   2.194
 3342SOL     OW11259   4.599   3.508   2.199
 3342SOL    HW111260   4.522   3.473   2.145
 3342SOL    HW211261   4.567   3.579   2.261
 3343SOL     OW11262   3.954   2.490   3.837
 3343SOL    HW111263   3.861   2.488   3.874
 3343SOL    HW211264   3.955   2.451   3.745
 3344SOL     OW11265   3.949   2.137   4.720
 3344SOL    HW111266   3.984   2.120   4.812
 3344SOL    HW211267   3.861   2.092   4.708
 3345SOL     OW11268   3.743   2.230   4.371
 3345SOL    HW111269   3.661   2.273   4.410
 3345SOL    HW211270   3.715   2.157   4.308
 3346SOL     OW11271   4.293   3.137   4.889
 3346SOL    HW111272   4.200   3.130   4.852
 3346SOL    HW211273   4.304   3.226   4.933
 3347SOL     OW11274   4.859   2.565   4.441
 3347SOL    HW111275   4.916   2.643   4.416
 3347SOL    HW211276   4.799   2.591   4.517
 3348SOL     OW11277   4.492   3.006   4.747
 3348SOL    HW111278   4.414   3.023   4.807
 3348SOL    HW211279   4.526   3.093   4.711
 3349SOL     OW11280   4.409   2.874   4.389
 3349SOL    HW111281   4.478   2.858   4.459
 3349SOL    HW211282   4.336   2.931   4.427
 3350SOL     OW11283   4.059   3.297   4.785
 3350SOL    HW111284   3.981   3.266   4.732
 3350SOL    HW211285   4.117   3.355   4.728
 3351SOL     OW11286   3.955   3.575   4.207
 3351SOL    HW111287   3.989   3.652   4.261
 3351SOL    HW211288   3.999   3.575   4.117
 3352SOL     OW11289   3.954   3.296   4.262
 3352SOL    HW111290   3.928   3.392   4.262
 3352SOL    HW211291   3.883   3.242   4.307
 3353SOL     OW11292   3.964   2.953   4.610
 3353SOL    HW111293   3.978   2.869   4.662
 3353SOL    HW211294   3.909   3.017   4.665
 3354SOL     OW11295   4.344   3.648   5.163
 3354SOL    HW111296   4.252   3.631   5.198
 3354SOL    HW211297   4.372   3.740   5.189
 3355SOL     OW11298   4.330   2.826   3.847
 3355SOL    HW111299   4.337   2.910   3.793
 3355SOL    HW211300   4.376   2.839   3.935
 3356SOL     OW11301   3.846   2.505   4.287
 3356SOL    HW111302   3.801   2.417   4.304
 3356SOL    HW211303   3.845   2.559   4.371
 3357SOL     OW11304   4.337   3.227   4.450
 3357SOL    HW111305   4.288   3.140   4.459
 3357SOL    HW211306   4.314   3.270   4.363
 3358SOL     OW11307   3.921   2.838   4.988
 3358SOL    HW111308   4.010   2.793   4.974
 3358SOL    HW211309   3.848   2.773   4.969
 3359SOL     OW11310   4.322   2.591   3.994
 3359SOL    HW111311   4.346   2.660   3.926
 3359SOL    HW211312   4.244   2.624   4.048
 3360SOL     OW11313   5.005   2.207   4.668
 3360SOL    HW111314   4.919   2.157   4.655
 3360SOL    HW211315   5.067   2.153   4.724
 3361SOL     OW11316   4.715   2.272   4.966
 3361SOL    HW111317   4.638   2.306   5.020
 3361SOL    HW211318   4.681   2.221   4.887
 3362SOL     OW11319   4.765   2.563   4.153
 3362SOL    HW111320   4.791   2.559   4.249
 3362SOL    HW211321   4.680   2.512   4.139
 3363SOL     OW11322   3.800   2.673   4.513
 3363SOL    HW111323   3.899   2.661   4.522
 3363SOL    HW211324   3.776   2.768   4.534
 3364SOL     OW11325   4.589   2.210   3.919
 3364SOL    HW111326   4.648   2.273   3.870
 3364SOL    HW211327   4.608   2.116   3.890
 3365SOL     OW11328   4.274   2.058   4.609
 3365SOL    HW111329   4.269   2.053   4.709
 3365SOL    HW211330   4.276   2.154   4.580
 3366SOL     OW11331   4.732   3.318   4.201
 3366SOL    HW111332   4.686   3.390   4.149
 3366SOL    HW211333   4.728   3.338   4.299
 3367SOL     OW11334   4.075   3.663   4.577
 3367SOL    HW111335   4.125   3.577   4.583
 3367SOL    HW211336   4.140   3.740   4.574
 3368SOL     OW11337   4.045   2.805   3.966
 3368SOL    HW111338   4.127   2.844   3.924
 3368SOL    HW211339   4.018   2.723   3.917
 3369SOL     OW11340   4.835   3.638   3.961
 3369SOL    HW111341   4.775   3.576   4.011
 3369SOL    HW211342   4.866   3.594   3.876
 3370SOL     OW11343   4.664   3.560   4.628
 3370SOL    HW111344   4.744   3.503   4.649
 3370SOL    HW211345   4.615   3.520   4.551
 3371SOL     OW11346   4.106   2.562   4.204
 3371SOL    HW111347   4.151   2.472   4.201
 3371SOL    HW211348   4.012   2.551   4.237
 3372SOL     OW11349   4.338   1.984   3.841
 3372SOL    HW111350   4.436   1.962   3.848
 3372SOL    HW211351   4.307   1.967   3.748
 3373SOL     OW11352   4.527   3.264   4.648
 3373SOL    HW111353   4.617   3.278   4.606
 3373SOL    HW211354   4.456   3.266   4.577
 3374SOL     OW11355   4.646   2.365   4.623
 3374SOL    HW111356   4.621   2.356   4.527
 3374SOL    HW211357   4.694   2.283   4.654
 3375SOL     OW11358   4.263   1.926   4.236
 3375SOL    HW111359   4.182   1.927   4.294
 3375SOL    HW211360   4.266   2.009   4.181
 3376SOL     OW11361   4.021   1.897   3.895
 3376SOL    HW111362   4.070   1.981   3.874
 3376SOL    HW211363   4.083   1.832   3.940
 3377SOL     OW11364   4.659   2.098   4.204
 3377SOL    HW111365   4.611   2.139   4.126
 3377SOL    HW211366   4.758   2.096   4.185
 3378SOL     OW11367   4.951   3.432   4.517
 3378SOL    HW111368   4.972   3.506   4.452
 3378SOL    HW211369   5.019   3.432   4.590
 3379SOL     OW11370   4.183   3.014   4.465
 3379SOL    HW111371   4.112   2.987   4.530
 3379SOL    HW211372   4.157   2.986   4.372
 3380SOL     OW11373   4.995   3.659   4.315
 3380SOL    HW111374   5.039   3.723   4.251
 3380SOL    HW211375   4.945   3.711   4.385
 3381SOL     OW11376   4.756   2.411   3.740
 3381SOL    HW111377   4.715   2.493   3.701
 3381SOL    HW211378   4.820   2.437   3.813
 3382SOL     OW11379   4.285   2.084   4.871
 3382SOL    HW111380   4.323   2.000   4.908
 3382SOL    HW211381   4.197   2.103   4.915
 3383SOL     OW11382   4.590   2.316   4.366
 3383SOL    HW111383   4.558   2.388   4.304
 3383SOL    HW211384   4.614   2.235   4.313
 3384SOL     OW11385   4.741   1.901   4.477
 3384SOL    HW111386   4.669   1.906   4.408
 3384SOL    HW211387   4.717   1.832   4.546
 3385SOL     OW11388   4.212   3.247   3.898
 3385SOL    HW111389   4.125   3.232   3.945
 3385SOL    HW211390   4.195   3.273   3.803
 3386SOL     OW11391   5.388   3.142   4.381
 3386SOL    HW111392   5.487   3.150   4.395
 3386SOL    HW211393   5.343   3.226   4.412
 3387SOL     OW11394   4.251   2.118   4.052
 3387SOL    HW111395   4.278   2.059   3.977
 3387SOL    HW211396   4.251   2.213   4.021
 3388SOL     OW11397   4.835   3.057   4.824
 3388SOL    HW111398   4.795   3.101   4.905
 3388SOL    HW211399   4.794   3.094   4.741
 3389SOL     OW11400   4.429   2.912   4.092
 3389SOL    HW111401   4.415   2.919   4.191
 3389SOL    HW211402   4.513   2.861   4.074
 3390SOL     OW11403   4.091   2.962   4.225
 3390SOL    HW111404   4.084   3.045   4.169
 3390SOL    HW211405   4.095   2.882   4.165
 3391SOL     OW11406   4.976   3.210   4.112
 3391SOL    HW111407   5.026   3.287   4.152
 3391SOL    HW211408   4.881   3.212   4.144
 3392SOL     OW11409   5.084   2.724   4.769
 3392SOL    HW111410   5.009   2.724   4.703
 3392SOL    HW211411   5.121   2.632   4.778
 3393SOL     OW11412   4.933   2.387   3.999
 3393SOL    HW111413   4.946   2.303   4.053
 3393SOL    HW211414   4.904   2.461   4.059
 3394SOL     OW11415   4.031   2.075   4.955
 3394SOL    HW111416   4.008   2.112   5.045
 3394SOL    HW211417   4.001   1.980   4.949
 3395SOL     OW11418   3.761   3.172   5.006
 3395SOL    HW111419   3.814   3.123   5.074
 3395SOL    HW211420   3.783   3.270   5.011
 3396SOL     OW11421   5.346   2.229   4.098
 3396SOL    HW111422   5.348   2.153   4.162
 3396SOL    HW211423   5.298   2.306   4.138
 3397SOL     OW11424   4.747   2.628   4.690
 3397SOL    HW111425   4.762   2.649   4.786
 3397SOL    HW211426   4.717   2.533   4.681
 3398SOL     OW11427   5.027   2.700   3.766
 3398SOL    HW111428   5.061   2.607   3.781
 3398SOL    HW211429   5.045   2.727   3.671
 3399SOL     OW11430   4.792   3.195   4.573
 3399SOL    HW111431   4.799   3.111   4.518
 3399SOL    HW211432   4.854   3.264   4.537
 3400SOL     OW11433   4.884   2.069   5.201
 3400SOL    HW111434   4.884   2.133   5.278
 3400SOL    HW211435   4.912   2.117   5.118
 3401SOL     OW11436   4.228   3.430   4.634
 3401SOL    HW111437   4.294   3.504   4.643
 3401SOL    HW211438   4.272   3.351   4.592
 3402SOL     OW11439   4.539   2.434   4.049
 3402SOL    HW111440   4.546   2.345   4.003
 3402SOL    HW211441   4.445   2.468   4.041
 3403SOL     OW11442   4.654   3.540   5.189
 3403SOL    HW111443   4.630   3.522   5.094
 3403SOL    HW211444   4.684   3.634   5.199
 3404SOL     OW11445   4.197   2.362   3.915
 3404SOL    HW111446   4.258   2.442   3.919
 3404SOL    HW211447   4.102   2.393   3.922
 3405SOL     OW11448   5.071   2.921   4.958
 3405SOL    HW111449   5.095   2.858   4.884
 3405SOL    HW211450   4.981   2.961   4.940
 3406SOL     OW11451   4.976   3.593   4.852
 3406SOL    HW111452   5.060   3.598   4.798
 3406SOL    HW211453   4.953   3.497   4.870
 3407SOL     OW11454   3.807   3.120   4.746
 3407SOL    HW111455   3.802   3.119   4.846
 3407SOL    HW211456   3.724   3.079   4.708
 3408SOL     OW11457   5.112   3.435   4.201
 3408SOL    HW111458   5.179   3.447   4.127
 3408SOL    HW211459   5.072   3.524   4.224
 3409SOL     OW11460   5.004   2.789   4.396
 3409SOL    HW111461   5.064   2.708   4.398
 3409SOL    HW211462   5.044   2.858   4.336
 3410SOL     OW11463   4.396   3.478   3.878
 3410SOL    HW111464   4.405   3.488   3.779
 3410SOL    HW211465   4.356   3.389   3.899
 3411SOL     OW11466   3.987   2.188   4.444
 3411SOL    HW111467   3.908   2.239   4.410
 3411SOL    HW211468   3.978   2.173   4.542
 3412SOL     OW11469   4.640   2.772   4.015
 3412SOL    HW111470   4.703   2.810   3.947
 3412SOL    HW211471   4.680   2.689   4.054
 3413SOL     OW11472   4.763   2.960   4.420
 3413SOL    HW111473   4.693   2.913   4.474
 3413SOL    HW211474   4.822   2.892   4.377
 3414SOL     OW11475   4.738   2.098   4.695
 3414SOL    HW111476   4.730   2.062   4.602
 3414SOL    HW211477   4.736   2.022   4.760
 3415SOL     OW11478   4.314   3.349   4.215
 3415SOL    HW111479   4.356   3.291   4.145
 3415SOL    HW211480   4.270   3.428   4.171
 3416SOL     OW11481   3.979   3.210   4.014
 3416SOL    HW111482   3.883   3.211   3.987
 3416SOL    HW211483   3.991   3.263   4.098
 3417SOL     OW11484   3.799   2.207   3.757
 3417SOL    HW111485   3.707   2.179   3.728
 3417SOL    HW211486   3.830   2.284   3.701
 3418SOL     OW11487   3.796   2.028   4.042
 3418SOL    HW111488   3.779   2.111   3.988
 3418SOL    HW211489   3.886   1.991   4.020
 3419SOL     OW11490   4.949   2.187   4.173
 3419SOL    HW111491   5.014   2.113   4.162
 3419SOL    HW211492   4.969   2.237   4.257
 3420SOL     OW11493   4.583   3.236   3.740
 3420SOL    HW111494   4.537   3.251   3.828
 3420SOL    HW211495   4.627   3.321   3.710
 3421SOL     OW11496   4.385   3.652   4.677
 3421SOL    HW111497   4.339   3.740   4.664
 3421SOL    HW211498   4.484   3.664   4.670
 3422SOL     OW11499   4.583   2.818   4.585
 3422SOL    HW111500   4.637   2.749   4.633
 3422SOL    HW211501   4.551   2.887   4.651
 3423SOL     OW11502   4.807   2.846   3.811
 3423SOL    HW111503   4.784   2.899   3.729
 3423SOL    HW211504   4.888   2.790   3.792
 3424SOL     OW11505   3.803   3.102   4.377
 3424SOL    HW111506   3.802   3.055   4.465
 3424SOL    HW211507   3.885   3.074   4.326
 3425SOL     OW11508   4.152   2.286   4.244
 3425SOL    HW111509   4.182   2.214   4.182
 3425SOL    HW211510   4.113   2.246   4.327
 3426SOL     OW11511   4.536   3.448   4.411
 3426SOL    HW111512   4.568   3.458   4.317
 3426SOL    HW211513   4.457   3.386   4.413
 3427SOL     OW11514   4.725   1.896   4.878
 3427SOL    HW111515   4.662   1.824   4.847
 3427SOL    HW211516   4.818   1.860   4.878
 3428SOL     OW11517   4.494   3.192   4.025
 3428SOL    HW111518   4.448   3.105   4.042
 3428SOL    HW211519   4.585   3.189   4.066
 3429SOL     OW11520   5.076   1.914   3.892
 3429SOL    HW111521   5.111   1.873   3.808
 3429SOL    HW211522   4.986   1.876   3.912
 3430SOL     OW11523   4.599   3.508   4.061
 3430SOL    HW111524   4.522   3.473   4.007
 3430SOL    HW211525   4.567   3.579   4.123
 3431SOL     OW11526   3.954   4.352   0.113
 3431SOL    HW111527   3.861   4.350   0.150
 3431SOL    HW211528   3.955   4.313   0.021
 3432SOL     OW11529   3.949   3.999   0.996
 3432SOL    HW111530   3.984   3.982   1.088
 3432SOL    HW211531   3.861   3.954   0.984
 3433SOL     OW11532   3.743   4.092   0.647
 3433SOL    HW111533   3.661   4.135   0.686
 3433SOL    HW211534   3.715   4.019   0.584
 3434SOL     OW11535   4.293   4.999   1.165
 3434SOL    HW111536   4.200   4.992   1.128
 3434SOL    HW211537   4.304   5.088   1.209
 3435SOL     OW11538   4.859   4.427   0.717
 3435SOL    HW111539   4.916   4.505   0.692
 3435SOL    HW211540   4.799   4.453   0.793
 3436SOL     OW11541   4.574   4.522   1.823
 3436SOL    HW111542   4.570   4.598   1.888
 3436SOL    HW211543   4.596   4.558   1.732
 3437SOL     OW11544   4.410   4.885   1.803
 3437SOL    HW111545   4.470   4.964   1.817
 3437SOL    HW211546   4.324   4.916   1.762
 3438SOL     OW11547   4.059   5.159   1.061
 3438SOL    HW111548   3.981   5.128   1.008
 3438SOL    HW211549   4.117   5.217   1.004
 3439SOL     OW11550   4.330   4.688   0.123
 3439SOL    HW111551   4.337   4.772   0.069
 3439SOL    HW211552   4.376   4.701   0.211
 3440SOL     OW11553   3.846   4.367   0.563
 3440SOL    HW111554   3.801   4.279   0.580
 3440SOL    HW211555   3.845   4.421   0.647
 3441SOL     OW11556   3.837   4.461   1.597
 3441SOL    HW111557   3.925   4.448   1.642
 3441SOL    HW211558   3.824   4.558   1.575
 3442SOL     OW11559   5.017   4.952   1.423
 3442SOL    HW111560   5.054   4.879   1.365
 3442SOL    HW211561   5.069   4.957   1.508
 3443SOL     OW11562   4.533   3.728   0.502
 3443SOL    HW111563   4.573   3.819   0.493
 3443SOL    HW211564   4.433   3.736   0.508
 3444SOL     OW11565   3.921   4.700   1.264
 3444SOL    HW111566   4.010   4.655   1.250
 3444SOL    HW211567   3.848   4.635   1.245
 3445SOL     OW11568   4.322   4.453   0.270
 3445SOL    HW111569   4.346   4.522   0.202
 3445SOL    HW211570   4.244   4.486   0.324
 3446SOL     OW11571   5.005   4.069   0.944
 3446SOL    HW111572   4.919   4.019   0.931
 3446SOL    HW211573   5.067   4.015   1.000
 3447SOL     OW11574   4.531   4.329   1.465
 3447SOL    HW111575   4.484   4.326   1.554
 3447SOL    HW211576   4.480   4.274   1.399
 3448SOL     OW11577   4.697   4.614   1.572
 3448SOL    HW111578   4.743   4.530   1.543
 3448SOL    HW211579   4.641   4.648   1.497
 3449SOL     OW11580   4.765   4.425   0.429
 3449SOL    HW111581   4.791   4.421   0.525
 3449SOL    HW211582   4.680   4.374   0.415
 3450SOL     OW11583   3.800   4.535   0.789
 3450SOL    HW111584   3.899   4.523   0.798
 3450SOL    HW211585   3.776   4.630   0.810
 3451SOL     OW11586   4.589   4.072   0.195
 3451SOL    HW111587   4.648   4.135   0.146
 3451SOL    HW211588   4.608   3.978   0.166
 3452SOL     OW11589   4.274   3.920   0.885
 3452SOL    HW111590   4.269   3.915   0.985
 3452SOL    HW211591   4.276   4.016   0.856
 3453SOL     OW11592   4.045   4.667   0.242
 3453SOL    HW111593   4.127   4.706   0.200
 3453SOL    HW211594   4.018   4.585   0.193
 3454SOL     OW11595   3.926   4.009   1.498
 3454SOL    HW111596   3.846   4.069   1.485
 3454SOL    HW211597   3.916   3.960   1.584
 3455SOL     OW11598   4.106   4.424   0.480
 3455SOL    HW111599   4.151   4.334   0.477
 3455SOL    HW211600   4.012   4.413   0.513
 3456SOL     OW11601   4.505   3.988   1.749
 3456SOL    HW111602   4.572   3.927   1.792
 3456SOL    HW211603   4.432   4.007   1.814
 3457SOL     OW11604   4.646   4.227   0.899
 3457SOL    HW111605   4.621   4.218   0.803
 3457SOL    HW211606   4.694   4.145   0.930
 3458SOL     OW11607   4.263   3.788   0.512
 3458SOL    HW111608   4.182   3.789   0.570
 3458SOL    HW211609   4.266   3.871   0.457
 3459SOL     OW11610   4.021   3.759   0.171
 3459SOL    HW111611   4.070   3.843   0.150
 3459SOL    HW211612   4.083   3.694   0.216
 3460SOL     OW11613   4.659   3.960   0.480
 3460SOL    HW111614   4.611   4.001   0.402
 3460SOL    HW211615   4.758   3.958   0.461
 3461SOL     OW11616   4.800   4.407   1.464
 3461SOL    HW111617   4.720   4.346   1.467
 3461SOL    HW211618   4.881   4.354   1.440
 3462SOL     OW11619   4.951   5.294   0.793
 3462SOL    HW111620   4.972   5.368   0.728
 3462SOL    HW211621   5.019   5.294   0.866
 3463SOL     OW11622   4.756   4.273   0.016
 3463SOL    HW111623   4.715   4.355  -0.023
 3463SOL    HW211624   4.820   4.299   0.089
 3464SOL     OW11625   3.802   4.280   1.386
 3464SOL    HW111626   3.894   4.279   1.345
 3464SOL    HW211627   3.796   4.354   1.453
 3465SOL     OW11628   4.590   4.178   0.642
 3465SOL    HW111629   4.558   4.250   0.580
 3465SOL    HW211630   4.614   4.097   0.589
 3466SOL     OW11631   4.741   3.763   0.753
 3466SOL    HW111632   4.669   3.768   0.684
 3466SOL    HW211633   4.717   3.694   0.822
 3467SOL     OW11634   4.251   3.980   0.328
 3467SOL    HW111635   4.278   3.921   0.253
 3467SOL    HW211636   4.251   4.075   0.297
 3468SOL     OW11637   4.639   3.813   1.402
 3468SOL    HW111638   4.664   3.793   1.307
 3468SOL    HW211639   4.711   3.869   1.444
 3469SOL     OW11640   4.704   4.840   1.719
 3469SOL    HW111641   4.605   4.846   1.729
 3469SOL    HW211642   4.727   4.760   1.663
 3470SOL     OW11643   4.429   4.774   0.368
 3470SOL    HW111644   4.415   4.781   0.467
 3470SOL    HW211645   4.513   4.723   0.350
 3471SOL     OW11646   4.134   4.537   1.251
 3471SOL    HW111647   4.220   4.549   1.301
 3471SOL    HW211648   4.092   4.450   1.278
 3472SOL     OW11649   4.998   4.110   1.262
 3472SOL    HW111650   5.019   4.184   1.326
 3472SOL    HW211651   4.909   4.127   1.219
 3473SOL     OW11652   4.091   4.824   0.501
 3473SOL    HW111653   4.084   4.907   0.445
 3473SOL    HW211654   4.095   4.744   0.441
 3474SOL     OW11655   4.976   5.072   0.388
 3474SOL    HW111656   5.026   5.149   0.428
 3474SOL    HW211657   4.881   5.074   0.420
 3475SOL     OW11658   4.126   4.475   1.598
 3475SOL    HW111659   4.194   4.530   1.551
 3475SOL    HW211660   4.166   4.387   1.625
 3476SOL     OW11661   4.737   3.829   1.770
 3476SOL    HW111662   4.743   3.914   1.718
 3476SOL    HW211663   4.769   3.753   1.713
 3477SOL     OW11664   5.084   4.586   1.045
 3477SOL    HW111665   5.009   4.586   0.979
 3477SOL    HW211666   5.121   4.494   1.054
 3478SOL     OW11667   4.933   4.249   0.275
 3478SOL    HW111668   4.946   4.165   0.329
 3478SOL    HW211669   4.904   4.323   0.335
 3479SOL     OW11670   4.031   3.937   1.231
 3479SOL    HW111671   4.008   3.974   1.321
 3479SOL    HW211672   4.001   3.842   1.225
 3480SOL     OW11673   4.031   3.787   0.618
 3480SOL    HW111674   4.020   3.881   0.651
 3480SOL    HW211675   4.026   3.724   0.695
 3481SOL     OW11676   5.346   4.091   0.374
 3481SOL    HW111677   5.348   4.015   0.438
 3481SOL    HW211678   5.298   4.168   0.414
 3482SOL     OW11679   4.747   4.490   0.966
 3482SOL    HW111680   4.762   4.511   1.062
 3482SOL    HW211681   4.717   4.395   0.957
 3483SOL     OW11682   4.074   4.622   1.804
 3483SOL    HW111683   4.150   4.666   1.852
 3483SOL    HW211684   4.109   4.575   1.722
 3484SOL     OW11685   5.027   4.562   0.042
 3484SOL    HW111686   5.061   4.469   0.057
 3484SOL    HW211687   5.045   4.589  -0.053
 3485SOL     OW11688   4.063   4.233   1.006
 3485SOL    HW111689   4.011   4.150   0.989
 3485SOL    HW211690   4.140   4.238   0.942
 3486SOL     OW11691   4.862   4.104   1.678
 3486SOL    HW111692   4.817   4.167   1.742
 3486SOL    HW211693   4.955   4.135   1.661
 3487SOL     OW11694   4.884   3.931   1.477
 3487SOL    HW111695   4.884   3.995   1.554
 3487SOL    HW211696   4.912   3.979   1.394
 3488SOL     OW11697   3.764   4.268   1.114
 3488SOL    HW111698   3.849   4.235   1.073
 3488SOL    HW211699   3.777   4.283   1.212
 3489SOL     OW11700   3.913   4.244   1.722
 3489SOL    HW111701   3.972   4.204   1.652
 3489SOL    HW211702   3.855   4.315   1.681
 3490SOL     OW11703   4.539   4.296   0.325
 3490SOL    HW111704   4.546   4.207   0.279
 3490SOL    HW211705   4.445   4.330   0.317
 3491SOL     OW11706   4.395   4.188   1.269
 3491SOL    HW111707   4.361   4.099   1.239
 3491SOL    HW211708   4.421   4.242   1.189
 3492SOL     OW11709   4.197   4.224   0.191
 3492SOL    HW111710   4.258   4.304   0.195
 3492SOL    HW211711   4.102   4.255   0.198
 3493SOL     OW11712   5.071   4.783   1.234
 3493SOL    HW111713   5.095   4.720   1.160
 3493SOL    HW211714   4.981   4.823   1.216
 3494SOL     OW11715   4.627   3.810   0.133
 3494SOL    HW111716   4.678   3.811   0.047
 3494SOL    HW211717   4.683   3.768   0.204
 3495SOL     OW11718   5.004   4.651   0.672
 3495SOL    HW111719   5.064   4.570   0.674
 3495SOL    HW211720   5.044   4.720   0.612
 3496SOL     OW11721   4.554   4.997   1.422
 3496SOL    HW111722   4.549   5.030   1.517
 3496SOL    HW211723   4.468   5.016   1.376
 3497SOL     OW11724   3.987   4.050   0.720
 3497SOL    HW111725   3.908   4.101   0.686
 3497SOL    HW211726   3.978   4.035   0.818
 3498SOL     OW11727   4.546   4.726   1.372
 3498SOL    HW111728   4.586   4.725   1.280
 3498SOL    HW211729   4.556   4.818   1.412
 3499SOL     OW11730   4.640   4.634   0.291
 3499SOL    HW111731   4.703   4.672   0.223
 3499SOL    HW211732   4.680   4.551   0.330
 3500SOL     OW11733   4.096   5.012   1.490
 3500SOL    HW111734   4.083   5.105   1.456
 3500SOL    HW211735   4.012   4.960   1.477
 3501SOL     OW11736   4.763   4.822   0.696
 3501SOL    HW111737   4.693   4.775   0.750
 3501SOL    HW211738   4.822   4.754   0.653
 3502SOL     OW11739   4.738   3.960   0.971
 3502SOL    HW111740   4.730   3.924   0.878
 3502SOL    HW211741   4.736   3.884   1.036
 3503SOL     OW11742   3.829   4.737   1.726
 3503SOL    HW111743   3.752   4.704   1.780
 3503SOL    HW211744   3.914   4.707   1.768
 3504SOL     OW11745   5.164   4.580   1.398
 3504SOL    HW111746   5.107   4.632   1.335
 3504SOL    HW211747   5.260   4.592   1.374
 3505SOL     OW11748   3.796   3.890   0.318
 3505SOL    HW111749   3.779   3.973   0.264
 3505SOL    HW211750   3.886   3.853   0.296
 3506SOL     OW11751   4.337   4.566   1.431
 3506SOL    HW111752   4.393   4.647   1.414
 3506SOL    HW211753   4.396   4.486   1.434
 3507SOL     OW11754   4.440   4.289   1.708
 3507SOL    HW111755   4.459   4.354   1.782
 3507SOL    HW211756   4.500   4.209   1.717
 3508SOL     OW11757   5.174   4.944   1.633
 3508SOL    HW111758   5.165   4.934   1.732
 3508SOL    HW211759   5.270   4.937   1.607
 3509SOL     OW11760   4.949   4.049   0.449
 3509SOL    HW111761   5.014   3.975   0.438
 3509SOL    HW211762   4.969   4.099   0.533
 3510SOL     OW11763   4.807   4.708   0.087
 3510SOL    HW111764   4.784   4.761   0.005
 3510SOL    HW211765   4.888   4.652   0.068
 3511SOL     OW11766   4.152   4.148   0.520
 3511SOL    HW111767   4.182   4.076   0.458
 3511SOL    HW211768   4.113   4.108   0.603
 3512SOL     OW11769   4.041   4.271   1.280
 3512SOL    HW111770   4.079   4.212   1.352
 3512SOL    HW211771   4.081   4.245   1.192
 3513SOL     OW11772   4.725   3.758   1.154
 3513SOL    HW111773   4.662   3.686   1.123
 3513SOL    HW211774   4.818   3.722   1.154
 3514SOL     OW11775   4.494   5.054   0.301
 3514SOL    HW111776   4.448   4.967   0.318
 3514SOL    HW211777   4.585   5.051   0.342
 3515SOL     OW11778   3.763   4.801   0.300
 3515SOL    HW111779   3.862   4.790   0.291
 3515SOL    HW211780   3.723   4.715   0.332
 3516SOL     OW11781   3.954   4.352   1.975
 3516SOL    HW111782   3.861   4.350   2.012
 3516SOL    HW211783   3.955   4.313   1.883
 3517SOL     OW11784   3.949   3.999   2.858
 3517SOL    HW111785   3.984   3.982   2.950
 3517SOL    HW211786   3.861   3.954   2.846
 3518SOL     OW11787   3.743   4.092   2.509
 3518SOL    HW111788   3.661   4.135   2.548
 3518SOL    HW211789   3.715   4.019   2.446
 3519SOL     OW11790   4.293   4.999   3.027
 3519SOL    HW111791   4.200   4.992   2.990
 3519SOL    HW211792   4.304   5.088   3.071
 3520SOL     OW11793   4.859   4.427   2.579
 3520SOL    HW111794   4.916   4.505   2.554
 3520SOL    HW211795   4.799   4.453   2.655
 3521SOL     OW11796   4.492   4.868   2.885
 3521SOL    HW111797   4.414   4.885   2.945
 3521SOL    HW211798   4.526   4.955   2.849
 3522SOL     OW11799   4.574   4.522   3.685
 3522SOL    HW111800   4.570   4.598   3.750
 3522SOL    HW211801   4.596   4.558   3.594
 3523SOL     OW11802   4.409   4.736   2.527
 3523SOL    HW111803   4.478   4.720   2.597
 3523SOL    HW211804   4.336   4.793   2.565
 3524SOL     OW11805   4.410   4.885   3.665
 3524SOL    HW111806   4.470   4.964   3.679
 3524SOL    HW211807   4.324   4.916   3.624
 3525SOL     OW11808   4.059   5.159   2.923
 3525SOL    HW111809   3.981   5.128   2.870
 3525SOL    HW211810   4.117   5.217   2.866
 3526SOL     OW11811   4.162   4.116   3.361
 3526SOL    HW111812   4.244   4.060   3.370
 3526SOL    HW211813   4.081   4.058   3.365
 3527SOL     OW11814   3.964   4.815   2.748
 3527SOL    HW111815   3.978   4.731   2.800
 3527SOL    HW211816   3.909   4.879   2.803
 3528SOL     OW11817   4.330   4.688   1.985
 3528SOL    HW111818   4.337   4.772   1.931
 3528SOL    HW211819   4.376   4.701   2.073
 3529SOL     OW11820   3.846   4.367   2.425
 3529SOL    HW111821   3.801   4.279   2.442
 3529SOL    HW211822   3.845   4.421   2.509
 3530SOL     OW11823   3.837   4.461   3.459
 3530SOL    HW111824   3.925   4.448   3.504
 3530SOL    HW211825   3.824   4.558   3.437
 3531SOL     OW11826   5.017   4.952   3.285
 3531SOL    HW111827   5.054   4.879   3.227
 3531SOL    HW211828   5.069   4.957   3.370
 3532SOL     OW11829   4.533   3.728   2.364
 3532SOL    HW111830   4.573   3.819   2.355
 3532SOL    HW211831   4.433   3.736   2.370
 3533SOL     OW11832   3.921   4.700   3.126
 3533SOL    HW111833   4.010   4.655   3.112
 3533SOL    HW211834   3.848   4.635   3.107
 3534SOL     OW11835   4.041   3.975   3.663
 3534SOL    HW111836   4.112   4.046   3.669
 3534SOL    HW211837   3.953   4.014   3.691
 3535SOL     OW11838   4.322   4.453   2.132
 3535SOL    HW111839   4.346   4.522   2.064
 3535SOL    HW211840   4.244   4.486   2.186
 3536SOL     OW11841   5.005   4.069   2.806
 3536SOL    HW111842   4.919   4.019   2.793
 3536SOL    HW211843   5.067   4.015   2.862
 3537SOL     OW11844   4.531   4.329   3.327
 3537SOL    HW111845   4.484   4.326   3.416
 3537SOL    HW211846   4.480   4.274   3.261
 3538SOL     OW11847   4.697   4.614   3.434
 3538SOL    HW111848   4.743   4.530   3.405
 3538SOL    HW211849   4.641   4.648   3.359
 3539SOL     OW11850   4.715   4.134   3.104
 3539SOL    HW111851   4.638   4.168   3.158
 3539SOL    HW211852   4.681   4.083   3.025
 3540SOL     OW11853   4.765   4.425   2.291
 3540SOL    HW111854   4.791   4.421   2.387
 3540SOL    HW211855   4.680   4.374   2.277
 3541SOL     OW11856   3.800   4.535   2.651
 3541SOL    HW111857   3.899   4.523   2.660
 3541SOL    HW211858   3.776   4.630   2.672
 3542SOL     OW11859   4.589   4.072   2.057
 3542SOL    HW111860   4.648   4.135   2.008
 3542SOL    HW211861   4.608   3.978   2.028
 3543SOL     OW11862   4.274   3.920   2.747
 3543SOL    HW111863   4.269   3.915   2.847
 3543SOL    HW211864   4.276   4.016   2.718
 3544SOL     OW11865   4.045   4.667   2.104
 3544SOL    HW111866   4.127   4.706   2.062
 3544SOL    HW211867   4.018   4.585   2.055
 3545SOL     OW11868   3.926   4.009   3.360
 3545SOL    HW111869   3.846   4.069   3.347
 3545SOL    HW211870   3.916   3.960   3.446
 3546SOL     OW11871   4.106   4.424   2.342
 3546SOL    HW111872   4.151   4.334   2.339
 3546SOL    HW211873   4.012   4.413   2.375
 3547SOL     OW11874   4.527   5.126   2.786
 3547SOL    HW111875   4.617   5.140   2.744
 3547SOL    HW211876   4.456   5.128   2.715
 3548SOL     OW11877   4.646   4.227   2.761
 3548SOL    HW111878   4.621   4.218   2.665
 3548SOL    HW211879   4.694   4.145   2.792
 3549SOL     OW11880   4.263   3.788   2.374
 3549SOL    HW111881   4.182   3.789   2.432
 3549SOL    HW211882   4.266   3.871   2.319
 3550SOL     OW11883   5.158   4.912   1.903
 3550SOL    HW111884   5.190   4.836   1.960
 3550SOL    HW211885   5.066   4.939   1.933
 3551SOL     OW11886   4.659   3.960   2.342
 3551SOL    HW111887   4.611   4.001   2.264
 3551SOL    HW211888   4.758   3.958   2.323
 3552SOL     OW11889   4.800   4.407   3.326
 3552SOL    HW111890   4.720   4.346   3.329
 3552SOL    HW211891   4.881   4.354   3.302
 3553SOL     OW11892   4.183   4.876   2.603
 3553SOL    HW111893   4.112   4.849   2.668
 3553SOL    HW211894   4.157   4.848   2.510
 3554SOL     OW11895   4.756   4.273   1.878
 3554SOL    HW111896   4.715   4.355   1.839
 3554SOL    HW211897   4.820   4.299   1.951
 3555SOL     OW11898   3.802   4.280   3.248
 3555SOL    HW111899   3.894   4.279   3.207
 3555SOL    HW211900   3.796   4.354   3.315
 3556SOL     OW11901   4.285   3.946   3.009
 3556SOL    HW111902   4.323   3.862   3.046
 3556SOL    HW211903   4.197   3.965   3.053
 3557SOL     OW11904   4.590   4.178   2.504
 3557SOL    HW111905   4.558   4.250   2.442
 3557SOL    HW211906   4.614   4.097   2.451
 3558SOL     OW11907   4.741   3.763   2.615
 3558SOL    HW111908   4.669   3.768   2.546
 3558SOL    HW211909   4.717   3.694   2.684
 3559SOL     OW11910   4.251   3.980   2.190
 3559SOL    HW111911   4.278   3.921   2.115
 3559SOL    HW211912   4.251   4.075   2.159
 3560SOL     OW11913   4.704   4.840   3.581
 3560SOL    HW111914   4.605   4.846   3.591
 3560SOL    HW211915   4.727   4.760   3.525
 3561SOL     OW11916   4.429   4.774   2.230
 3561SOL    HW111917   4.415   4.781   2.329
 3561SOL    HW211918   4.513   4.723   2.212
 3562SOL     OW11919   4.134   4.537   3.113
 3562SOL    HW111920   4.220   4.549   3.163
 3562SOL    HW211921   4.092   4.450   3.140
 3563SOL     OW11922   4.998   4.110   3.124
 3563SOL    HW111923   5.019   4.184   3.188
 3563SOL    HW211924   4.909   4.127   3.081
 3564SOL     OW11925   4.091   4.824   2.363
 3564SOL    HW111926   4.084   4.907   2.307
 3564SOL    HW211927   4.095   4.744   2.303
 3565SOL     OW11928   4.290   4.261   2.727
 3565SOL    HW111929   4.302   4.327   2.653
 3565SOL    HW211930   4.336   4.295   2.810
 3566SOL     OW11931   4.976   5.072   2.250
 3566SOL    HW111932   5.026   5.149   2.290
 3566SOL    HW211933   4.881   5.074   2.282
 3567SOL     OW11934   4.126   4.475   3.460
 3567SOL    HW111935   4.194   4.530   3.413
 3567SOL    HW211936   4.166   4.387   3.487
 3568SOL     OW11937   4.737   3.829   3.632
 3568SOL    HW111938   4.743   3.914   3.580
 3568SOL    HW211939   4.769   3.753   3.575
 3569SOL     OW11940   4.228   3.774   3.602
 3569SOL    HW111941   4.186   3.717   3.532
 3569SOL    HW211942   4.162   3.843   3.634
 3570SOL     OW11943   4.297   4.594   2.891
 3570SOL    HW111944   4.341   4.683   2.882
 3570SOL    HW211945   4.234   4.594   2.968
 3571SOL     OW11946   5.084   4.586   2.907
 3571SOL    HW111947   5.009   4.586   2.841
 3571SOL    HW211948   5.121   4.494   2.916
 3572SOL     OW11949   4.933   4.249   2.137
 3572SOL    HW111950   4.946   4.165   2.191
 3572SOL    HW211951   4.904   4.323   2.197
 3573SOL     OW11952   4.031   3.937   3.093
 3573SOL    HW111953   4.008   3.974   3.183
 3573SOL    HW211954   4.001   3.842   3.087
 3574SOL     OW11955   4.456   4.358   2.926
 3574SOL    HW111956   4.515   4.332   2.850
 3574SOL    HW211957   4.428   4.454   2.915
 3575SOL     OW11958   4.031   3.787   2.480
 3575SOL    HW111959   4.020   3.881   2.513
 3575SOL    HW211960   4.026   3.724   2.557
 3576SOL     OW11961   5.346   4.091   2.236
 3576SOL    HW111962   5.348   4.015   2.300
 3576SOL    HW211963   5.298   4.168   2.276
 3577SOL     OW11964   4.747   4.490   2.828
 3577SOL    HW111965   4.762   4.511   2.924
 3577SOL    HW211966   4.717   4.395   2.819
 3578SOL     OW11967   4.074   4.622   3.666
 3578SOL    HW111968   4.150   4.666   3.714
 3578SOL    HW211969   4.109   4.575   3.584
 3579SOL     OW11970   5.027   4.562   1.904
 3579SOL    HW111971   5.061   4.469   1.919
 3579SOL    HW211972   5.045   4.589   1.809
 3580SOL     OW11973   4.043   4.534   2.811
 3580SOL    HW111974   4.136   4.570   2.816
 3580SOL    HW211975   4.037   4.449   2.863
 3581SOL     OW11976   4.063   4.233   2.868
 3581SOL    HW111977   4.011   4.150   2.851
 3581SOL    HW211978   4.140   4.238   2.804
 3582SOL     OW11979   4.862   4.104   3.540
 3582SOL    HW111980   4.817   4.167   3.604
 3582SOL    HW211981   4.955   4.135   3.523
 3583SOL     OW11982   4.884   3.931   3.339
 3583SOL    HW111983   4.884   3.995   3.416
 3583SOL    HW211984   4.912   3.979   3.256
 3584SOL     OW11985   3.732   5.050   2.062
 3584SOL    HW111986   3.639   5.071   2.031
 3584SOL    HW211987   3.742   4.951   2.075
 3585SOL     OW11988   4.726   4.520   3.100
 3585SOL    HW111989   4.767   4.488   3.186
 3585SOL    HW211990   4.630   4.493   3.097
 3586SOL     OW11991   3.764   4.268   2.976
 3586SOL    HW111992   3.849   4.235   2.935
 3586SOL    HW211993   3.777   4.283   3.074
 3587SOL     OW11994   3.913   4.244   3.584
 3587SOL    HW111995   3.972   4.204   3.514
 3587SOL    HW211996   3.855   4.315   3.543
 3588SOL     OW11997   4.539   4.296   2.187
 3588SOL    HW111998   4.546   4.207   2.141
 3588SOL    HW211999   4.445   4.330   2.179
 3589SOL     OW12000   4.395   4.188   3.131
 3589SOL    HW112001   4.361   4.099   3.101
 3589SOL    HW212002   4.421   4.242   3.051
 3590SOL     OW12003   3.883   4.861   3.328
 3590SOL    HW112004   3.905   4.800   3.404
 3590SOL    HW212005   3.893   4.812   3.242
 3591SOL     OW12006   5.071   4.783   3.096
 3591SOL    HW112007   5.095   4.720   3.022
 3591SOL    HW212008   4.981   4.823   3.078
 3592SOL     OW12009   3.807   4.982   2.884
 3592SOL    HW112010   3.802   4.981   2.984
 3592SOL    HW212011   3.724   4.941   2.846
 3593SOL     OW12012   5.004   4.651   2.534
 3593SOL    HW112013   5.064   4.570   2.536
 3593SOL    HW212014   5.044   4.720   2.474
 3594SOL     OW12015   4.554   4.997   3.284
 3594SOL    HW112016   4.549   5.030   3.379
 3594SOL    HW212017   4.468   5.016   3.238
 3595SOL     OW12018   3.987   4.050   2.582
 3595SOL    HW112019   3.908   4.101   2.548
 3595SOL    HW212020   3.978   4.035   2.680
 3596SOL     OW12021   4.918   5.336   1.893
 3596SOL    HW112022   4.924   5.243   1.930
 3596SOL    HW212023   4.859   5.336   1.813
 3597SOL     OW12024   4.546   4.726   3.234
 3597SOL    HW112025   4.586   4.725   3.142
 3597SOL    HW212026   4.556   4.818   3.274
 3598SOL     OW12027   4.640   4.634   2.153
 3598SOL    HW112028   4.703   4.672   2.085
 3598SOL    HW212029   4.680   4.551   2.192
 3599SOL     OW12030   4.096   5.012   3.352
 3599SOL    HW112031   4.083   5.105   3.318
 3599SOL    HW212032   4.012   4.960   3.339
 3600SOL     OW12033   4.763   4.822   2.558
 3600SOL    HW112034   4.693   4.775   2.612
 3600SOL    HW212035   4.822   4.754   2.515
 3601SOL     OW12036   3.829   4.737   3.588
 3601SOL    HW112037   3.752   4.704   3.642
 3601SOL    HW212038   3.914   4.707   3.630
 3602SOL     OW12039   3.799   4.069   1.895
 3602SOL    HW112040   3.707   4.041   1.866
 3602SOL    HW212041   3.830   4.146   1.839
 3603SOL     OW12042   5.164   4.580   3.260
 3603SOL    HW112043   5.107   4.632   3.197
 3603SOL    HW212044   5.260   4.592   3.236
 3604SOL     OW12045   3.796   3.890   2.180
 3604SOL    HW112046   3.779   3.973   2.126
 3604SOL    HW212047   3.886   3.853   2.158
 3605SOL     OW12048   4.337   4.566   3.293
 3605SOL    HW112049   4.393   4.647   3.276
 3605SOL    HW212050   4.396   4.486   3.296
 3606SOL     OW12051   4.440   4.289   3.570
 3606SOL    HW112052   4.459   4.354   3.644
 3606SOL    HW212053   4.500   4.209   3.579
 3607SOL     OW12054   5.174   4.944   3.495
 3607SOL    HW112055   5.165   4.934   3.594
 3607SOL    HW212056   5.270   4.937   3.469
 3608SOL     OW12057   4.949   4.049   2.311
 3608SOL    HW112058   5.014   3.975   2.300
 3608SOL    HW212059   4.969   4.099   2.395
 3609SOL     OW12060   4.318   4.469   2.514
 3609SOL    HW112061   4.368   4.554   2.495
 3609SOL    HW212062   4.230   4.471   2.466
 3610SOL     OW12063   4.583   4.680   2.723
 3610SOL    HW112064   4.637   4.611   2.771
 3610SOL    HW212065   4.551   4.749   2.789
 3611SOL     OW12066   4.807   4.708   1.949
 3611SOL    HW112067   4.784   4.761   1.867
 3611SOL    HW212068   4.888   4.652   1.930
 3612SOL     OW12069   3.803   4.964   2.515
 3612SOL    HW112070   3.802   4.917   2.603
 3612SOL    HW212071   3.885   4.936   2.464
 3613SOL     OW12072   4.152   4.148   2.382
 3613SOL    HW112073   4.182   4.076   2.320
 3613SOL    HW212074   4.113   4.108   2.465
 3614SOL     OW12075   4.041   4.271   3.142
 3614SOL    HW112076   4.079   4.212   3.214
 3614SOL    HW212077   4.081   4.245   3.054
 3615SOL     OW12078   4.494   5.054   2.163
 3615SOL    HW112079   4.448   4.967   2.180
 3615SOL    HW212080   4.585   5.051   2.204
 3616SOL     OW12081   5.076   3.776   2.030
 3616SOL    HW112082   5.111   3.735   1.946
 3616SOL    HW212083   4.986   3.738   2.050
 3617SOL     OW12084   3.763   4.801   2.162
 3617SOL    HW112085   3.862   4.790   2.153
 3617SOL    HW212086   3.723   4.715   2.194
 3618SOL     OW12087   3.954   4.352   3.837
 3618SOL    HW112088   3.861   4.350   3.874
 3618SOL    HW212089   3.955   4.313   3.745
 3619SOL     OW12090   3.949   3.999   4.720
 3619SOL    HW112091   3.984   3.982   4.812
 3619SOL    HW212092   3.861   3.954   4.708
 3620SOL     OW12093   3.743   4.092   4.371
 3620SOL    HW112094   3.661   4.135   4.410
 3620SOL    HW212095   3.715   4.019   4.308
 3621SOL     OW12096   4.293   4.999   4.889
 3621SOL    HW112097   4.200   4.992   4.852
 3621SOL    HW212098   4.304   5.088   4.933
 3622SOL     OW12099   4.859   4.427   4.441
 3622SOL    HW112100   4.916   4.505   4.416
 3622SOL    HW212101   4.799   4.453   4.517
 3623SOL     OW12102   4.492   4.868   4.747
 3623SOL    HW112103   4.414   4.885   4.807
 3623SOL    HW212104   4.526   4.955   4.711
 3624SOL     OW12105   4.409   4.736   4.389
 3624SOL    HW112106   4.478   4.720   4.459
 3624SOL    HW212107   4.336   4.793   4.427
 3625SOL     OW12108   4.059   5.159   4.785
 3625SOL    HW112109   3.981   5.128   4.732
 3625SOL    HW212110   4.117   5.217   4.728
 3626SOL     OW12111   3.964   4.815   4.610
 3626SOL    HW112112   3.978   4.731   4.662
 3626SOL    HW212113   3.909   4.879   4.665
 3627SOL     OW12114   4.330   4.688   3.847
 3627SOL    HW112115   4.337   4.772   3.793
 3627SOL    HW212116   4.376   4.701   3.935
 3628SOL     OW12117   3.846   4.367   4.287
 3628SOL    HW112118   3.801   4.279   4.304
 3628SOL    HW212119   3.845   4.421   4.371
 3629SOL     OW12120   4.533   3.728   4.226
 3629SOL    HW112121   4.573   3.819   4.217
 3629SOL    HW212122   4.433   3.736   4.232
 3630SOL     OW12123   4.322   4.453   3.994
 3630SOL    HW112124   4.346   4.522   3.926
 3630SOL    HW212125   4.244   4.486   4.048
 3631SOL     OW12126   5.005   4.069   4.668
 3631SOL    HW112127   4.919   4.019   4.655
 3631SOL    HW212128   5.067   4.015   4.724
 3632SOL     OW12129   4.715   4.134   4.966
 3632SOL    HW112130   4.638   4.168   5.020
 3632SOL    HW212131   4.681   4.083   4.887
 3633SOL     OW12132   4.765   4.425   4.153
 3633SOL    HW112133   4.791   4.421   4.249
 3633SOL    HW212134   4.680   4.374   4.139
 3634SOL     OW12135   3.800   4.535   4.513
 3634SOL    HW112136   3.899   4.523   4.522
 3634SOL    HW212137   3.776   4.630   4.534
 3635SOL     OW12138   4.589   4.072   3.919
 3635SOL    HW112139   4.648   4.135   3.870
 3635SOL    HW212140   4.608   3.978   3.890
 3636SOL     OW12141   4.274   3.920   4.609
 3636SOL    HW112142   4.269   3.915   4.709
 3636SOL    HW212143   4.276   4.016   4.580
 3637SOL     OW12144   4.045   4.667   3.966
 3637SOL    HW112145   4.127   4.706   3.924
 3637SOL    HW212146   4.018   4.585   3.917
 3638SOL     OW12147   4.106   4.424   4.204
 3638SOL    HW112148   4.151   4.334   4.201
 3638SOL    HW212149   4.012   4.413   4.237
 3639SOL     OW12150   4.527   5.126   4.648
 3639SOL    HW112151   4.617   5.140   4.606
 3639SOL    HW212152   4.456   5.128   4.577
 3640SOL     OW12153   4.646   4.227   4.623
 3640SOL    HW112154   4.621   4.218   4.527
 3640SOL    HW212155   4.694   4.145   4.654
 3641SOL     OW12156   4.263   3.788   4.236
 3641SOL    HW112157   4.182   3.789   4.294
 3641SOL    HW212158   4.266   3.871   4.181
 3642SOL     OW12159   5.158   4.912   3.765
 3642SOL    HW112160   5.190   4.836   3.822
 3642SOL    HW212161   5.066   4.939   3.795
 3643SOL     OW12162   4.021   3.759   3.895
 3643SOL    HW112163   4.070   3.843   3.874
 3643SOL    HW212164   4.083   3.694   3.940
 3644SOL     OW12165   4.659   3.960   4.204
 3644SOL    HW112166   4.611   4.001   4.126
 3644SOL    HW212167   4.758   3.958   4.185
 3645SOL     OW12168   4.951   5.294   4.517
 3645SOL    HW112169   4.972   5.368   4.452
 3645SOL    HW212170   5.019   5.294   4.590
 3646SOL     OW12171   4.183   4.876   4.465
 3646SOL    HW112172   4.112   4.849   4.530
 3646SOL    HW212173   4.157   4.848   4.372
 3647SOL     OW12174   4.756   4.273   3.740
 3647SOL    HW112175   4.715   4.355   3.701
 3647SOL    HW212176   4.820   4.299   3.813
 3648SOL     OW12177   4.285   3.946   4.871
 3648SOL    HW112178   4.323   3.862   4.908
 3648SOL    HW212179   4.197   3.965   4.915
 3649SOL     OW12180   4.590   4.178   4.366
 3649SOL    HW112181   4.558   4.250   4.304
 3649SOL    HW212182   4.614   4.097   4.313
 3650SOL     OW12183   4.741   3.763   4.477
 3650SOL    HW112184   4.669   3.768   4.408
 3650SOL    HW212185   4.717   3.694   4.546
 3651SOL     OW12186   4.251   3.980   4.052
 3651SOL    HW112187   4.278   3.921   3.977
 3651SOL    HW212188   4.251   4.075   4.021
 3652SOL     OW12189   4.429   4.774   4.092
 3652SOL    HW112190   4.415   4.781   4.191
 3652SOL    HW212191   4.513   4.723   4.074
 3653SOL     OW12192   4.134   4.537   4.975
 3653SOL    HW112193   4.220   4.549   5.025
 3653SOL    HW212194   4.092   4.450   5.002
 3654SOL     OW12195   4.091   4.824   4.225
 3654SOL    HW112196   4.084   4.907   4.169
 3654SOL    HW212197   4.095   4.744   4.165
 3655SOL     OW12198   4.290   4.261   4.589
 3655SOL    HW112199   4.302   4.327   4.515
 3655SOL    HW212200   4.336   4.295   4.672
 3656SOL     OW12201   4.976   5.072   4.112
 3656SOL    HW112202   5.026   5.149   4.152
 3656SOL    HW212203   4.881   5.074   4.144
 3657SOL     OW12204   4.297   4.594   4.753
 3657SOL    HW112205   4.341   4.683   4.744
 3657SOL    HW212206   4.234   4.594   4.830
 3658SOL     OW12207   5.084   4.586   4.769
 3658SOL    HW112208   5.009   4.586   4.703
 3658SOL    HW212209   5.121   4.494   4.778
 3659SOL     OW12210   4.933   4.249   3.999
 3659SOL    HW112211   4.946   4.165   4.053
 3659SOL    HW212212   4.904   4.323   4.059
 3660SOL     OW12213   4.031   3.937   4.955
 3660SOL    HW112214   4.008   3.974   5.045
 3660SOL    HW212215   4.001   3.842   4.949
 3661SOL     OW12216   4.456   4.358   4.788
 3661SOL    HW112217   4.515   4.332   4.712
 3661SOL    HW212218   4.428   4.454   4.777
 3662SOL     OW12219   4.031   3.787   4.342
 3662SOL    HW112220   4.020   3.881   4.375
 3662SOL    HW212221   4.026   3.724   4.419
 3663SOL     OW12222   5.346   4.091   4.098
 3663SOL    HW112223   5.348   4.015   4.162
 3663SOL    HW212224   5.298   4.168   4.138
 3664SOL     OW12225   4.747   4.490   4.690
 3664SOL    HW112226   4.762   4.511   4.786
 3664SOL    HW212227   4.717   4.395   4.681
 3665SOL     OW12228   5.027   4.562   3.766
 3665SOL    HW112229   5.061   4.469   3.781
 3665SOL    HW212230   5.045   4.589   3.671
 3666SOL     OW12231   4.043   4.534   4.673
 3666SOL    HW112232   4.136   4.570   4.678
 3666SOL    HW212233   4.037   4.449   4.725
 3667SOL     OW12234   4.063   4.233   4.730
 3667SOL    HW112235   4.011   4.150   4.713
 3667SOL    HW212236   4.140   4.238   4.666
 3668SOL     OW12237   4.884   3.931   5.201
 3668SOL    HW112238   4.884   3.995   5.278
 3668SOL    HW212239   4.912   3.979   5.118
 3669SOL     OW12240   3.732   5.050   3.924
 3669SOL    HW112241   3.639   5.071   3.893
 3669SOL    HW212242   3.742   4.951   3.937
 3670SOL     OW12243   4.726   4.520   4.962
 3670SOL    HW112244   4.767   4.488   5.048
 3670SOL    HW212245   4.630   4.493   4.959
 3671SOL     OW12246   3.764   4.268   4.838
 3671SOL    HW112247   3.849   4.235   4.797
 3671SOL    HW212248   3.777   4.283   4.936
 3672SOL     OW12249   4.539   4.296   4.049
 3672SOL    HW112250   4.546   4.207   4.003
 3672SOL    HW212251   4.445   4.330   4.041
 3673SOL     OW12252   4.395   4.188   4.993
 3673SOL    HW112253   4.361   4.099   4.963
 3673SOL    HW212254   4.421   4.242   4.913
 3674SOL     OW12255   4.197   4.224   3.915
 3674SOL    HW112256   4.258   4.304   3.919
 3674SOL    HW212257   4.102   4.255   3.922
 3675SOL     OW12258   5.071   4.783   4.958
 3675SOL    HW112259   5.095   4.720   4.884
 3675SOL    HW212260   4.981   4.823   4.940
 3676SOL     OW12261   5.004   4.651   4.396
 3676SOL    HW112262   5.064   4.570   4.398
 3676SOL    HW212263   5.044   4.720   4.336
 3677SOL     OW12264   4.554   4.997   5.146
 3677SOL    HW112265   4.549   5.030   5.241
 3677SOL    HW212266   4.468   5.016   5.100
 3678SOL     OW12267   3.987   4.050   4.444
 3678SOL    HW112268   3.908   4.101   4.410
 3678SOL    HW212269   3.978   4.035   4.542
 3679SOL     OW12270   4.918   5.336   3.755
 3679SOL    HW112271   4.924   5.243   3.792
 3679SOL    HW212272   4.859   5.336   3.675
 3680SOL     OW12273   4.546   4.726   5.096
 3680SOL    HW112274   4.586   4.725   5.004
 3680SOL    HW212275   4.556   4.818   5.136
 3681SOL     OW12276   4.640   4.634   4.015
 3681SOL    HW112277   4.703   4.672   3.947
 3681SOL    HW212278   4.680   4.551   4.054
 3682SOL     OW12279   4.763   4.822   4.420
 3682SOL    HW112280   4.693   4.775   4.474
 3682SOL    HW212281   4.822   4.754   4.377
 3683SOL     OW12282   4.738   3.960   4.695
 3683SOL    HW112283   4.730   3.924   4.602
 3683SOL    HW212284   4.736   3.884   4.760
 3684SOL     OW12285   3.799   4.069   3.757
 3684SOL    HW112286   3.707   4.041   3.728
 3684SOL    HW212287   3.830   4.146   3.701
 3685SOL     OW12288   3.796   3.890   4.042
 3685SOL    HW112289   3.779   3.973   3.988
 3685SOL    HW212290   3.886   3.853   4.020
 3686SOL     OW12291   4.949   4.049   4.173
 3686SOL    HW112292   5.014   3.975   4.162
 3686SOL    HW212293   4.969   4.099   4.257
 3687SOL     OW12294   4.318   4.469   4.376
 3687SOL    HW112295   4.368   4.554   4.357
 3687SOL    HW212296   4.230   4.471   4.328
 3688SOL     OW12297   4.583   4.680   4.585
 3688SOL    HW112298   4.637   4.611   4.633
 3688SOL    HW212299   4.551   4.749   4.651
 3689SOL     OW12300   4.807   4.708   3.811
 3689SOL    HW112301   4.784   4.761   3.729
 3689SOL    HW212302   4.888   4.652   3.792
 3690SOL     OW12303   3.803   4.964   4.377
 3690SOL    HW112304   3.802   4.917   4.465
 3690SOL    HW212305   3.885   4.936   4.326
 3691SOL     OW12306   4.152   4.148   4.244
 3691SOL    HW112307   4.182   4.076   4.182
 3691SOL    HW212308   4.113   4.108   4.327
 3692SOL     OW12309   4.725   3.758   4.878
 3692SOL    HW112310   4.662   3.686   4.847
 3692SOL    HW212311   4.818   3.722   4.878
 3693SOL     OW12312   4.494   5.054   4.025
 3693SOL    HW112313   4.448   4.967   4.042
 3693SOL    HW212314   4.585   5.051   4.066
 3694SOL     OW12315   5.076   3.776   3.892
 3694SOL    HW112316   5.111   3.735   3.808
 3694SOL    HW212317   4.986   3.738   3.912
 3695SOL     OW12318   3.763   4.801   4.024
 3695SOL    HW112319   3.862   4.790   4.015
 3695SOL    HW212320   3.723   4.715   4.056
   5.08970   5.08970   5.08970
