; Topology for DPPC + MMC membrane system
; Generated by build_dppc_mmc_cases.sh

#include "../../gromos53a6_lipid.ff/forcefield.itp"
#include "../../dppc.itp"
#include "../../../mitomycin_c/mmc.itp"

#include "../../gromos53a6_lipid.ff/spc.itp"
#include "../../gromos53a6_lipid.ff/ions.itp"

[ system ]
; Name
256 DPPC bilayer + 2 X2IT in water

[ molecules ]
; Compound        #mols
DPPC              256
X2IT              2
SOL               7685
