UNITED ATOM STRUCTURE FOR MOLECULE UNK
11858
    0X2IT   H18    1   3.092   2.352   2.583
    0X2IT    N4    2   3.026   2.419   2.548
    0X2IT   H17    3   3.059   2.484   2.478
    0X2IT   C14    4   2.895   2.380   2.546
    0X2IT    O5    5   2.849   2.285   2.607
    0X2IT    O4    6   2.822   2.466   2.469
    0X2IT   C13    7   2.680   2.441   2.463
    0X2IT   C10    8   2.607   2.502   2.584
    0X2IT    C9    9   2.457   2.484   2.578
    0X2IT    C4   10   2.394   2.607   2.582
    0X2IT    C5   11   2.245   2.625   2.577
    0X2IT    O1   12   2.197   2.739   2.585
    0X2IT    C6   13   2.166   2.505   2.564
    0X2IT   C12   14   2.015   2.516   2.558
    0X2IT    C7   15   2.229   2.382   2.561
    0X2IT    C8   16   2.381   2.365   2.567
    0X2IT    O2   17   2.427   2.250   2.559
    0X2IT    N3   18   2.164   2.265   2.551
    0X2IT   H15   19   2.064   2.258   2.544
    0X2IT   H16   20   2.221   2.180   2.548
    0X2IT    N2   21   2.482   2.709   2.599
    0X2IT    C3   22   2.473   2.846   2.546
    0X2IT    C2   23   2.599   2.856   2.461
    0X2IT    H2   24   2.639   2.954   2.435
    0X2IT    N1   25   2.611   2.744   2.365
    0X2IT   H14   26   2.674   2.771   2.289
    0X2IT    C1   27   2.688   2.741   2.491
    0X2IT    H1   28   2.796   2.748   2.490
    0X2IT   C11   29   2.622   2.658   2.600
    0X2IT    O3   30   2.691   2.695   2.718
    0X2IT   C15   31   2.628   2.664   2.843
    1X2IT   H18   32   4.576   2.596   2.960
    1X2IT    N4   33   4.640   2.640   2.896
    1X2IT   H17   34   4.734   2.658   2.929
    1X2IT   C14   35   4.620   2.613   2.763
    1X2IT    O5   36   4.518   2.565   2.716
    1X2IT    O4   37   4.729   2.652   2.691
    1X2IT   C13   38   4.720   2.635   2.548
    1X2IT   C10   39   4.646   2.754   2.483
    1X2IT    C9   40   4.640   2.744   2.332
    1X2IT    C4   41   4.699   2.855   2.275
    1X2IT    C5   42   4.710   2.877   2.126
    1X2IT    O1   43   4.761   2.982   2.084
    1X2IT    C6   44   4.659   2.772   2.042
    1X2IT   C12   45   4.668   2.787   1.891
    1X2IT    C7   46   4.599   2.661   2.099
    1X2IT    C8   47   4.587   2.641   2.250
    1X2IT    O2   48   4.536   2.536   2.291
    1X2IT    N3   49   4.547   2.560   2.029
    1X2IT   H15   50   4.548   2.556   1.928
    1X2IT   H16   51   4.507   2.482   2.082
    1X2IT    N2   52   4.738   2.946   2.368
    1X2IT    C3   53   4.853   3.037   2.362
    1X2IT    C2   54   4.933   2.995   2.485
    1X2IT    H2   55   5.006   3.063   2.528
    1X2IT    N1   56   4.958   2.849   2.488
    1X2IT   H14   57   5.038   2.830   2.549
    1X2IT    C1   58   4.849   2.906   2.570
    1X2IT    H1   59   4.855   2.906   2.678
    1X2IT   C11   60   4.712   2.895   2.505
    1X2IT    O3   61   4.631   2.983   2.581
    1X2IT   C15   62   4.507   3.024   2.521
    2X2IT   H18   63   1.422   4.429   1.192
    2X2IT    N4   64   1.391   4.345   1.148
    2X2IT   H17   65   1.344   4.277   1.206
    2X2IT   C14   66   1.355   4.354   1.016
    2X2IT    O5   67   1.383   4.447   0.942
    2X2IT    O4   68   1.286   4.243   0.979
    2X2IT   C13   69   1.247   4.236   0.840
    2X2IT   C10   70   1.362   4.183   0.752
    2X2IT    C9   71   1.323   4.168   0.606
    2X2IT    C4   72   1.341   4.037   0.565
    2X2IT    C5   73   1.311   3.988   0.427
    2X2IT    O1   74   1.334   3.870   0.398
    2X2IT    C6   75   1.257   4.085   0.334
    2X2IT   C12   76   1.225   4.041   0.193
    2X2IT    C7   77   1.240   4.216   0.375
    2X2IT    C8   78   1.271   4.265   0.516
    2X2IT    O2   79   1.248   4.384   0.543
    2X2IT    N3   80   1.192   4.313   0.296
    2X2IT   H15   81   1.164   4.297   0.200
    2X2IT   H16   82   1.182   4.406   0.337
    2X2IT    N2   83   1.397   3.961   0.663
    2X2IT    C3   84   1.374   3.818   0.689
    2X2IT    C2   85   1.320   3.820   0.831
    2X2IT    H2   86   1.324   3.729   0.892
    2X2IT    N1   87   1.206   3.913   0.847
    2X2IT   H14   88   1.151   3.887   0.929
    2X2IT    C1   89   1.341   3.954   0.891
    2X2IT    H1   90   1.362   3.970   0.995
    2X2IT   C11   91   1.414   4.039   0.788
    2X2IT    O3   92   1.548   4.039   0.833
    2X2IT   C15   93   1.649   4.078   0.738
    3X2IT   H18   94   3.736   4.309   2.168
    3X2IT    N4   95   3.663   4.305   2.236
    3X2IT   H17   96   3.573   4.270   2.205
    3X2IT   C14   97   3.702   4.284   2.365
    3X2IT    O5   98   3.815   4.298   2.408
    3X2IT    O4   99   3.593   4.249   2.441
    3X2IT   C13  100   3.618   4.231   2.582
    3X2IT   C10  101   3.617   4.365   2.658
    3X2IT    C9  102   3.636   4.349   2.807
    3X2IT    C4  103   3.529   4.404   2.875
    3X2IT    C5  104   3.515   4.404   3.024
    3X2IT    O1  105   3.417   4.459   3.077
    3X2IT    C6  106   3.621   4.339   3.099
    3X2IT   C12  107   3.613   4.336   3.250
    3X2IT    C7  108   3.729   4.285   3.031
    3X2IT    C8  109   3.741   4.287   2.878
    3X2IT    O2  110   3.840   4.231   2.828
    3X2IT    N3  111   3.832   4.225   3.091
    3X2IT   H15  112   3.839   4.214   3.191
    3X2IT   H16  113   3.906   4.187   3.031
    3X2IT    N2  114   3.441   4.464   2.791
    3X2IT    C3  115   3.295   4.475   2.805
    3X2IT    C2  116   3.245   4.404   2.679
    3X2IT    H2  117   3.144   4.424   2.643
    3X2IT    N1  118   3.305   4.270   2.663
    3X2IT   H14  119   3.246   4.214   2.600
    3X2IT    C1  120   3.359   4.384   2.586
    3X2IT    H1  121   3.348   4.388   2.478
    3X2IT   C11  122   3.483   4.446   2.649
    3X2IT    O3  123   3.497   4.570   2.582
    3X2IT   C15  124   3.581   4.668   2.644
    4X2IT   H18  125   0.155   4.450   3.574
    4X2IT    N4  126   0.160   4.370   3.634
    4X2IT   H17  127   0.121   4.284   3.599
    4X2IT   C14  128   0.267   4.365   3.719
    4X2IT    O5  129   0.339   4.459   3.748
    4X2IT    O4  130   0.280   4.239   3.770
    4X2IT   C13  131   0.385   4.220   3.867
    4X2IT   C10  132   0.340   4.263   4.008
    4X2IT    C9  133   0.445   4.238   4.114
    4X2IT    C4  134   0.395   4.156   4.213
    4X2IT    C5  135   0.474   4.111   4.332
    4X2IT    O1  136   0.419   4.039   4.418
    4X2IT    C6  137   0.611   4.155   4.340
    4X2IT   C12  138   0.696   4.113   4.458
    4X2IT    C7  139   0.661   4.239   4.242
    4X2IT    C8  140   0.579   4.285   4.121
    4X2IT    O2  141   0.635   4.356   4.036
    4X2IT    N3  142   0.786   4.287   4.241
    4X2IT   H15  143   0.854   4.265   4.312
    4X2IT   H16  144   0.813   4.347   4.162
    4X2IT    N2  145   0.264   4.126   4.193
    4X2IT    C3  146   0.193   4.002   4.227
    4X2IT    C2  147   0.142   3.956   4.091
    4X2IT    H2  148   0.059   3.886   4.086
    4X2IT    N1  149   0.250   3.950   3.990
    4X2IT   H14  150   0.222   3.887   3.914
    4X2IT    C1  151   0.158   4.066   3.993
    4X2IT    H1  152   0.089   4.083   3.911
    4X2IT   C11  153   0.215   4.186   4.066
    4X2IT    O3  154   0.103   4.270   4.086
    4X2IT   C15  155   0.116   4.373   4.185
    5X2IT   H18  156   3.214   2.385   1.755
    5X2IT    N4  157   3.115   2.381   1.740
    5X2IT   H17  158   3.057   2.438   1.800
    5X2IT   C14  159   3.073   2.356   1.612
    5X2IT    O5  160   3.143   2.312   1.523
    5X2IT    O4  161   2.940   2.384   1.600
    5X2IT   C13  162   2.880   2.357   1.472
    5X2IT   C10  163   2.841   2.208   1.459
    5X2IT    C9  164   2.772   2.176   1.329
    5X2IT    C4  165   2.647   2.123   1.353
    5X2IT    C5  166   2.551   2.081   1.245
    5X2IT    O1  167   2.442   2.030   1.276
    5X2IT    C6  168   2.594   2.102   1.109
    5X2IT   C12  169   2.503   2.062   0.995
    5X2IT    C7  170   2.720   2.155   1.085
    5X2IT    C8  171   2.816   2.196   1.196
    5X2IT    O2  172   2.925   2.247   1.163
    5X2IT    N3  173   2.769   2.177   0.962
    5X2IT   H15  174   2.718   2.157   0.878
    5X2IT   H16  175   2.863   2.218   0.956
    5X2IT    N2  176   2.623   2.105   1.485
    5X2IT    C3  177   2.495   2.115   1.557
    5X2IT    C2  178   2.523   2.226   1.657
    5X2IT    H2  179   2.461   2.236   1.746
    5X2IT    N1  180   2.578   2.348   1.592
    5X2IT   H14  181   2.562   2.429   1.653
    5X2IT    C1  182   2.669   2.254   1.661
    5X2IT    H1  183   2.721   2.284   1.751
    5X2IT   C11  184   2.737   2.157   1.566
    5X2IT    O3  185   2.791   2.057   1.652
    5X2IT   C15  186   2.828   1.933   1.592
    6X2IT   H18  187   1.148   3.942   2.167
    6X2IT    N4  188   1.211   3.912   2.095
    6X2IT   H17  189   1.192   3.944   2.001
    6X2IT   C14  190   1.341   3.890   2.133
    6X2IT    O5  191   1.379   3.876   2.248
    6X2IT    O4  192   1.421   3.881   2.023
    6X2IT   C13  193   1.560   3.851   2.048
    6X2IT   C10  194   1.582   3.700   2.065
    6X2IT    C9  195   1.728   3.664   2.084
    6X2IT    C4  196   1.768   3.575   1.986
    6X2IT    C5  197   1.907   3.520   1.975
    6X2IT    O1  198   1.934   3.438   1.886
    6X2IT    C6  199   2.003   3.566   2.073
    6X2IT   C12  200   2.145   3.514   2.068
    6X2IT    C7  201   1.962   3.654   2.172
    6X2IT    C8  202   1.820   3.709   2.182
    6X2IT    O2  203   1.796   3.790   2.272
    6X2IT    N3  204   2.043   3.701   2.268
    6X2IT   H15  205   2.141   3.676   2.275
    6X2IT   H16  206   2.003   3.766   2.335
    6X2IT    N2  207   1.666   3.538   1.905
    6X2IT    C3  208   1.671   3.505   1.762
    6X2IT    C2  209   1.577   3.609   1.701
    6X2IT    H2  210   1.533   3.592   1.603
    6X2IT    N1  211   1.611   3.747   1.743
    6X2IT   H14  212   1.571   3.813   1.677
    6X2IT    C1  213   1.501   3.675   1.810
    6X2IT    H1  214   1.398   3.709   1.798
    6X2IT   C11  215   1.541   3.611   1.942
    6X2IT    O3  216   1.435   3.522   1.971
    6X2IT   C15  217   1.460   3.419   2.067
    7X2IT   H18  218   2.577   3.283   3.438
    7X2IT    N4  219   2.515   3.360   3.450
    7X2IT   H17  220   2.552   3.452   3.431
    7X2IT   C14  221   2.382   3.336   3.429
    7X2IT    O5  222   2.331   3.225   3.425
    7X2IT    O4  223   2.314   3.454   3.419
    7X2IT   C13  224   2.171   3.443   3.404
    7X2IT   C10  225   2.101   3.425   3.539
    7X2IT    C9  226   1.950   3.421   3.528
    7X2IT    C4  227   1.893   3.521   3.605
    7X2IT    C5  228   1.746   3.545   3.616
    7X2IT    O1  229   1.704   3.634   3.690
    7X2IT    C6  230   1.661   3.459   3.537
    7X2IT   C12  231   1.510   3.478   3.543
    7X2IT    C7  232   1.717   3.358   3.461
    7X2IT    C8  233   1.868   3.334   3.452
    7X2IT    O2  234   1.908   3.244   3.377
    7X2IT    N3  235   1.646   3.272   3.386
    7X2IT   H15  236   1.546   3.275   3.379
    7X2IT   H16  237   1.699   3.203   3.332
    7X2IT    N2  238   1.987   3.589   3.676
    7X2IT    C3  239   1.985   3.732   3.713
    7X2IT    C2  240   2.112   3.784   3.647
    7X2IT    H2  241   2.157   3.877   3.682
    7X2IT    N1  242   2.118   3.749   3.503
    7X2IT   H14  243   2.183   3.812   3.456
    7X2IT    C1  244   2.194   3.669   3.602
    7X2IT    H1  245   2.303   3.671   3.602
    7X2IT   C11  246   2.124   3.541   3.643
    7X2IT    O3  247   2.194   3.499   3.759
    7X2IT   C15  248   2.129   3.403   3.844
    8X2IT   H18  249   4.619   1.681   4.401
    8X2IT    N4  250   4.642   1.583   4.400
    8X2IT   H17  251   4.700   1.550   4.324
    8X2IT   C14  252   4.650   1.521   4.521
    8X2IT    O5  253   4.606   1.565   4.626
    8X2IT    O4  254   4.711   1.400   4.507
    8X2IT   C13  255   4.721   1.319   4.627
    8X2IT   C10  256   4.591   1.241   4.653
    8X2IT    C9  257   4.599   1.150   4.773
    8X2IT    C4  258   4.574   1.019   4.736
    8X2IT    C5  259   4.575   0.904   4.832
    8X2IT    O1  260   4.548   0.790   4.791
    8X2IT    C6  261   4.609   0.934   4.969
    8X2IT   C12  262   4.612   0.822   5.071
    8X2IT    C7  263   4.633   1.065   5.006
    8X2IT    C8  264   4.631   1.182   4.908
    8X2IT    O2  265   4.658   1.295   4.951
    8X2IT    N3  266   4.663   1.103   5.131
    8X2IT   H15  267   4.671   1.038   5.208
    8X2IT   H16  268   4.681   1.202   5.147
    8X2IT    N2  269   4.540   1.009   4.605
    8X2IT    C3  270   4.569   0.898   4.513
    8X2IT    C2  271   4.651   0.966   4.405
    8X2IT    H2  272   4.660   0.920   4.307
    8X2IT    N1  273   4.765   1.042   4.461
    8X2IT   H14  274   4.835   1.057   4.388
    8X2IT    C1  275   4.641   1.113   4.421
    8X2IT    H1  276   4.642   1.182   4.338
    8X2IT   C11  277   4.548   1.142   4.538
    8X2IT    O3  278   4.426   1.177   4.477
    8X2IT   C15  279   4.308   1.172   4.558
    9X2IT   H18  280   3.749   2.758   2.844
    9X2IT    N4  281   3.796   2.748   2.932
    9X2IT   H17  282   3.841   2.830   2.970
    9X2IT   C14  283   3.744   2.655   3.018
    9X2IT    O5  284   3.667   2.566   2.987
    9X2IT    O4  285   3.796   2.673   3.143
    9X2IT   C13  286   3.755   2.577   3.244
    9X2IT   C10  287   3.841   2.450   3.237
    9X2IT    C9  288   3.806   2.350   3.345
    9X2IT    C4  289   3.917   2.322   3.422
    9X2IT    C5  290   3.917   2.227   3.539
    9X2IT    O1  291   4.023   2.205   3.600
    9X2IT    C6  292   3.791   2.165   3.571
    9X2IT   C12  293   3.784   2.069   3.688
    9X2IT    C7  294   3.680   2.192   3.494
    9X2IT    C8  295   3.682   2.289   3.375
    9X2IT    O2  296   3.575   2.309   3.315
    9X2IT    N3  297   3.559   2.139   3.515
    9X2IT   H15  298   3.540   2.075   3.590
    9X2IT   H16  299   3.483   2.167   3.452
    9X2IT    N2  300   4.029   2.384   3.375
    9X2IT    C3  301   4.143   2.436   3.453
    9X2IT    C2  302   4.141   2.584   3.417
    9X2IT    H2  303   4.230   2.644   3.432
    9X2IT    N1  304   4.007   2.645   3.438
    9X2IT   H14  305   4.018   2.747   3.448
    9X2IT    C1  306   4.050   2.606   3.302
    9X2IT    H1  307   4.067   2.681   3.226
    9X2IT   C11  308   3.995   2.471   3.259
    9X2IT    O3  309   4.072   2.438   3.145
    9X2IT   C15  310   4.073   2.301   3.103
   10X2IT   H18  311   2.865   3.749   2.239
   10X2IT    N4  312   2.913   3.711   2.159
   10X2IT   H17  313   2.954   3.619   2.169
   10X2IT   C14  314   2.868   3.752   2.037
   10X2IT    O5  315   2.796   3.847   2.016
   10X2IT    O4  316   2.920   3.671   1.939
   10X2IT   C13  317   2.886   3.706   1.803
   10X2IT   C10  318   2.979   3.816   1.749
   10X2IT    C9  319   2.951   3.850   1.604
   10X2IT    C4  320   3.064   3.831   1.528
   10X2IT    C5  321   3.071   3.855   1.380
   10X2IT    O1  322   3.178   3.839   1.320
   10X2IT    C6  323   2.949   3.898   1.316
   10X2IT   C12  324   2.948   3.924   1.167
   10X2IT    C7  325   2.836   3.918   1.392
   10X2IT    C8  326   2.830   3.894   1.544
   10X2IT    O2  327   2.722   3.911   1.602
   10X2IT    N3  328   2.718   3.960   1.343
   10X2IT   H15  329   2.703   3.979   1.245
   10X2IT   H16  330   2.640   3.970   1.408
   10X2IT    N2  331   3.171   3.796   1.603
   10X2IT    C3  332   3.283   3.707   1.566
   10X2IT    C2  333   3.272   3.596   1.670
   10X2IT    H2  334   3.358   3.533   1.691
   10X2IT    N1  335   3.136   3.539   1.677
   10X2IT   H14  336   3.140   3.446   1.720
   10X2IT    C1  337   3.178   3.638   1.778
   10X2IT    H1  338   3.191   3.610   1.882
   10X2IT   C11  339   3.132   3.780   1.746
   10X2IT    O3  340   3.209   3.862   1.832
   10X2IT   C15  341   3.217   4.001   1.800
   11X2IT   H18  342   4.446   4.105   1.202
   11X2IT    N4  343   4.427   4.187   1.256
   11X2IT   H17  344   4.504   4.250   1.272
   11X2IT   C14  345   4.300   4.238   1.247
   11X2IT    O5  346   4.204   4.178   1.203
   11X2IT    O4  347   4.297   4.364   1.299
   11X2IT   C13  348   4.168   4.428   1.302
   11X2IT   C10  349   4.087   4.385   1.426
   11X2IT    C9  350   3.953   4.456   1.437
   11X2IT    C4  351   3.945   4.524   1.556
   11X2IT    C5  352   3.826   4.605   1.599
   11X2IT    O1  353   3.826   4.660   1.710
   11X2IT    C6  354   3.717   4.612   1.505
   11X2IT   C12  355   3.593   4.693   1.541
   11X2IT    C7  356   3.725   4.543   1.385
   11X2IT    C8  357   3.846   4.460   1.344
   11X2IT    O2  358   3.845   4.406   1.232
   11X2IT    N3  359   3.627   4.542   1.293
   11X2IT   H15  360   3.541   4.593   1.303
   11X2IT   H16  361   3.645   4.489   1.207
   11X2IT    N2  362   4.054   4.503   1.635
   11X2IT    C3  363   4.117   4.597   1.729
   11X2IT    C2  364   4.258   4.609   1.673
   11X2IT    H2  365   4.338   4.645   1.737
   11X2IT    N1  366   4.258   4.643   1.529
   11X2IT   H14  367   4.348   4.684   1.504
   11X2IT    C1  368   4.280   4.503   1.571
   11X2IT    H1  369   4.375   4.455   1.556
   11X2IT   C11  370   4.154   4.418   1.564
   11X2IT    O3  371   4.187   4.302   1.639
   11X2IT   C15  372   4.078   4.220   1.683
   12X2IT   H18  373   3.662   1.362   1.010
   12X2IT    N4  374   3.619   1.410   0.933
   12X2IT   H17  375   3.595   1.507   0.948
   12X2IT   C14  376   3.653   1.368   0.808
   12X2IT    O5  377   3.708   1.262   0.781
   12X2IT    O4  378   3.613   1.460   0.715
   12X2IT   C13  379   3.637   1.426   0.577
   12X2IT   C10  380   3.526   1.336   0.521
   12X2IT    C9  381   3.543   1.304   0.375
   12X2IT    C4  382   3.432   1.345   0.303
   12X2IT    C5  383   3.418   1.329   0.155
   12X2IT    O1  384   3.313   1.365   0.099
   12X2IT    C6  385   3.529   1.269   0.085
   12X2IT   C12  386   3.521   1.250  -0.065
   12X2IT    C7  387   3.639   1.226   0.157
   12X2IT    C8  388   3.652   1.243   0.309
   12X2IT    O2  389   3.758   1.205   0.362
   12X2IT    N3  390   3.746   1.168   0.101
   12X2IT   H15  391   3.755   1.151   0.003
   12X2IT   H16  392   3.823   1.142   0.164
   12X2IT    N2  393   3.335   1.395   0.384
   12X2IT    C3  394   3.239   1.503   0.354
   12X2IT    C2  395   3.272   1.605   0.462
   12X2IT    H2  396   3.198   1.681   0.488
   12X2IT    N1  397   3.416   1.638   0.466
   12X2IT   H14  398   3.429   1.729   0.512
   12X2IT    C1  399   3.360   1.543   0.564
   12X2IT    H1  400   3.355   1.568   0.669
   12X2IT   C11  401   3.381   1.398   0.526
   12X2IT    O3  402   3.293   1.326   0.611
   12X2IT   C15  403   3.261   1.192   0.574
   13X2IT   H18  404   3.046   1.135   4.826
   13X2IT    N4  405   3.102   1.052   4.828
   13X2IT   H17  406   3.103   0.999   4.915
   13X2IT   C14  407   3.117   0.986   4.710
   13X2IT    O5  408   3.093   1.033   4.600
   13X2IT    O4  409   3.168   0.861   4.732
   13X2IT   C13  410   3.196   0.782   4.615
   13X2IT   C10  411   3.333   0.817   4.554
   13X2IT    C9  412   3.369   0.732   4.435
   13X2IT    C4  413   3.488   0.665   4.458
   13X2IT    C5  414   3.552   0.571   4.360
   13X2IT    O1  415   3.661   0.519   4.388
   13X2IT    C6  416   3.480   0.548   4.237
   13X2IT   C12  417   3.539   0.454   4.133
   13X2IT    C7  418   3.362   0.616   4.213
   13X2IT    C8  419   3.298   0.712   4.314
   13X2IT    O2  420   3.189   0.763   4.284
   13X2IT    N3  421   3.290   0.602   4.101
   13X2IT   H15  422   3.316   0.542   4.025
   13X2IT   H16  423   3.202   0.656   4.095
   13X2IT    N2  424   3.544   0.701   4.576
   13X2IT    C3  425   3.625   0.618   4.667
   13X2IT    C2  426   3.543   0.621   4.795
   13X2IT    H2  427   3.590   0.598   4.891
   13X2IT    N1  428   3.401   0.585   4.773
   13X2IT   H14  429   3.359   0.555   4.861
   13X2IT    C1  430   3.439   0.727   4.784
   13X2IT    H1  431   3.405   0.786   4.869
   13X2IT   C11  432   3.456   0.796   4.650
   13X2IT    O3  433   3.523   0.917   4.682
   13X2IT   C15  434   3.588   0.986   4.574
   14X2IT   H18  435   1.003   3.600   2.642
   14X2IT    N4  436   0.903   3.601   2.641
   14X2IT   H17  437   0.856   3.547   2.712
   14X2IT   C14  438   0.843   3.714   2.593
   14X2IT    O5  439   0.899   3.800   2.528
   14X2IT    O4  440   0.711   3.714   2.626
   14X2IT   C13  441   0.633   3.825   2.577
   14X2IT   C10  442   0.587   3.801   2.432
   14X2IT    C9  443   0.500   3.912   2.378
   14X2IT    C4  444   0.378   3.861   2.338
   14X2IT    C5  445   0.267   3.945   2.281
   14X2IT    O1  446   0.162   3.890   2.244
   14X2IT    C6  447   0.291   4.087   2.271
   14X2IT   C12  448   0.184   4.177   2.215
   14X2IT    C7  449   0.414   4.137   2.310
   14X2IT    C8  450   0.526   4.051   2.368
   14X2IT    O2  451   0.631   4.108   2.404
   14X2IT    N3  452   0.447   4.267   2.303
   14X2IT   H15  453   0.384   4.338   2.270
   14X2IT   H16  454   0.540   4.294   2.337
   14X2IT    N2  455   0.372   3.726   2.349
   14X2IT    C3  456   0.256   3.643   2.382
   14X2IT    C2  457   0.301   3.572   2.509
   14X2IT    H2  458   0.252   3.480   2.540
   14X2IT    N1  459   0.350   3.668   2.611
   14X2IT   H14  460   0.346   3.624   2.703
   14X2IT    C1  461   0.447   3.593   2.528
   14X2IT    H1  462   0.512   3.519   2.572
   14X2IT   C11  463   0.498   3.674   2.409
   14X2IT    O3  464   0.560   3.577   2.327
   14X2IT   C15  465   0.584   3.613   2.190
   15X2IT   H18  466   0.012   1.430   3.903
   15X2IT    N4  467  -0.017   1.404   3.995
   15X2IT   H17  468  -0.088   1.462   4.039
   15X2IT   C14  469  -0.011   1.271   4.026
   15X2IT    O5  470   0.052   1.187   3.964
   15X2IT    O4  471  -0.081   1.247   4.141
   15X2IT   C13  472  -0.077   1.111   4.190
   15X2IT   C10  473   0.050   1.085   4.273
   15X2IT    C9  474   0.054   0.946   4.332
   15X2IT    C4  475   0.064   0.953   4.470
   15X2IT    C5  476   0.070   0.832   4.559
   15X2IT    O1  477   0.083   0.848   4.682
   15X2IT    C6  478   0.061   0.703   4.495
   15X2IT   C12  479   0.065   0.578   4.580
   15X2IT    C7  480   0.051   0.697   4.357
   15X2IT    C8  481   0.046   0.820   4.267
   15X2IT    O2  482   0.033   0.802   4.145
   15X2IT    N3  483   0.044   0.582   4.289
   15X2IT   H15  484   0.044   0.491   4.332
   15X2IT   H16  485   0.035   0.588   4.187
   15X2IT    N2  486   0.077   1.080   4.514
   15X2IT    C3  487   0.027   1.138   4.640
   15X2IT    C2  488  -0.067   1.248   4.590
   15X2IT    H2  489  -0.094   1.330   4.656
   15X2IT    N1  490  -0.165   1.197   4.492
   15X2IT   H14  491  -0.245   1.261   4.488
   15X2IT    C1  492  -0.045   1.269   4.445
   15X2IT    H1  493  -0.053   1.366   4.397
   15X2IT   C11  494   0.067   1.176   4.400
   15X2IT    O3  495   0.181   1.261   4.392
   15X2IT   C15  496   0.309   1.197   4.390
   16X2IT   H18  497   3.390   4.805   5.562
   16X2IT    N4  498   3.464   4.790   5.496
   16X2IT   H17  499   3.548   4.745   5.530
   16X2IT   C14  500   3.427   4.772   5.366
   16X2IT    O5  501   3.318   4.799   5.320
   16X2IT    O4  502   3.533   4.724   5.294
   16X2IT   C13  503   3.510   4.706   5.153
   16X2IT   C10  504   3.530   4.838   5.076
   16X2IT    C9  505   3.514   4.823   4.926
   16X2IT    C4  506   3.630   4.863   4.861
   16X2IT    C5  507   3.648   4.859   4.712
   16X2IT    O1  508   3.754   4.901   4.663
   16X2IT    C6  509   3.538   4.807   4.635
   16X2IT   C12  510   3.549   4.801   4.484
   16X2IT    C7  511   3.422   4.768   4.700
   16X2IT    C8  512   3.405   4.773   4.852
   16X2IT    O2  513   3.298   4.731   4.900
   16X2IT    N3  514   3.314   4.720   4.637
   16X2IT   H15  515   3.309   4.708   4.537
   16X2IT   H16  516   3.234   4.692   4.695
   16X2IT    N2  517   3.722   4.913   4.948
   16X2IT    C3  518   3.868   4.906   4.938
   16X2IT    C2  519   3.905   4.832   5.066
   16X2IT    H2  520   4.006   4.839   5.106
   16X2IT    N1  521   3.829   4.706   5.082
   16X2IT   H14  522   3.878   4.644   5.147
   16X2IT    C1  523   3.787   4.827   5.156
   16X2IT    H1  524   3.794   4.831   5.264
   16X2IT   C11  525   3.673   4.902   5.088
   16X2IT    O3  526   3.672   5.028   5.154
   16X2IT   C15  527   3.603   5.135   5.088
   17X2IT   H18  528   3.651   2.342   2.654
   17X2IT    N4  529   3.697   2.291   2.727
   17X2IT   H17  530   3.796   2.308   2.740
   17X2IT   C14  531   3.621   2.258   2.836
   17X2IT    O5  532   3.499   2.260   2.839
   17X2IT    O4  533   3.702   2.218   2.938
   17X2IT   C13  534   3.634   2.173   3.058
   17X2IT   C10  535   3.591   2.026   3.047
   17X2IT    C9  536   3.526   1.973   3.173
   17X2IT    C4  537   3.596   1.864   3.220
   17X2IT    C5  538   3.558   1.788   3.344
   17X2IT    O1  539   3.624   1.688   3.377
   17X2IT    C6  540   3.444   1.837   3.418
   17X2IT   C12  541   3.402   1.765   3.544
   17X2IT    C7  542   3.374   1.946   3.370
   17X2IT    C8  543   3.413   2.022   3.243
   17X2IT    O2  544   3.345   2.121   3.212
   17X2IT    N3  545   3.266   1.998   3.431
   17X2IT   H15  546   3.228   1.961   3.516
   17X2IT   H16  547   3.223   2.080   3.387
   17X2IT    N2  548   3.697   1.828   3.137
   17X2IT    C3  549   3.827   1.769   3.173
   17X2IT    C2  550   3.925   1.872   3.119
   17X2IT    H2  551   4.028   1.844   3.100
   17X2IT    N1  552   3.894   2.009   3.166
   17X2IT   H14  553   3.978   2.067   3.159
   17X2IT    C1  554   3.853   1.967   3.031
   17X2IT    H1  555   3.898   2.012   2.943
   17X2IT   C11  556   3.708   1.923   3.023
   17X2IT    O3  557   3.698   1.857   2.898
   17X2IT   C15  558   3.586   1.771   2.877
   18X2IT   H18  559   0.339   0.327   1.282
   18X2IT    N4  560   0.375   0.288   1.368
   18X2IT   H17  561   0.408   0.193   1.365
   18X2IT   C14  562   0.433   0.377   1.454
   18X2IT    O5  563   0.421   0.498   1.450
   18X2IT    O4  564   0.503   0.309   1.550
   18X2IT   C13  565   0.565   0.389   1.653
   18X2IT   C10  566   0.465   0.424   1.764
   18X2IT    C9  567   0.527   0.502   1.878
   18X2IT    C4  568   0.511   0.435   1.997
   18X2IT    C5  569   0.562   0.484   2.129
   18X2IT    O1  570   0.540   0.419   2.232
   18X2IT    C6  571   0.634   0.609   2.127
   18X2IT   C12  572   0.689   0.665   2.257
   18X2IT    C7  573   0.649   0.677   2.008
   18X2IT    C8  574   0.596   0.626   1.874
   18X2IT    O2  575   0.619   0.693   1.772
   18X2IT    N3  576   0.713   0.795   1.997
   18X2IT   H15  577   0.756   0.842   2.074
   18X2IT   H16  578   0.720   0.836   1.903
   18X2IT    N2  579   0.437   0.322   1.982
   18X2IT    C3  580   0.449   0.195   2.056
   18X2IT    C2  581   0.479   0.096   1.945
   18X2IT    H2  582   0.461  -0.011   1.961
   18X2IT    N1  583   0.592   0.139   1.859
   18X2IT   H14  584   0.631   0.058   1.811
   18X2IT    C1  585   0.453   0.160   1.813
   18X2IT    H1  586   0.415   0.106   1.728
   18X2IT   C11  587   0.402   0.300   1.839
   18X2IT    O3  588   0.262   0.290   1.820
   18X2IT   C15  589   0.180   0.394   1.874
   19X2IT   H18  590   2.193   1.366   1.587
   19X2IT    N4  591   2.132   1.384   1.664
   19X2IT   H17  592   2.039   1.344   1.660
   19X2IT   C14  593   2.192   1.400   1.786
   19X2IT    O5  594   2.310   1.422   1.804
   19X2IT    O4  595   2.098   1.392   1.885
   19X2IT   C13  596   2.145   1.414   2.020
   19X2IT   C10  597   2.154   1.564   2.052
   19X2IT    C9  598   2.197   1.591   2.195
   19X2IT    C4  599   2.101   1.667   2.260
   19X2IT    C5  600   2.112   1.710   2.403
   19X2IT    O1  601   2.022   1.781   2.452
   19X2IT    C6  602   2.229   1.667   2.475
   19X2IT   C12  603   2.246   1.707   2.620
   19X2IT    C7  604   2.325   1.593   2.410
   19X2IT    C8  605   2.313   1.549   2.264
   19X2IT    O2  606   2.404   1.479   2.216
   19X2IT    N3  607   2.438   1.549   2.468
   19X2IT   H15  608   2.461   1.567   2.564
   19X2IT   H16  609   2.502   1.493   2.410
   19X2IT    N2  610   1.999   1.703   2.177
   19X2IT    C3  611   1.857   1.721   2.211
   19X2IT    C2  612   1.789   1.620   2.120
   19X2IT    H2  613   1.684   1.630   2.097
   19X2IT    N1  614   1.848   1.484   2.134
   19X2IT   H14  615   1.781   1.415   2.101
   19X2IT    C1  616   1.887   1.570   2.020
   19X2IT    H1  617   1.859   1.543   1.919
   19X2IT   C11  618   2.018   1.644   2.042
   19X2IT    O3  619   2.020   1.742   1.940
   19X2IT   C15  620   2.110   1.852   1.957
   20X2IT   H18  621   1.157   0.678   2.115
   20X2IT    N4  622   1.214   0.640   2.188
   20X2IT   H17  623   1.303   0.600   2.162
   20X2IT   C14  624   1.201   0.698   2.311
   20X2IT    O5  625   1.109   0.771   2.345
   20X2IT    O4  626   1.304   0.659   2.392
   20X2IT   C13  627   1.299   0.708   2.528
   20X2IT   C10  628   1.209   0.620   2.616
   20X2IT    C9  629   1.207   0.664   2.761
   20X2IT    C4  630   1.248   0.560   2.843
   20X2IT    C5  631   1.258   0.570   2.992
   20X2IT    O1  632   1.292   0.470   3.058
   20X2IT    C6  633   1.226   0.698   3.051
   20X2IT   C12  634   1.235   0.715   3.201
   20X2IT    C7  635   1.184   0.801   2.969
   20X2IT    C8  636   1.173   0.790   2.817
   20X2IT    O2  637   1.139   0.890   2.753
   20X2IT    N3  638   1.151   0.923   3.014
   20X2IT   H15  639   1.154   0.948   3.112
   20X2IT   H16  640   1.123   0.993   2.945
   20X2IT    N2  641   1.269   0.445   2.773
   20X2IT    C3  642   1.369   0.340   2.800
   20X2IT    C2  643   1.452   0.341   2.672
   20X2IT    H2  644   1.512   0.254   2.647
   20X2IT    N1  645   1.501   0.476   2.638
   20X2IT   H14  646   1.582   0.469   2.576
   20X2IT    C1  647   1.383   0.421   2.568
   20X2IT    H1  648   1.387   0.397   2.463
   20X2IT   C11  649   1.251   0.469   2.627
   20X2IT    O3  650   1.155   0.381   2.571
   20X2IT   C15  651   1.027   0.375   2.635
   21X2IT   H18  652   1.757   3.031   1.320
   21X2IT    N4  653   1.790   2.973   1.245
   21X2IT   H17  654   1.808   2.876   1.267
   21X2IT   C14  655   1.748   3.006   1.119
   21X2IT    O5  656   1.700   3.113   1.087
   21X2IT    O4  657   1.773   2.903   1.034
   21X2IT   C13  658   1.741   2.926   0.895
   21X2IT   C10  659   1.853   3.001   0.822
   21X2IT    C9  660   1.826   3.022   0.675
   21X2IT    C4  661   1.927   2.965   0.599
   21X2IT    C5  662   1.930   2.966   0.449
   21X2IT    O1  663   2.026   2.916   0.390
   21X2IT    C6  664   1.818   3.029   0.383
   21X2IT   C12  665   1.815   3.033   0.232
   21X2IT    C7  666   1.717   3.086   0.459
   21X2IT    C8  667   1.716   3.085   0.612
   21X2IT    O2  668   1.618   3.135   0.669
   21X2IT    N3  669   1.610   3.148   0.406
   21X2IT   H15  670   1.595   3.156   0.307
   21X2IT   H16  671   1.541   3.185   0.472
   21X2IT    N2  672   2.027   2.915   0.677
   21X2IT    C3  673   2.111   2.797   0.650
   21X2IT    C2  674   2.081   2.708   0.770
   21X2IT    H2  675   2.151   2.629   0.798
   21X2IT    N1  676   1.935   2.687   0.789
   21X2IT   H14  677   1.920   2.603   0.844
   21X2IT    C1  678   2.007   2.786   0.872
   21X2IT    H1  679   2.019   2.770   0.978
   21X2IT   C11  680   1.993   2.929   0.821
   21X2IT    O3  681   2.093   3.000   0.892
   21X2IT   C15  682   2.132   3.128   0.839
   22X2IT   H18  683   1.292   4.210   3.509
   22X2IT    N4  684   1.283   4.148   3.587
   22X2IT   H17  685   1.294   4.049   3.568
   22X2IT   C14  686   1.319   4.197   3.709
   22X2IT    O5  687   1.335   4.315   3.736
   22X2IT    O4  688   1.331   4.094   3.799
   22X2IT   C13  689   1.363   4.132   3.935
   22X2IT   C10  690   1.237   4.173   4.012
   22X2IT    C9  691   1.265   4.207   4.157
   22X2IT    C4  692   1.190   4.126   4.240
   22X2IT    C5  693   1.195   4.132   4.390
   22X2IT    O1  694   1.121   4.058   4.457
   22X2IT    C6  695   1.286   4.228   4.448
   22X2IT   C12  696   1.296   4.239   4.599
   22X2IT    C7  697   1.361   4.309   4.365
   22X2IT    C8  698   1.354   4.302   4.212
   22X2IT    O2  699   1.429   4.377   4.147
   22X2IT    N3  700   1.447   4.402   4.409
   22X2IT   H15  701   1.465   4.419   4.506
   22X2IT   H16  702   1.498   4.456   4.338
   22X2IT    N2  703   1.106   4.045   4.171
   22X2IT    C3  704   1.062   3.909   4.205
   22X2IT    C2  705   1.111   3.828   4.086
   22X2IT    H2  706   1.066   3.731   4.065
   22X2IT    N1  707   1.255   3.851   4.058
   22X2IT   H14  708   1.291   3.772   4.004
   22X2IT    C1  709   1.153   3.920   3.977
   22X2IT    H1  710   1.140   3.897   3.872
   22X2IT   C11  711   1.125   4.062   4.024
   22X2IT    O3  712   1.005   4.098   3.958
   22X2IT   C15  713   0.933   4.210   4.010
   23X2IT   H18  714   2.275   2.646   4.051
   23X2IT    N4  715   2.324   2.567   4.089
   23X2IT   H17  716   2.417   2.549   4.054
   23X2IT   C14  717   2.295   2.534   4.218
   23X2IT    O5  718   2.197   2.572   4.280
   23X2IT    O4  719   2.389   2.447   4.267
   23X2IT   C13  720   2.367   2.398   4.400
   23X2IT   C10  721   2.270   2.278   4.401
   23X2IT    C9  722   2.250   2.219   4.539
   23X2IT    C4  723   2.285   2.085   4.539
   23X2IT    C5  724   2.277   1.997   4.660
   23X2IT    O1  725   2.307   1.877   4.650
   23X2IT    C6  726   2.234   2.059   4.782
   23X2IT   C12  727   2.224   1.975   4.908
   23X2IT    C7  728   2.198   2.192   4.782
   23X2IT    C8  729   2.205   2.281   4.658
   23X2IT    O2  730   2.174   2.401   4.670
   23X2IT    N3  731   2.154   2.258   4.891
   23X2IT   H15  732   2.145   2.215   4.981
   23X2IT   H16  733   2.132   2.357   4.879
   23X2IT    N2  734   2.319   2.041   4.415
   23X2IT    C3  735   2.419   1.939   4.380
   23X2IT    C2  736   2.516   2.017   4.293
   23X2IT    H2  737   2.582   1.964   4.224
   23X2IT    N1  738   2.563   2.141   4.359
   23X2IT   H14  739   2.651   2.171   4.316
   23X2IT    C1  740   2.456   2.148   4.257
   23X2IT    H1  741   2.473   2.197   4.162
   23X2IT   C11  742   2.316   2.153   4.317
   23X2IT    O3  743   2.231   2.126   4.207
   23X2IT   C15  744   2.097   2.085   4.237
   24X2IT   H18  745   3.067   0.173   0.612
   24X2IT    N4  746   3.165   0.152   0.620
   24X2IT   H17  747   3.218   0.144   0.534
   24X2IT   C14  748   3.228   0.197   0.733
   24X2IT    O5  749   3.172   0.234   0.835
   24X2IT    O4  750   3.363   0.189   0.717
   24X2IT   C13  751   3.443   0.226   0.832
   24X2IT   C10  752   3.457   0.110   0.932
   24X2IT    C9  753   3.545   0.143   1.050
   24X2IT    C4  754   3.651   0.054   1.057
   24X2IT    C5  755   3.758   0.060   1.162
   24X2IT    O1  756   3.847  -0.027   1.163
   24X2IT    C6  757   3.749   0.167   1.258
   24X2IT   C12  758   3.854   0.179   1.366
   24X2IT    C7  759   3.643   0.256   1.251
   24X2IT    C8  760   3.534   0.249   1.144
   24X2IT    O2  761   3.446   0.336   1.144
   24X2IT    N3  762   3.625   0.358   1.336
   24X2IT   H15  763   3.689   0.378   1.411
   24X2IT   H16  764   3.544   0.418   1.321
   24X2IT    N2  765   3.642  -0.043   0.963
   24X2IT    C3  766   3.752  -0.112   0.893
   24X2IT    C2  767   3.724  -0.078   0.747
   24X2IT    H2  768   3.766  -0.140   0.668
   24X2IT    N1  769   3.707   0.067   0.726
   24X2IT   H14  770   3.723   0.089   0.627
   24X2IT    C1  771   3.588  -0.020   0.736
   24X2IT    H1  772   3.523  -0.036   0.650
   24X2IT   C11  773   3.524  -0.020   0.874
   24X2IT    O3  774   3.437  -0.131   0.872
   24X2IT   C15  775   3.392  -0.182   0.998
   25X2IT   H18  776   2.490   1.540   3.126
   25X2IT    N4  777   2.553   1.462   3.126
   25X2IT   H17  778   2.582   1.426   3.036
   25X2IT   C14  779   2.640   1.454   3.232
   25X2IT    O5  780   2.628   1.516   3.336
   25X2IT    O4  781   2.738   1.364   3.205
   25X2IT   C13  782   2.833   1.340   3.311
   25X2IT   C10  783   2.779   1.237   3.412
   25X2IT    C9  784   2.879   1.204   3.521
   25X2IT    C4  785   2.905   1.068   3.522
   25X2IT    C5  786   3.000   1.002   3.618
   25X2IT    O1  787   3.015   0.879   3.614
   25X2IT    C6  788   3.069   1.088   3.710
   25X2IT   C12  789   3.167   1.028   3.809
   25X2IT    C7  790   3.042   1.224   3.710
   25X2IT    C8  791   2.944   1.290   3.613
   25X2IT    O2  792   2.931   1.413   3.618
   25X2IT    N3  793   3.100   1.312   3.794
   25X2IT   H15  794   3.168   1.286   3.863
   25X2IT   H16  795   3.073   1.410   3.783
   25X2IT    N2  796   2.829   1.001   3.432
   25X2IT    C3  797   2.865   0.881   3.356
   25X2IT    C2  798   2.852   0.929   3.212
   25X2IT    H2  799   2.839   0.856   3.131
   25X2IT    N1  800   2.928   1.053   3.187
   25X2IT   H14  801   2.946   1.063   3.087
   25X2IT    C1  802   2.782   1.060   3.210
   25X2IT    H1  803   2.715   1.090   3.131
   25X2IT   C11  804   2.745   1.095   3.353
   25X2IT    O3  805   2.607   1.064   3.362
   25X2IT   C15  806   2.552   1.049   3.493
   26X2IT   H18  807   1.449   4.601   1.360
   26X2IT    N4  808   1.373   4.553   1.405
   26X2IT   H17  809   1.321   4.487   1.348
   26X2IT   C14  810   1.387   4.528   1.538
   26X2IT    O5  811   1.467   4.583   1.612
   26X2IT    O4  812   1.295   4.436   1.579
   26X2IT   C13  813   1.293   4.405   1.720
   26X2IT   C10  814   1.211   4.508   1.799
   26X2IT    C9  815   1.201   4.475   1.946
   26X2IT    C4  816   1.069   4.463   1.984
   26X2IT    C5  817   1.023   4.431   2.123
   26X2IT    O1  818   0.902   4.426   2.148
   26X2IT    C6  819   1.127   4.408   2.221
   26X2IT   C12  820   1.089   4.374   2.363
   26X2IT    C7  821   1.260   4.421   2.183
   26X2IT    C8  822   1.304   4.455   2.041
   26X2IT    O2  823   1.426   4.460   2.018
   26X2IT    N3  824   1.363   4.403   2.267
   26X2IT   H15  825   1.352   4.378   2.364
   26X2IT   H16  826   1.457   4.414   2.228
   26X2IT    N2  827   0.984   4.493   1.882
   26X2IT    C3  828   0.852   4.434   1.854
   26X2IT    C2  829   0.871   4.373   1.716
   26X2IT    H2  830   0.785   4.352   1.654
   26X2IT    N1  831   0.990   4.285   1.710
   26X2IT   H14  832   0.981   4.221   1.630
   26X2IT    C1  833   0.999   4.423   1.658
   26X2IT    H1  834   1.012   4.442   1.552
   26X2IT   C11  835   1.060   4.521   1.757
   26X2IT    O3  836   1.028   4.648   1.703
   26X2IT   C15  837   1.038   4.761   1.792
   27X2IT   H18  838   2.197  -0.027   4.195
   27X2IT    N4  839   2.197   0.037   4.273
   27X2IT   H17  840   2.225   0.132   4.255
   27X2IT   C14  841   2.105   0.012   4.371
   27X2IT    O5  842   2.045  -0.092   4.387
   27X2IT    O4  843   2.095   0.121   4.453
   27X2IT   C13  844   2.007   0.107   4.567
   27X2IT   C10  845   2.076   0.037   4.684
   27X2IT    C9  846   1.989   0.027   4.807
   27X2IT    C4  847   2.050   0.088   4.915
   27X2IT    C5  848   1.990   0.097   5.052
   27X2IT    O1  849   2.054   0.151   5.143
   27X2IT    C6  850   1.859   0.039   5.069
   27X2IT   C12  851   1.793   0.045   5.205
   27X2IT    C7  852   1.798  -0.023   4.961
   27X2IT    C8  853   1.861  -0.032   4.822
   27X2IT    O2  854   1.795  -0.087   4.732
   27X2IT    N3  855   1.677  -0.081   4.968
   27X2IT   H15  856   1.621  -0.083   5.051
   27X2IT   H16  857   1.641  -0.123   4.882
   27X2IT    N2  858   2.175   0.133   4.884
   27X2IT    C3  859   2.244   0.252   4.936
   27X2IT    C2  860   2.269   0.333   4.810
   27X2IT    H2  861   2.346   0.410   4.809
   27X2IT    N1  862   2.145   0.352   4.730
   27X2IT   H14  863   2.157   0.433   4.668
   27X2IT    C1  864   2.242   0.248   4.691
   27X2IT    H1  865   2.298   0.257   4.598
   27X2IT   C11  866   2.205   0.109   4.740
   27X2IT    O3  867   2.323   0.033   4.722
   27X2IT   C15  868   2.332  -0.090   4.793
   28X2IT   H18  869   0.378   2.915   2.543
   28X2IT    N4  870   0.421   2.831   2.577
   28X2IT   H17  871   0.519   2.819   2.559
   28X2IT   C14  872   0.368   2.778   2.691
   28X2IT    O5  873   0.258   2.806   2.738
   28X2IT    O4  874   0.453   2.685   2.743
   28X2IT   C13  875   0.407   2.615   2.861
   28X2IT   C10  876   0.315   2.497   2.824
   28X2IT    C9  877   0.270   2.416   2.944
   28X2IT    C4  878   0.309   2.284   2.930
   28X2IT    C5  879   0.281   2.178   3.032
   28X2IT    O1  880   0.316   2.061   3.010
   28X2IT    C6  881   0.212   2.220   3.152
   28X2IT   C12  882   0.181   2.118   3.259
   28X2IT    C7  883   0.172   2.352   3.165
   28X2IT    C8  884   0.201   2.459   3.060
   28X2IT    O2  885   0.165   2.575   3.084
   28X2IT    N3  886   0.106   2.400   3.271
   28X2IT   H15  887   0.081   2.343   3.351
   28X2IT   H16  888   0.084   2.500   3.271
   28X2IT    N2  889   0.368   2.261   2.810
   28X2IT    C3  890   0.476   2.165   2.780
   28X2IT    C2  891   0.586   2.256   2.728
   28X2IT    H2  892   0.666   2.214   2.666
   28X2IT    N1  893   0.615   2.368   2.820
   28X2IT   H14  894   0.709   2.405   2.801
   28X2IT    C1  895   0.530   2.391   2.701
   28X2IT    H1  896   0.564   2.454   2.620
   28X2IT   C11  897   0.381   2.387   2.732
   28X2IT    O3  898   0.320   2.377   2.605
   28X2IT   C15  899   0.184   2.332   2.601
   29X2IT   H18  900   2.677   3.993   2.441
   29X2IT    N4  901   2.616   4.018   2.517
   29X2IT   H17  902   2.519   4.034   2.495
   29X2IT   C14  903   2.650   3.970   2.640
   29X2IT    O5  904   2.758   3.923   2.671
   29X2IT    O4  905   2.544   3.985   2.726
   29X2IT   C13  906   2.567   3.944   2.863
   29X2IT   C10  907   2.637   4.055   2.944
   29X2IT    C9  908   2.657   4.018   3.089
   29X2IT    C4  909   2.596   4.112   3.170
   29X2IT    C5  910   2.595   4.105   3.320
   29X2IT    O1  911   2.541   4.196   3.385
   29X2IT    C6  912   2.661   3.992   3.380
   29X2IT   C12  913   2.664   3.978   3.531
   29X2IT    C7  914   2.723   3.899   3.299
   29X2IT    C8  915   2.724   3.907   3.146
   29X2IT    O2  916   2.779   3.816   3.083
   29X2IT    N3  917   2.789   3.791   3.345
   29X2IT   H15  918   2.797   3.769   3.443
   29X2IT   H16  919   2.830   3.728   3.276
   29X2IT    N2  920   2.542   4.214   3.099
   29X2IT    C3  921   2.421   4.292   3.129
   29X2IT    C2  922   2.335   4.266   3.007
   29X2IT    H2  923   2.253   4.335   2.983
   29X2IT    N1  924   2.320   4.122   2.978
   29X2IT   H14  925   2.237   4.107   2.921
   29X2IT    C1  926   2.417   4.202   2.901
   29X2IT    H1  927   2.402   4.221   2.795
   29X2IT   C11  928   2.559   4.191   2.953
   29X2IT    O3  929   2.627   4.298   2.890
   29X2IT   C15  930   2.753   4.338   2.946
   30X2IT   H18  931   4.489   2.062   4.802
   30X2IT    N4  932   4.570   2.028   4.754
   30X2IT   H17  933   4.590   2.067   4.663
   30X2IT   C14  934   4.674   1.986   4.833
   30X2IT    O5  935   4.667   1.962   4.952
   30X2IT    O4  936   4.787   1.972   4.757
   30X2IT   C13  937   4.903   1.922   4.826
   30X2IT   C10  938   4.902   1.769   4.835
   30X2IT    C9  939   5.026   1.712   4.900
   30X2IT    C4  940   5.089   1.624   4.814
   30X2IT    C5  941   5.216   1.551   4.848
   30X2IT    O1  942   5.263   1.471   4.766
   30X2IT    C6  943   5.274   1.578   4.977
   30X2IT   C12  944   5.402   1.508   5.016
   30X2IT    C7  945   5.211   1.666   5.063
   30X2IT    C8  946   5.081   1.739   5.028
   30X2IT    O2  947   5.035   1.819   5.111
   30X2IT    N3  948   5.256   1.696   5.185
   30X2IT   H15  949   5.341   1.659   5.223
   30X2IT   H16  950   5.202   1.764   5.240
   30X2IT    N2  951   5.019   1.605   4.700
   30X2IT    C3  952   5.071   1.579   4.565
   30X2IT    C2  953   5.017   1.698   4.486
   30X2IT    H2  954   5.010   1.692   4.377
   30X2IT    N1  955   5.049   1.827   4.550
   30X2IT   H14  956   5.043   1.902   4.480
   30X2IT    C1  957   4.915   1.768   4.567
   30X2IT    H1  958   4.828   1.816   4.523
   30X2IT   C11  959   4.898   1.693   4.697
   30X2IT    O3  960   4.779   1.618   4.679
   30X2IT   C15  961   4.757   1.508   4.768
   31X2IT   H18  962   3.947   1.453   1.267
   31X2IT    N4  963   4.026   1.431   1.325
   31X2IT   H17  964   4.109   1.396   1.279
   31X2IT   C14  965   4.041   1.506   1.439
   31X2IT    O5  966   3.954   1.574   1.490
   31X2IT    O4  967   4.166   1.488   1.491
   31X2IT   C13  968   4.193   1.555   1.615
   31X2IT   C10  969   4.142   1.474   1.736
   31X2IT    C9  970   4.175   1.538   1.868
   31X2IT    C4  971   4.250   1.452   1.946
   31X2IT    C5  972   4.300   1.484   2.084
   31X2IT    O1  973   4.363   1.399   2.148
   31X2IT    C6  974   4.270   1.616   2.134
   31X2IT   C12  975   4.318   1.656   2.272
   31X2IT    C7  976   4.194   1.703   2.056
   31X2IT    C8  977   4.143   1.668   1.917
   31X2IT    O2  978   4.080   1.755   1.854
   31X2IT    N3  979   4.160   1.826   2.095
   31X2IT   H15  980   4.187   1.866   2.183
   31X2IT   H16  981   4.105   1.882   2.029
   31X2IT    N2  982   4.266   1.331   1.887
   31X2IT    C3  983   4.381   1.240   1.896
   31X2IT    C2  984   4.425   1.229   1.750
   31X2IT    H2  985   4.486   1.144   1.719
   31X2IT    N1  986   4.445   1.361   1.687
   31X2IT   H14  987   4.506   1.351   1.606
   31X2IT    C1  988   4.320   1.286   1.662
   31X2IT    H1  989   4.298   1.247   1.564
   31X2IT   C11  990   4.204   1.330   1.751
   31X2IT    O3  991   4.109   1.227   1.736
   31X2IT   C15  992   4.005   1.219   1.835
   32X2IT   H18  993   4.654   1.154   2.334
   32X2IT    N4  994   4.602   1.068   2.337
   32X2IT   H17  995   4.564   1.034   2.250
   32X2IT   C14  996   4.640   0.978   2.433
   32X2IT    O5  997   4.710   1.003   2.530
   32X2IT    O4  998   4.585   0.855   2.406
   32X2IT   C13  999   4.612   0.751   2.503
   32X2IT   C10 1000   4.514   0.759   2.622
   32X2IT    C9 1001   4.534   0.648   2.722
   32X2IT    C4 1002   4.417   0.576   2.737
   32X2IT    C5 1003   4.403   0.457   2.828
   32X2IT    O1 1004   4.293   0.401   2.838
   32X2IT    C6 1005   4.521   0.417   2.901
   32X2IT   C12 1006   4.513   0.298   2.995
   32X2IT    C7 1007   4.637   0.490   2.887
   32X2IT    C8 1008   4.651   0.611   2.794
   32X2IT    O2 1009   4.761   0.666   2.786
   32X2IT    N3 1010   4.751   0.462   2.952
   32X2IT   H15 1011   4.761   0.384   3.015
   32X2IT   H16 1012   4.832   0.521   2.932
   32X2IT    N2 1013   4.315   0.629   2.665
   32X2IT    C3 1014   4.203   0.558   2.600
   32X2IT    C2 1015   4.221   0.596   2.454
   32X2IT    H2 1016   4.137   0.588   2.385
   32X2IT    N1 1017   4.359   0.570   2.406
   32X2IT   H14 1018   4.358   0.564   2.304
   32X2IT    C1 1019   4.319   0.707   2.444
   32X2IT    H1 1020   4.312   0.786   2.370
   32X2IT   C11 1021   4.362   0.745   2.585
   32X2IT    O3 1022   4.287   0.862   2.613
   32X2IT   C15 1023   4.275   0.901   2.751
   33X2IT   H18 1024   0.672   3.869   3.707
   33X2IT    N4 1025   0.656   3.911   3.617
   33X2IT   H17 1026   0.734   3.958   3.573
   33X2IT   C14 1027   0.562   3.849   3.538
   33X2IT    O5 1028   0.479   3.769   3.577
   33X2IT    O4 1029   0.573   3.895   3.410
   33X2IT   C13 1030   0.475   3.844   3.316
   33X2IT   C10 1031   0.343   3.923   3.324
   33X2IT    C9 1032   0.241   3.877   3.222
   33X2IT    C4 1033   0.204   3.982   3.141
   33X2IT    C5 1034   0.104   3.971   3.029
   33X2IT    O1 1035   0.074   4.072   2.964
   33X2IT    C6 1036   0.049   3.840   3.006
   33X2IT   C12 1037  -0.052   3.821   2.894
   33X2IT    C7 1038   0.085   3.734   3.088
   33X2IT    C8 1039   0.186   3.748   3.202
   33X2IT    O2 1040   0.215   3.646   3.266
   33X2IT    N3 1041   0.038   3.610   3.075
   33X2IT   H15 1042  -0.028   3.583   3.003
   33X2IT   H16 1043   0.073   3.539   3.140
   33X2IT    N2 1044   0.261   4.099   3.180
   33X2IT    C3 1045   0.303   4.211   3.094
   33X2IT    C2 1046   0.453   4.220   3.123
   33X2IT    H2 1047   0.507   4.312   3.102
   33X2IT    N1 1048   0.520   4.089   3.106
   33X2IT   H14 1049   0.620   4.104   3.092
   33X2IT    C1 1050   0.485   4.136   3.241
   33X2IT    H1 1051   0.562   4.162   3.313
   33X2IT   C11 1052   0.355   4.077   3.293
   33X2IT    O3 1053   0.322   4.158   3.405
   33X2IT   C15 1054   0.187   4.153   3.452
   34X2IT   H18 1055   3.083   2.543   0.672
   34X2IT    N4 1056   3.126   2.569   0.759
   34X2IT   H17 1057   3.222   2.538   0.774
   34X2IT   C14 1058   3.084   2.686   0.816
   34X2IT    O5 1059   2.982   2.745   0.786
   34X2IT    O4 1060   3.171   2.724   0.914
   34X2IT   C13 1061   3.136   2.843   0.987
   34X2IT   C10 1062   3.036   2.812   1.100
   34X2IT    C9 1063   3.002   2.933   1.184
   34X2IT    C4 1064   3.034   2.910   1.317
   34X2IT    C5 1065   3.013   3.010   1.427
   34X2IT    O1 1066   3.041   2.979   1.544
   34X2IT    C6 1067   2.960   3.138   1.388
   34X2IT   C12 1068   2.937   3.244   1.494
   34X2IT    C7 1069   2.928   3.161   1.255
   34X2IT    C8 1070   2.948   3.058   1.144
   34X2IT    O2 1071   2.920   3.091   1.028
   34X2IT    N3 1072   2.876   3.276   1.210
   34X2IT   H15 1073   2.858   3.356   1.269
   34X2IT   H16 1074   2.858   3.283   1.109
   34X2IT    N2 1075   3.078   2.783   1.337
   34X2IT    C3 1076   3.178   2.737   1.435
   34X2IT    C2 1077   3.285   2.675   1.346
   34X2IT    H2 1078   3.355   2.604   1.388
   34X2IT    N1 1079   3.329   2.768   1.239
   34X2IT   H14 1080   3.421   2.740   1.205
   34X2IT    C1 1081   3.232   2.661   1.208
   34X2IT    H1 1082   3.259   2.580   1.142
   34X2IT   C11 1083   3.087   2.709   1.208
   34X2IT    O3 1084   3.012   2.589   1.210
   34X2IT   C15 1085   2.874   2.600   1.250
   35X2IT   H18 1086   0.373   0.767   4.297
   35X2IT    N4 1087   0.348   0.713   4.378
   35X2IT   H17 1088   0.252   0.716   4.408
   35X2IT   C14 1089   0.421   0.599   4.400
   35X2IT    O5 1090   0.527   0.573   4.347
   35X2IT    O4 1091   0.357   0.521   4.492
   35X2IT   C13 1092   0.426   0.399   4.530
   35X2IT   C10 1093   0.532   0.426   4.638
   35X2IT    C9 1094   0.601   0.300   4.686
   35X2IT    C4 1095   0.584   0.285   4.822
   35X2IT    C5 1096   0.640   0.170   4.901
   35X2IT    O1 1097   0.623   0.167   5.024
   35X2IT    C6 1098   0.712   0.070   4.827
   35X2IT   C12 1099   0.770  -0.049   4.900
   35X2IT    C7 1100   0.729   0.086   4.691
   35X2IT    C8 1101   0.673   0.204   4.611
   35X2IT    O2 1102   0.691   0.205   4.489
   35X2IT    N3 1103   0.796  -0.001   4.614
   35X2IT   H15 1104   0.838  -0.086   4.649
   35X2IT   H16 1105   0.802   0.020   4.513
   35X2IT    N2 1106   0.518   0.390   4.878
   35X2IT    C3 1107   0.426   0.389   4.992
   35X2IT    C2 1108   0.297   0.442   4.930
   35X2IT    H2 1109   0.220   0.485   4.995
   35X2IT    N1 1110   0.259   0.369   4.808
   35X2IT   H14 1111   0.159   0.382   4.790
   35X2IT    C1 1112   0.327   0.499   4.797
   35X2IT    H1 1113   0.275   0.585   4.756
   35X2IT   C11 1114   0.477   0.487   4.773
   35X2IT    O3 1115   0.526   0.618   4.798
   35X2IT   C15 1116   0.667   0.631   4.822
   36X2IT   H18 1117   4.495   0.248   1.996
   36X2IT    N4 1118   4.431   0.320   1.968
   36X2IT   H17 1119   4.401   0.385   2.039
   36X2IT   C14 1120   4.439   0.362   1.839
   36X2IT    O5 1121   4.497   0.303   1.749
   36X2IT    O4 1122   4.369   0.478   1.823
   36X2IT   C13 1123   4.364   0.532   1.689
   36X2IT   C10 1124   4.252   0.465   1.607
   36X2IT    C9 1125   4.238   0.523   1.468
   36X2IT    C4 1126   4.110   0.571   1.449
   36X2IT    C5 1127   4.063   0.636   1.322
   36X2IT    O1 1128   3.945   0.673   1.312
   36X2IT    C6 1129   4.161   0.650   1.217
   36X2IT   C12 1130   4.120   0.715   1.086
   36X2IT    C7 1131   4.288   0.601   1.235
   36X2IT    C8 1132   4.335   0.534   1.365
   36X2IT    O2 1133   4.453   0.497   1.372
   36X2IT    N3 1134   4.385   0.607   1.142
   36X2IT   H15 1135   4.372   0.650   1.052
   36X2IT   H16 1136   4.477   0.569   1.168
   36X2IT    N2 1137   4.030   0.546   1.555
   36X2IT    C3 1138   3.919   0.629   1.607
   36X2IT    C2 1139   3.965   0.660   1.748
   36X2IT    H2 1140   3.892   0.691   1.823
   36X2IT    N1 1141   4.102   0.715   1.752
   36X2IT   H14 1142   4.116   0.766   1.840
   36X2IT    C1 1143   4.080   0.573   1.783
   36X2IT    H1 1144   4.098   0.534   1.883
   36X2IT   C11 1145   4.107   0.481   1.665
   36X2IT    O3 1146   4.049   0.357   1.704
   36X2IT   C15 1147   4.023   0.262   1.600
   37X2IT   H18 1148   3.208   4.116   3.309
   37X2IT    N4 1149   3.201   4.191   3.376
   37X2IT   H17 1150   3.283   4.209   3.432
   37X2IT   C14 1151   3.119   4.294   3.344
   37X2IT    O5 1152   3.033   4.292   3.257
   37X2IT    O4 1153   3.143   4.401   3.426
   37X2IT   C13 1154   3.058   4.516   3.408
   37X2IT   C10 1155   2.925   4.499   3.484
   37X2IT    C9 1156   2.835   4.621   3.473
   37X2IT    C4 1157   2.806   4.670   3.599
   37X2IT    C5 1158   2.720   4.791   3.625
   37X2IT    O1 1159   2.697   4.825   3.741
   37X2IT    C6 1160   2.670   4.859   3.508
   37X2IT   C12 1161   2.583   4.982   3.527
   37X2IT    C7 1162   2.698   4.810   3.382
   37X2IT    C8 1163   2.785   4.686   3.358
   37X2IT    O2 1164   2.807   4.653   3.240
   37X2IT    N3 1165   2.654   4.865   3.268
   37X2IT   H15 1166   2.597   4.948   3.266
   37X2IT   H16 1167   2.682   4.821   3.181
   37X2IT    N2 1168   2.857   4.592   3.698
   37X2IT    C3 1169   2.908   4.633   3.830
   37X2IT    C2 1170   3.053   4.586   3.825
   37X2IT    H2 1171   3.108   4.572   3.918
   37X2IT    N1 1172   3.123   4.635   3.704
   37X2IT   H14 1173   3.224   4.632   3.721
   37X2IT    C1 1174   3.072   4.496   3.709
   37X2IT    H1 1175   3.140   4.412   3.710
   37X2IT   C11 1176   2.937   4.480   3.640
   37X2IT    O3 1177   2.891   4.353   3.683
   37X2IT   C15 1178   2.752   4.326   3.667
   38X2IT   H18 1179   4.656   2.728   3.780
   38X2IT    N4 1180   4.578   2.665   3.767
   38X2IT   H17 1181   4.540   2.657   3.674
   38X2IT   C14 1182   4.573   2.557   3.851
   38X2IT    O5 1183   4.637   2.545   3.954
   38X2IT    O4 1184   4.482   2.467   3.804
   38X2IT   C13 1185   4.461   2.350   3.886
   38X2IT   C10 1186   4.361   2.378   3.999
   38X2IT    C9 1187   4.331   2.256   4.084
   38X2IT    C4 1188   4.195   2.229   4.081
   38X2IT    C5 1189   4.132   2.114   4.154
   38X2IT    O1 1190   4.009   2.099   4.150
   38X2IT    C6 1191   4.220   2.026   4.227
   38X2IT   C12 1192   4.163   1.908   4.302
   38X2IT    C7 1193   4.356   2.054   4.230
   38X2IT    C8 1194   4.419   2.172   4.156
   38X2IT    O2 1195   4.543   2.185   4.162
   38X2IT    N3 1196   4.446   1.980   4.296
   38X2IT   H15 1197   4.422   1.897   4.348
   38X2IT   H16 1198   4.544   2.009   4.290
   38X2IT    N2 1199   4.125   2.323   4.013
   38X2IT    C3 1200   4.003   2.304   3.932
   38X2IT    C2 1201   4.048   2.350   3.794
   38X2IT    H2 1202   3.974   2.380   3.720
   38X2IT    N1 1203   4.173   2.282   3.750
   38X2IT   H14 1204   4.180   2.288   3.648
   38X2IT    C1 1205   4.179   2.419   3.806
   38X2IT    H1 1206   4.207   2.503   3.743
   38X2IT   C11 1207   4.217   2.423   3.953
   38X2IT    O3 1208   4.185   2.555   3.993
   38X2IT   C15 1209   4.173   2.579   4.134
   39X2IT   H18 1210   0.342   3.324   0.886
   39X2IT    N4 1211   0.358   3.366   0.797
   39X2IT   H17 1212   0.440   3.424   0.788
   39X2IT   C14 1213   0.313   3.298   0.688
   39X2IT    O5 1214   0.232   3.206   0.691
   39X2IT    O4 1215   0.368   3.349   0.574
   39X2IT   C13 1216   0.324   3.291   0.450
   39X2IT   C10 1217   0.192   3.353   0.402
   39X2IT    C9 1218   0.146   3.299   0.269
   39X2IT    C4 1219   0.131   3.403   0.178
   39X2IT    C5 1220   0.088   3.384   0.035
   39X2IT    O1 1221   0.074   3.483  -0.038
   39X2IT    C6 1222   0.063   3.248  -0.007
   39X2IT   C12 1223   0.020   3.222  -0.150
   39X2IT    C7 1224   0.077   3.145   0.084
   39X2IT    C8 1225   0.120   3.165   0.229
   39X2IT    O2 1226   0.133   3.065   0.301
   39X2IT    N3 1227   0.054   3.016   0.054
   39X2IT   H15 1228   0.027   2.984  -0.037
   39X2IT   H16 1229   0.069   2.947   0.129
   39X2IT    N2 1230   0.154   3.524   0.235
   39X2IT    C3 1231   0.212   3.644   0.173
   39X2IT    C2 1232   0.335   3.668   0.259
   39X2IT    H2 1233   0.381   3.767   0.261
   39X2IT    N1 1234   0.419   3.548   0.273
   39X2IT   H14 1235   0.514   3.575   0.300
   39X2IT    C1 1236   0.326   3.585   0.382
   39X2IT    H1 1237   0.364   3.617   0.478
   39X2IT   C11 1238   0.195   3.508   0.377
   39X2IT    O3 1239   0.110   3.580   0.465
   39X2IT   C15 1240  -0.031   3.557   0.454
   40X2IT   H18 1241   0.066   3.993   0.665
   40X2IT    N4 1242   0.160   4.007   0.695
   40X2IT   H17 1243   0.176   4.078   0.766
   40X2IT   C14 1244   0.242   3.898   0.692
   40X2IT    O5 1245   0.220   3.795   0.630
   40X2IT    O4 1246   0.356   3.922   0.764
   40X2IT   C13 1247   0.455   3.817   0.763
   40X2IT   C10 1248   0.544   3.825   0.638
   40X2IT    C9 1249   0.654   3.721   0.636
   40X2IT    C4 1250   0.777   3.782   0.627
   40X2IT    C5 1251   0.908   3.708   0.625
   40X2IT    O1 1252   1.014   3.771   0.612
   40X2IT    C6 1253   0.900   3.564   0.636
   40X2IT   C12 1254   1.028   3.483   0.634
   40X2IT    C7 1255   0.777   3.503   0.644
   40X2IT    C8 1256   0.644   3.580   0.646
   40X2IT    O2 1257   0.539   3.515   0.658
   40X2IT    N3 1258   0.760   3.370   0.652
   40X2IT   H15 1259   0.836   3.305   0.655
   40X2IT   H16 1260   0.663   3.336   0.660
   40X2IT    N2 1261   0.767   3.917   0.613
   40X2IT    C3 1262   0.858   4.021   0.663
   40X2IT    C2 1263   0.767   4.102   0.754
   40X2IT    H2 1264   0.795   4.204   0.781
   40X2IT    N1 1265   0.696   4.018   0.852
   40X2IT   H14 1266   0.665   4.076   0.931
   40X2IT    C1 1267   0.626   4.063   0.730
   40X2IT    H1 1268   0.544   4.133   0.737
   40X2IT   C11 1269   0.624   3.959   0.620
   40X2IT    O3 1270   0.585   4.032   0.505
   40X2IT   C15 1271   0.611   3.972   0.377
   41X2IT   H18 1272   2.118   2.310   2.144
   41X2IT    N4 1273   2.076   2.399   2.165
   41X2IT   H17 1274   1.998   2.398   2.228
   41X2IT   C14 1275   2.158   2.508   2.160
   41X2IT    O5 1276   2.268   2.511   2.108
   41X2IT    O4 1277   2.096   2.615   2.219
   41X2IT   C13 1278   2.169   2.739   2.216
   41X2IT   C10 1279   2.148   2.813   2.082
   41X2IT    C9 1280   2.216   2.948   2.077
   41X2IT    C4 1281   2.124   3.047   2.052
   41X2IT    C5 1282   2.159   3.193   2.042
   41X2IT    O1 1283   2.070   3.275   2.016
   41X2IT    C6 1284   2.297   3.228   2.063
   41X2IT   C12 1285   2.339   3.373   2.055
   41X2IT    C7 1286   2.390   3.128   2.087
   41X2IT    C8 1287   2.353   2.980   2.096
   41X2IT    O2 1288   2.443   2.899   2.123
   41X2IT    N3 1289   2.521   3.151   2.106
   41X2IT   H15 1290   2.561   3.242   2.105
   41X2IT   H16 1291   2.580   3.069   2.125
   41X2IT    N2 1292   2.000   2.998   2.031
   41X2IT    C3 1293   1.870   3.059   2.065
   41X2IT    C2 1294   1.809   2.955   2.159
   41X2IT    H2 1295   1.702   2.954   2.176
   41X2IT    N1 1296   1.901   2.918   2.269
   41X2IT   H14 1297   1.848   2.878   2.346
   41X2IT    C1 1298   1.888   2.830   2.151
   41X2IT    H1 1299   1.844   2.731   2.161
   41X2IT   C11 1300   1.998   2.850   2.048
   41X2IT    O3 1301   1.950   2.783   1.933
   41X2IT   C15 1302   2.012   2.816   1.808
   42X2IT   H18 1303   1.693   3.770   4.428
   42X2IT    N4 1304   1.747   3.690   4.454
   42X2IT   H17 1305   1.784   3.633   4.380
   42X2IT   C14 1306   1.815   3.698   4.572
   42X2IT    O5 1307   1.795   3.781   4.659
   42X2IT    O4 1308   1.906   3.597   4.581
   42X2IT   C13 1309   1.982   3.589   4.703
   42X2IT   C10 1310   1.903   3.515   4.813
   42X2IT    C9 1311   1.981   3.498   4.941
   42X2IT    C4 1312   1.993   3.364   4.974
   42X2IT    C5 1313   2.065   3.313   5.095
   42X2IT    O1 1314   2.067   3.192   5.118
   42X2IT    C6 1315   2.129   3.412   5.178
   42X2IT   C12 1316   2.204   3.367   5.302
   42X2IT    C7 1317   2.117   3.546   5.147
   42X2IT    C8 1318   2.042   3.597   5.023
   42X2IT    O2 1319   2.041   3.719   5.002
   42X2IT    N3 1320   2.170   3.645   5.219
   42X2IT   H15 1321   2.225   3.630   5.302
   42X2IT   H16 1322   2.156   3.741   5.185
   42X2IT    N2 1323   1.924   3.285   4.888
   42X2IT    C3 1324   1.957   3.149   4.844
   42X2IT    C2 1325   1.971   3.166   4.693
   42X2IT    H2 1326   1.962   3.079   4.627
   42X2IT    N1 1327   2.062   3.277   4.657
   42X2IT   H14 1328   2.096   3.263   4.561
   42X2IT    C1 1329   1.916   3.299   4.653
   42X2IT    H1 1330   1.865   3.316   4.560
   42X2IT   C11 1331   1.863   3.366   4.779
   42X2IT    O3 1332   1.723   3.348   4.770
   42X2IT   C15 1333   1.647   3.366   4.891
   43X2IT   H18 1334   2.864   4.052   0.991
   43X2IT    N4 1335   2.925   4.062   0.911
   43X2IT   H17 1336   3.011   4.009   0.911
   43X2IT   C14 1337   2.864   4.091   0.792
   43X2IT    O5 1338   2.749   4.131   0.780
   43X2IT    O4 1339   2.952   4.072   0.690
   43X2IT   C13 1340   2.903   4.105   0.558
   43X2IT   C10 1341   2.916   4.255   0.529
   43X2IT    C9 1342   2.872   4.293   0.389
   43X2IT    C4 1343   2.976   4.355   0.322
   43X2IT    C5 1344   2.967   4.404   0.180
   43X2IT    O1 1345   3.064   4.462   0.129
   43X2IT    C6 1346   2.842   4.381   0.112
   43X2IT   C12 1347   2.826   4.427  -0.031
   43X2IT    C7 1348   2.738   4.320   0.180
   43X2IT    C8 1349   2.748   4.271   0.324
   43X2IT    O2 1350   2.650   4.213   0.373
   43X2IT    N3 1351   2.617   4.295   0.125
   43X2IT   H15 1352   2.594   4.319   0.030
   43X2IT   H16 1353   2.548   4.248   0.184
   43X2IT    N2 1354   3.085   4.373   0.401
   43X2IT    C3 1355   3.227   4.371   0.362
   43X2IT    C2 1356   3.282   4.257   0.447
   43X2IT    H2 1357   3.389   4.252   0.467
   43X2IT    N1 1358   3.203   4.133   0.433
   43X2IT   H14 1359   3.260   4.053   0.462
   43X2IT    C1 1360   3.182   4.220   0.550
   43X2IT    H1 1361   3.209   4.186   0.650
   43X2IT   C11 1362   3.062   4.313   0.536
   43X2IT    O3 1363   3.079   4.408   0.639
   43X2IT   C15 1364   3.006   4.530   0.629
   44X2IT   H18 1365   1.323   1.302   1.520
   44X2IT    N4 1366   1.275   1.222   1.483
   44X2IT   H17 1367   1.251   1.149   1.548
   44X2IT   C14 1368   1.195   1.244   1.375
   44X2IT    O5 1369   1.198   1.343   1.304
   44X2IT    O4 1370   1.114   1.136   1.355
   44X2IT   C13 1371   1.027   1.142   1.239
   44X2IT   C10 1372   1.101   1.098   1.112
   44X2IT    C9 1373   1.012   1.096   0.989
   44X2IT    C4 1374   1.011   0.970   0.933
   44X2IT    C5 1375   0.931   0.933   0.811
   44X2IT    O1 1376   0.939   0.818   0.766
   44X2IT    C6 1377   0.850   1.037   0.753
   44X2IT   C12 1378   0.768   1.007   0.630
   44X2IT    C7 1379   0.853   1.164   0.809
   44X2IT    C8 1380   0.935   1.200   0.933
   44X2IT    O2 1381   0.926   1.316   0.977
   44X2IT    N3 1382   0.782   1.268   0.761
   44X2IT   H15 1383   0.722   1.261   0.681
   44X2IT   H16 1384   0.790   1.357   0.811
   44X2IT    N2 1385   1.095   0.885   0.997
   44X2IT    C3 1386   1.080   0.740   1.017
   44X2IT    C2 1387   1.080   0.728   1.169
   44X2IT    H2 1388   1.103   0.632   1.216
   44X2IT    N1 1389   0.982   0.819   1.232
   44X2IT   H14 1390   0.960   0.785   1.326
   44X2IT    C1 1391   1.125   0.857   1.228
   44X2IT    H1 1392   1.183   0.863   1.319
   44X2IT   C11 1393   1.159   0.951   1.114
   44X2IT    O3 1394   1.300   0.947   1.107
   44X2IT   C15 1395   1.361   0.995   0.986
   45X2IT   H18 1396   1.707   3.847   1.459
   45X2IT    N4 1397   1.785   3.791   1.428
   45X2IT   H17 1398   1.787   3.695   1.458
   45X2IT   C14 1399   1.839   3.824   1.307
   45X2IT    O5 1400   1.821   3.929   1.248
   45X2IT    O4 1401   1.920   3.723   1.263
   45X2IT   C13 1402   1.990   3.747   1.139
   45X2IT   C10 1403   2.118   3.828   1.161
   45X2IT    C9 1404   2.198   3.849   1.035
   45X2IT    C4 1405   2.326   3.799   1.050
   45X2IT    C5 1406   2.431   3.802   0.942
   45X2IT    O1 1407   2.544   3.758   0.966
   45X2IT    C6 1408   2.391   3.860   0.816
   45X2IT   C12 1409   2.492   3.867   0.703
   45X2IT    C7 1410   2.264   3.912   0.801
   45X2IT    C8 1411   2.158   3.908   0.912
   45X2IT    O2 1412   2.046   3.954   0.886
   45X2IT    N3 1413   2.219   3.969   0.689
   45X2IT   H15 1414   2.275   3.978   0.605
   45X2IT   H16 1415   2.122   4.003   0.688
   45X2IT    N2 1416   2.348   3.752   1.175
   45X2IT    C3 1417   2.433   3.639   1.216
   45X2IT    C2 1418   2.333   3.547   1.285
   45X2IT    H2 1419   2.368   3.471   1.354
   45X2IT    N1 1420   2.215   3.519   1.200
   45X2IT   H14 1421   2.170   3.433   1.232
   45X2IT    C1 1422   2.206   3.620   1.307
   45X2IT    H1 1423   2.142   3.603   1.393
   45X2IT   C11 1424   2.224   3.762   1.258
   45X2IT    O3 1425   2.246   3.837   1.376
   45X2IT   C15 1426   2.304   3.967   1.361
   46X2IT   H18 1427   5.391   0.103   2.586
   46X2IT    N4 1428   5.299   0.066   2.573
   46X2IT   H17 1429   5.253   0.027   2.654
   46X2IT   C14 1430   5.223   0.126   2.476
   46X2IT    O5 1431   5.266   0.198   2.387
   46X2IT    O4 1432   5.092   0.089   2.489
   46X2IT   C13 1433   5.001   0.139   2.389
   46X2IT   C10 1434   5.003   0.051   2.263
   46X2IT    C9 1435   4.904   0.096   2.158
   46X2IT    C4 1436   4.816  -0.007   2.128
   46X2IT    C5 1437   4.704   0.005   2.029
   46X2IT    O1 1438   4.633  -0.094   2.006
   46X2IT    C6 1439   4.689   0.133   1.964
   46X2IT   C12 1440   4.578   0.151   1.863
   46X2IT    C7 1441   4.777   0.235   1.993
   46X2IT    C8 1442   4.891   0.221   2.094
   46X2IT    O2 1443   4.962   0.321   2.116
   46X2IT    N3 1444   4.772   0.357   1.937
   46X2IT   H15 1445   4.702   0.383   1.870
   46X2IT   H16 1446   4.841   0.425   1.967
   46X2IT    N2 1447   4.848  -0.122   2.194
   46X2IT    C3 1448   4.756  -0.225   2.244
   46X2IT    C2 1449   4.785  -0.225   2.393
   46X2IT    H2 1450   4.759  -0.311   2.454
   46X2IT    N1 1451   4.777  -0.089   2.452
   46X2IT   H14 1452   4.762  -0.096   2.553
   46X2IT    C1 1453   4.909  -0.147   2.419
   46X2IT    H1 1454   4.979  -0.172   2.497
   46X2IT   C11 1455   4.963  -0.100   2.285
   46X2IT    O3 1456   5.070  -0.190   2.258
   46X2IT   C15 1457   5.116  -0.197   2.123
   47X2IT   H18 1458   0.651   1.918   1.006
   47X2IT    N4 1459   0.563   1.964   0.992
   47X2IT   H17 1460   0.565   2.058   0.955
   47X2IT   C14 1461   0.457   1.884   0.963
   47X2IT    O5 1462   0.453   1.763   0.979
   47X2IT    O4 1463   0.352   1.959   0.917
   47X2IT   C13 1464   0.230   1.888   0.888
   47X2IT   C10 1465   0.147   1.866   1.016
   47X2IT    C9 1466   0.014   1.798   0.989
   47X2IT    C4 1467  -0.090   1.877   1.032
   47X2IT    C5 1468  -0.235   1.839   1.020
   47X2IT    O1 1469  -0.322   1.915   1.065
   47X2IT    C6 1470  -0.263   1.713   0.955
   47X2IT   C12 1471  -0.407   1.669   0.939
   47X2IT    C7 1472  -0.159   1.634   0.912
   47X2IT    C8 1473  -0.012   1.673   0.926
   47X2IT    O2 1474   0.074   1.596   0.880
   47X2IT    N3 1475  -0.175   1.514   0.853
   47X2IT   H15 1476  -0.265   1.474   0.834
   47X2IT   H16 1477  -0.091   1.465   0.824
   47X2IT    N2 1478  -0.046   1.989   1.095
   47X2IT    C3 1479  -0.109   2.122   1.097
   47X2IT    C2 1480  -0.002   2.210   1.034
   47X2IT    H2 1481  -0.003   2.317   1.051
   47X2IT    N1 1482   0.047   2.156   0.905
   47X2IT   H14 1483   0.090   2.232   0.851
   47X2IT    C1 1484   0.126   2.134   1.027
   47X2IT    H1 1485   0.223   2.180   1.040
   47X2IT   C11 1486   0.102   1.997   1.090
   47X2IT    O3 1487   0.159   2.009   1.220
   47X2IT   C15 1488   0.119   1.911   1.317
   48X2IT   H18 1489   4.508   2.104   0.628
   48X2IT    N4 1490   4.456   2.097   0.713
   48X2IT   H17 1491   4.508   2.092   0.799
   48X2IT   C14 1492   4.332   2.155   0.714
   48X2IT    O5 1493   4.270   2.190   0.614
   48X2IT    O4 1494   4.286   2.165   0.842
   48X2IT   C13 1495   4.153   2.219   0.857
   48X2IT   C10 1496   4.045   2.110   0.836
   48X2IT    C9 1497   3.905   2.161   0.858
   48X2IT    C4 1498   3.842   2.088   0.957
   48X2IT    C5 1499   3.702   2.113   1.005
   48X2IT    O1 1500   3.653   2.039   1.092
   48X2IT    C6 1501   3.632   2.223   0.943
   48X2IT   C12 1502   3.490   2.254   0.987
   48X2IT    C7 1503   3.694   2.296   0.844
   48X2IT    C8 1504   3.837   2.269   0.796
   48X2IT    O2 1505   3.884   2.344   0.709
   48X2IT    N3 1506   3.637   2.399   0.780
   48X2IT   H15 1507   3.544   2.432   0.800
   48X2IT   H16 1508   3.692   2.447   0.709
   48X2IT    N2 1509   3.920   1.985   1.001
   48X2IT    C3 1510   3.926   1.928   1.137
   48X2IT    C2 1511   4.072   1.951   1.174
   48X2IT    H2 1512   4.117   1.891   1.254
   48X2IT    N1 1513   4.114   2.091   1.155
   48X2IT   H14 1514   4.198   2.110   1.211
   48X2IT    C1 1515   4.149   1.989   1.053
   48X2IT    H1 1516   4.252   1.961   1.036
   48X2IT   C11 1517   4.053   1.988   0.935
   48X2IT    O3 1518   4.082   1.866   0.869
   48X2IT   C15 1519   3.983   1.816   0.777
   49X2IT   H18 1520   1.598   0.620   1.849
   49X2IT    N4 1521   1.561   0.625   1.756
   49X2IT   H17 1522   1.462   0.641   1.746
   49X2IT   C14 1523   1.646   0.670   1.659
   49X2IT    O5 1524   1.767   0.680   1.670
   49X2IT    O4 1525   1.576   0.700   1.546
   49X2IT   C13 1526   1.654   0.744   1.432
   49X2IT   C10 1527   1.711   0.624   1.354
   49X2IT    C9 1528   1.787   0.665   1.230
   49X2IT    C4 1529   1.731   0.607   1.118
   49X2IT    C5 1530   1.783   0.628   0.979
   49X2IT    O1 1531   1.729   0.568   0.884
   49X2IT    C6 1532   1.895   0.717   0.964
   49X2IT   C12 1533   1.952   0.743   0.826
   49X2IT    C7 1534   1.951   0.775   1.076
   49X2IT    C8 1535   1.898   0.752   1.218
   49X2IT    O2 1536   1.954   0.812   1.311
   49X2IT    N3 1537   2.057   0.857   1.073
   49X2IT   H15 1538   2.103   0.884   0.988
   49X2IT   H16 1539   2.089   0.895   1.162
   49X2IT    N2 1540   1.630   0.522   1.150
   49X2IT    C3 1541   1.508   0.494   1.072
   49X2IT    C2 1542   1.398   0.536   1.167
   49X2IT    H2 1543   1.297   0.498   1.154
   49X2IT    N1 1544   1.418   0.673   1.219
   49X2IT   H14 1545   1.328   0.710   1.253
   49X2IT    C1 1546   1.455   0.558   1.303
   49X2IT    H1 1547   1.401   0.536   1.394
   49X2IT   C11 1548   1.603   0.524   1.296
   49X2IT    O3 1549   1.612   0.395   1.354
   49X2IT   C15 1550   1.731   0.320   1.327
   50X2IT   H18 1551   0.631   3.853   1.005
   50X2IT    N4 1552   0.608   3.774   1.062
   50X2IT   H17 1553   0.641   3.684   1.032
   50X2IT   C14 1554   0.594   3.798   1.196
   50X2IT    O5 1555   0.580   3.908   1.246
   50X2IT    O4 1556   0.593   3.680   1.265
   50X2IT   C13 1557   0.572   3.690   1.407
   50X2IT   C10 1558   0.422   3.700   1.441
   50X2IT    C9 1559   0.396   3.703   1.590
   50X2IT    C4 1560   0.313   3.598   1.626
   50X2IT    C5 1561   0.267   3.572   1.767
   50X2IT    O1 1562   0.190   3.478   1.789
   50X2IT    C6 1563   0.317   3.661   1.869
   50X2IT   C12 1564   0.276   3.640   2.013
   50X2IT    C7 1565   0.399   3.767   1.832
   50X2IT    C8 1566   0.444   3.793   1.688
   50X2IT    O2 1567   0.522   3.888   1.668
   50X2IT    N3 1568   0.449   3.856   1.920
   50X2IT   H15 1569   0.432   3.852   2.018
   50X2IT   H16 1570   0.510   3.929   1.882
   50X2IT    N2 1571   0.271   3.527   1.518
   50X2IT    C3 1572   0.242   3.383   1.511
   50X2IT    C2 1573   0.341   3.336   1.405
   50X2IT    H2 1574   0.324   3.242   1.353
   50X2IT    N1 1575   0.480   3.379   1.434
   50X2IT   H14 1576   0.545   3.319   1.384
   50X2IT    C1 1577   0.399   3.454   1.336
   50X2IT    H1 1578   0.426   3.453   1.231
   50X2IT   C11 1579   0.334   3.578   1.394
   50X2IT    O3 1580   0.238   3.615   1.297
   50X2IT   C15 1581   0.134   3.705   1.338
   51X2IT   H18 1582   2.300   0.330   4.151
   51X2IT    N4 1583   2.283   0.402   4.083
   51X2IT   H17 1584   2.359   0.466   4.065
   51X2IT   C14 1585   2.197   0.371   3.982
   51X2IT    O5 1586   2.118   0.278   3.982
   51X2IT    O4 1587   2.207   0.464   3.882
   51X2IT   C13 1588   2.116   0.448   3.771
   51X2IT   C10 1589   1.979   0.510   3.801
   51X2IT    C9 1590   1.883   0.502   3.685
   51X2IT    C4 1591   1.840   0.628   3.649
   51X2IT    C5 1592   1.745   0.656   3.536
   51X2IT    O1 1593   1.710   0.773   3.513
   51X2IT    C6 1594   1.700   0.542   3.461
   51X2IT   C12 1595   1.604   0.562   3.345
   51X2IT    C7 1596   1.741   0.415   3.497
   51X2IT    C8 1597   1.838   0.388   3.613
   51X2IT    O2 1598   1.872   0.271   3.634
   51X2IT    N3 1599   1.703   0.303   3.435
   51X2IT   H15 1600   1.641   0.302   3.355
   51X2IT   H16 1601   1.741   0.214   3.469
   51X2IT    N2 1602   1.889   0.724   3.732
   51X2IT    C3 1603   1.925   0.863   3.699
   51X2IT    C2 1604   2.073   0.867   3.737
   51X2IT    H2 1605   2.121   0.963   3.755
   51X2IT    N1 1606   2.150   0.757   3.674
   51X2IT   H14 1607   2.249   0.782   3.672
   51X2IT    C1 1608   2.107   0.746   3.815
   51X2IT    H1 1609   2.180   0.746   3.895
   51X2IT   C11 1610   1.980   0.664   3.833
   51X2IT    O3 1611   1.939   0.693   3.966
   51X2IT   C15 1612   1.803   0.663   4.000
   52X2IT   H18 1613   4.409   4.069   3.606
   52X2IT    N4 1614   4.394   4.089   3.703
   52X2IT   H17 1615   4.379   4.185   3.728
   52X2IT   C14 1616   4.333   3.991   3.776
   52X2IT    O5 1617   4.322   3.874   3.742
   52X2IT    O4 1618   4.291   4.041   3.896
   52X2IT   C13 1619   4.230   3.947   3.987
   52X2IT   C10 1620   4.337   3.870   4.067
   52X2IT    C9 1621   4.278   3.776   4.169
   52X2IT    C4 1622   4.323   3.807   4.296
   52X2IT    C5 1623   4.282   3.733   4.420
   52X2IT    O1 1624   4.331   3.766   4.529
   52X2IT    C6 1625   4.188   3.625   4.403
   52X2IT   C12 1626   4.143   3.546   4.524
   52X2IT    C7 1627   4.144   3.593   4.276
   52X2IT    C8 1628   4.187   3.669   4.150
   52X2IT    O2 1629   4.137   3.634   4.042
   52X2IT    N3 1630   4.058   3.493   4.250
   52X2IT   H15 1631   4.019   3.434   4.321
   52X2IT   H16 1632   4.031   3.479   4.152
   52X2IT    N2 1633   4.414   3.908   4.294
   52X2IT    C3 1634   4.436   4.012   4.396
   52X2IT    C2 1635   4.410   4.140   4.317
   52X2IT    H2 1636   4.449   4.235   4.354
   52X2IT    N1 1637   4.280   4.137   4.247
   52X2IT   H14 1638   4.250   4.233   4.226
   52X2IT    C1 1639   4.404   4.109   4.172
   52X2IT    H1 1640   4.440   4.177   4.096
   52X2IT   C11 1641   4.432   3.960   4.156
   52X2IT    O3 1642   4.567   3.955   4.114
   52X2IT   C15 1643   4.634   3.829   4.127
   53X2IT   H18 1644   4.092   2.880   1.015
   53X2IT    N4 1645   4.163   2.934   1.061
   53X2IT   H17 1646   4.143   3.031   1.079
   53X2IT   C14 1647   4.243   2.866   1.148
   53X2IT    O5 1648   4.255   2.745   1.153
   53X2IT    O4 1649   4.312   2.954   1.227
   53X2IT   C13 1650   4.407   2.897   1.319
   53X2IT   C10 1651   4.541   2.866   1.251
   53X2IT    C9 1652   4.645   2.812   1.347
   53X2IT    C4 1653   4.757   2.893   1.346
   53X2IT    C5 1654   4.879   2.869   1.431
   53X2IT    O1 1655   4.976   2.945   1.421
   53X2IT    C6 1656   4.874   2.754   1.518
   53X2IT   C12 1657   4.994   2.723   1.607
   53X2IT    C7 1658   4.763   2.672   1.518
   53X2IT    C8 1659   4.640   2.698   1.431
   53X2IT    O2 1660   4.544   2.621   1.442
   53X2IT    N3 1661   4.750   2.563   1.594
   53X2IT   H15 1662   4.821   2.532   1.659
   53X2IT   H16 1663   4.663   2.510   1.587
   53X2IT    N2 1664   4.747   2.994   1.255
   53X2IT    C3 1665   4.802   3.130   1.265
   53X2IT    C2 1666   4.677   3.216   1.255
   53X2IT    H2 1667   4.685   3.320   1.226
   53X2IT    N1 1668   4.573   3.175   1.353
   53X2IT   H14 1669   4.508   3.252   1.369
   53X2IT    C1 1670   4.562   3.132   1.212
   53X2IT    H1 1671   4.482   3.168   1.149
   53X2IT   C11 1672   4.614   2.991   1.188
   53X2IT    O3 1673   4.626   2.982   1.047
   53X2IT   C15 1674   4.709   2.877   0.995
   54X2IT   H18 1675   5.163   1.998   0.604
   54X2IT    N4 1676   5.113   1.922   0.561
   54X2IT   H17 1677   5.151   1.830   0.573
   54X2IT   C14 1678   4.977   1.938   0.550
   54X2IT    O5 1679   4.917   2.043   0.561
   54X2IT    O4 1680   4.919   1.817   0.521
   54X2IT   C13 1681   4.777   1.819   0.499
   54X2IT   C10 1682   4.742   1.861   0.355
   54X2IT    C9 1683   4.593   1.858   0.327
   54X2IT    C4 1684   4.567   1.773   0.221
   54X2IT    C5 1685   4.429   1.746   0.168
   54X2IT    O1 1686   4.415   1.671   0.070
   54X2IT    C6 1687   4.320   1.812   0.235
   54X2IT   C12 1688   4.178   1.789   0.187
   54X2IT    C7 1689   4.347   1.897   0.340
   54X2IT    C8 1690   4.488   1.925   0.393
   54X2IT    O2 1691   4.499   2.000   0.491
   54X2IT    N3 1692   4.252   1.964   0.408
   54X2IT   H15 1693   4.154   1.957   0.387
   54X2IT   H16 1694   4.283   2.024   0.485
   54X2IT    N2 1695   4.681   1.723   0.166
   54X2IT    C3 1696   4.701   1.591   0.105
   54X2IT    C2 1697   4.811   1.531   0.192
   54X2IT    H2 1698   4.871   1.449   0.154
   54X2IT    N1 1699   4.777   1.537   0.336
   54X2IT   H14 1700   4.833   1.468   0.387
   54X2IT    C1 1701   4.869   1.637   0.277
   54X2IT    H1 1702   4.973   1.640   0.306
   54X2IT   C11 1703   4.800   1.769   0.242
   54X2IT    O3 1704   4.894   1.835   0.159
   54X2IT   C15 1705   4.844   1.943   0.079
   55X2IT   H18 1706   3.448   3.722   2.350
   55X2IT    N4 1707   3.538   3.680   2.335
   55X2IT   H17 1708   3.564   3.662   2.239
   55X2IT   C14 1709   3.635   3.708   2.426
   55X2IT    O5 1710   3.616   3.756   2.537
   55X2IT    O4 1711   3.757   3.671   2.378
   55X2IT   C13 1712   3.869   3.689   2.467
   55X2IT   C10 1713   3.883   3.571   2.565
   55X2IT    C9 1714   4.003   3.583   2.655
   55X2IT    C4 1715   4.086   3.473   2.640
   55X2IT    C5 1716   4.214   3.453   2.714
   55X2IT    O1 1717   4.280   3.350   2.697
   55X2IT    C6 1718   4.253   3.559   2.804
   55X2IT   C12 1719   4.382   3.546   2.883
   55X2IT    C7 1720   4.171   3.669   2.821
   55X2IT    C8 1721   4.039   3.687   2.744
   55X2IT    O2 1722   3.975   3.791   2.763
   55X2IT    N3 1723   4.197   3.771   2.903
   55X2IT   H15 1724   4.280   3.776   2.959
   55X2IT   H16 1725   4.130   3.848   2.906
   55X2IT    N2 1726   4.033   3.381   2.555
   55X2IT    C3 1727   4.104   3.291   2.463
   55X2IT    C2 1728   4.047   3.332   2.328
   55X2IT    H2 1729   4.055   3.263   2.243
   55X2IT    N1 1730   4.057   3.478   2.305
   55X2IT   H14 1731   4.052   3.497   2.204
   55X2IT    C1 1732   3.929   3.419   2.348
   55X2IT    H1 1733   3.843   3.418   2.282
   55X2IT   C11 1734   3.904   3.430   2.497
   55X2IT    O3 1735   3.797   3.341   2.522
   55X2IT   C15 1736   3.776   3.300   2.658
   56X2IT   H18 1737   3.335   3.027   3.854
   56X2IT    N4 1738   3.289   2.999   3.769
   56X2IT   H17 1739   3.190   2.982   3.774
   56X2IT   C14 1740   3.344   3.046   3.653
   56X2IT    O5 1741   3.455   3.093   3.641
   56X2IT    O4 1742   3.256   3.027   3.550
   56X2IT   C13 1743   3.302   3.066   3.419
   56X2IT   C10 1744   3.387   2.955   3.354
   56X2IT    C9 1745   3.432   2.989   3.214
   56X2IT    C4 1746   3.388   2.893   3.125
   56X2IT    C5 1747   3.414   2.897   2.977
   56X2IT    O1 1748   3.374   2.805   2.905
   56X2IT    C6 1749   3.488   3.011   2.928
   56X2IT   C12 1750   3.518   3.021   2.780
   56X2IT    C7 1751   3.533   3.106   3.017
   56X2IT    C8 1752   3.506   3.101   3.168
   56X2IT    O2 1753   3.548   3.194   3.238
   56X2IT    N3 1754   3.604   3.214   2.981
   56X2IT   H15 1755   3.629   3.235   2.886
   56X2IT   H16 1756   3.631   3.279   3.055
   56X2IT    N2 1757   3.324   2.791   3.188
   56X2IT    C3 1758   3.212   2.710   3.138
   56X2IT    C2 1759   3.104   2.737   3.242
   56X2IT    H2 1760   3.021   2.667   3.253
   56X2IT    N1 1761   3.082   2.881   3.264
   56X2IT   H14 1762   2.990   2.896   3.306
   56X2IT    C1 1763   3.165   2.804   3.359
   56X2IT    H1 1764   3.131   2.788   3.461
   56X2IT   C11 1765   3.314   2.817   3.334
   56X2IT    O3 1766   3.371   2.712   3.410
   56X2IT   C15 1767   3.505   2.674   3.378
   57X2IT   H18 1768   4.453   0.931   3.981
   57X2IT    N4 1769   4.415   0.899   3.894
   57X2IT   H17 1770   4.316   0.882   3.890
   57X2IT   C14 1771   4.480   0.942   3.781
   57X2IT    O5 1772   4.592   0.989   3.777
   57X2IT    O4 1773   4.401   0.918   3.671
   57X2IT   C13 1774   4.459   0.952   3.543
   57X2IT   C10 1775   4.550   0.839   3.491
   57X2IT    C9 1776   4.607   0.867   3.354
   57X2IT    C4 1777   4.570   0.767   3.266
   57X2IT    C5 1778   4.610   0.765   3.121
   57X2IT    O1 1779   4.576   0.669   3.050
   57X2IT    C6 1780   4.688   0.877   3.074
   57X2IT   C12 1781   4.731   0.881   2.929
   57X2IT    C7 1782   4.725   0.976   3.162
   57X2IT    C8 1783   4.685   0.977   3.310
   57X2IT    O2 1784   4.720   1.073   3.380
   57X2IT    N3 1785   4.799   1.083   3.128
   57X2IT   H15 1786   4.832   1.099   3.035
   57X2IT   H16 1787   4.819   1.151   3.202
   57X2IT    N2 1788   4.502   0.667   3.327
   57X2IT    C3 1789   4.394   0.584   3.271
   57X2IT    C2 1790   4.278   0.614   3.364
   57X2IT    H2 1791   4.194   0.545   3.370
   57X2IT    N1 1792   4.254   0.760   3.378
   57X2IT   H14 1793   4.158   0.776   3.411
   57X2IT    C1 1794   4.328   0.687   3.484
   57X2IT    H1 1795   4.285   0.675   3.582
   57X2IT   C11 1796   4.479   0.700   3.471
   57X2IT    O3 1797   4.529   0.599   3.556
   57X2IT   C15 1798   4.666   0.559   3.538
   58X2IT   H18 1799   1.012   0.035   1.044
   58X2IT    N4 1800   1.065   0.108   1.000
   58X2IT   H17 1801   1.063   0.199   1.043
   58X2IT   C14 1802   1.177   0.069   0.931
   58X2IT    O5 1803   1.202  -0.045   0.897
   58X2IT    O4 1804   1.254   0.178   0.902
   58X2IT   C13 1805   1.372   0.153   0.824
   58X2IT   C10 1806   1.340   0.148   0.674
   58X2IT    C9 1807   1.463   0.128   0.588
   58X2IT    C4 1808   1.475   0.233   0.498
   58X2IT    C5 1809   1.587   0.245   0.398
   58X2IT    O1 1810   1.587   0.340   0.319
   58X2IT    C6 1811   1.688   0.142   0.401
   58X2IT   C12 1812   1.803   0.148   0.303
   58X2IT    C7 1813   1.675   0.037   0.490
   58X2IT    C8 1814   1.560   0.025   0.591
   58X2IT    O2 1815   1.562  -0.071   0.670
   58X2IT    N3 1816   1.763  -0.064   0.499
   58X2IT   H15 1817   1.845  -0.071   0.442
   58X2IT   H16 1818   1.744  -0.136   0.570
   58X2IT    N2 1819   1.370   0.319   0.505
   58X2IT    C3 1820   1.370   0.464   0.482
   58X2IT    C2 1821   1.321   0.517   0.616
   58X2IT    H2 1822   1.279   0.618   0.622
   58X2IT    N1 1823   1.399   0.464   0.730
   58X2IT   H14 1824   1.388   0.526   0.811
   58X2IT    C1 1825   1.268   0.405   0.697
   58X2IT    H1 1826   1.184   0.416   0.765
   58X2IT   C11 1827   1.277   0.279   0.614
   58X2IT    O3 1828   1.145   0.259   0.566
   58X2IT   C15 1829   1.128   0.171   0.454
   59X2IT   H18 1830   3.198   0.614   1.954
   59X2IT    N4 1831   3.137   0.694   1.963
   59X2IT   H17 1832   3.166   0.768   2.025
   59X2IT   C14 1833   3.061   0.725   1.853
   59X2IT    O5 1834   3.041   0.651   1.759
   59X2IT    O4 1835   3.008   0.850   1.867
   59X2IT   C13 1836   2.920   0.893   1.761
   59X2IT   C10 1837   2.777   0.840   1.781
   59X2IT    C9 1838   2.680   0.889   1.676
   59X2IT    C4 1839   2.575   0.957   1.736
   59X2IT    C5 1840   2.462   1.019   1.660
   59X2IT    O1 1841   2.370   1.075   1.722
   59X2IT    C6 1842   2.467   1.009   1.516
   59X2IT   C12 1843   2.356   1.071   1.434
   59X2IT    C7 1844   2.572   0.941   1.457
   59X2IT    C8 1845   2.686   0.877   1.535
   59X2IT    O2 1846   2.777   0.822   1.471
   59X2IT    N3 1847   2.584   0.925   1.324
   59X2IT   H15 1848   2.519   0.962   1.258
   59X2IT   H16 1849   2.667   0.874   1.291
   59X2IT    N2 1850   2.583   0.953   1.872
   59X2IT    C3 1851   2.540   1.056   1.967
   59X2IT    C2 1852   2.669   1.089   2.040
   59X2IT    H2 1853   2.666   1.137   2.138
   59X2IT    N1 1854   2.779   1.122   1.946
   59X2IT   H14 1855   2.851   1.176   1.996
   59X2IT    C1 1856   2.772   0.987   2.007
   59X2IT    H1 1857   2.847   0.954   2.077
   59X2IT   C11 1858   2.707   0.884   1.916
   59X2IT    O3 1859   2.679   0.775   2.002
   59X2IT   C15 1860   2.584   0.678   1.956
   60X2IT   H18 1861   3.290   4.930   1.761
   60X2IT    N4 1862   3.271   4.855   1.824
   60X2IT   H17 1863   3.300   4.763   1.796
   60X2IT   C14 1864   3.270   4.887   1.957
   60X2IT    O5 1865   3.262   5.000   2.003
   60X2IT    O4 1866   3.274   4.773   2.032
   60X2IT   C13 1867   3.266   4.790   2.175
   60X2IT   C10 1868   3.121   4.805   2.223
   60X2IT    C9 1869   3.108   4.817   2.373
   60X2IT    C4 1870   3.027   4.715   2.422
   60X2IT    C5 1871   2.994   4.698   2.567
   60X2IT    O1 1872   2.918   4.606   2.602
   60X2IT    C6 1873   3.055   4.791   2.659
   60X2IT   C12 1874   3.026   4.779   2.807
   60X2IT    C7 1875   3.134   4.893   2.610
   60X2IT    C8 1876   3.166   4.911   2.461
   60X2IT    O2 1877   3.243   5.003   2.428
   60X2IT    N3 1878   3.193   4.986   2.687
   60X2IT   H15 1879   3.184   4.988   2.787
   60X2IT   H16 1880   3.251   5.056   2.640
   60X2IT    N2 1881   2.975   4.639   2.322
   60X2IT    C3 1882   2.944   4.495   2.326
   60X2IT    C2 1883   3.032   4.441   2.214
   60X2IT    H2 1884   3.008   4.344   2.169
   60X2IT    N1 1885   3.173   4.483   2.228
   60X2IT   H14 1886   3.233   4.419   2.175
   60X2IT    C1 1887   3.085   4.554   2.133
   60X2IT    H1 1888   3.102   4.547   2.027
   60X2IT   C11 1889   3.027   4.682   2.190
   60X2IT    O3 1890   2.922   4.715   2.100
   60X2IT   C15 1891   2.824   4.809   2.146
   61X2IT   H18 1892   2.237   4.622   4.284
   61X2IT    N4 1893   2.158   4.584   4.235
   61X2IT   H17 1894   2.177   4.514   4.165
   61X2IT   C14 1895   2.040   4.580   4.304
   61X2IT    O5 1896   2.016   4.642   4.406
   61X2IT    O4 1897   1.951   4.500   4.238
   61X2IT   C13 1898   1.819   4.491   4.296
   61X2IT   C10 1899   1.731   4.609   4.252
   61X2IT    C9 1900   1.589   4.600   4.305
   61X2IT    C4 1901   1.499   4.600   4.200
   61X2IT    C5 1902   1.350   4.591   4.217
   61X2IT    O1 1903   1.277   4.596   4.118
   61X2IT    C6 1904   1.302   4.578   4.353
   61X2IT   C12 1905   1.153   4.569   4.377
   61X2IT    C7 1906   1.392   4.579   4.457
   61X2IT    C8 1907   1.543   4.589   4.438
   61X2IT    O2 1908   1.615   4.584   4.539
   61X2IT    N3 1909   1.356   4.570   4.586
   61X2IT   H15 1910   1.261   4.561   4.617
   61X2IT   H16 1911   1.432   4.570   4.656
   61X2IT    N2 1912   1.560   4.617   4.080
   61X2IT    C3 1913   1.521   4.561   3.949
   61X2IT    C2 1914   1.644   4.479   3.911
   61X2IT    H2 1915   1.660   4.452   3.807
   61X2IT    N1 1916   1.684   4.386   4.019
   61X2IT   H14 1917   1.741   4.311   3.979
   61X2IT    C1 1918   1.756   4.513   4.002
   61X2IT    H1 1919   1.859   4.515   3.970
   61X2IT   C11 1920   1.708   4.622   4.097
   61X2IT    O3 1921   1.764   4.741   4.043
   61X2IT   C15 1922   1.706   4.865   4.086
   62X2IT   H18 1923   0.717   1.993   3.778
   62X2IT    N4 1924   0.706   2.084   3.737
   62X2IT   H17 1925   0.620   2.101   3.686
   62X2IT   C14 1926   0.766   2.188   3.802
   62X2IT    O5 1927   0.854   2.177   3.887
   62X2IT    O4 1928   0.718   2.307   3.756
   62X2IT   C13 1929   0.778   2.426   3.811
   62X2IT   C10 1930   0.909   2.461   3.738
   62X2IT    C9 1931   0.972   2.590   3.788
   62X2IT    C4 1932   0.986   2.680   3.684
   62X2IT    C5 1933   1.044   2.817   3.700
   62X2IT    O1 1934   1.057   2.890   3.600
   62X2IT    C6 1935   1.083   2.856   3.833
   62X2IT   C12 1936   1.143   2.993   3.856
   62X2IT    C7 1937   1.070   2.765   3.937
   62X2IT    C8 1938   1.011   2.625   3.919
   62X2IT    O2 1939   1.000   2.554   4.021
   62X2IT    N3 1940   1.106   2.792   4.064
   62X2IT   H15 1941   1.144   2.880   4.093
   62X2IT   H16 1942   1.090   2.718   4.133
   62X2IT    N2 1943   0.949   2.626   3.565
   62X2IT    C3 1944   0.887   2.695   3.451
   62X2IT    C2 1945   0.755   2.620   3.436
   62X2IT    H2 1946   0.701   2.624   3.341
   62X2IT    N1 1947   0.680   2.614   3.563
   62X2IT   H14 1948   0.581   2.596   3.543
   62X2IT    C1 1949   0.758   2.497   3.518
   62X2IT    H1 1950   0.709   2.405   3.489
   62X2IT   C11 1951   0.895   2.488   3.584
   62X2IT    O3 1952   0.965   2.394   3.505
   62X2IT   C15 1953   1.108   2.392   3.516
   63X2IT   H18 1954   0.986   5.388   2.258
   63X2IT    N4 1955   1.064   5.346   2.305
   63X2IT   H17 1956   1.153   5.393   2.299
   63X2IT   C14 1957   1.034   5.275   2.418
   63X2IT    O5 1958   0.923   5.236   2.450
   63X2IT    O4 1959   1.148   5.250   2.489
   63X2IT   C13 1960   1.133   5.170   2.608
   63X2IT   C10 1961   1.132   5.020   2.575
   63X2IT    C9 1962   1.123   4.932   2.698
   63X2IT    C4 1963   1.232   4.846   2.703
   63X2IT    C5 1964   1.254   4.746   2.813
   63X2IT    O1 1965   1.352   4.671   2.807
   63X2IT    C6 1966   1.157   4.745   2.919
   63X2IT   C12 1967   1.174   4.646   3.033
   63X2IT    C7 1968   1.048   4.830   2.914
   63X2IT    C8 1969   1.026   4.931   2.801
   63X2IT    O2 1970   0.927   5.005   2.808
   63X2IT    N3 1971   0.952   4.834   3.007
   63X2IT   H15 1972   0.952   4.776   3.089
   63X2IT   H16 1973   0.876   4.902   2.993
   63X2IT    N2 1974   1.311   4.858   2.594
   63X2IT    C3 1975   1.457   4.841   2.586
   63X2IT    C2 1976   1.502   4.977   2.535
   63X2IT    H2 1977   1.600   4.988   2.487
   63X2IT    N1 1978   1.449   5.088   2.617
   63X2IT   H14 1979   1.506   5.172   2.603
   63X2IT    C1 1980   1.384   5.054   2.488
   63X2IT    H1 1981   1.388   5.123   2.405
   63X2IT   C11 1982   1.262   4.966   2.504
   63X2IT    O3 1983   1.237   4.918   2.373
   63X2IT   C15 1984   1.152   4.803   2.360
   64X2IT   H18 1985   4.212   1.185   4.414
   64X2IT    N4 1986   4.137   1.238   4.372
   64X2IT   H17 1987   4.130   1.235   4.272
   64X2IT   C14 1988   4.024   1.253   4.447
   64X2IT    O5 1989   4.015   1.233   4.567
   64X2IT    O4 1990   3.922   1.298   4.368
   64X2IT   C13 1991   3.797   1.325   4.435
   64X2IT   C10 1992   3.796   1.464   4.499
   64X2IT    C9 1993   3.664   1.499   4.564
   64X2IT    C4 1994   3.613   1.615   4.509
   64X2IT    C5 1995   3.482   1.677   4.550
   64X2IT    O1 1996   3.445   1.782   4.497
   64X2IT    C6 1997   3.407   1.607   4.652
   64X2IT   C12 1998   3.275   1.664   4.698
   64X2IT    C7 1999   3.460   1.492   4.708
   64X2IT    C8 2000   3.593   1.431   4.666
   64X2IT    O2 2001   3.628   1.325   4.720
   64X2IT    N3 2002   3.398   1.422   4.805
   64X2IT   H15 2003   3.309   1.447   4.843
   64X2IT   H16 2004   3.446   1.337   4.838
   64X2IT    N2 2005   3.697   1.670   4.418
   64X2IT    C3 2006   3.663   1.745   4.296
   64X2IT    C2 2007   3.727   1.660   4.187
   64X2IT    H2 2008   3.748   1.704   4.090
   64X2IT    N1 2009   3.688   1.518   4.196
   64X2IT   H14 2010   3.703   1.473   4.105
   64X2IT    C1 2011   3.819   1.561   4.249
   64X2IT    H1 2012   3.911   1.528   4.203
   64X2IT   C11 2013   3.818   1.584   4.400
   64X2IT    O3 2014   3.938   1.656   4.424
   64X2IT   C15 2015   3.948   1.726   4.549
   65X2IT   H18 2016   2.709   4.718   0.589
   65X2IT    N4 2017   2.646   4.664   0.645
   65X2IT   H17 2018   2.577   4.608   0.596
   65X2IT   C14 2019   2.694   4.620   0.765
   65X2IT    O5 2020   2.793   4.663   0.821
   65X2IT    O4 2021   2.611   4.523   0.816
   65X2IT   C13 2022   2.646   4.472   0.946
   65X2IT   C10 2023   2.593   4.563   1.058
   65X2IT    C9 2024   2.622   4.509   1.197
   65X2IT    C4 2025   2.503   4.493   1.267
   65X2IT    C5 2026   2.496   4.440   1.407
   65X2IT    O1 2027   2.386   4.432   1.463
   65X2IT    C6 2028   2.621   4.403   1.469
   65X2IT   C12 2029   2.620   4.349   1.610
   65X2IT    C7 2030   2.739   4.420   1.399
   65X2IT    C8 2031   2.745   4.475   1.256
   65X2IT    O2 2032   2.857   4.482   1.202
   65X2IT    N3 2033   2.860   4.390   1.449
   65X2IT   H15 2034   2.874   4.352   1.540
   65X2IT   H16 2035   2.941   4.406   1.388
   65X2IT    N2 2036   2.396   4.537   1.196
   65X2IT    C3 2037   2.259   4.483   1.198
   65X2IT    C2 2038   2.238   4.443   1.053
   65X2IT    H2 2039   2.137   4.431   1.014
   65X2IT    N1 2040   2.347   4.356   1.002
   65X2IT   H14 2041   2.314   4.305   0.920
   65X2IT    C1 2042   2.347   4.501   0.970
   65X2IT    H1 2043   2.332   4.534   0.868
   65X2IT   C11 2044   2.437   4.583   1.061
   65X2IT    O3 2045   2.398   4.717   1.036
   65X2IT   C15 2046   2.436   4.815   1.133
   66X2IT   H18 2047   3.105   1.012   1.400
   66X2IT    N4 2048   3.116   0.984   1.304
   66X2IT   H17 2049   3.183   0.911   1.285
   66X2IT   C14 2050   3.005   0.995   1.225
   66X2IT    O5 2051   2.906   1.060   1.252
   66X2IT    O4 2052   3.024   0.926   1.109
   66X2IT   C13 2053   2.918   0.934   1.012
   66X2IT   C10 2054   2.929   1.061   0.927
   66X2IT    C9 2055   2.823   1.070   0.819
   66X2IT    C4 2056   2.882   1.080   0.695
   66X2IT    C5 2057   2.805   1.090   0.566
   66X2IT    O1 2058   2.867   1.103   0.459
   66X2IT    C6 2059   2.661   1.085   0.576
   66X2IT   C12 2060   2.578   1.094   0.450
   66X2IT    C7 2061   2.602   1.076   0.701
   66X2IT    C8 2062   2.682   1.067   0.831
   66X2IT    O2 2063   2.618   1.054   0.937
   66X2IT    N3 2064   2.470   1.072   0.720
   66X2IT   H15 2065   2.403   1.075   0.645
   66X2IT   H16 2066   2.437   1.063   0.817
   66X2IT    N2 2067   3.017   1.089   0.703
   66X2IT    C3 2068   3.117   1.037   0.608
   66X2IT    C2 2069   3.197   0.940   0.694
   66X2IT    H2 2070   3.297   0.910   0.663
   66X2IT    N1 2071   3.110   0.843   0.764
   66X2IT   H14 2072   3.165   0.762   0.791
   66X2IT    C1 2073   3.162   0.961   0.837
   66X2IT    H1 2074   3.233   0.949   0.917
   66X2IT   C11 2075   3.062   1.076   0.844
   66X2IT    O3 2076   3.141   1.187   0.885
   66X2IT   C15 2077   3.085   1.317   0.864
   67X2IT   H18 2078   0.463   1.983   2.645
   67X2IT    N4 2079   0.510   1.949   2.563
   67X2IT   H17 2080   0.590   1.890   2.577
   67X2IT   C14 2081   0.433   1.932   2.451
   67X2IT    O5 2082   0.321   1.978   2.435
   67X2IT    O4 2083   0.501   1.857   2.359
   67X2IT   C13 2084   0.434   1.836   2.233
   67X2IT   C10 2085   0.453   1.955   2.138
   67X2IT    C9 2086   0.390   1.934   2.002
   67X2IT    C4 2087   0.486   1.945   1.903
   67X2IT    C5 2088   0.457   1.928   1.756
   67X2IT    O1 2089   0.549   1.943   1.674
   67X2IT    C6 2090   0.321   1.896   1.721
   67X2IT   C12 2091   0.285   1.877   1.575
   67X2IT    C7 2092   0.225   1.886   1.820
   67X2IT    C8 2093   0.256   1.904   1.969
   67X2IT    O2 2094   0.163   1.889   2.049
   67X2IT    N3 2095   0.096   1.858   1.796
   67X2IT   H15 2096   0.059   1.842   1.704
   67X2IT   H16 2097   0.034   1.852   1.878
   67X2IT    N2 2098   0.607   1.980   1.953
   67X2IT    C3 2099   0.740   1.940   1.903
   67X2IT    C2 2100   0.800   1.869   2.024
   67X2IT    H2 2101   0.908   1.857   2.032
   67X2IT    N1 2102   0.710   1.763   2.076
   67X2IT   H14 2103   0.764   1.697   2.131
   67X2IT    C1 2104   0.715   1.895   2.143
   67X2IT    H1 2105   0.756   1.904   2.243
   67X2IT   C11 2106   0.603   1.988   2.101
   67X2IT    O3 2107   0.644   2.115   2.148
   67X2IT   C15 2108   0.580   2.230   2.092
   68X2IT   H18 2109   3.839   3.876   3.184
   68X2IT    N4 2110   3.826   3.962   3.235
   68X2IT   H17 2111   3.839   4.048   3.184
   68X2IT   C14 2112   3.735   3.958   3.337
   68X2IT    O5 2113   3.691   3.857   3.389
   68X2IT    O4 2114   3.704   4.086   3.376
   68X2IT   C13 2115   3.614   4.097   3.488
   68X2IT   C10 2116   3.689   4.085   3.622
   68X2IT    C9 2117   3.599   4.103   3.742
   68X2IT    C4 2118   3.645   4.208   3.821
   68X2IT    C5 2119   3.579   4.253   3.947
   68X2IT    O1 2120   3.629   4.345   4.013
   68X2IT    C6 2121   3.458   4.184   3.985
   68X2IT   C12 2122   3.385   4.226   4.111
   68X2IT    C7 2123   3.412   4.079   3.907
   68X2IT    C8 2124   3.481   4.033   3.779
   68X2IT    O2 2125   3.429   3.941   3.714
   68X2IT    N3 2126   3.302   4.008   3.935
   68X2IT   H15 2127   3.243   4.027   4.015
   68X2IT   H16 2128   3.276   3.934   3.870
   68X2IT    N2 2129   3.762   4.259   3.774
   68X2IT    C3 2130   3.809   4.398   3.781
   68X2IT    C2 2131   3.826   4.433   3.634
   68X2IT    H2 2132   3.890   4.516   3.605
   68X2IT    N1 2133   3.705   4.403   3.554
   68X2IT   H14 2134   3.707   4.458   3.468
   68X2IT    C1 2135   3.819   4.309   3.552
   68X2IT    H1 2136   3.876   4.294   3.462
   68X2IT   C11 2137   3.802   4.192   3.647
   68X2IT    O3 2138   3.931   4.135   3.655
   68X2IT   C15 2139   3.957   4.047   3.765
   69X2IT   H18 2140   2.824  -0.033   4.916
   69X2IT    N4 2141   2.811  -0.045   4.817
   69X2IT   H17 2142   2.789  -0.138   4.784
   69X2IT   C14 2143   2.762   0.063   4.749
   69X2IT    O5 2144   2.758   0.178   4.791
   69X2IT    O4 2145   2.720   0.025   4.625
   69X2IT   C13 2146   2.672   0.130   4.539
   69X2IT   C10 2147   2.787   0.202   4.468
   69X2IT    C9 2148   2.740   0.309   4.371
   69X2IT    C4 2149   2.788   0.282   4.244
   69X2IT    C5 2150   2.759   0.368   4.124
   69X2IT    O1 2151   2.809   0.339   4.015
   69X2IT    C6 2152   2.673   0.482   4.146
   69X2IT   C12 2153   2.640   0.573   4.029
   69X2IT    C7 2154   2.627   0.509   4.273
   69X2IT    C8 2155   2.658   0.421   4.394
   69X2IT    O2 2156   2.607   0.453   4.503
   69X2IT    N3 2157   2.548   0.614   4.303
   69X2IT   H15 2158   2.517   0.680   4.235
   69X2IT   H16 2159   2.518   0.623   4.400
   69X2IT    N2 2160   2.870   0.174   4.242
   69X2IT    C3 2161   2.888   0.076   4.133
   69X2IT    C2 2162   2.848  -0.054   4.201
   69X2IT    H2 2163   2.882  -0.149   4.159
   69X2IT    N1 2164   2.716  -0.045   4.267
   69X2IT   H14 2165   2.678  -0.139   4.280
   69X2IT    C1 2166   2.839  -0.033   4.348
   69X2IT    H1 2167   2.866  -0.109   4.420
   69X2IT   C11 2168   2.878   0.111   4.377
   69X2IT    O3 2169   3.012   0.103   4.423
   69X2IT   C15 2170   3.090   0.223   4.422
   70X2IT   H18 2171   3.636   3.459   0.414
   70X2IT    N4 2172   3.716   3.498   0.367
   70X2IT   H17 2173   3.699   3.564   0.293
   70X2IT   C14 2174   3.830   3.509   0.442
   70X2IT    O5 2175   3.851   3.453   0.548
   70X2IT    O4 2176   3.920   3.589   0.377
   70X2IT   C13 2177   4.048   3.605   0.441
   70X2IT   C10 2178   4.143   3.489   0.407
   70X2IT    C9 2179   4.281   3.505   0.467
   70X2IT    C4 2180   4.376   3.503   0.367
   70X2IT    C5 2181   4.524   3.518   0.391
   70X2IT    O1 2182   4.603   3.511   0.296
   70X2IT    C6 2183   4.565   3.538   0.528
   70X2IT   C12 2184   4.712   3.554   0.560
   70X2IT    C7 2185   4.469   3.539   0.628
   70X2IT    C8 2186   4.319   3.523   0.602
   70X2IT    O2 2187   4.242   3.530   0.699
   70X2IT    N3 2188   4.498   3.555   0.758
   70X2IT   H15 2189   4.591   3.569   0.793
   70X2IT   H16 2190   4.419   3.556   0.824
   70X2IT    N2 2191   4.322   3.479   0.245
   70X2IT    C3 2192   4.366   3.530   0.114
   70X2IT    C2 2193   4.244   3.606   0.066
   70X2IT    H2 2194   4.232   3.628  -0.040
   70X2IT    N1 2195   4.195   3.703   0.167
   70X2IT   H14 2196   4.137   3.774   0.120
   70X2IT    C1 2197   4.128   3.572   0.152
   70X2IT    H1 2198   4.026   3.566   0.115
   70X2IT   C11 2199   4.174   3.469   0.254
   70X2IT    O3 2200   4.125   3.346   0.203
   70X2IT   C15 2201   4.184   3.226   0.255
   71X2IT   H18 2202   1.391   3.121   4.729
   71X2IT    N4 2203   1.338   3.057   4.672
   71X2IT   H17 2204   1.241   3.043   4.696
   71X2IT   C14 2205   1.376   3.047   4.541
   71X2IT    O5 2206   1.482   3.086   4.495
   71X2IT    O4 2207   1.279   2.982   4.469
   71X2IT   C13 2208   1.308   2.958   4.330
   71X2IT   C10 2209   1.394   2.832   4.312
   71X2IT    C9 2210   1.421   2.799   4.166
   71X2IT    C4 2211   1.374   2.672   4.136
   71X2IT    C5 2212   1.384   2.609   4.001
   71X2IT    O1 2213   1.342   2.494   3.984
   71X2IT    C6 2214   1.444   2.690   3.897
   71X2IT   C12 2215   1.457   2.632   3.757
   71X2IT    C7 2216   1.491   2.816   3.927
   71X2IT    C8 2217   1.481   2.878   4.066
   71X2IT    O2 2218   1.524   2.994   4.081
   71X2IT    N3 2219   1.550   2.897   3.838
   71X2IT   H15 2220   1.563   2.872   3.741
   71X2IT   H16 2221   1.580   2.989   3.871
   71X2IT    N2 2222   1.325   2.609   4.246
   71X2IT    C3 2223   1.214   2.513   4.252
   71X2IT    C2 2224   1.116   2.582   4.347
   71X2IT    H2 2225   1.040   2.524   4.398
   71X2IT    N1 2226   1.087   2.721   4.305
   71X2IT   H14 2227   0.999   2.751   4.347
   71X2IT    C1 2228   1.184   2.696   4.413
   71X2IT    H1 2229   1.163   2.727   4.514
   71X2IT   C11 2230   1.329   2.698   4.365
   71X2IT    O3 2231   1.401   2.641   4.472
   71X2IT   C15 2232   1.533   2.593   4.444
   72X2IT   H18 2233   4.457   4.956  -0.025
   72X2IT    N4 2234   4.555   4.936  -0.016
   72X2IT   H17 2235   4.595   4.868  -0.080
   72X2IT   C14 2236   4.634   5.039   0.028
   72X2IT    O5 2237   4.594   5.140   0.083
   72X2IT    O4 2238   4.766   5.009   0.005
   72X2IT   C13 2239   4.861   5.106   0.053
   72X2IT   C10 2240   4.892   5.086   0.203
   72X2IT    C9 2241   4.997   5.181   0.255
   72X2IT    C4 2242   5.104   5.111   0.308
   72X2IT    C5 2243   5.226   5.175   0.367
   72X2IT    O1 2244   5.315   5.103   0.416
   72X2IT    C6 2245   5.230   5.319   0.365
   72X2IT   C12 2246   5.351   5.390   0.423
   72X2IT    C7 2247   5.124   5.390   0.313
   72X2IT    C8 2248   4.999   5.323   0.253
   72X2IT    O2 2249   4.911   5.396   0.205
   72X2IT    N3 2250   5.118   5.524   0.308
   72X2IT   H15 2251   5.192   5.583   0.341
   72X2IT   H16 2252   5.035   5.565   0.266
   72X2IT    N2 2253   5.082   4.977   0.307
   72X2IT    C3 2254   5.180   4.869   0.289
   72X2IT    C2 2255   5.130   4.799   0.164
   72X2IT    H2 2256   5.160   4.696   0.143
   72X2IT    N1 2257   5.108   4.893   0.052
   72X2IT   H14 2258   5.108   4.841  -0.037
   72X2IT    C1 2259   4.993   4.847   0.132
   72X2IT    H1 2260   4.916   4.784   0.089
   72X2IT   C11 2261   4.952   4.945   0.241
   72X2IT    O3 2262   4.866   4.870   0.325
   72X2IT   C15 2263   4.842   4.922   0.456
   73X2IT   H18 2264   3.725   0.836   2.988
   73X2IT    N4 2265   3.666   0.903   2.942
   73X2IT   H17 2266   3.616   0.969   3.000
   73X2IT   C14 2267   3.705   0.941   2.816
   73X2IT    O5 2268   3.786   0.881   2.747
   73X2IT    O4 2269   3.636   1.052   2.777
   73X2IT   C13 2270   3.662   1.100   2.644
   73X2IT   C10 2271   3.578   1.023   2.540
   73X2IT    C9 2272   3.597   1.074   2.399
   73X2IT    C4 2273   3.476   1.115   2.346
   73X2IT    C5 2274   3.459   1.172   2.208
   73X2IT    O1 2275   3.346   1.201   2.167
   73X2IT    C6 2276   3.580   1.187   2.130
   73X2IT   C12 2277   3.570   1.244   1.990
   73X2IT    C7 2278   3.701   1.146   2.182
   73X2IT    C8 2279   3.716   1.087   2.323
   73X2IT    O2 2280   3.830   1.058   2.362
   73X2IT    N3 2281   3.818   1.155   2.117
   73X2IT   H15 2282   3.826   1.193   2.024
   73X2IT   H16 2283   3.901   1.123   2.166
   73X2IT    N2 2284   3.372   1.089   2.430
   73X2IT    C3 2285   3.249   1.167   2.447
   73X2IT    C2 2286   3.256   1.206   2.594
   73X2IT    H2 2287   3.165   1.235   2.647
   73X2IT    N1 2288   3.384   1.270   2.630
   73X2IT   H14 2289   3.373   1.324   2.715
   73X2IT    C1 2290   3.362   1.127   2.661
   73X2IT    H1 2291   3.355   1.094   2.764
   73X2IT   C11 2292   3.422   1.032   2.559
   73X2IT    O3 2293   3.362   0.908   2.588
   73X2IT   C15 2294   3.368   0.807   2.486
   74X2IT   H18 2295   1.509   1.269  -0.404
   74X2IT    N4 2296   1.596   1.258  -0.355
   74X2IT   H17 2297   1.679   1.294  -0.399
   74X2IT   C14 2298   1.588   1.256  -0.218
   74X2IT    O5 2299   1.486   1.239  -0.154
   74X2IT    O4 2300   1.712   1.272  -0.164
   74X2IT   C13 2301   1.720   1.266  -0.020
   74X2IT   C10 2302   1.727   1.120   0.029
   74X2IT    C9 2303   1.743   1.109   0.179
   74X2IT    C4 2304   1.858   1.039   0.210
   74X2IT    C5 2305   1.903   1.011   0.351
   74X2IT    O1 2306   2.006   0.944   0.369
   74X2IT    C6 2307   1.822   1.065   0.457
   74X2IT   C12 2308   1.862   1.040   0.601
   74X2IT    C7 2309   1.706   1.134   0.426
   74X2IT    C8 2310   1.660   1.161   0.282
   74X2IT    O2 2311   1.557   1.229   0.266
   74X2IT    N3 2312   1.623   1.186   0.517
   74X2IT   H15 2313   1.639   1.179   0.616
   74X2IT   H16 2314   1.541   1.237   0.483
   74X2IT    N2 2315   1.920   0.992   0.100
   74X2IT    C3 2316   2.064   0.973   0.078
   74X2IT    C2 2317   2.091   1.063  -0.042
   74X2IT    H2 2318   2.180   1.047  -0.103
   74X2IT    N1 2319   2.039   1.201  -0.021
   74X2IT   H14 2320   2.088   1.265  -0.085
   74X2IT    C1 2321   1.961   1.105  -0.102
   74X2IT    H1 2322   1.948   1.120  -0.208
   74X2IT   C11 2323   1.850   1.037  -0.024
   74X2IT    O3 2324   1.811   0.928  -0.106
   74X2IT   C15 2325   1.736   0.823  -0.044
   75X2IT   H18 2326   4.305   4.590   4.593
   75X2IT    N4 2327   4.360   4.575   4.511
   75X2IT   H17 2328   4.418   4.492   4.510
   75X2IT   C14 2329   4.310   4.623   4.394
   75X2IT    O5 2330   4.220   4.705   4.384
   75X2IT    O4 2331   4.379   4.569   4.288
   75X2IT   C13 2332   4.341   4.616   4.157
   75X2IT   C10 2333   4.410   4.749   4.123
   75X2IT    C9 2334   4.379   4.799   3.984
   75X2IT    C4 2335   4.495   4.813   3.910
   75X2IT    C5 2336   4.499   4.860   3.768
   75X2IT    O1 2337   4.609   4.874   3.711
   75X2IT    C6 2338   4.372   4.887   3.705
   75X2IT   C12 2339   4.369   4.934   3.561
   75X2IT    C7 2340   4.256   4.873   3.779
   75X2IT    C8 2341   4.253   4.826   3.924
   75X2IT    O2 2342   4.143   4.813   3.979
   75X2IT    N3 2343   4.133   4.898   3.730
   75X2IT   H15 2344   4.117   4.927   3.635
   75X2IT   H16 2345   4.054   4.883   3.793
   75X2IT    N2 2346   4.606   4.788   3.985
   75X2IT    C3 2347   4.733   4.730   3.941
   75X2IT    C2 2348   4.743   4.605   4.028
   75X2IT    H2 2349   4.840   4.557   4.044
   75X2IT    N1 2350   4.621   4.522   4.021
   75X2IT   H14 2351   4.643   4.426   4.050
   75X2IT    C1 2352   4.641   4.612   4.136
   75X2IT    H1 2353   4.657   4.572   4.235
   75X2IT   C11 2354   4.568   4.744   4.122
   75X2IT    O3 2355   4.626   4.826   4.222
   75X2IT   C15 2356   4.606   4.968   4.210
   76X2IT   H18 2357   4.831   4.473   1.986
   76X2IT    N4 2358   4.736   4.468   2.020
   76X2IT   H17 2359   4.663   4.495   1.956
   76X2IT   C14 2360   4.711   4.371   2.113
   76X2IT    O5 2361   4.795   4.312   2.178
   76X2IT    O4 2362   4.576   4.354   2.126
   76X2IT   C13 2363   4.533   4.260   2.227
   76X2IT   C10 2364   4.530   4.324   2.367
   76X2IT    C9 2365   4.479   4.230   2.474
   76X2IT    C4 2366   4.368   4.285   2.536
   76X2IT    C5 2367   4.293   4.217   2.647
   76X2IT    O1 2368   4.197   4.274   2.700
   76X2IT    C6 2369   4.340   4.086   2.686
   76X2IT   C12 2370   4.268   4.012   2.797
   76X2IT    C7 2371   4.451   4.032   2.624
   76X2IT    C8 2372   4.528   4.103   2.512
   76X2IT    O2 2373   4.624   4.043   2.461
   76X2IT    N3 2374   4.503   3.912   2.655
   76X2IT   H15 2375   4.464   3.852   2.725
   76X2IT   H16 2376   4.585   3.882   2.602
   76X2IT    N2 2377   4.340   4.410   2.491
   76X2IT    C3 2378   4.209   4.473   2.477
   76X2IT    C2 2379   4.203   4.504   2.328
   76X2IT    H2 2380   4.134   4.579   2.291
   76X2IT    N1 2381   4.233   4.385   2.245
   76X2IT   H14 2382   4.195   4.398   2.151
   76X2IT    C1 2383   4.338   4.486   2.269
   76X2IT    H1 2384   4.376   4.546   2.188
   76X2IT   C11 2385   4.434   4.448   2.381
   76X2IT    O3 2386   4.502   4.568   2.410
   76X2IT   C15 2387   4.571   4.576   2.536
   77X2IT   H18 2388   4.296   3.564   1.618
   77X2IT    N4 2389   4.225   3.544   1.550
   77X2IT   H17 2390   4.236   3.584   1.458
   77X2IT   C14 2391   4.162   3.423   1.562
   77X2IT    O5 2392   4.164   3.352   1.661
   77X2IT    O4 2393   4.092   3.395   1.448
   77X2IT   C13 2394   4.014   3.273   1.449
   77X2IT   C10 2395   3.878   3.294   1.517
   77X2IT    C9 2396   3.791   3.170   1.513
   77X2IT    C4 2397   3.671   3.198   1.449
   77X2IT    C5 2398   3.562   3.097   1.428
   77X2IT    O1 2399   3.457   3.131   1.373
   77X2IT    C6 2400   3.589   2.963   1.476
   77X2IT   C12 2401   3.483   2.856   1.457
   77X2IT    C7 2402   3.708   2.936   1.540
   77X2IT    C8 2403   3.818   3.040   1.562
   77X2IT    O2 2404   3.923   3.004   1.617
   77X2IT    N3 2405   3.740   2.815   1.589
   77X2IT   H15 2406   3.680   2.735   1.582
   77X2IT   H16 2407   3.832   2.806   1.634
   77X2IT    N2 2408   3.660   3.329   1.415
   77X2IT    C3 2409   3.592   3.386   1.298
   77X2IT    C2 2410   3.706   3.459   1.227
   77X2IT    H2 2411   3.683   3.538   1.156
   77X2IT    N1 2412   3.823   3.371   1.204
   77X2IT   H14 2413   3.880   3.409   1.128
   77X2IT    C1 2414   3.824   3.466   1.317
   77X2IT    H1 2415   3.892   3.550   1.318
   77X2IT   C11 2416   3.785   3.403   1.450
   77X2IT    O3 2417   3.760   3.513   1.535
   77X2IT   C15 2418   3.685   3.488   1.654
   78X2IT   H18 2419   3.377   0.123   1.414
   78X2IT    N4 2420   3.291   0.174   1.422
   78X2IT   H17 2421   3.282   0.257   1.365
   78X2IT   C14 2422   3.179   0.101   1.452
   78X2IT    O5 2423   3.179  -0.012   1.496
   78X2IT    O4 2424   3.067   0.176   1.429
   78X2IT   C13 2425   2.942   0.114   1.464
   78X2IT   C10 2426   2.910   0.129   1.613
   78X2IT    C9 2427   2.776   0.072   1.652
   78X2IT    C4 2428   2.697   0.169   1.710
   78X2IT    C5 2429   2.557   0.146   1.759
   78X2IT    O1 2430   2.495   0.239   1.812
   78X2IT    C6 2431   2.504   0.013   1.740
   78X2IT   C12 2432   2.363  -0.017   1.787
   78X2IT    C7 2433   2.583  -0.085   1.683
   78X2IT    C8 2434   2.726  -0.060   1.635
   78X2IT    O2 2435   2.787  -0.154   1.581
   78X2IT    N3 2436   2.543  -0.211   1.664
   78X2IT   H15 2437   2.451  -0.244   1.688
   78X2IT   H16 2438   2.610  -0.275   1.619
   78X2IT    N2 2439   2.763   0.287   1.724
   78X2IT    C3 2440   2.708   0.423   1.716
   78X2IT    C2 2441   2.788   0.483   1.601
   78X2IT    H2 2442   2.795   0.592   1.591
   78X2IT    N1 2443   2.783   0.399   1.480
   78X2IT   H14 2444   2.806   0.456   1.397
   78X2IT    C1 2445   2.902   0.394   1.568
   78X2IT    H1 2446   2.998   0.431   1.533
   78X2IT   C11 2447   2.900   0.278   1.665
   78X2IT    O3 2448   3.000   0.310   1.760
   78X2IT   C15 2449   2.997   0.241   1.885
   79X2IT   H18 2450   0.751   3.012   4.407
   79X2IT    N4 2451   0.701   3.088   4.366
   79X2IT   H17 2452   0.713   3.179   4.408
   79X2IT   C14 2453   0.677   3.080   4.231
   79X2IT    O5 2454   0.686   2.978   4.165
   79X2IT    O4 2455   0.637   3.202   4.184
   79X2IT   C13 2456   0.602   3.207   4.044
   79X2IT   C10 2457   0.457   3.161   4.021
   79X2IT    C9 2458   0.414   3.171   3.876
   79X2IT    C4 2459   0.303   3.253   3.865
   79X2IT    C5 2460   0.235   3.285   3.735
   79X2IT    O1 2461   0.134   3.356   3.735
   79X2IT    C6 2462   0.294   3.228   3.616
   79X2IT   C12 2463   0.231   3.256   3.481
   79X2IT    C7 2464   0.404   3.145   3.627
   79X2IT    C8 2465   0.472   3.113   3.761
   79X2IT    O2 2466   0.573   3.041   3.758
   79X2IT    N3 2467   0.464   3.086   3.523
   79X2IT   H15 2468   0.434   3.099   3.428
   79X2IT   H16 2469   0.546   3.028   3.543
   79X2IT    N2 2470   0.258   3.294   3.986
   79X2IT    C3 2471   0.194   3.422   4.020
   79X2IT    C2 2472   0.289   3.479   4.124
   79X2IT    H2 2473   0.254   3.557   4.192
   79X2IT    N1 2474   0.430   3.481   4.077
   79X2IT   H14 2475   0.483   3.549   4.131
   79X2IT    C1 2476   0.384   3.374   4.167
   79X2IT    H1 2477   0.422   3.367   4.268
   79X2IT   C11 2478   0.347   3.245   4.095
   79X2IT    O3 2479   0.276   3.170   4.192
   79X2IT   C15 2480   0.195   3.062   4.145
   80X2IT   H18 2481   1.952   2.040   3.946
   80X2IT    N4 2482   1.976   1.943   3.940
   80X2IT   H17 2483   1.978   1.890   4.026
   80X2IT   C14 2484   1.942   1.880   3.823
   80X2IT    O5 2485   1.912   1.935   3.719
   80X2IT    O4 2486   1.952   1.744   3.840
   80X2IT   C13 2487   1.926   1.664   3.723
   80X2IT   C10 2488   2.051   1.653   3.633
   80X2IT    C9 2489   2.030   1.564   3.513
   80X2IT    C4 2490   2.121   1.461   3.513
   80X2IT    C5 2491   2.128   1.354   3.408
   80X2IT    O1 2492   2.216   1.267   3.414
   80X2IT    C6 2493   2.028   1.360   3.304
   80X2IT   C12 2494   2.028   1.255   3.194
   80X2IT    C7 2495   1.937   1.464   3.303
   80X2IT    C8 2496   1.932   1.573   3.410
   80X2IT    O2 2497   1.843   1.659   3.402
   80X2IT    N3 2498   1.842   1.479   3.209
   80X2IT   H15 2499   1.830   1.416   3.132
   80X2IT   H16 2500   1.779   1.559   3.219
   80X2IT    N2 2501   2.211   1.472   3.615
   80X2IT    C3 2502   2.276   1.363   3.690
   80X2IT    C2 2503   2.229   1.391   3.833
   80X2IT    H2 2504   2.285   1.349   3.917
   80X2IT    N1 2505   2.082   1.404   3.842
   80X2IT   H14 2506   2.052   1.387   3.939
   80X2IT    C1 2507   2.167   1.525   3.839
   80X2IT    H1 2508   2.174   1.590   3.926
   80X2IT   C11 2509   2.177   1.588   3.701
   80X2IT    O3 2510   2.286   1.679   3.713
   80X2IT   C15 2511   2.345   1.725   3.591
   81X2IT   H18 2512   1.597   0.758   4.616
   81X2IT    N4 2513   1.577   0.841   4.563
   81X2IT   H17 2514   1.604   0.929   4.604
   81X2IT   C14 2515   1.577   0.828   4.427
   81X2IT    O5 2516   1.571   0.722   4.367
   81X2IT    O4 2517   1.580   0.951   4.368
   81X2IT   C13 2518   1.573   0.953   4.224
   81X2IT   C10 2519   1.428   0.942   4.174
   81X2IT    C9 2520   1.417   0.951   4.024
   81X2IT    C4 2521   1.335   1.057   3.988
   81X2IT    C5 2522   1.303   1.094   3.846
   81X2IT    O1 2523   1.225   1.188   3.824
   81X2IT    C6 2524   1.366   1.015   3.743
   81X2IT   C12 2525   1.338   1.047   3.598
   81X2IT    C7 2526   1.447   0.908   3.779
   81X2IT    C8 2527   1.478   0.871   3.924
   81X2IT    O2 2528   1.556   0.777   3.944
   81X2IT    N3 2529   1.508   0.828   3.690
   81X2IT   H15 2530   1.500   0.840   3.591
   81X2IT   H16 2531   1.567   0.754   3.728
   81X2IT    N2 2532   1.280   1.118   4.096
   81X2IT    C3 2533   1.247   1.260   4.112
   81X2IT    C2 2534   1.333   1.300   4.231
   81X2IT    H2 2535   1.307   1.389   4.289
   81X2IT    N1 2536   1.475   1.263   4.213
   81X2IT   H14 2537   1.533   1.320   4.275
   81X2IT    C1 2538   1.387   1.178   4.296
   81X2IT    H1 2539   1.403   1.170   4.403
   81X2IT   C11 2540   1.332   1.057   4.222
   81X2IT    O3 2541   1.228   1.011   4.306
   81X2IT   C15 2542   1.131   0.922   4.246
   82X2IT   H18 2543   3.118   5.031   3.841
   82X2IT    N4 2544   3.108   5.022   3.742
   82X2IT   H17 2545   3.017   5.041   3.703
   82X2IT   C14 2546   3.219   5.049   3.667
   82X2IT    O5 2547   3.333   5.056   3.710
   82X2IT    O4 2548   3.184   5.064   3.536
   82X2IT   C13 2549   3.293   5.086   3.443
   82X2IT   C10 2550   3.360   4.954   3.402
   82X2IT    C9 2551   3.469   4.972   3.299
   82X2IT    C4 2552   3.442   4.899   3.186
   82X2IT    C5 2553   3.530   4.896   3.064
   82X2IT    O1 2554   3.499   4.824   2.968
   82X2IT    C6 2555   3.649   4.978   3.069
   82X2IT   C12 2556   3.742   4.980   2.950
   82X2IT    C7 2557   3.677   5.050   3.183
   82X2IT    C8 2558   3.586   5.052   3.306
   82X2IT    O2 2559   3.619   5.124   3.402
   82X2IT    N3 2560   3.786   5.128   3.197
   82X2IT   H15 2561   3.855   5.140   3.125
   82X2IT   H16 2562   3.796   5.178   3.286
   82X2IT    N2 2563   3.329   4.824   3.199
   82X2IT    C3 2564   3.231   4.788   3.095
   82X2IT    C2 2565   3.103   4.848   3.150
   82X2IT    H2 2566   3.006   4.812   3.114
   82X2IT    N1 2567   3.118   4.991   3.185
   82X2IT   H14 2568   3.026   5.036   3.187
   82X2IT    C1 2569   3.123   4.889   3.291
   82X2IT    H1 2570   3.045   4.883   3.366
   82X2IT   C11 2571   3.265   4.850   3.331
   82X2IT    O3 2572   3.248   4.731   3.406
   82X2IT   C15 2573   3.363   4.648   3.425
   83X2IT   H18 2574   0.313   0.591   3.554
   83X2IT    N4 2575   0.370   0.511   3.577
   83X2IT   H17 2576   0.369   0.434   3.512
   83X2IT   C14 2577   0.483   0.537   3.650
   83X2IT    O5 2578   0.505   0.639   3.711
   83X2IT    O4 2579   0.565   0.427   3.648
   83X2IT   C13 2580   0.685   0.437   3.726
   83X2IT   C10 2581   0.659   0.403   3.874
   83X2IT    C9 2582   0.785   0.405   3.958
   83X2IT    C4 2583   0.804   0.282   4.018
   83X2IT    C5 2584   0.920   0.250   4.108
   83X2IT    O1 2585   0.927   0.138   4.161
   83X2IT    C6 2586   1.017   0.355   4.128
   83X2IT   C12 2587   1.137   0.329   4.217
   83X2IT    C7 2588   0.997   0.478   4.069
   83X2IT    C8 2589   0.878   0.510   3.978
   83X2IT    O2 2590   0.873   0.623   3.926
   83X2IT    N3 2591   1.081   0.582   4.083
   83X2IT   H15 2592   1.165   0.578   4.138
   83X2IT   H16 2593   1.057   0.668   4.033
   83X2IT    N2 2594   0.702   0.196   3.993
   83X2IT    C3 2595   0.708   0.050   3.978
   83X2IT    C2 2596   0.656   0.030   3.836
   83X2IT    H2 2597   0.617  -0.067   3.806
   83X2IT    N1 2598   0.727   0.114   3.737
   83X2IT   H14 2599   0.715   0.074   3.644
   83X2IT    C1 2600   0.595   0.156   3.788
   83X2IT    H1 2601   0.509   0.159   3.722
   83X2IT   C11 2602   0.603   0.258   3.900
   83X2IT    O3 2603   0.473   0.259   3.956
   83X2IT   C15 2604   0.457   0.316   4.086
   84X2IT   H18 2605   3.797   2.964   4.234
   84X2IT    N4 2606   3.785   3.054   4.277
   84X2IT   H17 2607   3.869   3.104   4.302
   84X2IT   C14 2608   3.673   3.124   4.243
   84X2IT    O5 2609   3.575   3.077   4.188
   84X2IT    O4 2610   3.685   3.254   4.283
   84X2IT   C13 2611   3.570   3.338   4.260
   84X2IT   C10 2612   3.465   3.323   4.371
   84X2IT    C9 2613   3.347   3.415   4.353
   84X2IT    C4 2614   3.332   3.496   4.464
   84X2IT    C5 2615   3.225   3.600   4.479
   84X2IT    O1 2616   3.218   3.666   4.584
   84X2IT    C6 2617   3.135   3.616   4.368
   84X2IT   C12 2618   3.024   3.719   4.376
   84X2IT    C7 2619   3.148   3.534   4.257
   84X2IT    C8 2620   3.258   3.428   4.243
   84X2IT    O2 2621   3.264   3.364   4.138
   84X2IT    N3 2622   3.068   3.540   4.149
   84X2IT   H15 2623   2.993   3.606   4.141
   84X2IT   H16 2624   3.089   3.476   4.072
   84X2IT    N2 2625   3.422   3.465   4.562
   84X2IT    C3 2626   3.485   3.557   4.658
   84X2IT    C2 2627   3.633   3.539   4.626
   84X2IT    H2 2628   3.708   3.567   4.700
   84X2IT    N1 2629   3.662   3.558   4.482
   84X2IT   H14 2630   3.761   3.580   4.470
   84X2IT    C1 2631   3.651   3.421   4.538
   84X2IT    H1 2632   3.738   3.356   4.543
   84X2IT   C11 2633   3.515   3.358   4.516
   84X2IT    O3 2634   3.514   3.247   4.603
   84X2IT   C15 2635   3.386   3.189   4.635
   85X2IT   H18 2636   0.925   4.100   0.504
   85X2IT    N4 2637   0.906   4.193   0.473
   85X2IT   H17 2638   0.981   4.260   0.480
   85X2IT   C14 2639   0.814   4.207   0.373
   85X2IT    O5 2640   0.735   4.121   0.338
   85X2IT    O4 2641   0.821   4.333   0.321
   85X2IT   C13 2642   0.724   4.365   0.218
   85X2IT   C10 2643   0.589   4.407   0.279
   85X2IT    C9 2644   0.487   4.447   0.175
   85X2IT    C4 2645   0.445   4.577   0.197
   85X2IT    C5 2646   0.345   4.649   0.111
   85X2IT    O1 2647   0.310   4.764   0.141
   85X2IT    C6 2648   0.294   4.576  -0.002
   85X2IT   C12 2649   0.192   4.642  -0.093
   85X2IT    C7 2650   0.335   4.446  -0.024
   85X2IT    C8 2651   0.437   4.374   0.064
   85X2IT    O2 2652   0.471   4.259   0.033
   85X2IT    N3 2653   0.292   4.370  -0.126
   85X2IT   H15 2654   0.227   4.402  -0.195
   85X2IT   H16 2655   0.331   4.275  -0.134
   85X2IT    N2 2656   0.499   4.629   0.310
   85X2IT    C3 2657   0.535   4.770   0.337
   85X2IT    C2 2658   0.685   4.759   0.365
   85X2IT    H2 2659   0.735   4.839   0.420
   85X2IT    N1 2660   0.757   4.686   0.258
   85X2IT   H14 2661   0.856   4.711   0.262
   85X2IT    C1 2662   0.721   4.616   0.384
   85X2IT    H1 2663   0.798   4.584   0.452
   85X2IT   C11 2664   0.594   4.534   0.372
   85X2IT    O3 2665   0.560   4.504   0.507
   85X2IT   C15 2666   0.426   4.461   0.532
   86X2IT   H18 2667   1.851   1.433   0.210
   86X2IT    N4 2668   1.889   1.487   0.286
   86X2IT   H17 2669   1.907   1.585   0.268
   86X2IT   C14 2670   1.857   1.447   0.412
   86X2IT    O5 2671   1.810   1.338   0.441
   86X2IT    O4 2672   1.889   1.544   0.502
   86X2IT   C13 2673   1.866   1.512   0.641
   86X2IT   C10 2674   1.983   1.432   0.700
   86X2IT    C9 2675   1.966   1.403   0.848
   86X2IT    C4 2676   2.073   1.454   0.919
   86X2IT    C5 2677   2.087   1.443   1.068
   86X2IT    O1 2678   2.188   1.489   1.123
   86X2IT    C6 2679   1.979   1.378   1.138
   86X2IT   C12 2680   1.987   1.364   1.289
   86X2IT    C7 2681   1.873   1.325   1.067
   86X2IT    C8 2682   1.860   1.336   0.915
   86X2IT    O2 2683   1.759   1.290   0.861
   86X2IT    N3 2684   1.770   1.261   1.123
   86X2IT   H15 2685   1.761   1.247   1.222
   86X2IT   H16 2686   1.696   1.228   1.061
   86X2IT    N2 2687   2.167   1.509   0.838
   86X2IT    C3 2688   2.255   1.624   0.865
   86X2IT    C2 2689   2.216   1.720   0.754
   86X2IT    H2 2690   2.285   1.801   0.726
   86X2IT    N1 2691   2.070   1.743   0.747
   86X2IT   H14 2692   2.052   1.831   0.698
   86X2IT    C1 2693   2.134   1.649   0.653
   86X2IT    H1 2694   2.139   1.672   0.547
   86X2IT   C11 2695   2.123   1.504   0.696
   86X2IT    O3 2696   2.217   1.436   0.614
   86X2IT   C15 2697   2.258   1.306   0.655
   87X2IT   H18 2698   0.041   4.569   2.115
   87X2IT    N4 2699   0.102   4.527   2.047
   87X2IT   H17 2700   0.175   4.466   2.082
   87X2IT   C14 2701   0.050   4.504   1.923
   87X2IT    O5 2702  -0.053   4.553   1.880
   87X2IT    O4 2703   0.133   4.421   1.853
   87X2IT   C13 2704   0.093   4.392   1.717
   87X2IT   C10 2705   0.139   4.504   1.621
   87X2IT    C9 2706   0.105   4.475   1.476
   87X2IT    C4 2707   0.221   4.475   1.400
   87X2IT    C5 2708   0.223   4.448   1.252
   87X2IT    O1 2709   0.331   4.454   1.191
   87X2IT    C6 2710   0.097   4.418   1.190
   87X2IT   C12 2711   0.092   4.390   1.041
   87X2IT    C7 2712  -0.019   4.419   1.266
   87X2IT    C8 2713  -0.020   4.447   1.416
   87X2IT    O2 2714  -0.129   4.440   1.476
   87X2IT    N3 2715  -0.141   4.394   1.217
   87X2IT   H15 2716  -0.158   4.372   1.120
   87X2IT   H16 2717  -0.219   4.395   1.283
   87X2IT    N2 2718   0.330   4.509   1.472
   87X2IT    C3 2719   0.468   4.462   1.456
   87X2IT    C2 2720   0.497   4.398   1.591
   87X2IT    H2 2721   0.600   4.382   1.623
   87X2IT    N1 2722   0.393   4.299   1.629
   87X2IT   H14 2723   0.431   4.235   1.699
   87X2IT    C1 2724   0.390   4.435   1.687
   87X2IT    H1 2725   0.409   4.451   1.792
   87X2IT   C11 2726   0.294   4.529   1.615
   87X2IT    O3 2727   0.331   4.658   1.662
   87X2IT   C15 2728   0.285   4.770   1.586
   88X2IT   H18 2729   4.353   1.842   3.371
   88X2IT    N4 2730   4.323   1.761   3.423
   88X2IT   H17 2731   4.331   1.765   3.524
   88X2IT   C14 2732   4.223   1.687   3.367
   88X2IT    O5 2733   4.187   1.693   3.251
   88X2IT    O4 2734   4.172   1.601   3.460
   88X2IT   C13 2735   4.069   1.511   3.414
   88X2IT   C10 2736   4.130   1.387   3.345
   88X2IT    C9 2737   4.025   1.287   3.301
   88X2IT    C4 2738   4.049   1.164   3.360
   88X2IT    C5 2739   3.963   1.043   3.339
   88X2IT    O1 2740   3.994   0.936   3.393
   88X2IT    C6 2741   3.848   1.059   3.253
   88X2IT   C12 2742   3.758   0.941   3.227
   88X2IT    C7 2743   3.826   1.182   3.193
   88X2IT    C8 2744   3.914   1.304   3.215
   88X2IT    O2 2745   3.882   1.411   3.160
   88X2IT    N3 2746   3.723   1.206   3.110
   88X2IT   H15 2747   3.654   1.137   3.086
   88X2IT   H16 2748   3.715   1.301   3.072
   88X2IT    N2 2749   4.163   1.164   3.434
   88X2IT    C3 2750   4.190   1.089   3.558
   88X2IT    C2 2751   4.219   1.200   3.658
   88X2IT    H2 2752   4.275   1.178   3.749
   88X2IT    N1 2753   4.112   1.302   3.660
   88X2IT   H14 2754   4.116   1.354   3.749
   88X2IT    C1 2755   4.237   1.328   3.585
   88X2IT    H1 2756   4.306   1.405   3.617
   88X2IT   C11 2757   4.224   1.300   3.436
   88X2IT    O3 2758   4.358   1.297   3.390
   88X2IT   C15 2759   4.383   1.235   3.263
   89X2IT   H18 2760   1.708   1.891   3.352
   89X2IT    N4 2761   1.609   1.904   3.338
   89X2IT   H17 2762   1.555   1.933   3.418
   89X2IT   C14 2763   1.570   1.942   3.213
   89X2IT    O5 2764   1.638   1.935   3.113
   89X2IT    O4 2765   1.440   1.985   3.216
   89X2IT   C13 2766   1.383   2.023   3.090
   89X2IT   C10 2767   1.330   1.900   3.013
   89X2IT    C9 2768   1.263   1.936   2.883
   89X2IT    C4 2769   1.132   1.890   2.882
   89X2IT    C5 2770   1.037   1.909   2.767
   89X2IT    O1 2771   0.923   1.861   2.774
   89X2IT    C6 2772   1.087   1.984   2.654
   89X2IT   C12 2773   0.996   2.008   2.536
   89X2IT    C7 2774   1.217   2.029   2.655
   89X2IT    C8 2775   1.314   2.008   2.772
   89X2IT    O2 2776   1.427   2.057   2.763
   89X2IT    N3 2777   1.273   2.098   2.554
   89X2IT   H15 2778   1.223   2.123   2.470
   89X2IT   H16 2779   1.370   2.128   2.565
   89X2IT    N2 2780   1.103   1.818   2.993
   89X2IT    C3 2781   0.974   1.808   3.063
   89X2IT    C2 2782   1.009   1.860   3.202
   89X2IT    H2 2783   0.945   1.836   3.287
   89X2IT    N1 2784   1.077   1.992   3.197
   89X2IT   H14 2785   1.067   2.038   3.288
   89X2IT    C1 2786   1.156   1.869   3.216
   89X2IT    H1 2787   1.208   1.850   3.309
   89X2IT   C11 2788   1.219   1.817   3.087
   89X2IT    O3 2789   1.260   1.686   3.120
   89X2IT   C15 2790   1.287   1.597   3.010
   90X2IT   H18 2791   3.558   3.410   5.049
   90X2IT    N4 2792   3.515   3.322   5.068
   90X2IT   H17 2793   3.436   3.322   5.131
   90X2IT   C14 2794   3.519   3.229   4.967
   90X2IT    O5 2795   3.592   3.233   4.871
   90X2IT    O4 2796   3.431   3.128   4.994
   90X2IT   C13 2797   3.429   3.019   4.900
   90X2IT   C10 2798   3.540   2.917   4.929
   90X2IT    C9 2799   3.537   2.797   4.837
   90X2IT    C4 2800   3.524   2.681   4.910
   90X2IT    C5 2801   3.517   2.544   4.849
   90X2IT    O1 2802   3.509   2.445   4.922
   90X2IT    C6 2803   3.521   2.537   4.705
   90X2IT   C12 2804   3.514   2.402   4.636
   90X2IT    C7 2805   3.535   2.654   4.632
   90X2IT    C8 2806   3.543   2.793   4.695
   90X2IT    O2 2807   3.551   2.891   4.620
   90X2IT    N3 2808   3.542   2.658   4.498
   90X2IT   H15 2809   3.536   2.576   4.440
   90X2IT   H16 2810   3.551   2.750   4.454
   90X2IT    N2 2811   3.527   2.704   5.044
   90X2IT    C3 2812   3.455   2.631   5.149
   90X2IT    C2 2813   3.369   2.740   5.212
   90X2IT    H2 2814   3.329   2.726   5.312
   90X2IT    N1 2815   3.290   2.813   5.111
   90X2IT   H14 2816   3.210   2.859   5.157
   90X2IT    C1 2817   3.414   2.872   5.163
   90X2IT    H1 2818   3.412   2.962   5.224
   90X2IT   C11 2819   3.534   2.850   5.072
   90X2IT    O3 2820   3.646   2.883   5.153
   90X2IT   C15 2821   3.774   2.836   5.109
   91X2IT   H18 2822   1.015   2.150   0.654
   91X2IT    N4 2823   1.080   2.156   0.731
   91X2IT   H17 2824   1.171   2.193   0.711
   91X2IT   C14 2825   1.026   2.174   0.855
   91X2IT    O5 2826   0.909   2.157   0.884
   91X2IT    O4 2827   1.123   2.211   0.943
   91X2IT   C13 2828   1.082   2.228   1.081
   91X2IT   C10 2829   1.078   2.093   1.155
   91X2IT    C9 2830   1.042   2.107   1.301
   91X2IT    C4 2831   1.143   2.054   1.380
   91X2IT    C5 2832   1.139   2.053   1.530
   91X2IT    O1 2833   1.232   2.000   1.593
   91X2IT    C6 2834   1.024   2.114   1.592
   91X2IT   C12 2835   1.014   2.116   1.744
   91X2IT    C7 2836   0.923   2.165   1.513
   91X2IT    C8 2837   0.928   2.166   1.360
   91X2IT    O2 2838   0.834   2.219   1.299
   91X2IT    N3 2839   0.811   2.222   1.562
   91X2IT   H15 2840   0.793   2.232   1.660
   91X2IT   H16 2841   0.744   2.259   1.494
   91X2IT    N2 2842   1.241   1.997   1.307
   91X2IT    C3 2843   1.385   1.990   1.337
   91X2IT    C2 2844   1.447   2.063   1.219
   91X2IT    H2 2845   1.551   2.047   1.194
   91X2IT    N1 2846   1.385   2.196   1.196
   91X2IT   H14 2847   1.449   2.254   1.141
   91X2IT    C1 2848   1.344   2.081   1.113
   91X2IT    H1 2849   1.366   2.078   1.007
   91X2IT   C11 2850   1.215   2.015   1.161
   91X2IT    O3 2851   1.212   1.892   1.092
   91X2IT   C15 2852   1.125   1.790   1.143
   92SOL     OW 2853   0.230   0.628   0.113
   92SOL    HW1 2854   0.137   0.626   0.150
   92SOL    HW2 2855   0.231   0.589   0.021
   93SOL     OW 2856   0.225   0.275   0.996
   93SOL    HW1 2857   0.260   0.258   1.088
   93SOL    HW2 2858   0.137   0.230   0.984
   94SOL     OW 2859   0.019   0.368   0.647
   94SOL    HW1 2860  -0.063   0.411   0.686
   94SOL    HW2 2861  -0.009   0.295   0.584
   95SOL     OW 2862   0.569   1.275   1.165
   95SOL    HW1 2863   0.476   1.268   1.128
   95SOL    HW2 2864   0.580   1.364   1.209
   96SOL     OW 2865   1.555   1.511   0.703
   96SOL    HW1 2866   1.498   1.495   0.784
   96SOL    HW2 2867   1.496   1.521   0.623
   97SOL     OW 2868   1.135   0.703   0.717
   97SOL    HW1 2869   1.192   0.781   0.692
   97SOL    HW2 2870   1.075   0.729   0.793
   98SOL     OW 2871   1.755   0.607   0.231
   98SOL    HW1 2872   1.743   0.594   0.132
   98SOL    HW2 2873   1.725   0.526   0.280
   99SOL     OW 2874   0.686   1.161   1.803
   99SOL    HW1 2875   0.746   1.240   1.817
   99SOL    HW2 2876   0.600   1.192   1.762
  100SOL     OW 2877   0.335   1.435   1.061
  100SOL    HW1 2878   0.257   1.404   1.008
  100SOL    HW2 2879   0.393   1.493   1.004
  101SOL     OW 2880   1.460   1.505   1.339
  101SOL    HW1 2881   1.484   1.599   1.365
  101SOL    HW2 2882   1.444   1.451   1.421
  102SOL     OW 2883   0.231   1.713   0.483
  102SOL    HW1 2884   0.265   1.790   0.537
  102SOL    HW2 2885   0.275   1.713   0.393
  103SOL     OW 2886   1.127   1.341   1.690
  103SOL    HW1 2887   1.174   1.341   1.778
  103SOL    HW2 2888   1.079   1.254   1.679
  104SOL     OW 2889   0.230   1.434   0.538
  104SOL    HW1 2890   0.204   1.530   0.538
  104SOL    HW2 2891   0.159   1.380   0.583
  105SOL     OW 2892   0.240   1.091   0.886
  105SOL    HW1 2893   0.254   1.007   0.938
  105SOL    HW2 2894   0.185   1.155   0.941
  106SOL     OW 2895   0.620   1.786   1.439
  106SOL    HW1 2896   0.528   1.769   1.474
  106SOL    HW2 2897   0.648   1.878   1.465
  107SOL     OW 2898   0.606   0.964   0.123
  107SOL    HW1 2899   0.613   1.048   0.069
  107SOL    HW2 2900   0.652   0.977   0.211
  108SOL     OW 2901   1.594   0.114   1.480
  108SOL    HW1 2902   1.576   0.181   1.408
  108SOL    HW2 2903   1.591   0.160   1.569
  109SOL     OW 2904   0.122   0.643   0.563
  109SOL    HW1 2905   0.077   0.555   0.580
  109SOL    HW2 2906   0.121   0.697   0.647
  110SOL     OW 2907   1.842   1.767   0.359
  110SOL    HW1 2908   1.896   1.738   0.439
  110SOL    HW2 2909   1.872   1.857   0.330
  111SOL     OW 2910   1.689   0.922   0.612
  111SOL    HW1 2911   1.784   0.893   0.620
  111SOL    HW2 2912   1.681   0.987   0.537
  112SOL     OW 2913   0.113   0.737   1.597
  112SOL    HW1 2914   0.201   0.724   1.642
  112SOL    HW2 2915   0.100   0.834   1.575
  113SOL     OW 2916   0.613   1.365   0.726
  113SOL    HW1 2917   0.564   1.278   0.735
  113SOL    HW2 2918   0.590   1.408   0.639
  114SOL     OW 2919   0.809   0.004   0.502
  114SOL    HW1 2920   0.849   0.095   0.493
  114SOL    HW2 2921   0.709   0.012   0.508
  115SOL     OW 2922   0.197   0.976   1.264
  115SOL    HW1 2923   0.286   0.931   1.250
  115SOL    HW2 2924   0.124   0.911   1.245
  116SOL     OW 2925   1.525   0.999   0.190
  116SOL    HW1 2926   1.462   0.923   0.203
  116SOL    HW2 2927   1.573   1.017   0.276
  117SOL     OW 2928   1.187   1.792   1.616
  117SOL    HW1 2929   1.211   1.852   1.540
  117SOL    HW2 2930   1.194   1.697   1.586
  118SOL     OW 2931   1.466   1.417   0.953
  118SOL    HW1 2932   1.407   1.423   1.033
  118SOL    HW2 2933   1.451   1.329   0.907
  119SOL     OW 2934   1.667   1.714   0.572
  119SOL    HW1 2935   1.626   1.691   0.484
  119SOL    HW2 2936   1.649   1.640   0.637
  120SOL     OW 2937   0.598   0.729   0.270
  120SOL    HW1 2938   0.622   0.798   0.202
  120SOL    HW2 2939   0.520   0.762   0.324
  121SOL     OW 2940   1.576   1.662   0.307
  121SOL    HW1 2941   1.665   1.708   0.310
  121SOL    HW2 2942   1.555   1.638   0.212
  122SOL     OW 2943   0.807   0.605   1.465
  122SOL    HW1 2944   0.760   0.602   1.554
  122SOL    HW2 2945   0.756   0.550   1.399
  123SOL     OW 2946   1.394   0.469   1.674
  123SOL    HW1 2947   1.374   0.512   1.762
  123SOL    HW2 2948   1.472   0.407   1.683
  124SOL     OW 2949   0.973   0.890   1.572
  124SOL    HW1 2950   1.019   0.806   1.543
  124SOL    HW2 2951   0.917   0.924   1.497
  125SOL     OW 2952   0.991   0.410   1.242
  125SOL    HW1 2953   0.914   0.444   1.296
  125SOL    HW2 2954   0.957   0.359   1.163
  126SOL     OW 2955   1.041   0.701   0.429
  126SOL    HW1 2956   1.067   0.697   0.525
  126SOL    HW2 2957   0.956   0.650   0.415
  127SOL     OW 2958   0.076   0.811   0.789
  127SOL    HW1 2959   0.175   0.799   0.798
  127SOL    HW2 2960   0.052   0.906   0.810
  128SOL     OW 2961   0.865   0.348   0.195
  128SOL    HW1 2962   0.924   0.411   0.146
  128SOL    HW2 2963   0.884   0.254   0.166
  129SOL     OW 2964   1.362   1.144   0.545
  129SOL    HW1 2965   1.445   1.115   0.497
  129SOL    HW2 2966   1.313   1.211   0.489
  130SOL     OW 2967   0.550   0.196   0.885
  130SOL    HW1 2968   0.545   0.191   0.985
  130SOL    HW2 2969   0.552   0.292   0.856
  131SOL     OW 2970   1.008   1.456   0.477
  131SOL    HW1 2971   0.962   1.528   0.425
  131SOL    HW2 2972   1.004   1.476   0.575
  132SOL     OW 2973   1.795   1.066   0.873
  132SOL    HW1 2974   1.733   1.051   0.797
  132SOL    HW2 2975   1.743   1.077   0.958
  133SOL     OW 2976   1.227   1.550   1.506
  133SOL    HW1 2977   1.233   1.473   1.570
  133SOL    HW2 2978   1.175   1.524   1.426
  134SOL     OW 2979   0.321   0.943   0.242
  134SOL    HW1 2980   0.403   0.982   0.200
  134SOL    HW2 2981   0.294   0.861   0.193
  135SOL     OW 2982   1.458   0.735   0.728
  135SOL    HW1 2983   1.453   0.670   0.803
  135SOL    HW2 2984   1.538   0.794   0.741
  136SOL     OW 2985   0.461   1.266   1.727
  136SOL    HW1 2986   0.411   1.267   1.641
  136SOL    HW2 2987   0.398   1.248   1.803
  137SOL     OW 2988   1.111   1.776   0.237
  137SOL    HW1 2989   1.051   1.714   0.287
  137SOL    HW2 2990   1.142   1.732   0.152
  138SOL     OW 2991   0.202   0.285   1.498
  138SOL    HW1 2992   0.122   0.345   1.485
  138SOL    HW2 2993   0.192   0.236   1.584
  139SOL     OW 2994   0.464   1.743   0.323
  139SOL    HW1 2995   0.497   1.782   0.409
  139SOL    HW2 2996   0.540   1.736   0.258
  140SOL     OW 2997   0.249   1.785   1.241
  140SOL    HW1 2998   0.306   1.720   1.291
  140SOL    HW2 2999   0.233   1.752   1.148
  141SOL     OW 3000   0.940   1.698   0.904
  141SOL    HW1 3001   1.020   1.641   0.925
  141SOL    HW2 3002   0.891   1.658   0.827
  142SOL     OW 3003   0.382   0.700   0.480
  142SOL    HW1 3004   0.427   0.610   0.477
  142SOL    HW2 3005   0.288   0.689   0.513
  143SOL     OW 3006   1.547   0.222   1.729
  143SOL    HW1 3007   1.542   0.259   1.821
  143SOL    HW2 3008   1.475   0.153   1.717
  144SOL     OW 3009   0.781   0.264   1.749
  144SOL    HW1 3010   0.848   0.203   1.792
  144SOL    HW2 3011   0.708   0.283   1.814
  145SOL     OW 3012   0.888   1.514   1.195
  145SOL    HW1 3013   0.865   1.489   1.101
  145SOL    HW2 3014   0.949   1.445   1.234
  146SOL     OW 3015   0.922   0.503   0.899
  146SOL    HW1 3016   0.897   0.494   0.803
  146SOL    HW2 3017   0.970   0.421   0.930
  147SOL     OW 3018   0.539   0.064   0.512
  147SOL    HW1 3019   0.458   0.065   0.570
  147SOL    HW2 3020   0.542   0.147   0.457
  148SOL     OW 3021   1.434   1.188   0.041
  148SOL    HW1 3022   1.466   1.112   0.098
  148SOL    HW2 3023   1.342   1.215   0.071
  149SOL     OW 3024   0.297   0.035   0.171
  149SOL    HW1 3025   0.346   0.119   0.150
  149SOL    HW2 3026   0.359  -0.030   0.216
  150SOL     OW 3027   1.076   0.683   1.464
  150SOL    HW1 3028   0.996   0.622   1.467
  150SOL    HW2 3029   1.157   0.630   1.440
  151SOL     OW 3030   1.227   1.570   0.793
  151SOL    HW1 3031   1.248   1.644   0.728
  151SOL    HW2 3032   1.295   1.570   0.866
  152SOL     OW 3033   0.459   1.152   0.741
  152SOL    HW1 3034   0.388   1.125   0.806
  152SOL    HW2 3035   0.433   1.124   0.648
  153SOL     OW 3036   1.271   1.797   0.591
  153SOL    HW1 3037   1.315   1.861   0.527
  153SOL    HW2 3038   1.221   1.849   0.661
  154SOL     OW 3039   1.032   0.549   0.016
  154SOL    HW1 3040   0.991   0.631  -0.023
  154SOL    HW2 3041   1.096   0.575   0.089
  155SOL     OW 3042   0.078   0.556   1.386
  155SOL    HW1 3043   0.170   0.555   1.345
  155SOL    HW2 3044   0.072   0.630   1.453
  156SOL     OW 3045   0.561   0.222   1.147
  156SOL    HW1 3046   0.599   0.138   1.184
  156SOL    HW2 3047   0.473   0.241   1.191
  157SOL     OW 3048   0.866   0.454   0.642
  157SOL    HW1 3049   0.834   0.526   0.580
  157SOL    HW2 3050   0.890   0.373   0.589
  158SOL     OW 3051   1.017   0.039   0.753
  158SOL    HW1 3052   0.945   0.044   0.684
  158SOL    HW2 3053   0.993  -0.030   0.822
  159SOL     OW 3054   1.857   0.833   0.377
  159SOL    HW1 3055   1.899   0.769   0.441
  159SOL    HW2 3056   1.819   0.782   0.299
  160SOL     OW 3057   0.488   1.385   0.174
  160SOL    HW1 3058   0.401   1.370   0.221
  160SOL    HW2 3059   0.471   1.411   0.079
  161SOL     OW 3060   1.390   0.575   0.078
  161SOL    HW1 3061   1.336   0.554   0.159
  161SOL    HW2 3062   1.481   0.534   0.087
  162SOL     OW 3063   0.527   0.256   0.328
  162SOL    HW1 3064   0.554   0.197   0.253
  162SOL    HW2 3065   0.527   0.351   0.297
  163SOL     OW 3066   1.754   1.223   1.588
  163SOL    HW1 3067   1.845   1.184   1.575
  163SOL    HW2 3068   1.762   1.319   1.612
  164SOL     OW 3069   1.592   1.629   1.625
  164SOL    HW1 3070   1.619   1.663   1.535
  164SOL    HW2 3071   1.671   1.591   1.671
  165SOL     OW 3072   0.915   0.089   1.402
  165SOL    HW1 3073   0.940   0.069   1.307
  165SOL    HW2 3074   0.987   0.145   1.444
  166SOL     OW 3075   0.980   1.116   1.719
  166SOL    HW1 3076   0.881   1.122   1.729
  166SOL    HW2 3077   1.003   1.036   1.663
  167SOL     OW 3078   0.705   1.050   0.368
  167SOL    HW1 3079   0.691   1.057   0.467
  167SOL    HW2 3080   0.789   0.999   0.350
  168SOL     OW 3081   0.410   0.813   1.251
  168SOL    HW1 3082   0.496   0.825   1.301
  168SOL    HW2 3083   0.368   0.726   1.278
  169SOL     OW 3084   1.274   0.386   1.262
  169SOL    HW1 3085   1.295   0.460   1.326
  169SOL    HW2 3086   1.185   0.403   1.219
  170SOL     OW 3087   0.064   1.564   1.331
  170SOL    HW1 3088   0.018   1.646   1.297
  170SOL    HW2 3089   0.162   1.583   1.340
  171SOL     OW 3090   0.367   1.100   0.501
  171SOL    HW1 3091   0.360   1.183   0.445
  171SOL    HW2 3092   0.371   1.020   0.441
  172SOL     OW 3093   0.566   0.537   0.865
  172SOL    HW1 3094   0.578   0.603   0.791
  172SOL    HW2 3095   0.612   0.571   0.948
  173SOL     OW 3096   1.252   1.348   0.388
  173SOL    HW1 3097   1.302   1.425   0.428
  173SOL    HW2 3098   1.157   1.350   0.420
  174SOL     OW 3099   1.272   1.445   1.142
  174SOL    HW1 3100   1.319   1.458   1.229
  174SOL    HW2 3101   1.206   1.371   1.151
  175SOL     OW 3102   1.582   0.639   0.472
  175SOL    HW1 3103   1.551   0.700   0.545
  175SOL    HW2 3104   1.632   0.691   0.403
  176SOL     OW 3105   0.354   1.510   1.329
  176SOL    HW1 3106   0.333   1.466   1.242
  176SOL    HW2 3107   0.451   1.536   1.332
  177SOL     OW 3108   0.402   0.751   1.598
  177SOL    HW1 3109   0.470   0.806   1.551
  177SOL    HW2 3110   0.442   0.663   1.625
  178SOL     OW 3111   1.013   0.105   1.770
  178SOL    HW1 3112   1.019   0.190   1.718
  178SOL    HW2 3113   1.045   0.029   1.713
  179SOL     OW 3114   0.573   0.870   1.029
  179SOL    HW1 3115   0.617   0.959   1.020
  179SOL    HW2 3116   0.510   0.870   1.106
  180SOL     OW 3117   1.209   0.525   0.275
  180SOL    HW1 3118   1.222   0.441   0.329
  180SOL    HW2 3119   1.180   0.599   0.335
  181SOL     OW 3120   0.037   1.310   1.282
  181SOL    HW1 3121   0.090   1.261   1.350
  181SOL    HW2 3122   0.059   1.408   1.287
  182SOL     OW 3123   0.732   0.634   1.064
  182SOL    HW1 3124   0.791   0.608   0.988
  182SOL    HW2 3125   0.704   0.730   1.053
  183SOL     OW 3126   1.728   0.935   1.854
  183SOL    HW1 3127   1.682   0.928   1.765
  183SOL    HW2 3128   1.666   0.979   1.920
  184SOL     OW 3129   0.307   0.063   0.618
  184SOL    HW1 3130   0.296   0.157   0.651
  184SOL    HW2 3131   0.302   0.000   0.695
  185SOL     OW 3132   0.980   1.573   1.700
  185SOL    HW1 3133   0.960   1.617   1.612
  185SOL    HW2 3134   1.019   1.482   1.684
  186SOL     OW 3135   1.859   1.518   1.605
  186SOL    HW1 3136   1.873   1.545   1.510
  186SOL    HW2 3137   1.942   1.540   1.658
  187SOL     OW 3138   0.350   0.898   1.804
  187SOL    HW1 3139   0.426   0.942   1.852
  187SOL    HW2 3140   0.385   0.851   1.722
  188SOL     OW 3141   1.303   0.838   0.042
  188SOL    HW1 3142   1.337   0.745   0.057
  188SOL    HW2 3143   1.321   0.865  -0.053
  189SOL     OW 3144   1.068   1.333   0.849
  189SOL    HW1 3145   1.075   1.249   0.794
  189SOL    HW2 3146   1.130   1.402   0.813
  190SOL     OW 3147   0.319   0.810   0.949
  190SOL    HW1 3148   0.412   0.846   0.954
  190SOL    HW2 3149   0.313   0.725   1.001
  191SOL     OW 3150   0.339   0.509   1.006
  191SOL    HW1 3151   0.287   0.426   0.989
  191SOL    HW2 3152   0.416   0.514   0.942
  192SOL     OW 3153   1.138   0.380   1.678
  192SOL    HW1 3154   1.093   0.443   1.742
  192SOL    HW2 3155   1.231   0.411   1.661
  193SOL     OW 3156   1.160   0.207   1.477
  193SOL    HW1 3157   1.160   0.271   1.554
  193SOL    HW2 3158   1.188   0.255   1.394
  194SOL     OW 3159   0.008   1.326   0.200
  194SOL    HW1 3160  -0.085   1.347   0.169
  194SOL    HW2 3161   0.018   1.227   0.213
  195SOL     OW 3162   0.504   1.568   0.910
  195SOL    HW1 3163   0.570   1.642   0.919
  195SOL    HW2 3164   0.548   1.489   0.868
  196SOL     OW 3165   0.040   0.544   1.114
  196SOL    HW1 3166   0.125   0.511   1.073
  196SOL    HW2 3167   0.053   0.559   1.212
  197SOL     OW 3168   0.189   0.520   1.722
  197SOL    HW1 3169   0.248   0.480   1.652
  197SOL    HW2 3170   0.131   0.591   1.681
  198SOL     OW 3171   1.369   0.950   1.660
  198SOL    HW1 3172   1.408   1.039   1.680
  198SOL    HW2 3173   1.379   0.930   1.563
  199SOL     OW 3174   0.815   0.572   0.325
  199SOL    HW1 3175   0.822   0.483   0.279
  199SOL    HW2 3176   0.721   0.606   0.317
  200SOL     OW 3177   0.252   1.564   1.744
  200SOL    HW1 3178   0.222   1.621   1.820
  200SOL    HW2 3179   0.245   1.467   1.770
  201SOL     OW 3180   0.671   0.464   1.269
  201SOL    HW1 3181   0.637   0.375   1.239
  201SOL    HW2 3182   0.697   0.518   1.189
  202SOL     OW 3183   0.930   1.678   1.465
  202SOL    HW1 3184   0.906   1.660   1.370
  202SOL    HW2 3185   0.960   1.772   1.475
  203SOL     OW 3186   0.473   0.500   0.191
  203SOL    HW1 3187   0.534   0.580   0.195
  203SOL    HW2 3188   0.378   0.531   0.198
  204SOL     OW 3189   0.159   1.137   1.466
  204SOL    HW1 3190   0.181   1.076   1.542
  204SOL    HW2 3191   0.169   1.088   1.380
  205SOL     OW 3192   1.302   0.855   0.309
  205SOL    HW1 3193   1.216   0.824   0.351
  205SOL    HW2 3194   1.298   0.841   0.210
  206SOL     OW 3195   1.759   1.747   1.154
  206SOL    HW1 3196   1.820   1.777   1.081
  206SOL    HW2 3197   1.721   1.658   1.132
  207SOL     OW 3198   0.083   1.258   1.022
  207SOL    HW1 3199   0.078   1.257   1.122
  207SOL    HW2 3200   0.000   1.217   0.984
  208SOL     OW 3201   0.688   1.662   1.716
  208SOL    HW1 3202   0.632   1.743   1.725
  208SOL    HW2 3203   0.740   1.666   1.630
  209SOL     OW 3204   0.903   0.086   0.133
  209SOL    HW1 3205   0.954   0.087   0.047
  209SOL    HW2 3206   0.959   0.044   0.204
  210SOL     OW 3207   1.388   1.573   0.477
  210SOL    HW1 3208   1.455   1.585   0.403
  210SOL    HW2 3209   1.348   1.662   0.500
  211SOL     OW 3210   1.280   0.927   0.672
  211SOL    HW1 3211   1.340   0.846   0.674
  211SOL    HW2 3212   1.320   0.996   0.612
  212SOL     OW 3213   0.830   1.273   1.422
  212SOL    HW1 3214   0.825   1.306   1.517
  212SOL    HW2 3215   0.744   1.292   1.376
  213SOL     OW 3216   0.672   1.616   0.154
  213SOL    HW1 3217   0.681   1.626   0.055
  213SOL    HW2 3218   0.632   1.527   0.175
  214SOL     OW 3219   1.650   1.720   1.394
  214SOL    HW1 3220   1.703   1.730   1.310
  214SOL    HW2 3221   1.623   1.810   1.428
  215SOL     OW 3222   1.841   0.175   0.963
  215SOL    HW1 3223   1.880   0.090   0.927
  215SOL    HW2 3224   1.743   0.177   0.944
  216SOL     OW 3225   0.263   0.326   0.720
  216SOL    HW1 3226   0.184   0.377   0.686
  216SOL    HW2 3227   0.254   0.311   0.818
  217SOL     OW 3228   1.194   1.612   0.031
  217SOL    HW1 3229   1.200   1.519   0.068
  217SOL    HW2 3230   1.135   1.612  -0.049
  218SOL     OW 3231   0.822   1.002   1.372
  218SOL    HW1 3232   0.862   1.001   1.280
  218SOL    HW2 3233   0.832   1.094   1.412
  219SOL     OW 3234   0.916   0.910   0.291
  219SOL    HW1 3235   0.979   0.948   0.223
  219SOL    HW2 3236   0.956   0.827   0.330
  220SOL     OW 3237   1.504   1.607   0.044
  220SOL    HW1 3238   1.412   1.644   0.051
  220SOL    HW2 3239   1.542   1.627  -0.046
  221SOL     OW 3240   0.372   1.288   1.490
  221SOL    HW1 3241   0.359   1.381   1.456
  221SOL    HW2 3242   0.288   1.236   1.477
  222SOL     OW 3243   1.614   1.292   1.289
  222SOL    HW1 3244   1.674   1.295   1.369
  222SOL    HW2 3245   1.539   1.356   1.302
  223SOL     OW 3246   0.590   1.487   0.491
  223SOL    HW1 3247   0.632   1.429   0.421
  223SOL    HW2 3248   0.546   1.566   0.447
  224SOL     OW 3249   0.255   1.348   0.290
  224SOL    HW1 3250   0.159   1.349   0.263
  224SOL    HW2 3251   0.267   1.401   0.374
  225SOL     OW 3252   0.105   1.013   1.726
  225SOL    HW1 3253   0.028   0.980   1.780
  225SOL    HW2 3254   0.190   0.983   1.768
  226SOL     OW 3255   0.672   0.203   1.489
  226SOL    HW1 3256   0.762   0.187   1.449
  226SOL    HW2 3257   0.680   0.208   1.588
  227SOL     OW 3258   0.075   0.345   0.033
  227SOL    HW1 3259  -0.017   0.317   0.004
  227SOL    HW2 3260   0.106   0.422  -0.023
  228SOL     OW 3261   1.440   0.856   1.398
  228SOL    HW1 3262   1.383   0.908   1.335
  228SOL    HW2 3263   1.536   0.868   1.374
  229SOL     OW 3264   1.183   1.335   0.119
  229SOL    HW1 3265   1.084   1.324   0.121
  229SOL    HW2 3266   1.217   1.350   0.212
  230SOL     OW 3267   0.613   0.842   1.431
  230SOL    HW1 3268   0.669   0.923   1.414
  230SOL    HW2 3269   0.672   0.762   1.434
  231SOL     OW 3270   1.493   1.767   0.959
  231SOL    HW1 3271   1.526   1.831   0.890
  231SOL    HW2 3272   1.559   1.761   1.034
  232SOL     OW 3273   1.450   1.220   1.633
  232SOL    HW1 3274   1.441   1.210   1.732
  232SOL    HW2 3275   1.546   1.213   1.607
  233SOL     OW 3276   1.674   0.883   1.254
  233SOL    HW1 3277   1.647   0.794   1.217
  233SOL    HW2 3278   1.675   0.951   1.181
  234SOL     OW 3279   0.594   0.745   0.652
  234SOL    HW1 3280   0.644   0.830   0.633
  234SOL    HW2 3281   0.506   0.747   0.604
  235SOL     OW 3282   1.777   0.342   1.642
  235SOL    HW1 3283   1.760   0.373   1.548
  235SOL    HW2 3284   1.693   0.305   1.680
  236SOL     OW 3285   1.730   0.934   1.517
  236SOL    HW1 3286   1.768   1.025   1.532
  236SOL    HW2 3287   1.722   0.917   1.418
  237SOL     OW 3288   0.859   1.374   0.016
  237SOL    HW1 3289   0.813   1.389   0.104
  237SOL    HW2 3290   0.903   1.459  -0.014
  238SOL     OW 3291   1.083   0.984   0.087
  238SOL    HW1 3292   1.060   1.037   0.005
  238SOL    HW2 3293   1.164   0.928   0.068
  239SOL     OW 3294   0.221   1.314   1.844
  239SOL    HW1 3295   0.156   1.241   1.823
  239SOL    HW2 3296   0.225   1.328   1.942
  240SOL     OW 3297   0.079   1.240   0.653
  240SOL    HW1 3298   0.078   1.193   0.741
  240SOL    HW2 3299   0.161   1.212   0.602
  241SOL     OW 3300   0.672   1.391   1.624
  241SOL    HW1 3301   0.594   1.341   1.662
  241SOL    HW2 3302   0.669   1.486   1.655
  242SOL     OW 3303   1.824   0.192   1.227
  242SOL    HW1 3304   1.820   0.102   1.271
  242SOL    HW2 3305   1.827   0.181   1.128
  243SOL     OW 3306   0.428   0.424   0.520
  243SOL    HW1 3307   0.458   0.352   0.458
  243SOL    HW2 3308   0.389   0.384   0.603
  244SOL     OW 3309   1.705   1.487   1.104
  244SOL    HW1 3310   1.612   1.462   1.077
  244SOL    HW2 3311   1.731   1.437   1.186
  245SOL     OW 3312   0.812   1.586   0.687
  245SOL    HW1 3313   0.844   1.596   0.593
  245SOL    HW2 3314   0.733   1.524   0.689
  246SOL     OW 3315   1.424   0.214   1.112
  246SOL    HW1 3316   1.476   0.149   1.167
  246SOL    HW2 3317   1.375   0.277   1.173
  247SOL     OW 3318   0.770   1.330   0.301
  247SOL    HW1 3319   0.724   1.243   0.318
  247SOL    HW2 3320   0.861   1.327   0.342
  248SOL     OW 3321   0.618   1.567   1.284
  248SOL    HW1 3322   0.613   1.649   1.341
  248SOL    HW2 3323   0.707   1.564   1.239
  249SOL     OW 3324   1.352   0.052   0.168
  249SOL    HW1 3325   1.387   0.011   0.084
  249SOL    HW2 3326   1.262   0.014   0.188
  250SOL     OW 3327   1.593   0.221   0.882
  250SOL    HW1 3328   1.509   0.220   0.936
  250SOL    HW2 3329   1.595   0.304   0.826
  251SOL     OW 3330   0.039   1.077   0.300
  251SOL    HW1 3331   0.138   1.066   0.291
  251SOL    HW2 3332  -0.001   0.991   0.332
  252SOL     OW 3333   0.875   1.646   0.337
  252SOL    HW1 3334   0.798   1.611   0.283
  252SOL    HW2 3335   0.843   1.717   0.399
  253SOL     OW 3336   0.230   0.628   1.975
  253SOL    HW1 3337   0.137   0.626   2.012
  253SOL    HW2 3338   0.231   0.589   1.883
  254SOL     OW 3339   0.225   0.275   2.858
  254SOL    HW1 3340   0.260   0.258   2.950
  254SOL    HW2 3341   0.137   0.230   2.846
  255SOL     OW 3342   0.019   0.368   2.509
  255SOL    HW1 3343  -0.063   0.411   2.548
  255SOL    HW2 3344  -0.009   0.295   2.446
  256SOL     OW 3345   0.569   1.275   3.027
  256SOL    HW1 3346   0.476   1.268   2.990
  256SOL    HW2 3347   0.580   1.364   3.071
  257SOL     OW 3348   1.555   1.511   2.565
  257SOL    HW1 3349   1.498   1.495   2.646
  257SOL    HW2 3350   1.496   1.521   2.485
  258SOL     OW 3351   1.755   0.607   2.093
  258SOL    HW1 3352   1.743   0.594   1.994
  258SOL    HW2 3353   1.725   0.526   2.142
  259SOL     OW 3354   0.768   1.144   2.885
  259SOL    HW1 3355   0.690   1.161   2.945
  259SOL    HW2 3356   0.802   1.231   2.849
  260SOL     OW 3357   0.850   0.798   3.685
  260SOL    HW1 3358   0.846   0.874   3.750
  260SOL    HW2 3359   0.872   0.834   3.594
  261SOL     OW 3360   0.685   1.012   2.527
  261SOL    HW1 3361   0.754   0.996   2.597
  261SOL    HW2 3362   0.612   1.069   2.565
  262SOL     OW 3363   0.686   1.161   3.665
  262SOL    HW1 3364   0.746   1.240   3.679
  262SOL    HW2 3365   0.600   1.192   3.624
  263SOL     OW 3366   0.335   1.435   2.923
  263SOL    HW1 3367   0.257   1.404   2.870
  263SOL    HW2 3368   0.393   1.493   2.866
  264SOL     OW 3369   1.460   1.505   3.201
  264SOL    HW1 3370   1.484   1.599   3.227
  264SOL    HW2 3371   1.444   1.451   3.283
  265SOL     OW 3372   0.438   0.392   3.361
  265SOL    HW1 3373   0.520   0.336   3.370
  265SOL    HW2 3374   0.357   0.334   3.365
  266SOL     OW 3375   0.231   1.713   2.345
  266SOL    HW1 3376   0.265   1.790   2.399
  266SOL    HW2 3377   0.275   1.713   2.255
  267SOL     OW 3378   1.127   1.341   3.552
  267SOL    HW1 3379   1.174   1.341   3.640
  267SOL    HW2 3380   1.079   1.254   3.541
  268SOL     OW 3381   0.230   1.434   2.400
  268SOL    HW1 3382   0.204   1.530   2.400
  268SOL    HW2 3383   0.159   1.380   2.445
  269SOL     OW 3384   0.240   1.091   2.748
  269SOL    HW1 3385   0.254   1.007   2.800
  269SOL    HW2 3386   0.185   1.155   2.803
  270SOL     OW 3387   0.620   1.786   3.301
  270SOL    HW1 3388   0.528   1.769   3.336
  270SOL    HW2 3389   0.648   1.878   3.327
  271SOL     OW 3390   0.606   0.964   1.985
  271SOL    HW1 3391   0.613   1.048   1.931
  271SOL    HW2 3392   0.652   0.977   2.073
  272SOL     OW 3393   1.594   0.114   3.342
  272SOL    HW1 3394   1.576   0.181   3.270
  272SOL    HW2 3395   1.591   0.160   3.431
  273SOL     OW 3396   0.122   0.643   2.425
  273SOL    HW1 3397   0.077   0.555   2.442
  273SOL    HW2 3398   0.121   0.697   2.509
  274SOL     OW 3399   0.027   1.596   1.979
  274SOL    HW1 3400   0.008   1.500   2.000
  274SOL    HW2 3401  -0.006   1.654   2.054
  275SOL     OW 3402   1.689   0.922   2.474
  275SOL    HW1 3403   1.784   0.893   2.482
  275SOL    HW2 3404   1.681   0.987   2.399
  276SOL     OW 3405   1.641   1.108   2.294
  276SOL    HW1 3406   1.727   1.110   2.242
  276SOL    HW2 3407   1.655   1.155   2.382
  277SOL     OW 3408   0.113   0.737   3.459
  277SOL    HW1 3409   0.201   0.724   3.504
  277SOL    HW2 3410   0.100   0.834   3.437
  278SOL     OW 3411   0.613   1.365   2.588
  278SOL    HW1 3412   0.564   1.278   2.597
  278SOL    HW2 3413   0.590   1.408   2.501
  279SOL     OW 3414   1.293   1.228   3.285
  279SOL    HW1 3415   1.330   1.155   3.227
  279SOL    HW2 3416   1.345   1.233   3.370
  280SOL     OW 3417   0.197   0.976   3.126
  280SOL    HW1 3418   0.286   0.931   3.112
  280SOL    HW2 3419   0.124   0.911   3.107
  281SOL     OW 3420   1.525   0.999   2.052
  281SOL    HW1 3421   1.462   0.923   2.065
  281SOL    HW2 3422   1.573   1.017   2.138
  282SOL     OW 3423   0.317   0.251   3.663
  282SOL    HW1 3424   0.388   0.322   3.669
  282SOL    HW2 3425   0.229   0.290   3.691
  283SOL     OW 3426   1.466   1.417   2.815
  283SOL    HW1 3427   1.407   1.423   2.895
  283SOL    HW2 3428   1.451   1.329   2.769
  284SOL     OW 3429   1.667   1.714   2.434
  284SOL    HW1 3430   1.626   1.691   2.346
  284SOL    HW2 3431   1.649   1.640   2.499
  285SOL     OW 3432   0.807   0.605   3.327
  285SOL    HW1 3433   0.760   0.602   3.416
  285SOL    HW2 3434   0.756   0.550   3.261
  286SOL     OW 3435   1.394   0.469   3.536
  286SOL    HW1 3436   1.374   0.512   3.624
  286SOL    HW2 3437   1.472   0.407   3.545
  287SOL     OW 3438   0.973   0.890   3.434
  287SOL    HW1 3439   1.019   0.806   3.405
  287SOL    HW2 3440   0.917   0.924   3.359
  288SOL     OW 3441   0.991   0.410   3.104
  288SOL    HW1 3442   0.914   0.444   3.158
  288SOL    HW2 3443   0.957   0.359   3.025
  289SOL     OW 3444   0.076   0.811   2.651
  289SOL    HW1 3445   0.175   0.799   2.660
  289SOL    HW2 3446   0.052   0.906   2.672
  290SOL     OW 3447   0.130   1.821   3.433
  290SOL    HW1 3448   0.120   1.806   3.532
  290SOL    HW2 3449   0.044   1.857   3.397
  291SOL     OW 3450   0.865   0.348   2.057
  291SOL    HW1 3451   0.924   0.411   2.008
  291SOL    HW2 3452   0.884   0.254   2.028
  292SOL     OW 3453   1.362   1.144   2.407
  292SOL    HW1 3454   1.445   1.115   2.359
  292SOL    HW2 3455   1.313   1.211   2.351
  293SOL     OW 3456   0.550   0.196   2.747
  293SOL    HW1 3457   0.545   0.191   2.847
  293SOL    HW2 3458   0.552   0.292   2.718
  294SOL     OW 3459   1.008   1.456   2.339
  294SOL    HW1 3460   0.962   1.528   2.287
  294SOL    HW2 3461   1.004   1.476   2.437
  295SOL     OW 3462   1.795   1.066   2.735
  295SOL    HW1 3463   1.733   1.051   2.659
  295SOL    HW2 3464   1.743   1.077   2.820
  296SOL     OW 3465   1.227   1.550   3.368
  296SOL    HW1 3466   1.233   1.473   3.432
  296SOL    HW2 3467   1.175   1.524   3.288
  297SOL     OW 3468   0.321   0.943   2.104
  297SOL    HW1 3469   0.403   0.982   2.062
  297SOL    HW2 3470   0.294   0.861   2.055
  298SOL     OW 3471   0.461   1.266   3.589
  298SOL    HW1 3472   0.411   1.267   3.503
  298SOL    HW2 3473   0.398   1.248   3.665
  299SOL     OW 3474   1.111   1.776   2.099
  299SOL    HW1 3475   1.051   1.714   2.149
  299SOL    HW2 3476   1.142   1.732   2.014
  300SOL     OW 3477   0.202   0.285   3.360
  300SOL    HW1 3478   0.122   0.345   3.347
  300SOL    HW2 3479   0.192   0.236   3.446
  301SOL     OW 3480   1.632   1.377   1.943
  301SOL    HW1 3481   1.600   1.471   1.933
  301SOL    HW2 3482   1.556   1.314   1.931
  302SOL     OW 3483   0.249   1.785   3.103
  302SOL    HW1 3484   0.306   1.720   3.153
  302SOL    HW2 3485   0.233   1.752   3.010
  303SOL     OW 3486   0.382   0.700   2.342
  303SOL    HW1 3487   0.427   0.610   2.339
  303SOL    HW2 3488   0.288   0.689   2.375
  304SOL     OW 3489   1.547   0.222   3.591
  304SOL    HW1 3490   1.542   0.259   3.683
  304SOL    HW2 3491   1.475   0.153   3.579
  305SOL     OW 3492   0.888   1.514   3.057
  305SOL    HW1 3493   0.865   1.489   2.963
  305SOL    HW2 3494   0.949   1.445   3.096
  306SOL     OW 3495   1.351   0.590   3.295
  306SOL    HW1 3496   1.379   0.547   3.380
  306SOL    HW2 3497   1.376   0.686   3.296
  307SOL     OW 3498   0.803   1.402   2.786
  307SOL    HW1 3499   0.893   1.416   2.744
  307SOL    HW2 3500   0.732   1.404   2.715
  308SOL     OW 3501   0.922   0.503   2.761
  308SOL    HW1 3502   0.897   0.494   2.665
  308SOL    HW2 3503   0.970   0.421   2.792
  309SOL     OW 3504   0.539   0.064   2.374
  309SOL    HW1 3505   0.458   0.065   2.432
  309SOL    HW2 3506   0.542   0.147   2.319
  310SOL     OW 3507   1.434   1.188   1.903
  310SOL    HW1 3508   1.466   1.112   1.960
  310SOL    HW2 3509   1.342   1.215   1.933
  311SOL     OW 3510   1.227   1.570   2.655
  311SOL    HW1 3511   1.248   1.644   2.590
  311SOL    HW2 3512   1.295   1.570   2.728
  312SOL     OW 3513   0.459   1.152   2.603
  312SOL    HW1 3514   0.388   1.125   2.668
  312SOL    HW2 3515   0.433   1.124   2.510
  313SOL     OW 3516   1.271   1.797   2.453
  313SOL    HW1 3517   1.315   1.861   2.389
  313SOL    HW2 3518   1.221   1.849   2.523
  314SOL     OW 3519   1.032   0.549   1.878
  314SOL    HW1 3520   0.991   0.631   1.839
  314SOL    HW2 3521   1.096   0.575   1.951
  315SOL     OW 3522   0.078   0.556   3.248
  315SOL    HW1 3523   0.170   0.555   3.207
  315SOL    HW2 3524   0.072   0.630   3.315
  316SOL     OW 3525   0.561   0.222   3.009
  316SOL    HW1 3526   0.599   0.138   3.046
  316SOL    HW2 3527   0.473   0.241   3.053
  317SOL     OW 3528   0.866   0.454   2.504
  317SOL    HW1 3529   0.834   0.526   2.442
  317SOL    HW2 3530   0.890   0.373   2.451
  318SOL     OW 3531   1.429   1.173   2.729
  318SOL    HW1 3532   1.374   1.089   2.722
  318SOL    HW2 3533   1.455   1.202   2.637
  319SOL     OW 3534   1.466   0.590   2.854
  319SOL    HW1 3535   1.436   0.495   2.861
  319SOL    HW2 3536   1.539   0.606   2.920
  320SOL     OW 3537   1.857   0.833   2.239
  320SOL    HW1 3538   1.899   0.769   2.303
  320SOL    HW2 3539   1.819   0.782   2.161
  321SOL     OW 3540   0.488   1.385   2.036
  321SOL    HW1 3541   0.401   1.370   2.083
  321SOL    HW2 3542   0.471   1.411   1.941
  322SOL     OW 3543   1.664   1.280   2.519
  322SOL    HW1 3544   1.763   1.288   2.533
  322SOL    HW2 3545   1.619   1.364   2.550
  323SOL     OW 3546   1.390   0.575   1.940
  323SOL    HW1 3547   1.336   0.554   2.021
  323SOL    HW2 3548   1.481   0.534   1.949
  324SOL     OW 3549   1.754   1.223   3.450
  324SOL    HW1 3550   1.845   1.184   3.437
  324SOL    HW2 3551   1.762   1.319   3.474
  325SOL     OW 3552   1.064   1.347   3.202
  325SOL    HW1 3553   0.984   1.324   3.257
  325SOL    HW2 3554   1.147   1.321   3.251
  326SOL     OW 3555   1.592   1.629   3.487
  326SOL    HW1 3556   1.619   1.663   3.397
  326SOL    HW2 3557   1.671   1.591   3.533
  327SOL     OW 3558   1.111   1.195   2.962
  327SOL    HW1 3559   1.071   1.239   3.043
  327SOL    HW2 3560   1.070   1.232   2.879
  328SOL     OW 3561   1.638   1.099   2.941
  328SOL    HW1 3562   1.643   1.180   3.000
  328SOL    HW2 3563   1.552   1.101   2.890
  329SOL     OW 3564   0.915   0.089   3.264
  329SOL    HW1 3565   0.940   0.069   3.169
  329SOL    HW2 3566   0.987   0.145   3.306
  330SOL     OW 3567   0.980   1.116   3.581
  330SOL    HW1 3568   0.881   1.122   3.591
  330SOL    HW2 3569   1.003   1.036   3.525
  331SOL     OW 3570   0.705   1.050   2.230
  331SOL    HW1 3571   0.691   1.057   2.329
  331SOL    HW2 3572   0.789   0.999   2.212
  332SOL     OW 3573   0.410   0.813   3.113
  332SOL    HW1 3574   0.496   0.825   3.163
  332SOL    HW2 3575   0.368   0.726   3.140
  333SOL     OW 3576   0.064   1.564   3.193
  333SOL    HW1 3577   0.018   1.646   3.159
  333SOL    HW2 3578   0.162   1.583   3.202
  334SOL     OW 3579   0.367   1.100   2.363
  334SOL    HW1 3580   0.360   1.183   2.307
  334SOL    HW2 3581   0.371   1.020   2.303
  335SOL     OW 3582   0.566   0.537   2.727
  335SOL    HW1 3583   0.578   0.603   2.653
  335SOL    HW2 3584   0.612   0.571   2.810
  336SOL     OW 3585   1.252   1.348   2.250
  336SOL    HW1 3586   1.302   1.425   2.290
  336SOL    HW2 3587   1.157   1.350   2.282
  337SOL     OW 3588   1.582   0.639   2.334
  337SOL    HW1 3589   1.551   0.700   2.407
  337SOL    HW2 3590   1.632   0.691   2.265
  338SOL     OW 3591   0.354   1.510   3.191
  338SOL    HW1 3592   0.333   1.466   3.104
  338SOL    HW2 3593   0.451   1.536   3.194
  339SOL     OW 3594   0.402   0.751   3.460
  339SOL    HW1 3595   0.470   0.806   3.413
  339SOL    HW2 3596   0.442   0.663   3.487
  340SOL     OW 3597   1.013   0.105   3.632
  340SOL    HW1 3598   1.019   0.190   3.580
  340SOL    HW2 3599   1.045   0.029   3.575
  341SOL     OW 3600   0.573   0.870   2.891
  341SOL    HW1 3601   0.617   0.959   2.882
  341SOL    HW2 3602   0.510   0.870   2.968
  342SOL     OW 3603   0.307   0.213   3.093
  342SOL    HW1 3604   0.284   0.250   3.183
  342SOL    HW2 3605   0.277   0.118   3.087
  343SOL     OW 3606   0.037   1.310   3.144
  343SOL    HW1 3607   0.090   1.261   3.212
  343SOL    HW2 3608   0.059   1.408   3.149
  344SOL     OW 3609   0.732   0.634   2.926
  344SOL    HW1 3610   0.791   0.608   2.850
  344SOL    HW2 3611   0.704   0.730   2.915
  345SOL     OW 3612   1.728   0.935   3.716
  345SOL    HW1 3613   1.682   0.928   3.627
  345SOL    HW2 3614   1.666   0.979   3.782
  346SOL     OW 3615   1.622   0.367   2.236
  346SOL    HW1 3616   1.624   0.291   2.300
  346SOL    HW2 3617   1.574   0.444   2.276
  347SOL     OW 3618   0.980   1.573   3.562
  347SOL    HW1 3619   0.960   1.617   3.474
  347SOL    HW2 3620   1.019   1.482   3.546
  348SOL     OW 3621   0.350   0.898   3.666
  348SOL    HW1 3622   0.426   0.942   3.714
  348SOL    HW2 3623   0.385   0.851   3.584
  349SOL     OW 3624   1.540   0.274   1.987
  349SOL    HW1 3625   1.479   0.199   2.010
  349SOL    HW2 3626   1.562   0.326   2.070
  350SOL     OW 3627   1.303   0.838   1.904
  350SOL    HW1 3628   1.337   0.745   1.919
  350SOL    HW2 3629   1.321   0.865   1.809
  351SOL     OW 3630   1.068   1.333   2.711
  351SOL    HW1 3631   1.075   1.249   2.656
  351SOL    HW2 3632   1.130   1.402   2.675
  352SOL     OW 3633   0.319   0.810   2.811
  352SOL    HW1 3634   0.412   0.846   2.816
  352SOL    HW2 3635   0.313   0.725   2.863
  353SOL     OW 3636   0.339   0.509   2.868
  353SOL    HW1 3637   0.287   0.426   2.851
  353SOL    HW2 3638   0.416   0.514   2.804
  354SOL     OW 3639   1.138   0.380   3.540
  354SOL    HW1 3640   1.093   0.443   3.604
  354SOL    HW2 3641   1.231   0.411   3.523
  355SOL     OW 3642   1.160   0.207   3.339
  355SOL    HW1 3643   1.160   0.271   3.416
  355SOL    HW2 3644   1.188   0.255   3.256
  356SOL     OW 3645   0.008   1.326   2.062
  356SOL    HW1 3646  -0.085   1.347   2.031
  356SOL    HW2 3647   0.018   1.227   2.075
  357SOL     OW 3648   0.088   1.801   2.789
  357SOL    HW1 3649   0.046   1.715   2.762
  357SOL    HW2 3650   0.182   1.804   2.755
  358SOL     OW 3651   0.504   1.568   2.772
  358SOL    HW1 3652   0.570   1.642   2.781
  358SOL    HW2 3653   0.548   1.489   2.730
  359SOL     OW 3654   1.002   0.796   3.100
  359SOL    HW1 3655   1.043   0.764   3.186
  359SOL    HW2 3656   0.906   0.769   3.097
  360SOL     OW 3657   0.040   0.544   2.976
  360SOL    HW1 3658   0.125   0.511   2.935
  360SOL    HW2 3659   0.053   0.559   3.074
  361SOL     OW 3660   1.657   0.604   3.068
  361SOL    HW1 3661   1.619   0.535   3.130
  361SOL    HW2 3662   1.739   0.568   3.024
  362SOL     OW 3663   0.252   1.564   3.606
  362SOL    HW1 3664   0.222   1.621   3.682
  362SOL    HW2 3665   0.245   1.467   3.632
  363SOL     OW 3666   0.671   0.464   3.131
  363SOL    HW1 3667   0.637   0.375   3.101
  363SOL    HW2 3668   0.697   0.518   3.051
  364SOL     OW 3669   0.159   1.137   3.328
  364SOL    HW1 3670   0.181   1.076   3.404
  364SOL    HW2 3671   0.169   1.088   3.242
  365SOL     OW 3672   1.347   1.059   3.096
  365SOL    HW1 3673   1.371   0.996   3.022
  365SOL    HW2 3674   1.257   1.099   3.078
  366SOL     OW 3675   1.759   1.747   3.016
  366SOL    HW1 3676   1.820   1.777   2.943
  366SOL    HW2 3677   1.721   1.658   2.994
  367SOL     OW 3678   0.083   1.258   2.884
  367SOL    HW1 3679   0.078   1.257   2.984
  367SOL    HW2 3680   0.000   1.217   2.846
  368SOL     OW 3681   0.688   1.662   3.578
  368SOL    HW1 3682   0.632   1.743   3.587
  368SOL    HW2 3683   0.740   1.666   3.492
  369SOL     OW 3684   1.726   0.135   2.385
  369SOL    HW1 3685   1.799   0.118   2.318
  369SOL    HW2 3686   1.695   0.048   2.423
  370SOL     OW 3687   1.388   1.573   2.339
  370SOL    HW1 3688   1.455   1.585   2.265
  370SOL    HW2 3689   1.348   1.662   2.362
  371SOL     OW 3690   0.130   1.794   3.713
  371SOL    HW1 3691   0.089   1.720   3.766
  371SOL    HW2 3692   0.194   1.845   3.771
  372SOL     OW 3693   0.830   1.273   3.284
  372SOL    HW1 3694   0.825   1.306   3.379
  372SOL    HW2 3695   0.744   1.292   3.238
  373SOL     OW 3696   1.841   0.175   2.825
  373SOL    HW1 3697   1.880   0.090   2.789
  373SOL    HW2 3698   1.743   0.177   2.806
  374SOL     OW 3699   0.263   0.326   2.582
  374SOL    HW1 3700   0.184   0.377   2.548
  374SOL    HW2 3701   0.254   0.311   2.680
  375SOL     OW 3702   1.194   1.612   1.893
  375SOL    HW1 3703   1.200   1.519   1.930
  375SOL    HW2 3704   1.135   1.612   1.813
  376SOL     OW 3705   0.822   1.002   3.234
  376SOL    HW1 3706   0.862   1.001   3.142
  376SOL    HW2 3707   0.832   1.094   3.274
  377SOL     OW 3708   0.916   0.910   2.153
  377SOL    HW1 3709   0.979   0.948   2.085
  377SOL    HW2 3710   0.956   0.827   2.192
  378SOL     OW 3711   1.504   1.607   1.906
  378SOL    HW1 3712   1.412   1.644   1.913
  378SOL    HW2 3713   1.542   1.627   1.816
  379SOL     OW 3714   0.372   1.288   3.352
  379SOL    HW1 3715   0.359   1.381   3.318
  379SOL    HW2 3716   0.288   1.236   3.339
  380SOL     OW 3717   1.614   1.292   3.151
  380SOL    HW1 3718   1.674   1.295   3.231
  380SOL    HW2 3719   1.539   1.356   3.164
  381SOL     OW 3720   1.039   1.098   2.558
  381SOL    HW1 3721   0.969   1.051   2.612
  381SOL    HW2 3722   1.098   1.030   2.515
  382SOL     OW 3723   1.014   0.236   2.833
  382SOL    HW1 3724   1.006   0.200   2.740
  382SOL    HW2 3725   1.012   0.160   2.898
  383SOL     OW 3726   0.590   1.487   2.353
  383SOL    HW1 3727   0.632   1.429   2.283
  383SOL    HW2 3728   0.546   1.566   2.309
  384SOL     OW 3729   1.709   0.385   3.243
  384SOL    HW1 3730   1.782   0.454   3.247
  384SOL    HW2 3731   1.737   0.310   3.184
  385SOL     OW 3732   0.255   1.348   2.152
  385SOL    HW1 3733   0.159   1.349   2.125
  385SOL    HW2 3734   0.267   1.401   2.236
  386SOL     OW 3735   0.105   1.013   3.588
  386SOL    HW1 3736   0.028   0.980   3.642
  386SOL    HW2 3737   0.190   0.983   3.630
  387SOL     OW 3738   0.672   0.203   3.351
  387SOL    HW1 3739   0.762   0.187   3.311
  387SOL    HW2 3740   0.680   0.208   3.450
  388SOL     OW 3741   1.440   0.856   3.260
  388SOL    HW1 3742   1.383   0.908   3.197
  388SOL    HW2 3743   1.536   0.868   3.236
  389SOL     OW 3744   0.072   0.166   2.180
  389SOL    HW1 3745   0.055   0.249   2.126
  389SOL    HW2 3746   0.162   0.129   2.158
  390SOL     OW 3747   1.183   1.335   1.981
  390SOL    HW1 3748   1.084   1.324   1.983
  390SOL    HW2 3749   1.217   1.350   2.074
  391SOL     OW 3750   0.613   0.842   3.293
  391SOL    HW1 3751   0.669   0.923   3.276
  391SOL    HW2 3752   0.672   0.762   3.296
  392SOL     OW 3753   1.493   1.767   2.821
  392SOL    HW1 3754   1.526   1.831   2.752
  392SOL    HW2 3755   1.559   1.761   2.896
  393SOL     OW 3756   0.716   0.565   3.570
  393SOL    HW1 3757   0.735   0.630   3.644
  393SOL    HW2 3758   0.776   0.485   3.579
  394SOL     OW 3759   1.450   1.220   3.495
  394SOL    HW1 3760   1.441   1.210   3.594
  394SOL    HW2 3761   1.546   1.213   3.469
  395SOL     OW 3762   0.390   1.741   3.422
  395SOL    HW1 3763   0.299   1.782   3.420
  395SOL    HW2 3764   0.383   1.647   3.454
  396SOL     OW 3765   1.674   0.883   3.116
  396SOL    HW1 3766   1.647   0.794   3.079
  396SOL    HW2 3767   1.675   0.951   3.043
  397SOL     OW 3768   0.594   0.745   2.514
  397SOL    HW1 3769   0.644   0.830   2.495
  397SOL    HW2 3770   0.506   0.747   2.466
  398SOL     OW 3771   1.730   0.934   3.379
  398SOL    HW1 3772   1.768   1.025   3.394
  398SOL    HW2 3773   1.722   0.917   3.280
  399SOL     OW 3774   0.859   1.374   1.878
  399SOL    HW1 3775   0.813   1.389   1.966
  399SOL    HW2 3776   0.903   1.459   1.848
  400SOL     OW 3777   0.661   1.790   2.815
  400SOL    HW1 3778   0.615   1.878   2.802
  400SOL    HW2 3779   0.760   1.802   2.808
  401SOL     OW 3780   0.859   0.956   2.723
  401SOL    HW1 3781   0.913   0.887   2.771
  401SOL    HW2 3782   0.827   1.025   2.789
  402SOL     OW 3783   1.083   0.984   1.949
  402SOL    HW1 3784   1.060   1.037   1.867
  402SOL    HW2 3785   1.164   0.928   1.930
  403SOL     OW 3786   1.861   1.569   2.713
  403SOL    HW1 3787   1.790   1.557   2.643
  403SOL    HW2 3788   1.862   1.490   2.773
  404SOL     OW 3789   0.221   1.314   3.706
  404SOL    HW1 3790   0.156   1.241   3.685
  404SOL    HW2 3791   0.225   1.328   3.804
  405SOL     OW 3792   0.079   1.240   2.515
  405SOL    HW1 3793   0.078   1.193   2.603
  405SOL    HW2 3794   0.161   1.212   2.464
  406SOL     OW 3795   0.672   1.391   3.486
  406SOL    HW1 3796   0.594   1.341   3.524
  406SOL    HW2 3797   0.669   1.486   3.517
  407SOL     OW 3798   1.824   0.192   3.089
  407SOL    HW1 3799   1.820   0.102   3.133
  407SOL    HW2 3800   1.827   0.181   2.990
  408SOL     OW 3801   0.317   0.547   3.142
  408SOL    HW1 3802   0.355   0.488   3.214
  408SOL    HW2 3803   0.357   0.521   3.054
  409SOL     OW 3804   0.812   1.586   2.549
  409SOL    HW1 3805   0.844   1.596   2.455
  409SOL    HW2 3806   0.733   1.524   2.551
  410SOL     OW 3807   1.424   0.214   2.974
  410SOL    HW1 3808   1.476   0.149   3.029
  410SOL    HW2 3809   1.375   0.277   3.035
  411SOL     OW 3810   1.001   0.034   3.016
  411SOL    HW1 3811   0.938  -0.038   2.985
  411SOL    HW2 3812   1.094  -0.002   3.016
  412SOL     OW 3813   0.770   1.330   2.163
  412SOL    HW1 3814   0.724   1.243   2.180
  412SOL    HW2 3815   0.861   1.327   2.204
  413SOL     OW 3816   0.618   1.567   3.146
  413SOL    HW1 3817   0.613   1.649   3.203
  413SOL    HW2 3818   0.707   1.564   3.101
  414SOL     OW 3819   1.352   0.052   2.030
  414SOL    HW1 3820   1.387   0.011   1.946
  414SOL    HW2 3821   1.262   0.014   2.050
  415SOL     OW 3822   0.039   1.077   2.162
  415SOL    HW1 3823   0.138   1.066   2.153
  415SOL    HW2 3824  -0.001   0.991   2.194
  416SOL     OW 3825   0.230   0.628   3.837
  416SOL    HW1 3826   0.137   0.626   3.874
  416SOL    HW2 3827   0.231   0.589   3.745
  417SOL     OW 3828   0.569   1.275   4.889
  417SOL    HW1 3829   0.476   1.268   4.852
  417SOL    HW2 3830   0.580   1.364   4.933
  418SOL     OW 3831   1.555   1.511   4.427
  418SOL    HW1 3832   1.498   1.495   4.508
  418SOL    HW2 3833   1.496   1.521   4.347
  419SOL     OW 3834   1.135   0.703   4.441
  419SOL    HW1 3835   1.192   0.781   4.416
  419SOL    HW2 3836   1.075   0.729   4.517
  420SOL     OW 3837   0.768   1.144   4.747
  420SOL    HW1 3838   0.690   1.161   4.807
  420SOL    HW2 3839   0.802   1.231   4.711
  421SOL     OW 3840   0.685   1.012   4.389
  421SOL    HW1 3841   0.754   0.996   4.459
  421SOL    HW2 3842   0.612   1.069   4.427
  422SOL     OW 3843   1.603   0.447   4.461
  422SOL    HW1 3844   1.529   0.493   4.411
  422SOL    HW2 3845   1.654   0.515   4.514
  423SOL     OW 3846   0.231   1.713   4.207
  423SOL    HW1 3847   0.265   1.790   4.261
  423SOL    HW2 3848   0.275   1.713   4.117
  424SOL     OW 3849   0.620   1.786   5.163
  424SOL    HW1 3850   0.528   1.769   5.198
  424SOL    HW2 3851   0.648   1.878   5.189
  425SOL     OW 3852   0.606   0.964   3.847
  425SOL    HW1 3853   0.613   1.048   3.793
  425SOL    HW2 3854   0.652   0.977   3.935
  426SOL     OW 3855   0.613   1.365   4.450
  426SOL    HW1 3856   0.564   1.278   4.459
  426SOL    HW2 3857   0.590   1.408   4.363
  427SOL     OW 3858   0.197   0.976   4.988
  427SOL    HW1 3859   0.286   0.931   4.974
  427SOL    HW2 3860   0.124   0.911   4.969
  428SOL     OW 3861   1.667   1.714   4.296
  428SOL    HW1 3862   1.626   1.691   4.208
  428SOL    HW2 3863   1.649   1.640   4.361
  429SOL     OW 3864   0.598   0.729   3.994
  429SOL    HW1 3865   0.622   0.798   3.926
  429SOL    HW2 3866   0.520   0.762   4.048
  430SOL     OW 3867   1.281   0.345   4.668
  430SOL    HW1 3868   1.195   0.295   4.655
  430SOL    HW2 3869   1.343   0.291   4.724
  431SOL     OW 3870   1.576   1.662   4.031
  431SOL    HW1 3871   1.665   1.708   4.034
  431SOL    HW2 3872   1.555   1.638   3.936
  432SOL     OW 3873   0.991   0.410   4.966
  432SOL    HW1 3874   0.914   0.444   5.020
  432SOL    HW2 3875   0.957   0.359   4.887
  433SOL     OW 3876   1.008   1.456   4.201
  433SOL    HW1 3877   0.962   1.528   4.149
  433SOL    HW2 3878   1.004   1.476   4.299
  434SOL     OW 3879   0.351   1.801   4.577
  434SOL    HW1 3880   0.401   1.715   4.583
  434SOL    HW2 3881   0.416   1.878   4.574
  435SOL     OW 3882   1.795   1.066   4.597
  435SOL    HW1 3883   1.733   1.051   4.521
  435SOL    HW2 3884   1.743   1.077   4.682
  436SOL     OW 3885   0.321   0.943   3.966
  436SOL    HW1 3886   0.403   0.982   3.924
  436SOL    HW2 3887   0.294   0.861   3.917
  437SOL     OW 3888   1.111   1.776   3.961
  437SOL    HW1 3889   1.051   1.714   4.011
  437SOL    HW2 3890   1.142   1.732   3.876
  438SOL     OW 3891   1.632   1.377   3.805
  438SOL    HW1 3892   1.600   1.471   3.795
  438SOL    HW2 3893   1.556   1.314   3.793
  439SOL     OW 3894   0.464   1.743   4.047
  439SOL    HW1 3895   0.497   1.782   4.133
  439SOL    HW2 3896   0.540   1.736   3.982
  440SOL     OW 3897   1.400   0.107   4.150
  440SOL    HW1 3898   1.376   0.070   4.060
  440SOL    HW2 3899   1.499   0.123   4.154
  441SOL     OW 3900   0.249   1.785   4.965
  441SOL    HW1 3901   0.306   1.720   5.015
  441SOL    HW2 3902   0.233   1.752   4.872
  442SOL     OW 3903   0.940   1.698   4.628
  442SOL    HW1 3904   1.020   1.641   4.649
  442SOL    HW2 3905   0.891   1.658   4.551
  443SOL     OW 3906   0.803   1.402   4.648
  443SOL    HW1 3907   0.893   1.416   4.606
  443SOL    HW2 3908   0.732   1.404   4.577
  444SOL     OW 3909   0.922   0.503   4.623
  444SOL    HW1 3910   0.897   0.494   4.527
  444SOL    HW2 3911   0.970   0.421   4.654
  445SOL     OW 3912   0.539   0.064   4.236
  445SOL    HW1 3913   0.458   0.065   4.294
  445SOL    HW2 3914   0.542   0.147   4.181
  446SOL     OW 3915   0.297   0.035   3.895
  446SOL    HW1 3916   0.346   0.119   3.874
  446SOL    HW2 3917   0.359  -0.030   3.940
  447SOL     OW 3918   1.227   1.570   4.517
  447SOL    HW1 3919   1.248   1.644   4.452
  447SOL    HW2 3920   1.295   1.570   4.590
  448SOL     OW 3921   1.271   1.797   4.315
  448SOL    HW1 3922   1.315   1.861   4.251
  448SOL    HW2 3923   1.221   1.849   4.385
  449SOL     OW 3924   1.032   0.549   3.740
  449SOL    HW1 3925   0.991   0.631   3.701
  449SOL    HW2 3926   1.096   0.575   3.813
  450SOL     OW 3927   0.866   0.454   4.366
  450SOL    HW1 3928   0.834   0.526   4.304
  450SOL    HW2 3929   0.890   0.373   4.313
  451SOL     OW 3930   1.017   0.039   4.477
  451SOL    HW1 3931   0.945   0.044   4.408
  451SOL    HW2 3932   0.993  -0.030   4.546
  452SOL     OW 3933   1.466   0.590   4.716
  452SOL    HW1 3934   1.436   0.495   4.723
  452SOL    HW2 3935   1.539   0.606   4.782
  453SOL     OW 3936   0.488   1.385   3.898
  453SOL    HW1 3937   0.401   1.370   3.945
  453SOL    HW2 3938   0.471   1.411   3.803
  454SOL     OW 3939   1.664   1.280   4.381
  454SOL    HW1 3940   1.763   1.288   4.395
  454SOL    HW2 3941   1.619   1.364   4.412
  455SOL     OW 3942   1.390   0.575   3.802
  455SOL    HW1 3943   1.336   0.554   3.883
  455SOL    HW2 3944   1.481   0.534   3.811
  456SOL     OW 3945   1.111   1.195   4.824
  456SOL    HW1 3946   1.071   1.239   4.905
  456SOL    HW2 3947   1.070   1.232   4.741
  457SOL     OW 3948   0.705   1.050   4.092
  457SOL    HW1 3949   0.691   1.057   4.191
  457SOL    HW2 3950   0.789   0.999   4.074
  458SOL     OW 3951   0.410   0.813   4.975
  458SOL    HW1 3952   0.496   0.825   5.025
  458SOL    HW2 3953   0.368   0.726   5.002
  459SOL     OW 3954   1.274   0.386   4.986
  459SOL    HW1 3955   1.295   0.460   5.050
  459SOL    HW2 3956   1.185   0.403   4.943
  460SOL     OW 3957   0.367   1.100   4.225
  460SOL    HW1 3958   0.360   1.183   4.169
  460SOL    HW2 3959   0.371   1.020   4.165
  461SOL     OW 3960   1.272   1.445   4.866
  461SOL    HW1 3961   1.319   1.458   4.953
  461SOL    HW2 3962   1.206   1.371   4.875
  462SOL     OW 3963   0.573   0.870   4.753
  462SOL    HW1 3964   0.617   0.959   4.744
  462SOL    HW2 3965   0.510   0.870   4.830
  463SOL     OW 3966   1.360   0.862   4.769
  463SOL    HW1 3967   1.285   0.862   4.703
  463SOL    HW2 3968   1.397   0.770   4.778
  464SOL     OW 3969   0.307   0.213   4.955
  464SOL    HW1 3970   0.284   0.250   5.045
  464SOL    HW2 3971   0.277   0.118   4.949
  465SOL     OW 3972   0.037   1.310   5.006
  465SOL    HW1 3973   0.090   1.261   5.074
  465SOL    HW2 3974   0.059   1.408   5.011
  466SOL     OW 3975   0.307   0.063   4.342
  466SOL    HW1 3976   0.296   0.157   4.375
  466SOL    HW2 3977   0.302   0.000   4.419
  467SOL     OW 3978   1.622   0.367   4.098
  467SOL    HW1 3979   1.624   0.291   4.162
  467SOL    HW2 3980   1.574   0.444   4.138
  468SOL     OW 3981   1.023   0.766   4.690
  468SOL    HW1 3982   1.038   0.787   4.786
  468SOL    HW2 3983   0.993   0.671   4.681
  469SOL     OW 3984   1.540   0.274   3.849
  469SOL    HW1 3985   1.479   0.199   3.872
  469SOL    HW2 3986   1.562   0.326   3.932
  470SOL     OW 3987   1.068   1.333   4.573
  470SOL    HW1 3988   1.075   1.249   4.518
  470SOL    HW2 3989   1.130   1.402   4.537
  471SOL     OW 3990   0.319   0.810   4.673
  471SOL    HW1 3991   0.412   0.846   4.678
  471SOL    HW2 3992   0.313   0.725   4.725
  472SOL     OW 3993   1.160   0.207   5.201
  472SOL    HW1 3994   1.160   0.271   5.278
  472SOL    HW2 3995   1.188   0.255   5.118
  473SOL     OW 3996   0.504   1.568   4.634
  473SOL    HW1 3997   0.570   1.642   4.643
  473SOL    HW2 3998   0.548   1.489   4.592
  474SOL     OW 3999   1.002   0.796   4.962
  474SOL    HW1 4000   1.043   0.764   5.048
  474SOL    HW2 4001   0.906   0.769   4.959
  475SOL     OW 4002   1.657   0.604   4.930
  475SOL    HW1 4003   1.619   0.535   4.992
  475SOL    HW2 4004   1.739   0.568   4.886
  476SOL     OW 4005   0.930   1.678   5.189
  476SOL    HW1 4006   0.906   1.660   5.094
  476SOL    HW2 4007   0.960   1.772   5.199
  477SOL     OW 4008   0.473   0.500   3.915
  477SOL    HW1 4009   0.534   0.580   3.919
  477SOL    HW2 4010   0.378   0.531   3.922
  478SOL     OW 4011   1.347   1.059   4.958
  478SOL    HW1 4012   1.371   0.996   4.884
  478SOL    HW2 4013   1.257   1.099   4.940
  479SOL     OW 4014   1.759   1.747   4.878
  479SOL    HW1 4015   1.820   1.777   4.805
  479SOL    HW2 4016   1.721   1.658   4.856
  480SOL     OW 4017   1.252   1.731   4.852
  480SOL    HW1 4018   1.336   1.736   4.798
  480SOL    HW2 4019   1.229   1.635   4.870
  481SOL     OW 4020   1.726   0.135   4.247
  481SOL    HW1 4021   1.799   0.118   4.180
  481SOL    HW2 4022   1.695   0.048   4.285
  482SOL     OW 4023   1.388   1.573   4.201
  482SOL    HW1 4024   1.455   1.585   4.127
  482SOL    HW2 4025   1.348   1.662   4.224
  483SOL     OW 4026   0.672   1.616   3.878
  483SOL    HW1 4027   0.681   1.626   3.779
  483SOL    HW2 4028   0.632   1.527   3.899
  484SOL     OW 4029   1.650   1.720   5.118
  484SOL    HW1 4030   1.703   1.730   5.034
  484SOL    HW2 4031   1.623   1.810   5.152
  485SOL     OW 4032   0.263   0.326   4.444
  485SOL    HW1 4033   0.184   0.377   4.410
  485SOL    HW2 4034   0.254   0.311   4.542
  486SOL     OW 4035   1.194   1.612   3.755
  486SOL    HW1 4036   1.200   1.519   3.792
  486SOL    HW2 4037   1.135   1.612   3.675
  487SOL     OW 4038   0.822   1.002   5.096
  487SOL    HW1 4039   0.862   1.001   5.004
  487SOL    HW2 4040   0.832   1.094   5.136
  488SOL     OW 4041   0.916   0.910   4.015
  488SOL    HW1 4042   0.979   0.948   3.947
  488SOL    HW2 4043   0.956   0.827   4.054
  489SOL     OW 4044   1.504   1.607   3.768
  489SOL    HW1 4045   1.412   1.644   3.775
  489SOL    HW2 4046   1.542   1.627   3.678
  490SOL     OW 4047   1.014   0.236   4.695
  490SOL    HW1 4048   1.006   0.200   4.602
  490SOL    HW2 4049   1.012   0.160   4.760
  491SOL     OW 4050   0.590   1.487   4.215
  491SOL    HW1 4051   0.632   1.429   4.145
  491SOL    HW2 4052   0.546   1.566   4.171
  492SOL     OW 4053   1.709   0.385   5.105
  492SOL    HW1 4054   1.782   0.454   5.109
  492SOL    HW2 4055   1.737   0.310   5.046
  493SOL     OW 4056   0.255   1.348   4.014
  493SOL    HW1 4057   0.159   1.349   3.987
  493SOL    HW2 4058   0.267   1.401   4.098
  494SOL     OW 4059   0.075   0.345   3.757
  494SOL    HW1 4060  -0.017   0.317   3.728
  494SOL    HW2 4061   0.106   0.422   3.701
  495SOL     OW 4062   0.072   0.166   4.042
  495SOL    HW1 4063   0.055   0.249   3.988
  495SOL    HW2 4064   0.162   0.129   4.020
  496SOL     OW 4065   1.493   1.767   4.683
  496SOL    HW1 4066   1.526   1.831   4.614
  496SOL    HW2 4067   1.559   1.761   4.758
  497SOL     OW 4068   0.594   0.745   4.376
  497SOL    HW1 4069   0.644   0.830   4.357
  497SOL    HW2 4070   0.506   0.747   4.328
  498SOL     OW 4071   0.859   1.374   3.740
  498SOL    HW1 4072   0.813   1.389   3.828
  498SOL    HW2 4073   0.903   1.459   3.710
  499SOL     OW 4074   0.661   1.790   4.677
  499SOL    HW1 4075   0.615   1.878   4.664
  499SOL    HW2 4076   0.760   1.802   4.670
  500SOL     OW 4077   0.859   0.956   4.585
  500SOL    HW1 4078   0.913   0.887   4.633
  500SOL    HW2 4079   0.827   1.025   4.651
  501SOL     OW 4080   1.083   0.984   3.811
  501SOL    HW1 4081   1.060   1.037   3.729
  501SOL    HW2 4082   1.164   0.928   3.792
  502SOL     OW 4083   1.861   1.569   4.575
  502SOL    HW1 4084   1.790   1.557   4.505
  502SOL    HW2 4085   1.862   1.490   4.635
  503SOL     OW 4086   1.705   1.487   4.828
  503SOL    HW1 4087   1.612   1.462   4.801
  503SOL    HW2 4088   1.731   1.437   4.910
  504SOL     OW 4089   0.812   1.586   4.411
  504SOL    HW1 4090   0.844   1.596   4.317
  504SOL    HW2 4091   0.733   1.524   4.413
  505SOL     OW 4092   1.424   0.214   4.836
  505SOL    HW1 4093   1.476   0.149   4.891
  505SOL    HW2 4094   1.375   0.277   4.897
  506SOL     OW 4095   1.001   0.034   4.878
  506SOL    HW1 4096   0.938  -0.038   4.847
  506SOL    HW2 4097   1.094  -0.002   4.878
  507SOL     OW 4098   0.770   1.330   4.025
  507SOL    HW1 4099   0.724   1.243   4.042
  507SOL    HW2 4100   0.861   1.327   4.066
  508SOL     OW 4101   1.352   0.052   3.892
  508SOL    HW1 4102   1.387   0.011   3.808
  508SOL    HW2 4103   1.262   0.014   3.912
  509SOL     OW 4104   1.300   0.453   4.415
  509SOL    HW1 4105   1.241   0.533   4.419
  509SOL    HW2 4106   1.315   0.418   4.508
  510SOL     OW 4107   1.593   0.221   4.606
  510SOL    HW1 4108   1.509   0.220   4.660
  510SOL    HW2 4109   1.595   0.304   4.550
  511SOL     OW 4110   0.875   1.646   4.061
  511SOL    HW1 4111   0.798   1.611   4.007
  511SOL    HW2 4112   0.843   1.717   4.123
  512SOL     OW 4113   0.230   2.490   0.113
  512SOL    HW1 4114   0.137   2.488   0.150
  512SOL    HW2 4115   0.231   2.451   0.021
  513SOL     OW 4116   0.019   2.230   0.647
  513SOL    HW1 4117  -0.063   2.273   0.686
  513SOL    HW2 4118  -0.009   2.157   0.584
  514SOL     OW 4119   0.569   3.137   1.165
  514SOL    HW1 4120   0.476   3.130   1.128
  514SOL    HW2 4121   0.580   3.226   1.209
  515SOL     OW 4122   1.555   3.373   0.703
  515SOL    HW1 4123   1.498   3.357   0.784
  515SOL    HW2 4124   1.496   3.383   0.623
  516SOL     OW 4125   1.135   2.565   0.717
  516SOL    HW1 4126   1.192   2.643   0.692
  516SOL    HW2 4127   1.075   2.591   0.793
  517SOL     OW 4128   1.755   2.469   0.231
  517SOL    HW1 4129   1.743   2.456   0.132
  517SOL    HW2 4130   1.725   2.388   0.280
  518SOL     OW 4131   0.768   3.006   1.023
  518SOL    HW1 4132   0.690   3.023   1.083
  518SOL    HW2 4133   0.802   3.093   0.987
  519SOL     OW 4134   0.850   2.660   1.823
  519SOL    HW1 4135   0.846   2.736   1.888
  519SOL    HW2 4136   0.872   2.696   1.732
  520SOL     OW 4137   0.685   2.874   0.665
  520SOL    HW1 4138   0.754   2.858   0.735
  520SOL    HW2 4139   0.612   2.931   0.703
  521SOL     OW 4140   0.686   3.023   1.803
  521SOL    HW1 4141   0.746   3.102   1.817
  521SOL    HW2 4142   0.600   3.054   1.762
  522SOL     OW 4143   1.460   3.367   1.339
  522SOL    HW1 4144   1.484   3.461   1.365
  522SOL    HW2 4145   1.444   3.313   1.421
  523SOL     OW 4146   0.438   2.254   1.499
  523SOL    HW1 4147   0.520   2.198   1.508
  523SOL    HW2 4148   0.357   2.196   1.503
  524SOL     OW 4149   1.603   2.309   0.737
  524SOL    HW1 4150   1.529   2.355   0.687
  524SOL    HW2 4151   1.654   2.377   0.790
  525SOL     OW 4152   1.127   3.203   1.690
  525SOL    HW1 4153   1.174   3.203   1.778
  525SOL    HW2 4154   1.079   3.116   1.679
  526SOL     OW 4155   0.240   2.953   0.886
  526SOL    HW1 4156   0.254   2.869   0.938
  526SOL    HW2 4157   0.185   3.017   0.941
  527SOL     OW 4158   0.606   2.826   0.123
  527SOL    HW1 4159   0.613   2.910   0.069
  527SOL    HW2 4160   0.652   2.839   0.211
  528SOL     OW 4161   1.594   1.976   1.480
  528SOL    HW1 4162   1.576   2.043   1.408
  528SOL    HW2 4163   1.591   2.022   1.569
  529SOL     OW 4164   0.122   2.505   0.563
  529SOL    HW1 4165   0.077   2.417   0.580
  529SOL    HW2 4166   0.121   2.559   0.647
  530SOL     OW 4167   1.842   3.629   0.359
  530SOL    HW1 4168   1.896   3.600   0.439
  530SOL    HW2 4169   1.872   3.719   0.330
  531SOL     OW 4170   1.689   2.784   0.612
  531SOL    HW1 4171   1.784   2.755   0.620
  531SOL    HW2 4172   1.681   2.849   0.537
  532SOL     OW 4173   0.113   2.599   1.597
  532SOL    HW1 4174   0.201   2.586   1.642
  532SOL    HW2 4175   0.100   2.696   1.575
  533SOL     OW 4176   1.293   3.090   1.423
  533SOL    HW1 4177   1.330   3.017   1.365
  533SOL    HW2 4178   1.345   3.095   1.508
  534SOL     OW 4179   0.809   1.866   0.502
  534SOL    HW1 4180   0.849   1.957   0.493
  534SOL    HW2 4181   0.709   1.874   0.508
  535SOL     OW 4182   0.197   2.838   1.264
  535SOL    HW1 4183   0.286   2.793   1.250
  535SOL    HW2 4184   0.124   2.773   1.245
  536SOL     OW 4185   1.525   2.861   0.190
  536SOL    HW1 4186   1.462   2.785   0.203
  536SOL    HW2 4187   1.573   2.879   0.276
  537SOL     OW 4188   1.187   3.654   1.616
  537SOL    HW1 4189   1.211   3.714   1.540
  537SOL    HW2 4190   1.194   3.559   1.586
  538SOL     OW 4191   0.317   2.113   1.801
  538SOL    HW1 4192   0.388   2.184   1.807
  538SOL    HW2 4193   0.229   2.152   1.829
  539SOL     OW 4194   1.466   3.279   0.953
  539SOL    HW1 4195   1.407   3.285   1.033
  539SOL    HW2 4196   1.451   3.191   0.907
  540SOL     OW 4197   1.667   3.576   0.572
  540SOL    HW1 4198   1.626   3.553   0.484
  540SOL    HW2 4199   1.649   3.502   0.637
  541SOL     OW 4200   0.598   2.591   0.270
  541SOL    HW1 4201   0.622   2.660   0.202
  541SOL    HW2 4202   0.520   2.624   0.324
  542SOL     OW 4203   1.576   3.524   0.307
  542SOL    HW1 4204   1.665   3.570   0.310
  542SOL    HW2 4205   1.555   3.500   0.212
  543SOL     OW 4206   0.807   2.467   1.465
  543SOL    HW1 4207   0.760   2.464   1.554
  543SOL    HW2 4208   0.756   2.412   1.399
  544SOL     OW 4209   1.394   2.331   1.674
  544SOL    HW1 4210   1.374   2.374   1.762
  544SOL    HW2 4211   1.472   2.269   1.683
  545SOL     OW 4212   0.973   2.752   1.572
  545SOL    HW1 4213   1.019   2.668   1.543
  545SOL    HW2 4214   0.917   2.786   1.497
  546SOL     OW 4215   1.041   2.563   0.429
  546SOL    HW1 4216   1.067   2.559   0.525
  546SOL    HW2 4217   0.956   2.512   0.415
  547SOL     OW 4218   0.076   2.673   0.789
  547SOL    HW1 4219   0.175   2.661   0.798
  547SOL    HW2 4220   0.052   2.768   0.810
  548SOL     OW 4221   0.130   3.683   1.571
  548SOL    HW1 4222   0.120   3.668   1.670
  548SOL    HW2 4223   0.044   3.719   1.535
  549SOL     OW 4224   0.865   2.210   0.195
  549SOL    HW1 4225   0.924   2.273   0.146
  549SOL    HW2 4226   0.884   2.116   0.166
  550SOL     OW 4227   1.719   2.447   1.831
  550SOL    HW1 4228   1.693   2.536   1.795
  550SOL    HW2 4229   1.717   2.379   1.758
  551SOL     OW 4230   1.362   3.006   0.545
  551SOL    HW1 4231   1.445   2.977   0.497
  551SOL    HW2 4232   1.313   3.073   0.489
  552SOL     OW 4233   1.227   3.412   1.506
  552SOL    HW1 4234   1.233   3.335   1.570
  552SOL    HW2 4235   1.175   3.386   1.426
  553SOL     OW 4236   0.321   2.805   0.242
  553SOL    HW1 4237   0.403   2.844   0.200
  553SOL    HW2 4238   0.294   2.723   0.193
  554SOL     OW 4239   1.458   2.597   0.728
  554SOL    HW1 4240   1.453   2.532   0.803
  554SOL    HW2 4241   1.538   2.656   0.741
  555SOL     OW 4242   0.461   3.128   1.727
  555SOL    HW1 4243   0.411   3.129   1.641
  555SOL    HW2 4244   0.398   3.110   1.803
  556SOL     OW 4245   1.111   3.638   0.237
  556SOL    HW1 4246   1.051   3.576   0.287
  556SOL    HW2 4247   1.142   3.594   0.152
  557SOL     OW 4248   0.202   2.147   1.498
  557SOL    HW1 4249   0.122   2.207   1.485
  557SOL    HW2 4250   0.192   2.098   1.584
  558SOL     OW 4251   1.632   3.239   0.081
  558SOL    HW1 4252   1.600   3.333   0.071
  558SOL    HW2 4253   1.556   3.176   0.069
  559SOL     OW 4254   1.400   1.969   0.426
  559SOL    HW1 4255   1.376   1.932   0.336
  559SOL    HW2 4256   1.499   1.985   0.430
  560SOL     OW 4257   0.940   3.560   0.904
  560SOL    HW1 4258   1.020   3.503   0.925
  560SOL    HW2 4259   0.891   3.520   0.827
  561SOL     OW 4260   0.382   2.562   0.480
  561SOL    HW1 4261   0.427   2.472   0.477
  561SOL    HW2 4262   0.288   2.551   0.513
  562SOL     OW 4263   1.547   2.084   1.729
  562SOL    HW1 4264   1.542   2.121   1.821
  562SOL    HW2 4265   1.475   2.015   1.717
  563SOL     OW 4266   0.888   3.376   1.195
  563SOL    HW1 4267   0.865   3.351   1.101
  563SOL    HW2 4268   0.949   3.307   1.234
  564SOL     OW 4269   1.351   2.452   1.433
  564SOL    HW1 4270   1.379   2.409   1.518
  564SOL    HW2 4271   1.376   2.548   1.434
  565SOL     OW 4272   0.803   3.264   0.924
  565SOL    HW1 4273   0.893   3.278   0.882
  565SOL    HW2 4274   0.732   3.266   0.853
  566SOL     OW 4275   0.539   1.926   0.512
  566SOL    HW1 4276   0.458   1.927   0.570
  566SOL    HW2 4277   0.542   2.009   0.457
  567SOL     OW 4278   1.434   3.050   0.041
  567SOL    HW1 4279   1.466   2.974   0.098
  567SOL    HW2 4280   1.342   3.077   0.071
  568SOL     OW 4281   0.297   1.897   0.171
  568SOL    HW1 4282   0.346   1.981   0.150
  568SOL    HW2 4283   0.359   1.832   0.216
  569SOL     OW 4284   0.935   2.098   0.480
  569SOL    HW1 4285   0.887   2.139   0.402
  569SOL    HW2 4286   1.034   2.096   0.461
  570SOL     OW 4287   1.076   2.545   1.464
  570SOL    HW1 4288   0.996   2.484   1.467
  570SOL    HW2 4289   1.157   2.492   1.440
  571SOL     OW 4290   1.227   3.432   0.793
  571SOL    HW1 4291   1.248   3.506   0.728
  571SOL    HW2 4292   1.295   3.432   0.866
  572SOL     OW 4293   0.459   3.014   0.741
  572SOL    HW1 4294   0.388   2.987   0.806
  572SOL    HW2 4295   0.433   2.986   0.648
  573SOL     OW 4296   1.271   3.659   0.591
  573SOL    HW1 4297   1.315   3.723   0.527
  573SOL    HW2 4298   1.221   3.711   0.661
  574SOL     OW 4299   1.032   2.411   0.016
  574SOL    HW1 4300   0.991   2.493  -0.023
  574SOL    HW2 4301   1.096   2.437   0.089
  575SOL     OW 4302   0.078   2.418   1.386
  575SOL    HW1 4303   0.170   2.417   1.345
  575SOL    HW2 4304   0.072   2.492   1.453
  576SOL     OW 4305   0.561   2.084   1.147
  576SOL    HW1 4306   0.599   2.000   1.184
  576SOL    HW2 4307   0.473   2.103   1.191
  577SOL     OW 4308   0.866   2.316   0.642
  577SOL    HW1 4309   0.834   2.388   0.580
  577SOL    HW2 4310   0.890   2.235   0.589
  578SOL     OW 4311   1.017   1.901   0.753
  578SOL    HW1 4312   0.945   1.906   0.684
  578SOL    HW2 4313   0.993   1.832   0.822
  579SOL     OW 4314   1.429   3.035   0.867
  579SOL    HW1 4315   1.374   2.951   0.860
  579SOL    HW2 4316   1.455   3.064   0.775
  580SOL     OW 4317   1.466   2.452   0.992
  580SOL    HW1 4318   1.436   2.357   0.999
  580SOL    HW2 4319   1.539   2.468   1.058
  581SOL     OW 4320   1.857   2.695   0.377
  581SOL    HW1 4321   1.899   2.631   0.441
  581SOL    HW2 4322   1.819   2.644   0.299
  582SOL     OW 4323   0.488   3.247   0.174
  582SOL    HW1 4324   0.401   3.232   0.221
  582SOL    HW2 4325   0.471   3.273   0.079
  583SOL     OW 4326   1.390   2.437   0.078
  583SOL    HW1 4327   1.336   2.416   0.159
  583SOL    HW2 4328   1.481   2.396   0.087
  584SOL     OW 4329   0.527   2.118   0.328
  584SOL    HW1 4330   0.554   2.059   0.253
  584SOL    HW2 4331   0.527   2.213   0.297
  585SOL     OW 4332   1.754   3.085   1.588
  585SOL    HW1 4333   1.845   3.046   1.575
  585SOL    HW2 4334   1.762   3.181   1.612
  586SOL     OW 4335   1.064   3.209   1.340
  586SOL    HW1 4336   0.984   3.186   1.395
  586SOL    HW2 4337   1.147   3.183   1.389
  587SOL     OW 4338   1.111   3.057   1.100
  587SOL    HW1 4339   1.071   3.101   1.181
  587SOL    HW2 4340   1.070   3.094   1.017
  588SOL     OW 4341   0.915   1.951   1.402
  588SOL    HW1 4342   0.940   1.931   1.307
  588SOL    HW2 4343   0.987   2.007   1.444
  589SOL     OW 4344   0.980   2.978   1.719
  589SOL    HW1 4345   0.881   2.984   1.729
  589SOL    HW2 4346   1.003   2.898   1.663
  590SOL     OW 4347   0.705   2.912   0.368
  590SOL    HW1 4348   0.691   2.919   0.467
  590SOL    HW2 4349   0.789   2.861   0.350
  591SOL     OW 4350   0.410   2.675   1.251
  591SOL    HW1 4351   0.496   2.687   1.301
  591SOL    HW2 4352   0.368   2.588   1.278
  592SOL     OW 4353   0.064   3.426   1.331
  592SOL    HW1 4354   0.018   3.508   1.297
  592SOL    HW2 4355   0.162   3.445   1.340
  593SOL     OW 4356   0.367   2.962   0.501
  593SOL    HW1 4357   0.360   3.045   0.445
  593SOL    HW2 4358   0.371   2.882   0.441
  594SOL     OW 4359   0.566   2.399   0.865
  594SOL    HW1 4360   0.578   2.465   0.791
  594SOL    HW2 4361   0.612   2.433   0.948
  595SOL     OW 4362   1.252   3.210   0.388
  595SOL    HW1 4363   1.302   3.287   0.428
  595SOL    HW2 4364   1.157   3.212   0.420
  596SOL     OW 4365   1.272   3.307   1.142
  596SOL    HW1 4366   1.319   3.320   1.229
  596SOL    HW2 4367   1.206   3.233   1.151
  597SOL     OW 4368   1.582   2.501   0.472
  597SOL    HW1 4369   1.551   2.562   0.545
  597SOL    HW2 4370   1.632   2.553   0.403
  598SOL     OW 4371   0.402   2.613   1.598
  598SOL    HW1 4372   0.470   2.668   1.551
  598SOL    HW2 4373   0.442   2.525   1.625
  599SOL     OW 4374   1.587   2.641   1.670
  599SOL    HW1 4375   1.495   2.679   1.665
  599SOL    HW2 4376   1.647   2.688   1.605
  600SOL     OW 4377   0.573   2.732   1.029
  600SOL    HW1 4378   0.617   2.821   1.020
  600SOL    HW2 4379   0.510   2.732   1.106
  601SOL     OW 4380   1.360   2.724   1.045
  601SOL    HW1 4381   1.285   2.724   0.979
  601SOL    HW2 4382   1.397   2.632   1.054
  602SOL     OW 4383   1.209   2.387   0.275
  602SOL    HW1 4384   1.222   2.303   0.329
  602SOL    HW2 4385   1.180   2.461   0.335
  603SOL     OW 4386   0.037   3.172   1.282
  603SOL    HW1 4387   0.090   3.123   1.350
  603SOL    HW2 4388   0.059   3.270   1.287
  604SOL     OW 4389   0.732   2.496   1.064
  604SOL    HW1 4390   0.791   2.470   0.988
  604SOL    HW2 4391   0.704   2.592   1.053
  605SOL     OW 4392   1.728   2.797   1.854
  605SOL    HW1 4393   1.682   2.790   1.765
  605SOL    HW2 4394   1.666   2.841   1.920
  606SOL     OW 4395   0.307   1.925   0.618
  606SOL    HW1 4396   0.296   2.019   0.651
  606SOL    HW2 4397   0.302   1.862   0.695
  607SOL     OW 4398   1.622   2.229   0.374
  607SOL    HW1 4399   1.624   2.153   0.438
  607SOL    HW2 4400   1.574   2.306   0.414
  608SOL     OW 4401   1.023   2.628   0.966
  608SOL    HW1 4402   1.038   2.649   1.062
  608SOL    HW2 4403   0.993   2.533   0.957
  609SOL     OW 4404   0.980   3.435   1.700
  609SOL    HW1 4405   0.960   3.479   1.612
  609SOL    HW2 4406   1.019   3.344   1.684
  610SOL     OW 4407   1.859   3.380   1.605
  610SOL    HW1 4408   1.873   3.407   1.510
  610SOL    HW2 4409   1.942   3.402   1.658
  611SOL     OW 4410   0.350   2.760   1.804
  611SOL    HW1 4411   0.426   2.804   1.852
  611SOL    HW2 4412   0.385   2.713   1.722
  612SOL     OW 4413   1.540   2.136   0.125
  612SOL    HW1 4414   1.479   2.061   0.148
  612SOL    HW2 4415   1.562   2.188   0.208
  613SOL     OW 4416   1.303   2.700   0.042
  613SOL    HW1 4417   1.337   2.607   0.057
  613SOL    HW2 4418   1.321   2.727  -0.053
  614SOL     OW 4419   1.068   3.195   0.849
  614SOL    HW1 4420   1.075   3.111   0.794
  614SOL    HW2 4421   1.130   3.264   0.813
  615SOL     OW 4422   0.319   2.672   0.949
  615SOL    HW1 4423   0.412   2.708   0.954
  615SOL    HW2 4424   0.313   2.587   1.001
  616SOL     OW 4425   1.138   2.242   1.678
  616SOL    HW1 4426   1.093   2.305   1.742
  616SOL    HW2 4427   1.231   2.273   1.661
  617SOL     OW 4428   0.088   3.663   0.927
  617SOL    HW1 4429   0.046   3.577   0.900
  617SOL    HW2 4430   0.182   3.666   0.893
  618SOL     OW 4431   1.002   2.658   1.238
  618SOL    HW1 4432   1.043   2.626   1.324
  618SOL    HW2 4433   0.906   2.631   1.235
  619SOL     OW 4434   0.189   2.382   1.722
  619SOL    HW1 4435   0.248   2.342   1.652
  619SOL    HW2 4436   0.131   2.453   1.681
  620SOL     OW 4437   1.369   2.812   1.660
  620SOL    HW1 4438   1.408   2.901   1.680
  620SOL    HW2 4439   1.379   2.792   1.563
  621SOL     OW 4440   0.815   2.434   0.325
  621SOL    HW1 4441   0.822   2.345   0.279
  621SOL    HW2 4442   0.721   2.468   0.317
  622SOL     OW 4443   1.657   2.466   1.206
  622SOL    HW1 4444   1.619   2.397   1.268
  622SOL    HW2 4445   1.739   2.430   1.162
  623SOL     OW 4446   0.671   2.326   1.269
  623SOL    HW1 4447   0.637   2.237   1.239
  623SOL    HW2 4448   0.697   2.380   1.189
  624SOL     OW 4449   0.930   3.540   1.465
  624SOL    HW1 4450   0.906   3.522   1.370
  624SOL    HW2 4451   0.960   3.634   1.475
  625SOL     OW 4452   0.473   2.362   0.191
  625SOL    HW1 4453   0.534   2.442   0.195
  625SOL    HW2 4454   0.378   2.393   0.198
  626SOL     OW 4455   0.159   2.999   1.466
  626SOL    HW1 4456   0.181   2.938   1.542
  626SOL    HW2 4457   0.169   2.950   1.380
  627SOL     OW 4458   1.347   2.921   1.234
  627SOL    HW1 4459   1.371   2.858   1.160
  627SOL    HW2 4460   1.257   2.961   1.216
  628SOL     OW 4461   1.302   2.717   0.309
  628SOL    HW1 4462   1.216   2.686   0.351
  628SOL    HW2 4463   1.298   2.703   0.210
  629SOL     OW 4464   1.759   3.609   1.154
  629SOL    HW1 4465   1.820   3.639   1.081
  629SOL    HW2 4466   1.721   3.520   1.132
  630SOL     OW 4467   1.252   3.593   1.128
  630SOL    HW1 4468   1.336   3.598   1.074
  630SOL    HW2 4469   1.229   3.497   1.146
  631SOL     OW 4470   0.083   3.120   1.022
  631SOL    HW1 4471   0.078   3.119   1.122
  631SOL    HW2 4472   0.000   3.079   0.984
  632SOL     OW 4473   0.688   3.524   1.716
  632SOL    HW1 4474   0.632   3.605   1.725
  632SOL    HW2 4475   0.740   3.528   1.630
  633SOL     OW 4476   0.903   1.948   0.133
  633SOL    HW1 4477   0.954   1.949   0.047
  633SOL    HW2 4478   0.959   1.906   0.204
  634SOL     OW 4479   1.726   1.997   0.523
  634SOL    HW1 4480   1.799   1.980   0.456
  634SOL    HW2 4481   1.695   1.910   0.561
  635SOL     OW 4482   1.388   3.435   0.477
  635SOL    HW1 4483   1.455   3.447   0.403
  635SOL    HW2 4484   1.348   3.524   0.500
  636SOL     OW 4485   1.280   2.789   0.672
  636SOL    HW1 4486   1.340   2.708   0.674
  636SOL    HW2 4487   1.320   2.858   0.612
  637SOL     OW 4488   0.830   3.135   1.422
  637SOL    HW1 4489   0.825   3.168   1.517
  637SOL    HW2 4490   0.744   3.154   1.376
  638SOL     OW 4491   0.672   3.478   0.154
  638SOL    HW1 4492   0.681   3.488   0.055
  638SOL    HW2 4493   0.632   3.389   0.175
  639SOL     OW 4494   1.650   3.582   1.394
  639SOL    HW1 4495   1.703   3.592   1.310
  639SOL    HW2 4496   1.623   3.672   1.428
  640SOL     OW 4497   1.841   2.037   0.963
  640SOL    HW1 4498   1.880   1.952   0.927
  640SOL    HW2 4499   1.743   2.039   0.944
  641SOL     OW 4500   0.263   2.188   0.720
  641SOL    HW1 4501   0.184   2.239   0.686
  641SOL    HW2 4502   0.254   2.173   0.818
  642SOL     OW 4503   1.194   3.474   0.031
  642SOL    HW1 4504   1.200   3.381   0.068
  642SOL    HW2 4505   1.135   3.474  -0.049
  643SOL     OW 4506   0.822   2.864   1.372
  643SOL    HW1 4507   0.862   2.863   1.280
  643SOL    HW2 4508   0.832   2.956   1.412
  644SOL     OW 4509   0.916   2.772   0.291
  644SOL    HW1 4510   0.979   2.810   0.223
  644SOL    HW2 4511   0.956   2.689   0.330
  645SOL     OW 4512   1.504   3.469   0.044
  645SOL    HW1 4513   1.412   3.506   0.051
  645SOL    HW2 4514   1.542   3.489  -0.046
  646SOL     OW 4515   1.614   3.154   1.289
  646SOL    HW1 4516   1.674   3.157   1.369
  646SOL    HW2 4517   1.539   3.218   1.302
  647SOL     OW 4518   1.039   2.960   0.696
  647SOL    HW1 4519   0.969   2.913   0.750
  647SOL    HW2 4520   1.098   2.892   0.653
  648SOL     OW 4521   0.590   3.349   0.491
  648SOL    HW1 4522   0.632   3.291   0.421
  648SOL    HW2 4523   0.546   3.428   0.447
  649SOL     OW 4524   1.709   2.247   1.381
  649SOL    HW1 4525   1.782   2.316   1.385
  649SOL    HW2 4526   1.737   2.172   1.322
  650SOL     OW 4527   0.105   2.875   1.726
  650SOL    HW1 4528   0.028   2.842   1.780
  650SOL    HW2 4529   0.190   2.845   1.768
  651SOL     OW 4530   0.672   2.065   1.489
  651SOL    HW1 4531   0.762   2.049   1.449
  651SOL    HW2 4532   0.680   2.070   1.588
  652SOL     OW 4533   0.075   2.207   0.033
  652SOL    HW1 4534  -0.017   2.179   0.004
  652SOL    HW2 4535   0.106   2.284  -0.023
  653SOL     OW 4536   1.440   2.718   1.398
  653SOL    HW1 4537   1.383   2.770   1.335
  653SOL    HW2 4538   1.536   2.730   1.374
  654SOL     OW 4539   0.072   2.028   0.318
  654SOL    HW1 4540   0.055   2.111   0.264
  654SOL    HW2 4541   0.162   1.991   0.296
  655SOL     OW 4542   1.183   3.197   0.119
  655SOL    HW1 4543   1.084   3.186   0.121
  655SOL    HW2 4544   1.217   3.212   0.212
  656SOL     OW 4545   0.613   2.704   1.431
  656SOL    HW1 4546   0.669   2.785   1.414
  656SOL    HW2 4547   0.672   2.624   1.434
  657SOL     OW 4548   1.493   3.629   0.959
  657SOL    HW1 4549   1.526   3.693   0.890
  657SOL    HW2 4550   1.559   3.623   1.034
  658SOL     OW 4551   1.450   3.082   1.633
  658SOL    HW1 4552   1.441   3.072   1.732
  658SOL    HW2 4553   1.546   3.075   1.607
  659SOL     OW 4554   1.674   2.745   1.254
  659SOL    HW1 4555   1.647   2.656   1.217
  659SOL    HW2 4556   1.675   2.813   1.181
  660SOL     OW 4557   1.225   2.187   0.449
  660SOL    HW1 4558   1.290   2.113   0.438
  660SOL    HW2 4559   1.245   2.237   0.533
  661SOL     OW 4560   0.594   2.607   0.652
  661SOL    HW1 4561   0.644   2.692   0.633
  661SOL    HW2 4562   0.506   2.609   0.604
  662SOL     OW 4563   1.777   2.204   1.642
  662SOL    HW1 4564   1.760   2.235   1.548
  662SOL    HW2 4565   1.693   2.167   1.680
  663SOL     OW 4566   1.730   2.796   1.517
  663SOL    HW1 4567   1.768   2.887   1.532
  663SOL    HW2 4568   1.722   2.779   1.418
  664SOL     OW 4569   0.859   3.236   0.016
  664SOL    HW1 4570   0.813   3.251   0.104
  664SOL    HW2 4571   0.903   3.321  -0.014
  665SOL     OW 4572   0.859   2.818   0.861
  665SOL    HW1 4573   0.913   2.749   0.909
  665SOL    HW2 4574   0.827   2.887   0.927
  666SOL     OW 4575   1.083   2.846   0.087
  666SOL    HW1 4576   1.060   2.899   0.005
  666SOL    HW2 4577   1.164   2.790   0.068
  667SOL     OW 4578   1.861   3.431   0.851
  667SOL    HW1 4579   1.790   3.419   0.781
  667SOL    HW2 4580   1.862   3.352   0.911
  668SOL     OW 4581   0.221   3.176   1.844
  668SOL    HW1 4582   0.156   3.103   1.823
  668SOL    HW2 4583   0.225   3.190   1.942
  669SOL     OW 4584   0.079   3.102   0.653
  669SOL    HW1 4585   0.078   3.055   0.741
  669SOL    HW2 4586   0.161   3.074   0.602
  670SOL     OW 4587   0.672   3.253   1.624
  670SOL    HW1 4588   0.594   3.203   1.662
  670SOL    HW2 4589   0.669   3.348   1.655
  671SOL     OW 4590   1.824   2.054   1.227
  671SOL    HW1 4591   1.820   1.964   1.271
  671SOL    HW2 4592   1.827   2.043   1.128
  672SOL     OW 4593   0.428   2.286   0.520
  672SOL    HW1 4594   0.458   2.214   0.458
  672SOL    HW2 4595   0.389   2.246   0.603
  673SOL     OW 4596   1.705   3.349   1.104
  673SOL    HW1 4597   1.612   3.324   1.077
  673SOL    HW2 4598   1.731   3.299   1.186
  674SOL     OW 4599   0.317   2.409   1.280
  674SOL    HW1 4600   0.355   2.350   1.352
  674SOL    HW2 4601   0.357   2.383   1.192
  675SOL     OW 4602   0.770   3.192   0.301
  675SOL    HW1 4603   0.724   3.105   0.318
  675SOL    HW2 4604   0.861   3.189   0.342
  676SOL     OW 4605   0.618   3.429   1.284
  676SOL    HW1 4606   0.613   3.511   1.341
  676SOL    HW2 4607   0.707   3.426   1.239
  677SOL     OW 4608   1.352   1.914   0.168
  677SOL    HW1 4609   1.387   1.873   0.084
  677SOL    HW2 4610   1.262   1.876   0.188
  678SOL     OW 4611   1.300   2.315   0.691
  678SOL    HW1 4612   1.241   2.395   0.695
  678SOL    HW2 4613   1.315   2.280   0.784
  679SOL     OW 4614   1.593   2.083   0.882
  679SOL    HW1 4615   1.509   2.082   0.936
  679SOL    HW2 4616   1.595   2.166   0.826
  680SOL     OW 4617   0.875   3.508   0.337
  680SOL    HW1 4618   0.798   3.473   0.283
  680SOL    HW2 4619   0.843   3.579   0.399
  681SOL     OW 4620   0.230   2.490   1.975
  681SOL    HW1 4621   0.137   2.488   2.012
  681SOL    HW2 4622   0.231   2.451   1.883
  682SOL     OW 4623   0.019   2.230   2.509
  682SOL    HW1 4624  -0.063   2.273   2.548
  682SOL    HW2 4625  -0.009   2.157   2.446
  683SOL     OW 4626   0.569   3.137   3.027
  683SOL    HW1 4627   0.476   3.130   2.990
  683SOL    HW2 4628   0.580   3.226   3.071
  684SOL     OW 4629   1.555   3.373   2.565
  684SOL    HW1 4630   1.498   3.357   2.646
  684SOL    HW2 4631   1.496   3.383   2.485
  685SOL     OW 4632   1.135   2.565   2.579
  685SOL    HW1 4633   1.192   2.643   2.554
  685SOL    HW2 4634   1.075   2.591   2.655
  686SOL     OW 4635   1.755   2.469   2.093
  686SOL    HW1 4636   1.743   2.456   1.994
  686SOL    HW2 4637   1.725   2.388   2.142
  687SOL     OW 4638   0.768   3.006   2.885
  687SOL    HW1 4639   0.690   3.023   2.945
  687SOL    HW2 4640   0.802   3.093   2.849
  688SOL     OW 4641   0.685   2.874   2.527
  688SOL    HW1 4642   0.754   2.858   2.597
  688SOL    HW2 4643   0.612   2.931   2.565
  689SOL     OW 4644   0.335   3.297   2.923
  689SOL    HW1 4645   0.257   3.266   2.870
  689SOL    HW2 4646   0.393   3.355   2.866
  690SOL     OW 4647   1.460   3.367   3.201
  690SOL    HW1 4648   1.484   3.461   3.227
  690SOL    HW2 4649   1.444   3.313   3.283
  691SOL     OW 4650   0.438   2.254   3.361
  691SOL    HW1 4651   0.520   2.198   3.370
  691SOL    HW2 4652   0.357   2.196   3.365
  692SOL     OW 4653   1.603   2.309   2.599
  692SOL    HW1 4654   1.529   2.355   2.549
  692SOL    HW2 4655   1.654   2.377   2.652
  693SOL     OW 4656   1.127   3.203   3.552
  693SOL    HW1 4657   1.174   3.203   3.640
  693SOL    HW2 4658   1.079   3.116   3.541
  694SOL     OW 4659   0.230   3.296   2.400
  694SOL    HW1 4660   0.204   3.392   2.400
  694SOL    HW2 4661   0.159   3.242   2.445
  695SOL     OW 4662   0.620   3.648   3.301
  695SOL    HW1 4663   0.528   3.631   3.336
  695SOL    HW2 4664   0.648   3.740   3.327
  696SOL     OW 4665   0.606   2.826   1.985
  696SOL    HW1 4666   0.613   2.910   1.931
  696SOL    HW2 4667   0.652   2.839   2.073
  697SOL     OW 4668   0.122   2.505   2.425
  697SOL    HW1 4669   0.077   2.417   2.442
  697SOL    HW2 4670   0.121   2.559   2.509
  698SOL     OW 4671   0.027   3.458   1.979
  698SOL    HW1 4672   0.008   3.362   2.000
  698SOL    HW2 4673  -0.006   3.516   2.054
  699SOL     OW 4674   1.689   2.784   2.474
  699SOL    HW1 4675   1.784   2.755   2.482
  699SOL    HW2 4676   1.681   2.849   2.399
  700SOL     OW 4677   0.113   2.599   3.459
  700SOL    HW1 4678   0.201   2.586   3.504
  700SOL    HW2 4679   0.100   2.696   3.437
  701SOL     OW 4680   0.613   3.227   2.588
  701SOL    HW1 4681   0.564   3.140   2.597
  701SOL    HW2 4682   0.590   3.270   2.501
  702SOL     OW 4683   1.293   3.090   3.285
  702SOL    HW1 4684   1.330   3.017   3.227
  702SOL    HW2 4685   1.345   3.095   3.370
  703SOL     OW 4686   0.197   2.838   3.126
  703SOL    HW1 4687   0.286   2.793   3.112
  703SOL    HW2 4688   0.124   2.773   3.107
  704SOL     OW 4689   1.525   2.861   2.052
  704SOL    HW1 4690   1.462   2.785   2.065
  704SOL    HW2 4691   1.573   2.879   2.138
  705SOL     OW 4692   1.187   3.654   3.478
  705SOL    HW1 4693   1.211   3.714   3.402
  705SOL    HW2 4694   1.194   3.559   3.448
  706SOL     OW 4695   0.317   2.113   3.663
  706SOL    HW1 4696   0.388   2.184   3.669
  706SOL    HW2 4697   0.229   2.152   3.691
  707SOL     OW 4698   1.466   3.279   2.815
  707SOL    HW1 4699   1.407   3.285   2.895
  707SOL    HW2 4700   1.451   3.191   2.769
  708SOL     OW 4701   1.667   3.576   2.434
  708SOL    HW1 4702   1.626   3.553   2.346
  708SOL    HW2 4703   1.649   3.502   2.499
  709SOL     OW 4704   0.598   2.591   2.132
  709SOL    HW1 4705   0.622   2.660   2.064
  709SOL    HW2 4706   0.520   2.624   2.186
  710SOL     OW 4707   1.281   2.207   2.806
  710SOL    HW1 4708   1.195   2.157   2.793
  710SOL    HW2 4709   1.343   2.153   2.862
  711SOL     OW 4710   1.394   2.331   3.536
  711SOL    HW1 4711   1.374   2.374   3.624
  711SOL    HW2 4712   1.472   2.269   3.545
  712SOL     OW 4713   0.991   2.272   3.104
  712SOL    HW1 4714   0.914   2.306   3.158
  712SOL    HW2 4715   0.957   2.221   3.025
  713SOL     OW 4716   1.041   2.563   2.291
  713SOL    HW1 4717   1.067   2.559   2.387
  713SOL    HW2 4718   0.956   2.512   2.277
  714SOL     OW 4719   0.076   2.673   2.651
  714SOL    HW1 4720   0.175   2.661   2.660
  714SOL    HW2 4721   0.052   2.768   2.672
  715SOL     OW 4722   0.130   3.683   3.433
  715SOL    HW1 4723   0.120   3.668   3.532
  715SOL    HW2 4724   0.044   3.719   3.397
  716SOL     OW 4725   0.865   2.210   2.057
  716SOL    HW1 4726   0.924   2.273   2.008
  716SOL    HW2 4727   0.884   2.116   2.028
  717SOL     OW 4728   1.719   2.447   3.693
  717SOL    HW1 4729   1.693   2.536   3.657
  717SOL    HW2 4730   1.717   2.379   3.620
  718SOL     OW 4731   1.362   3.006   2.407
  718SOL    HW1 4732   1.445   2.977   2.359
  718SOL    HW2 4733   1.313   3.073   2.351
  719SOL     OW 4734   1.008   3.318   2.339
  719SOL    HW1 4735   0.962   3.390   2.287
  719SOL    HW2 4736   1.004   3.338   2.437
  720SOL     OW 4737   1.795   2.928   2.735
  720SOL    HW1 4738   1.733   2.913   2.659
  720SOL    HW2 4739   1.743   2.939   2.820
  721SOL     OW 4740   1.227   3.412   3.368
  721SOL    HW1 4741   1.233   3.335   3.432
  721SOL    HW2 4742   1.175   3.386   3.288
  722SOL     OW 4743   0.321   2.805   2.104
  722SOL    HW1 4744   0.403   2.844   2.062
  722SOL    HW2 4745   0.294   2.723   2.055
  723SOL     OW 4746   1.458   2.597   2.590
  723SOL    HW1 4747   1.453   2.532   2.665
  723SOL    HW2 4748   1.538   2.656   2.603
  724SOL     OW 4749   1.111   3.638   2.099
  724SOL    HW1 4750   1.051   3.576   2.149
  724SOL    HW2 4751   1.142   3.594   2.014
  725SOL     OW 4752   1.632   3.239   1.943
  725SOL    HW1 4753   1.600   3.333   1.933
  725SOL    HW2 4754   1.556   3.176   1.931
  726SOL     OW 4755   1.400   1.969   2.288
  726SOL    HW1 4756   1.376   1.932   2.198
  726SOL    HW2 4757   1.499   1.985   2.292
  727SOL     OW 4758   0.382   2.562   2.342
  727SOL    HW1 4759   0.427   2.472   2.339
  727SOL    HW2 4760   0.288   2.551   2.375
  728SOL     OW 4761   1.547   2.084   3.591
  728SOL    HW1 4762   1.542   2.121   3.683
  728SOL    HW2 4763   1.475   2.015   3.579
  729SOL     OW 4764   0.888   3.376   3.057
  729SOL    HW1 4765   0.865   3.351   2.963
  729SOL    HW2 4766   0.949   3.307   3.096
  730SOL     OW 4767   1.351   2.452   3.295
  730SOL    HW1 4768   1.379   2.409   3.380
  730SOL    HW2 4769   1.376   2.548   3.296
  731SOL     OW 4770   0.803   3.264   2.786
  731SOL    HW1 4771   0.893   3.278   2.744
  731SOL    HW2 4772   0.732   3.266   2.715
  732SOL     OW 4773   0.922   2.365   2.761
  732SOL    HW1 4774   0.897   2.356   2.665
  732SOL    HW2 4775   0.970   2.283   2.792
  733SOL     OW 4776   1.434   3.050   1.903
  733SOL    HW1 4777   1.466   2.974   1.960
  733SOL    HW2 4778   1.342   3.077   1.933
  734SOL     OW 4779   0.935   2.098   2.342
  734SOL    HW1 4780   0.887   2.139   2.264
  734SOL    HW2 4781   1.034   2.096   2.323
  735SOL     OW 4782   1.076   2.545   3.326
  735SOL    HW1 4783   0.996   2.484   3.329
  735SOL    HW2 4784   1.157   2.492   3.302
  736SOL     OW 4785   1.227   3.432   2.655
  736SOL    HW1 4786   1.248   3.506   2.590
  736SOL    HW2 4787   1.295   3.432   2.728
  737SOL     OW 4788   1.271   3.659   2.453
  737SOL    HW1 4789   1.315   3.723   2.389
  737SOL    HW2 4790   1.221   3.711   2.523
  738SOL     OW 4791   1.032   2.411   1.878
  738SOL    HW1 4792   0.991   2.493   1.839
  738SOL    HW2 4793   1.096   2.437   1.951
  739SOL     OW 4794   0.561   2.084   3.009
  739SOL    HW1 4795   0.599   2.000   3.046
  739SOL    HW2 4796   0.473   2.103   3.053
  740SOL     OW 4797   0.866   2.316   2.504
  740SOL    HW1 4798   0.834   2.388   2.442
  740SOL    HW2 4799   0.890   2.235   2.451
  741SOL     OW 4800   1.429   3.035   2.729
  741SOL    HW1 4801   1.374   2.951   2.722
  741SOL    HW2 4802   1.455   3.064   2.637
  742SOL     OW 4803   1.466   2.452   2.854
  742SOL    HW1 4804   1.436   2.357   2.861
  742SOL    HW2 4805   1.539   2.468   2.920
  743SOL     OW 4806   0.488   3.247   2.036
  743SOL    HW1 4807   0.401   3.232   2.083
  743SOL    HW2 4808   0.471   3.273   1.941
  744SOL     OW 4809   1.664   3.142   2.519
  744SOL    HW1 4810   1.763   3.150   2.533
  744SOL    HW2 4811   1.619   3.226   2.550
  745SOL     OW 4812   1.390   2.437   1.940
  745SOL    HW1 4813   1.336   2.416   2.021
  745SOL    HW2 4814   1.481   2.396   1.949
  746SOL     OW 4815   1.754   3.085   3.450
  746SOL    HW1 4816   1.845   3.046   3.437
  746SOL    HW2 4817   1.762   3.181   3.474
  747SOL     OW 4818   1.064   3.209   3.202
  747SOL    HW1 4819   0.984   3.186   3.257
  747SOL    HW2 4820   1.147   3.183   3.251
  748SOL     OW 4821   1.111   3.057   2.962
  748SOL    HW1 4822   1.071   3.101   3.043
  748SOL    HW2 4823   1.070   3.094   2.879
  749SOL     OW 4824   1.638   2.961   2.941
  749SOL    HW1 4825   1.643   3.042   3.000
  749SOL    HW2 4826   1.552   2.963   2.890
  750SOL     OW 4827   0.705   2.912   2.230
  750SOL    HW1 4828   0.691   2.919   2.329
  750SOL    HW2 4829   0.789   2.861   2.212
  751SOL     OW 4830   0.410   2.675   3.113
  751SOL    HW1 4831   0.496   2.687   3.163
  751SOL    HW2 4832   0.368   2.588   3.140
  752SOL     OW 4833   1.274   2.248   3.124
  752SOL    HW1 4834   1.295   2.322   3.188
  752SOL    HW2 4835   1.185   2.265   3.081
  753SOL     OW 4836   0.367   2.962   2.363
  753SOL    HW1 4837   0.360   3.045   2.307
  753SOL    HW2 4838   0.371   2.882   2.303
  754SOL     OW 4839   1.252   3.210   2.250
  754SOL    HW1 4840   1.302   3.287   2.290
  754SOL    HW2 4841   1.157   3.212   2.282
  755SOL     OW 4842   1.272   3.307   3.004
  755SOL    HW1 4843   1.319   3.320   3.091
  755SOL    HW2 4844   1.206   3.233   3.013
  756SOL     OW 4845   1.582   2.501   2.334
  756SOL    HW1 4846   1.551   2.562   2.407
  756SOL    HW2 4847   1.632   2.553   2.265
  757SOL     OW 4848   0.354   3.372   3.191
  757SOL    HW1 4849   0.333   3.328   3.104
  757SOL    HW2 4850   0.451   3.398   3.194
  758SOL     OW 4851   0.402   2.613   3.460
  758SOL    HW1 4852   0.470   2.668   3.413
  758SOL    HW2 4853   0.442   2.525   3.487
  759SOL     OW 4854   1.587   2.641   3.532
  759SOL    HW1 4855   1.495   2.679   3.527
  759SOL    HW2 4856   1.647   2.688   3.467
  760SOL     OW 4857   1.013   1.967   3.632
  760SOL    HW1 4858   1.019   2.052   3.580
  760SOL    HW2 4859   1.045   1.891   3.575
  761SOL     OW 4860   0.504   1.912   3.602
  761SOL    HW1 4861   0.462   1.855   3.532
  761SOL    HW2 4862   0.438   1.981   3.634
  762SOL     OW 4863   0.573   2.732   2.891
  762SOL    HW1 4864   0.617   2.821   2.882
  762SOL    HW2 4865   0.510   2.732   2.968
  763SOL     OW 4866   1.360   2.724   2.907
  763SOL    HW1 4867   1.285   2.724   2.841
  763SOL    HW2 4868   1.397   2.632   2.916
  764SOL     OW 4869   1.209   2.387   2.137
  764SOL    HW1 4870   1.222   2.303   2.191
  764SOL    HW2 4871   1.180   2.461   2.197
  765SOL     OW 4872   0.037   3.172   3.144
  765SOL    HW1 4873   0.090   3.123   3.212
  765SOL    HW2 4874   0.059   3.270   3.149
  766SOL     OW 4875   1.622   2.229   2.236
  766SOL    HW1 4876   1.624   2.153   2.300
  766SOL    HW2 4877   1.574   2.306   2.276
  767SOL     OW 4878   1.023   2.628   2.828
  767SOL    HW1 4879   1.038   2.649   2.924
  767SOL    HW2 4880   0.993   2.533   2.819
  768SOL     OW 4881   0.980   3.435   3.562
  768SOL    HW1 4882   0.960   3.479   3.474
  768SOL    HW2 4883   1.019   3.344   3.546
  769SOL     OW 4884   0.350   2.760   3.666
  769SOL    HW1 4885   0.426   2.804   3.714
  769SOL    HW2 4886   0.385   2.713   3.584
  770SOL     OW 4887   1.540   2.136   1.987
  770SOL    HW1 4888   1.479   2.061   2.010
  770SOL    HW2 4889   1.562   2.188   2.070
  771SOL     OW 4890   1.303   2.700   1.904
  771SOL    HW1 4891   1.337   2.607   1.919
  771SOL    HW2 4892   1.321   2.727   1.809
  772SOL     OW 4893   1.068   3.195   2.711
  772SOL    HW1 4894   1.075   3.111   2.656
  772SOL    HW2 4895   1.130   3.264   2.675
  773SOL     OW 4896   0.008   3.188   2.062
  773SOL    HW1 4897  -0.085   3.209   2.031
  773SOL    HW2 4898   0.018   3.089   2.075
  774SOL     OW 4899   0.088   3.663   2.789
  774SOL    HW1 4900   0.046   3.577   2.762
  774SOL    HW2 4901   0.182   3.666   2.755
  775SOL     OW 4902   0.504   3.430   2.772
  775SOL    HW1 4903   0.570   3.504   2.781
  775SOL    HW2 4904   0.548   3.351   2.730
  776SOL     OW 4905   1.002   2.658   3.100
  776SOL    HW1 4906   1.043   2.626   3.186
  776SOL    HW2 4907   0.906   2.631   3.097
  777SOL     OW 4908   0.189   2.382   3.584
  777SOL    HW1 4909   0.248   2.342   3.514
  777SOL    HW2 4910   0.131   2.453   3.543
  778SOL     OW 4911   1.369   2.812   3.522
  778SOL    HW1 4912   1.408   2.901   3.542
  778SOL    HW2 4913   1.379   2.792   3.425
  779SOL     OW 4914   0.815   2.434   2.187
  779SOL    HW1 4915   0.822   2.345   2.141
  779SOL    HW2 4916   0.721   2.468   2.179
  780SOL     OW 4917   1.657   2.466   3.068
  780SOL    HW1 4918   1.619   2.397   3.130
  780SOL    HW2 4919   1.739   2.430   3.024
  781SOL     OW 4920   0.671   2.326   3.131
  781SOL    HW1 4921   0.637   2.237   3.101
  781SOL    HW2 4922   0.697   2.380   3.051
  782SOL     OW 4923   0.930   3.540   3.327
  782SOL    HW1 4924   0.906   3.522   3.232
  782SOL    HW2 4925   0.960   3.634   3.337
  783SOL     OW 4926   0.159   2.999   3.328
  783SOL    HW1 4927   0.181   2.938   3.404
  783SOL    HW2 4928   0.169   2.950   3.242
  784SOL     OW 4929   1.347   2.921   3.096
  784SOL    HW1 4930   1.371   2.858   3.022
  784SOL    HW2 4931   1.257   2.961   3.078
  785SOL     OW 4932   1.302   2.717   2.171
  785SOL    HW1 4933   1.216   2.686   2.213
  785SOL    HW2 4934   1.298   2.703   2.072
  786SOL     OW 4935   1.759   3.609   3.016
  786SOL    HW1 4936   1.820   3.639   2.943
  786SOL    HW2 4937   1.721   3.520   2.994
  787SOL     OW 4938   1.252   3.593   2.990
  787SOL    HW1 4939   1.336   3.598   2.936
  787SOL    HW2 4940   1.229   3.497   3.008
  788SOL     OW 4941   0.083   3.120   2.884
  788SOL    HW1 4942   0.078   3.119   2.984
  788SOL    HW2 4943   0.000   3.079   2.846
  789SOL     OW 4944   0.688   3.524   3.578
  789SOL    HW1 4945   0.632   3.605   3.587
  789SOL    HW2 4946   0.740   3.528   3.492
  790SOL     OW 4947   1.726   1.997   2.385
  790SOL    HW1 4948   1.799   1.980   2.318
  790SOL    HW2 4949   1.695   1.910   2.423
  791SOL     OW 4950   1.388   3.435   2.339
  791SOL    HW1 4951   1.455   3.447   2.265
  791SOL    HW2 4952   1.348   3.524   2.362
  792SOL     OW 4953   0.130   3.656   3.713
  792SOL    HW1 4954   0.089   3.582   3.766
  792SOL    HW2 4955   0.194   3.707   3.771
  793SOL     OW 4956   1.280   2.789   2.534
  793SOL    HW1 4957   1.340   2.708   2.536
  793SOL    HW2 4958   1.320   2.858   2.474
  794SOL     OW 4959   0.830   3.135   3.284
  794SOL    HW1 4960   0.825   3.168   3.379
  794SOL    HW2 4961   0.744   3.154   3.238
  795SOL     OW 4962   0.672   3.478   2.016
  795SOL    HW1 4963   0.681   3.488   1.917
  795SOL    HW2 4964   0.632   3.389   2.037
  796SOL     OW 4965   1.650   3.582   3.256
  796SOL    HW1 4966   1.703   3.592   3.172
  796SOL    HW2 4967   1.623   3.672   3.290
  797SOL     OW 4968   1.841   2.037   2.825
  797SOL    HW1 4969   1.880   1.952   2.789
  797SOL    HW2 4970   1.743   2.039   2.806
  798SOL     OW 4971   1.194   3.474   1.893
  798SOL    HW1 4972   1.200   3.381   1.930
  798SOL    HW2 4973   1.135   3.474   1.813
  799SOL     OW 4974   0.822   2.864   3.234
  799SOL    HW1 4975   0.862   2.863   3.142
  799SOL    HW2 4976   0.832   2.956   3.274
  800SOL     OW 4977   0.916   2.772   2.153
  800SOL    HW1 4978   0.979   2.810   2.085
  800SOL    HW2 4979   0.956   2.689   2.192
  801SOL     OW 4980   1.039   2.960   2.558
  801SOL    HW1 4981   0.969   2.913   2.612
  801SOL    HW2 4982   1.098   2.892   2.515
  802SOL     OW 4983   1.709   2.247   3.243
  802SOL    HW1 4984   1.782   2.316   3.247
  802SOL    HW2 4985   1.737   2.172   3.184
  803SOL     OW 4986   0.255   3.210   2.152
  803SOL    HW1 4987   0.159   3.211   2.125
  803SOL    HW2 4988   0.267   3.263   2.236
  804SOL     OW 4989   0.105   2.875   3.588
  804SOL    HW1 4990   0.028   2.842   3.642
  804SOL    HW2 4991   0.190   2.845   3.630
  805SOL     OW 4992   0.672   2.065   3.351
  805SOL    HW1 4993   0.762   2.049   3.311
  805SOL    HW2 4994   0.680   2.070   3.450
  806SOL     OW 4995   0.075   2.207   1.895
  806SOL    HW1 4996  -0.017   2.179   1.866
  806SOL    HW2 4997   0.106   2.284   1.839
  807SOL     OW 4998   1.440   2.718   3.260
  807SOL    HW1 4999   1.383   2.770   3.197
  807SOL    HW2 5000   1.536   2.730   3.236
  808SOL     OW 5001   1.183   3.197   1.981
  808SOL    HW1 5002   1.084   3.186   1.983
  808SOL    HW2 5003   1.217   3.212   2.074
  809SOL     OW 5004   1.493   3.629   2.821
  809SOL    HW1 5005   1.526   3.693   2.752
  809SOL    HW2 5006   1.559   3.623   2.896
  810SOL     OW 5007   1.450   3.082   3.495
  810SOL    HW1 5008   1.441   3.072   3.594
  810SOL    HW2 5009   1.546   3.075   3.469
  811SOL     OW 5010   0.390   3.603   3.422
  811SOL    HW1 5011   0.299   3.644   3.420
  811SOL    HW2 5012   0.383   3.509   3.454
  812SOL     OW 5013   1.674   2.745   3.116
  812SOL    HW1 5014   1.647   2.656   3.079
  812SOL    HW2 5015   1.675   2.813   3.043
  813SOL     OW 5016   1.225   2.187   2.311
  813SOL    HW1 5017   1.290   2.113   2.300
  813SOL    HW2 5018   1.245   2.237   2.395
  814SOL     OW 5019   0.594   2.607   2.514
  814SOL    HW1 5020   0.644   2.692   2.495
  814SOL    HW2 5021   0.506   2.609   2.466
  815SOL     OW 5022   1.777   2.204   3.504
  815SOL    HW1 5023   1.760   2.235   3.410
  815SOL    HW2 5024   1.693   2.167   3.542
  816SOL     OW 5025   1.730   2.796   3.379
  816SOL    HW1 5026   1.768   2.887   3.394
  816SOL    HW2 5027   1.722   2.779   3.280
  817SOL     OW 5028   0.859   3.236   1.878
  817SOL    HW1 5029   0.813   3.251   1.966
  817SOL    HW2 5030   0.903   3.321   1.848
  818SOL     OW 5031   0.661   3.652   2.815
  818SOL    HW1 5032   0.615   3.740   2.802
  818SOL    HW2 5033   0.760   3.664   2.808
  819SOL     OW 5034   0.859   2.818   2.723
  819SOL    HW1 5035   0.913   2.749   2.771
  819SOL    HW2 5036   0.827   2.887   2.789
  820SOL     OW 5037   1.083   2.846   1.949
  820SOL    HW1 5038   1.060   2.899   1.867
  820SOL    HW2 5039   1.164   2.790   1.930
  821SOL     OW 5040   1.861   3.431   2.713
  821SOL    HW1 5041   1.790   3.419   2.643
  821SOL    HW2 5042   1.862   3.352   2.773
  822SOL     OW 5043   0.079   3.102   2.515
  822SOL    HW1 5044   0.078   3.055   2.603
  822SOL    HW2 5045   0.161   3.074   2.464
  823SOL     OW 5046   0.672   3.253   3.486
  823SOL    HW1 5047   0.594   3.203   3.524
  823SOL    HW2 5048   0.669   3.348   3.517
  824SOL     OW 5049   1.824   2.054   3.089
  824SOL    HW1 5050   1.820   1.964   3.133
  824SOL    HW2 5051   1.827   2.043   2.990
  825SOL     OW 5052   0.428   2.286   2.382
  825SOL    HW1 5053   0.458   2.214   2.320
  825SOL    HW2 5054   0.389   2.246   2.465
  826SOL     OW 5055   1.705   3.349   2.966
  826SOL    HW1 5056   1.612   3.324   2.939
  826SOL    HW2 5057   1.731   3.299   3.048
  827SOL     OW 5058   0.812   3.448   2.549
  827SOL    HW1 5059   0.844   3.458   2.455
  827SOL    HW2 5060   0.733   3.386   2.551
  828SOL     OW 5061   0.770   3.192   2.163
  828SOL    HW1 5062   0.724   3.105   2.180
  828SOL    HW2 5063   0.861   3.189   2.204
  829SOL     OW 5064   0.618   3.429   3.146
  829SOL    HW1 5065   0.613   3.511   3.203
  829SOL    HW2 5066   0.707   3.426   3.101
  830SOL     OW 5067   1.352   1.914   2.030
  830SOL    HW1 5068   1.387   1.873   1.946
  830SOL    HW2 5069   1.262   1.876   2.050
  831SOL     OW 5070   1.300   2.315   2.553
  831SOL    HW1 5071   1.241   2.395   2.557
  831SOL    HW2 5072   1.315   2.280   2.646
  832SOL     OW 5073   0.039   2.939   2.162
  832SOL    HW1 5074   0.138   2.928   2.153
  832SOL    HW2 5075  -0.001   2.853   2.194
  833SOL     OW 5076   0.875   3.508   2.199
  833SOL    HW1 5077   0.798   3.473   2.145
  833SOL    HW2 5078   0.843   3.579   2.261
  834SOL     OW 5079   0.230   2.490   3.837
  834SOL    HW1 5080   0.137   2.488   3.874
  834SOL    HW2 5081   0.231   2.451   3.745
  835SOL     OW 5082   0.225   2.137   4.720
  835SOL    HW1 5083   0.260   2.120   4.812
  835SOL    HW2 5084   0.137   2.092   4.708
  836SOL     OW 5085   0.019   2.230   4.371
  836SOL    HW1 5086  -0.063   2.273   4.410
  836SOL    HW2 5087  -0.009   2.157   4.308
  837SOL     OW 5088   0.569   3.137   4.889
  837SOL    HW1 5089   0.476   3.130   4.852
  837SOL    HW2 5090   0.580   3.226   4.933
  838SOL     OW 5091   1.555   3.373   4.427
  838SOL    HW1 5092   1.498   3.357   4.508
  838SOL    HW2 5093   1.496   3.383   4.347
  839SOL     OW 5094   1.755   2.469   3.955
  839SOL    HW1 5095   1.743   2.456   3.856
  839SOL    HW2 5096   1.725   2.388   4.004
  840SOL     OW 5097   0.768   3.006   4.747
  840SOL    HW1 5098   0.690   3.023   4.807
  840SOL    HW2 5099   0.802   3.093   4.711
  841SOL     OW 5100   0.335   3.297   4.785
  841SOL    HW1 5101   0.257   3.266   4.732
  841SOL    HW2 5102   0.393   3.355   4.728
  842SOL     OW 5103   1.603   2.309   4.461
  842SOL    HW1 5104   1.529   2.355   4.411
  842SOL    HW2 5105   1.654   2.377   4.514
  843SOL     OW 5106   0.240   2.953   4.610
  843SOL    HW1 5107   0.254   2.869   4.662
  843SOL    HW2 5108   0.185   3.017   4.665
  844SOL     OW 5109   0.620   3.648   5.163
  844SOL    HW1 5110   0.528   3.631   5.198
  844SOL    HW2 5111   0.648   3.740   5.189
  845SOL     OW 5112   0.122   2.505   4.287
  845SOL    HW1 5113   0.077   2.417   4.304
  845SOL    HW2 5114   0.121   2.559   4.371
  846SOL     OW 5115   1.842   3.629   4.083
  846SOL    HW1 5116   1.896   3.600   4.163
  846SOL    HW2 5117   1.872   3.719   4.054
  847SOL     OW 5118   0.027   3.458   3.841
  847SOL    HW1 5119   0.008   3.362   3.862
  847SOL    HW2 5120  -0.006   3.516   3.916
  848SOL     OW 5121   1.689   2.784   4.336
  848SOL    HW1 5122   1.784   2.755   4.344
  848SOL    HW2 5123   1.681   2.849   4.261
  849SOL     OW 5124   0.809   1.866   4.226
  849SOL    HW1 5125   0.849   1.957   4.217
  849SOL    HW2 5126   0.709   1.874   4.232
  850SOL     OW 5127   0.197   2.838   4.988
  850SOL    HW1 5128   0.286   2.793   4.974
  850SOL    HW2 5129   0.124   2.773   4.969
  851SOL     OW 5130   0.598   2.591   3.994
  851SOL    HW1 5131   0.622   2.660   3.926
  851SOL    HW2 5132   0.520   2.624   4.048
  852SOL     OW 5133   1.281   2.207   4.668
  852SOL    HW1 5134   1.195   2.157   4.655
  852SOL    HW2 5135   1.343   2.153   4.724
  853SOL     OW 5136   1.576   3.524   4.031
  853SOL    HW1 5137   1.665   3.570   4.034
  853SOL    HW2 5138   1.555   3.500   3.936
  854SOL     OW 5139   0.991   2.272   4.966
  854SOL    HW1 5140   0.914   2.306   5.020
  854SOL    HW2 5141   0.957   2.221   4.887
  855SOL     OW 5142   0.076   2.673   4.513
  855SOL    HW1 5143   0.175   2.661   4.522
  855SOL    HW2 5144   0.052   2.768   4.534
  856SOL     OW 5145   0.550   2.058   4.609
  856SOL    HW1 5146   0.545   2.053   4.709
  856SOL    HW2 5147   0.552   2.154   4.580
  857SOL     OW 5148   1.008   3.318   4.201
  857SOL    HW1 5149   0.962   3.390   4.149
  857SOL    HW2 5150   1.004   3.338   4.299
  858SOL     OW 5151   0.351   3.663   4.577
  858SOL    HW1 5152   0.401   3.577   4.583
  858SOL    HW2 5153   0.416   3.740   4.574
  859SOL     OW 5154   1.795   2.928   4.597
  859SOL    HW1 5155   1.733   2.913   4.521
  859SOL    HW2 5156   1.743   2.939   4.682
  860SOL     OW 5157   0.321   2.805   3.966
  860SOL    HW1 5158   0.403   2.844   3.924
  860SOL    HW2 5159   0.294   2.723   3.917
  861SOL     OW 5160   1.632   3.239   3.805
  861SOL    HW1 5161   1.600   3.333   3.795
  861SOL    HW2 5162   1.556   3.176   3.793
  862SOL     OW 5163   1.400   1.969   4.150
  862SOL    HW1 5164   1.376   1.932   4.060
  862SOL    HW2 5165   1.499   1.985   4.154
  863SOL     OW 5166   0.249   3.647   4.965
  863SOL    HW1 5167   0.306   3.582   5.015
  863SOL    HW2 5168   0.233   3.614   4.872
  864SOL     OW 5169   0.940   3.560   4.628
  864SOL    HW1 5170   1.020   3.503   4.649
  864SOL    HW2 5171   0.891   3.520   4.551
  865SOL     OW 5172   0.382   2.562   4.204
  865SOL    HW1 5173   0.427   2.472   4.201
  865SOL    HW2 5174   0.288   2.551   4.237
  866SOL     OW 5175   0.803   3.264   4.648
  866SOL    HW1 5176   0.893   3.278   4.606
  866SOL    HW2 5177   0.732   3.266   4.577
  867SOL     OW 5178   0.922   2.365   4.623
  867SOL    HW1 5179   0.897   2.356   4.527
  867SOL    HW2 5180   0.970   2.283   4.654
  868SOL     OW 5181   0.539   1.926   4.236
  868SOL    HW1 5182   0.458   1.927   4.294
  868SOL    HW2 5183   0.542   2.009   4.181
  869SOL     OW 5184   0.297   1.897   3.895
  869SOL    HW1 5185   0.346   1.981   3.874
  869SOL    HW2 5186   0.359   1.832   3.940
  870SOL     OW 5187   0.935   2.098   4.204
  870SOL    HW1 5188   0.887   2.139   4.126
  870SOL    HW2 5189   1.034   2.096   4.185
  871SOL     OW 5190   1.227   3.432   4.517
  871SOL    HW1 5191   1.248   3.506   4.452
  871SOL    HW2 5192   1.295   3.432   4.590
  872SOL     OW 5193   0.459   3.014   4.465
  872SOL    HW1 5194   0.388   2.987   4.530
  872SOL    HW2 5195   0.433   2.986   4.372
  873SOL     OW 5196   1.271   3.659   4.315
  873SOL    HW1 5197   1.315   3.723   4.251
  873SOL    HW2 5198   1.221   3.711   4.385
  874SOL     OW 5199   0.561   2.084   4.871
  874SOL    HW1 5200   0.599   2.000   4.908
  874SOL    HW2 5201   0.473   2.103   4.915
  875SOL     OW 5202   0.866   2.316   4.366
  875SOL    HW1 5203   0.834   2.388   4.304
  875SOL    HW2 5204   0.890   2.235   4.313
  876SOL     OW 5205   1.017   1.901   4.477
  876SOL    HW1 5206   0.945   1.906   4.408
  876SOL    HW2 5207   0.993   1.832   4.546
  877SOL     OW 5208   1.466   2.452   4.716
  877SOL    HW1 5209   1.436   2.357   4.723
  877SOL    HW2 5210   1.539   2.468   4.782
  878SOL     OW 5211   1.857   2.695   4.101
  878SOL    HW1 5212   1.899   2.631   4.165
  878SOL    HW2 5213   1.819   2.644   4.023
  879SOL     OW 5214   1.664   3.142   4.381
  879SOL    HW1 5215   1.763   3.150   4.395
  879SOL    HW2 5216   1.619   3.226   4.412
  880SOL     OW 5217   0.527   2.118   4.052
  880SOL    HW1 5218   0.554   2.059   3.977
  880SOL    HW2 5219   0.527   2.213   4.021
  881SOL     OW 5220   1.111   3.057   4.824
  881SOL    HW1 5221   1.071   3.101   4.905
  881SOL    HW2 5222   1.070   3.094   4.741
  882SOL     OW 5223   1.638   2.961   4.803
  882SOL    HW1 5224   1.643   3.042   4.862
  882SOL    HW2 5225   1.552   2.963   4.752
  883SOL     OW 5226   0.410   2.675   4.975
  883SOL    HW1 5227   0.496   2.687   5.025
  883SOL    HW2 5228   0.368   2.588   5.002
  884SOL     OW 5229   1.274   2.248   4.986
  884SOL    HW1 5230   1.295   2.322   5.050
  884SOL    HW2 5231   1.185   2.265   4.943
  885SOL     OW 5232   0.566   2.399   4.589
  885SOL    HW1 5233   0.578   2.465   4.515
  885SOL    HW2 5234   0.612   2.433   4.672
  886SOL     OW 5235   1.252   3.210   4.112
  886SOL    HW1 5236   1.302   3.287   4.152
  886SOL    HW2 5237   1.157   3.212   4.144
  887SOL     OW 5238   1.272   3.307   4.866
  887SOL    HW1 5239   1.319   3.320   4.953
  887SOL    HW2 5240   1.206   3.233   4.875
  888SOL     OW 5241   1.582   2.501   4.196
  888SOL    HW1 5242   1.551   2.562   4.269
  888SOL    HW2 5243   1.632   2.553   4.127
  889SOL     OW 5244   0.354   3.372   5.053
  889SOL    HW1 5245   0.333   3.328   4.966
  889SOL    HW2 5246   0.451   3.398   5.056
  890SOL     OW 5247   0.573   2.732   4.753
  890SOL    HW1 5248   0.617   2.821   4.744
  890SOL    HW2 5249   0.510   2.732   4.830
  891SOL     OW 5250   1.360   2.724   4.769
  891SOL    HW1 5251   1.285   2.724   4.703
  891SOL    HW2 5252   1.397   2.632   4.778
  892SOL     OW 5253   0.307   2.075   4.955
  892SOL    HW1 5254   0.284   2.112   5.045
  892SOL    HW2 5255   0.277   1.980   4.949
  893SOL     OW 5256   0.732   2.496   4.788
  893SOL    HW1 5257   0.791   2.470   4.712
  893SOL    HW2 5258   0.704   2.592   4.777
  894SOL     OW 5259   0.307   1.925   4.342
  894SOL    HW1 5260   0.296   2.019   4.375
  894SOL    HW2 5261   0.302   1.862   4.419
  895SOL     OW 5262   1.622   2.229   4.098
  895SOL    HW1 5263   1.624   2.153   4.162
  895SOL    HW2 5264   1.574   2.306   4.138
  896SOL     OW 5265   1.023   2.628   4.690
  896SOL    HW1 5266   1.038   2.649   4.786
  896SOL    HW2 5267   0.993   2.533   4.681
  897SOL     OW 5268   1.540   2.136   3.849
  897SOL    HW1 5269   1.479   2.061   3.872
  897SOL    HW2 5270   1.562   2.188   3.932
  898SOL     OW 5271   1.068   3.195   4.573
  898SOL    HW1 5272   1.075   3.111   4.518
  898SOL    HW2 5273   1.130   3.264   4.537
  899SOL     OW 5274   0.319   2.672   4.673
  899SOL    HW1 5275   0.412   2.708   4.678
  899SOL    HW2 5276   0.313   2.587   4.725
  900SOL     OW 5277   0.339   2.371   4.730
  900SOL    HW1 5278   0.287   2.288   4.713
  900SOL    HW2 5279   0.416   2.376   4.666
  901SOL     OW 5280   1.160   2.069   5.201
  901SOL    HW1 5281   1.160   2.133   5.278
  901SOL    HW2 5282   1.188   2.117   5.118
  902SOL     OW 5283   0.008   3.188   3.924
  902SOL    HW1 5284  -0.085   3.209   3.893
  902SOL    HW2 5285   0.018   3.089   3.937
  903SOL     OW 5286   0.088   3.663   4.651
  903SOL    HW1 5287   0.046   3.577   4.624
  903SOL    HW2 5288   0.182   3.666   4.617
  904SOL     OW 5289   0.504   3.430   4.634
  904SOL    HW1 5290   0.570   3.504   4.643
  904SOL    HW2 5291   0.548   3.351   4.592
  905SOL     OW 5292   1.002   2.658   4.962
  905SOL    HW1 5293   1.043   2.626   5.048
  905SOL    HW2 5294   0.906   2.631   4.959
  906SOL     OW 5295   0.040   2.406   4.838
  906SOL    HW1 5296   0.125   2.373   4.797
  906SOL    HW2 5297   0.053   2.421   4.936
  907SOL     OW 5298   0.815   2.434   4.049
  907SOL    HW1 5299   0.822   2.345   4.003
  907SOL    HW2 5300   0.721   2.468   4.041
  908SOL     OW 5301   1.657   2.466   4.930
  908SOL    HW1 5302   1.619   2.397   4.992
  908SOL    HW2 5303   1.739   2.430   4.886
  909SOL     OW 5304   0.671   2.326   4.993
  909SOL    HW1 5305   0.637   2.237   4.963
  909SOL    HW2 5306   0.697   2.380   4.913
  910SOL     OW 5307   0.930   3.540   5.189
  910SOL    HW1 5308   0.906   3.522   5.094
  910SOL    HW2 5309   0.960   3.634   5.199
  911SOL     OW 5310   0.473   2.362   3.915
  911SOL    HW1 5311   0.534   2.442   3.919
  911SOL    HW2 5312   0.378   2.393   3.922
  912SOL     OW 5313   1.347   2.921   4.958
  912SOL    HW1 5314   1.371   2.858   4.884
  912SOL    HW2 5315   1.257   2.961   4.940
  913SOL     OW 5316   1.252   3.593   4.852
  913SOL    HW1 5317   1.336   3.598   4.798
  913SOL    HW2 5318   1.229   3.497   4.870
  914SOL     OW 5319   1.726   1.997   4.247
  914SOL    HW1 5320   1.799   1.980   4.180
  914SOL    HW2 5321   1.695   1.910   4.285
  915SOL     OW 5322   1.388   3.435   4.201
  915SOL    HW1 5323   1.455   3.447   4.127
  915SOL    HW2 5324   1.348   3.524   4.224
  916SOL     OW 5325   0.672   3.478   3.878
  916SOL    HW1 5326   0.681   3.488   3.779
  916SOL    HW2 5327   0.632   3.389   3.899
  917SOL     OW 5328   1.650   3.582   5.118
  917SOL    HW1 5329   1.703   3.592   5.034
  917SOL    HW2 5330   1.623   3.672   5.152
  918SOL     OW 5331   1.841   2.037   4.687
  918SOL    HW1 5332   1.880   1.952   4.651
  918SOL    HW2 5333   1.743   2.039   4.668
  919SOL     OW 5334   0.263   2.188   4.444
  919SOL    HW1 5335   0.184   2.239   4.410
  919SOL    HW2 5336   0.254   2.173   4.542
  920SOL     OW 5337   1.194   3.474   3.755
  920SOL    HW1 5338   1.200   3.381   3.792
  920SOL    HW2 5339   1.135   3.474   3.675
  921SOL     OW 5340   0.822   2.864   5.096
  921SOL    HW1 5341   0.862   2.863   5.004
  921SOL    HW2 5342   0.832   2.956   5.136
  922SOL     OW 5343   1.039   2.960   4.420
  922SOL    HW1 5344   0.969   2.913   4.474
  922SOL    HW2 5345   1.098   2.892   4.377
  923SOL     OW 5346   1.014   2.098   4.695
  923SOL    HW1 5347   1.006   2.062   4.602
  923SOL    HW2 5348   1.012   2.022   4.760
  924SOL     OW 5349   1.709   2.247   5.105
  924SOL    HW1 5350   1.782   2.316   5.109
  924SOL    HW2 5351   1.737   2.172   5.046
  925SOL     OW 5352   0.075   2.207   3.757
  925SOL    HW1 5353  -0.017   2.179   3.728
  925SOL    HW2 5354   0.106   2.284   3.701
  926SOL     OW 5355   0.072   2.028   4.042
  926SOL    HW1 5356   0.055   2.111   3.988
  926SOL    HW2 5357   0.162   1.991   4.020
  927SOL     OW 5358   1.183   3.197   3.843
  927SOL    HW1 5359   1.084   3.186   3.845
  927SOL    HW2 5360   1.217   3.212   3.936
  928SOL     OW 5361   1.493   3.629   4.683
  928SOL    HW1 5362   1.526   3.693   4.614
  928SOL    HW2 5363   1.559   3.623   4.758
  929SOL     OW 5364   1.674   2.745   4.978
  929SOL    HW1 5365   1.647   2.656   4.941
  929SOL    HW2 5366   1.675   2.813   4.905
  930SOL     OW 5367   1.225   2.187   4.173
  930SOL    HW1 5368   1.290   2.113   4.162
  930SOL    HW2 5369   1.245   2.237   4.257
  931SOL     OW 5370   0.594   2.607   4.376
  931SOL    HW1 5371   0.644   2.692   4.357
  931SOL    HW2 5372   0.506   2.609   4.328
  932SOL     OW 5373   1.730   2.796   5.241
  932SOL    HW1 5374   1.768   2.887   5.256
  932SOL    HW2 5375   1.722   2.779   5.142
  933SOL     OW 5376   0.859   3.236   3.740
  933SOL    HW1 5377   0.813   3.251   3.828
  933SOL    HW2 5378   0.903   3.321   3.710
  934SOL     OW 5379   0.661   3.652   4.677
  934SOL    HW1 5380   0.615   3.740   4.664
  934SOL    HW2 5381   0.760   3.664   4.670
  935SOL     OW 5382   0.859   2.818   4.585
  935SOL    HW1 5383   0.913   2.749   4.633
  935SOL    HW2 5384   0.827   2.887   4.651
  936SOL     OW 5385   0.079   3.102   4.377
  936SOL    HW1 5386   0.078   3.055   4.465
  936SOL    HW2 5387   0.161   3.074   4.326
  937SOL     OW 5388   1.824   2.054   4.951
  937SOL    HW1 5389   1.820   1.964   4.995
  937SOL    HW2 5390   1.827   2.043   4.852
  938SOL     OW 5391   0.428   2.286   4.244
  938SOL    HW1 5392   0.458   2.214   4.182
  938SOL    HW2 5393   0.389   2.246   4.327
  939SOL     OW 5394   0.812   3.448   4.411
  939SOL    HW1 5395   0.844   3.458   4.317
  939SOL    HW2 5396   0.733   3.386   4.413
  940SOL     OW 5397   1.424   2.076   4.836
  940SOL    HW1 5398   1.476   2.011   4.891
  940SOL    HW2 5399   1.375   2.139   4.897
  941SOL     OW 5400   1.001   1.896   4.878
  941SOL    HW1 5401   0.938   1.824   4.847
  941SOL    HW2 5402   1.094   1.860   4.878
  942SOL     OW 5403   1.352   1.914   3.892
  942SOL    HW1 5404   1.387   1.873   3.808
  942SOL    HW2 5405   1.262   1.876   3.912
  943SOL     OW 5406   1.300   2.315   4.415
  943SOL    HW1 5407   1.241   2.395   4.419
  943SOL    HW2 5408   1.315   2.280   4.508
  944SOL     OW 5409   1.593   2.083   4.606
  944SOL    HW1 5410   1.509   2.082   4.660
  944SOL    HW2 5411   1.595   2.166   4.550
  945SOL     OW 5412   0.039   2.939   4.024
  945SOL    HW1 5413   0.138   2.928   4.015
  945SOL    HW2 5414  -0.001   2.853   4.056
  946SOL     OW 5415   0.875   3.508   4.061
  946SOL    HW1 5416   0.798   3.473   4.007
  946SOL    HW2 5417   0.843   3.579   4.123
  947SOL     OW 5418   0.230   4.352   0.113
  947SOL    HW1 5419   0.137   4.350   0.150
  947SOL    HW2 5420   0.231   4.313   0.021
  948SOL     OW 5421   0.225   3.999   0.996
  948SOL    HW1 5422   0.260   3.982   1.088
  948SOL    HW2 5423   0.137   3.954   0.984
  949SOL     OW 5424   0.569   4.999   1.165
  949SOL    HW1 5425   0.476   4.992   1.128
  949SOL    HW2 5426   0.580   5.088   1.209
  950SOL     OW 5427   1.135   4.427   0.717
  950SOL    HW1 5428   1.192   4.505   0.692
  950SOL    HW2 5429   1.075   4.453   0.793
  951SOL     OW 5430   1.755   4.331   0.231
  951SOL    HW1 5431   1.743   4.318   0.132
  951SOL    HW2 5432   1.725   4.250   0.280
  952SOL     OW 5433   0.768   4.868   1.023
  952SOL    HW1 5434   0.690   4.885   1.083
  952SOL    HW2 5435   0.802   4.955   0.987
  953SOL     OW 5436   0.685   4.736   0.665
  953SOL    HW1 5437   0.754   4.720   0.735
  953SOL    HW2 5438   0.612   4.793   0.703
  954SOL     OW 5439   0.686   4.885   1.803
  954SOL    HW1 5440   0.746   4.964   1.817
  954SOL    HW2 5441   0.600   4.916   1.762
  955SOL     OW 5442   0.335   5.159   1.061
  955SOL    HW1 5443   0.257   5.128   1.008
  955SOL    HW2 5444   0.393   5.217   1.004
  956SOL     OW 5445   0.438   4.116   1.499
  956SOL    HW1 5446   0.520   4.060   1.508
  956SOL    HW2 5447   0.357   4.058   1.503
  957SOL     OW 5448   0.240   4.815   0.886
  957SOL    HW1 5449   0.254   4.731   0.938
  957SOL    HW2 5450   0.185   4.879   0.941
  958SOL     OW 5451   0.122   4.367   0.563
  958SOL    HW1 5452   0.077   4.279   0.580
  958SOL    HW2 5453   0.121   4.421   0.647
  959SOL     OW 5454   1.689   4.646   0.612
  959SOL    HW1 5455   1.784   4.617   0.620
  959SOL    HW2 5456   1.681   4.711   0.537
  960SOL     OW 5457   1.293   4.952   1.423
  960SOL    HW1 5458   1.330   4.879   1.365
  960SOL    HW2 5459   1.345   4.957   1.508
  961SOL     OW 5460   0.197   4.700   1.264
  961SOL    HW1 5461   0.286   4.655   1.250
  961SOL    HW2 5462   0.124   4.635   1.245
  962SOL     OW 5463   1.525   4.723   0.190
  962SOL    HW1 5464   1.462   4.647   0.203
  962SOL    HW2 5465   1.573   4.741   0.276
  963SOL     OW 5466   0.317   3.975   1.801
  963SOL    HW1 5467   0.388   4.046   1.807
  963SOL    HW2 5468   0.229   4.014   1.829
  964SOL     OW 5469   1.466   5.141   0.953
  964SOL    HW1 5470   1.407   5.147   1.033
  964SOL    HW2 5471   1.451   5.053   0.907
  965SOL     OW 5472   1.394   4.193   1.674
  965SOL    HW1 5473   1.374   4.236   1.762
  965SOL    HW2 5474   1.472   4.131   1.683
  966SOL     OW 5475   0.991   4.134   1.242
  966SOL    HW1 5476   0.914   4.168   1.296
  966SOL    HW2 5477   0.957   4.083   1.163
  967SOL     OW 5478   0.076   4.535   0.789
  967SOL    HW1 5479   0.175   4.523   0.798
  967SOL    HW2 5480   0.052   4.630   0.810
  968SOL     OW 5481   0.865   4.072   0.195
  968SOL    HW1 5482   0.924   4.135   0.146
  968SOL    HW2 5483   0.884   3.978   0.166
  969SOL     OW 5484   1.719   4.309   1.831
  969SOL    HW1 5485   1.693   4.398   1.795
  969SOL    HW2 5486   1.717   4.241   1.758
  970SOL     OW 5487   1.362   4.868   0.545
  970SOL    HW1 5488   1.445   4.839   0.497
  970SOL    HW2 5489   1.313   4.935   0.489
  971SOL     OW 5490   1.795   4.790   0.873
  971SOL    HW1 5491   1.733   4.775   0.797
  971SOL    HW2 5492   1.743   4.801   0.958
  972SOL     OW 5493   1.458   4.459   0.728
  972SOL    HW1 5494   1.453   4.394   0.803
  972SOL    HW2 5495   1.538   4.518   0.741
  973SOL     OW 5496   0.202   4.009   1.498
  973SOL    HW1 5497   0.122   4.069   1.485
  973SOL    HW2 5498   0.192   3.960   1.584
  974SOL     OW 5499   0.781   3.988   1.749
  974SOL    HW1 5500   0.848   3.927   1.792
  974SOL    HW2 5501   0.708   4.007   1.814
  975SOL     OW 5502   0.803   5.126   0.924
  975SOL    HW1 5503   0.893   5.140   0.882
  975SOL    HW2 5504   0.732   5.128   0.853
  976SOL     OW 5505   1.434   4.912   0.041
  976SOL    HW1 5506   1.466   4.836   0.098
  976SOL    HW2 5507   1.342   4.939   0.071
  977SOL     OW 5508   0.459   4.876   0.741
  977SOL    HW1 5509   0.388   4.849   0.806
  977SOL    HW2 5510   0.433   4.848   0.648
  978SOL     OW 5511   1.429   4.897   0.867
  978SOL    HW1 5512   1.374   4.813   0.860
  978SOL    HW2 5513   1.455   4.926   0.775
  979SOL     OW 5514   1.857   4.557   0.377
  979SOL    HW1 5515   1.899   4.493   0.441
  979SOL    HW2 5516   1.819   4.506   0.299
  980SOL     OW 5517   1.390   4.299   0.078
  980SOL    HW1 5518   1.336   4.278   0.159
  980SOL    HW2 5519   1.481   4.258   0.087
  981SOL     OW 5520   1.754   4.947   1.588
  981SOL    HW1 5521   1.845   4.908   1.575
  981SOL    HW2 5522   1.762   5.043   1.612
  982SOL     OW 5523   1.638   4.823   1.079
  982SOL    HW1 5524   1.643   4.904   1.138
  982SOL    HW2 5525   1.552   4.825   1.028
  983SOL     OW 5526   0.915   3.813   1.402
  983SOL    HW1 5527   0.940   3.793   1.307
  983SOL    HW2 5528   0.987   3.869   1.444
  984SOL     OW 5529   1.274   4.110   1.262
  984SOL    HW1 5530   1.295   4.184   1.326
  984SOL    HW2 5531   1.185   4.127   1.219
  985SOL     OW 5532   0.367   4.824   0.501
  985SOL    HW1 5533   0.360   4.907   0.445
  985SOL    HW2 5534   0.371   4.744   0.441
  986SOL     OW 5535   0.566   4.261   0.865
  986SOL    HW1 5536   0.578   4.327   0.791
  986SOL    HW2 5537   0.612   4.295   0.948
  987SOL     OW 5538   1.582   4.363   0.472
  987SOL    HW1 5539   1.551   4.424   0.545
  987SOL    HW2 5540   1.632   4.415   0.403
  988SOL     OW 5541   1.013   3.829   1.770
  988SOL    HW1 5542   1.019   3.914   1.718
  988SOL    HW2 5543   1.045   3.753   1.713
  989SOL     OW 5544   0.573   4.594   1.029
  989SOL    HW1 5545   0.617   4.683   1.020
  989SOL    HW2 5546   0.510   4.594   1.106
  990SOL     OW 5547   0.307   3.937   1.231
  990SOL    HW1 5548   0.284   3.974   1.321
  990SOL    HW2 5549   0.277   3.842   1.225
  991SOL     OW 5550   0.037   5.034   1.282
  991SOL    HW1 5551   0.090   4.985   1.350
  991SOL    HW2 5552   0.059   5.132   1.287
  992SOL     OW 5553   0.732   4.358   1.064
  992SOL    HW1 5554   0.791   4.332   0.988
  992SOL    HW2 5555   0.704   4.454   1.053
  993SOL     OW 5556   1.728   4.659   1.854
  993SOL    HW1 5557   1.682   4.652   1.765
  993SOL    HW2 5558   1.666   4.703   1.920
  994SOL     OW 5559   1.622   4.091   0.374
  994SOL    HW1 5560   1.624   4.015   0.438
  994SOL    HW2 5561   1.574   4.168   0.414
  995SOL     OW 5562   1.023   4.490   0.966
  995SOL    HW1 5563   1.038   4.511   1.062
  995SOL    HW2 5564   0.993   4.395   0.957
  996SOL     OW 5565   1.859   5.242   1.605
  996SOL    HW1 5566   1.873   5.269   1.510
  996SOL    HW2 5567   1.942   5.264   1.658
  997SOL     OW 5568   1.540   3.998   0.125
  997SOL    HW1 5569   1.479   3.923   0.148
  997SOL    HW2 5570   1.562   4.050   0.208
  998SOL     OW 5571   1.303   4.562   0.042
  998SOL    HW1 5572   1.337   4.469   0.057
  998SOL    HW2 5573   1.321   4.589  -0.053
  999SOL     OW 5574   0.319   4.534   0.949
  999SOL    HW1 5575   0.412   4.570   0.954
  999SOL    HW2 5576   0.313   4.449   1.001
 1000SOL     OW 5577   0.339   4.233   1.006
 1000SOL    HW1 5578   0.287   4.150   0.989
 1000SOL    HW2 5579   0.416   4.238   0.942
 1001SOL     OW 5580   1.138   4.104   1.678
 1001SOL    HW1 5581   1.093   4.167   1.742
 1001SOL    HW2 5582   1.231   4.135   1.661
 1002SOL     OW 5583   1.160   3.931   1.477
 1002SOL    HW1 5584   1.160   3.995   1.554
 1002SOL    HW2 5585   1.188   3.979   1.394
 1003SOL     OW 5586   1.002   4.520   1.238
 1003SOL    HW1 5587   1.043   4.488   1.324
 1003SOL    HW2 5588   0.906   4.493   1.235
 1004SOL     OW 5589   1.657   4.328   1.206
 1004SOL    HW1 5590   1.619   4.259   1.268
 1004SOL    HW2 5591   1.739   4.292   1.162
 1005SOL     OW 5592   0.671   4.188   1.269
 1005SOL    HW1 5593   0.637   4.099   1.239
 1005SOL    HW2 5594   0.697   4.242   1.189
 1006SOL     OW 5595   1.347   4.783   1.234
 1006SOL    HW1 5596   1.371   4.720   1.160
 1006SOL    HW2 5597   1.257   4.823   1.216
 1007SOL     OW 5598   1.302   4.579   0.309
 1007SOL    HW1 5599   1.216   4.548   0.351
 1007SOL    HW2 5600   1.298   4.565   0.210
 1008SOL     OW 5601   0.083   4.982   1.022
 1008SOL    HW1 5602   0.078   4.981   1.122
 1008SOL    HW2 5603   0.000   4.941   0.984
 1009SOL     OW 5604   0.903   3.810   0.133
 1009SOL    HW1 5605   0.954   3.811   0.047
 1009SOL    HW2 5606   0.959   3.768   0.204
 1010SOL     OW 5607   1.726   3.859   0.523
 1010SOL    HW1 5608   1.799   3.842   0.456
 1010SOL    HW2 5609   1.695   3.772   0.561
 1011SOL     OW 5610   1.280   4.651   0.672
 1011SOL    HW1 5611   1.340   4.570   0.674
 1011SOL    HW2 5612   1.320   4.720   0.612
 1012SOL     OW 5613   0.830   4.997   1.422
 1012SOL    HW1 5614   0.825   5.030   1.517
 1012SOL    HW2 5615   0.744   5.016   1.376
 1013SOL     OW 5616   1.841   3.899   0.963
 1013SOL    HW1 5617   1.880   3.814   0.927
 1013SOL    HW2 5618   1.743   3.901   0.944
 1014SOL     OW 5619   0.822   4.726   1.372
 1014SOL    HW1 5620   0.862   4.725   1.280
 1014SOL    HW2 5621   0.832   4.818   1.412
 1015SOL     OW 5622   0.372   5.012   1.490
 1015SOL    HW1 5623   0.359   5.105   1.456
 1015SOL    HW2 5624   0.288   4.960   1.477
 1016SOL     OW 5625   1.614   5.016   1.289
 1016SOL    HW1 5626   1.674   5.019   1.369
 1016SOL    HW2 5627   1.539   5.080   1.302
 1017SOL     OW 5628   1.039   4.822   0.696
 1017SOL    HW1 5629   0.969   4.775   0.750
 1017SOL    HW2 5630   1.098   4.754   0.653
 1018SOL     OW 5631   1.014   3.960   0.971
 1018SOL    HW1 5632   1.006   3.924   0.878
 1018SOL    HW2 5633   1.012   3.884   1.036
 1019SOL     OW 5634   0.105   4.737   1.726
 1019SOL    HW1 5635   0.028   4.704   1.780
 1019SOL    HW2 5636   0.190   4.707   1.768
 1020SOL     OW 5637   0.672   3.927   1.489
 1020SOL    HW1 5638   0.762   3.911   1.449
 1020SOL    HW2 5639   0.680   3.932   1.588
 1021SOL     OW 5640   0.075   4.069   0.033
 1021SOL    HW1 5641  -0.017   4.041   0.004
 1021SOL    HW2 5642   0.106   4.146  -0.023
 1022SOL     OW 5643   0.072   3.890   0.318
 1022SOL    HW1 5644   0.055   3.973   0.264
 1022SOL    HW2 5645   0.162   3.853   0.296
 1023SOL     OW 5646   1.450   4.944   1.633
 1023SOL    HW1 5647   1.441   4.934   1.732
 1023SOL    HW2 5648   1.546   4.937   1.607
 1024SOL     OW 5649   1.674   4.607   1.254
 1024SOL    HW1 5650   1.647   4.518   1.217
 1024SOL    HW2 5651   1.675   4.675   1.181
 1025SOL     OW 5652   1.777   4.066   1.642
 1025SOL    HW1 5653   1.760   4.097   1.548
 1025SOL    HW2 5654   1.693   4.029   1.680
 1026SOL     OW 5655   1.730   4.658   1.517
 1026SOL    HW1 5656   1.768   4.749   1.532
 1026SOL    HW2 5657   1.722   4.641   1.418
 1027SOL     OW 5658   0.859   4.680   0.861
 1027SOL    HW1 5659   0.913   4.611   0.909
 1027SOL    HW2 5660   0.827   4.749   0.927
 1028SOL     OW 5661   1.083   4.708   0.087
 1028SOL    HW1 5662   1.060   4.761   0.005
 1028SOL    HW2 5663   1.164   4.652   0.068
 1029SOL     OW 5664   0.079   4.964   0.653
 1029SOL    HW1 5665   0.078   4.917   0.741
 1029SOL    HW2 5666   0.161   4.936   0.602
 1030SOL     OW 5667   0.317   4.271   1.280
 1030SOL    HW1 5668   0.355   4.212   1.352
 1030SOL    HW2 5669   0.357   4.245   1.192
 1031SOL     OW 5670   1.001   3.758   1.154
 1031SOL    HW1 5671   0.938   3.686   1.123
 1031SOL    HW2 5672   1.094   3.722   1.154
 1032SOL     OW 5673   0.770   5.054   0.301
 1032SOL    HW1 5674   0.724   4.967   0.318
 1032SOL    HW2 5675   0.861   5.051   0.342
 1033SOL     OW 5676   1.352   3.776   0.168
 1033SOL    HW1 5677   1.387   3.735   0.084
 1033SOL    HW2 5678   1.262   3.738   0.188
 1034SOL     OW 5679   0.225   3.999   2.858
 1034SOL    HW1 5680   0.260   3.982   2.950
 1034SOL    HW2 5681   0.137   3.954   2.846
 1035SOL     OW 5682   0.019   4.092   2.509
 1035SOL    HW1 5683  -0.063   4.135   2.548
 1035SOL    HW2 5684  -0.009   4.019   2.446
 1036SOL     OW 5685   0.569   4.999   3.027
 1036SOL    HW1 5686   0.476   4.992   2.990
 1036SOL    HW2 5687   0.580   5.088   3.071
 1037SOL     OW 5688   1.135   4.427   2.579
 1037SOL    HW1 5689   1.192   4.505   2.554
 1037SOL    HW2 5690   1.075   4.453   2.655
 1038SOL     OW 5691   1.755   4.331   2.093
 1038SOL    HW1 5692   1.743   4.318   1.994
 1038SOL    HW2 5693   1.725   4.250   2.142
 1039SOL     OW 5694   0.850   4.522   3.685
 1039SOL    HW1 5695   0.846   4.598   3.750
 1039SOL    HW2 5696   0.872   4.558   3.594
 1040SOL     OW 5697   0.685   4.736   2.527
 1040SOL    HW1 5698   0.754   4.720   2.597
 1040SOL    HW2 5699   0.612   4.793   2.565
 1041SOL     OW 5700   0.686   4.885   3.665
 1041SOL    HW1 5701   0.746   4.964   3.679
 1041SOL    HW2 5702   0.600   4.916   3.624
 1042SOL     OW 5703   0.335   5.159   2.923
 1042SOL    HW1 5704   0.257   5.128   2.870
 1042SOL    HW2 5705   0.393   5.217   2.866
 1043SOL     OW 5706   1.603   4.171   2.599
 1043SOL    HW1 5707   1.529   4.217   2.549
 1043SOL    HW2 5708   1.654   4.239   2.652
 1044SOL     OW 5709   0.240   4.815   2.748
 1044SOL    HW1 5710   0.254   4.731   2.800
 1044SOL    HW2 5711   0.185   4.879   2.803
 1045SOL     OW 5712   0.606   4.688   1.985
 1045SOL    HW1 5713   0.613   4.772   1.931
 1045SOL    HW2 5714   0.652   4.701   2.073
 1046SOL     OW 5715   1.594   3.838   3.342
 1046SOL    HW1 5716   1.576   3.905   3.270
 1046SOL    HW2 5717   1.591   3.884   3.431
 1047SOL     OW 5718   0.122   4.367   2.425
 1047SOL    HW1 5719   0.077   4.279   2.442
 1047SOL    HW2 5720   0.121   4.421   2.509
 1048SOL     OW 5721   1.689   4.646   2.474
 1048SOL    HW1 5722   1.784   4.617   2.482
 1048SOL    HW2 5723   1.681   4.711   2.399
 1049SOL     OW 5724   1.641   4.832   2.294
 1049SOL    HW1 5725   1.727   4.834   2.242
 1049SOL    HW2 5726   1.655   4.879   2.382
 1050SOL     OW 5727   1.293   4.952   3.285
 1050SOL    HW1 5728   1.330   4.879   3.227
 1050SOL    HW2 5729   1.345   4.957   3.370
 1051SOL     OW 5730   0.197   4.700   3.126
 1051SOL    HW1 5731   0.286   4.655   3.112
 1051SOL    HW2 5732   0.124   4.635   3.107
 1052SOL     OW 5733   1.525   4.723   2.052
 1052SOL    HW1 5734   1.462   4.647   2.065
 1052SOL    HW2 5735   1.573   4.741   2.138
 1053SOL     OW 5736   0.317   3.975   3.663
 1053SOL    HW1 5737   0.388   4.046   3.669
 1053SOL    HW2 5738   0.229   4.014   3.691
 1054SOL     OW 5739   0.598   4.453   2.132
 1054SOL    HW1 5740   0.622   4.522   2.064
 1054SOL    HW2 5741   0.520   4.486   2.186
 1055SOL     OW 5742   1.281   4.069   2.806
 1055SOL    HW1 5743   1.195   4.019   2.793
 1055SOL    HW2 5744   1.343   4.015   2.862
 1056SOL     OW 5745   0.807   4.329   3.327
 1056SOL    HW1 5746   0.760   4.326   3.416
 1056SOL    HW2 5747   0.756   4.274   3.261
 1057SOL     OW 5748   0.973   4.614   3.434
 1057SOL    HW1 5749   1.019   4.530   3.405
 1057SOL    HW2 5750   0.917   4.648   3.359
 1058SOL     OW 5751   0.991   4.134   3.104
 1058SOL    HW1 5752   0.914   4.168   3.158
 1058SOL    HW2 5753   0.957   4.083   3.025
 1059SOL     OW 5754   0.076   4.535   2.651
 1059SOL    HW1 5755   0.175   4.523   2.660
 1059SOL    HW2 5756   0.052   4.630   2.672
 1060SOL     OW 5757   0.865   4.072   2.057
 1060SOL    HW1 5758   0.924   4.135   2.008
 1060SOL    HW2 5759   0.884   3.978   2.028
 1061SOL     OW 5760   1.719   4.309   3.693
 1061SOL    HW1 5761   1.693   4.398   3.657
 1061SOL    HW2 5762   1.717   4.241   3.620
 1062SOL     OW 5763   0.550   3.920   2.747
 1062SOL    HW1 5764   0.545   3.915   2.847
 1062SOL    HW2 5765   0.552   4.016   2.718
 1063SOL     OW 5766   1.795   4.790   2.735
 1063SOL    HW1 5767   1.733   4.775   2.659
 1063SOL    HW2 5768   1.743   4.801   2.820
 1064SOL     OW 5769   0.321   4.667   2.104
 1064SOL    HW1 5770   0.403   4.706   2.062
 1064SOL    HW2 5771   0.294   4.585   2.055
 1065SOL     OW 5772   1.458   4.459   2.590
 1065SOL    HW1 5773   1.453   4.394   2.665
 1065SOL    HW2 5774   1.538   4.518   2.603
 1066SOL     OW 5775   1.632   5.101   1.943
 1066SOL    HW1 5776   1.600   5.195   1.933
 1066SOL    HW2 5777   1.556   5.038   1.931
 1067SOL     OW 5778   1.547   3.946   3.591
 1067SOL    HW1 5779   1.542   3.983   3.683
 1067SOL    HW2 5780   1.475   3.877   3.579
 1068SOL     OW 5781   1.351   4.314   3.295
 1068SOL    HW1 5782   1.379   4.271   3.380
 1068SOL    HW2 5783   1.376   4.410   3.296
 1069SOL     OW 5784   0.922   4.227   2.761
 1069SOL    HW1 5785   0.897   4.218   2.665
 1069SOL    HW2 5786   0.970   4.145   2.792
 1070SOL     OW 5787   1.434   4.912   1.903
 1070SOL    HW1 5788   1.466   4.836   1.960
 1070SOL    HW2 5789   1.342   4.939   1.933
 1071SOL     OW 5790   0.935   3.960   2.342
 1071SOL    HW1 5791   0.887   4.001   2.264
 1071SOL    HW2 5792   1.034   3.958   2.323
 1072SOL     OW 5793   1.076   4.407   3.326
 1072SOL    HW1 5794   0.996   4.346   3.329
 1072SOL    HW2 5795   1.157   4.354   3.302
 1073SOL     OW 5796   0.459   4.876   2.603
 1073SOL    HW1 5797   0.388   4.849   2.668
 1073SOL    HW2 5798   0.433   4.848   2.510
 1074SOL     OW 5799   0.078   4.280   3.248
 1074SOL    HW1 5800   0.170   4.279   3.207
 1074SOL    HW2 5801   0.072   4.354   3.315
 1075SOL     OW 5802   0.866   4.178   2.504
 1075SOL    HW1 5803   0.834   4.250   2.442
 1075SOL    HW2 5804   0.890   4.097   2.451
 1076SOL     OW 5805   1.466   4.314   2.854
 1076SOL    HW1 5806   1.436   4.219   2.861
 1076SOL    HW2 5807   1.539   4.330   2.920
 1077SOL     OW 5808   1.857   4.557   2.239
 1077SOL    HW1 5809   1.899   4.493   2.303
 1077SOL    HW2 5810   1.819   4.506   2.161
 1078SOL     OW 5811   1.390   4.299   1.940
 1078SOL    HW1 5812   1.336   4.278   2.021
 1078SOL    HW2 5813   1.481   4.258   1.949
 1079SOL     OW 5814   0.527   3.980   2.190
 1079SOL    HW1 5815   0.554   3.921   2.115
 1079SOL    HW2 5816   0.527   4.075   2.159
 1080SOL     OW 5817   1.754   4.947   3.450
 1080SOL    HW1 5818   1.845   4.908   3.437
 1080SOL    HW2 5819   1.762   5.043   3.474
 1081SOL     OW 5820   1.638   4.823   2.941
 1081SOL    HW1 5821   1.643   4.904   3.000
 1081SOL    HW2 5822   1.552   4.825   2.890
 1082SOL     OW 5823   0.915   3.813   3.264
 1082SOL    HW1 5824   0.940   3.793   3.169
 1082SOL    HW2 5825   0.987   3.869   3.306
 1083SOL     OW 5826   0.980   4.840   3.581
 1083SOL    HW1 5827   0.881   4.846   3.591
 1083SOL    HW2 5828   1.003   4.760   3.525
 1084SOL     OW 5829   0.705   4.774   2.230
 1084SOL    HW1 5830   0.691   4.781   2.329
 1084SOL    HW2 5831   0.789   4.723   2.212
 1085SOL     OW 5832   0.410   4.537   3.113
 1085SOL    HW1 5833   0.496   4.549   3.163
 1085SOL    HW2 5834   0.368   4.450   3.140
 1086SOL     OW 5835   1.274   4.110   3.124
 1086SOL    HW1 5836   1.295   4.184   3.188
 1086SOL    HW2 5837   1.185   4.127   3.081
 1087SOL     OW 5838   0.367   4.824   2.363
 1087SOL    HW1 5839   0.360   4.907   2.307
 1087SOL    HW2 5840   0.371   4.744   2.303
 1088SOL     OW 5841   0.566   4.261   2.727
 1088SOL    HW1 5842   0.578   4.327   2.653
 1088SOL    HW2 5843   0.612   4.295   2.810
 1089SOL     OW 5844   1.582   4.363   2.334
 1089SOL    HW1 5845   1.551   4.424   2.407
 1089SOL    HW2 5846   1.632   4.415   2.265
 1090SOL     OW 5847   0.402   4.475   3.460
 1090SOL    HW1 5848   0.470   4.530   3.413
 1090SOL    HW2 5849   0.442   4.387   3.487
 1091SOL     OW 5850   1.587   4.503   3.532
 1091SOL    HW1 5851   1.495   4.541   3.527
 1091SOL    HW2 5852   1.647   4.550   3.467
 1092SOL     OW 5853   1.013   3.829   3.632
 1092SOL    HW1 5854   1.019   3.914   3.580
 1092SOL    HW2 5855   1.045   3.753   3.575
 1093SOL     OW 5856   0.573   4.594   2.891
 1093SOL    HW1 5857   0.617   4.683   2.882
 1093SOL    HW2 5858   0.510   4.594   2.968
 1094SOL     OW 5859   0.037   5.034   3.144
 1094SOL    HW1 5860   0.090   4.985   3.212
 1094SOL    HW2 5861   0.059   5.132   3.149
 1095SOL     OW 5862   0.732   4.358   2.926
 1095SOL    HW1 5863   0.791   4.332   2.850
 1095SOL    HW2 5864   0.704   4.454   2.915
 1096SOL     OW 5865   1.728   4.659   3.716
 1096SOL    HW1 5866   1.682   4.652   3.627
 1096SOL    HW2 5867   1.666   4.703   3.782
 1097SOL     OW 5868   1.622   4.091   2.236
 1097SOL    HW1 5869   1.624   4.015   2.300
 1097SOL    HW2 5870   1.574   4.168   2.276
 1098SOL     OW 5871   1.023   4.490   2.828
 1098SOL    HW1 5872   1.038   4.511   2.924
 1098SOL    HW2 5873   0.993   4.395   2.819
 1099SOL     OW 5874   0.350   4.622   3.666
 1099SOL    HW1 5875   0.426   4.666   3.714
 1099SOL    HW2 5876   0.385   4.575   3.584
 1100SOL     OW 5877   0.319   4.534   2.811
 1100SOL    HW1 5878   0.412   4.570   2.816
 1100SOL    HW2 5879   0.313   4.449   2.863
 1101SOL     OW 5880   0.339   4.233   2.868
 1101SOL    HW1 5881   0.287   4.150   2.851
 1101SOL    HW2 5882   0.416   4.238   2.804
 1102SOL     OW 5883   1.160   3.931   3.339
 1102SOL    HW1 5884   1.160   3.995   3.416
 1102SOL    HW2 5885   1.188   3.979   3.256
 1103SOL     OW 5886   1.002   4.520   3.100
 1103SOL    HW1 5887   1.043   4.488   3.186
 1103SOL    HW2 5888   0.906   4.493   3.097
 1104SOL     OW 5889   0.040   4.268   2.976
 1104SOL    HW1 5890   0.125   4.235   2.935
 1104SOL    HW2 5891   0.053   4.283   3.074
 1105SOL     OW 5892   1.369   4.674   3.522
 1105SOL    HW1 5893   1.408   4.763   3.542
 1105SOL    HW2 5894   1.379   4.654   3.425
 1106SOL     OW 5895   1.657   4.328   3.068
 1106SOL    HW1 5896   1.619   4.259   3.130
 1106SOL    HW2 5897   1.739   4.292   3.024
 1107SOL     OW 5898   0.473   4.224   2.053
 1107SOL    HW1 5899   0.534   4.304   2.057
 1107SOL    HW2 5900   0.378   4.255   2.060
 1108SOL     OW 5901   0.159   4.861   3.328
 1108SOL    HW1 5902   0.181   4.800   3.404
 1108SOL    HW2 5903   0.169   4.812   3.242
 1109SOL     OW 5904   1.347   4.783   3.096
 1109SOL    HW1 5905   1.371   4.720   3.022
 1109SOL    HW2 5906   1.257   4.823   3.078
 1110SOL     OW 5907   0.083   4.982   2.884
 1110SOL    HW1 5908   0.078   4.981   2.984
 1110SOL    HW2 5909   0.000   4.941   2.846
 1111SOL     OW 5910   1.280   4.651   2.534
 1111SOL    HW1 5911   1.340   4.570   2.536
 1111SOL    HW2 5912   1.320   4.720   2.474
 1112SOL     OW 5913   0.830   4.997   3.284
 1112SOL    HW1 5914   0.825   5.030   3.379
 1112SOL    HW2 5915   0.744   5.016   3.238
 1113SOL     OW 5916   1.841   3.899   2.825
 1113SOL    HW1 5917   1.880   3.814   2.789
 1113SOL    HW2 5918   1.743   3.901   2.806
 1114SOL     OW 5919   0.263   4.050   2.582
 1114SOL    HW1 5920   0.184   4.101   2.548
 1114SOL    HW2 5921   0.254   4.035   2.680
 1115SOL     OW 5922   1.194   5.336   1.893
 1115SOL    HW1 5923   1.200   5.243   1.930
 1115SOL    HW2 5924   1.135   5.336   1.813
 1116SOL     OW 5925   0.372   5.012   3.352
 1116SOL    HW1 5926   0.359   5.105   3.318
 1116SOL    HW2 5927   0.288   4.960   3.339
 1117SOL     OW 5928   1.614   5.016   3.151
 1117SOL    HW1 5929   1.674   5.019   3.231
 1117SOL    HW2 5930   1.539   5.080   3.164
 1118SOL     OW 5931   1.039   4.822   2.558
 1118SOL    HW1 5932   0.969   4.775   2.612
 1118SOL    HW2 5933   1.098   4.754   2.515
 1119SOL     OW 5934   1.014   3.960   2.833
 1119SOL    HW1 5935   1.006   3.924   2.740
 1119SOL    HW2 5936   1.012   3.884   2.898
 1120SOL     OW 5937   1.709   4.109   3.243
 1120SOL    HW1 5938   1.782   4.178   3.247
 1120SOL    HW2 5939   1.737   4.034   3.184
 1121SOL     OW 5940   0.105   4.737   3.588
 1121SOL    HW1 5941   0.028   4.704   3.642
 1121SOL    HW2 5942   0.190   4.707   3.630
 1122SOL     OW 5943   0.075   4.069   1.895
 1122SOL    HW1 5944  -0.017   4.041   1.866
 1122SOL    HW2 5945   0.106   4.146   1.839
 1123SOL     OW 5946   1.440   4.580   3.260
 1123SOL    HW1 5947   1.383   4.632   3.197
 1123SOL    HW2 5948   1.536   4.592   3.236
 1124SOL     OW 5949   0.613   4.566   3.293
 1124SOL    HW1 5950   0.669   4.647   3.276
 1124SOL    HW2 5951   0.672   4.486   3.296
 1125SOL     OW 5952   0.716   4.289   3.570
 1125SOL    HW1 5953   0.735   4.354   3.644
 1125SOL    HW2 5954   0.776   4.209   3.579
 1126SOL     OW 5955   1.450   4.944   3.495
 1126SOL    HW1 5956   1.441   4.934   3.594
 1126SOL    HW2 5957   1.546   4.937   3.469
 1127SOL     OW 5958   1.674   4.607   3.116
 1127SOL    HW1 5959   1.647   4.518   3.079
 1127SOL    HW2 5960   1.675   4.675   3.043
 1128SOL     OW 5961   0.594   4.469   2.514
 1128SOL    HW1 5962   0.644   4.554   2.495
 1128SOL    HW2 5963   0.506   4.471   2.466
 1129SOL     OW 5964   1.777   4.066   3.504
 1129SOL    HW1 5965   1.760   4.097   3.410
 1129SOL    HW2 5966   1.693   4.029   3.542
 1130SOL     OW 5967   1.730   4.658   3.379
 1130SOL    HW1 5968   1.768   4.749   3.394
 1130SOL    HW2 5969   1.722   4.641   3.280
 1131SOL     OW 5970   0.859   4.680   2.723
 1131SOL    HW1 5971   0.913   4.611   2.771
 1131SOL    HW2 5972   0.827   4.749   2.789
 1132SOL     OW 5973   0.079   4.964   2.515
 1132SOL    HW1 5974   0.078   4.917   2.603
 1132SOL    HW2 5975   0.161   4.936   2.464
 1133SOL     OW 5976   1.824   3.916   3.089
 1133SOL    HW1 5977   1.820   3.826   3.133
 1133SOL    HW2 5978   1.827   3.905   2.990
 1134SOL     OW 5979   1.424   3.938   2.974
 1134SOL    HW1 5980   1.476   3.873   3.029
 1134SOL    HW2 5981   1.375   4.001   3.035
 1135SOL     OW 5982   1.001   3.758   3.016
 1135SOL    HW1 5983   0.938   3.686   2.985
 1135SOL    HW2 5984   1.094   3.722   3.016
 1136SOL     OW 5985   0.770   5.054   2.163
 1136SOL    HW1 5986   0.724   4.967   2.180
 1136SOL    HW2 5987   0.861   5.051   2.204
 1137SOL     OW 5988   1.300   4.177   2.553
 1137SOL    HW1 5989   1.241   4.257   2.557
 1137SOL    HW2 5990   1.315   4.142   2.646
 1138SOL     OW 5991   1.593   3.945   2.744
 1138SOL    HW1 5992   1.509   3.944   2.798
 1138SOL    HW2 5993   1.595   4.028   2.688
 1139SOL     OW 5994   0.225   3.999   4.720
 1139SOL    HW1 5995   0.260   3.982   4.812
 1139SOL    HW2 5996   0.137   3.954   4.708
 1140SOL     OW 5997   0.019   4.092   4.371
 1140SOL    HW1 5998  -0.063   4.135   4.410
 1140SOL    HW2 5999  -0.009   4.019   4.308
 1141SOL     OW 6000   0.569   4.999   4.889
 1141SOL    HW1 6001   0.476   4.992   4.852
 1141SOL    HW2 6002   0.580   5.088   4.933
 1142SOL     OW 6003   1.555   5.235   4.427
 1142SOL    HW1 6004   1.498   5.219   4.508
 1142SOL    HW2 6005   1.496   5.245   4.347
 1143SOL     OW 6006   0.685   4.736   4.389
 1143SOL    HW1 6007   0.754   4.720   4.459
 1143SOL    HW2 6008   0.612   4.793   4.427
 1144SOL     OW 6009   0.335   5.159   4.785
 1144SOL    HW1 6010   0.257   5.128   4.732
 1144SOL    HW2 6011   0.393   5.217   4.728
 1145SOL     OW 6012   1.603   4.171   4.461
 1145SOL    HW1 6013   1.529   4.217   4.411
 1145SOL    HW2 6014   1.654   4.239   4.514
 1146SOL     OW 6015   0.240   4.815   4.610
 1146SOL    HW1 6016   0.254   4.731   4.662
 1146SOL    HW2 6017   0.185   4.879   4.665
 1147SOL     OW 6018   0.606   4.688   3.847
 1147SOL    HW1 6019   0.613   4.772   3.793
 1147SOL    HW2 6020   0.652   4.701   3.935
 1148SOL     OW 6021   0.809   3.728   4.226
 1148SOL    HW1 6022   0.849   3.819   4.217
 1148SOL    HW2 6023   0.709   3.736   4.232
 1149SOL     OW 6024   1.466   5.141   4.677
 1149SOL    HW1 6025   1.407   5.147   4.757
 1149SOL    HW2 6026   1.451   5.053   4.631
 1150SOL     OW 6027   1.281   4.069   4.668
 1150SOL    HW1 6028   1.195   4.019   4.655
 1150SOL    HW2 6029   1.343   4.015   4.724
 1151SOL     OW 6030   0.991   4.134   4.966
 1151SOL    HW1 6031   0.914   4.168   5.020
 1151SOL    HW2 6032   0.957   4.083   4.887
 1152SOL     OW 6033   1.041   4.425   4.153
 1152SOL    HW1 6034   1.067   4.421   4.249
 1152SOL    HW2 6035   0.956   4.374   4.139
 1153SOL     OW 6036   0.076   4.535   4.513
 1153SOL    HW1 6037   0.175   4.523   4.522
 1153SOL    HW2 6038   0.052   4.630   4.534
 1154SOL     OW 6039   1.362   4.868   4.269
 1154SOL    HW1 6040   1.445   4.839   4.221
 1154SOL    HW2 6041   1.313   4.935   4.213
 1155SOL     OW 6042   0.550   3.920   4.609
 1155SOL    HW1 6043   0.545   3.915   4.709
 1155SOL    HW2 6044   0.552   4.016   4.580
 1156SOL     OW 6045   1.795   4.790   4.597
 1156SOL    HW1 6046   1.733   4.775   4.521
 1156SOL    HW2 6047   1.743   4.801   4.682
 1157SOL     OW 6048   0.321   4.667   3.966
 1157SOL    HW1 6049   0.403   4.706   3.924
 1157SOL    HW2 6050   0.294   4.585   3.917
 1158SOL     OW 6051   1.632   5.101   3.805
 1158SOL    HW1 6052   1.600   5.195   3.795
 1158SOL    HW2 6053   1.556   5.038   3.793
 1159SOL     OW 6054   0.922   4.227   4.623
 1159SOL    HW1 6055   0.897   4.218   4.527
 1159SOL    HW2 6056   0.970   4.145   4.654
 1160SOL     OW 6057   0.539   3.788   4.236
 1160SOL    HW1 6058   0.458   3.789   4.294
 1160SOL    HW2 6059   0.542   3.871   4.181
 1161SOL     OW 6060   1.434   4.912   3.765
 1161SOL    HW1 6061   1.466   4.836   3.822
 1161SOL    HW2 6062   1.342   4.939   3.795
 1162SOL     OW 6063   1.227   5.294   4.517
 1162SOL    HW1 6064   1.248   5.368   4.452
 1162SOL    HW2 6065   1.295   5.294   4.590
 1163SOL     OW 6066   0.459   4.876   4.465
 1163SOL    HW1 6067   0.388   4.849   4.530
 1163SOL    HW2 6068   0.433   4.848   4.372
 1164SOL     OW 6069   1.032   4.273   3.740
 1164SOL    HW1 6070   0.991   4.355   3.701
 1164SOL    HW2 6071   1.096   4.299   3.813
 1165SOL     OW 6072   0.561   3.946   4.871
 1165SOL    HW1 6073   0.599   3.862   4.908
 1165SOL    HW2 6074   0.473   3.965   4.915
 1166SOL     OW 6075   1.017   3.763   4.477
 1166SOL    HW1 6076   0.945   3.768   4.408
 1166SOL    HW2 6077   0.993   3.694   4.546
 1167SOL     OW 6078   1.429   4.897   4.591
 1167SOL    HW1 6079   1.374   4.813   4.584
 1167SOL    HW2 6080   1.455   4.926   4.499
 1168SOL     OW 6081   1.466   4.314   4.716
 1168SOL    HW1 6082   1.436   4.219   4.723
 1168SOL    HW2 6083   1.539   4.330   4.782
 1169SOL     OW 6084   1.664   5.004   4.381
 1169SOL    HW1 6085   1.763   5.012   4.395
 1169SOL    HW2 6086   1.619   5.088   4.412
 1170SOL     OW 6087   0.527   3.980   4.052
 1170SOL    HW1 6088   0.554   3.921   3.977
 1170SOL    HW2 6089   0.527   4.075   4.021
 1171SOL     OW 6090   0.705   4.774   4.092
 1171SOL    HW1 6091   0.691   4.781   4.191
 1171SOL    HW2 6092   0.789   4.723   4.074
 1172SOL     OW 6093   1.274   4.110   4.986
 1172SOL    HW1 6094   1.295   4.184   5.050
 1172SOL    HW2 6095   1.185   4.127   4.943
 1173SOL     OW 6096   0.367   4.824   4.225
 1173SOL    HW1 6097   0.360   4.907   4.169
 1173SOL    HW2 6098   0.371   4.744   4.165
 1174SOL     OW 6099   0.566   4.261   4.589
 1174SOL    HW1 6100   0.578   4.327   4.515
 1174SOL    HW2 6101   0.612   4.295   4.672
 1175SOL     OW 6102   0.573   4.594   4.753
 1175SOL    HW1 6103   0.617   4.683   4.744
 1175SOL    HW2 6104   0.510   4.594   4.830
 1176SOL     OW 6105   0.307   3.937   4.955
 1176SOL    HW1 6106   0.284   3.974   5.045
 1176SOL    HW2 6107   0.277   3.842   4.949
 1177SOL     OW 6108   0.732   4.358   4.788
 1177SOL    HW1 6109   0.791   4.332   4.712
 1177SOL    HW2 6110   0.704   4.454   4.777
 1178SOL     OW 6111   0.307   3.787   4.342
 1178SOL    HW1 6112   0.296   3.881   4.375
 1178SOL    HW2 6113   0.302   3.724   4.419
 1179SOL     OW 6114   1.622   4.091   4.098
 1179SOL    HW1 6115   1.624   4.015   4.162
 1179SOL    HW2 6116   1.574   4.168   4.138
 1180SOL     OW 6117   1.023   4.490   4.690
 1180SOL    HW1 6118   1.038   4.511   4.786
 1180SOL    HW2 6119   0.993   4.395   4.681
 1181SOL     OW 6120   1.540   3.998   3.849
 1181SOL    HW1 6121   1.479   3.923   3.872
 1181SOL    HW2 6122   1.562   4.050   3.932
 1182SOL     OW 6123   1.303   4.562   3.766
 1182SOL    HW1 6124   1.337   4.469   3.781
 1182SOL    HW2 6125   1.321   4.589   3.671
 1183SOL     OW 6126   0.319   4.534   4.673
 1183SOL    HW1 6127   0.412   4.570   4.678
 1183SOL    HW2 6128   0.313   4.449   4.725
 1184SOL     OW 6129   0.339   4.233   4.730
 1184SOL    HW1 6130   0.287   4.150   4.713
 1184SOL    HW2 6131   0.416   4.238   4.666
 1185SOL     OW 6132   0.008   5.050   3.924
 1185SOL    HW1 6133  -0.085   5.071   3.893
 1185SOL    HW2 6134   0.018   4.951   3.937
 1186SOL     OW 6135   1.002   4.520   4.962
 1186SOL    HW1 6136   1.043   4.488   5.048
 1186SOL    HW2 6137   0.906   4.493   4.959
 1187SOL     OW 6138   0.040   4.268   4.838
 1187SOL    HW1 6139   0.125   4.235   4.797
 1187SOL    HW2 6140   0.053   4.283   4.936
 1188SOL     OW 6141   1.657   4.328   4.930
 1188SOL    HW1 6142   1.619   4.259   4.992
 1188SOL    HW2 6143   1.739   4.292   4.886
 1189SOL     OW 6144   0.671   4.188   4.993
 1189SOL    HW1 6145   0.637   4.099   4.963
 1189SOL    HW2 6146   0.697   4.242   4.913
 1190SOL     OW 6147   1.347   4.783   4.958
 1190SOL    HW1 6148   1.371   4.720   4.884
 1190SOL    HW2 6149   1.257   4.823   4.940
 1191SOL     OW 6150   0.083   4.982   4.746
 1191SOL    HW1 6151   0.078   4.981   4.846
 1191SOL    HW2 6152   0.000   4.941   4.708
 1192SOL     OW 6153   1.726   3.859   4.247
 1192SOL    HW1 6154   1.799   3.842   4.180
 1192SOL    HW2 6155   1.695   3.772   4.285
 1193SOL     OW 6156   0.830   4.997   5.146
 1193SOL    HW1 6157   0.825   5.030   5.241
 1193SOL    HW2 6158   0.744   5.016   5.100
 1194SOL     OW 6159   1.194   5.336   3.755
 1194SOL    HW1 6160   1.200   5.243   3.792
 1194SOL    HW2 6161   1.135   5.336   3.675
 1195SOL     OW 6162   0.822   4.726   5.096
 1195SOL    HW1 6163   0.862   4.725   5.004
 1195SOL    HW2 6164   0.832   4.818   5.136
 1196SOL     OW 6165   0.916   4.634   4.015
 1196SOL    HW1 6166   0.979   4.672   3.947
 1196SOL    HW2 6167   0.956   4.551   4.054
 1197SOL     OW 6168   1.039   4.822   4.420
 1197SOL    HW1 6169   0.969   4.775   4.474
 1197SOL    HW2 6170   1.098   4.754   4.377
 1198SOL     OW 6171   1.014   3.960   4.695
 1198SOL    HW1 6172   1.006   3.924   4.602
 1198SOL    HW2 6173   1.012   3.884   4.760
 1199SOL     OW 6174   1.709   4.109   5.105
 1199SOL    HW1 6175   1.782   4.178   5.109
 1199SOL    HW2 6176   1.737   4.034   5.046
 1200SOL     OW 6177   0.075   4.069   3.757
 1200SOL    HW1 6178  -0.017   4.041   3.728
 1200SOL    HW2 6179   0.106   4.146   3.701
 1201SOL     OW 6180   1.450   4.944   5.357
 1201SOL    HW1 6181   1.441   4.934   5.456
 1201SOL    HW2 6182   1.546   4.937   5.331
 1202SOL     OW 6183   1.674   4.607   4.978
 1202SOL    HW1 6184   1.647   4.518   4.941
 1202SOL    HW2 6185   1.675   4.675   4.905
 1203SOL     OW 6186   0.594   4.469   4.376
 1203SOL    HW1 6187   0.644   4.554   4.357
 1203SOL    HW2 6188   0.506   4.471   4.328
 1204SOL     OW 6189   1.730   4.658   5.241
 1204SOL    HW1 6190   1.768   4.749   5.256
 1204SOL    HW2 6191   1.722   4.641   5.142
 1205SOL     OW 6192   0.859   4.680   4.585
 1205SOL    HW1 6193   0.913   4.611   4.633
 1205SOL    HW2 6194   0.827   4.749   4.651
 1206SOL     OW 6195   1.083   4.708   3.811
 1206SOL    HW1 6196   1.060   4.761   3.729
 1206SOL    HW2 6197   1.164   4.652   3.792
 1207SOL     OW 6198   0.079   4.964   4.377
 1207SOL    HW1 6199   0.078   4.917   4.465
 1207SOL    HW2 6200   0.161   4.936   4.326
 1208SOL     OW 6201   1.824   3.916   4.951
 1208SOL    HW1 6202   1.820   3.826   4.995
 1208SOL    HW2 6203   1.827   3.905   4.852
 1209SOL     OW 6204   1.424   3.938   4.836
 1209SOL    HW1 6205   1.476   3.873   4.891
 1209SOL    HW2 6206   1.375   4.001   4.897
 1210SOL     OW 6207   1.001   3.758   4.878
 1210SOL    HW1 6208   0.938   3.686   4.847
 1210SOL    HW2 6209   1.094   3.722   4.878
 1211SOL     OW 6210   1.593   3.945   4.606
 1211SOL    HW1 6211   1.509   3.944   4.660
 1211SOL    HW2 6212   1.595   4.028   4.550
 1212SOL     OW 6213   0.039   4.801   4.024
 1212SOL    HW1 6214   0.138   4.790   4.015
 1212SOL    HW2 6215  -0.001   4.715   4.056
 1213SOL     OW 6216   2.092   0.628   0.113
 1213SOL    HW1 6217   1.999   0.626   0.150
 1213SOL    HW2 6218   2.093   0.589   0.021
 1214SOL     OW 6219   2.087   0.275   0.996
 1214SOL    HW1 6220   2.122   0.258   1.088
 1214SOL    HW2 6221   1.999   0.230   0.984
 1215SOL     OW 6222   1.881   0.368   0.647
 1215SOL    HW1 6223   1.799   0.411   0.686
 1215SOL    HW2 6224   1.853   0.295   0.584
 1216SOL     OW 6225   2.431   1.275   1.165
 1216SOL    HW1 6226   2.338   1.268   1.128
 1216SOL    HW2 6227   2.442   1.364   1.209
 1217SOL     OW 6228   3.617   0.607   0.231
 1217SOL    HW1 6229   3.605   0.594   0.132
 1217SOL    HW2 6230   3.587   0.526   0.280
 1218SOL     OW 6231   3.322   1.505   1.339
 1218SOL    HW1 6232   3.346   1.599   1.365
 1218SOL    HW2 6233   3.306   1.451   1.421
 1219SOL     OW 6234   2.300   0.392   1.499
 1219SOL    HW1 6235   2.382   0.336   1.508
 1219SOL    HW2 6236   2.219   0.334   1.503
 1220SOL     OW 6237   3.465   0.447   0.737
 1220SOL    HW1 6238   3.391   0.493   0.687
 1220SOL    HW2 6239   3.516   0.515   0.790
 1221SOL     OW 6240   2.989   1.341   1.690
 1221SOL    HW1 6241   3.036   1.341   1.778
 1221SOL    HW2 6242   2.941   1.254   1.679
 1222SOL     OW 6243   2.482   1.786   1.439
 1222SOL    HW1 6244   2.390   1.769   1.474
 1222SOL    HW2 6245   2.510   1.878   1.465
 1223SOL     OW 6246   2.468   0.964   0.123
 1223SOL    HW1 6247   2.475   1.048   0.069
 1223SOL    HW2 6248   2.514   0.977   0.211
 1224SOL     OW 6249   1.984   0.643   0.563
 1224SOL    HW1 6250   1.939   0.555   0.580
 1224SOL    HW2 6251   1.983   0.697   0.647
 1225SOL     OW 6252   3.704   1.767   0.359
 1225SOL    HW1 6253   3.758   1.738   0.439
 1225SOL    HW2 6254   3.734   1.857   0.330
 1226SOL     OW 6255   3.551   0.922   0.612
 1226SOL    HW1 6256   3.646   0.893   0.620
 1226SOL    HW2 6257   3.543   0.987   0.537
 1227SOL     OW 6258   1.975   0.737   1.597
 1227SOL    HW1 6259   2.063   0.724   1.642
 1227SOL    HW2 6260   1.962   0.834   1.575
 1228SOL     OW 6261   2.475   1.365   0.726
 1228SOL    HW1 6262   2.426   1.278   0.735
 1228SOL    HW2 6263   2.452   1.408   0.639
 1229SOL     OW 6264   3.155   1.228   1.423
 1229SOL    HW1 6265   3.192   1.155   1.365
 1229SOL    HW2 6266   3.207   1.233   1.508
 1230SOL     OW 6267   2.671   0.004   0.502
 1230SOL    HW1 6268   2.711   0.095   0.493
 1230SOL    HW2 6269   2.571   0.012   0.508
 1231SOL     OW 6270   3.387   0.999   0.190
 1231SOL    HW1 6271   3.324   0.923   0.203
 1231SOL    HW2 6272   3.435   1.017   0.276
 1232SOL     OW 6273   3.049   1.792   1.616
 1232SOL    HW1 6274   3.073   1.852   1.540
 1232SOL    HW2 6275   3.056   1.697   1.586
 1233SOL     OW 6276   2.179   0.251   1.801
 1233SOL    HW1 6277   2.250   0.322   1.807
 1233SOL    HW2 6278   2.091   0.290   1.829
 1234SOL     OW 6279   3.328   1.417   0.953
 1234SOL    HW1 6280   3.269   1.423   1.033
 1234SOL    HW2 6281   3.313   1.329   0.907
 1235SOL     OW 6282   2.460   0.729   0.270
 1235SOL    HW1 6283   2.484   0.798   0.202
 1235SOL    HW2 6284   2.382   0.762   0.324
 1236SOL     OW 6285   2.669   0.605   1.465
 1236SOL    HW1 6286   2.622   0.602   1.554
 1236SOL    HW2 6287   2.618   0.550   1.399
 1237SOL     OW 6288   3.256   0.469   1.674
 1237SOL    HW1 6289   3.236   0.512   1.762
 1237SOL    HW2 6290   3.334   0.407   1.683
 1238SOL     OW 6291   2.903   0.701   0.429
 1238SOL    HW1 6292   2.929   0.697   0.525
 1238SOL    HW2 6293   2.818   0.650   0.415
 1239SOL     OW 6294   1.992   1.821   1.571
 1239SOL    HW1 6295   1.982   1.806   1.670
 1239SOL    HW2 6296   1.906   1.857   1.535
 1240SOL     OW 6297   2.727   0.348   0.195
 1240SOL    HW1 6298   2.786   0.411   0.146
 1240SOL    HW2 6299   2.746   0.254   0.166
 1241SOL     OW 6300   3.581   0.585   1.831
 1241SOL    HW1 6301   3.555   0.674   1.795
 1241SOL    HW2 6302   3.579   0.517   1.758
 1242SOL     OW 6303   2.412   0.196   0.885
 1242SOL    HW1 6304   2.407   0.191   0.985
 1242SOL    HW2 6305   2.414   0.292   0.856
 1243SOL     OW 6306   2.870   1.456   0.477
 1243SOL    HW1 6307   2.824   1.528   0.425
 1243SOL    HW2 6308   2.866   1.476   0.575
 1244SOL     OW 6309   3.657   1.066   0.873
 1244SOL    HW1 6310   3.595   1.051   0.797
 1244SOL    HW2 6311   3.605   1.077   0.958
 1245SOL     OW 6312   3.089   1.550   1.506
 1245SOL    HW1 6313   3.095   1.473   1.570
 1245SOL    HW2 6314   3.037   1.524   1.426
 1246SOL     OW 6315   2.183   0.943   0.242
 1246SOL    HW1 6316   2.265   0.982   0.200
 1246SOL    HW2 6317   2.156   0.861   0.193
 1247SOL     OW 6318   3.320   0.735   0.728
 1247SOL    HW1 6319   3.315   0.670   0.803
 1247SOL    HW2 6320   3.400   0.794   0.741
 1248SOL     OW 6321   2.323   1.266   1.727
 1248SOL    HW1 6322   2.273   1.267   1.641
 1248SOL    HW2 6323   2.260   1.248   1.803
 1249SOL     OW 6324   2.973   1.776   0.237
 1249SOL    HW1 6325   2.913   1.714   0.287
 1249SOL    HW2 6326   3.004   1.732   0.152
 1250SOL     OW 6327   2.064   0.285   1.498
 1250SOL    HW1 6328   1.984   0.345   1.485
 1250SOL    HW2 6329   2.054   0.236   1.584
 1251SOL     OW 6330   2.326   1.743   0.323
 1251SOL    HW1 6331   2.359   1.782   0.409
 1251SOL    HW2 6332   2.402   1.736   0.258
 1252SOL     OW 6333   2.111   1.785   1.241
 1252SOL    HW1 6334   2.168   1.720   1.291
 1252SOL    HW2 6335   2.095   1.752   1.148
 1253SOL     OW 6336   2.802   1.698   0.904
 1253SOL    HW1 6337   2.882   1.641   0.925
 1253SOL    HW2 6338   2.753   1.658   0.827
 1254SOL     OW 6339   2.244   0.700   0.480
 1254SOL    HW1 6340   2.289   0.610   0.477
 1254SOL    HW2 6341   2.150   0.689   0.513
 1255SOL     OW 6342   3.409   0.222   1.729
 1255SOL    HW1 6343   3.404   0.259   1.821
 1255SOL    HW2 6344   3.337   0.153   1.717
 1256SOL     OW 6345   2.476   0.122   0.117
 1256SOL    HW1 6346   2.574   0.100   0.124
 1256SOL    HW2 6347   2.445   0.105   0.024
 1257SOL     OW 6348   2.750   1.514   1.195
 1257SOL    HW1 6349   2.727   1.489   1.101
 1257SOL    HW2 6350   2.811   1.445   1.234
 1258SOL     OW 6351   3.213   0.590   1.433
 1258SOL    HW1 6352   3.241   0.547   1.518
 1258SOL    HW2 6353   3.238   0.686   1.434
 1259SOL     OW 6354   2.665   1.402   0.924
 1259SOL    HW1 6355   2.755   1.416   0.882
 1259SOL    HW2 6356   2.594   1.404   0.853
 1260SOL     OW 6357   2.784   0.503   0.899
 1260SOL    HW1 6358   2.759   0.494   0.803
 1260SOL    HW2 6359   2.832   0.421   0.930
 1261SOL     OW 6360   2.401   0.064   0.512
 1261SOL    HW1 6361   2.320   0.065   0.570
 1261SOL    HW2 6362   2.404   0.147   0.457
 1262SOL     OW 6363   3.296   1.188   0.041
 1262SOL    HW1 6364   3.328   1.112   0.098
 1262SOL    HW2 6365   3.204   1.215   0.071
 1263SOL     OW 6366   2.159   0.035   0.171
 1263SOL    HW1 6367   2.208   0.119   0.150
 1263SOL    HW2 6368   2.221  -0.030   0.216
 1264SOL     OW 6369   2.797   0.236   0.480
 1264SOL    HW1 6370   2.749   0.277   0.402
 1264SOL    HW2 6371   2.896   0.234   0.461
 1265SOL     OW 6372   2.938   0.683   1.464
 1265SOL    HW1 6373   2.858   0.622   1.467
 1265SOL    HW2 6374   3.019   0.630   1.440
 1266SOL     OW 6375   3.089   1.570   0.793
 1266SOL    HW1 6376   3.110   1.644   0.728
 1266SOL    HW2 6377   3.157   1.570   0.866
 1267SOL     OW 6378   3.133   1.797   0.591
 1267SOL    HW1 6379   3.177   1.861   0.527
 1267SOL    HW2 6380   3.083   1.849   0.661
 1268SOL     OW 6381   2.894   0.549   0.016
 1268SOL    HW1 6382   2.853   0.631  -0.023
 1268SOL    HW2 6383   2.958   0.575   0.089
 1269SOL     OW 6384   1.940   0.556   1.386
 1269SOL    HW1 6385   2.032   0.555   1.345
 1269SOL    HW2 6386   1.934   0.630   1.453
 1270SOL     OW 6387   2.423   0.222   1.147
 1270SOL    HW1 6388   2.461   0.138   1.184
 1270SOL    HW2 6389   2.335   0.241   1.191
 1271SOL     OW 6390   2.728   0.454   0.642
 1271SOL    HW1 6391   2.696   0.526   0.580
 1271SOL    HW2 6392   2.752   0.373   0.589
 1272SOL     OW 6393   2.879   0.039   0.753
 1272SOL    HW1 6394   2.807   0.044   0.684
 1272SOL    HW2 6395   2.855  -0.030   0.822
 1273SOL     OW 6396   3.328   0.590   0.992
 1273SOL    HW1 6397   3.298   0.495   0.999
 1273SOL    HW2 6398   3.401   0.606   1.058
 1274SOL     OW 6399   3.719   0.833   0.377
 1274SOL    HW1 6400   3.761   0.769   0.441
 1274SOL    HW2 6401   3.681   0.782   0.299
 1275SOL     OW 6402   2.350   1.385   0.174
 1275SOL    HW1 6403   2.263   1.370   0.221
 1275SOL    HW2 6404   2.333   1.411   0.079
 1276SOL     OW 6405   3.252   0.575   0.078
 1276SOL    HW1 6406   3.198   0.554   0.159
 1276SOL    HW2 6407   3.343   0.534   0.087
 1277SOL     OW 6408   2.389   0.256   0.328
 1277SOL    HW1 6409   2.416   0.197   0.253
 1277SOL    HW2 6410   2.389   0.351   0.297
 1278SOL     OW 6411   3.616   1.223   1.588
 1278SOL    HW1 6412   3.707   1.184   1.575
 1278SOL    HW2 6413   3.624   1.319   1.612
 1279SOL     OW 6414   2.926   1.347   1.340
 1279SOL    HW1 6415   2.846   1.324   1.395
 1279SOL    HW2 6416   3.009   1.321   1.389
 1280SOL     OW 6417   3.454   1.629   1.625
 1280SOL    HW1 6418   3.481   1.663   1.535
 1280SOL    HW2 6419   3.533   1.591   1.671
 1281SOL     OW 6420   2.973   1.195   1.100
 1281SOL    HW1 6421   2.933   1.239   1.181
 1281SOL    HW2 6422   2.932   1.232   1.017
 1282SOL     OW 6423   3.500   1.099   1.079
 1282SOL    HW1 6424   3.505   1.180   1.138
 1282SOL    HW2 6425   3.414   1.101   1.028
 1283SOL     OW 6426   2.842   1.116   1.719
 1283SOL    HW1 6427   2.743   1.122   1.729
 1283SOL    HW2 6428   2.865   1.036   1.663
 1284SOL     OW 6429   2.272   0.813   1.251
 1284SOL    HW1 6430   2.358   0.825   1.301
 1284SOL    HW2 6431   2.230   0.726   1.278
 1285SOL     OW 6432   3.136   0.386   1.262
 1285SOL    HW1 6433   3.157   0.460   1.326
 1285SOL    HW2 6434   3.047   0.403   1.219
 1286SOL     OW 6435   1.926   1.564   1.331
 1286SOL    HW1 6436   1.880   1.646   1.297
 1286SOL    HW2 6437   2.024   1.583   1.340
 1287SOL     OW 6438   2.229   1.100   0.501
 1287SOL    HW1 6439   2.222   1.183   0.445
 1287SOL    HW2 6440   2.233   1.020   0.441
 1288SOL     OW 6441   2.428   0.537   0.865
 1288SOL    HW1 6442   2.440   0.603   0.791
 1288SOL    HW2 6443   2.474   0.571   0.948
 1289SOL     OW 6444   3.134   1.445   1.142
 1289SOL    HW1 6445   3.181   1.458   1.229
 1289SOL    HW2 6446   3.068   1.371   1.151
 1290SOL     OW 6447   3.444   0.639   0.472
 1290SOL    HW1 6448   3.413   0.700   0.545
 1290SOL    HW2 6449   3.494   0.691   0.403
 1291SOL     OW 6450   2.264   0.751   1.598
 1291SOL    HW1 6451   2.332   0.806   1.551
 1291SOL    HW2 6452   2.304   0.663   1.625
 1292SOL     OW 6453   3.449   0.779   1.670
 1292SOL    HW1 6454   3.357   0.817   1.665
 1292SOL    HW2 6455   3.509   0.826   1.605
 1293SOL     OW 6456   2.435   0.870   1.029
 1293SOL    HW1 6457   2.479   0.959   1.020
 1293SOL    HW2 6458   2.372   0.870   1.106
 1294SOL     OW 6459   3.222   0.862   1.045
 1294SOL    HW1 6460   3.147   0.862   0.979
 1294SOL    HW2 6461   3.259   0.770   1.054
 1295SOL     OW 6462   3.071   0.525   0.275
 1295SOL    HW1 6463   3.084   0.441   0.329
 1295SOL    HW2 6464   3.042   0.599   0.335
 1296SOL     OW 6465   2.169   0.213   1.231
 1296SOL    HW1 6466   2.146   0.250   1.321
 1296SOL    HW2 6467   2.139   0.118   1.225
 1297SOL     OW 6468   2.594   0.634   1.064
 1297SOL    HW1 6469   2.653   0.608   0.988
 1297SOL    HW2 6470   2.566   0.730   1.053
 1298SOL     OW 6471   3.590   0.935   1.854
 1298SOL    HW1 6472   3.544   0.928   1.765
 1298SOL    HW2 6473   3.528   0.979   1.920
 1299SOL     OW 6474   2.169   0.063   0.618
 1299SOL    HW1 6475   2.158   0.157   0.651
 1299SOL    HW2 6476   2.164   0.000   0.695
 1300SOL     OW 6477   3.484   0.367   0.374
 1300SOL    HW1 6478   3.486   0.291   0.438
 1300SOL    HW2 6479   3.436   0.444   0.414
 1301SOL     OW 6480   2.842   1.573   1.700
 1301SOL    HW1 6481   2.822   1.617   1.612
 1301SOL    HW2 6482   2.881   1.482   1.684
 1302SOL     OW 6483   3.721   1.518   1.605
 1302SOL    HW1 6484   3.735   1.545   1.510
 1302SOL    HW2 6485   3.804   1.540   1.658
 1303SOL     OW 6486   2.212   0.898   1.804
 1303SOL    HW1 6487   2.288   0.942   1.852
 1303SOL    HW2 6488   2.247   0.851   1.722
 1304SOL     OW 6489   3.402   0.274   0.125
 1304SOL    HW1 6490   3.341   0.199   0.148
 1304SOL    HW2 6491   3.424   0.326   0.208
 1305SOL     OW 6492   3.165   0.838   0.042
 1305SOL    HW1 6493   3.199   0.745   0.057
 1305SOL    HW2 6494   3.183   0.865  -0.053
 1306SOL     OW 6495   2.201   0.509   1.006
 1306SOL    HW1 6496   2.149   0.426   0.989
 1306SOL    HW2 6497   2.278   0.514   0.942
 1307SOL     OW 6498   1.950   1.801   0.927
 1307SOL    HW1 6499   1.908   1.715   0.900
 1307SOL    HW2 6500   2.044   1.804   0.893
 1308SOL     OW 6501   2.864   0.796   1.238
 1308SOL    HW1 6502   2.905   0.764   1.324
 1308SOL    HW2 6503   2.768   0.769   1.235
 1309SOL     OW 6504   2.051   0.520   1.722
 1309SOL    HW1 6505   2.110   0.480   1.652
 1309SOL    HW2 6506   1.993   0.591   1.681
 1310SOL     OW 6507   3.231   0.950   1.660
 1310SOL    HW1 6508   3.270   1.039   1.680
 1310SOL    HW2 6509   3.241   0.930   1.563
 1311SOL     OW 6510   2.677   0.572   0.325
 1311SOL    HW1 6511   2.684   0.483   0.279
 1311SOL    HW2 6512   2.583   0.606   0.317
 1312SOL     OW 6513   3.519   0.604   1.206
 1312SOL    HW1 6514   3.481   0.535   1.268
 1312SOL    HW2 6515   3.601   0.568   1.162
 1313SOL     OW 6516   2.533   0.464   1.269
 1313SOL    HW1 6517   2.499   0.375   1.239
 1313SOL    HW2 6518   2.559   0.518   1.189
 1314SOL     OW 6519   2.792   1.678   1.465
 1314SOL    HW1 6520   2.768   1.660   1.370
 1314SOL    HW2 6521   2.822   1.772   1.475
 1315SOL     OW 6522   2.335   0.500   0.191
 1315SOL    HW1 6523   2.396   0.580   0.195
 1315SOL    HW2 6524   2.240   0.531   0.198
 1316SOL     OW 6525   2.021   1.137   1.466
 1316SOL    HW1 6526   2.043   1.076   1.542
 1316SOL    HW2 6527   2.031   1.088   1.380
 1317SOL     OW 6528   3.164   0.855   0.309
 1317SOL    HW1 6529   3.078   0.824   0.351
 1317SOL    HW2 6530   3.160   0.841   0.210
 1318SOL     OW 6531   3.621   1.747   1.154
 1318SOL    HW1 6532   3.682   1.777   1.081
 1318SOL    HW2 6533   3.583   1.658   1.132
 1319SOL     OW 6534   3.114   1.731   1.128
 1319SOL    HW1 6535   3.198   1.736   1.074
 1319SOL    HW2 6536   3.091   1.635   1.146
 1320SOL     OW 6537   2.550   1.662   1.716
 1320SOL    HW1 6538   2.494   1.743   1.725
 1320SOL    HW2 6539   2.602   1.666   1.630
 1321SOL     OW 6540   2.765   0.086   0.133
 1321SOL    HW1 6541   2.816   0.087   0.047
 1321SOL    HW2 6542   2.821   0.044   0.204
 1322SOL     OW 6543   2.692   1.273   1.422
 1322SOL    HW1 6544   2.687   1.306   1.517
 1322SOL    HW2 6545   2.606   1.292   1.376
 1323SOL     OW 6546   2.534   1.616   0.154
 1323SOL    HW1 6547   2.543   1.626   0.055
 1323SOL    HW2 6548   2.494   1.527   0.175
 1324SOL     OW 6549   3.512   1.720   1.394
 1324SOL    HW1 6550   3.565   1.730   1.310
 1324SOL    HW2 6551   3.485   1.810   1.428
 1325SOL     OW 6552   2.125   0.326   0.720
 1325SOL    HW1 6553   2.046   0.377   0.686
 1325SOL    HW2 6554   2.116   0.311   0.818
 1326SOL     OW 6555   3.056   1.612   0.031
 1326SOL    HW1 6556   3.062   1.519   0.068
 1326SOL    HW2 6557   2.997   1.612  -0.049
 1327SOL     OW 6558   2.778   0.910   0.291
 1327SOL    HW1 6559   2.841   0.948   0.223
 1327SOL    HW2 6560   2.818   0.827   0.330
 1328SOL     OW 6561   3.366   1.607   0.044
 1328SOL    HW1 6562   3.274   1.644   0.051
 1328SOL    HW2 6563   3.404   1.627  -0.046
 1329SOL     OW 6564   3.476   1.292   1.289
 1329SOL    HW1 6565   3.536   1.295   1.369
 1329SOL    HW2 6566   3.401   1.356   1.302
 1330SOL     OW 6567   2.876   0.236   0.971
 1330SOL    HW1 6568   2.868   0.200   0.878
 1330SOL    HW2 6569   2.874   0.160   1.036
 1331SOL     OW 6570   2.452   1.487   0.491
 1331SOL    HW1 6571   2.494   1.429   0.421
 1331SOL    HW2 6572   2.408   1.566   0.447
 1332SOL     OW 6573   2.117   1.348   0.290
 1332SOL    HW1 6574   2.021   1.349   0.263
 1332SOL    HW2 6575   2.129   1.401   0.374
 1333SOL     OW 6576   1.967   1.013   1.726
 1333SOL    HW1 6577   1.890   0.980   1.780
 1333SOL    HW2 6578   2.052   0.983   1.768
 1334SOL     OW 6579   2.534   0.203   1.489
 1334SOL    HW1 6580   2.624   0.187   1.449
 1334SOL    HW2 6581   2.542   0.208   1.588
 1335SOL     OW 6582   3.045   1.335   0.119
 1335SOL    HW1 6583   2.946   1.324   0.121
 1335SOL    HW2 6584   3.079   1.350   0.212
 1336SOL     OW 6585   3.355   1.767   0.959
 1336SOL    HW1 6586   3.388   1.831   0.890
 1336SOL    HW2 6587   3.421   1.761   1.034
 1337SOL     OW 6588   3.312   1.220   1.633
 1337SOL    HW1 6589   3.303   1.210   1.732
 1337SOL    HW2 6590   3.408   1.213   1.607
 1338SOL     OW 6591   2.252   1.741   1.560
 1338SOL    HW1 6592   2.161   1.782   1.558
 1338SOL    HW2 6593   2.245   1.647   1.592
 1339SOL     OW 6594   3.536   0.883   1.254
 1339SOL    HW1 6595   3.509   0.794   1.217
 1339SOL    HW2 6596   3.537   0.951   1.181
 1340SOL     OW 6597   3.087   0.325   0.449
 1340SOL    HW1 6598   3.152   0.251   0.438
 1340SOL    HW2 6599   3.107   0.375   0.533
 1341SOL     OW 6600   2.456   0.745   0.652
 1341SOL    HW1 6601   2.506   0.830   0.633
 1341SOL    HW2 6602   2.368   0.747   0.604
 1342SOL     OW 6603   3.639   0.342   1.642
 1342SOL    HW1 6604   3.622   0.373   1.548
 1342SOL    HW2 6605   3.555   0.305   1.680
 1343SOL     OW 6606   3.592   0.934   1.517
 1343SOL    HW1 6607   3.630   1.025   1.532
 1343SOL    HW2 6608   3.584   0.917   1.418
 1344SOL     OW 6609   2.721   1.374   0.016
 1344SOL    HW1 6610   2.675   1.389   0.104
 1344SOL    HW2 6611   2.765   1.459  -0.014
 1345SOL     OW 6612   2.523   1.790   0.953
 1345SOL    HW1 6613   2.477   1.878   0.940
 1345SOL    HW2 6614   2.622   1.802   0.946
 1346SOL     OW 6615   2.945   0.984   0.087
 1346SOL    HW1 6616   2.922   1.037   0.005
 1346SOL    HW2 6617   3.026   0.928   0.068
 1347SOL     OW 6618   1.941   1.240   0.653
 1347SOL    HW1 6619   1.940   1.193   0.741
 1347SOL    HW2 6620   2.023   1.212   0.602
 1348SOL     OW 6621   2.534   1.391   1.624
 1348SOL    HW1 6622   2.456   1.341   1.662
 1348SOL    HW2 6623   2.531   1.486   1.655
 1349SOL     OW 6624   2.290   0.424   0.520
 1349SOL    HW1 6625   2.320   0.352   0.458
 1349SOL    HW2 6626   2.251   0.384   0.603
 1350SOL     OW 6627   3.567   1.487   1.104
 1350SOL    HW1 6628   3.474   1.462   1.077
 1350SOL    HW2 6629   3.593   1.437   1.186
 1351SOL     OW 6630   2.179   0.547   1.280
 1351SOL    HW1 6631   2.217   0.488   1.352
 1351SOL    HW2 6632   2.219   0.521   1.192
 1352SOL     OW 6633   2.674   1.586   0.687
 1352SOL    HW1 6634   2.706   1.596   0.593
 1352SOL    HW2 6635   2.595   1.524   0.689
 1353SOL     OW 6636   3.286   0.214   1.112
 1353SOL    HW1 6637   3.338   0.149   1.167
 1353SOL    HW2 6638   3.237   0.277   1.173
 1354SOL     OW 6639   2.863   0.034   1.154
 1354SOL    HW1 6640   2.800  -0.038   1.123
 1354SOL    HW2 6641   2.956  -0.002   1.154
 1355SOL     OW 6642   2.632   1.330   0.301
 1355SOL    HW1 6643   2.586   1.243   0.318
 1355SOL    HW2 6644   2.723   1.327   0.342
 1356SOL     OW 6645   2.480   1.567   1.284
 1356SOL    HW1 6646   2.475   1.649   1.341
 1356SOL    HW2 6647   2.569   1.564   1.239
 1357SOL     OW 6648   3.214   0.052   0.168
 1357SOL    HW1 6649   3.249   0.011   0.084
 1357SOL    HW2 6650   3.124   0.014   0.188
 1358SOL     OW 6651   3.162   0.453   0.691
 1358SOL    HW1 6652   3.103   0.533   0.695
 1358SOL    HW2 6653   3.177   0.418   0.784
 1359SOL     OW 6654   2.737   1.646   0.337
 1359SOL    HW1 6655   2.660   1.611   0.283
 1359SOL    HW2 6656   2.705   1.717   0.399
 1360SOL     OW 6657   2.092   0.628   1.975
 1360SOL    HW1 6658   1.999   0.626   2.012
 1360SOL    HW2 6659   2.093   0.589   1.883
 1361SOL     OW 6660   2.087   0.275   2.858
 1361SOL    HW1 6661   2.122   0.258   2.950
 1361SOL    HW2 6662   1.999   0.230   2.846
 1362SOL     OW 6663   1.881   0.368   2.509
 1362SOL    HW1 6664   1.799   0.411   2.548
 1362SOL    HW2 6665   1.853   0.295   2.446
 1363SOL     OW 6666   2.431   1.275   3.027
 1363SOL    HW1 6667   2.338   1.268   2.990
 1363SOL    HW2 6668   2.442   1.364   3.071
 1364SOL     OW 6669   3.417   1.511   2.565
 1364SOL    HW1 6670   3.360   1.495   2.646
 1364SOL    HW2 6671   3.358   1.521   2.485
 1365SOL     OW 6672   2.997   0.703   2.579
 1365SOL    HW1 6673   3.054   0.781   2.554
 1365SOL    HW2 6674   2.937   0.729   2.655
 1366SOL     OW 6675   3.617   0.607   2.093
 1366SOL    HW1 6676   3.605   0.594   1.994
 1366SOL    HW2 6677   3.587   0.526   2.142
 1367SOL     OW 6678   2.630   1.144   2.885
 1367SOL    HW1 6679   2.552   1.161   2.945
 1367SOL    HW2 6680   2.664   1.231   2.849
 1368SOL     OW 6681   2.712   0.798   3.685
 1368SOL    HW1 6682   2.708   0.874   3.750
 1368SOL    HW2 6683   2.734   0.834   3.594
 1369SOL     OW 6684   2.547   1.012   2.527
 1369SOL    HW1 6685   2.616   0.996   2.597
 1369SOL    HW2 6686   2.474   1.069   2.565
 1370SOL     OW 6687   2.548   1.161   3.665
 1370SOL    HW1 6688   2.608   1.240   3.679
 1370SOL    HW2 6689   2.462   1.192   3.624
 1371SOL     OW 6690   2.197   1.435   2.923
 1371SOL    HW1 6691   2.119   1.404   2.870
 1371SOL    HW2 6692   2.255   1.493   2.866
 1372SOL     OW 6693   3.322   1.505   3.201
 1372SOL    HW1 6694   3.346   1.599   3.227
 1372SOL    HW2 6695   3.306   1.451   3.283
 1373SOL     OW 6696   2.300   0.392   3.361
 1373SOL    HW1 6697   2.382   0.336   3.370
 1373SOL    HW2 6698   2.219   0.334   3.365
 1374SOL     OW 6699   3.465   0.447   2.599
 1374SOL    HW1 6700   3.391   0.493   2.549
 1374SOL    HW2 6701   3.516   0.515   2.652
 1375SOL     OW 6702   2.092   1.434   2.400
 1375SOL    HW1 6703   2.066   1.530   2.400
 1375SOL    HW2 6704   2.021   1.380   2.445
 1376SOL     OW 6705   2.102   1.091   2.748
 1376SOL    HW1 6706   2.116   1.007   2.800
 1376SOL    HW2 6707   2.047   1.155   2.803
 1377SOL     OW 6708   2.482   1.786   3.301
 1377SOL    HW1 6709   2.390   1.769   3.336
 1377SOL    HW2 6710   2.510   1.878   3.327
 1378SOL     OW 6711   3.456   0.114   3.342
 1378SOL    HW1 6712   3.438   0.181   3.270
 1378SOL    HW2 6713   3.453   0.160   3.431
 1379SOL     OW 6714   1.984   0.643   2.425
 1379SOL    HW1 6715   1.939   0.555   2.442
 1379SOL    HW2 6716   1.983   0.697   2.509
 1380SOL     OW 6717   3.704   1.767   2.221
 1380SOL    HW1 6718   3.758   1.738   2.301
 1380SOL    HW2 6719   3.734   1.857   2.192
 1381SOL     OW 6720   1.975   0.737   3.459
 1381SOL    HW1 6721   2.063   0.724   3.504
 1381SOL    HW2 6722   1.962   0.834   3.437
 1382SOL     OW 6723   3.155   1.228   3.285
 1382SOL    HW1 6724   3.192   1.155   3.227
 1382SOL    HW2 6725   3.207   1.233   3.370
 1383SOL     OW 6726   2.671   0.004   2.364
 1383SOL    HW1 6727   2.711   0.095   2.355
 1383SOL    HW2 6728   2.571   0.012   2.370
 1384SOL     OW 6729   2.059   0.976   3.126
 1384SOL    HW1 6730   2.148   0.931   3.112
 1384SOL    HW2 6731   1.986   0.911   3.107
 1385SOL     OW 6732   3.387   0.999   2.052
 1385SOL    HW1 6733   3.324   0.923   2.065
 1385SOL    HW2 6734   3.435   1.017   2.138
 1386SOL     OW 6735   3.049   1.792   3.478
 1386SOL    HW1 6736   3.073   1.852   3.402
 1386SOL    HW2 6737   3.056   1.697   3.448
 1387SOL     OW 6738   2.179   0.251   3.663
 1387SOL    HW1 6739   2.250   0.322   3.669
 1387SOL    HW2 6740   2.091   0.290   3.691
 1388SOL     OW 6741   3.529   1.714   2.434
 1388SOL    HW1 6742   3.488   1.691   2.346
 1388SOL    HW2 6743   3.511   1.640   2.499
 1389SOL     OW 6744   2.460   0.729   2.132
 1389SOL    HW1 6745   2.484   0.798   2.064
 1389SOL    HW2 6746   2.382   0.762   2.186
 1390SOL     OW 6747   3.143   0.345   2.806
 1390SOL    HW1 6748   3.057   0.295   2.793
 1390SOL    HW2 6749   3.205   0.291   2.862
 1391SOL     OW 6750   3.438   1.662   2.169
 1391SOL    HW1 6751   3.527   1.708   2.172
 1391SOL    HW2 6752   3.417   1.638   2.074
 1392SOL     OW 6753   2.669   0.605   3.327
 1392SOL    HW1 6754   2.622   0.602   3.416
 1392SOL    HW2 6755   2.618   0.550   3.261
 1393SOL     OW 6756   3.256   0.469   3.536
 1393SOL    HW1 6757   3.236   0.512   3.624
 1393SOL    HW2 6758   3.334   0.407   3.545
 1394SOL     OW 6759   2.853   0.410   3.104
 1394SOL    HW1 6760   2.776   0.444   3.158
 1394SOL    HW2 6761   2.819   0.359   3.025
 1395SOL     OW 6762   2.903   0.701   2.291
 1395SOL    HW1 6763   2.929   0.697   2.387
 1395SOL    HW2 6764   2.818   0.650   2.277
 1396SOL     OW 6765   1.938   0.811   2.651
 1396SOL    HW1 6766   2.037   0.799   2.660
 1396SOL    HW2 6767   1.914   0.906   2.672
 1397SOL     OW 6768   1.992   1.821   3.433
 1397SOL    HW1 6769   1.982   1.806   3.532
 1397SOL    HW2 6770   1.906   1.857   3.397
 1398SOL     OW 6771   2.727   0.348   2.057
 1398SOL    HW1 6772   2.786   0.411   2.008
 1398SOL    HW2 6773   2.746   0.254   2.028
 1399SOL     OW 6774   3.581   0.585   3.693
 1399SOL    HW1 6775   3.555   0.674   3.657
 1399SOL    HW2 6776   3.579   0.517   3.620
 1400SOL     OW 6777   2.412   0.196   2.747
 1400SOL    HW1 6778   2.407   0.191   2.847
 1400SOL    HW2 6779   2.414   0.292   2.718
 1401SOL     OW 6780   2.870   1.456   2.339
 1401SOL    HW1 6781   2.824   1.528   2.287
 1401SOL    HW2 6782   2.866   1.476   2.437
 1402SOL     OW 6783   3.089   1.550   3.368
 1402SOL    HW1 6784   3.095   1.473   3.432
 1402SOL    HW2 6785   3.037   1.524   3.288
 1403SOL     OW 6786   2.183   0.943   2.104
 1403SOL    HW1 6787   2.265   0.982   2.062
 1403SOL    HW2 6788   2.156   0.861   2.055
 1404SOL     OW 6789   2.973   1.776   2.099
 1404SOL    HW1 6790   2.913   1.714   2.149
 1404SOL    HW2 6791   3.004   1.732   2.014
 1405SOL     OW 6792   2.064   0.285   3.360
 1405SOL    HW1 6793   1.984   0.345   3.347
 1405SOL    HW2 6794   2.054   0.236   3.446
 1406SOL     OW 6795   2.326   1.743   2.185
 1406SOL    HW1 6796   2.359   1.782   2.271
 1406SOL    HW2 6797   2.402   1.736   2.120
 1407SOL     OW 6798   3.262   0.107   2.288
 1407SOL    HW1 6799   3.238   0.070   2.198
 1407SOL    HW2 6800   3.361   0.123   2.292
 1408SOL     OW 6801   2.111   1.785   3.103
 1408SOL    HW1 6802   2.168   1.720   3.153
 1408SOL    HW2 6803   2.095   1.752   3.010
 1409SOL     OW 6804   2.802   1.698   2.766
 1409SOL    HW1 6805   2.882   1.641   2.787
 1409SOL    HW2 6806   2.753   1.658   2.689
 1410SOL     OW 6807   2.244   0.700   2.342
 1410SOL    HW1 6808   2.289   0.610   2.339
 1410SOL    HW2 6809   2.150   0.689   2.375
 1411SOL     OW 6810   3.409   0.222   3.591
 1411SOL    HW1 6811   3.404   0.259   3.683
 1411SOL    HW2 6812   3.337   0.153   3.579
 1412SOL     OW 6813   2.476   0.122   1.979
 1412SOL    HW1 6814   2.574   0.100   1.986
 1412SOL    HW2 6815   2.445   0.105   1.886
 1413SOL     OW 6816   2.643   0.264   3.611
 1413SOL    HW1 6817   2.710   0.203   3.654
 1413SOL    HW2 6818   2.570   0.283   3.676
 1414SOL     OW 6819   3.213   0.590   3.295
 1414SOL    HW1 6820   3.241   0.547   3.380
 1414SOL    HW2 6821   3.238   0.686   3.296
 1415SOL     OW 6822   2.665   1.402   2.786
 1415SOL    HW1 6823   2.755   1.416   2.744
 1415SOL    HW2 6824   2.594   1.404   2.715
 1416SOL     OW 6825   2.784   0.503   2.761
 1416SOL    HW1 6826   2.759   0.494   2.665
 1416SOL    HW2 6827   2.832   0.421   2.792
 1417SOL     OW 6828   2.401   0.064   2.374
 1417SOL    HW1 6829   2.320   0.065   2.432
 1417SOL    HW2 6830   2.404   0.147   2.319
 1418SOL     OW 6831   3.296   1.188   1.903
 1418SOL    HW1 6832   3.328   1.112   1.960
 1418SOL    HW2 6833   3.204   1.215   1.933
 1419SOL     OW 6834   2.159   0.035   2.033
 1419SOL    HW1 6835   2.208   0.119   2.012
 1419SOL    HW2 6836   2.221  -0.030   2.078
 1420SOL     OW 6837   2.797   0.236   2.342
 1420SOL    HW1 6838   2.749   0.277   2.264
 1420SOL    HW2 6839   2.896   0.234   2.323
 1421SOL     OW 6840   2.938   0.683   3.326
 1421SOL    HW1 6841   2.858   0.622   3.329
 1421SOL    HW2 6842   3.019   0.630   3.302
 1422SOL     OW 6843   3.089   1.570   2.655
 1422SOL    HW1 6844   3.110   1.644   2.590
 1422SOL    HW2 6845   3.157   1.570   2.728
 1423SOL     OW 6846   2.321   1.152   2.603
 1423SOL    HW1 6847   2.250   1.125   2.668
 1423SOL    HW2 6848   2.295   1.124   2.510
 1424SOL     OW 6849   3.133   1.797   2.453
 1424SOL    HW1 6850   3.177   1.861   2.389
 1424SOL    HW2 6851   3.083   1.849   2.523
 1425SOL     OW 6852   2.894   0.549   1.878
 1425SOL    HW1 6853   2.853   0.631   1.839
 1425SOL    HW2 6854   2.958   0.575   1.951
 1426SOL     OW 6855   1.940   0.556   3.248
 1426SOL    HW1 6856   2.032   0.555   3.207
 1426SOL    HW2 6857   1.934   0.630   3.315
 1427SOL     OW 6858   2.423   0.222   3.009
 1427SOL    HW1 6859   2.461   0.138   3.046
 1427SOL    HW2 6860   2.335   0.241   3.053
 1428SOL     OW 6861   2.728   0.454   2.504
 1428SOL    HW1 6862   2.696   0.526   2.442
 1428SOL    HW2 6863   2.752   0.373   2.451
 1429SOL     OW 6864   2.879   0.039   2.615
 1429SOL    HW1 6865   2.807   0.044   2.546
 1429SOL    HW2 6866   2.855  -0.030   2.684
 1430SOL     OW 6867   3.328   0.590   2.854
 1430SOL    HW1 6868   3.298   0.495   2.861
 1430SOL    HW2 6869   3.401   0.606   2.920
 1431SOL     OW 6870   3.719   0.833   2.239
 1431SOL    HW1 6871   3.761   0.769   2.303
 1431SOL    HW2 6872   3.681   0.782   2.161
 1432SOL     OW 6873   3.526   1.280   2.519
 1432SOL    HW1 6874   3.625   1.288   2.533
 1432SOL    HW2 6875   3.481   1.364   2.550
 1433SOL     OW 6876   2.389   0.256   2.190
 1433SOL    HW1 6877   2.416   0.197   2.115
 1433SOL    HW2 6878   2.389   0.351   2.159
 1434SOL     OW 6879   3.616   1.223   3.450
 1434SOL    HW1 6880   3.707   1.184   3.437
 1434SOL    HW2 6881   3.624   1.319   3.474
 1435SOL     OW 6882   2.973   1.195   2.962
 1435SOL    HW1 6883   2.933   1.239   3.043
 1435SOL    HW2 6884   2.932   1.232   2.879
 1436SOL     OW 6885   3.500   1.099   2.941
 1436SOL    HW1 6886   3.505   1.180   3.000
 1436SOL    HW2 6887   3.414   1.101   2.890
 1437SOL     OW 6888   2.777   0.089   3.264
 1437SOL    HW1 6889   2.802   0.069   3.169
 1437SOL    HW2 6890   2.849   0.145   3.306
 1438SOL     OW 6891   2.567   1.050   2.230
 1438SOL    HW1 6892   2.553   1.057   2.329
 1438SOL    HW2 6893   2.651   0.999   2.212
 1439SOL     OW 6894   2.272   0.813   3.113
 1439SOL    HW1 6895   2.358   0.825   3.163
 1439SOL    HW2 6896   2.230   0.726   3.140
 1440SOL     OW 6897   3.136   0.386   3.124
 1440SOL    HW1 6898   3.157   0.460   3.188
 1440SOL    HW2 6899   3.047   0.403   3.081
 1441SOL     OW 6900   2.229   1.100   2.363
 1441SOL    HW1 6901   2.222   1.183   2.307
 1441SOL    HW2 6902   2.233   1.020   2.303
 1442SOL     OW 6903   2.428   0.537   2.727
 1442SOL    HW1 6904   2.440   0.603   2.653
 1442SOL    HW2 6905   2.474   0.571   2.810
 1443SOL     OW 6906   3.114   1.348   2.250
 1443SOL    HW1 6907   3.164   1.425   2.290
 1443SOL    HW2 6908   3.019   1.350   2.282
 1444SOL     OW 6909   3.134   1.445   3.004
 1444SOL    HW1 6910   3.181   1.458   3.091
 1444SOL    HW2 6911   3.068   1.371   3.013
 1445SOL     OW 6912   2.216   1.510   3.191
 1445SOL    HW1 6913   2.195   1.466   3.104
 1445SOL    HW2 6914   2.313   1.536   3.194
 1446SOL     OW 6915   2.264   0.751   3.460
 1446SOL    HW1 6916   2.332   0.806   3.413
 1446SOL    HW2 6917   2.304   0.663   3.487
 1447SOL     OW 6918   3.449   0.779   3.532
 1447SOL    HW1 6919   3.357   0.817   3.527
 1447SOL    HW2 6920   3.509   0.826   3.467
 1448SOL     OW 6921   2.875   0.105   3.632
 1448SOL    HW1 6922   2.881   0.190   3.580
 1448SOL    HW2 6923   2.907   0.029   3.575
 1449SOL     OW 6924   2.366   0.050   3.602
 1449SOL    HW1 6925   2.324  -0.007   3.532
 1449SOL    HW2 6926   2.300   0.119   3.634
 1450SOL     OW 6927   2.435   0.870   2.891
 1450SOL    HW1 6928   2.479   0.959   2.882
 1450SOL    HW2 6929   2.372   0.870   2.968
 1451SOL     OW 6930   3.222   0.862   2.907
 1451SOL    HW1 6931   3.147   0.862   2.841
 1451SOL    HW2 6932   3.259   0.770   2.916
 1452SOL     OW 6933   3.071   0.525   2.137
 1452SOL    HW1 6934   3.084   0.441   2.191
 1452SOL    HW2 6935   3.042   0.599   2.197
 1453SOL     OW 6936   2.169   0.213   3.093
 1453SOL    HW1 6937   2.146   0.250   3.183
 1453SOL    HW2 6938   2.139   0.118   3.087
 1454SOL     OW 6939   2.594   0.634   2.926
 1454SOL    HW1 6940   2.653   0.608   2.850
 1454SOL    HW2 6941   2.566   0.730   2.915
 1455SOL     OW 6942   3.590   0.935   3.716
 1455SOL    HW1 6943   3.544   0.928   3.627
 1455SOL    HW2 6944   3.528   0.979   3.782
 1456SOL     OW 6945   2.169   0.063   2.480
 1456SOL    HW1 6946   2.158   0.157   2.513
 1456SOL    HW2 6947   2.164   0.000   2.557
 1457SOL     OW 6948   3.484   0.367   2.236
 1457SOL    HW1 6949   3.486   0.291   2.300
 1457SOL    HW2 6950   3.436   0.444   2.276
 1458SOL     OW 6951   2.885   0.766   2.828
 1458SOL    HW1 6952   2.900   0.787   2.924
 1458SOL    HW2 6953   2.855   0.671   2.819
 1459SOL     OW 6954   3.721   1.518   3.467
 1459SOL    HW1 6955   3.735   1.545   3.372
 1459SOL    HW2 6956   3.804   1.540   3.520
 1460SOL     OW 6957   3.402   0.274   1.987
 1460SOL    HW1 6958   3.341   0.199   2.010
 1460SOL    HW2 6959   3.424   0.326   2.070
 1461SOL     OW 6960   2.930   1.333   2.711
 1461SOL    HW1 6961   2.937   1.249   2.656
 1461SOL    HW2 6962   2.992   1.402   2.675
 1462SOL     OW 6963   2.181   0.810   2.811
 1462SOL    HW1 6964   2.274   0.846   2.816
 1462SOL    HW2 6965   2.175   0.725   2.863
 1463SOL     OW 6966   2.201   0.509   2.868
 1463SOL    HW1 6967   2.149   0.426   2.851
 1463SOL    HW2 6968   2.278   0.514   2.804
 1464SOL     OW 6969   3.000   0.380   3.540
 1464SOL    HW1 6970   2.955   0.443   3.604
 1464SOL    HW2 6971   3.093   0.411   3.523
 1465SOL     OW 6972   3.022   0.207   3.339
 1465SOL    HW1 6973   3.022   0.271   3.416
 1465SOL    HW2 6974   3.050   0.255   3.256
 1466SOL     OW 6975   1.950   1.801   2.789
 1466SOL    HW1 6976   1.908   1.715   2.762
 1466SOL    HW2 6977   2.044   1.804   2.755
 1467SOL     OW 6978   2.366   1.568   2.772
 1467SOL    HW1 6979   2.432   1.642   2.781
 1467SOL    HW2 6980   2.410   1.489   2.730
 1468SOL     OW 6981   1.902   0.544   2.976
 1468SOL    HW1 6982   1.987   0.511   2.935
 1468SOL    HW2 6983   1.915   0.559   3.074
 1469SOL     OW 6984   2.051   0.520   3.584
 1469SOL    HW1 6985   2.110   0.480   3.514
 1469SOL    HW2 6986   1.993   0.591   3.543
 1470SOL     OW 6987   3.231   0.950   3.522
 1470SOL    HW1 6988   3.270   1.039   3.542
 1470SOL    HW2 6989   3.241   0.930   3.425
 1471SOL     OW 6990   2.677   0.572   2.187
 1471SOL    HW1 6991   2.684   0.483   2.141
 1471SOL    HW2 6992   2.583   0.606   2.179
 1472SOL     OW 6993   3.519   0.604   3.068
 1472SOL    HW1 6994   3.481   0.535   3.130
 1472SOL    HW2 6995   3.601   0.568   3.024
 1473SOL     OW 6996   2.533   0.464   3.131
 1473SOL    HW1 6997   2.499   0.375   3.101
 1473SOL    HW2 6998   2.559   0.518   3.051
 1474SOL     OW 6999   2.792   1.678   3.327
 1474SOL    HW1 7000   2.768   1.660   3.232
 1474SOL    HW2 7001   2.822   1.772   3.337
 1475SOL     OW 7002   2.335   0.500   2.053
 1475SOL    HW1 7003   2.396   0.580   2.057
 1475SOL    HW2 7004   2.240   0.531   2.060
 1476SOL     OW 7005   3.209   1.059   3.096
 1476SOL    HW1 7006   3.233   0.996   3.022
 1476SOL    HW2 7007   3.119   1.099   3.078
 1477SOL     OW 7008   3.114   1.731   2.990
 1477SOL    HW1 7009   3.198   1.736   2.936
 1477SOL    HW2 7010   3.091   1.635   3.008
 1478SOL     OW 7011   1.945   1.258   2.884
 1478SOL    HW1 7012   1.940   1.257   2.984
 1478SOL    HW2 7013   1.862   1.217   2.846
 1479SOL     OW 7014   3.588   0.135   2.385
 1479SOL    HW1 7015   3.661   0.118   2.318
 1479SOL    HW2 7016   3.557   0.048   2.423
 1480SOL     OW 7017   3.250   1.573   2.339
 1480SOL    HW1 7018   3.317   1.585   2.265
 1480SOL    HW2 7019   3.210   1.662   2.362
 1481SOL     OW 7020   3.142   0.927   2.534
 1481SOL    HW1 7021   3.202   0.846   2.536
 1481SOL    HW2 7022   3.182   0.996   2.474
 1482SOL     OW 7023   2.534   1.616   2.016
 1482SOL    HW1 7024   2.543   1.626   1.917
 1482SOL    HW2 7025   2.494   1.527   2.037
 1483SOL     OW 7026   3.703   0.175   2.825
 1483SOL    HW1 7027   3.742   0.090   2.789
 1483SOL    HW2 7028   3.605   0.177   2.806
 1484SOL     OW 7029   2.125   0.326   2.582
 1484SOL    HW1 7030   2.046   0.377   2.548
 1484SOL    HW2 7031   2.116   0.311   2.680
 1485SOL     OW 7032   3.056   1.612   1.893
 1485SOL    HW1 7033   3.062   1.519   1.930
 1485SOL    HW2 7034   2.997   1.612   1.813
 1486SOL     OW 7035   3.366   1.607   1.906
 1486SOL    HW1 7036   3.274   1.644   1.913
 1486SOL    HW2 7037   3.404   1.627   1.816
 1487SOL     OW 7038   3.476   1.292   3.151
 1487SOL    HW1 7039   3.536   1.295   3.231
 1487SOL    HW2 7040   3.401   1.356   3.164
 1488SOL     OW 7041   2.901   1.098   2.558
 1488SOL    HW1 7042   2.831   1.051   2.612
 1488SOL    HW2 7043   2.960   1.030   2.515
 1489SOL     OW 7044   2.876   0.236   2.833
 1489SOL    HW1 7045   2.868   0.200   2.740
 1489SOL    HW2 7046   2.874   0.160   2.898
 1490SOL     OW 7047   3.571   0.385   3.243
 1490SOL    HW1 7048   3.644   0.454   3.247
 1490SOL    HW2 7049   3.599   0.310   3.184
 1491SOL     OW 7050   2.534   0.203   3.351
 1491SOL    HW1 7051   2.624   0.187   3.311
 1491SOL    HW2 7052   2.542   0.208   3.450
 1492SOL     OW 7053   1.937   0.345   1.895
 1492SOL    HW1 7054   1.845   0.317   1.866
 1492SOL    HW2 7055   1.968   0.422   1.839
 1493SOL     OW 7056   3.302   0.856   3.260
 1493SOL    HW1 7057   3.245   0.908   3.197
 1493SOL    HW2 7058   3.398   0.868   3.236
 1494SOL     OW 7059   1.934   0.166   2.180
 1494SOL    HW1 7060   1.917   0.249   2.126
 1494SOL    HW2 7061   2.024   0.129   2.158
 1495SOL     OW 7062   3.045   1.335   1.981
 1495SOL    HW1 7063   2.946   1.324   1.983
 1495SOL    HW2 7064   3.079   1.350   2.074
 1496SOL     OW 7065   2.475   0.842   3.293
 1496SOL    HW1 7066   2.531   0.923   3.276
 1496SOL    HW2 7067   2.534   0.762   3.296
 1497SOL     OW 7068   3.355   1.767   2.821
 1497SOL    HW1 7069   3.388   1.831   2.752
 1497SOL    HW2 7070   3.421   1.761   2.896
 1498SOL     OW 7071   2.578   0.565   3.570
 1498SOL    HW1 7072   2.597   0.630   3.644
 1498SOL    HW2 7073   2.638   0.485   3.579
 1499SOL     OW 7074   3.312   1.220   3.495
 1499SOL    HW1 7075   3.303   1.210   3.594
 1499SOL    HW2 7076   3.408   1.213   3.469
 1500SOL     OW 7077   2.252   1.741   3.422
 1500SOL    HW1 7078   2.161   1.782   3.420
 1500SOL    HW2 7079   2.245   1.647   3.454
 1501SOL     OW 7080   3.087   0.325   2.311
 1501SOL    HW1 7081   3.152   0.251   2.300
 1501SOL    HW2 7082   3.107   0.375   2.395
 1502SOL     OW 7083   2.456   0.745   2.514
 1502SOL    HW1 7084   2.506   0.830   2.495
 1502SOL    HW2 7085   2.368   0.747   2.466
 1503SOL     OW 7086   3.639   0.342   3.504
 1503SOL    HW1 7087   3.622   0.373   3.410
 1503SOL    HW2 7088   3.555   0.305   3.542
 1504SOL     OW 7089   3.592   0.934   3.379
 1504SOL    HW1 7090   3.630   1.025   3.394
 1504SOL    HW2 7091   3.584   0.917   3.280
 1505SOL     OW 7092   2.721   1.374   1.878
 1505SOL    HW1 7093   2.675   1.389   1.966
 1505SOL    HW2 7094   2.765   1.459   1.848
 1506SOL     OW 7095   2.523   1.790   2.815
 1506SOL    HW1 7096   2.477   1.878   2.802
 1506SOL    HW2 7097   2.622   1.802   2.808
 1507SOL     OW 7098   2.721   0.956   2.723
 1507SOL    HW1 7099   2.775   0.887   2.771
 1507SOL    HW2 7100   2.689   1.025   2.789
 1508SOL     OW 7101   3.723   1.569   2.713
 1508SOL    HW1 7102   3.652   1.557   2.643
 1508SOL    HW2 7103   3.724   1.490   2.773
 1509SOL     OW 7104   1.941   1.240   2.515
 1509SOL    HW1 7105   1.940   1.193   2.603
 1509SOL    HW2 7106   2.023   1.212   2.464
 1510SOL     OW 7107   2.534   1.391   3.486
 1510SOL    HW1 7108   2.456   1.341   3.524
 1510SOL    HW2 7109   2.531   1.486   3.517
 1511SOL     OW 7110   2.290   0.424   2.382
 1511SOL    HW1 7111   2.320   0.352   2.320
 1511SOL    HW2 7112   2.251   0.384   2.465
 1512SOL     OW 7113   3.567   1.487   2.966
 1512SOL    HW1 7114   3.474   1.462   2.939
 1512SOL    HW2 7115   3.593   1.437   3.048
 1513SOL     OW 7116   2.179   0.547   3.142
 1513SOL    HW1 7117   2.217   0.488   3.214
 1513SOL    HW2 7118   2.219   0.521   3.054
 1514SOL     OW 7119   2.674   1.586   2.549
 1514SOL    HW1 7120   2.706   1.596   2.455
 1514SOL    HW2 7121   2.595   1.524   2.551
 1515SOL     OW 7122   3.286   0.214   2.974
 1515SOL    HW1 7123   3.338   0.149   3.029
 1515SOL    HW2 7124   3.237   0.277   3.035
 1516SOL     OW 7125   2.863   0.034   3.016
 1516SOL    HW1 7126   2.800  -0.038   2.985
 1516SOL    HW2 7127   2.956  -0.002   3.016
 1517SOL     OW 7128   2.632   1.330   2.163
 1517SOL    HW1 7129   2.586   1.243   2.180
 1517SOL    HW2 7130   2.723   1.327   2.204
 1518SOL     OW 7131   3.162   0.453   2.553
 1518SOL    HW1 7132   3.103   0.533   2.557
 1518SOL    HW2 7133   3.177   0.418   2.646
 1519SOL     OW 7134   3.455   0.221   2.744
 1519SOL    HW1 7135   3.371   0.220   2.798
 1519SOL    HW2 7136   3.457   0.304   2.688
 1520SOL     OW 7137   1.901   1.077   2.162
 1520SOL    HW1 7138   2.000   1.066   2.153
 1520SOL    HW2 7139   1.861   0.991   2.194
 1521SOL     OW 7140   2.737   1.646   2.199
 1521SOL    HW1 7141   2.660   1.611   2.145
 1521SOL    HW2 7142   2.705   1.717   2.261
 1522SOL     OW 7143   1.881   0.368   4.371
 1522SOL    HW1 7144   1.799   0.411   4.410
 1522SOL    HW2 7145   1.853   0.295   4.308
 1523SOL     OW 7146   2.431   1.275   4.889
 1523SOL    HW1 7147   2.338   1.268   4.852
 1523SOL    HW2 7148   2.442   1.364   4.933
 1524SOL     OW 7149   3.417   1.511   4.427
 1524SOL    HW1 7150   3.360   1.495   4.508
 1524SOL    HW2 7151   3.358   1.521   4.347
 1525SOL     OW 7152   2.997   0.703   4.441
 1525SOL    HW1 7153   3.054   0.781   4.416
 1525SOL    HW2 7154   2.937   0.729   4.517
 1526SOL     OW 7155   2.630   1.144   4.747
 1526SOL    HW1 7156   2.552   1.161   4.807
 1526SOL    HW2 7157   2.664   1.231   4.711
 1527SOL     OW 7158   2.547   1.012   4.389
 1527SOL    HW1 7159   2.616   0.996   4.459
 1527SOL    HW2 7160   2.474   1.069   4.427
 1528SOL     OW 7161   2.197   1.435   4.785
 1528SOL    HW1 7162   2.119   1.404   4.732
 1528SOL    HW2 7163   2.255   1.493   4.728
 1529SOL     OW 7164   2.093   1.713   4.207
 1529SOL    HW1 7165   2.127   1.790   4.261
 1529SOL    HW2 7166   2.137   1.713   4.117
 1530SOL     OW 7167   2.092   1.434   4.262
 1530SOL    HW1 7168   2.066   1.530   4.262
 1530SOL    HW2 7169   2.021   1.380   4.307
 1531SOL     OW 7170   2.102   1.091   4.610
 1531SOL    HW1 7171   2.116   1.007   4.662
 1531SOL    HW2 7172   2.047   1.155   4.665
 1532SOL     OW 7173   2.482   1.786   5.163
 1532SOL    HW1 7174   2.390   1.769   5.198
 1532SOL    HW2 7175   2.510   1.878   5.189
 1533SOL     OW 7176   2.468   0.964   3.847
 1533SOL    HW1 7177   2.475   1.048   3.793
 1533SOL    HW2 7178   2.514   0.977   3.935
 1534SOL     OW 7179   1.984   0.643   4.287
 1534SOL    HW1 7180   1.939   0.555   4.304
 1534SOL    HW2 7181   1.983   0.697   4.371
 1535SOL     OW 7182   3.551   0.922   4.336
 1535SOL    HW1 7183   3.646   0.893   4.344
 1535SOL    HW2 7184   3.543   0.987   4.261
 1536SOL     OW 7185   3.503   1.108   4.156
 1536SOL    HW1 7186   3.589   1.110   4.104
 1536SOL    HW2 7187   3.517   1.155   4.244
 1537SOL     OW 7188   2.475   1.365   4.450
 1537SOL    HW1 7189   2.426   1.278   4.459
 1537SOL    HW2 7190   2.452   1.408   4.363
 1538SOL     OW 7191   3.387   0.999   3.914
 1538SOL    HW1 7192   3.324   0.923   3.927
 1538SOL    HW2 7193   3.435   1.017   4.000
 1539SOL     OW 7194   2.460   0.729   3.994
 1539SOL    HW1 7195   2.484   0.798   3.926
 1539SOL    HW2 7196   2.382   0.762   4.048
 1540SOL     OW 7197   3.143   0.345   4.668
 1540SOL    HW1 7198   3.057   0.295   4.655
 1540SOL    HW2 7199   3.205   0.291   4.724
 1541SOL     OW 7200   3.438   1.662   4.031
 1541SOL    HW1 7201   3.527   1.708   4.034
 1541SOL    HW2 7202   3.417   1.638   3.936
 1542SOL     OW 7203   2.853   0.410   4.966
 1542SOL    HW1 7204   2.776   0.444   5.020
 1542SOL    HW2 7205   2.819   0.359   4.887
 1543SOL     OW 7206   2.903   0.701   4.153
 1543SOL    HW1 7207   2.929   0.697   4.249
 1543SOL    HW2 7208   2.818   0.650   4.139
 1544SOL     OW 7209   1.938   0.811   4.513
 1544SOL    HW1 7210   2.037   0.799   4.522
 1544SOL    HW2 7211   1.914   0.906   4.534
 1545SOL     OW 7212   3.224   1.144   4.269
 1545SOL    HW1 7213   3.307   1.115   4.221
 1545SOL    HW2 7214   3.175   1.211   4.213
 1546SOL     OW 7215   2.870   1.456   4.201
 1546SOL    HW1 7216   2.824   1.528   4.149
 1546SOL    HW2 7217   2.866   1.476   4.299
 1547SOL     OW 7218   2.973   1.776   3.961
 1547SOL    HW1 7219   2.913   1.714   4.011
 1547SOL    HW2 7220   3.004   1.732   3.876
 1548SOL     OW 7221   3.494   1.377   3.805
 1548SOL    HW1 7222   3.462   1.471   3.795
 1548SOL    HW2 7223   3.418   1.314   3.793
 1549SOL     OW 7224   2.326   1.743   4.047
 1549SOL    HW1 7225   2.359   1.782   4.133
 1549SOL    HW2 7226   2.402   1.736   3.982
 1550SOL     OW 7227   3.262   0.107   4.150
 1550SOL    HW1 7228   3.238   0.070   4.060
 1550SOL    HW2 7229   3.361   0.123   4.154
 1551SOL     OW 7230   2.111   1.785   4.965
 1551SOL    HW1 7231   2.168   1.720   5.015
 1551SOL    HW2 7232   2.095   1.752   4.872
 1552SOL     OW 7233   2.802   1.698   4.628
 1552SOL    HW1 7234   2.882   1.641   4.649
 1552SOL    HW2 7235   2.753   1.658   4.551
 1553SOL     OW 7236   2.244   0.700   4.204
 1553SOL    HW1 7237   2.289   0.610   4.201
 1553SOL    HW2 7238   2.150   0.689   4.237
 1554SOL     OW 7239   2.476   0.122   3.841
 1554SOL    HW1 7240   2.574   0.100   3.848
 1554SOL    HW2 7241   2.445   0.105   3.748
 1555SOL     OW 7242   2.665   1.402   4.648
 1555SOL    HW1 7243   2.755   1.416   4.606
 1555SOL    HW2 7244   2.594   1.404   4.577
 1556SOL     OW 7245   2.784   0.503   4.623
 1556SOL    HW1 7246   2.759   0.494   4.527
 1556SOL    HW2 7247   2.832   0.421   4.654
 1557SOL     OW 7248   2.159   0.035   3.895
 1557SOL    HW1 7249   2.208   0.119   3.874
 1557SOL    HW2 7250   2.221  -0.030   3.940
 1558SOL     OW 7251   3.089   1.570   4.517
 1558SOL    HW1 7252   3.110   1.644   4.452
 1558SOL    HW2 7253   3.157   1.570   4.590
 1559SOL     OW 7254   2.321   1.152   4.465
 1559SOL    HW1 7255   2.250   1.125   4.530
 1559SOL    HW2 7256   2.295   1.124   4.372
 1560SOL     OW 7257   3.133   1.797   4.315
 1560SOL    HW1 7258   3.177   1.861   4.251
 1560SOL    HW2 7259   3.083   1.849   4.385
 1561SOL     OW 7260   2.894   0.549   3.740
 1561SOL    HW1 7261   2.853   0.631   3.701
 1561SOL    HW2 7262   2.958   0.575   3.813
 1562SOL     OW 7263   3.719   0.833   4.101
 1562SOL    HW1 7264   3.761   0.769   4.165
 1562SOL    HW2 7265   3.681   0.782   4.023
 1563SOL     OW 7266   3.526   1.280   4.381
 1563SOL    HW1 7267   3.625   1.288   4.395
 1563SOL    HW2 7268   3.481   1.364   4.412
 1564SOL     OW 7269   3.252   0.575   3.802
 1564SOL    HW1 7270   3.198   0.554   3.883
 1564SOL    HW2 7271   3.343   0.534   3.811
 1565SOL     OW 7272   3.500   1.099   4.803
 1565SOL    HW1 7273   3.505   1.180   4.862
 1565SOL    HW2 7274   3.414   1.101   4.752
 1566SOL     OW 7275   2.567   1.050   4.092
 1566SOL    HW1 7276   2.553   1.057   4.191
 1566SOL    HW2 7277   2.651   0.999   4.074
 1567SOL     OW 7278   2.272   0.813   4.975
 1567SOL    HW1 7279   2.358   0.825   5.025
 1567SOL    HW2 7280   2.230   0.726   5.002
 1568SOL     OW 7281   3.136   0.386   4.986
 1568SOL    HW1 7282   3.157   0.460   5.050
 1568SOL    HW2 7283   3.047   0.403   4.943
 1569SOL     OW 7284   2.229   1.100   4.225
 1569SOL    HW1 7285   2.222   1.183   4.169
 1569SOL    HW2 7286   2.233   1.020   4.165
 1570SOL     OW 7287   2.428   0.537   4.589
 1570SOL    HW1 7288   2.440   0.603   4.515
 1570SOL    HW2 7289   2.474   0.571   4.672
 1571SOL     OW 7290   3.114   1.348   4.112
 1571SOL    HW1 7291   3.164   1.425   4.152
 1571SOL    HW2 7292   3.019   1.350   4.144
 1572SOL     OW 7293   3.134   1.445   4.866
 1572SOL    HW1 7294   3.181   1.458   4.953
 1572SOL    HW2 7295   3.068   1.371   4.875
 1573SOL     OW 7296   2.216   1.510   5.053
 1573SOL    HW1 7297   2.195   1.466   4.966
 1573SOL    HW2 7298   2.313   1.536   5.056
 1574SOL     OW 7299   2.435   0.870   4.753
 1574SOL    HW1 7300   2.479   0.959   4.744
 1574SOL    HW2 7301   2.372   0.870   4.830
 1575SOL     OW 7302   3.071   0.525   3.999
 1575SOL    HW1 7303   3.084   0.441   4.053
 1575SOL    HW2 7304   3.042   0.599   4.059
 1576SOL     OW 7305   2.594   0.634   4.788
 1576SOL    HW1 7306   2.653   0.608   4.712
 1576SOL    HW2 7307   2.566   0.730   4.777
 1577SOL     OW 7308   2.885   0.766   4.690
 1577SOL    HW1 7309   2.900   0.787   4.786
 1577SOL    HW2 7310   2.855   0.671   4.681
 1578SOL     OW 7311   3.402   0.274   3.849
 1578SOL    HW1 7312   3.341   0.199   3.872
 1578SOL    HW2 7313   3.424   0.326   3.932
 1579SOL     OW 7314   3.165   0.838   3.766
 1579SOL    HW1 7315   3.199   0.745   3.781
 1579SOL    HW2 7316   3.183   0.865   3.671
 1580SOL     OW 7317   2.930   1.333   4.573
 1580SOL    HW1 7318   2.937   1.249   4.518
 1580SOL    HW2 7319   2.992   1.402   4.537
 1581SOL     OW 7320   2.181   0.810   4.673
 1581SOL    HW1 7321   2.274   0.846   4.678
 1581SOL    HW2 7322   2.175   0.725   4.725
 1582SOL     OW 7323   3.022   0.207   5.201
 1582SOL    HW1 7324   3.022   0.271   5.278
 1582SOL    HW2 7325   3.050   0.255   5.118
 1583SOL     OW 7326   1.870   1.326   3.924
 1583SOL    HW1 7327   1.777   1.347   3.893
 1583SOL    HW2 7328   1.880   1.227   3.937
 1584SOL     OW 7329   1.950   1.801   4.651
 1584SOL    HW1 7330   1.908   1.715   4.624
 1584SOL    HW2 7331   2.044   1.804   4.617
 1585SOL     OW 7332   2.366   1.568   4.634
 1585SOL    HW1 7333   2.432   1.642   4.643
 1585SOL    HW2 7334   2.410   1.489   4.592
 1586SOL     OW 7335   2.864   0.796   4.962
 1586SOL    HW1 7336   2.905   0.764   5.048
 1586SOL    HW2 7337   2.768   0.769   4.959
 1587SOL     OW 7338   1.902   0.544   4.838
 1587SOL    HW1 7339   1.987   0.511   4.797
 1587SOL    HW2 7340   1.915   0.559   4.936
 1588SOL     OW 7341   2.533   0.464   4.993
 1588SOL    HW1 7342   2.499   0.375   4.963
 1588SOL    HW2 7343   2.559   0.518   4.913
 1589SOL     OW 7344   2.792   1.678   5.189
 1589SOL    HW1 7345   2.768   1.660   5.094
 1589SOL    HW2 7346   2.822   1.772   5.199
 1590SOL     OW 7347   3.164   0.855   4.033
 1590SOL    HW1 7348   3.078   0.824   4.075
 1590SOL    HW2 7349   3.160   0.841   3.934
 1591SOL     OW 7350   3.621   1.747   4.878
 1591SOL    HW1 7351   3.682   1.777   4.805
 1591SOL    HW2 7352   3.583   1.658   4.856
 1592SOL     OW 7353   1.945   1.258   4.746
 1592SOL    HW1 7354   1.940   1.257   4.846
 1592SOL    HW2 7355   1.862   1.217   4.708
 1593SOL     OW 7356   3.588   0.135   4.247
 1593SOL    HW1 7357   3.661   0.118   4.180
 1593SOL    HW2 7358   3.557   0.048   4.285
 1594SOL     OW 7359   3.250   1.573   4.201
 1594SOL    HW1 7360   3.317   1.585   4.127
 1594SOL    HW2 7361   3.210   1.662   4.224
 1595SOL     OW 7362   2.534   1.616   3.878
 1595SOL    HW1 7363   2.543   1.626   3.779
 1595SOL    HW2 7364   2.494   1.527   3.899
 1596SOL     OW 7365   3.512   1.720   5.118
 1596SOL    HW1 7366   3.565   1.730   5.034
 1596SOL    HW2 7367   3.485   1.810   5.152
 1597SOL     OW 7368   3.703   0.175   4.687
 1597SOL    HW1 7369   3.742   0.090   4.651
 1597SOL    HW2 7370   3.605   0.177   4.668
 1598SOL     OW 7371   2.125   0.326   4.444
 1598SOL    HW1 7372   2.046   0.377   4.410
 1598SOL    HW2 7373   2.116   0.311   4.542
 1599SOL     OW 7374   2.684   1.002   5.096
 1599SOL    HW1 7375   2.724   1.001   5.004
 1599SOL    HW2 7376   2.694   1.094   5.136
 1600SOL     OW 7377   2.778   0.910   4.015
 1600SOL    HW1 7378   2.841   0.948   3.947
 1600SOL    HW2 7379   2.818   0.827   4.054
 1601SOL     OW 7380   3.366   1.607   3.768
 1601SOL    HW1 7381   3.274   1.644   3.775
 1601SOL    HW2 7382   3.404   1.627   3.678
 1602SOL     OW 7383   2.901   1.098   4.420
 1602SOL    HW1 7384   2.831   1.051   4.474
 1602SOL    HW2 7385   2.960   1.030   4.377
 1603SOL     OW 7386   2.452   1.487   4.215
 1603SOL    HW1 7387   2.494   1.429   4.145
 1603SOL    HW2 7388   2.408   1.566   4.171
 1604SOL     OW 7389   3.571   0.385   5.105
 1604SOL    HW1 7390   3.644   0.454   5.109
 1604SOL    HW2 7391   3.599   0.310   5.046
 1605SOL     OW 7392   1.934   0.166   4.042
 1605SOL    HW1 7393   1.917   0.249   3.988
 1605SOL    HW2 7394   2.024   0.129   4.020
 1606SOL     OW 7395   3.087   0.325   4.173
 1606SOL    HW1 7396   3.152   0.251   4.162
 1606SOL    HW2 7397   3.107   0.375   4.257
 1607SOL     OW 7398   3.592   0.934   5.241
 1607SOL    HW1 7399   3.630   1.025   5.256
 1607SOL    HW2 7400   3.584   0.917   5.142
 1608SOL     OW 7401   2.721   1.374   3.740
 1608SOL    HW1 7402   2.675   1.389   3.828
 1608SOL    HW2 7403   2.765   1.459   3.710
 1609SOL     OW 7404   2.523   1.790   4.677
 1609SOL    HW1 7405   2.477   1.878   4.664
 1609SOL    HW2 7406   2.622   1.802   4.670
 1610SOL     OW 7407   2.721   0.956   4.585
 1610SOL    HW1 7408   2.775   0.887   4.633
 1610SOL    HW2 7409   2.689   1.025   4.651
 1611SOL     OW 7410   1.941   1.240   4.377
 1611SOL    HW1 7411   1.940   1.193   4.465
 1611SOL    HW2 7412   2.023   1.212   4.326
 1612SOL     OW 7413   2.674   1.586   4.411
 1612SOL    HW1 7414   2.706   1.596   4.317
 1612SOL    HW2 7415   2.595   1.524   4.413
 1613SOL     OW 7416   3.286   0.214   4.836
 1613SOL    HW1 7417   3.338   0.149   4.891
 1613SOL    HW2 7418   3.237   0.277   4.897
 1614SOL     OW 7419   2.632   1.330   4.025
 1614SOL    HW1 7420   2.586   1.243   4.042
 1614SOL    HW2 7421   2.723   1.327   4.066
 1615SOL     OW 7422   3.162   0.453   4.415
 1615SOL    HW1 7423   3.103   0.533   4.419
 1615SOL    HW2 7424   3.177   0.418   4.508
 1616SOL     OW 7425   3.455   0.221   4.606
 1616SOL    HW1 7426   3.371   0.220   4.660
 1616SOL    HW2 7427   3.457   0.304   4.550
 1617SOL     OW 7428   1.901   1.077   4.024
 1617SOL    HW1 7429   2.000   1.066   4.015
 1617SOL    HW2 7430   1.861   0.991   4.056
 1618SOL     OW 7431   2.737   1.646   4.061
 1618SOL    HW1 7432   2.660   1.611   4.007
 1618SOL    HW2 7433   2.705   1.717   4.123
 1619SOL     OW 7434   2.092   2.490   0.113
 1619SOL    HW1 7435   1.999   2.488   0.150
 1619SOL    HW2 7436   2.093   2.451   0.021
 1620SOL     OW 7437   2.087   2.137   0.996
 1620SOL    HW1 7438   2.122   2.120   1.088
 1620SOL    HW2 7439   1.999   2.092   0.984
 1621SOL     OW 7440   1.881   2.230   0.647
 1621SOL    HW1 7441   1.799   2.273   0.686
 1621SOL    HW2 7442   1.853   2.157   0.584
 1622SOL     OW 7443   2.431   3.137   1.165
 1622SOL    HW1 7444   2.338   3.130   1.128
 1622SOL    HW2 7445   2.442   3.226   1.209
 1623SOL     OW 7446   3.417   3.373   0.703
 1623SOL    HW1 7447   3.360   3.357   0.784
 1623SOL    HW2 7448   3.358   3.383   0.623
 1624SOL     OW 7449   3.617   2.469   0.231
 1624SOL    HW1 7450   3.605   2.456   0.132
 1624SOL    HW2 7451   3.587   2.388   0.280
 1625SOL     OW 7452   2.630   3.006   1.023
 1625SOL    HW1 7453   2.552   3.023   1.083
 1625SOL    HW2 7454   2.664   3.093   0.987
 1626SOL     OW 7455   2.712   2.660   1.823
 1626SOL    HW1 7456   2.708   2.736   1.888
 1626SOL    HW2 7457   2.734   2.696   1.732
 1627SOL     OW 7458   2.547   2.874   0.665
 1627SOL    HW1 7459   2.616   2.858   0.735
 1627SOL    HW2 7460   2.474   2.931   0.703
 1628SOL     OW 7461   2.548   3.023   1.803
 1628SOL    HW1 7462   2.608   3.102   1.817
 1628SOL    HW2 7463   2.462   3.054   1.762
 1629SOL     OW 7464   2.197   3.297   1.061
 1629SOL    HW1 7465   2.119   3.266   1.008
 1629SOL    HW2 7466   2.255   3.355   1.004
 1630SOL     OW 7467   3.322   3.367   1.339
 1630SOL    HW1 7468   3.346   3.461   1.365
 1630SOL    HW2 7469   3.306   3.313   1.421
 1631SOL     OW 7470   2.093   3.575   0.483
 1631SOL    HW1 7471   2.127   3.652   0.537
 1631SOL    HW2 7472   2.137   3.575   0.393
 1632SOL     OW 7473   2.989   3.203   1.690
 1632SOL    HW1 7474   3.036   3.203   1.778
 1632SOL    HW2 7475   2.941   3.116   1.679
 1633SOL     OW 7476   2.092   3.296   0.538
 1633SOL    HW1 7477   2.066   3.392   0.538
 1633SOL    HW2 7478   2.021   3.242   0.583
 1634SOL     OW 7479   2.482   3.648   1.439
 1634SOL    HW1 7480   2.390   3.631   1.474
 1634SOL    HW2 7481   2.510   3.740   1.465
 1635SOL     OW 7482   2.468   2.826   0.123
 1635SOL    HW1 7483   2.475   2.910   0.069
 1635SOL    HW2 7484   2.514   2.839   0.211
 1636SOL     OW 7485   3.456   1.976   1.480
 1636SOL    HW1 7486   3.438   2.043   1.408
 1636SOL    HW2 7487   3.453   2.022   1.569
 1637SOL     OW 7488   1.984   2.505   0.563
 1637SOL    HW1 7489   1.939   2.417   0.580
 1637SOL    HW2 7490   1.983   2.559   0.647
 1638SOL     OW 7491   1.889   3.458   0.117
 1638SOL    HW1 7492   1.870   3.362   0.138
 1638SOL    HW2 7493   1.856   3.516   0.192
 1639SOL     OW 7494   3.551   2.784   0.612
 1639SOL    HW1 7495   3.646   2.755   0.620
 1639SOL    HW2 7496   3.543   2.849   0.537
 1640SOL     OW 7497   3.503   2.970   0.432
 1640SOL    HW1 7498   3.589   2.972   0.380
 1640SOL    HW2 7499   3.517   3.017   0.520
 1641SOL     OW 7500   1.975   2.599   1.597
 1641SOL    HW1 7501   2.063   2.586   1.642
 1641SOL    HW2 7502   1.962   2.696   1.575
 1642SOL     OW 7503   2.475   3.227   0.726
 1642SOL    HW1 7504   2.426   3.140   0.735
 1642SOL    HW2 7505   2.452   3.270   0.639
 1643SOL     OW 7506   2.671   1.866   0.502
 1643SOL    HW1 7507   2.711   1.957   0.493
 1643SOL    HW2 7508   2.571   1.874   0.508
 1644SOL     OW 7509   2.059   2.838   1.264
 1644SOL    HW1 7510   2.148   2.793   1.250
 1644SOL    HW2 7511   1.986   2.773   1.245
 1645SOL     OW 7512   2.179   2.113   1.801
 1645SOL    HW1 7513   2.250   2.184   1.807
 1645SOL    HW2 7514   2.091   2.152   1.829
 1646SOL     OW 7515   3.328   3.279   0.953
 1646SOL    HW1 7516   3.269   3.285   1.033
 1646SOL    HW2 7517   3.313   3.191   0.907
 1647SOL     OW 7518   3.529   3.576   0.572
 1647SOL    HW1 7519   3.488   3.553   0.484
 1647SOL    HW2 7520   3.511   3.502   0.637
 1648SOL     OW 7521   2.460   2.591   0.270
 1648SOL    HW1 7522   2.484   2.660   0.202
 1648SOL    HW2 7523   2.382   2.624   0.324
 1649SOL     OW 7524   3.143   2.207   0.944
 1649SOL    HW1 7525   3.057   2.157   0.931
 1649SOL    HW2 7526   3.205   2.153   1.000
 1650SOL     OW 7527   3.438   3.524   0.307
 1650SOL    HW1 7528   3.527   3.570   0.310
 1650SOL    HW2 7529   3.417   3.500   0.212
 1651SOL     OW 7530   2.835   2.752   1.572
 1651SOL    HW1 7531   2.881   2.668   1.543
 1651SOL    HW2 7532   2.779   2.786   1.497
 1652SOL     OW 7533   2.903   2.563   0.429
 1652SOL    HW1 7534   2.929   2.559   0.525
 1652SOL    HW2 7535   2.818   2.512   0.415
 1653SOL     OW 7536   1.992   3.683   1.571
 1653SOL    HW1 7537   1.982   3.668   1.670
 1653SOL    HW2 7538   1.906   3.719   1.535
 1654SOL     OW 7539   2.727   2.210   0.195
 1654SOL    HW1 7540   2.786   2.273   0.146
 1654SOL    HW2 7541   2.746   2.116   0.166
 1655SOL     OW 7542   3.581   2.447   1.831
 1655SOL    HW1 7543   3.555   2.536   1.795
 1655SOL    HW2 7544   3.579   2.379   1.758
 1656SOL     OW 7545   3.224   3.006   0.545
 1656SOL    HW1 7546   3.307   2.977   0.497
 1656SOL    HW2 7547   3.175   3.073   0.489
 1657SOL     OW 7548   2.870   3.318   0.477
 1657SOL    HW1 7549   2.824   3.390   0.425
 1657SOL    HW2 7550   2.866   3.338   0.575
 1658SOL     OW 7551   2.213   3.663   0.853
 1658SOL    HW1 7552   2.263   3.577   0.859
 1658SOL    HW2 7553   2.278   3.740   0.850
 1659SOL     OW 7554   3.657   2.928   0.873
 1659SOL    HW1 7555   3.595   2.913   0.797
 1659SOL    HW2 7556   3.605   2.939   0.958
 1660SOL     OW 7557   3.089   3.412   1.506
 1660SOL    HW1 7558   3.095   3.335   1.570
 1660SOL    HW2 7559   3.037   3.386   1.426
 1661SOL     OW 7560   2.183   2.805   0.242
 1661SOL    HW1 7561   2.265   2.844   0.200
 1661SOL    HW2 7562   2.156   2.723   0.193
 1662SOL     OW 7563   2.323   3.128   1.727
 1662SOL    HW1 7564   2.273   3.129   1.641
 1662SOL    HW2 7565   2.260   3.110   1.803
 1663SOL     OW 7566   2.973   3.638   0.237
 1663SOL    HW1 7567   2.913   3.576   0.287
 1663SOL    HW2 7568   3.004   3.594   0.152
 1664SOL     OW 7569   2.064   2.147   1.498
 1664SOL    HW1 7570   1.984   2.207   1.485
 1664SOL    HW2 7571   2.054   2.098   1.584
 1665SOL     OW 7572   3.262   1.969   0.426
 1665SOL    HW1 7573   3.238   1.932   0.336
 1665SOL    HW2 7574   3.361   1.985   0.430
 1666SOL     OW 7575   2.802   3.560   0.904
 1666SOL    HW1 7576   2.882   3.503   0.925
 1666SOL    HW2 7577   2.753   3.520   0.827
 1667SOL     OW 7578   2.244   2.562   0.480
 1667SOL    HW1 7579   2.289   2.472   0.477
 1667SOL    HW2 7580   2.150   2.551   0.513
 1668SOL     OW 7581   3.409   2.084   1.729
 1668SOL    HW1 7582   3.404   2.121   1.821
 1668SOL    HW2 7583   3.337   2.015   1.717
 1669SOL     OW 7584   2.665   3.264   0.924
 1669SOL    HW1 7585   2.755   3.278   0.882
 1669SOL    HW2 7586   2.594   3.266   0.853
 1670SOL     OW 7587   2.401   1.926   0.512
 1670SOL    HW1 7588   2.320   1.927   0.570
 1670SOL    HW2 7589   2.404   2.009   0.457
 1671SOL     OW 7590   2.159   1.897   0.171
 1671SOL    HW1 7591   2.208   1.981   0.150
 1671SOL    HW2 7592   2.221   1.832   0.216
 1672SOL     OW 7593   2.797   2.098   0.480
 1672SOL    HW1 7594   2.749   2.139   0.402
 1672SOL    HW2 7595   2.896   2.096   0.461
 1673SOL     OW 7596   3.089   3.432   0.793
 1673SOL    HW1 7597   3.110   3.506   0.728
 1673SOL    HW2 7598   3.157   3.432   0.866
 1674SOL     OW 7599   2.321   3.014   0.741
 1674SOL    HW1 7600   2.250   2.987   0.806
 1674SOL    HW2 7601   2.295   2.986   0.648
 1675SOL     OW 7602   3.133   3.659   0.591
 1675SOL    HW1 7603   3.177   3.723   0.527
 1675SOL    HW2 7604   3.083   3.711   0.661
 1676SOL     OW 7605   2.894   2.411   0.016
 1676SOL    HW1 7606   2.853   2.493  -0.023
 1676SOL    HW2 7607   2.958   2.437   0.089
 1677SOL     OW 7608   1.940   2.418   1.386
 1677SOL    HW1 7609   2.032   2.417   1.345
 1677SOL    HW2 7610   1.934   2.492   1.453
 1678SOL     OW 7611   2.728   2.316   0.642
 1678SOL    HW1 7612   2.696   2.388   0.580
 1678SOL    HW2 7613   2.752   2.235   0.589
 1679SOL     OW 7614   2.879   1.901   0.753
 1679SOL    HW1 7615   2.807   1.906   0.684
 1679SOL    HW2 7616   2.855   1.832   0.822
 1680SOL     OW 7617   3.291   3.035   0.867
 1680SOL    HW1 7618   3.236   2.951   0.860
 1680SOL    HW2 7619   3.317   3.064   0.775
 1681SOL     OW 7620   3.328   2.452   0.992
 1681SOL    HW1 7621   3.298   2.357   0.999
 1681SOL    HW2 7622   3.401   2.468   1.058
 1682SOL     OW 7623   3.719   2.695   0.377
 1682SOL    HW1 7624   3.761   2.631   0.441
 1682SOL    HW2 7625   3.681   2.644   0.299
 1683SOL     OW 7626   3.526   3.142   0.657
 1683SOL    HW1 7627   3.625   3.150   0.671
 1683SOL    HW2 7628   3.481   3.226   0.688
 1684SOL     OW 7629   3.252   2.437   0.078
 1684SOL    HW1 7630   3.198   2.416   0.159
 1684SOL    HW2 7631   3.343   2.396   0.087
 1685SOL     OW 7632   2.389   2.118   0.328
 1685SOL    HW1 7633   2.416   2.059   0.253
 1685SOL    HW2 7634   2.389   2.213   0.297
 1686SOL     OW 7635   3.500   2.961   1.079
 1686SOL    HW1 7636   3.505   3.042   1.138
 1686SOL    HW2 7637   3.414   2.963   1.028
 1687SOL     OW 7638   2.777   1.951   1.402
 1687SOL    HW1 7639   2.802   1.931   1.307
 1687SOL    HW2 7640   2.849   2.007   1.444
 1688SOL     OW 7641   2.842   2.978   1.719
 1688SOL    HW1 7642   2.743   2.984   1.729
 1688SOL    HW2 7643   2.865   2.898   1.663
 1689SOL     OW 7644   2.567   2.912   0.368
 1689SOL    HW1 7645   2.553   2.919   0.467
 1689SOL    HW2 7646   2.651   2.861   0.350
 1690SOL     OW 7647   2.272   2.675   1.251
 1690SOL    HW1 7648   2.358   2.687   1.301
 1690SOL    HW2 7649   2.230   2.588   1.278
 1691SOL     OW 7650   1.926   3.426   1.331
 1691SOL    HW1 7651   1.880   3.508   1.297
 1691SOL    HW2 7652   2.024   3.445   1.340
 1692SOL     OW 7653   2.229   2.962   0.501
 1692SOL    HW1 7654   2.222   3.045   0.445
 1692SOL    HW2 7655   2.233   2.882   0.441
 1693SOL     OW 7656   2.428   2.399   0.865
 1693SOL    HW1 7657   2.440   2.465   0.791
 1693SOL    HW2 7658   2.474   2.433   0.948
 1694SOL     OW 7659   3.114   3.210   0.388
 1694SOL    HW1 7660   3.164   3.287   0.428
 1694SOL    HW2 7661   3.019   3.212   0.420
 1695SOL     OW 7662   3.134   3.307   1.142
 1695SOL    HW1 7663   3.181   3.320   1.229
 1695SOL    HW2 7664   3.068   3.233   1.151
 1696SOL     OW 7665   3.444   2.501   0.472
 1696SOL    HW1 7666   3.413   2.562   0.545
 1696SOL    HW2 7667   3.494   2.553   0.403
 1697SOL     OW 7668   2.264   2.613   1.598
 1697SOL    HW1 7669   2.332   2.668   1.551
 1697SOL    HW2 7670   2.304   2.525   1.625
 1698SOL     OW 7671   3.449   2.641   1.670
 1698SOL    HW1 7672   3.357   2.679   1.665
 1698SOL    HW2 7673   3.509   2.688   1.605
 1699SOL     OW 7674   2.366   1.912   1.740
 1699SOL    HW1 7675   2.324   1.855   1.670
 1699SOL    HW2 7676   2.300   1.981   1.772
 1700SOL     OW 7677   2.435   2.732   1.029
 1700SOL    HW1 7678   2.479   2.821   1.020
 1700SOL    HW2 7679   2.372   2.732   1.106
 1701SOL     OW 7680   3.071   2.387   0.275
 1701SOL    HW1 7681   3.084   2.303   0.329
 1701SOL    HW2 7682   3.042   2.461   0.335
 1702SOL     OW 7683   2.169   2.075   1.231
 1702SOL    HW1 7684   2.146   2.112   1.321
 1702SOL    HW2 7685   2.139   1.980   1.225
 1703SOL     OW 7686   1.899   3.172   1.282
 1703SOL    HW1 7687   1.952   3.123   1.350
 1703SOL    HW2 7688   1.921   3.270   1.287
 1704SOL     OW 7689   2.594   2.496   1.064
 1704SOL    HW1 7690   2.653   2.470   0.988
 1704SOL    HW2 7691   2.566   2.592   1.053
 1705SOL     OW 7692   3.590   2.797   1.854
 1705SOL    HW1 7693   3.544   2.790   1.765
 1705SOL    HW2 7694   3.528   2.841   1.920
 1706SOL     OW 7695   3.484   2.229   0.374
 1706SOL    HW1 7696   3.486   2.153   0.438
 1706SOL    HW2 7697   3.436   2.306   0.414
 1707SOL     OW 7698   2.885   2.628   0.966
 1707SOL    HW1 7699   2.900   2.649   1.062
 1707SOL    HW2 7700   2.855   2.533   0.957
 1708SOL     OW 7701   2.842   3.435   1.700
 1708SOL    HW1 7702   2.822   3.479   1.612
 1708SOL    HW2 7703   2.881   3.344   1.684
 1709SOL     OW 7704   2.212   2.760   1.804
 1709SOL    HW1 7705   2.288   2.804   1.852
 1709SOL    HW2 7706   2.247   2.713   1.722
 1710SOL     OW 7707   3.402   2.136   0.125
 1710SOL    HW1 7708   3.341   2.061   0.148
 1710SOL    HW2 7709   3.424   2.188   0.208
 1711SOL     OW 7710   2.930   3.195   0.849
 1711SOL    HW1 7711   2.937   3.111   0.794
 1711SOL    HW2 7712   2.992   3.264   0.813
 1712SOL     OW 7713   2.181   2.672   0.949
 1712SOL    HW1 7714   2.274   2.708   0.954
 1712SOL    HW2 7715   2.175   2.587   1.001
 1713SOL     OW 7716   2.201   2.371   1.006
 1713SOL    HW1 7717   2.149   2.288   0.989
 1713SOL    HW2 7718   2.278   2.376   0.942
 1714SOL     OW 7719   3.022   2.069   1.477
 1714SOL    HW1 7720   3.022   2.133   1.554
 1714SOL    HW2 7721   3.050   2.117   1.394
 1715SOL     OW 7722   1.950   3.663   0.927
 1715SOL    HW1 7723   1.908   3.577   0.900
 1715SOL    HW2 7724   2.044   3.666   0.893
 1716SOL     OW 7725   2.366   3.430   0.910
 1716SOL    HW1 7726   2.432   3.504   0.919
 1716SOL    HW2 7727   2.410   3.351   0.868
 1717SOL     OW 7728   1.902   2.406   1.114
 1717SOL    HW1 7729   1.987   2.373   1.073
 1717SOL    HW2 7730   1.915   2.421   1.212
 1718SOL     OW 7731   2.051   2.382   1.722
 1718SOL    HW1 7732   2.110   2.342   1.652
 1718SOL    HW2 7733   1.993   2.453   1.681
 1719SOL     OW 7734   2.677   2.434   0.325
 1719SOL    HW1 7735   2.684   2.345   0.279
 1719SOL    HW2 7736   2.583   2.468   0.317
 1720SOL     OW 7737   3.519   2.466   1.206
 1720SOL    HW1 7738   3.481   2.397   1.268
 1720SOL    HW2 7739   3.601   2.430   1.162
 1721SOL     OW 7740   2.114   3.426   1.744
 1721SOL    HW1 7741   2.084   3.483   1.820
 1721SOL    HW2 7742   2.107   3.329   1.770
 1722SOL     OW 7743   2.792   3.540   1.465
 1722SOL    HW1 7744   2.768   3.522   1.370
 1722SOL    HW2 7745   2.822   3.634   1.475
 1723SOL     OW 7746   2.335   2.362   0.191
 1723SOL    HW1 7747   2.396   2.442   0.195
 1723SOL    HW2 7748   2.240   2.393   0.198
 1724SOL     OW 7749   2.021   2.999   1.466
 1724SOL    HW1 7750   2.043   2.938   1.542
 1724SOL    HW2 7751   2.031   2.950   1.380
 1725SOL     OW 7752   3.164   2.717   0.309
 1725SOL    HW1 7753   3.078   2.686   0.351
 1725SOL    HW2 7754   3.160   2.703   0.210
 1726SOL     OW 7755   3.114   3.593   1.128
 1726SOL    HW1 7756   3.198   3.598   1.074
 1726SOL    HW2 7757   3.091   3.497   1.146
 1727SOL     OW 7758   1.945   3.120   1.022
 1727SOL    HW1 7759   1.940   3.119   1.122
 1727SOL    HW2 7760   1.862   3.079   0.984
 1728SOL     OW 7761   2.550   3.524   1.716
 1728SOL    HW1 7762   2.494   3.605   1.725
 1728SOL    HW2 7763   2.602   3.528   1.630
 1729SOL     OW 7764   2.765   1.948   0.133
 1729SOL    HW1 7765   2.816   1.949   0.047
 1729SOL    HW2 7766   2.821   1.906   0.204
 1730SOL     OW 7767   3.588   1.997   0.523
 1730SOL    HW1 7768   3.661   1.980   0.456
 1730SOL    HW2 7769   3.557   1.910   0.561
 1731SOL     OW 7770   3.250   3.435   0.477
 1731SOL    HW1 7771   3.317   3.447   0.403
 1731SOL    HW2 7772   3.210   3.524   0.500
 1732SOL     OW 7773   3.142   2.789   0.672
 1732SOL    HW1 7774   3.202   2.708   0.674
 1732SOL    HW2 7775   3.182   2.858   0.612
 1733SOL     OW 7776   2.692   3.135   1.422
 1733SOL    HW1 7777   2.687   3.168   1.517
 1733SOL    HW2 7778   2.606   3.154   1.376
 1734SOL     OW 7779   2.534   3.478   0.154
 1734SOL    HW1 7780   2.543   3.488   0.055
 1734SOL    HW2 7781   2.494   3.389   0.175
 1735SOL     OW 7782   3.512   3.582   1.394
 1735SOL    HW1 7783   3.565   3.592   1.310
 1735SOL    HW2 7784   3.485   3.672   1.428
 1736SOL     OW 7785   2.125   2.188   0.720
 1736SOL    HW1 7786   2.046   2.239   0.686
 1736SOL    HW2 7787   2.116   2.173   0.818
 1737SOL     OW 7788   3.056   3.474   0.031
 1737SOL    HW1 7789   3.062   3.381   0.068
 1737SOL    HW2 7790   2.997   3.474  -0.049
 1738SOL     OW 7791   2.684   2.864   1.372
 1738SOL    HW1 7792   2.724   2.863   1.280
 1738SOL    HW2 7793   2.694   2.956   1.412
 1739SOL     OW 7794   2.778   2.772   0.291
 1739SOL    HW1 7795   2.841   2.810   0.223
 1739SOL    HW2 7796   2.818   2.689   0.330
 1740SOL     OW 7797   3.366   3.469   0.044
 1740SOL    HW1 7798   3.274   3.506   0.051
 1740SOL    HW2 7799   3.404   3.489  -0.046
 1741SOL     OW 7800   2.234   3.150   1.490
 1741SOL    HW1 7801   2.221   3.243   1.456
 1741SOL    HW2 7802   2.150   3.098   1.477
 1742SOL     OW 7803   2.901   2.960   0.696
 1742SOL    HW1 7804   2.831   2.913   0.750
 1742SOL    HW2 7805   2.960   2.892   0.653
 1743SOL     OW 7806   2.452   3.349   0.491
 1743SOL    HW1 7807   2.494   3.291   0.421
 1743SOL    HW2 7808   2.408   3.428   0.447
 1744SOL     OW 7809   3.571   2.247   1.381
 1744SOL    HW1 7810   3.644   2.316   1.385
 1744SOL    HW2 7811   3.599   2.172   1.322
 1745SOL     OW 7812   2.117   3.210   0.290
 1745SOL    HW1 7813   2.021   3.211   0.263
 1745SOL    HW2 7814   2.129   3.263   0.374
 1746SOL     OW 7815   1.934   2.028   0.318
 1746SOL    HW1 7816   1.917   2.111   0.264
 1746SOL    HW2 7817   2.024   1.991   0.296
 1747SOL     OW 7818   3.045   3.197   0.119
 1747SOL    HW1 7819   2.946   3.186   0.121
 1747SOL    HW2 7820   3.079   3.212   0.212
 1748SOL     OW 7821   2.475   2.704   1.431
 1748SOL    HW1 7822   2.531   2.785   1.414
 1748SOL    HW2 7823   2.534   2.624   1.434
 1749SOL     OW 7824   3.355   3.629   0.959
 1749SOL    HW1 7825   3.388   3.693   0.890
 1749SOL    HW2 7826   3.421   3.623   1.034
 1750SOL     OW 7827   3.312   3.082   1.633
 1750SOL    HW1 7828   3.303   3.072   1.732
 1750SOL    HW2 7829   3.408   3.075   1.607
 1751SOL     OW 7830   2.252   3.603   1.560
 1751SOL    HW1 7831   2.161   3.644   1.558
 1751SOL    HW2 7832   2.245   3.509   1.592
 1752SOL     OW 7833   3.087   2.187   0.449
 1752SOL    HW1 7834   3.152   2.113   0.438
 1752SOL    HW2 7835   3.107   2.237   0.533
 1753SOL     OW 7836   2.456   2.607   0.652
 1753SOL    HW1 7837   2.506   2.692   0.633
 1753SOL    HW2 7838   2.368   2.609   0.604
 1754SOL     OW 7839   3.639   2.204   1.642
 1754SOL    HW1 7840   3.622   2.235   1.548
 1754SOL    HW2 7841   3.555   2.167   1.680
 1755SOL     OW 7842   2.721   3.236   0.016
 1755SOL    HW1 7843   2.675   3.251   0.104
 1755SOL    HW2 7844   2.765   3.321  -0.014
 1756SOL     OW 7845   2.721   2.818   0.861
 1756SOL    HW1 7846   2.775   2.749   0.909
 1756SOL    HW2 7847   2.689   2.887   0.927
 1757SOL     OW 7848   2.945   2.846   0.087
 1757SOL    HW1 7849   2.922   2.899   0.005
 1757SOL    HW2 7850   3.026   2.790   0.068
 1758SOL     OW 7851   3.723   3.431   0.851
 1758SOL    HW1 7852   3.652   3.419   0.781
 1758SOL    HW2 7853   3.724   3.352   0.911
 1759SOL     OW 7854   2.534   3.253   1.624
 1759SOL    HW1 7855   2.456   3.203   1.662
 1759SOL    HW2 7856   2.531   3.348   1.655
 1760SOL     OW 7857   2.290   2.286   0.520
 1760SOL    HW1 7858   2.320   2.214   0.458
 1760SOL    HW2 7859   2.251   2.246   0.603
 1761SOL     OW 7860   2.179   2.409   1.280
 1761SOL    HW1 7861   2.217   2.350   1.352
 1761SOL    HW2 7862   2.219   2.383   1.192
 1762SOL     OW 7863   2.674   3.448   0.687
 1762SOL    HW1 7864   2.706   3.458   0.593
 1762SOL    HW2 7865   2.595   3.386   0.689
 1763SOL     OW 7866   3.286   2.076   1.112
 1763SOL    HW1 7867   3.338   2.011   1.167
 1763SOL    HW2 7868   3.237   2.139   1.173
 1764SOL     OW 7869   2.863   1.896   1.154
 1764SOL    HW1 7870   2.800   1.824   1.123
 1764SOL    HW2 7871   2.956   1.860   1.154
 1765SOL     OW 7872   2.632   3.192   0.301
 1765SOL    HW1 7873   2.586   3.105   0.318
 1765SOL    HW2 7874   2.723   3.189   0.342
 1766SOL     OW 7875   3.214   1.914   0.168
 1766SOL    HW1 7876   3.249   1.873   0.084
 1766SOL    HW2 7877   3.124   1.876   0.188
 1767SOL     OW 7878   3.162   2.315   0.691
 1767SOL    HW1 7879   3.103   2.395   0.695
 1767SOL    HW2 7880   3.177   2.280   0.784
 1768SOL     OW 7881   3.455   2.083   0.882
 1768SOL    HW1 7882   3.371   2.082   0.936
 1768SOL    HW2 7883   3.457   2.166   0.826
 1769SOL     OW 7884   2.737   3.508   0.337
 1769SOL    HW1 7885   2.660   3.473   0.283
 1769SOL    HW2 7886   2.705   3.579   0.399
 1770SOL     OW 7887   2.092   2.490   1.975
 1770SOL    HW1 7888   1.999   2.488   2.012
 1770SOL    HW2 7889   2.093   2.451   1.883
 1771SOL     OW 7890   2.087   2.137   2.858
 1771SOL    HW1 7891   2.122   2.120   2.950
 1771SOL    HW2 7892   1.999   2.092   2.846
 1772SOL     OW 7893   1.881   2.230   2.509
 1772SOL    HW1 7894   1.799   2.273   2.548
 1772SOL    HW2 7895   1.853   2.157   2.446
 1773SOL     OW 7896   2.431   3.137   3.027
 1773SOL    HW1 7897   2.338   3.130   2.990
 1773SOL    HW2 7898   2.442   3.226   3.071
 1774SOL     OW 7899   3.417   3.373   2.565
 1774SOL    HW1 7900   3.360   3.357   2.646
 1774SOL    HW2 7901   3.358   3.383   2.485
 1775SOL     OW 7902   3.617   2.469   2.093
 1775SOL    HW1 7903   3.605   2.456   1.994
 1775SOL    HW2 7904   3.587   2.388   2.142
 1776SOL     OW 7905   2.630   3.006   2.885
 1776SOL    HW1 7906   2.552   3.023   2.945
 1776SOL    HW2 7907   2.664   3.093   2.849
 1777SOL     OW 7908   2.712   2.660   3.685
 1777SOL    HW1 7909   2.708   2.736   3.750
 1777SOL    HW2 7910   2.734   2.696   3.594
 1778SOL     OW 7911   2.548   3.023   3.665
 1778SOL    HW1 7912   2.608   3.102   3.679
 1778SOL    HW2 7913   2.462   3.054   3.624
 1779SOL     OW 7914   2.197   3.297   2.923
 1779SOL    HW1 7915   2.119   3.266   2.870
 1779SOL    HW2 7916   2.255   3.355   2.866
 1780SOL     OW 7917   3.322   3.367   3.201
 1780SOL    HW1 7918   3.346   3.461   3.227
 1780SOL    HW2 7919   3.306   3.313   3.283
 1781SOL     OW 7920   2.300   2.254   3.361
 1781SOL    HW1 7921   2.382   2.198   3.370
 1781SOL    HW2 7922   2.219   2.196   3.365
 1782SOL     OW 7923   3.465   2.309   2.599
 1782SOL    HW1 7924   3.391   2.355   2.549
 1782SOL    HW2 7925   3.516   2.377   2.652
 1783SOL     OW 7926   2.989   3.203   3.552
 1783SOL    HW1 7927   3.036   3.203   3.640
 1783SOL    HW2 7928   2.941   3.116   3.541
 1784SOL     OW 7929   2.092   3.296   2.400
 1784SOL    HW1 7930   2.066   3.392   2.400
 1784SOL    HW2 7931   2.021   3.242   2.445
 1785SOL     OW 7932   2.102   2.953   2.748
 1785SOL    HW1 7933   2.116   2.869   2.800
 1785SOL    HW2 7934   2.047   3.017   2.803
 1786SOL     OW 7935   2.482   3.648   3.301
 1786SOL    HW1 7936   2.390   3.631   3.336
 1786SOL    HW2 7937   2.510   3.740   3.327
 1787SOL     OW 7938   3.551   2.784   2.474
 1787SOL    HW1 7939   3.646   2.755   2.482
 1787SOL    HW2 7940   3.543   2.849   2.399
 1788SOL     OW 7941   3.503   2.970   2.294
 1788SOL    HW1 7942   3.589   2.972   2.242
 1788SOL    HW2 7943   3.517   3.017   2.382
 1789SOL     OW 7944   1.975   2.599   3.459
 1789SOL    HW1 7945   2.063   2.586   3.504
 1789SOL    HW2 7946   1.962   2.696   3.437
 1790SOL     OW 7947   2.475   3.227   2.588
 1790SOL    HW1 7948   2.426   3.140   2.597
 1790SOL    HW2 7949   2.452   3.270   2.501
 1791SOL     OW 7950   2.671   1.866   2.364
 1791SOL    HW1 7951   2.711   1.957   2.355
 1791SOL    HW2 7952   2.571   1.874   2.370
 1792SOL     OW 7953   2.059   2.838   3.126
 1792SOL    HW1 7954   2.148   2.793   3.112
 1792SOL    HW2 7955   1.986   2.773   3.107
 1793SOL     OW 7956   3.387   2.861   2.052
 1793SOL    HW1 7957   3.324   2.785   2.065
 1793SOL    HW2 7958   3.435   2.879   2.138
 1794SOL     OW 7959   3.049   3.654   3.478
 1794SOL    HW1 7960   3.073   3.714   3.402
 1794SOL    HW2 7961   3.056   3.559   3.448
 1795SOL     OW 7962   2.179   2.113   3.663
 1795SOL    HW1 7963   2.250   2.184   3.669
 1795SOL    HW2 7964   2.091   2.152   3.691
 1796SOL     OW 7965   3.328   3.279   2.815
 1796SOL    HW1 7966   3.269   3.285   2.895
 1796SOL    HW2 7967   3.313   3.191   2.769
 1797SOL     OW 7968   2.460   2.591   2.132
 1797SOL    HW1 7969   2.484   2.660   2.064
 1797SOL    HW2 7970   2.382   2.624   2.186
 1798SOL     OW 7971   3.143   2.207   2.806
 1798SOL    HW1 7972   3.057   2.157   2.793
 1798SOL    HW2 7973   3.205   2.153   2.862
 1799SOL     OW 7974   2.669   2.467   3.327
 1799SOL    HW1 7975   2.622   2.464   3.416
 1799SOL    HW2 7976   2.618   2.412   3.261
 1800SOL     OW 7977   3.256   2.331   3.536
 1800SOL    HW1 7978   3.236   2.374   3.624
 1800SOL    HW2 7979   3.334   2.269   3.545
 1801SOL     OW 7980   2.835   2.752   3.434
 1801SOL    HW1 7981   2.881   2.668   3.405
 1801SOL    HW2 7982   2.779   2.786   3.359
 1802SOL     OW 7983   2.853   2.272   3.104
 1802SOL    HW1 7984   2.776   2.306   3.158
 1802SOL    HW2 7985   2.819   2.221   3.025
 1803SOL     OW 7986   2.903   2.563   2.291
 1803SOL    HW1 7987   2.929   2.559   2.387
 1803SOL    HW2 7988   2.818   2.512   2.277
 1804SOL     OW 7989   1.938   2.673   2.651
 1804SOL    HW1 7990   2.037   2.661   2.660
 1804SOL    HW2 7991   1.914   2.768   2.672
 1805SOL     OW 7992   2.727   2.210   2.057
 1805SOL    HW1 7993   2.786   2.273   2.008
 1805SOL    HW2 7994   2.746   2.116   2.028
 1806SOL     OW 7995   3.581   2.447   3.693
 1806SOL    HW1 7996   3.555   2.536   3.657
 1806SOL    HW2 7997   3.579   2.379   3.620
 1807SOL     OW 7998   3.224   3.006   2.407
 1807SOL    HW1 7999   3.307   2.977   2.359
 1807SOL    HW2 8000   3.175   3.073   2.351
 1808SOL     OW 8001   2.412   2.058   2.747
 1808SOL    HW1 8002   2.407   2.053   2.847
 1808SOL    HW2 8003   2.414   2.154   2.718
 1809SOL     OW 8004   2.870   3.318   2.339
 1809SOL    HW1 8005   2.824   3.390   2.287
 1809SOL    HW2 8006   2.866   3.338   2.437
 1810SOL     OW 8007   2.213   3.663   2.715
 1810SOL    HW1 8008   2.263   3.577   2.721
 1810SOL    HW2 8009   2.278   3.740   2.712
 1811SOL     OW 8010   3.089   3.412   3.368
 1811SOL    HW1 8011   3.095   3.335   3.432
 1811SOL    HW2 8012   3.037   3.386   3.288
 1812SOL     OW 8013   3.320   2.597   2.590
 1812SOL    HW1 8014   3.315   2.532   2.665
 1812SOL    HW2 8015   3.400   2.656   2.603
 1813SOL     OW 8016   2.064   2.147   3.360
 1813SOL    HW1 8017   1.984   2.207   3.347
 1813SOL    HW2 8018   2.054   2.098   3.446
 1814SOL     OW 8019   3.494   3.239   1.943
 1814SOL    HW1 8020   3.462   3.333   1.933
 1814SOL    HW2 8021   3.418   3.176   1.931
 1815SOL     OW 8022   2.326   3.605   2.185
 1815SOL    HW1 8023   2.359   3.644   2.271
 1815SOL    HW2 8024   2.402   3.598   2.120
 1816SOL     OW 8025   3.262   1.969   2.288
 1816SOL    HW1 8026   3.238   1.932   2.198
 1816SOL    HW2 8027   3.361   1.985   2.292
 1817SOL     OW 8028   2.111   3.647   3.103
 1817SOL    HW1 8029   2.168   3.582   3.153
 1817SOL    HW2 8030   2.095   3.614   3.010
 1818SOL     OW 8031   2.802   3.560   2.766
 1818SOL    HW1 8032   2.882   3.503   2.787
 1818SOL    HW2 8033   2.753   3.520   2.689
 1819SOL     OW 8034   2.244   2.562   2.342
 1819SOL    HW1 8035   2.289   2.472   2.339
 1819SOL    HW2 8036   2.150   2.551   2.375
 1820SOL     OW 8037   2.476   1.984   1.979
 1820SOL    HW1 8038   2.574   1.962   1.986
 1820SOL    HW2 8039   2.445   1.967   1.886
 1821SOL     OW 8040   2.643   2.126   3.611
 1821SOL    HW1 8041   2.710   2.065   3.654
 1821SOL    HW2 8042   2.570   2.145   3.676
 1822SOL     OW 8043   2.750   3.376   3.057
 1822SOL    HW1 8044   2.727   3.351   2.963
 1822SOL    HW2 8045   2.811   3.307   3.096
 1823SOL     OW 8046   3.213   2.452   3.295
 1823SOL    HW1 8047   3.241   2.409   3.380
 1823SOL    HW2 8048   3.238   2.548   3.296
 1824SOL     OW 8049   2.665   3.264   2.786
 1824SOL    HW1 8050   2.755   3.278   2.744
 1824SOL    HW2 8051   2.594   3.266   2.715
 1825SOL     OW 8052   2.401   1.926   2.374
 1825SOL    HW1 8053   2.320   1.927   2.432
 1825SOL    HW2 8054   2.404   2.009   2.319
 1826SOL     OW 8055   3.296   3.050   1.903
 1826SOL    HW1 8056   3.328   2.974   1.960
 1826SOL    HW2 8057   3.204   3.077   1.933
 1827SOL     OW 8058   2.797   2.098   2.342
 1827SOL    HW1 8059   2.749   2.139   2.264
 1827SOL    HW2 8060   2.896   2.096   2.323
 1828SOL     OW 8061   2.938   2.545   3.326
 1828SOL    HW1 8062   2.858   2.484   3.329
 1828SOL    HW2 8063   3.019   2.492   3.302
 1829SOL     OW 8064   3.089   3.432   2.655
 1829SOL    HW1 8065   3.110   3.506   2.590
 1829SOL    HW2 8066   3.157   3.432   2.728
 1830SOL     OW 8067   2.321   3.014   2.603
 1830SOL    HW1 8068   2.250   2.987   2.668
 1830SOL    HW2 8069   2.295   2.986   2.510
 1831SOL     OW 8070   3.133   3.659   2.453
 1831SOL    HW1 8071   3.177   3.723   2.389
 1831SOL    HW2 8072   3.083   3.711   2.523
 1832SOL     OW 8073   2.894   2.411   1.878
 1832SOL    HW1 8074   2.853   2.493   1.839
 1832SOL    HW2 8075   2.958   2.437   1.951
 1833SOL     OW 8076   1.940   2.418   3.248
 1833SOL    HW1 8077   2.032   2.417   3.207
 1833SOL    HW2 8078   1.934   2.492   3.315
 1834SOL     OW 8079   2.423   2.084   3.009
 1834SOL    HW1 8080   2.461   2.000   3.046
 1834SOL    HW2 8081   2.335   2.103   3.053
 1835SOL     OW 8082   2.879   1.901   2.615
 1835SOL    HW1 8083   2.807   1.906   2.546
 1835SOL    HW2 8084   2.855   1.832   2.684
 1836SOL     OW 8085   3.291   3.035   2.729
 1836SOL    HW1 8086   3.236   2.951   2.722
 1836SOL    HW2 8087   3.317   3.064   2.637
 1837SOL     OW 8088   3.328   2.452   2.854
 1837SOL    HW1 8089   3.298   2.357   2.861
 1837SOL    HW2 8090   3.401   2.468   2.920
 1838SOL     OW 8091   3.719   2.695   2.239
 1838SOL    HW1 8092   3.761   2.631   2.303
 1838SOL    HW2 8093   3.681   2.644   2.161
 1839SOL     OW 8094   3.526   3.142   2.519
 1839SOL    HW1 8095   3.625   3.150   2.533
 1839SOL    HW2 8096   3.481   3.226   2.550
 1840SOL     OW 8097   3.252   2.437   1.940
 1840SOL    HW1 8098   3.198   2.416   2.021
 1840SOL    HW2 8099   3.343   2.396   1.949
 1841SOL     OW 8100   2.389   2.118   2.190
 1841SOL    HW1 8101   2.416   2.059   2.115
 1841SOL    HW2 8102   2.389   2.213   2.159
 1842SOL     OW 8103   3.616   3.085   3.450
 1842SOL    HW1 8104   3.707   3.046   3.437
 1842SOL    HW2 8105   3.624   3.181   3.474
 1843SOL     OW 8106   2.926   3.209   3.202
 1843SOL    HW1 8107   2.846   3.186   3.257
 1843SOL    HW2 8108   3.009   3.183   3.251
 1844SOL     OW 8109   3.454   3.491   3.487
 1844SOL    HW1 8110   3.481   3.525   3.397
 1844SOL    HW2 8111   3.533   3.453   3.533
 1845SOL     OW 8112   2.973   3.057   2.962
 1845SOL    HW1 8113   2.933   3.101   3.043
 1845SOL    HW2 8114   2.932   3.094   2.879
 1846SOL     OW 8115   2.777   1.951   3.264
 1846SOL    HW1 8116   2.802   1.931   3.169
 1846SOL    HW2 8117   2.849   2.007   3.306
 1847SOL     OW 8118   2.842   2.978   3.581
 1847SOL    HW1 8119   2.743   2.984   3.591
 1847SOL    HW2 8120   2.865   2.898   3.525
 1848SOL     OW 8121   2.272   2.675   3.113
 1848SOL    HW1 8122   2.358   2.687   3.163
 1848SOL    HW2 8123   2.230   2.588   3.140
 1849SOL     OW 8124   3.136   2.248   3.124
 1849SOL    HW1 8125   3.157   2.322   3.188
 1849SOL    HW2 8126   3.047   2.265   3.081
 1850SOL     OW 8127   1.926   3.426   3.193
 1850SOL    HW1 8128   1.880   3.508   3.159
 1850SOL    HW2 8129   2.024   3.445   3.202
 1851SOL     OW 8130   2.229   2.962   2.363
 1851SOL    HW1 8131   2.222   3.045   2.307
 1851SOL    HW2 8132   2.233   2.882   2.303
 1852SOL     OW 8133   3.114   3.210   2.250
 1852SOL    HW1 8134   3.164   3.287   2.290
 1852SOL    HW2 8135   3.019   3.212   2.282
 1853SOL     OW 8136   3.134   3.307   3.004
 1853SOL    HW1 8137   3.181   3.320   3.091
 1853SOL    HW2 8138   3.068   3.233   3.013
 1854SOL     OW 8139   3.444   2.501   2.334
 1854SOL    HW1 8140   3.413   2.562   2.407
 1854SOL    HW2 8141   3.494   2.553   2.265
 1855SOL     OW 8142   2.216   3.372   3.191
 1855SOL    HW1 8143   2.195   3.328   3.104
 1855SOL    HW2 8144   2.313   3.398   3.194
 1856SOL     OW 8145   2.264   2.613   3.460
 1856SOL    HW1 8146   2.332   2.668   3.413
 1856SOL    HW2 8147   2.304   2.525   3.487
 1857SOL     OW 8148   2.875   1.967   3.632
 1857SOL    HW1 8149   2.881   2.052   3.580
 1857SOL    HW2 8150   2.907   1.891   3.575
 1858SOL     OW 8151   2.435   2.732   2.891
 1858SOL    HW1 8152   2.479   2.821   2.882
 1858SOL    HW2 8153   2.372   2.732   2.968
 1859SOL     OW 8154   3.071   2.387   2.137
 1859SOL    HW1 8155   3.084   2.303   2.191
 1859SOL    HW2 8156   3.042   2.461   2.197
 1860SOL     OW 8157   2.169   2.075   3.093
 1860SOL    HW1 8158   2.146   2.112   3.183
 1860SOL    HW2 8159   2.139   1.980   3.087
 1861SOL     OW 8160   1.899   3.172   3.144
 1861SOL    HW1 8161   1.952   3.123   3.212
 1861SOL    HW2 8162   1.921   3.270   3.149
 1862SOL     OW 8163   3.590   2.797   3.716
 1862SOL    HW1 8164   3.544   2.790   3.627
 1862SOL    HW2 8165   3.528   2.841   3.782
 1863SOL     OW 8166   2.169   1.925   2.480
 1863SOL    HW1 8167   2.158   2.019   2.513
 1863SOL    HW2 8168   2.164   1.862   2.557
 1864SOL     OW 8169   3.484   2.229   2.236
 1864SOL    HW1 8170   3.486   2.153   2.300
 1864SOL    HW2 8171   3.436   2.306   2.276
 1865SOL     OW 8172   2.885   2.628   2.828
 1865SOL    HW1 8173   2.900   2.649   2.924
 1865SOL    HW2 8174   2.855   2.533   2.819
 1866SOL     OW 8175   2.842   3.435   3.562
 1866SOL    HW1 8176   2.822   3.479   3.474
 1866SOL    HW2 8177   2.881   3.344   3.546
 1867SOL     OW 8178   3.721   3.380   3.467
 1867SOL    HW1 8179   3.735   3.407   3.372
 1867SOL    HW2 8180   3.804   3.402   3.520
 1868SOL     OW 8181   2.212   2.760   3.666
 1868SOL    HW1 8182   2.288   2.804   3.714
 1868SOL    HW2 8183   2.247   2.713   3.584
 1869SOL     OW 8184   3.402   2.136   1.987
 1869SOL    HW1 8185   3.341   2.061   2.010
 1869SOL    HW2 8186   3.424   2.188   2.070
 1870SOL     OW 8187   3.165   2.700   1.904
 1870SOL    HW1 8188   3.199   2.607   1.919
 1870SOL    HW2 8189   3.183   2.727   1.809
 1871SOL     OW 8190   2.930   3.195   2.711
 1871SOL    HW1 8191   2.937   3.111   2.656
 1871SOL    HW2 8192   2.992   3.264   2.675
 1872SOL     OW 8193   2.181   2.672   2.811
 1872SOL    HW1 8194   2.274   2.708   2.816
 1872SOL    HW2 8195   2.175   2.587   2.863
 1873SOL     OW 8196   2.201   2.371   2.868
 1873SOL    HW1 8197   2.149   2.288   2.851
 1873SOL    HW2 8198   2.278   2.376   2.804
 1874SOL     OW 8199   3.000   2.242   3.540
 1874SOL    HW1 8200   2.955   2.305   3.604
 1874SOL    HW2 8201   3.093   2.273   3.523
 1875SOL     OW 8202   3.022   2.069   3.339
 1875SOL    HW1 8203   3.022   2.133   3.416
 1875SOL    HW2 8204   3.050   2.117   3.256
 1876SOL     OW 8205   1.950   3.663   2.789
 1876SOL    HW1 8206   1.908   3.577   2.762
 1876SOL    HW2 8207   2.044   3.666   2.755
 1877SOL     OW 8208   2.366   3.430   2.772
 1877SOL    HW1 8209   2.432   3.504   2.781
 1877SOL    HW2 8210   2.410   3.351   2.730
 1878SOL     OW 8211   2.864   2.658   3.100
 1878SOL    HW1 8212   2.905   2.626   3.186
 1878SOL    HW2 8213   2.768   2.631   3.097
 1879SOL     OW 8214   1.902   2.406   2.976
 1879SOL    HW1 8215   1.987   2.373   2.935
 1879SOL    HW2 8216   1.915   2.421   3.074
 1880SOL     OW 8217   2.051   2.382   3.584
 1880SOL    HW1 8218   2.110   2.342   3.514
 1880SOL    HW2 8219   1.993   2.453   3.543
 1881SOL     OW 8220   2.677   2.434   2.187
 1881SOL    HW1 8221   2.684   2.345   2.141
 1881SOL    HW2 8222   2.583   2.468   2.179
 1882SOL     OW 8223   3.519   2.466   3.068
 1882SOL    HW1 8224   3.481   2.397   3.130
 1882SOL    HW2 8225   3.601   2.430   3.024
 1883SOL     OW 8226   2.533   2.326   3.131
 1883SOL    HW1 8227   2.499   2.237   3.101
 1883SOL    HW2 8228   2.559   2.380   3.051
 1884SOL     OW 8229   2.021   2.999   3.328
 1884SOL    HW1 8230   2.043   2.938   3.404
 1884SOL    HW2 8231   2.031   2.950   3.242
 1885SOL     OW 8232   3.164   2.717   2.171
 1885SOL    HW1 8233   3.078   2.686   2.213
 1885SOL    HW2 8234   3.160   2.703   2.072
 1886SOL     OW 8235   3.621   3.609   3.016
 1886SOL    HW1 8236   3.682   3.639   2.943
 1886SOL    HW2 8237   3.583   3.520   2.994
 1887SOL     OW 8238   3.114   3.593   2.990
 1887SOL    HW1 8239   3.198   3.598   2.936
 1887SOL    HW2 8240   3.091   3.497   3.008
 1888SOL     OW 8241   1.945   3.120   2.884
 1888SOL    HW1 8242   1.940   3.119   2.984
 1888SOL    HW2 8243   1.862   3.079   2.846
 1889SOL     OW 8244   3.588   1.997   2.385
 1889SOL    HW1 8245   3.661   1.980   2.318
 1889SOL    HW2 8246   3.557   1.910   2.423
 1890SOL     OW 8247   3.250   3.435   2.339
 1890SOL    HW1 8248   3.317   3.447   2.265
 1890SOL    HW2 8249   3.210   3.524   2.362
 1891SOL     OW 8250   3.142   2.789   2.534
 1891SOL    HW1 8251   3.202   2.708   2.536
 1891SOL    HW2 8252   3.182   2.858   2.474
 1892SOL     OW 8253   2.692   3.135   3.284
 1892SOL    HW1 8254   2.687   3.168   3.379
 1892SOL    HW2 8255   2.606   3.154   3.238
 1893SOL     OW 8256   3.512   3.582   3.256
 1893SOL    HW1 8257   3.565   3.592   3.172
 1893SOL    HW2 8258   3.485   3.672   3.290
 1894SOL     OW 8259   3.056   3.474   1.893
 1894SOL    HW1 8260   3.062   3.381   1.930
 1894SOL    HW2 8261   2.997   3.474   1.813
 1895SOL     OW 8262   2.684   2.864   3.234
 1895SOL    HW1 8263   2.724   2.863   3.142
 1895SOL    HW2 8264   2.694   2.956   3.274
 1896SOL     OW 8265   2.778   2.772   2.153
 1896SOL    HW1 8266   2.841   2.810   2.085
 1896SOL    HW2 8267   2.818   2.689   2.192
 1897SOL     OW 8268   2.901   2.960   2.558
 1897SOL    HW1 8269   2.831   2.913   2.612
 1897SOL    HW2 8270   2.960   2.892   2.515
 1898SOL     OW 8271   2.876   2.098   2.833
 1898SOL    HW1 8272   2.868   2.062   2.740
 1898SOL    HW2 8273   2.874   2.022   2.898
 1899SOL     OW 8274   2.452   3.349   2.353
 1899SOL    HW1 8275   2.494   3.291   2.283
 1899SOL    HW2 8276   2.408   3.428   2.309
 1900SOL     OW 8277   1.967   2.875   3.588
 1900SOL    HW1 8278   1.890   2.842   3.642
 1900SOL    HW2 8279   2.052   2.845   3.630
 1901SOL     OW 8280   2.534   2.065   3.351
 1901SOL    HW1 8281   2.624   2.049   3.311
 1901SOL    HW2 8282   2.542   2.070   3.450
 1902SOL     OW 8283   1.937   2.207   1.895
 1902SOL    HW1 8284   1.845   2.179   1.866
 1902SOL    HW2 8285   1.968   2.284   1.839
 1903SOL     OW 8286   1.934   2.028   2.180
 1903SOL    HW1 8287   1.917   2.111   2.126
 1903SOL    HW2 8288   2.024   1.991   2.158
 1904SOL     OW 8289   3.045   3.197   1.981
 1904SOL    HW1 8290   2.946   3.186   1.983
 1904SOL    HW2 8291   3.079   3.212   2.074
 1905SOL     OW 8292   2.475   2.704   3.293
 1905SOL    HW1 8293   2.531   2.785   3.276
 1905SOL    HW2 8294   2.534   2.624   3.296
 1906SOL     OW 8295   3.355   3.629   2.821
 1906SOL    HW1 8296   3.388   3.693   2.752
 1906SOL    HW2 8297   3.421   3.623   2.896
 1907SOL     OW 8298   2.578   2.427   3.570
 1907SOL    HW1 8299   2.597   2.492   3.644
 1907SOL    HW2 8300   2.638   2.347   3.579
 1908SOL     OW 8301   3.087   2.187   2.311
 1908SOL    HW1 8302   3.152   2.113   2.300
 1908SOL    HW2 8303   3.107   2.237   2.395
 1909SOL     OW 8304   2.721   3.236   1.878
 1909SOL    HW1 8305   2.675   3.251   1.966
 1909SOL    HW2 8306   2.765   3.321   1.848
 1910SOL     OW 8307   2.523   3.652   2.815
 1910SOL    HW1 8308   2.477   3.740   2.802
 1910SOL    HW2 8309   2.622   3.664   2.808
 1911SOL     OW 8310   2.945   2.846   1.949
 1911SOL    HW1 8311   2.922   2.899   1.867
 1911SOL    HW2 8312   3.026   2.790   1.930
 1912SOL     OW 8313   2.083   3.176   3.706
 1912SOL    HW1 8314   2.018   3.103   3.685
 1912SOL    HW2 8315   2.087   3.190   3.804
 1913SOL     OW 8316   1.941   3.102   2.515
 1913SOL    HW1 8317   1.940   3.055   2.603
 1913SOL    HW2 8318   2.023   3.074   2.464
 1914SOL     OW 8319   2.179   2.409   3.142
 1914SOL    HW1 8320   2.217   2.350   3.214
 1914SOL    HW2 8321   2.219   2.383   3.054
 1915SOL     OW 8322   2.674   3.448   2.549
 1915SOL    HW1 8323   2.706   3.458   2.455
 1915SOL    HW2 8324   2.595   3.386   2.551
 1916SOL     OW 8325   3.286   2.076   2.974
 1916SOL    HW1 8326   3.338   2.011   3.029
 1916SOL    HW2 8327   3.237   2.139   3.035
 1917SOL     OW 8328   2.863   1.896   3.016
 1917SOL    HW1 8329   2.800   1.824   2.985
 1917SOL    HW2 8330   2.956   1.860   3.016
 1918SOL     OW 8331   2.480   3.429   3.146
 1918SOL    HW1 8332   2.475   3.511   3.203
 1918SOL    HW2 8333   2.569   3.426   3.101
 1919SOL     OW 8334   3.214   1.914   2.030
 1919SOL    HW1 8335   3.249   1.873   1.946
 1919SOL    HW2 8336   3.124   1.876   2.050
 1920SOL     OW 8337   3.455   2.083   2.744
 1920SOL    HW1 8338   3.371   2.082   2.798
 1920SOL    HW2 8339   3.457   2.166   2.688
 1921SOL     OW 8340   2.737   3.508   2.199
 1921SOL    HW1 8341   2.660   3.473   2.145
 1921SOL    HW2 8342   2.705   3.579   2.261
 1922SOL     OW 8343   2.092   2.490   3.837
 1922SOL    HW1 8344   1.999   2.488   3.874
 1922SOL    HW2 8345   2.093   2.451   3.745
 1923SOL     OW 8346   1.881   2.230   4.371
 1923SOL    HW1 8347   1.799   2.273   4.410
 1923SOL    HW2 8348   1.853   2.157   4.308
 1924SOL     OW 8349   2.431   3.137   4.889
 1924SOL    HW1 8350   2.338   3.130   4.852
 1924SOL    HW2 8351   2.442   3.226   4.933
 1925SOL     OW 8352   2.997   2.565   4.441
 1925SOL    HW1 8353   3.054   2.643   4.416
 1925SOL    HW2 8354   2.937   2.591   4.517
 1926SOL     OW 8355   3.617   2.469   3.955
 1926SOL    HW1 8356   3.605   2.456   3.856
 1926SOL    HW2 8357   3.587   2.388   4.004
 1927SOL     OW 8358   2.630   3.006   4.747
 1927SOL    HW1 8359   2.552   3.023   4.807
 1927SOL    HW2 8360   2.664   3.093   4.711
 1928SOL     OW 8361   2.547   2.874   4.389
 1928SOL    HW1 8362   2.616   2.858   4.459
 1928SOL    HW2 8363   2.474   2.931   4.427
 1929SOL     OW 8364   2.093   3.575   4.207
 1929SOL    HW1 8365   2.127   3.652   4.261
 1929SOL    HW2 8366   2.137   3.575   4.117
 1930SOL     OW 8367   2.092   3.296   4.262
 1930SOL    HW1 8368   2.066   3.392   4.262
 1930SOL    HW2 8369   2.021   3.242   4.307
 1931SOL     OW 8370   2.482   3.648   5.163
 1931SOL    HW1 8371   2.390   3.631   5.198
 1931SOL    HW2 8372   2.510   3.740   5.189
 1932SOL     OW 8373   2.468   2.826   3.847
 1932SOL    HW1 8374   2.475   2.910   3.793
 1932SOL    HW2 8375   2.514   2.839   3.935
 1933SOL     OW 8376   1.984   2.505   4.287
 1933SOL    HW1 8377   1.939   2.417   4.304
 1933SOL    HW2 8378   1.983   2.559   4.371
 1934SOL     OW 8379   3.704   3.629   4.083
 1934SOL    HW1 8380   3.758   3.600   4.163
 1934SOL    HW2 8381   3.734   3.719   4.054
 1935SOL     OW 8382   1.889   3.458   3.841
 1935SOL    HW1 8383   1.870   3.362   3.862
 1935SOL    HW2 8384   1.856   3.516   3.916
 1936SOL     OW 8385   2.475   3.227   4.450
 1936SOL    HW1 8386   2.426   3.140   4.459
 1936SOL    HW2 8387   2.452   3.270   4.363
 1937SOL     OW 8388   2.059   2.838   4.988
 1937SOL    HW1 8389   2.148   2.793   4.974
 1937SOL    HW2 8390   1.986   2.773   4.969
 1938SOL     OW 8391   3.387   2.861   3.914
 1938SOL    HW1 8392   3.324   2.785   3.927
 1938SOL    HW2 8393   3.435   2.879   4.000
 1939SOL     OW 8394   3.529   3.576   4.296
 1939SOL    HW1 8395   3.488   3.553   4.208
 1939SOL    HW2 8396   3.511   3.502   4.361
 1940SOL     OW 8397   3.143   2.207   4.668
 1940SOL    HW1 8398   3.057   2.157   4.655
 1940SOL    HW2 8399   3.205   2.153   4.724
 1941SOL     OW 8400   3.438   3.524   4.031
 1941SOL    HW1 8401   3.527   3.570   4.034
 1941SOL    HW2 8402   3.417   3.500   3.936
 1942SOL     OW 8403   2.853   2.272   4.966
 1942SOL    HW1 8404   2.776   2.306   5.020
 1942SOL    HW2 8405   2.819   2.221   4.887
 1943SOL     OW 8406   2.903   2.563   4.153
 1943SOL    HW1 8407   2.929   2.559   4.249
 1943SOL    HW2 8408   2.818   2.512   4.139
 1944SOL     OW 8409   1.938   2.673   4.513
 1944SOL    HW1 8410   2.037   2.661   4.522
 1944SOL    HW2 8411   1.914   2.768   4.534
 1945SOL     OW 8412   2.727   2.210   3.919
 1945SOL    HW1 8413   2.786   2.273   3.870
 1945SOL    HW2 8414   2.746   2.116   3.890
 1946SOL     OW 8415   3.224   3.006   4.269
 1946SOL    HW1 8416   3.307   2.977   4.221
 1946SOL    HW2 8417   3.175   3.073   4.213
 1947SOL     OW 8418   2.870   3.318   4.201
 1947SOL    HW1 8419   2.824   3.390   4.149
 1947SOL    HW2 8420   2.866   3.338   4.299
 1948SOL     OW 8421   2.213   3.663   4.577
 1948SOL    HW1 8422   2.263   3.577   4.583
 1948SOL    HW2 8423   2.278   3.740   4.574
 1949SOL     OW 8424   2.183   2.805   3.966
 1949SOL    HW1 8425   2.265   2.844   3.924
 1949SOL    HW2 8426   2.156   2.723   3.917
 1950SOL     OW 8427   2.973   3.638   3.961
 1950SOL    HW1 8428   2.913   3.576   4.011
 1950SOL    HW2 8429   3.004   3.594   3.876
 1951SOL     OW 8430   3.494   3.239   3.805
 1951SOL    HW1 8431   3.462   3.333   3.795
 1951SOL    HW2 8432   3.418   3.176   3.793
 1952SOL     OW 8433   2.326   3.605   4.047
 1952SOL    HW1 8434   2.359   3.644   4.133
 1952SOL    HW2 8435   2.402   3.598   3.982
 1953SOL     OW 8436   3.262   1.969   4.150
 1953SOL    HW1 8437   3.238   1.932   4.060
 1953SOL    HW2 8438   3.361   1.985   4.154
 1954SOL     OW 8439   2.802   3.560   4.628
 1954SOL    HW1 8440   2.882   3.503   4.649
 1954SOL    HW2 8441   2.753   3.520   4.551
 1955SOL     OW 8442   2.476   1.984   3.841
 1955SOL    HW1 8443   2.574   1.962   3.848
 1955SOL    HW2 8444   2.445   1.967   3.748
 1956SOL     OW 8445   2.665   3.264   4.648
 1956SOL    HW1 8446   2.755   3.278   4.606
 1956SOL    HW2 8447   2.594   3.266   4.577
 1957SOL     OW 8448   2.784   2.365   4.623
 1957SOL    HW1 8449   2.759   2.356   4.527
 1957SOL    HW2 8450   2.832   2.283   4.654
 1958SOL     OW 8451   2.159   1.897   3.895
 1958SOL    HW1 8452   2.208   1.981   3.874
 1958SOL    HW2 8453   2.221   1.832   3.940
 1959SOL     OW 8454   2.797   2.098   4.204
 1959SOL    HW1 8455   2.749   2.139   4.126
 1959SOL    HW2 8456   2.896   2.096   4.185
 1960SOL     OW 8457   2.321   3.014   4.465
 1960SOL    HW1 8458   2.250   2.987   4.530
 1960SOL    HW2 8459   2.295   2.986   4.372
 1961SOL     OW 8460   2.894   2.411   3.740
 1961SOL    HW1 8461   2.853   2.493   3.701
 1961SOL    HW2 8462   2.958   2.437   3.813
 1962SOL     OW 8463   2.423   2.084   4.871
 1962SOL    HW1 8464   2.461   2.000   4.908
 1962SOL    HW2 8465   2.335   2.103   4.915
 1963SOL     OW 8466   2.879   1.901   4.477
 1963SOL    HW1 8467   2.807   1.906   4.408
 1963SOL    HW2 8468   2.855   1.832   4.546
 1964SOL     OW 8469   3.291   3.035   4.591
 1964SOL    HW1 8470   3.236   2.951   4.584
 1964SOL    HW2 8471   3.317   3.064   4.499
 1965SOL     OW 8472   3.719   2.695   4.101
 1965SOL    HW1 8473   3.761   2.631   4.165
 1965SOL    HW2 8474   3.681   2.644   4.023
 1966SOL     OW 8475   2.350   3.247   3.898
 1966SOL    HW1 8476   2.263   3.232   3.945
 1966SOL    HW2 8477   2.333   3.273   3.803
 1967SOL     OW 8478   3.252   2.437   3.802
 1967SOL    HW1 8479   3.198   2.416   3.883
 1967SOL    HW2 8480   3.343   2.396   3.811
 1968SOL     OW 8481   2.389   2.118   4.052
 1968SOL    HW1 8482   2.416   2.059   3.977
 1968SOL    HW2 8483   2.389   2.213   4.021
 1969SOL     OW 8484   2.973   3.057   4.824
 1969SOL    HW1 8485   2.933   3.101   4.905
 1969SOL    HW2 8486   2.932   3.094   4.741
 1970SOL     OW 8487   2.567   2.912   4.092
 1970SOL    HW1 8488   2.553   2.919   4.191
 1970SOL    HW2 8489   2.651   2.861   4.074
 1971SOL     OW 8490   2.272   2.675   4.975
 1971SOL    HW1 8491   2.358   2.687   5.025
 1971SOL    HW2 8492   2.230   2.588   5.002
 1972SOL     OW 8493   3.136   2.248   4.986
 1972SOL    HW1 8494   3.157   2.322   5.050
 1972SOL    HW2 8495   3.047   2.265   4.943
 1973SOL     OW 8496   2.229   2.962   4.225
 1973SOL    HW1 8497   2.222   3.045   4.169
 1973SOL    HW2 8498   2.233   2.882   4.165
 1974SOL     OW 8499   3.134   3.307   4.866
 1974SOL    HW1 8500   3.181   3.320   4.953
 1974SOL    HW2 8501   3.068   3.233   4.875
 1975SOL     OW 8502   3.444   2.501   4.196
 1975SOL    HW1 8503   3.413   2.562   4.269
 1975SOL    HW2 8504   3.494   2.553   4.127
 1976SOL     OW 8505   2.435   2.732   4.753
 1976SOL    HW1 8506   2.479   2.821   4.744
 1976SOL    HW2 8507   2.372   2.732   4.830
 1977SOL     OW 8508   3.222   2.724   4.769
 1977SOL    HW1 8509   3.147   2.724   4.703
 1977SOL    HW2 8510   3.259   2.632   4.778
 1978SOL     OW 8511   3.071   2.387   3.999
 1978SOL    HW1 8512   3.084   2.303   4.053
 1978SOL    HW2 8513   3.042   2.461   4.059
 1979SOL     OW 8514   2.594   2.496   4.788
 1979SOL    HW1 8515   2.653   2.470   4.712
 1979SOL    HW2 8516   2.566   2.592   4.777
 1980SOL     OW 8517   3.484   2.229   4.098
 1980SOL    HW1 8518   3.486   2.153   4.162
 1980SOL    HW2 8519   3.436   2.306   4.138
 1981SOL     OW 8520   2.885   2.628   4.690
 1981SOL    HW1 8521   2.900   2.649   4.786
 1981SOL    HW2 8522   2.855   2.533   4.681
 1982SOL     OW 8523   3.402   2.136   3.849
 1982SOL    HW1 8524   3.341   2.061   3.872
 1982SOL    HW2 8525   3.424   2.188   3.932
 1983SOL     OW 8526   3.165   2.700   3.766
 1983SOL    HW1 8527   3.199   2.607   3.781
 1983SOL    HW2 8528   3.183   2.727   3.671
 1984SOL     OW 8529   2.930   3.195   4.573
 1984SOL    HW1 8530   2.937   3.111   4.518
 1984SOL    HW2 8531   2.992   3.264   4.537
 1985SOL     OW 8532   2.181   2.672   4.673
 1985SOL    HW1 8533   2.274   2.708   4.678
 1985SOL    HW2 8534   2.175   2.587   4.725
 1986SOL     OW 8535   3.022   2.069   5.201
 1986SOL    HW1 8536   3.022   2.133   5.278
 1986SOL    HW2 8537   3.050   2.117   5.118
 1987SOL     OW 8538   1.870   3.188   3.924
 1987SOL    HW1 8539   1.777   3.209   3.893
 1987SOL    HW2 8540   1.880   3.089   3.937
 1988SOL     OW 8541   2.366   3.430   4.634
 1988SOL    HW1 8542   2.432   3.504   4.643
 1988SOL    HW2 8543   2.410   3.351   4.592
 1989SOL     OW 8544   2.864   2.658   4.962
 1989SOL    HW1 8545   2.905   2.626   5.048
 1989SOL    HW2 8546   2.768   2.631   4.959
 1990SOL     OW 8547   1.902   2.406   4.838
 1990SOL    HW1 8548   1.987   2.373   4.797
 1990SOL    HW2 8549   1.915   2.421   4.936
 1991SOL     OW 8550   2.677   2.434   4.049
 1991SOL    HW1 8551   2.684   2.345   4.003
 1991SOL    HW2 8552   2.583   2.468   4.041
 1992SOL     OW 8553   2.533   2.326   4.993
 1992SOL    HW1 8554   2.499   2.237   4.963
 1992SOL    HW2 8555   2.559   2.380   4.913
 1993SOL     OW 8556   2.792   3.540   5.189
 1993SOL    HW1 8557   2.768   3.522   5.094
 1993SOL    HW2 8558   2.822   3.634   5.199
 1994SOL     OW 8559   2.335   2.362   3.915
 1994SOL    HW1 8560   2.396   2.442   3.919
 1994SOL    HW2 8561   2.240   2.393   3.922
 1995SOL     OW 8562   3.209   2.921   4.958
 1995SOL    HW1 8563   3.233   2.858   4.884
 1995SOL    HW2 8564   3.119   2.961   4.940
 1996SOL     OW 8565   3.164   2.717   4.033
 1996SOL    HW1 8566   3.078   2.686   4.075
 1996SOL    HW2 8567   3.160   2.703   3.934
 1997SOL     OW 8568   3.114   3.593   4.852
 1997SOL    HW1 8569   3.198   3.598   4.798
 1997SOL    HW2 8570   3.091   3.497   4.870
 1998SOL     OW 8571   3.588   1.997   4.247
 1998SOL    HW1 8572   3.661   1.980   4.180
 1998SOL    HW2 8573   3.557   1.910   4.285
 1999SOL     OW 8574   3.142   2.789   4.396
 1999SOL    HW1 8575   3.202   2.708   4.398
 1999SOL    HW2 8576   3.182   2.858   4.336
 2000SOL     OW 8577   2.534   3.478   3.878
 2000SOL    HW1 8578   2.543   3.488   3.779
 2000SOL    HW2 8579   2.494   3.389   3.899
 2001SOL     OW 8580   3.512   3.582   5.118
 2001SOL    HW1 8581   3.565   3.592   5.034
 2001SOL    HW2 8582   3.485   3.672   5.152
 2002SOL     OW 8583   3.703   2.037   4.687
 2002SOL    HW1 8584   3.742   1.952   4.651
 2002SOL    HW2 8585   3.605   2.039   4.668
 2003SOL     OW 8586   3.056   3.474   3.755
 2003SOL    HW1 8587   3.062   3.381   3.792
 2003SOL    HW2 8588   2.997   3.474   3.675
 2004SOL     OW 8589   2.684   2.864   5.096
 2004SOL    HW1 8590   2.724   2.863   5.004
 2004SOL    HW2 8591   2.694   2.956   5.136
 2005SOL     OW 8592   2.778   2.772   4.015
 2005SOL    HW1 8593   2.841   2.810   3.947
 2005SOL    HW2 8594   2.818   2.689   4.054
 2006SOL     OW 8595   3.366   3.469   3.768
 2006SOL    HW1 8596   3.274   3.506   3.775
 2006SOL    HW2 8597   3.404   3.489   3.678
 2007SOL     OW 8598   2.901   2.960   4.420
 2007SOL    HW1 8599   2.831   2.913   4.474
 2007SOL    HW2 8600   2.960   2.892   4.377
 2008SOL     OW 8601   2.876   2.098   4.695
 2008SOL    HW1 8602   2.868   2.062   4.602
 2008SOL    HW2 8603   2.874   2.022   4.760
 2009SOL     OW 8604   2.452   3.349   4.215
 2009SOL    HW1 8605   2.494   3.291   4.145
 2009SOL    HW2 8606   2.408   3.428   4.171
 2010SOL     OW 8607   3.571   2.247   5.105
 2010SOL    HW1 8608   3.644   2.316   5.109
 2010SOL    HW2 8609   3.599   2.172   5.046
 2011SOL     OW 8610   2.117   3.210   4.014
 2011SOL    HW1 8611   2.021   3.211   3.987
 2011SOL    HW2 8612   2.129   3.263   4.098
 2012SOL     OW 8613   1.937   2.207   3.757
 2012SOL    HW1 8614   1.845   2.179   3.728
 2012SOL    HW2 8615   1.968   2.284   3.701
 2013SOL     OW 8616   3.045   3.197   3.843
 2013SOL    HW1 8617   2.946   3.186   3.845
 2013SOL    HW2 8618   3.079   3.212   3.936
 2014SOL     OW 8619   3.312   3.082   5.357
 2014SOL    HW1 8620   3.303   3.072   5.456
 2014SOL    HW2 8621   3.408   3.075   5.331
 2015SOL     OW 8622   3.087   2.187   4.173
 2015SOL    HW1 8623   3.152   2.113   4.162
 2015SOL    HW2 8624   3.107   2.237   4.257
 2016SOL     OW 8625   2.721   3.236   3.740
 2016SOL    HW1 8626   2.675   3.251   3.828
 2016SOL    HW2 8627   2.765   3.321   3.710
 2017SOL     OW 8628   2.523   3.652   4.677
 2017SOL    HW1 8629   2.477   3.740   4.664
 2017SOL    HW2 8630   2.622   3.664   4.670
 2018SOL     OW 8631   2.721   2.818   4.585
 2018SOL    HW1 8632   2.775   2.749   4.633
 2018SOL    HW2 8633   2.689   2.887   4.651
 2019SOL     OW 8634   2.945   2.846   3.811
 2019SOL    HW1 8635   2.922   2.899   3.729
 2019SOL    HW2 8636   3.026   2.790   3.792
 2020SOL     OW 8637   1.941   3.102   4.377
 2020SOL    HW1 8638   1.940   3.055   4.465
 2020SOL    HW2 8639   2.023   3.074   4.326
 2021SOL     OW 8640   3.686   2.054   4.951
 2021SOL    HW1 8641   3.682   1.964   4.995
 2021SOL    HW2 8642   3.689   2.043   4.852
 2022SOL     OW 8643   2.674   3.448   4.411
 2022SOL    HW1 8644   2.706   3.458   4.317
 2022SOL    HW2 8645   2.595   3.386   4.413
 2023SOL     OW 8646   3.286   2.076   4.836
 2023SOL    HW1 8647   3.338   2.011   4.891
 2023SOL    HW2 8648   3.237   2.139   4.897
 2024SOL     OW 8649   2.863   1.896   4.878
 2024SOL    HW1 8650   2.800   1.824   4.847
 2024SOL    HW2 8651   2.956   1.860   4.878
 2025SOL     OW 8652   2.632   3.192   4.025
 2025SOL    HW1 8653   2.586   3.105   4.042
 2025SOL    HW2 8654   2.723   3.189   4.066
 2026SOL     OW 8655   3.214   1.914   3.892
 2026SOL    HW1 8656   3.249   1.873   3.808
 2026SOL    HW2 8657   3.124   1.876   3.912
 2027SOL     OW 8658   3.162   2.315   4.415
 2027SOL    HW1 8659   3.103   2.395   4.419
 2027SOL    HW2 8660   3.177   2.280   4.508
 2028SOL     OW 8661   3.455   2.083   4.606
 2028SOL    HW1 8662   3.371   2.082   4.660
 2028SOL    HW2 8663   3.457   2.166   4.550
 2029SOL     OW 8664   1.901   2.939   4.024
 2029SOL    HW1 8665   2.000   2.928   4.015
 2029SOL    HW2 8666   1.861   2.853   4.056
 2030SOL     OW 8667   2.737   3.508   4.061
 2030SOL    HW1 8668   2.660   3.473   4.007
 2030SOL    HW2 8669   2.705   3.579   4.123
 2031SOL     OW 8670   2.092   4.352   0.113
 2031SOL    HW1 8671   1.999   4.350   0.150
 2031SOL    HW2 8672   2.093   4.313   0.021
 2032SOL     OW 8673   1.881   4.092   0.647
 2032SOL    HW1 8674   1.799   4.135   0.686
 2032SOL    HW2 8675   1.853   4.019   0.584
 2033SOL     OW 8676   2.431   4.999   1.165
 2033SOL    HW1 8677   2.338   4.992   1.128
 2033SOL    HW2 8678   2.442   5.088   1.209
 2034SOL     OW 8679   3.617   4.331   0.231
 2034SOL    HW1 8680   3.605   4.318   0.132
 2034SOL    HW2 8681   3.587   4.250   0.280
 2035SOL     OW 8682   2.712   4.522   1.823
 2035SOL    HW1 8683   2.708   4.598   1.888
 2035SOL    HW2 8684   2.734   4.558   1.732
 2036SOL     OW 8685   2.197   5.159   1.061
 2036SOL    HW1 8686   2.119   5.128   1.008
 2036SOL    HW2 8687   2.255   5.217   1.004
 2037SOL     OW 8688   2.300   4.116   1.499
 2037SOL    HW1 8689   2.382   4.060   1.508
 2037SOL    HW2 8690   2.219   4.058   1.503
 2038SOL     OW 8691   3.465   4.171   0.737
 2038SOL    HW1 8692   3.391   4.217   0.687
 2038SOL    HW2 8693   3.516   4.239   0.790
 2039SOL     OW 8694   2.102   4.815   0.886
 2039SOL    HW1 8695   2.116   4.731   0.938
 2039SOL    HW2 8696   2.047   4.879   0.941
 2040SOL     OW 8697   2.468   4.688   0.123
 2040SOL    HW1 8698   2.475   4.772   0.069
 2040SOL    HW2 8699   2.514   4.701   0.211
 2041SOL     OW 8700   3.456   3.838   1.480
 2041SOL    HW1 8701   3.438   3.905   1.408
 2041SOL    HW2 8702   3.453   3.884   1.569
 2042SOL     OW 8703   1.984   4.367   0.563
 2042SOL    HW1 8704   1.939   4.279   0.580
 2042SOL    HW2 8705   1.983   4.421   0.647
 2043SOL     OW 8706   1.975   4.461   1.597
 2043SOL    HW1 8707   2.063   4.448   1.642
 2043SOL    HW2 8708   1.962   4.558   1.575
 2044SOL     OW 8709   2.671   3.728   0.502
 2044SOL    HW1 8710   2.711   3.819   0.493
 2044SOL    HW2 8711   2.571   3.736   0.508
 2045SOL     OW 8712   2.059   4.700   1.264
 2045SOL    HW1 8713   2.148   4.655   1.250
 2045SOL    HW2 8714   1.986   4.635   1.245
 2046SOL     OW 8715   2.179   3.975   1.801
 2046SOL    HW1 8716   2.250   4.046   1.807
 2046SOL    HW2 8717   2.091   4.014   1.829
 2047SOL     OW 8718   2.460   4.453   0.270
 2047SOL    HW1 8719   2.484   4.522   0.202
 2047SOL    HW2 8720   2.382   4.486   0.324
 2048SOL     OW 8721   3.256   4.193   1.674
 2048SOL    HW1 8722   3.236   4.236   1.762
 2048SOL    HW2 8723   3.334   4.131   1.683
 2049SOL     OW 8724   2.835   4.614   1.572
 2049SOL    HW1 8725   2.881   4.530   1.543
 2049SOL    HW2 8726   2.779   4.648   1.497
 2050SOL     OW 8727   2.853   4.134   1.242
 2050SOL    HW1 8728   2.776   4.168   1.296
 2050SOL    HW2 8729   2.819   4.083   1.163
 2051SOL     OW 8730   1.938   4.535   0.789
 2051SOL    HW1 8731   2.037   4.523   0.798
 2051SOL    HW2 8732   1.914   4.630   0.810
 2052SOL     OW 8733   2.727   4.072   0.195
 2052SOL    HW1 8734   2.786   4.135   0.146
 2052SOL    HW2 8735   2.746   3.978   0.166
 2053SOL     OW 8736   3.581   4.309   1.831
 2053SOL    HW1 8737   3.555   4.398   1.795
 2053SOL    HW2 8738   3.579   4.241   1.758
 2054SOL     OW 8739   3.657   4.790   0.873
 2054SOL    HW1 8740   3.595   4.775   0.797
 2054SOL    HW2 8741   3.605   4.801   0.958
 2055SOL     OW 8742   2.183   4.667   0.242
 2055SOL    HW1 8743   2.265   4.706   0.200
 2055SOL    HW2 8744   2.156   4.585   0.193
 2056SOL     OW 8745   3.320   4.459   0.728
 2056SOL    HW1 8746   3.315   4.394   0.803
 2056SOL    HW2 8747   3.400   4.518   0.741
 2057SOL     OW 8748   2.064   4.009   1.498
 2057SOL    HW1 8749   1.984   4.069   1.485
 2057SOL    HW2 8750   2.054   3.960   1.584
 2058SOL     OW 8751   3.262   3.831   0.426
 2058SOL    HW1 8752   3.238   3.794   0.336
 2058SOL    HW2 8753   3.361   3.847   0.430
 2059SOL     OW 8754   2.244   4.424   0.480
 2059SOL    HW1 8755   2.289   4.334   0.477
 2059SOL    HW2 8756   2.150   4.413   0.513
 2060SOL     OW 8757   3.409   3.946   1.729
 2060SOL    HW1 8758   3.404   3.983   1.821
 2060SOL    HW2 8759   3.337   3.877   1.717
 2061SOL     OW 8760   2.643   3.988   1.749
 2061SOL    HW1 8761   2.710   3.927   1.792
 2061SOL    HW2 8762   2.570   4.007   1.814
 2062SOL     OW 8763   3.213   4.314   1.433
 2062SOL    HW1 8764   3.241   4.271   1.518
 2062SOL    HW2 8765   3.238   4.410   1.434
 2063SOL     OW 8766   2.665   5.126   0.924
 2063SOL    HW1 8767   2.755   5.140   0.882
 2063SOL    HW2 8768   2.594   5.128   0.853
 2064SOL     OW 8769   2.401   3.788   0.512
 2064SOL    HW1 8770   2.320   3.789   0.570
 2064SOL    HW2 8771   2.404   3.871   0.457
 2065SOL     OW 8772   2.797   3.960   0.480
 2065SOL    HW1 8773   2.749   4.001   0.402
 2065SOL    HW2 8774   2.896   3.958   0.461
 2066SOL     OW 8775   2.321   4.876   0.741
 2066SOL    HW1 8776   2.250   4.849   0.806
 2066SOL    HW2 8777   2.295   4.848   0.648
 2067SOL     OW 8778   1.940   4.280   1.386
 2067SOL    HW1 8779   2.032   4.279   1.345
 2067SOL    HW2 8780   1.934   4.354   1.453
 2068SOL     OW 8781   2.423   3.946   1.147
 2068SOL    HW1 8782   2.461   3.862   1.184
 2068SOL    HW2 8783   2.335   3.965   1.191
 2069SOL     OW 8784   2.879   3.763   0.753
 2069SOL    HW1 8785   2.807   3.768   0.684
 2069SOL    HW2 8786   2.855   3.694   0.822
 2070SOL     OW 8787   3.328   4.314   0.992
 2070SOL    HW1 8788   3.298   4.219   0.999
 2070SOL    HW2 8789   3.401   4.330   1.058
 2071SOL     OW 8790   3.719   4.557   0.377
 2071SOL    HW1 8791   3.761   4.493   0.441
 2071SOL    HW2 8792   3.681   4.506   0.299
 2072SOL     OW 8793   3.252   4.299   0.078
 2072SOL    HW1 8794   3.198   4.278   0.159
 2072SOL    HW2 8795   3.343   4.258   0.087
 2073SOL     OW 8796   2.389   3.980   0.328
 2073SOL    HW1 8797   2.416   3.921   0.253
 2073SOL    HW2 8798   2.389   4.075   0.297
 2074SOL     OW 8799   3.616   4.947   1.588
 2074SOL    HW1 8800   3.707   4.908   1.575
 2074SOL    HW2 8801   3.624   5.043   1.612
 2075SOL     OW 8802   2.842   4.840   1.719
 2075SOL    HW1 8803   2.743   4.846   1.729
 2075SOL    HW2 8804   2.865   4.760   1.663
 2076SOL     OW 8805   2.567   4.774   0.368
 2076SOL    HW1 8806   2.553   4.781   0.467
 2076SOL    HW2 8807   2.651   4.723   0.350
 2077SOL     OW 8808   3.136   4.110   1.262
 2077SOL    HW1 8809   3.157   4.184   1.326
 2077SOL    HW2 8810   3.047   4.127   1.219
 2078SOL     OW 8811   2.229   4.824   0.501
 2078SOL    HW1 8812   2.222   4.907   0.445
 2078SOL    HW2 8813   2.233   4.744   0.441
 2079SOL     OW 8814   3.449   4.503   1.670
 2079SOL    HW1 8815   3.357   4.541   1.665
 2079SOL    HW2 8816   3.509   4.550   1.605
 2080SOL     OW 8817   2.366   3.774   1.740
 2080SOL    HW1 8818   2.324   3.717   1.670
 2080SOL    HW2 8819   2.300   3.843   1.772
 2081SOL     OW 8820   3.222   4.586   1.045
 2081SOL    HW1 8821   3.147   4.586   0.979
 2081SOL    HW2 8822   3.259   4.494   1.054
 2082SOL     OW 8823   3.590   4.659   1.854
 2082SOL    HW1 8824   3.544   4.652   1.765
 2082SOL    HW2 8825   3.528   4.703   1.920
 2083SOL     OW 8826   3.721   5.242   1.605
 2083SOL    HW1 8827   3.735   5.269   1.510
 2083SOL    HW2 8828   3.804   5.264   1.658
 2084SOL     OW 8829   2.212   4.622   1.804
 2084SOL    HW1 8830   2.288   4.666   1.852
 2084SOL    HW2 8831   2.247   4.575   1.722
 2085SOL     OW 8832   3.402   3.998   0.125
 2085SOL    HW1 8833   3.341   3.923   0.148
 2085SOL    HW2 8834   3.424   4.050   0.208
 2086SOL     OW 8835   3.000   4.104   1.678
 2086SOL    HW1 8836   2.955   4.167   1.742
 2086SOL    HW2 8837   3.093   4.135   1.661
 2087SOL     OW 8838   1.902   4.268   1.114
 2087SOL    HW1 8839   1.987   4.235   1.073
 2087SOL    HW2 8840   1.915   4.283   1.212
 2088SOL     OW 8841   2.051   4.244   1.722
 2088SOL    HW1 8842   2.110   4.204   1.652
 2088SOL    HW2 8843   1.993   4.315   1.681
 2089SOL     OW 8844   3.519   4.328   1.206
 2089SOL    HW1 8845   3.481   4.259   1.268
 2089SOL    HW2 8846   3.601   4.292   1.162
 2090SOL     OW 8847   2.533   4.188   1.269
 2090SOL    HW1 8848   2.499   4.099   1.239
 2090SOL    HW2 8849   2.559   4.242   1.189
 2091SOL     OW 8850   2.335   4.224   0.191
 2091SOL    HW1 8851   2.396   4.304   0.195
 2091SOL    HW2 8852   2.240   4.255   0.198
 2092SOL     OW 8853   2.021   4.861   1.466
 2092SOL    HW1 8854   2.043   4.800   1.542
 2092SOL    HW2 8855   2.031   4.812   1.380
 2093SOL     OW 8856   3.209   4.783   1.234
 2093SOL    HW1 8857   3.233   4.720   1.160
 2093SOL    HW2 8858   3.119   4.823   1.216
 2094SOL     OW 8859   3.164   4.579   0.309
 2094SOL    HW1 8860   3.078   4.548   0.351
 2094SOL    HW2 8861   3.160   4.565   0.210
 2095SOL     OW 8862   1.945   4.982   1.022
 2095SOL    HW1 8863   1.940   4.981   1.122
 2095SOL    HW2 8864   1.862   4.941   0.984
 2096SOL     OW 8865   2.765   3.810   0.133
 2096SOL    HW1 8866   2.816   3.811   0.047
 2096SOL    HW2 8867   2.821   3.768   0.204
 2097SOL     OW 8868   3.588   3.859   0.523
 2097SOL    HW1 8869   3.661   3.842   0.456
 2097SOL    HW2 8870   3.557   3.772   0.561
 2098SOL     OW 8871   3.142   4.651   0.672
 2098SOL    HW1 8872   3.202   4.570   0.674
 2098SOL    HW2 8873   3.182   4.720   0.612
 2099SOL     OW 8874   3.703   3.899   0.963
 2099SOL    HW1 8875   3.742   3.814   0.927
 2099SOL    HW2 8876   3.605   3.901   0.944
 2100SOL     OW 8877   2.684   4.726   1.372
 2100SOL    HW1 8878   2.724   4.725   1.280
 2100SOL    HW2 8879   2.694   4.818   1.412
 2101SOL     OW 8880   2.778   4.634   0.291
 2101SOL    HW1 8881   2.841   4.672   0.223
 2101SOL    HW2 8882   2.818   4.551   0.330
 2102SOL     OW 8883   2.234   5.012   1.490
 2102SOL    HW1 8884   2.221   5.105   1.456
 2102SOL    HW2 8885   2.150   4.960   1.477
 2103SOL     OW 8886   3.476   5.016   1.289
 2103SOL    HW1 8887   3.536   5.019   1.369
 2103SOL    HW2 8888   3.401   5.080   1.302
 2104SOL     OW 8889   3.571   4.109   1.381
 2104SOL    HW1 8890   3.644   4.178   1.385
 2104SOL    HW2 8891   3.599   4.034   1.322
 2105SOL     OW 8892   1.967   4.737   1.726
 2105SOL    HW1 8893   1.890   4.704   1.780
 2105SOL    HW2 8894   2.052   4.707   1.768
 2106SOL     OW 8895   3.302   4.580   1.398
 2106SOL    HW1 8896   3.245   4.632   1.335
 2106SOL    HW2 8897   3.398   4.592   1.374
 2107SOL     OW 8898   1.934   3.890   0.318
 2107SOL    HW1 8899   1.917   3.973   0.264
 2107SOL    HW2 8900   2.024   3.853   0.296
 2108SOL     OW 8901   3.639   4.066   1.642
 2108SOL    HW1 8902   3.622   4.097   1.548
 2108SOL    HW2 8903   3.555   4.029   1.680
 2109SOL     OW 8904   2.945   4.708   0.087
 2109SOL    HW1 8905   2.922   4.761   0.005
 2109SOL    HW2 8906   3.026   4.652   0.068
 2110SOL     OW 8907   1.941   4.964   0.653
 2110SOL    HW1 8908   1.940   4.917   0.741
 2110SOL    HW2 8909   2.023   4.936   0.602
 2111SOL     OW 8910   3.686   3.916   1.227
 2111SOL    HW1 8911   3.682   3.826   1.271
 2111SOL    HW2 8912   3.689   3.905   1.128
 2112SOL     OW 8913   2.179   4.271   1.280
 2112SOL    HW1 8914   2.217   4.212   1.352
 2112SOL    HW2 8915   2.219   4.245   1.192
 2113SOL     OW 8916   3.286   3.938   1.112
 2113SOL    HW1 8917   3.338   3.873   1.167
 2113SOL    HW2 8918   3.237   4.001   1.173
 2114SOL     OW 8919   2.863   3.758   1.154
 2114SOL    HW1 8920   2.800   3.686   1.123
 2114SOL    HW2 8921   2.956   3.722   1.154
 2115SOL     OW 8922   2.632   5.054   0.301
 2115SOL    HW1 8923   2.586   4.967   0.318
 2115SOL    HW2 8924   2.723   5.051   0.342
 2116SOL     OW 8925   3.214   3.776   0.168
 2116SOL    HW1 8926   3.249   3.735   0.084
 2116SOL    HW2 8927   3.124   3.738   0.188
 2117SOL     OW 8928   3.455   3.945   0.882
 2117SOL    HW1 8929   3.371   3.944   0.936
 2117SOL    HW2 8930   3.457   4.028   0.826
 2118SOL     OW 8931   1.901   4.801   0.300
 2118SOL    HW1 8932   2.000   4.790   0.291
 2118SOL    HW2 8933   1.861   4.715   0.332
 2119SOL     OW 8934   2.092   4.352   1.975
 2119SOL    HW1 8935   1.999   4.350   2.012
 2119SOL    HW2 8936   2.093   4.313   1.883
 2120SOL     OW 8937   2.087   3.999   2.858
 2120SOL    HW1 8938   2.122   3.982   2.950
 2120SOL    HW2 8939   1.999   3.954   2.846
 2121SOL     OW 8940   1.881   4.092   2.509
 2121SOL    HW1 8941   1.799   4.135   2.548
 2121SOL    HW2 8942   1.853   4.019   2.446
 2122SOL     OW 8943   2.431   4.999   3.027
 2122SOL    HW1 8944   2.338   4.992   2.990
 2122SOL    HW2 8945   2.442   5.088   3.071
 2123SOL     OW 8946   3.417   5.235   2.565
 2123SOL    HW1 8947   3.360   5.219   2.646
 2123SOL    HW2 8948   3.358   5.245   2.485
 2124SOL     OW 8949   2.997   4.427   2.579
 2124SOL    HW1 8950   3.054   4.505   2.554
 2124SOL    HW2 8951   2.937   4.453   2.655
 2125SOL     OW 8952   2.630   4.868   2.885
 2125SOL    HW1 8953   2.552   4.885   2.945
 2125SOL    HW2 8954   2.664   4.955   2.849
 2126SOL     OW 8955   2.547   4.736   2.527
 2126SOL    HW1 8956   2.616   4.720   2.597
 2126SOL    HW2 8957   2.474   4.793   2.565
 2127SOL     OW 8958   2.197   5.159   2.923
 2127SOL    HW1 8959   2.119   5.128   2.870
 2127SOL    HW2 8960   2.255   5.217   2.866
 2128SOL     OW 8961   2.300   4.116   3.361
 2128SOL    HW1 8962   2.382   4.060   3.370
 2128SOL    HW2 8963   2.219   4.058   3.365
 2129SOL     OW 8964   2.102   4.815   2.748
 2129SOL    HW1 8965   2.116   4.731   2.800
 2129SOL    HW2 8966   2.047   4.879   2.803
 2130SOL     OW 8967   2.468   4.688   1.985
 2130SOL    HW1 8968   2.475   4.772   1.931
 2130SOL    HW2 8969   2.514   4.701   2.073
 2131SOL     OW 8970   3.456   3.838   3.342
 2131SOL    HW1 8971   3.438   3.905   3.270
 2131SOL    HW2 8972   3.453   3.884   3.431
 2132SOL     OW 8973   1.984   4.367   2.425
 2132SOL    HW1 8974   1.939   4.279   2.442
 2132SOL    HW2 8975   1.983   4.421   2.509
 2133SOL     OW 8976   3.503   4.832   2.294
 2133SOL    HW1 8977   3.589   4.834   2.242
 2133SOL    HW2 8978   3.517   4.879   2.382
 2134SOL     OW 8979   1.975   4.461   3.459
 2134SOL    HW1 8980   2.063   4.448   3.504
 2134SOL    HW2 8981   1.962   4.558   3.437
 2135SOL     OW 8982   2.671   3.728   2.364
 2135SOL    HW1 8983   2.711   3.819   2.355
 2135SOL    HW2 8984   2.571   3.736   2.370
 2136SOL     OW 8985   2.059   4.700   3.126
 2136SOL    HW1 8986   2.148   4.655   3.112
 2136SOL    HW2 8987   1.986   4.635   3.107
 2137SOL     OW 8988   3.328   5.141   2.815
 2137SOL    HW1 8989   3.269   5.147   2.895
 2137SOL    HW2 8990   3.313   5.053   2.769
 2138SOL     OW 8991   2.460   4.453   2.132
 2138SOL    HW1 8992   2.484   4.522   2.064
 2138SOL    HW2 8993   2.382   4.486   2.186
 2139SOL     OW 8994   3.143   4.069   2.806
 2139SOL    HW1 8995   3.057   4.019   2.793
 2139SOL    HW2 8996   3.205   4.015   2.862
 2140SOL     OW 8997   2.669   4.329   3.327
 2140SOL    HW1 8998   2.622   4.326   3.416
 2140SOL    HW2 8999   2.618   4.274   3.261
 2141SOL     OW 9000   2.853   4.134   3.104
 2141SOL    HW1 9001   2.776   4.168   3.158
 2141SOL    HW2 9002   2.819   4.083   3.025
 2142SOL     OW 9003   1.938   4.535   2.651
 2142SOL    HW1 9004   2.037   4.523   2.660
 2142SOL    HW2 9005   1.914   4.630   2.672
 2143SOL     OW 9006   2.183   4.667   2.104
 2143SOL    HW1 9007   2.265   4.706   2.062
 2143SOL    HW2 9008   2.156   4.585   2.055
 2144SOL     OW 9009   2.064   4.009   3.360
 2144SOL    HW1 9010   1.984   4.069   3.347
 2144SOL    HW2 9011   2.054   3.960   3.446
 2145SOL     OW 9012   3.494   5.101   1.943
 2145SOL    HW1 9013   3.462   5.195   1.933
 2145SOL    HW2 9014   3.418   5.038   1.931
 2146SOL     OW 9015   3.262   3.831   2.288
 2146SOL    HW1 9016   3.238   3.794   2.198
 2146SOL    HW2 9017   3.361   3.847   2.292
 2147SOL     OW 9018   2.244   4.424   2.342
 2147SOL    HW1 9019   2.289   4.334   2.339
 2147SOL    HW2 9020   2.150   4.413   2.375
 2148SOL     OW 9021   2.476   3.846   1.979
 2148SOL    HW1 9022   2.574   3.824   1.986
 2148SOL    HW2 9023   2.445   3.829   1.886
 2149SOL     OW 9024   2.665   5.126   2.786
 2149SOL    HW1 9025   2.755   5.140   2.744
 2149SOL    HW2 9026   2.594   5.128   2.715
 2150SOL     OW 9027   2.784   4.227   2.761
 2150SOL    HW1 9028   2.759   4.218   2.665
 2150SOL    HW2 9029   2.832   4.145   2.792
 2151SOL     OW 9030   2.401   3.788   2.374
 2151SOL    HW1 9031   2.320   3.789   2.432
 2151SOL    HW2 9032   2.404   3.871   2.319
 2152SOL     OW 9033   2.159   3.759   2.033
 2152SOL    HW1 9034   2.208   3.843   2.012
 2152SOL    HW2 9035   2.221   3.694   2.078
 2153SOL     OW 9036   2.797   3.960   2.342
 2153SOL    HW1 9037   2.749   4.001   2.264
 2153SOL    HW2 9038   2.896   3.958   2.323
 2154SOL     OW 9039   3.089   5.294   2.655
 2154SOL    HW1 9040   3.110   5.368   2.590
 2154SOL    HW2 9041   3.157   5.294   2.728
 2155SOL     OW 9042   2.321   4.876   2.603
 2155SOL    HW1 9043   2.250   4.849   2.668
 2155SOL    HW2 9044   2.295   4.848   2.510
 2156SOL     OW 9045   2.894   4.273   1.878
 2156SOL    HW1 9046   2.853   4.355   1.839
 2156SOL    HW2 9047   2.958   4.299   1.951
 2157SOL     OW 9048   1.940   4.280   3.248
 2157SOL    HW1 9049   2.032   4.279   3.207
 2157SOL    HW2 9050   1.934   4.354   3.315
 2158SOL     OW 9051   2.423   3.946   3.009
 2158SOL    HW1 9052   2.461   3.862   3.046
 2158SOL    HW2 9053   2.335   3.965   3.053
 2159SOL     OW 9054   2.879   3.763   2.615
 2159SOL    HW1 9055   2.807   3.768   2.546
 2159SOL    HW2 9056   2.855   3.694   2.684
 2160SOL     OW 9057   3.719   4.557   2.239
 2160SOL    HW1 9058   3.761   4.493   2.303
 2160SOL    HW2 9059   3.681   4.506   2.161
 2161SOL     OW 9060   3.526   5.004   2.519
 2161SOL    HW1 9061   3.625   5.012   2.533
 2161SOL    HW2 9062   3.481   5.088   2.550
 2162SOL     OW 9063   3.252   4.299   1.940
 2162SOL    HW1 9064   3.198   4.278   2.021
 2162SOL    HW2 9065   3.343   4.258   1.949
 2163SOL     OW 9066   2.389   3.980   2.190
 2163SOL    HW1 9067   2.416   3.921   2.115
 2163SOL    HW2 9068   2.389   4.075   2.159
 2164SOL     OW 9069   2.567   4.774   2.230
 2164SOL    HW1 9070   2.553   4.781   2.329
 2164SOL    HW2 9071   2.651   4.723   2.212
 2165SOL     OW 9072   2.272   4.537   3.113
 2165SOL    HW1 9073   2.358   4.549   3.163
 2165SOL    HW2 9074   2.230   4.450   3.140
 2166SOL     OW 9075   3.136   4.110   3.124
 2166SOL    HW1 9076   3.157   4.184   3.188
 2166SOL    HW2 9077   3.047   4.127   3.081
 2167SOL     OW 9078   2.229   4.824   2.363
 2167SOL    HW1 9079   2.222   4.907   2.307
 2167SOL    HW2 9080   2.233   4.744   2.303
 2168SOL     OW 9081   2.264   4.475   3.460
 2168SOL    HW1 9082   2.332   4.530   3.413
 2168SOL    HW2 9083   2.304   4.387   3.487
 2169SOL     OW 9084   2.875   3.829   3.632
 2169SOL    HW1 9085   2.881   3.914   3.580
 2169SOL    HW2 9086   2.907   3.753   3.575
 2170SOL     OW 9087   2.435   4.594   2.891
 2170SOL    HW1 9088   2.479   4.683   2.882
 2170SOL    HW2 9089   2.372   4.594   2.968
 2171SOL     OW 9090   2.169   3.937   3.093
 2171SOL    HW1 9091   2.146   3.974   3.183
 2171SOL    HW2 9092   2.139   3.842   3.087
 2172SOL     OW 9093   3.590   4.659   3.716
 2172SOL    HW1 9094   3.544   4.652   3.627
 2172SOL    HW2 9095   3.528   4.703   3.782
 2173SOL     OW 9096   2.169   3.787   2.480
 2173SOL    HW1 9097   2.158   3.881   2.513
 2173SOL    HW2 9098   2.164   3.724   2.557
 2174SOL     OW 9099   3.484   4.091   2.236
 2174SOL    HW1 9100   3.486   4.015   2.300
 2174SOL    HW2 9101   3.436   4.168   2.276
 2175SOL     OW 9102   2.885   4.490   2.828
 2175SOL    HW1 9103   2.900   4.511   2.924
 2175SOL    HW2 9104   2.855   4.395   2.819
 2176SOL     OW 9105   2.212   4.622   3.666
 2176SOL    HW1 9106   2.288   4.666   3.714
 2176SOL    HW2 9107   2.247   4.575   3.584
 2177SOL     OW 9108   3.402   3.998   1.987
 2177SOL    HW1 9109   3.341   3.923   2.010
 2177SOL    HW2 9110   3.424   4.050   2.070
 2178SOL     OW 9111   2.181   4.534   2.811
 2178SOL    HW1 9112   2.274   4.570   2.816
 2178SOL    HW2 9113   2.175   4.449   2.863
 2179SOL     OW 9114   3.000   4.104   3.540
 2179SOL    HW1 9115   2.955   4.167   3.604
 2179SOL    HW2 9116   3.093   4.135   3.523
 2180SOL     OW 9117   3.022   3.931   3.339
 2180SOL    HW1 9118   3.022   3.995   3.416
 2180SOL    HW2 9119   3.050   3.979   3.256
 2181SOL     OW 9120   1.870   5.050   2.062
 2181SOL    HW1 9121   1.777   5.071   2.031
 2181SOL    HW2 9122   1.880   4.951   2.075
 2182SOL     OW 9123   2.864   4.520   3.100
 2182SOL    HW1 9124   2.905   4.488   3.186
 2182SOL    HW2 9125   2.768   4.493   3.097
 2183SOL     OW 9126   1.902   4.268   2.976
 2183SOL    HW1 9127   1.987   4.235   2.935
 2183SOL    HW2 9128   1.915   4.283   3.074
 2184SOL     OW 9129   2.051   4.244   3.584
 2184SOL    HW1 9130   2.110   4.204   3.514
 2184SOL    HW2 9131   1.993   4.315   3.543
 2185SOL     OW 9132   2.677   4.296   2.187
 2185SOL    HW1 9133   2.684   4.207   2.141
 2185SOL    HW2 9134   2.583   4.330   2.179
 2186SOL     OW 9135   2.335   4.224   2.053
 2186SOL    HW1 9136   2.396   4.304   2.057
 2186SOL    HW2 9137   2.240   4.255   2.060
 2187SOL     OW 9138   2.021   4.861   3.328
 2187SOL    HW1 9139   2.043   4.800   3.404
 2187SOL    HW2 9140   2.031   4.812   3.242
 2188SOL     OW 9141   1.945   4.982   2.884
 2188SOL    HW1 9142   1.940   4.981   2.984
 2188SOL    HW2 9143   1.862   4.941   2.846
 2189SOL     OW 9144   3.703   3.899   2.825
 2189SOL    HW1 9145   3.742   3.814   2.789
 2189SOL    HW2 9146   3.605   3.901   2.806
 2190SOL     OW 9147   2.125   4.050   2.582
 2190SOL    HW1 9148   2.046   4.101   2.548
 2190SOL    HW2 9149   2.116   4.035   2.680
 2191SOL     OW 9150   2.234   5.012   3.352
 2191SOL    HW1 9151   2.221   5.105   3.318
 2191SOL    HW2 9152   2.150   4.960   3.339
 2192SOL     OW 9153   1.967   4.737   3.588
 2192SOL    HW1 9154   1.890   4.704   3.642
 2192SOL    HW2 9155   2.052   4.707   3.630
 2193SOL     OW 9156   1.937   4.069   1.895
 2193SOL    HW1 9157   1.845   4.041   1.866
 2193SOL    HW2 9158   1.968   4.146   1.839
 2194SOL     OW 9159   3.302   4.580   3.260
 2194SOL    HW1 9160   3.245   4.632   3.197
 2194SOL    HW2 9161   3.398   4.592   3.236
 2195SOL     OW 9162   1.934   3.890   2.180
 2195SOL    HW1 9163   1.917   3.973   2.126
 2195SOL    HW2 9164   2.024   3.853   2.158
 2196SOL     OW 9165   2.475   4.566   3.293
 2196SOL    HW1 9166   2.531   4.647   3.276
 2196SOL    HW2 9167   2.534   4.486   3.296
 2197SOL     OW 9168   3.087   4.049   2.311
 2197SOL    HW1 9169   3.152   3.975   2.300
 2197SOL    HW2 9170   3.107   4.099   2.395
 2198SOL     OW 9171   2.456   4.469   2.514
 2198SOL    HW1 9172   2.506   4.554   2.495
 2198SOL    HW2 9173   2.368   4.471   2.466
 2199SOL     OW 9174   3.592   4.658   3.379
 2199SOL    HW1 9175   3.630   4.749   3.394
 2199SOL    HW2 9176   3.584   4.641   3.280
 2200SOL     OW 9177   2.721   4.680   2.723
 2200SOL    HW1 9178   2.775   4.611   2.771
 2200SOL    HW2 9179   2.689   4.749   2.789
 2201SOL     OW 9180   1.941   4.964   2.515
 2201SOL    HW1 9181   1.940   4.917   2.603
 2201SOL    HW2 9182   2.023   4.936   2.464
 2202SOL     OW 9183   3.686   3.916   3.089
 2202SOL    HW1 9184   3.682   3.826   3.133
 2202SOL    HW2 9185   3.689   3.905   2.990
 2203SOL     OW 9186   2.290   4.148   2.382
 2203SOL    HW1 9187   2.320   4.076   2.320
 2203SOL    HW2 9188   2.251   4.108   2.465
 2204SOL     OW 9189   3.286   3.938   2.974
 2204SOL    HW1 9190   3.338   3.873   3.029
 2204SOL    HW2 9191   3.237   4.001   3.035
 2205SOL     OW 9192   2.632   5.054   2.163
 2205SOL    HW1 9193   2.586   4.967   2.180
 2205SOL    HW2 9194   2.723   5.051   2.204
 2206SOL     OW 9195   3.214   3.776   2.030
 2206SOL    HW1 9196   3.249   3.735   1.946
 2206SOL    HW2 9197   3.124   3.738   2.050
 2207SOL     OW 9198   3.455   3.945   2.744
 2207SOL    HW1 9199   3.371   3.944   2.798
 2207SOL    HW2 9200   3.457   4.028   2.688
 2208SOL     OW 9201   1.901   4.801   2.162
 2208SOL    HW1 9202   2.000   4.790   2.153
 2208SOL    HW2 9203   1.861   4.715   2.194
 2209SOL     OW 9204   2.092   4.352   3.837
 2209SOL    HW1 9205   1.999   4.350   3.874
 2209SOL    HW2 9206   2.093   4.313   3.745
 2210SOL     OW 9207   2.087   3.999   4.720
 2210SOL    HW1 9208   2.122   3.982   4.812
 2210SOL    HW2 9209   1.999   3.954   4.708
 2211SOL     OW 9210   1.881   4.092   4.371
 2211SOL    HW1 9211   1.799   4.135   4.410
 2211SOL    HW2 9212   1.853   4.019   4.308
 2212SOL     OW 9213   3.417   5.235   4.427
 2212SOL    HW1 9214   3.360   5.219   4.508
 2212SOL    HW2 9215   3.358   5.245   4.347
 2213SOL     OW 9216   2.997   4.427   4.441
 2213SOL    HW1 9217   3.054   4.505   4.416
 2213SOL    HW2 9218   2.937   4.453   4.517
 2214SOL     OW 9219   2.630   4.868   4.747
 2214SOL    HW1 9220   2.552   4.885   4.807
 2214SOL    HW2 9221   2.664   4.955   4.711
 2215SOL     OW 9222   2.547   4.736   4.389
 2215SOL    HW1 9223   2.616   4.720   4.459
 2215SOL    HW2 9224   2.474   4.793   4.427
 2216SOL     OW 9225   3.465   4.171   4.461
 2216SOL    HW1 9226   3.391   4.217   4.411
 2216SOL    HW2 9227   3.516   4.239   4.514
 2217SOL     OW 9228   2.102   4.815   4.610
 2217SOL    HW1 9229   2.116   4.731   4.662
 2217SOL    HW2 9230   2.047   4.879   4.665
 2218SOL     OW 9231   2.468   4.688   3.847
 2218SOL    HW1 9232   2.475   4.772   3.793
 2218SOL    HW2 9233   2.514   4.701   3.935
 2219SOL     OW 9234   3.551   4.646   4.336
 2219SOL    HW1 9235   3.646   4.617   4.344
 2219SOL    HW2 9236   3.543   4.711   4.261
 2220SOL     OW 9237   3.503   4.832   4.156
 2220SOL    HW1 9238   3.589   4.834   4.104
 2220SOL    HW2 9239   3.517   4.879   4.244
 2221SOL     OW 9240   2.671   3.728   4.226
 2221SOL    HW1 9241   2.711   3.819   4.217
 2221SOL    HW2 9242   2.571   3.736   4.232
 2222SOL     OW 9243   2.059   4.700   4.988
 2222SOL    HW1 9244   2.148   4.655   4.974
 2222SOL    HW2 9245   1.986   4.635   4.969
 2223SOL     OW 9246   3.387   4.723   3.914
 2223SOL    HW1 9247   3.324   4.647   3.927
 2223SOL    HW2 9248   3.435   4.741   4.000
 2224SOL     OW 9249   3.328   5.141   4.677
 2224SOL    HW1 9250   3.269   5.147   4.757
 2224SOL    HW2 9251   3.313   5.053   4.631
 2225SOL     OW 9252   2.460   4.453   3.994
 2225SOL    HW1 9253   2.484   4.522   3.926
 2225SOL    HW2 9254   2.382   4.486   4.048
 2226SOL     OW 9255   3.143   4.069   4.668
 2226SOL    HW1 9256   3.057   4.019   4.655
 2226SOL    HW2 9257   3.205   4.015   4.724
 2227SOL     OW 9258   2.853   4.134   4.966
 2227SOL    HW1 9259   2.776   4.168   5.020
 2227SOL    HW2 9260   2.819   4.083   4.887
 2228SOL     OW 9261   2.903   4.425   4.153
 2228SOL    HW1 9262   2.929   4.421   4.249
 2228SOL    HW2 9263   2.818   4.374   4.139
 2229SOL     OW 9264   2.727   4.072   3.919
 2229SOL    HW1 9265   2.786   4.135   3.870
 2229SOL    HW2 9266   2.746   3.978   3.890
 2230SOL     OW 9267   3.224   4.868   4.269
 2230SOL    HW1 9268   3.307   4.839   4.221
 2230SOL    HW2 9269   3.175   4.935   4.213
 2231SOL     OW 9270   2.412   3.920   4.609
 2231SOL    HW1 9271   2.407   3.915   4.709
 2231SOL    HW2 9272   2.414   4.016   4.580
 2232SOL     OW 9273   2.183   4.667   3.966
 2232SOL    HW1 9274   2.265   4.706   3.924
 2232SOL    HW2 9275   2.156   4.585   3.917
 2233SOL     OW 9276   3.320   4.459   4.452
 2233SOL    HW1 9277   3.315   4.394   4.527
 2233SOL    HW2 9278   3.400   4.518   4.465
 2234SOL     OW 9279   3.262   3.831   4.150
 2234SOL    HW1 9280   3.238   3.794   4.060
 2234SOL    HW2 9281   3.361   3.847   4.154
 2235SOL     OW 9282   2.476   3.846   3.841
 2235SOL    HW1 9283   2.574   3.824   3.848
 2235SOL    HW2 9284   2.445   3.829   3.748
 2236SOL     OW 9285   2.784   4.227   4.623
 2236SOL    HW1 9286   2.759   4.218   4.527
 2236SOL    HW2 9287   2.832   4.145   4.654
 2237SOL     OW 9288   2.401   3.788   4.236
 2237SOL    HW1 9289   2.320   3.789   4.294
 2237SOL    HW2 9290   2.404   3.871   4.181
 2238SOL     OW 9291   2.159   3.759   3.895
 2238SOL    HW1 9292   2.208   3.843   3.874
 2238SOL    HW2 9293   2.221   3.694   3.940
 2239SOL     OW 9294   2.797   3.960   4.204
 2239SOL    HW1 9295   2.749   4.001   4.126
 2239SOL    HW2 9296   2.896   3.958   4.185
 2240SOL     OW 9297   2.321   4.876   4.465
 2240SOL    HW1 9298   2.250   4.849   4.530
 2240SOL    HW2 9299   2.295   4.848   4.372
 2241SOL     OW 9300   2.423   3.946   4.871
 2241SOL    HW1 9301   2.461   3.862   4.908
 2241SOL    HW2 9302   2.335   3.965   4.915
 2242SOL     OW 9303   2.728   4.178   4.366
 2242SOL    HW1 9304   2.696   4.250   4.304
 2242SOL    HW2 9305   2.752   4.097   4.313
 2243SOL     OW 9306   3.328   4.314   4.716
 2243SOL    HW1 9307   3.298   4.219   4.723
 2243SOL    HW2 9308   3.401   4.330   4.782
 2244SOL     OW 9309   3.719   4.557   4.101
 2244SOL    HW1 9310   3.761   4.493   4.165
 2244SOL    HW2 9311   3.681   4.506   4.023
 2245SOL     OW 9312   3.526   5.004   4.381
 2245SOL    HW1 9313   3.625   5.012   4.395
 2245SOL    HW2 9314   3.481   5.088   4.412
 2246SOL     OW 9315   3.252   4.299   3.802
 2246SOL    HW1 9316   3.198   4.278   3.883
 2246SOL    HW2 9317   3.343   4.258   3.811
 2247SOL     OW 9318   2.389   3.980   4.052
 2247SOL    HW1 9319   2.416   3.921   3.977
 2247SOL    HW2 9320   2.389   4.075   4.021
 2248SOL     OW 9321   2.567   4.774   4.092
 2248SOL    HW1 9322   2.553   4.781   4.191
 2248SOL    HW2 9323   2.651   4.723   4.074
 2249SOL     OW 9324   2.272   4.537   4.975
 2249SOL    HW1 9325   2.358   4.549   5.025
 2249SOL    HW2 9326   2.230   4.450   5.002
 2250SOL     OW 9327   3.136   4.110   4.986
 2250SOL    HW1 9328   3.157   4.184   5.050
 2250SOL    HW2 9329   3.047   4.127   4.943
 2251SOL     OW 9330   2.229   4.824   4.225
 2251SOL    HW1 9331   2.222   4.907   4.169
 2251SOL    HW2 9332   2.233   4.744   4.165
 2252SOL     OW 9333   2.428   4.261   4.589
 2252SOL    HW1 9334   2.440   4.327   4.515
 2252SOL    HW2 9335   2.474   4.295   4.672
 2253SOL     OW 9336   2.435   4.594   4.753
 2253SOL    HW1 9337   2.479   4.683   4.744
 2253SOL    HW2 9338   2.372   4.594   4.830
 2254SOL     OW 9339   3.071   4.249   3.999
 2254SOL    HW1 9340   3.084   4.165   4.053
 2254SOL    HW2 9341   3.042   4.323   4.059
 2255SOL     OW 9342   2.169   3.937   4.955
 2255SOL    HW1 9343   2.146   3.974   5.045
 2255SOL    HW2 9344   2.139   3.842   4.949
 2256SOL     OW 9345   2.594   4.358   4.788
 2256SOL    HW1 9346   2.653   4.332   4.712
 2256SOL    HW2 9347   2.566   4.454   4.777
 2257SOL     OW 9348   2.169   3.787   4.342
 2257SOL    HW1 9349   2.158   3.881   4.375
 2257SOL    HW2 9350   2.164   3.724   4.419
 2258SOL     OW 9351   2.885   4.490   4.690
 2258SOL    HW1 9352   2.900   4.511   4.786
 2258SOL    HW2 9353   2.855   4.395   4.681
 2259SOL     OW 9354   2.181   4.534   4.673
 2259SOL    HW1 9355   2.274   4.570   4.678
 2259SOL    HW2 9356   2.175   4.449   4.725
 2260SOL     OW 9357   2.201   4.233   4.730
 2260SOL    HW1 9358   2.149   4.150   4.713
 2260SOL    HW2 9359   2.278   4.238   4.666
 2261SOL     OW 9360   3.022   3.931   5.201
 2261SOL    HW1 9361   3.022   3.995   5.278
 2261SOL    HW2 9362   3.050   3.979   5.118
 2262SOL     OW 9363   1.870   5.050   3.924
 2262SOL    HW1 9364   1.777   5.071   3.893
 2262SOL    HW2 9365   1.880   4.951   3.937
 2263SOL     OW 9366   1.902   4.268   4.838
 2263SOL    HW1 9367   1.987   4.235   4.797
 2263SOL    HW2 9368   1.915   4.283   4.936
 2264SOL     OW 9369   2.677   4.296   4.049
 2264SOL    HW1 9370   2.684   4.207   4.003
 2264SOL    HW2 9371   2.583   4.330   4.041
 2265SOL     OW 9372   3.519   4.328   4.930
 2265SOL    HW1 9373   3.481   4.259   4.992
 2265SOL    HW2 9374   3.601   4.292   4.886
 2266SOL     OW 9375   2.533   4.188   4.993
 2266SOL    HW1 9376   2.499   4.099   4.963
 2266SOL    HW2 9377   2.559   4.242   4.913
 2267SOL     OW 9378   2.335   4.224   3.915
 2267SOL    HW1 9379   2.396   4.304   3.919
 2267SOL    HW2 9380   2.240   4.255   3.922
 2268SOL     OW 9381   3.588   3.859   4.247
 2268SOL    HW1 9382   3.661   3.842   4.180
 2268SOL    HW2 9383   3.557   3.772   4.285
 2269SOL     OW 9384   3.142   4.651   4.396
 2269SOL    HW1 9385   3.202   4.570   4.398
 2269SOL    HW2 9386   3.182   4.720   4.336
 2270SOL     OW 9387   2.692   4.997   5.146
 2270SOL    HW1 9388   2.687   5.030   5.241
 2270SOL    HW2 9389   2.606   5.016   5.100
 2271SOL     OW 9390   3.703   3.899   4.687
 2271SOL    HW1 9391   3.742   3.814   4.651
 2271SOL    HW2 9392   3.605   3.901   4.668
 2272SOL     OW 9393   2.125   4.050   4.444
 2272SOL    HW1 9394   2.046   4.101   4.410
 2272SOL    HW2 9395   2.116   4.035   4.542
 2273SOL     OW 9396   3.056   5.336   3.755
 2273SOL    HW1 9397   3.062   5.243   3.792
 2273SOL    HW2 9398   2.997   5.336   3.675
 2274SOL     OW 9399   2.684   4.726   5.096
 2274SOL    HW1 9400   2.724   4.725   5.004
 2274SOL    HW2 9401   2.694   4.818   5.136
 2275SOL     OW 9402   2.901   4.822   4.420
 2275SOL    HW1 9403   2.831   4.775   4.474
 2275SOL    HW2 9404   2.960   4.754   4.377
 2276SOL     OW 9405   2.876   3.960   4.695
 2276SOL    HW1 9406   2.868   3.924   4.602
 2276SOL    HW2 9407   2.874   3.884   4.760
 2277SOL     OW 9408   3.571   4.109   5.105
 2277SOL    HW1 9409   3.644   4.178   5.109
 2277SOL    HW2 9410   3.599   4.034   5.046
 2278SOL     OW 9411   1.937   4.069   3.757
 2278SOL    HW1 9412   1.845   4.041   3.728
 2278SOL    HW2 9413   1.968   4.146   3.701
 2279SOL     OW 9414   1.934   3.890   4.042
 2279SOL    HW1 9415   1.917   3.973   3.988
 2279SOL    HW2 9416   2.024   3.853   4.020
 2280SOL     OW 9417   3.087   4.049   4.173
 2280SOL    HW1 9418   3.152   3.975   4.162
 2280SOL    HW2 9419   3.107   4.099   4.257
 2281SOL     OW 9420   2.456   4.469   4.376
 2281SOL    HW1 9421   2.506   4.554   4.357
 2281SOL    HW2 9422   2.368   4.471   4.328
 2282SOL     OW 9423   2.721   4.680   4.585
 2282SOL    HW1 9424   2.775   4.611   4.633
 2282SOL    HW2 9425   2.689   4.749   4.651
 2283SOL     OW 9426   3.686   3.916   4.951
 2283SOL    HW1 9427   3.682   3.826   4.995
 2283SOL    HW2 9428   3.689   3.905   4.852
 2284SOL     OW 9429   2.290   4.148   4.244
 2284SOL    HW1 9430   2.320   4.076   4.182
 2284SOL    HW2 9431   2.251   4.108   4.327
 2285SOL     OW 9432   3.286   3.938   4.836
 2285SOL    HW1 9433   3.338   3.873   4.891
 2285SOL    HW2 9434   3.237   4.001   4.897
 2286SOL     OW 9435   2.863   3.758   4.878
 2286SOL    HW1 9436   2.800   3.686   4.847
 2286SOL    HW2 9437   2.956   3.722   4.878
 2287SOL     OW 9438   2.632   5.054   4.025
 2287SOL    HW1 9439   2.586   4.967   4.042
 2287SOL    HW2 9440   2.723   5.051   4.066
 2288SOL     OW 9441   3.214   3.776   3.892
 2288SOL    HW1 9442   3.249   3.735   3.808
 2288SOL    HW2 9443   3.124   3.738   3.912
 2289SOL     OW 9444   3.162   4.177   4.415
 2289SOL    HW1 9445   3.103   4.257   4.419
 2289SOL    HW2 9446   3.177   4.142   4.508
 2290SOL     OW 9447   3.455   3.945   4.606
 2290SOL    HW1 9448   3.371   3.944   4.660
 2290SOL    HW2 9449   3.457   4.028   4.550
 2291SOL     OW 9450   3.954   0.628   0.113
 2291SOL    HW1 9451   3.861   0.626   0.150
 2291SOL    HW2 9452   3.955   0.589   0.021
 2292SOL     OW 9453   3.949   0.275   0.996
 2292SOL    HW1 9454   3.984   0.258   1.088
 2292SOL    HW2 9455   3.861   0.230   0.984
 2293SOL     OW 9456   3.743   0.368   0.647
 2293SOL    HW1 9457   3.661   0.411   0.686
 2293SOL    HW2 9458   3.715   0.295   0.584
 2294SOL     OW 9459   4.293   1.275   1.165
 2294SOL    HW1 9460   4.200   1.268   1.128
 2294SOL    HW2 9461   4.304   1.364   1.209
 2295SOL     OW 9462   4.859   0.703   0.717
 2295SOL    HW1 9463   4.916   0.781   0.692
 2295SOL    HW2 9464   4.799   0.729   0.793
 2296SOL     OW 9465   4.492   1.144   1.023
 2296SOL    HW1 9466   4.414   1.161   1.083
 2296SOL    HW2 9467   4.526   1.231   0.987
 2297SOL     OW 9468   4.574   0.798   1.823
 2297SOL    HW1 9469   4.570   0.874   1.888
 2297SOL    HW2 9470   4.596   0.834   1.732
 2298SOL     OW 9471   4.409   1.012   0.665
 2298SOL    HW1 9472   4.478   0.996   0.735
 2298SOL    HW2 9473   4.336   1.069   0.703
 2299SOL     OW 9474   4.059   1.435   1.061
 2299SOL    HW1 9475   3.981   1.404   1.008
 2299SOL    HW2 9476   4.117   1.493   1.004
 2300SOL     OW 9477   3.955   1.713   0.483
 2300SOL    HW1 9478   3.989   1.790   0.537
 2300SOL    HW2 9479   3.999   1.713   0.393
 2301SOL     OW 9480   4.851   1.341   1.690
 2301SOL    HW1 9481   4.898   1.341   1.778
 2301SOL    HW2 9482   4.803   1.254   1.679
 2302SOL     OW 9483   3.954   1.434   0.538
 2302SOL    HW1 9484   3.928   1.530   0.538
 2302SOL    HW2 9485   3.883   1.380   0.583
 2303SOL     OW 9486   3.964   1.091   0.886
 2303SOL    HW1 9487   3.978   1.007   0.938
 2303SOL    HW2 9488   3.909   1.155   0.941
 2304SOL     OW 9489   4.344   1.786   1.439
 2304SOL    HW1 9490   4.252   1.769   1.474
 2304SOL    HW2 9491   4.372   1.878   1.465
 2305SOL     OW 9492   4.330   0.964   0.123
 2305SOL    HW1 9493   4.337   1.048   0.069
 2305SOL    HW2 9494   4.376   0.977   0.211
 2306SOL     OW 9495   3.846   0.643   0.563
 2306SOL    HW1 9496   3.801   0.555   0.580
 2306SOL    HW2 9497   3.845   0.697   0.647
 2307SOL     OW 9498   3.751   1.596   0.117
 2307SOL    HW1 9499   3.732   1.500   0.138
 2307SOL    HW2 9500   3.718   1.654   0.192
 2308SOL     OW 9501   4.337   1.365   0.726
 2308SOL    HW1 9502   4.288   1.278   0.735
 2308SOL    HW2 9503   4.314   1.408   0.639
 2309SOL     OW 9504   5.017   1.228   1.423
 2309SOL    HW1 9505   5.054   1.155   1.365
 2309SOL    HW2 9506   5.069   1.233   1.508
 2310SOL     OW 9507   4.533   0.004   0.502
 2310SOL    HW1 9508   4.573   0.095   0.493
 2310SOL    HW2 9509   4.433   0.012   0.508
 2311SOL     OW 9510   3.921   0.976   1.264
 2311SOL    HW1 9511   4.010   0.931   1.250
 2311SOL    HW2 9512   3.848   0.911   1.245
 2312SOL     OW 9513   4.911   1.792   1.616
 2312SOL    HW1 9514   4.935   1.852   1.540
 2312SOL    HW2 9515   4.918   1.697   1.586
 2313SOL     OW 9516   4.322   0.729   0.270
 2313SOL    HW1 9517   4.346   0.798   0.202
 2313SOL    HW2 9518   4.244   0.762   0.324
 2314SOL     OW 9519   5.005   0.345   0.944
 2314SOL    HW1 9520   4.919   0.295   0.931
 2314SOL    HW2 9521   5.067   0.291   1.000
 2315SOL     OW 9522   4.697   0.890   1.572
 2315SOL    HW1 9523   4.743   0.806   1.543
 2315SOL    HW2 9524   4.641   0.924   1.497
 2316SOL     OW 9525   4.715   0.410   1.242
 2316SOL    HW1 9526   4.638   0.444   1.296
 2316SOL    HW2 9527   4.681   0.359   1.163
 2317SOL     OW 9528   4.765   0.701   0.429
 2317SOL    HW1 9529   4.791   0.697   0.525
 2317SOL    HW2 9530   4.680   0.650   0.415
 2318SOL     OW 9531   3.800   0.811   0.789
 2318SOL    HW1 9532   3.899   0.799   0.798
 2318SOL    HW2 9533   3.776   0.906   0.810
 2319SOL     OW 9534   3.854   1.821   1.571
 2319SOL    HW1 9535   3.844   1.806   1.670
 2319SOL    HW2 9536   3.768   1.857   1.535
 2320SOL     OW 9537   4.589   0.348   0.195
 2320SOL    HW1 9538   4.648   0.411   0.146
 2320SOL    HW2 9539   4.608   0.254   0.166
 2321SOL     OW 9540   4.274   0.196   0.885
 2321SOL    HW1 9541   4.269   0.191   0.985
 2321SOL    HW2 9542   4.276   0.292   0.856
 2322SOL     OW 9543   4.951   1.550   1.506
 2322SOL    HW1 9544   4.957   1.473   1.570
 2322SOL    HW2 9545   4.899   1.524   1.426
 2323SOL     OW 9546   4.045   0.943   0.242
 2323SOL    HW1 9547   4.127   0.982   0.200
 2323SOL    HW2 9548   4.018   0.861   0.193
 2324SOL     OW 9549   5.356   1.377   0.081
 2324SOL    HW1 9550   5.324   1.471   0.071
 2324SOL    HW2 9551   5.280   1.314   0.069
 2325SOL     OW 9552   4.106   0.700   0.480
 2325SOL    HW1 9553   4.151   0.610   0.477
 2325SOL    HW2 9554   4.012   0.689   0.513
 2326SOL     OW 9555   4.338   0.122   0.117
 2326SOL    HW1 9556   4.436   0.100   0.124
 2326SOL    HW2 9557   4.307   0.105   0.024
 2327SOL     OW 9558   4.612   1.514   1.195
 2327SOL    HW1 9559   4.589   1.489   1.101
 2327SOL    HW2 9560   4.673   1.445   1.234
 2328SOL     OW 9561   4.527   1.402   0.924
 2328SOL    HW1 9562   4.617   1.416   0.882
 2328SOL    HW2 9563   4.456   1.404   0.853
 2329SOL     OW 9564   4.646   0.503   0.899
 2329SOL    HW1 9565   4.621   0.494   0.803
 2329SOL    HW2 9566   4.694   0.421   0.930
 2330SOL     OW 9567   4.263   0.064   0.512
 2330SOL    HW1 9568   4.182   0.065   0.570
 2330SOL    HW2 9569   4.266   0.147   0.457
 2331SOL     OW 9570   4.021   0.035   0.171
 2331SOL    HW1 9571   4.070   0.119   0.150
 2331SOL    HW2 9572   4.083  -0.030   0.216
 2332SOL     OW 9573   4.659   0.236   0.480
 2332SOL    HW1 9574   4.611   0.277   0.402
 2332SOL    HW2 9575   4.758   0.234   0.461
 2333SOL     OW 9576   4.800   0.683   1.464
 2333SOL    HW1 9577   4.720   0.622   1.467
 2333SOL    HW2 9578   4.881   0.630   1.440
 2334SOL     OW 9579   4.183   1.152   0.741
 2334SOL    HW1 9580   4.112   1.125   0.806
 2334SOL    HW2 9581   4.157   1.124   0.648
 2335SOL     OW 9582   4.756   0.549   0.016
 2335SOL    HW1 9583   4.715   0.631  -0.023
 2335SOL    HW2 9584   4.820   0.575   0.089
 2336SOL     OW 9585   4.285   0.222   1.147
 2336SOL    HW1 9586   4.323   0.138   1.184
 2336SOL    HW2 9587   4.197   0.241   1.191
 2337SOL     OW 9588   4.590   0.454   0.642
 2337SOL    HW1 9589   4.558   0.526   0.580
 2337SOL    HW2 9590   4.614   0.373   0.589
 2338SOL     OW 9591   4.741   0.039   0.753
 2338SOL    HW1 9592   4.669   0.044   0.684
 2338SOL    HW2 9593   4.717  -0.030   0.822
 2339SOL     OW 9594   4.212   1.385   0.174
 2339SOL    HW1 9595   4.125   1.370   0.221
 2339SOL    HW2 9596   4.195   1.411   0.079
 2340SOL     OW 9597   5.388   1.280   0.657
 2340SOL    HW1 9598   5.487   1.288   0.671
 2340SOL    HW2 9599   5.343   1.364   0.688
 2341SOL     OW 9600   4.251   0.256   0.328
 2341SOL    HW1 9601   4.278   0.197   0.253
 2341SOL    HW2 9602   4.251   0.351   0.297
 2342SOL     OW 9603   4.788   1.347   1.340
 2342SOL    HW1 9604   4.708   1.324   1.395
 2342SOL    HW2 9605   4.871   1.321   1.389
 2343SOL     OW 9606   4.835   1.195   1.100
 2343SOL    HW1 9607   4.795   1.239   1.181
 2343SOL    HW2 9608   4.794   1.232   1.017
 2344SOL     OW 9609   4.639   0.089   1.402
 2344SOL    HW1 9610   4.664   0.069   1.307
 2344SOL    HW2 9611   4.711   0.145   1.444
 2345SOL     OW 9612   4.429   1.050   0.368
 2345SOL    HW1 9613   4.415   1.057   0.467
 2345SOL    HW2 9614   4.513   0.999   0.350
 2346SOL     OW 9615   4.998   0.386   1.262
 2346SOL    HW1 9616   5.019   0.460   1.326
 2346SOL    HW2 9617   4.909   0.403   1.219
 2347SOL     OW 9618   3.788   1.564   1.331
 2347SOL    HW1 9619   3.742   1.646   1.297
 2347SOL    HW2 9620   3.886   1.583   1.340
 2348SOL     OW 9621   4.091   1.100   0.501
 2348SOL    HW1 9622   4.084   1.183   0.445
 2348SOL    HW2 9623   4.095   1.020   0.441
 2349SOL     OW 9624   4.737   0.105   1.770
 2349SOL    HW1 9625   4.743   0.190   1.718
 2349SOL    HW2 9626   4.769   0.029   1.713
 2350SOL     OW 9627   4.228   0.050   1.740
 2350SOL    HW1 9628   4.186  -0.007   1.670
 2350SOL    HW2 9629   4.162   0.119   1.772
 2351SOL     OW 9630   4.297   0.870   1.029
 2351SOL    HW1 9631   4.341   0.959   1.020
 2351SOL    HW2 9632   4.234   0.870   1.106
 2352SOL     OW 9633   5.084   0.862   1.045
 2352SOL    HW1 9634   5.009   0.862   0.979
 2352SOL    HW2 9635   5.121   0.770   1.054
 2353SOL     OW 9636   4.031   0.213   1.231
 2353SOL    HW1 9637   4.008   0.250   1.321
 2353SOL    HW2 9638   4.001   0.118   1.225
 2354SOL     OW 9639   3.761   1.310   1.282
 2354SOL    HW1 9640   3.814   1.261   1.350
 2354SOL    HW2 9641   3.783   1.408   1.287
 2355SOL     OW 9642   4.031   0.063   0.618
 2355SOL    HW1 9643   4.020   0.157   0.651
 2355SOL    HW2 9644   4.026   0.000   0.695
 2356SOL     OW 9645   4.747   0.766   0.966
 2356SOL    HW1 9646   4.762   0.787   1.062
 2356SOL    HW2 9647   4.717   0.671   0.957
 2357SOL     OW 9648   4.704   1.573   1.700
 2357SOL    HW1 9649   4.684   1.617   1.612
 2357SOL    HW2 9650   4.743   1.482   1.684
 2358SOL     OW 9651   5.027   0.838   0.042
 2358SOL    HW1 9652   5.061   0.745   0.057
 2358SOL    HW2 9653   5.045   0.865  -0.053
 2359SOL     OW 9654   4.063   0.509   1.006
 2359SOL    HW1 9655   4.011   0.426   0.989
 2359SOL    HW2 9656   4.140   0.514   0.942
 2360SOL     OW 9657   4.862   0.380   1.678
 2360SOL    HW1 9658   4.817   0.443   1.742
 2360SOL    HW2 9659   4.955   0.411   1.661
 2361SOL     OW 9660   4.884   0.207   1.477
 2361SOL    HW1 9661   4.884   0.271   1.554
 2361SOL    HW2 9662   4.912   0.255   1.394
 2362SOL     OW 9663   4.228   1.568   0.910
 2362SOL    HW1 9664   4.294   1.642   0.919
 2362SOL    HW2 9665   4.272   1.489   0.868
 2363SOL     OW 9666   4.726   0.796   1.238
 2363SOL    HW1 9667   4.767   0.764   1.324
 2363SOL    HW2 9668   4.630   0.769   1.235
 2364SOL     OW 9669   3.764   0.544   1.114
 2364SOL    HW1 9670   3.849   0.511   1.073
 2364SOL    HW2 9671   3.777   0.559   1.212
 2365SOL     OW 9672   4.539   0.572   0.325
 2365SOL    HW1 9673   4.546   0.483   0.279
 2365SOL    HW2 9674   4.445   0.606   0.317
 2366SOL     OW 9675   3.976   1.564   1.744
 2366SOL    HW1 9676   3.946   1.621   1.820
 2366SOL    HW2 9677   3.969   1.467   1.770
 2367SOL     OW 9678   4.654   1.678   1.465
 2367SOL    HW1 9679   4.630   1.660   1.370
 2367SOL    HW2 9680   4.684   1.772   1.475
 2368SOL     OW 9681   4.197   0.500   0.191
 2368SOL    HW1 9682   4.258   0.580   0.195
 2368SOL    HW2 9683   4.102   0.531   0.198
 2369SOL     OW 9684   3.883   1.137   1.466
 2369SOL    HW1 9685   3.905   1.076   1.542
 2369SOL    HW2 9686   3.893   1.088   1.380
 2370SOL     OW 9687   5.071   1.059   1.234
 2370SOL    HW1 9688   5.095   0.996   1.160
 2370SOL    HW2 9689   4.981   1.099   1.216
 2371SOL     OW 9690   3.807   1.258   1.022
 2371SOL    HW1 9691   3.802   1.257   1.122
 2371SOL    HW2 9692   3.724   1.217   0.984
 2372SOL     OW 9693   4.412   1.662   1.716
 2372SOL    HW1 9694   4.356   1.743   1.725
 2372SOL    HW2 9695   4.464   1.666   1.630
 2373SOL     OW 9696   5.112   1.573   0.477
 2373SOL    HW1 9697   5.179   1.585   0.403
 2373SOL    HW2 9698   5.072   1.662   0.500
 2374SOL     OW 9699   3.854   1.794   1.851
 2374SOL    HW1 9700   3.813   1.720   1.904
 2374SOL    HW2 9701   3.918   1.845   1.909
 2375SOL     OW 9702   5.004   0.927   0.672
 2375SOL    HW1 9703   5.064   0.846   0.674
 2375SOL    HW2 9704   5.044   0.996   0.612
 2376SOL     OW 9705   3.987   0.326   0.720
 2376SOL    HW1 9706   3.908   0.377   0.686
 2376SOL    HW2 9707   3.978   0.311   0.818
 2377SOL     OW 9708   4.546   1.002   1.372
 2377SOL    HW1 9709   4.586   1.001   1.280
 2377SOL    HW2 9710   4.556   1.094   1.412
 2378SOL     OW 9711   4.640   0.910   0.291
 2378SOL    HW1 9712   4.703   0.948   0.223
 2378SOL    HW2 9713   4.680   0.827   0.330
 2379SOL     OW 9714   4.763   1.098   0.696
 2379SOL    HW1 9715   4.693   1.051   0.750
 2379SOL    HW2 9716   4.822   1.030   0.653
 2380SOL     OW 9717   4.738   0.236   0.971
 2380SOL    HW1 9718   4.730   0.200   0.878
 2380SOL    HW2 9719   4.736   0.160   1.036
 2381SOL     OW 9720   4.314   1.487   0.491
 2381SOL    HW1 9721   4.356   1.429   0.421
 2381SOL    HW2 9722   4.270   1.566   0.447
 2382SOL     OW 9723   3.979   1.348   0.290
 2382SOL    HW1 9724   3.883   1.349   0.263
 2382SOL    HW2 9725   3.991   1.401   0.374
 2383SOL     OW 9726   3.829   1.013   1.726
 2383SOL    HW1 9727   3.752   0.980   1.780
 2383SOL    HW2 9728   3.914   0.983   1.768
 2384SOL     OW 9729   4.396   0.203   1.489
 2384SOL    HW1 9730   4.486   0.187   1.449
 2384SOL    HW2 9731   4.404   0.208   1.588
 2385SOL     OW 9732   5.164   0.856   1.398
 2385SOL    HW1 9733   5.107   0.908   1.335
 2385SOL    HW2 9734   5.260   0.868   1.374
 2386SOL     OW 9735   3.796   0.166   0.318
 2386SOL    HW1 9736   3.779   0.249   0.264
 2386SOL    HW2 9737   3.886   0.129   0.296
 2387SOL     OW 9738   4.337   0.842   1.431
 2387SOL    HW1 9739   4.393   0.923   1.414
 2387SOL    HW2 9740   4.396   0.762   1.434
 2388SOL     OW 9741   4.949   0.325   0.449
 2388SOL    HW1 9742   5.014   0.251   0.438
 2388SOL    HW2 9743   4.969   0.375   0.533
 2389SOL     OW 9744   4.318   0.745   0.652
 2389SOL    HW1 9745   4.368   0.830   0.633
 2389SOL    HW2 9746   4.230   0.747   0.604
 2390SOL     OW 9747   4.583   1.374   0.016
 2390SOL    HW1 9748   4.537   1.389   0.104
 2390SOL    HW2 9749   4.627   1.459  -0.014
 2391SOL     OW 9750   4.385   1.790   0.953
 2391SOL    HW1 9751   4.339   1.878   0.940
 2391SOL    HW2 9752   4.484   1.802   0.946
 2392SOL     OW 9753   4.583   0.956   0.861
 2392SOL    HW1 9754   4.637   0.887   0.909
 2392SOL    HW2 9755   4.551   1.025   0.927
 2393SOL     OW 9756   4.152   0.424   0.520
 2393SOL    HW1 9757   4.182   0.352   0.458
 2393SOL    HW2 9758   4.113   0.384   0.603
 2394SOL     OW 9759   4.536   1.586   0.687
 2394SOL    HW1 9760   4.568   1.596   0.593
 2394SOL    HW2 9761   4.457   1.524   0.689
 2395SOL     OW 9762   4.725   0.034   1.154
 2395SOL    HW1 9763   4.662  -0.038   1.123
 2395SOL    HW2 9764   4.818  -0.002   1.154
 2396SOL     OW 9765   4.494   1.330   0.301
 2396SOL    HW1 9766   4.448   1.243   0.318
 2396SOL    HW2 9767   4.585   1.327   0.342
 2397SOL     OW 9768   4.342   1.567   1.284
 2397SOL    HW1 9769   4.337   1.649   1.341
 2397SOL    HW2 9770   4.431   1.564   1.239
 2398SOL     OW 9771   3.949   0.275   2.858
 2398SOL    HW1 9772   3.984   0.258   2.950
 2398SOL    HW2 9773   3.861   0.230   2.846
 2399SOL     OW 9774   3.743   0.368   2.509
 2399SOL    HW1 9775   3.661   0.411   2.548
 2399SOL    HW2 9776   3.715   0.295   2.446
 2400SOL     OW 9777   4.293   1.275   3.027
 2400SOL    HW1 9778   4.200   1.268   2.990
 2400SOL    HW2 9779   4.304   1.364   3.071
 2401SOL     OW 9780   4.492   1.144   2.885
 2401SOL    HW1 9781   4.414   1.161   2.945
 2401SOL    HW2 9782   4.526   1.231   2.849
 2402SOL     OW 9783   4.409   1.012   2.527
 2402SOL    HW1 9784   4.478   0.996   2.597
 2402SOL    HW2 9785   4.336   1.069   2.565
 2403SOL     OW 9786   4.059   1.435   2.923
 2403SOL    HW1 9787   3.981   1.404   2.870
 2403SOL    HW2 9788   4.117   1.493   2.866
 2404SOL     OW 9789   4.162   0.392   3.361
 2404SOL    HW1 9790   4.244   0.336   3.370
 2404SOL    HW2 9791   4.081   0.334   3.365
 2405SOL     OW 9792   3.955   1.713   2.345
 2405SOL    HW1 9793   3.989   1.790   2.399
 2405SOL    HW2 9794   3.999   1.713   2.255
 2406SOL     OW 9795   4.851   1.341   3.552
 2406SOL    HW1 9796   4.898   1.341   3.640
 2406SOL    HW2 9797   4.803   1.254   3.541
 2407SOL     OW 9798   3.954   1.434   2.400
 2407SOL    HW1 9799   3.928   1.530   2.400
 2407SOL    HW2 9800   3.883   1.380   2.445
 2408SOL     OW 9801   3.964   1.091   2.748
 2408SOL    HW1 9802   3.978   1.007   2.800
 2408SOL    HW2 9803   3.909   1.155   2.803
 2409SOL     OW 9804   4.330   0.964   1.985
 2409SOL    HW1 9805   4.337   1.048   1.931
 2409SOL    HW2 9806   4.376   0.977   2.073
 2410SOL     OW 9807   3.846   0.643   2.425
 2410SOL    HW1 9808   3.801   0.555   2.442
 2410SOL    HW2 9809   3.845   0.697   2.509
 2411SOL     OW 9810   3.751   1.596   1.979
 2411SOL    HW1 9811   3.732   1.500   2.000
 2411SOL    HW2 9812   3.718   1.654   2.054
 2412SOL     OW 9813   3.837   0.737   3.459
 2412SOL    HW1 9814   3.925   0.724   3.504
 2412SOL    HW2 9815   3.824   0.834   3.437
 2413SOL     OW 9816   4.337   1.365   2.588
 2413SOL    HW1 9817   4.288   1.278   2.597
 2413SOL    HW2 9818   4.314   1.408   2.501
 2414SOL     OW 9819   5.017   1.228   3.285
 2414SOL    HW1 9820   5.054   1.155   3.227
 2414SOL    HW2 9821   5.069   1.233   3.370
 2415SOL     OW 9822   4.533   0.004   2.364
 2415SOL    HW1 9823   4.573   0.095   2.355
 2415SOL    HW2 9824   4.433   0.012   2.370
 2416SOL     OW 9825   4.911   1.792   3.478
 2416SOL    HW1 9826   4.935   1.852   3.402
 2416SOL    HW2 9827   4.918   1.697   3.448
 2417SOL     OW 9828   4.041   0.251   3.663
 2417SOL    HW1 9829   4.112   0.322   3.669
 2417SOL    HW2 9830   3.953   0.290   3.691
 2418SOL     OW 9831   4.322   0.729   2.132
 2418SOL    HW1 9832   4.346   0.798   2.064
 2418SOL    HW2 9833   4.244   0.762   2.186
 2419SOL     OW 9834   5.005   0.345   2.806
 2419SOL    HW1 9835   4.919   0.295   2.793
 2419SOL    HW2 9836   5.067   0.291   2.862
 2420SOL     OW 9837   4.765   0.701   2.291
 2420SOL    HW1 9838   4.791   0.697   2.387
 2420SOL    HW2 9839   4.680   0.650   2.277
 2421SOL     OW 9840   3.854   1.821   3.433
 2421SOL    HW1 9841   3.844   1.806   3.532
 2421SOL    HW2 9842   3.768   1.857   3.397
 2422SOL     OW 9843   4.274   0.196   2.747
 2422SOL    HW1 9844   4.269   0.191   2.847
 2422SOL    HW2 9845   4.276   0.292   2.718
 2423SOL     OW 9846   4.732   1.456   2.339
 2423SOL    HW1 9847   4.686   1.528   2.287
 2423SOL    HW2 9848   4.728   1.476   2.437
 2424SOL     OW 9849   4.075   1.801   2.715
 2424SOL    HW1 9850   4.125   1.715   2.721
 2424SOL    HW2 9851   4.140   1.878   2.712
 2425SOL     OW 9852   4.951   1.550   3.368
 2425SOL    HW1 9853   4.957   1.473   3.432
 2425SOL    HW2 9854   4.899   1.524   3.288
 2426SOL     OW 9855   4.045   0.943   2.104
 2426SOL    HW1 9856   4.127   0.982   2.062
 2426SOL    HW2 9857   4.018   0.861   2.055
 2427SOL     OW 9858   4.835   1.776   2.099
 2427SOL    HW1 9859   4.775   1.714   2.149
 2427SOL    HW2 9860   4.866   1.732   2.014
 2428SOL     OW 9861   3.926   0.285   3.360
 2428SOL    HW1 9862   3.846   0.345   3.347
 2428SOL    HW2 9863   3.916   0.236   3.446
 2429SOL     OW 9864   4.664   1.698   2.766
 2429SOL    HW1 9865   4.744   1.641   2.787
 2429SOL    HW2 9866   4.615   1.658   2.689
 2430SOL     OW 9867   4.338   0.122   1.979
 2430SOL    HW1 9868   4.436   0.100   1.986
 2430SOL    HW2 9869   4.307   0.105   1.886
 2431SOL     OW 9870   4.505   0.264   3.611
 2431SOL    HW1 9871   4.572   0.203   3.654
 2431SOL    HW2 9872   4.432   0.283   3.676
 2432SOL     OW 9873   4.612   1.514   3.057
 2432SOL    HW1 9874   4.589   1.489   2.963
 2432SOL    HW2 9875   4.673   1.445   3.096
 2433SOL     OW 9876   4.527   1.402   2.786
 2433SOL    HW1 9877   4.617   1.416   2.744
 2433SOL    HW2 9878   4.456   1.404   2.715
 2434SOL     OW 9879   4.263   0.064   2.374
 2434SOL    HW1 9880   4.182   0.065   2.432
 2434SOL    HW2 9881   4.266   0.147   2.319
 2435SOL     OW 9882   4.021   0.035   2.033
 2435SOL    HW1 9883   4.070   0.119   2.012
 2435SOL    HW2 9884   4.083  -0.030   2.078
 2436SOL     OW 9885   4.659   0.236   2.342
 2436SOL    HW1 9886   4.611   0.277   2.264
 2436SOL    HW2 9887   4.758   0.234   2.323
 2437SOL     OW 9888   4.800   0.683   3.326
 2437SOL    HW1 9889   4.720   0.622   3.329
 2437SOL    HW2 9890   4.881   0.630   3.302
 2438SOL     OW 9891   4.951   1.570   2.655
 2438SOL    HW1 9892   4.972   1.644   2.590
 2438SOL    HW2 9893   5.019   1.570   2.728
 2439SOL     OW 9894   4.183   1.152   2.603
 2439SOL    HW1 9895   4.112   1.125   2.668
 2439SOL    HW2 9896   4.157   1.124   2.510
 2440SOL     OW 9897   4.995   1.797   2.453
 2440SOL    HW1 9898   5.039   1.861   2.389
 2440SOL    HW2 9899   4.945   1.849   2.523
 2441SOL     OW 9900   4.756   0.549   1.878
 2441SOL    HW1 9901   4.715   0.631   1.839
 2441SOL    HW2 9902   4.820   0.575   1.951
 2442SOL     OW 9903   3.802   0.556   3.248
 2442SOL    HW1 9904   3.894   0.555   3.207
 2442SOL    HW2 9905   3.796   0.630   3.315
 2443SOL     OW 9906   4.285   0.222   3.009
 2443SOL    HW1 9907   4.323   0.138   3.046
 2443SOL    HW2 9908   4.197   0.241   3.053
 2444SOL     OW 9909   4.590   0.454   2.504
 2444SOL    HW1 9910   4.558   0.526   2.442
 2444SOL    HW2 9911   4.614   0.373   2.451
 2445SOL     OW 9912   5.388   1.280   2.519
 2445SOL    HW1 9913   5.487   1.288   2.533
 2445SOL    HW2 9914   5.343   1.364   2.550
 2446SOL     OW 9915   4.251   0.256   2.190
 2446SOL    HW1 9916   4.278   0.197   2.115
 2446SOL    HW2 9917   4.251   0.351   2.159
 2447SOL     OW 9918   4.788   1.347   3.202
 2447SOL    HW1 9919   4.708   1.324   3.257
 2447SOL    HW2 9920   4.871   1.321   3.251
 2448SOL     OW 9921   4.639   0.089   3.264
 2448SOL    HW1 9922   4.664   0.069   3.169
 2448SOL    HW2 9923   4.711   0.145   3.306
 2449SOL     OW 9924   4.134   0.813   3.113
 2449SOL    HW1 9925   4.220   0.825   3.163
 2449SOL    HW2 9926   4.092   0.726   3.140
 2450SOL     OW 9927   4.998   0.386   3.124
 2450SOL    HW1 9928   5.019   0.460   3.188
 2450SOL    HW2 9929   4.909   0.403   3.081
 2451SOL     OW 9930   4.091   1.100   2.363
 2451SOL    HW1 9931   4.084   1.183   2.307
 2451SOL    HW2 9932   4.095   1.020   2.303
 2452SOL     OW 9933   4.976   1.348   2.250
 2452SOL    HW1 9934   5.026   1.425   2.290
 2452SOL    HW2 9935   4.881   1.350   2.282
 2453SOL     OW 9936   4.078   1.510   3.191
 2453SOL    HW1 9937   4.057   1.466   3.104
 2453SOL    HW2 9938   4.175   1.536   3.194
 2454SOL     OW 9939   4.737   0.105   3.632
 2454SOL    HW1 9940   4.743   0.190   3.580
 2454SOL    HW2 9941   4.769   0.029   3.575
 2455SOL     OW 9942   4.228   0.050   3.602
 2455SOL    HW1 9943   4.186  -0.007   3.532
 2455SOL    HW2 9944   4.162   0.119   3.634
 2456SOL     OW 9945   5.084   0.862   2.907
 2456SOL    HW1 9946   5.009   0.862   2.841
 2456SOL    HW2 9947   5.121   0.770   2.916
 2457SOL     OW 9948   4.031   0.213   3.093
 2457SOL    HW1 9949   4.008   0.250   3.183
 2457SOL    HW2 9950   4.001   0.118   3.087
 2458SOL     OW 9951   4.031   0.063   2.480
 2458SOL    HW1 9952   4.020   0.157   2.513
 2458SOL    HW2 9953   4.026   0.000   2.557
 2459SOL     OW 9954   4.704   1.573   3.562
 2459SOL    HW1 9955   4.684   1.617   3.474
 2459SOL    HW2 9956   4.743   1.482   3.546
 2460SOL     OW 9957   4.074   0.898   3.666
 2460SOL    HW1 9958   4.150   0.942   3.714
 2460SOL    HW2 9959   4.109   0.851   3.584
 2461SOL     OW 9960   5.027   0.838   1.904
 2461SOL    HW1 9961   5.061   0.745   1.919
 2461SOL    HW2 9962   5.045   0.865   1.809
 2462SOL     OW 9963   4.792   1.333   2.711
 2462SOL    HW1 9964   4.799   1.249   2.656
 2462SOL    HW2 9965   4.854   1.402   2.675
 2463SOL     OW 9966   4.063   0.509   2.868
 2463SOL    HW1 9967   4.011   0.426   2.851
 2463SOL    HW2 9968   4.140   0.514   2.804
 2464SOL     OW 9969   4.862   0.380   3.540
 2464SOL    HW1 9970   4.817   0.443   3.604
 2464SOL    HW2 9971   4.955   0.411   3.523
 2465SOL     OW 9972   4.884   0.207   3.339
 2465SOL    HW1 9973   4.884   0.271   3.416
 2465SOL    HW2 9974   4.912   0.255   3.256
 2466SOL     OW 9975   4.228   1.568   2.772
 2466SOL    HW1 9976   4.294   1.642   2.781
 2466SOL    HW2 9977   4.272   1.489   2.730
 2467SOL     OW 9978   3.764   0.544   2.976
 2467SOL    HW1 9979   3.849   0.511   2.935
 2467SOL    HW2 9980   3.777   0.559   3.074
 2468SOL     OW 9981   3.913   0.520   3.584
 2468SOL    HW1 9982   3.972   0.480   3.514
 2468SOL    HW2 9983   3.855   0.591   3.543
 2469SOL     OW 9984   4.539   0.572   2.187
 2469SOL    HW1 9985   4.546   0.483   2.141
 2469SOL    HW2 9986   4.445   0.606   2.179
 2470SOL     OW 9987   3.976   1.564   3.606
 2470SOL    HW1 9988   3.946   1.621   3.682
 2470SOL    HW2 9989   3.969   1.467   3.632
 2471SOL     OW 9990   4.395   0.464   3.131
 2471SOL    HW1 9991   4.361   0.375   3.101
 2471SOL    HW2 9992   4.421   0.518   3.051
 2472SOL     OW 9993   4.654   1.678   3.327
 2472SOL    HW1 9994   4.630   1.660   3.232
 2472SOL    HW2 9995   4.684   1.772   3.337
 2473SOL     OW 9996   4.197   0.500   2.053
 2473SOL    HW1 9997   4.258   0.580   2.057
 2473SOL    HW2 9998   4.102   0.531   2.060
 2474SOL     OW 9999   5.071   1.059   3.096
 2474SOL    HW110000   5.095   0.996   3.022
 2474SOL    HW210001   4.981   1.099   3.078
 2475SOL     OW10002   4.976   1.731   2.990
 2475SOL    HW110003   5.060   1.736   2.936
 2475SOL    HW210004   4.953   1.635   3.008
 2476SOL     OW10005   5.112   1.573   2.339
 2476SOL    HW110006   5.179   1.585   2.265
 2476SOL    HW210007   5.072   1.662   2.362
 2477SOL     OW10008   3.854   1.794   3.713
 2477SOL    HW110009   3.813   1.720   3.766
 2477SOL    HW210010   3.918   1.845   3.771
 2478SOL     OW10011   5.004   0.927   2.534
 2478SOL    HW110012   5.064   0.846   2.536
 2478SOL    HW210013   5.044   0.996   2.474
 2479SOL     OW10014   3.987   0.326   2.582
 2479SOL    HW110015   3.908   0.377   2.548
 2479SOL    HW210016   3.978   0.311   2.680
 2480SOL     OW10017   4.918   1.612   1.893
 2480SOL    HW110018   4.924   1.519   1.930
 2480SOL    HW210019   4.859   1.612   1.813
 2481SOL     OW10020   4.640   0.910   2.153
 2481SOL    HW110021   4.703   0.948   2.085
 2481SOL    HW210022   4.680   0.827   2.192
 2482SOL     OW10023   4.738   0.236   2.833
 2482SOL    HW110024   4.730   0.200   2.740
 2482SOL    HW210025   4.736   0.160   2.898
 2483SOL     OW10026   3.979   1.348   2.152
 2483SOL    HW110027   3.883   1.349   2.125
 2483SOL    HW210028   3.991   1.401   2.236
 2484SOL     OW10029   3.829   1.013   3.588
 2484SOL    HW110030   3.752   0.980   3.642
 2484SOL    HW210031   3.914   0.983   3.630
 2485SOL     OW10032   4.396   0.203   3.351
 2485SOL    HW110033   4.486   0.187   3.311
 2485SOL    HW210034   4.404   0.208   3.450
 2486SOL     OW10035   3.799   0.345   1.895
 2486SOL    HW110036   3.707   0.317   1.866
 2486SOL    HW210037   3.830   0.422   1.839
 2487SOL     OW10038   5.164   0.856   3.260
 2487SOL    HW110039   5.107   0.908   3.197
 2487SOL    HW210040   5.260   0.868   3.236
 2488SOL     OW10041   3.796   0.166   2.180
 2488SOL    HW110042   3.779   0.249   2.126
 2488SOL    HW210043   3.886   0.129   2.158
 2489SOL     OW10044   4.583   1.374   1.878
 2489SOL    HW110045   4.537   1.389   1.966
 2489SOL    HW210046   4.627   1.459   1.848
 2490SOL     OW10047   4.385   1.790   2.815
 2490SOL    HW110048   4.339   1.878   2.802
 2490SOL    HW210049   4.484   1.802   2.808
 2491SOL     OW10050   4.583   0.956   2.723
 2491SOL    HW110051   4.637   0.887   2.771
 2491SOL    HW210052   4.551   1.025   2.789
 2492SOL     OW10053   4.807   0.984   1.949
 2492SOL    HW110054   4.784   1.037   1.867
 2492SOL    HW210055   4.888   0.928   1.930
 2493SOL     OW10056   3.803   1.240   2.515
 2493SOL    HW110057   3.802   1.193   2.603
 2493SOL    HW210058   3.885   1.212   2.464
 2494SOL     OW10059   4.152   0.424   2.382
 2494SOL    HW110060   4.182   0.352   2.320
 2494SOL    HW210061   4.113   0.384   2.465
 2495SOL     OW10062   4.041   0.547   3.142
 2495SOL    HW110063   4.079   0.488   3.214
 2495SOL    HW210064   4.081   0.521   3.054
 2496SOL     OW10065   4.536   1.586   2.549
 2496SOL    HW110066   4.568   1.596   2.455
 2496SOL    HW210067   4.457   1.524   2.551
 2497SOL     OW10068   4.725   0.034   3.016
 2497SOL    HW110069   4.662  -0.038   2.985
 2497SOL    HW210070   4.818  -0.002   3.016
 2498SOL     OW10071   4.342   1.567   3.146
 2498SOL    HW110072   4.337   1.649   3.203
 2498SOL    HW210073   4.431   1.564   3.101
 2499SOL     OW10074   4.599   1.646   2.199
 2499SOL    HW110075   4.522   1.611   2.145
 2499SOL    HW210076   4.567   1.717   2.261
 2500SOL     OW10077   3.954   0.628   3.837
 2500SOL    HW110078   3.861   0.626   3.874
 2500SOL    HW210079   3.955   0.589   3.745
 2501SOL     OW10080   3.949   0.275   4.720
 2501SOL    HW110081   3.984   0.258   4.812
 2501SOL    HW210082   3.861   0.230   4.708
 2502SOL     OW10083   4.293   1.275   4.889
 2502SOL    HW110084   4.200   1.268   4.852
 2502SOL    HW210085   4.304   1.364   4.933
 2503SOL     OW10086   4.859   0.703   4.441
 2503SOL    HW110087   4.916   0.781   4.416
 2503SOL    HW210088   4.799   0.729   4.517
 2504SOL     OW10089   4.059   1.435   4.785
 2504SOL    HW110090   3.981   1.404   4.732
 2504SOL    HW210091   4.117   1.493   4.728
 2505SOL     OW10092   3.955   1.713   4.207
 2505SOL    HW110093   3.989   1.790   4.261
 2505SOL    HW210094   3.999   1.713   4.117
 2506SOL     OW10095   3.846   0.643   4.287
 2506SOL    HW110096   3.801   0.555   4.304
 2506SOL    HW210097   3.845   0.697   4.371
 2507SOL     OW10098   3.751   1.596   3.841
 2507SOL    HW110099   3.732   1.500   3.862
 2507SOL    HW210100   3.718   1.654   3.916
 2508SOL     OW10101   3.921   0.976   4.988
 2508SOL    HW110102   4.010   0.931   4.974
 2508SOL    HW210103   3.848   0.911   4.969
 2509SOL     OW10104   5.005   0.345   4.668
 2509SOL    HW110105   4.919   0.295   4.655
 2509SOL    HW210106   5.067   0.291   4.724
 2510SOL     OW10107   4.715   0.410   4.966
 2510SOL    HW110108   4.638   0.444   5.020
 2510SOL    HW210109   4.681   0.359   4.887
 2511SOL     OW10110   4.765   0.701   4.153
 2511SOL    HW110111   4.791   0.697   4.249
 2511SOL    HW210112   4.680   0.650   4.139
 2512SOL     OW10113   3.800   0.811   4.513
 2512SOL    HW110114   3.899   0.799   4.522
 2512SOL    HW210115   3.776   0.906   4.534
 2513SOL     OW10116   4.589   0.348   3.919
 2513SOL    HW110117   4.648   0.411   3.870
 2513SOL    HW210118   4.608   0.254   3.890
 2514SOL     OW10119   4.274   0.196   4.609
 2514SOL    HW110120   4.269   0.191   4.709
 2514SOL    HW210121   4.276   0.292   4.580
 2515SOL     OW10122   4.045   0.943   3.966
 2515SOL    HW110123   4.127   0.982   3.924
 2515SOL    HW210124   4.018   0.861   3.917
 2516SOL     OW10125   4.835   1.776   3.961
 2516SOL    HW110126   4.775   1.714   4.011
 2516SOL    HW210127   4.866   1.732   3.876
 2517SOL     OW10128   4.188   1.743   4.047
 2517SOL    HW110129   4.221   1.782   4.133
 2517SOL    HW210130   4.264   1.736   3.982
 2518SOL     OW10131   3.973   1.785   4.965
 2518SOL    HW110132   4.030   1.720   5.015
 2518SOL    HW210133   3.957   1.752   4.872
 2519SOL     OW10134   4.106   0.700   4.204
 2519SOL    HW110135   4.151   0.610   4.201
 2519SOL    HW210136   4.012   0.689   4.237
 2520SOL     OW10137   4.338   0.122   3.841
 2520SOL    HW110138   4.436   0.100   3.848
 2520SOL    HW210139   4.307   0.105   3.748
 2521SOL     OW10140   4.646   0.503   4.623
 2521SOL    HW110141   4.621   0.494   4.527
 2521SOL    HW210142   4.694   0.421   4.654
 2522SOL     OW10143   4.263   0.064   4.236
 2522SOL    HW110144   4.182   0.065   4.294
 2522SOL    HW210145   4.266   0.147   4.181
 2523SOL     OW10146   4.021   0.035   3.895
 2523SOL    HW110147   4.070   0.119   3.874
 2523SOL    HW210148   4.083  -0.030   3.940
 2524SOL     OW10149   4.659   0.236   4.204
 2524SOL    HW110150   4.611   0.277   4.126
 2524SOL    HW210151   4.758   0.234   4.185
 2525SOL     OW10152   4.756   0.549   3.740
 2525SOL    HW110153   4.715   0.631   3.701
 2525SOL    HW210154   4.820   0.575   3.813
 2526SOL     OW10155   4.285   0.222   4.871
 2526SOL    HW110156   4.323   0.138   4.908
 2526SOL    HW210157   4.197   0.241   4.915
 2527SOL     OW10158   4.590   0.454   4.366
 2527SOL    HW110159   4.558   0.526   4.304
 2527SOL    HW210160   4.614   0.373   4.313
 2528SOL     OW10161   4.741   0.039   4.477
 2528SOL    HW110162   4.669   0.044   4.408
 2528SOL    HW210163   4.717  -0.030   4.546
 2529SOL     OW10164   4.251   0.256   4.052
 2529SOL    HW110165   4.278   0.197   3.977
 2529SOL    HW210166   4.251   0.351   4.021
 2530SOL     OW10167   4.134   0.813   4.975
 2530SOL    HW110168   4.220   0.825   5.025
 2530SOL    HW210169   4.092   0.726   5.002
 2531SOL     OW10170   4.290   0.537   4.589
 2531SOL    HW110171   4.302   0.603   4.515
 2531SOL    HW210172   4.336   0.571   4.672
 2532SOL     OW10173   4.078   1.510   5.053
 2532SOL    HW110174   4.057   1.466   4.966
 2532SOL    HW210175   4.175   1.536   5.056
 2533SOL     OW10176   4.297   0.870   4.753
 2533SOL    HW110177   4.341   0.959   4.744
 2533SOL    HW210178   4.234   0.870   4.830
 2534SOL     OW10179   4.933   0.525   3.999
 2534SOL    HW110180   4.946   0.441   4.053
 2534SOL    HW210181   4.904   0.599   4.059
 2535SOL     OW10182   4.031   0.213   4.955
 2535SOL    HW110183   4.008   0.250   5.045
 2535SOL    HW210184   4.001   0.118   4.949
 2536SOL     OW10185   4.031   0.063   4.342
 2536SOL    HW110186   4.020   0.157   4.375
 2536SOL    HW210187   4.026   0.000   4.419
 2537SOL     OW10188   5.346   0.367   4.098
 2537SOL    HW110189   5.348   0.291   4.162
 2537SOL    HW210190   5.298   0.444   4.138
 2538SOL     OW10191   4.747   0.766   4.690
 2538SOL    HW110192   4.762   0.787   4.786
 2538SOL    HW210193   4.717   0.671   4.681
 2539SOL     OW10194   5.027   0.838   3.766
 2539SOL    HW110195   5.061   0.745   3.781
 2539SOL    HW210196   5.045   0.865   3.671
 2540SOL     OW10197   4.043   0.810   4.673
 2540SOL    HW110198   4.136   0.846   4.678
 2540SOL    HW210199   4.037   0.725   4.725
 2541SOL     OW10200   4.063   0.509   4.730
 2541SOL    HW110201   4.011   0.426   4.713
 2541SOL    HW210202   4.140   0.514   4.666
 2542SOL     OW10203   3.732   1.326   3.924
 2542SOL    HW110204   3.639   1.347   3.893
 2542SOL    HW210205   3.742   1.227   3.937
 2543SOL     OW10206   4.228   1.568   4.634
 2543SOL    HW110207   4.294   1.642   4.643
 2543SOL    HW210208   4.272   1.489   4.592
 2544SOL     OW10209   3.764   0.544   4.838
 2544SOL    HW110210   3.849   0.511   4.797
 2544SOL    HW210211   3.777   0.559   4.936
 2545SOL     OW10212   4.539   0.572   4.049
 2545SOL    HW110213   4.546   0.483   4.003
 2545SOL    HW210214   4.445   0.606   4.041
 2546SOL     OW10215   4.395   0.464   4.993
 2546SOL    HW110216   4.361   0.375   4.963
 2546SOL    HW210217   4.421   0.518   4.913
 2547SOL     OW10218   4.197   0.500   3.915
 2547SOL    HW110219   4.258   0.580   3.919
 2547SOL    HW210220   4.102   0.531   3.922
 2548SOL     OW10221   5.071   1.059   4.958
 2548SOL    HW110222   5.095   0.996   4.884
 2548SOL    HW210223   4.981   1.099   4.940
 2549SOL     OW10224   5.112   1.573   4.201
 2549SOL    HW110225   5.179   1.585   4.127
 2549SOL    HW210226   5.072   1.662   4.224
 2550SOL     OW10227   4.396   1.616   3.878
 2550SOL    HW110228   4.405   1.626   3.779
 2550SOL    HW210229   4.356   1.527   3.899
 2551SOL     OW10230   3.987   0.326   4.444
 2551SOL    HW110231   3.908   0.377   4.410
 2551SOL    HW210232   3.978   0.311   4.542
 2552SOL     OW10233   4.918   1.612   3.755
 2552SOL    HW110234   4.924   1.519   3.792
 2552SOL    HW210235   4.859   1.612   3.675
 2553SOL     OW10236   4.640   0.910   4.015
 2553SOL    HW110237   4.703   0.948   3.947
 2553SOL    HW210238   4.680   0.827   4.054
 2554SOL     OW10239   4.738   0.236   4.695
 2554SOL    HW110240   4.730   0.200   4.602
 2554SOL    HW210241   4.736   0.160   4.760
 2555SOL     OW10242   4.314   1.487   4.215
 2555SOL    HW110243   4.356   1.429   4.145
 2555SOL    HW210244   4.270   1.566   4.171
 2556SOL     OW10245   3.979   1.348   4.014
 2556SOL    HW110246   3.883   1.349   3.987
 2556SOL    HW210247   3.991   1.401   4.098
 2557SOL     OW10248   3.799   0.345   3.757
 2557SOL    HW110249   3.707   0.317   3.728
 2557SOL    HW210250   3.830   0.422   3.701
 2558SOL     OW10251   3.796   0.166   4.042
 2558SOL    HW110252   3.779   0.249   3.988
 2558SOL    HW210253   3.886   0.129   4.020
 2559SOL     OW10254   4.949   0.325   4.173
 2559SOL    HW110255   5.014   0.251   4.162
 2559SOL    HW210256   4.969   0.375   4.257
 2560SOL     OW10257   4.318   0.745   4.376
 2560SOL    HW110258   4.368   0.830   4.357
 2560SOL    HW210259   4.230   0.747   4.328
 2561SOL     OW10260   4.583   1.374   3.740
 2561SOL    HW110261   4.537   1.389   3.828
 2561SOL    HW210262   4.627   1.459   3.710
 2562SOL     OW10263   4.385   1.790   4.677
 2562SOL    HW110264   4.339   1.878   4.664
 2562SOL    HW210265   4.484   1.802   4.670
 2563SOL     OW10266   4.807   0.984   3.811
 2563SOL    HW110267   4.784   1.037   3.729
 2563SOL    HW210268   4.888   0.928   3.792
 2564SOL     OW10269   4.152   0.424   4.244
 2564SOL    HW110270   4.182   0.352   4.182
 2564SOL    HW210271   4.113   0.384   4.327
 2565SOL     OW10272   4.725   0.034   4.878
 2565SOL    HW110273   4.662  -0.038   4.847
 2565SOL    HW210274   4.818  -0.002   4.878
 2566SOL     OW10275   4.494   1.330   4.025
 2566SOL    HW110276   4.448   1.243   4.042
 2566SOL    HW210277   4.585   1.327   4.066
 2567SOL     OW10278   3.763   1.077   4.024
 2567SOL    HW110279   3.862   1.066   4.015
 2567SOL    HW210280   3.723   0.991   4.056
 2568SOL     OW10281   4.599   1.646   4.061
 2568SOL    HW110282   4.522   1.611   4.007
 2568SOL    HW210283   4.567   1.717   4.123
 2569SOL     OW10284   3.954   2.490   0.113
 2569SOL    HW110285   3.861   2.488   0.150
 2569SOL    HW210286   3.955   2.451   0.021
 2570SOL     OW10287   4.859   2.565   0.717
 2570SOL    HW110288   4.916   2.643   0.692
 2570SOL    HW210289   4.799   2.591   0.793
 2571SOL     OW10290   4.409   2.874   0.665
 2571SOL    HW110291   4.478   2.858   0.735
 2571SOL    HW210292   4.336   2.931   0.703
 2572SOL     OW10293   4.410   3.023   1.803
 2572SOL    HW110294   4.470   3.102   1.817
 2572SOL    HW210295   4.324   3.054   1.762
 2573SOL     OW10296   4.059   3.297   1.061
 2573SOL    HW110297   3.981   3.266   1.008
 2573SOL    HW210298   4.117   3.355   1.004
 2574SOL     OW10299   4.162   2.254   1.499
 2574SOL    HW110300   4.244   2.198   1.508
 2574SOL    HW210301   4.081   2.196   1.503
 2575SOL     OW10302   4.851   3.203   1.690
 2575SOL    HW110303   4.898   3.203   1.778
 2575SOL    HW210304   4.803   3.116   1.679
 2576SOL     OW10305   3.964   2.953   0.886
 2576SOL    HW110306   3.978   2.869   0.938
 2576SOL    HW210307   3.909   3.017   0.941
 2577SOL     OW10308   4.330   2.826   0.123
 2577SOL    HW110309   4.337   2.910   0.069
 2577SOL    HW210310   4.376   2.839   0.211
 2578SOL     OW10311   3.846   2.505   0.563
 2578SOL    HW110312   3.801   2.417   0.580
 2578SOL    HW210313   3.845   2.559   0.647
 2579SOL     OW10314   4.337   3.227   0.726
 2579SOL    HW110315   4.288   3.140   0.735
 2579SOL    HW210316   4.314   3.270   0.639
 2580SOL     OW10317   3.921   2.838   1.264
 2580SOL    HW110318   4.010   2.793   1.250
 2580SOL    HW210319   3.848   2.773   1.245
 2581SOL     OW10320   4.911   3.654   1.616
 2581SOL    HW110321   4.935   3.714   1.540
 2581SOL    HW210322   4.918   3.559   1.586
 2582SOL     OW10323   4.041   2.113   1.801
 2582SOL    HW110324   4.112   2.184   1.807
 2582SOL    HW210325   3.953   2.152   1.829
 2583SOL     OW10326   4.322   2.591   0.270
 2583SOL    HW110327   4.346   2.660   0.202
 2583SOL    HW210328   4.244   2.624   0.324
 2584SOL     OW10329   4.715   2.272   1.242
 2584SOL    HW110330   4.638   2.306   1.296
 2584SOL    HW210331   4.681   2.221   1.163
 2585SOL     OW10332   4.765   2.563   0.429
 2585SOL    HW110333   4.791   2.559   0.525
 2585SOL    HW210334   4.680   2.512   0.415
 2586SOL     OW10335   3.800   2.673   0.789
 2586SOL    HW110336   3.899   2.661   0.798
 2586SOL    HW210337   3.776   2.768   0.810
 2587SOL     OW10338   3.854   3.683   1.571
 2587SOL    HW110339   3.844   3.668   1.670
 2587SOL    HW210340   3.768   3.719   1.535
 2588SOL     OW10341   4.589   2.210   0.195
 2588SOL    HW110342   4.648   2.273   0.146
 2588SOL    HW210343   4.608   2.116   0.166
 2589SOL     OW10344   4.732   3.318   0.477
 2589SOL    HW110345   4.686   3.390   0.425
 2589SOL    HW210346   4.728   3.338   0.575
 2590SOL     OW10347   4.075   3.663   0.853
 2590SOL    HW110348   4.125   3.577   0.859
 2590SOL    HW210349   4.140   3.740   0.850
 2591SOL     OW10350   4.951   3.412   1.506
 2591SOL    HW110351   4.957   3.335   1.570
 2591SOL    HW210352   4.899   3.386   1.426
 2592SOL     OW10353   4.045   2.805   0.242
 2592SOL    HW110354   4.127   2.844   0.200
 2592SOL    HW210355   4.018   2.723   0.193
 2593SOL     OW10356   4.185   3.128   1.727
 2593SOL    HW110357   4.135   3.129   1.641
 2593SOL    HW210358   4.122   3.110   1.803
 2594SOL     OW10359   4.835   3.638   0.237
 2594SOL    HW110360   4.775   3.576   0.287
 2594SOL    HW210361   4.866   3.594   0.152
 2595SOL     OW10362   3.926   2.147   1.498
 2595SOL    HW110363   3.846   2.207   1.485
 2595SOL    HW210364   3.916   2.098   1.584
 2596SOL     OW10365   4.106   2.562   0.480
 2596SOL    HW110366   4.151   2.472   0.477
 2596SOL    HW210367   4.012   2.551   0.513
 2597SOL     OW10368   4.505   2.126   1.749
 2597SOL    HW110369   4.572   2.065   1.792
 2597SOL    HW210370   4.432   2.145   1.814
 2598SOL     OW10371   4.527   3.264   0.924
 2598SOL    HW110372   4.617   3.278   0.882
 2598SOL    HW210373   4.456   3.266   0.853
 2599SOL     OW10374   4.646   2.365   0.899
 2599SOL    HW110375   4.621   2.356   0.803
 2599SOL    HW210376   4.694   2.283   0.930
 2600SOL     OW10377   4.659   2.098   0.480
 2600SOL    HW110378   4.611   2.139   0.402
 2600SOL    HW210379   4.758   2.096   0.461
 2601SOL     OW10380   4.951   3.432   0.793
 2601SOL    HW110381   4.972   3.506   0.728
 2601SOL    HW210382   5.019   3.432   0.866
 2602SOL     OW10383   4.183   3.014   0.741
 2602SOL    HW110384   4.112   2.987   0.806
 2602SOL    HW210385   4.157   2.986   0.648
 2603SOL     OW10386   4.756   2.411   0.016
 2603SOL    HW110387   4.715   2.493  -0.023
 2603SOL    HW210388   4.820   2.437   0.089
 2604SOL     OW10389   3.802   2.418   1.386
 2604SOL    HW110390   3.894   2.417   1.345
 2604SOL    HW210391   3.796   2.492   1.453
 2605SOL     OW10392   4.590   2.316   0.642
 2605SOL    HW110393   4.558   2.388   0.580
 2605SOL    HW210394   4.614   2.235   0.589
 2606SOL     OW10395   4.741   1.901   0.753
 2606SOL    HW110396   4.669   1.906   0.684
 2606SOL    HW210397   4.717   1.832   0.822
 2607SOL     OW10398   4.639   1.951   1.402
 2607SOL    HW110399   4.664   1.931   1.307
 2607SOL    HW210400   4.711   2.007   1.444
 2608SOL     OW10401   4.704   2.978   1.719
 2608SOL    HW110402   4.605   2.984   1.729
 2608SOL    HW210403   4.727   2.898   1.663
 2609SOL     OW10404   4.429   2.912   0.368
 2609SOL    HW110405   4.415   2.919   0.467
 2609SOL    HW210406   4.513   2.861   0.350
 2610SOL     OW10407   4.998   2.248   1.262
 2610SOL    HW110408   5.019   2.322   1.326
 2610SOL    HW210409   4.909   2.265   1.219
 2611SOL     OW10410   4.091   2.962   0.501
 2611SOL    HW110411   4.084   3.045   0.445
 2611SOL    HW210412   4.095   2.882   0.441
 2612SOL     OW10413   4.290   2.399   0.865
 2612SOL    HW110414   4.302   2.465   0.791
 2612SOL    HW210415   4.336   2.433   0.948
 2613SOL     OW10416   4.976   3.210   0.388
 2613SOL    HW110417   5.026   3.287   0.428
 2613SOL    HW210418   4.881   3.212   0.420
 2614SOL     OW10419   4.126   2.613   1.598
 2614SOL    HW110420   4.194   2.668   1.551
 2614SOL    HW210421   4.166   2.525   1.625
 2615SOL     OW10422   4.737   1.967   1.770
 2615SOL    HW110423   4.743   2.052   1.718
 2615SOL    HW210424   4.769   1.891   1.713
 2616SOL     OW10425   4.228   1.912   1.740
 2616SOL    HW110426   4.186   1.855   1.670
 2616SOL    HW210427   4.162   1.981   1.772
 2617SOL     OW10428   5.084   2.724   1.045
 2617SOL    HW110429   5.009   2.724   0.979
 2617SOL    HW210430   5.121   2.632   1.054
 2618SOL     OW10431   4.933   2.387   0.275
 2618SOL    HW110432   4.946   2.303   0.329
 2618SOL    HW210433   4.904   2.461   0.335
 2619SOL     OW10434   4.456   2.496   1.064
 2619SOL    HW110435   4.515   2.470   0.988
 2619SOL    HW210436   4.428   2.592   1.053
 2620SOL     OW10437   5.346   2.229   0.374
 2620SOL    HW110438   5.348   2.153   0.438
 2620SOL    HW210439   5.298   2.306   0.414
 2621SOL     OW10440   4.747   2.628   0.966
 2621SOL    HW110441   4.762   2.649   1.062
 2621SOL    HW210442   4.717   2.533   0.957
 2622SOL     OW10443   4.704   3.435   1.700
 2622SOL    HW110444   4.684   3.479   1.612
 2622SOL    HW210445   4.743   3.344   1.684
 2623SOL     OW10446   4.074   2.760   1.804
 2623SOL    HW110447   4.150   2.804   1.852
 2623SOL    HW210448   4.109   2.713   1.722
 2624SOL     OW10449   5.027   2.700   0.042
 2624SOL    HW110450   5.061   2.607   0.057
 2624SOL    HW210451   5.045   2.727  -0.053
 2625SOL     OW10452   4.792   3.195   0.849
 2625SOL    HW110453   4.799   3.111   0.794
 2625SOL    HW210454   4.854   3.264   0.813
 2626SOL     OW10455   4.043   2.672   0.949
 2626SOL    HW110456   4.136   2.708   0.954
 2626SOL    HW210457   4.037   2.587   1.001
 2627SOL     OW10458   4.063   2.371   1.006
 2627SOL    HW110459   4.011   2.288   0.989
 2627SOL    HW210460   4.140   2.376   0.942
 2628SOL     OW10461   4.862   2.242   1.678
 2628SOL    HW110462   4.817   2.305   1.742
 2628SOL    HW210463   4.955   2.273   1.661
 2629SOL     OW10464   4.884   2.069   1.477
 2629SOL    HW110465   4.884   2.133   1.554
 2629SOL    HW210466   4.912   2.117   1.394
 2630SOL     OW10467   3.812   3.663   0.927
 2630SOL    HW110468   3.770   3.577   0.900
 2630SOL    HW210469   3.906   3.666   0.893
 2631SOL     OW10470   4.228   3.430   0.910
 2631SOL    HW110471   4.294   3.504   0.919
 2631SOL    HW210472   4.272   3.351   0.868
 2632SOL     OW10473   4.726   2.658   1.238
 2632SOL    HW110474   4.767   2.626   1.324
 2632SOL    HW210475   4.630   2.631   1.235
 2633SOL     OW10476   3.764   2.406   1.114
 2633SOL    HW110477   3.849   2.373   1.073
 2633SOL    HW210478   3.777   2.421   1.212
 2634SOL     OW10479   3.913   2.382   1.722
 2634SOL    HW110480   3.972   2.342   1.652
 2634SOL    HW210481   3.855   2.453   1.681
 2635SOL     OW10482   4.539   2.434   0.325
 2635SOL    HW110483   4.546   2.345   0.279
 2635SOL    HW210484   4.445   2.468   0.317
 2636SOL     OW10485   3.976   3.426   1.744
 2636SOL    HW110486   3.946   3.483   1.820
 2636SOL    HW210487   3.969   3.329   1.770
 2637SOL     OW10488   4.395   2.326   1.269
 2637SOL    HW110489   4.361   2.237   1.239
 2637SOL    HW210490   4.421   2.380   1.189
 2638SOL     OW10491   4.654   3.540   1.465
 2638SOL    HW110492   4.630   3.522   1.370
 2638SOL    HW210493   4.684   3.634   1.475
 2639SOL     OW10494   4.197   2.362   0.191
 2639SOL    HW110495   4.258   2.442   0.195
 2639SOL    HW210496   4.102   2.393   0.198
 2640SOL     OW10497   5.071   2.921   1.234
 2640SOL    HW110498   5.095   2.858   1.160
 2640SOL    HW210499   4.981   2.961   1.216
 2641SOL     OW10500   4.976   3.593   1.128
 2641SOL    HW110501   5.060   3.598   1.074
 2641SOL    HW210502   4.953   3.497   1.146
 2642SOL     OW10503   3.807   3.120   1.022
 2642SOL    HW110504   3.802   3.119   1.122
 2642SOL    HW210505   3.724   3.079   0.984
 2643SOL     OW10506   3.854   3.656   1.851
 2643SOL    HW110507   3.813   3.582   1.904
 2643SOL    HW210508   3.918   3.707   1.909
 2644SOL     OW10509   5.004   2.789   0.672
 2644SOL    HW110510   5.064   2.708   0.674
 2644SOL    HW210511   5.044   2.858   0.612
 2645SOL     OW10512   4.918   3.474   0.031
 2645SOL    HW110513   4.924   3.381   0.068
 2645SOL    HW210514   4.859   3.474  -0.049
 2646SOL     OW10515   4.640   2.772   0.291
 2646SOL    HW110516   4.703   2.810   0.223
 2646SOL    HW210517   4.680   2.689   0.330
 2647SOL     OW10518   4.763   2.960   0.696
 2647SOL    HW110519   4.693   2.913   0.750
 2647SOL    HW210520   4.822   2.892   0.653
 2648SOL     OW10521   3.979   3.210   0.290
 2648SOL    HW110522   3.883   3.211   0.263
 2648SOL    HW210523   3.991   3.263   0.374
 2649SOL     OW10524   4.396   2.065   1.489
 2649SOL    HW110525   4.486   2.049   1.449
 2649SOL    HW210526   4.404   2.070   1.588
 2650SOL     OW10527   5.164   2.718   1.398
 2650SOL    HW110528   5.107   2.770   1.335
 2650SOL    HW210529   5.260   2.730   1.374
 2651SOL     OW10530   3.796   2.028   0.318
 2651SOL    HW110531   3.779   2.111   0.264
 2651SOL    HW210532   3.886   1.991   0.296
 2652SOL     OW10533   4.440   2.427   1.708
 2652SOL    HW110534   4.459   2.492   1.782
 2652SOL    HW210535   4.500   2.347   1.717
 2653SOL     OW10536   4.949   2.187   0.449
 2653SOL    HW110537   5.014   2.113   0.438
 2653SOL    HW210538   4.969   2.237   0.533
 2654SOL     OW10539   4.318   2.607   0.652
 2654SOL    HW110540   4.368   2.692   0.633
 2654SOL    HW210541   4.230   2.609   0.604
 2655SOL     OW10542   4.583   3.236   0.016
 2655SOL    HW110543   4.537   3.251   0.104
 2655SOL    HW210544   4.627   3.321  -0.014
 2656SOL     OW10545   4.385   3.652   0.953
 2656SOL    HW110546   4.339   3.740   0.940
 2656SOL    HW210547   4.484   3.664   0.946
 2657SOL     OW10548   4.583   2.818   0.861
 2657SOL    HW110549   4.637   2.749   0.909
 2657SOL    HW210550   4.551   2.887   0.927
 2658SOL     OW10551   4.807   2.846   0.087
 2658SOL    HW110552   4.784   2.899   0.005
 2658SOL    HW210553   4.888   2.790   0.068
 2659SOL     OW10554   3.945   3.176   1.844
 2659SOL    HW110555   3.880   3.103   1.823
 2659SOL    HW210556   3.949   3.190   1.942
 2660SOL     OW10557   3.803   3.102   0.653
 2660SOL    HW110558   3.802   3.055   0.741
 2660SOL    HW210559   3.885   3.074   0.602
 2661SOL     OW10560   4.396   3.253   1.624
 2661SOL    HW110561   4.318   3.203   1.662
 2661SOL    HW210562   4.393   3.348   1.655
 2662SOL     OW10563   4.152   2.286   0.520
 2662SOL    HW110564   4.182   2.214   0.458
 2662SOL    HW210565   4.113   2.246   0.603
 2663SOL     OW10566   4.041   2.409   1.280
 2663SOL    HW110567   4.079   2.350   1.352
 2663SOL    HW210568   4.081   2.383   1.192
 2664SOL     OW10569   4.494   3.192   0.301
 2664SOL    HW110570   4.448   3.105   0.318
 2664SOL    HW210571   4.585   3.189   0.342
 2665SOL     OW10572   4.342   3.429   1.284
 2665SOL    HW110573   4.337   3.511   1.341
 2665SOL    HW210574   4.431   3.426   1.239
 2666SOL     OW10575   3.763   2.939   0.300
 2666SOL    HW110576   3.862   2.928   0.291
 2666SOL    HW210577   3.723   2.853   0.332
 2667SOL     OW10578   3.954   2.490   1.975
 2667SOL    HW110579   3.861   2.488   2.012
 2667SOL    HW210580   3.955   2.451   1.883
 2668SOL     OW10581   4.293   3.137   3.027
 2668SOL    HW110582   4.200   3.130   2.990
 2668SOL    HW210583   4.304   3.226   3.071
 2669SOL     OW10584   4.492   3.006   2.885
 2669SOL    HW110585   4.414   3.023   2.945
 2669SOL    HW210586   4.526   3.093   2.849
 2670SOL     OW10587   4.410   3.023   3.665
 2670SOL    HW110588   4.470   3.102   3.679
 2670SOL    HW210589   4.324   3.054   3.624
 2671SOL     OW10590   4.059   3.297   2.923
 2671SOL    HW110591   3.981   3.266   2.870
 2671SOL    HW210592   4.117   3.355   2.866
 2672SOL     OW10593   4.162   2.254   3.361
 2672SOL    HW110594   4.244   2.198   3.370
 2672SOL    HW210595   4.081   2.196   3.365
 2673SOL     OW10596   4.851   3.203   3.552
 2673SOL    HW110597   4.898   3.203   3.640
 2673SOL    HW210598   4.803   3.116   3.541
 2674SOL     OW10599   3.964   2.953   2.748
 2674SOL    HW110600   3.978   2.869   2.800
 2674SOL    HW210601   3.909   3.017   2.803
 2675SOL     OW10602   4.344   3.648   3.301
 2675SOL    HW110603   4.252   3.631   3.336
 2675SOL    HW210604   4.372   3.740   3.327
 2676SOL     OW10605   4.330   2.826   1.985
 2676SOL    HW110606   4.337   2.910   1.931
 2676SOL    HW210607   4.376   2.839   2.073
 2677SOL     OW10608   3.846   2.505   2.425
 2677SOL    HW110609   3.801   2.417   2.442
 2677SOL    HW210610   3.845   2.559   2.509
 2678SOL     OW10611   3.751   3.458   1.979
 2678SOL    HW110612   3.732   3.362   2.000
 2678SOL    HW210613   3.718   3.516   2.054
 2679SOL     OW10614   4.337   3.227   2.588
 2679SOL    HW110615   4.288   3.140   2.597
 2679SOL    HW210616   4.314   3.270   2.501
 2680SOL     OW10617   5.017   3.090   3.285
 2680SOL    HW110618   5.054   3.017   3.227
 2680SOL    HW210619   5.069   3.095   3.370
 2681SOL     OW10620   4.533   1.866   2.364
 2681SOL    HW110621   4.573   1.957   2.355
 2681SOL    HW210622   4.433   1.874   2.370
 2682SOL     OW10623   4.911   3.654   3.478
 2682SOL    HW110624   4.935   3.714   3.402
 2682SOL    HW210625   4.918   3.559   3.448
 2683SOL     OW10626   4.322   2.591   2.132
 2683SOL    HW110627   4.346   2.660   2.064
 2683SOL    HW210628   4.244   2.624   2.186
 2684SOL     OW10629   5.005   2.207   2.806
 2684SOL    HW110630   4.919   2.157   2.793
 2684SOL    HW210631   5.067   2.153   2.862
 2685SOL     OW10632   4.531   2.467   3.327
 2685SOL    HW110633   4.484   2.464   3.416
 2685SOL    HW210634   4.480   2.412   3.261
 2686SOL     OW10635   4.697   2.752   3.434
 2686SOL    HW110636   4.743   2.668   3.405
 2686SOL    HW210637   4.641   2.786   3.359
 2687SOL     OW10638   4.715   2.272   3.104
 2687SOL    HW110639   4.638   2.306   3.158
 2687SOL    HW210640   4.681   2.221   3.025
 2688SOL     OW10641   3.800   2.673   2.651
 2688SOL    HW110642   3.899   2.661   2.660
 2688SOL    HW210643   3.776   2.768   2.672
 2689SOL     OW10644   3.854   3.683   3.433
 2689SOL    HW110645   3.844   3.668   3.532
 2689SOL    HW210646   3.768   3.719   3.397
 2690SOL     OW10647   4.589   2.210   2.057
 2690SOL    HW110648   4.648   2.273   2.008
 2690SOL    HW210649   4.608   2.116   2.028
 2691SOL     OW10650   4.274   2.058   2.747
 2691SOL    HW110651   4.269   2.053   2.847
 2691SOL    HW210652   4.276   2.154   2.718
 2692SOL     OW10653   4.732   3.318   2.339
 2692SOL    HW110654   4.686   3.390   2.287
 2692SOL    HW210655   4.728   3.338   2.437
 2693SOL     OW10656   4.951   3.412   3.368
 2693SOL    HW110657   4.957   3.335   3.432
 2693SOL    HW210658   4.899   3.386   3.288
 2694SOL     OW10659   4.045   2.805   2.104
 2694SOL    HW110660   4.127   2.844   2.062
 2694SOL    HW210661   4.018   2.723   2.055
 2695SOL     OW10662   4.185   3.128   3.589
 2695SOL    HW110663   4.135   3.129   3.503
 2695SOL    HW210664   4.122   3.110   3.665
 2696SOL     OW10665   4.835   3.638   2.099
 2696SOL    HW110666   4.775   3.576   2.149
 2696SOL    HW210667   4.866   3.594   2.014
 2697SOL     OW10668   4.188   3.605   2.185
 2697SOL    HW110669   4.221   3.644   2.271
 2697SOL    HW210670   4.264   3.598   2.120
 2698SOL     OW10671   3.973   3.647   3.103
 2698SOL    HW110672   4.030   3.582   3.153
 2698SOL    HW210673   3.957   3.614   3.010
 2699SOL     OW10674   4.664   3.560   2.766
 2699SOL    HW110675   4.744   3.503   2.787
 2699SOL    HW210676   4.615   3.520   2.689
 2700SOL     OW10677   4.106   2.562   2.342
 2700SOL    HW110678   4.151   2.472   2.339
 2700SOL    HW210679   4.012   2.551   2.375
 2701SOL     OW10680   4.338   1.984   1.979
 2701SOL    HW110681   4.436   1.962   1.986
 2701SOL    HW210682   4.307   1.967   1.886
 2702SOL     OW10683   4.505   2.126   3.611
 2702SOL    HW110684   4.572   2.065   3.654
 2702SOL    HW210685   4.432   2.145   3.676
 2703SOL     OW10686   4.612   3.376   3.057
 2703SOL    HW110687   4.589   3.351   2.963
 2703SOL    HW210688   4.673   3.307   3.096
 2704SOL     OW10689   4.527   3.264   2.786
 2704SOL    HW110690   4.617   3.278   2.744
 2704SOL    HW210691   4.456   3.266   2.715
 2705SOL     OW10692   4.646   2.365   2.761
 2705SOL    HW110693   4.621   2.356   2.665
 2705SOL    HW210694   4.694   2.283   2.792
 2706SOL     OW10695   4.263   1.926   2.374
 2706SOL    HW110696   4.182   1.927   2.432
 2706SOL    HW210697   4.266   2.009   2.319
 2707SOL     OW10698   4.659   2.098   2.342
 2707SOL    HW110699   4.611   2.139   2.264
 2707SOL    HW210700   4.758   2.096   2.323
 2708SOL     OW10701   4.800   2.545   3.326
 2708SOL    HW110702   4.720   2.484   3.329
 2708SOL    HW210703   4.881   2.492   3.302
 2709SOL     OW10704   4.951   3.432   2.655
 2709SOL    HW110705   4.972   3.506   2.590
 2709SOL    HW210706   5.019   3.432   2.728
 2710SOL     OW10707   4.183   3.014   2.603
 2710SOL    HW110708   4.112   2.987   2.668
 2710SOL    HW210709   4.157   2.986   2.510
 2711SOL     OW10710   4.995   3.659   2.453
 2711SOL    HW110711   5.039   3.723   2.389
 2711SOL    HW210712   4.945   3.711   2.523
 2712SOL     OW10713   4.756   2.411   1.878
 2712SOL    HW110714   4.715   2.493   1.839
 2712SOL    HW210715   4.820   2.437   1.951
 2713SOL     OW10716   4.285   2.084   3.009
 2713SOL    HW110717   4.323   2.000   3.046
 2713SOL    HW210718   4.197   2.103   3.053
 2714SOL     OW10719   4.590   2.316   2.504
 2714SOL    HW110720   4.558   2.388   2.442
 2714SOL    HW210721   4.614   2.235   2.451
 2715SOL     OW10722   4.741   1.901   2.615
 2715SOL    HW110723   4.669   1.906   2.546
 2715SOL    HW210724   4.717   1.832   2.684
 2716SOL     OW10725   4.212   3.247   2.036
 2716SOL    HW110726   4.125   3.232   2.083
 2716SOL    HW210727   4.195   3.273   1.941
 2717SOL     OW10728   5.388   3.142   2.519
 2717SOL    HW110729   5.487   3.150   2.533
 2717SOL    HW210730   5.343   3.226   2.550
 2718SOL     OW10731   4.251   2.118   2.190
 2718SOL    HW110732   4.278   2.059   2.115
 2718SOL    HW210733   4.251   2.213   2.159
 2719SOL     OW10734   4.788   3.209   3.202
 2719SOL    HW110735   4.708   3.186   3.257
 2719SOL    HW210736   4.871   3.183   3.251
 2720SOL     OW10737   4.835   3.057   2.962
 2720SOL    HW110738   4.795   3.101   3.043
 2720SOL    HW210739   4.794   3.094   2.879
 2721SOL     OW10740   4.639   1.951   3.264
 2721SOL    HW110741   4.664   1.931   3.169
 2721SOL    HW210742   4.711   2.007   3.306
 2722SOL     OW10743   4.704   2.978   3.581
 2722SOL    HW110744   4.605   2.984   3.591
 2722SOL    HW210745   4.727   2.898   3.525
 2723SOL     OW10746   4.429   2.912   2.230
 2723SOL    HW110747   4.415   2.919   2.329
 2723SOL    HW210748   4.513   2.861   2.212
 2724SOL     OW10749   4.998   2.248   3.124
 2724SOL    HW110750   5.019   2.322   3.188
 2724SOL    HW210751   4.909   2.265   3.081
 2725SOL     OW10752   3.788   3.426   3.193
 2725SOL    HW110753   3.742   3.508   3.159
 2725SOL    HW210754   3.886   3.445   3.202
 2726SOL     OW10755   4.091   2.962   2.363
 2726SOL    HW110756   4.084   3.045   2.307
 2726SOL    HW210757   4.095   2.882   2.303
 2727SOL     OW10758   4.290   2.399   2.727
 2727SOL    HW110759   4.302   2.465   2.653
 2727SOL    HW210760   4.336   2.433   2.810
 2728SOL     OW10761   4.976   3.210   2.250
 2728SOL    HW110762   5.026   3.287   2.290
 2728SOL    HW210763   4.881   3.212   2.282
 2729SOL     OW10764   4.078   3.372   3.191
 2729SOL    HW110765   4.057   3.328   3.104
 2729SOL    HW210766   4.175   3.398   3.194
 2730SOL     OW10767   4.737   1.967   3.632
 2730SOL    HW110768   4.743   2.052   3.580
 2730SOL    HW210769   4.769   1.891   3.575
 2731SOL     OW10770   4.228   1.912   3.602
 2731SOL    HW110771   4.186   1.855   3.532
 2731SOL    HW210772   4.162   1.981   3.634
 2732SOL     OW10773   4.297   2.732   2.891
 2732SOL    HW110774   4.341   2.821   2.882
 2732SOL    HW210775   4.234   2.732   2.968
 2733SOL     OW10776   5.084   2.724   2.907
 2733SOL    HW110777   5.009   2.724   2.841
 2733SOL    HW210778   5.121   2.632   2.916
 2734SOL     OW10779   4.933   2.387   2.137
 2734SOL    HW110780   4.946   2.303   2.191
 2734SOL    HW210781   4.904   2.461   2.197
 2735SOL     OW10782   3.761   3.172   3.144
 2735SOL    HW110783   3.814   3.123   3.212
 2735SOL    HW210784   3.783   3.270   3.149
 2736SOL     OW10785   4.456   2.496   2.926
 2736SOL    HW110786   4.515   2.470   2.850
 2736SOL    HW210787   4.428   2.592   2.915
 2737SOL     OW10788   4.031   1.925   2.480
 2737SOL    HW110789   4.020   2.019   2.513
 2737SOL    HW210790   4.026   1.862   2.557
 2738SOL     OW10791   5.346   2.229   2.236
 2738SOL    HW110792   5.348   2.153   2.300
 2738SOL    HW210793   5.298   2.306   2.276
 2739SOL     OW10794   4.704   3.435   3.562
 2739SOL    HW110795   4.684   3.479   3.474
 2739SOL    HW210796   4.743   3.344   3.546
 2740SOL     OW10797   4.074   2.760   3.666
 2740SOL    HW110798   4.150   2.804   3.714
 2740SOL    HW210799   4.109   2.713   3.584
 2741SOL     OW10800   5.027   2.700   1.904
 2741SOL    HW110801   5.061   2.607   1.919
 2741SOL    HW210802   5.045   2.727   1.809
 2742SOL     OW10803   4.792   3.195   2.711
 2742SOL    HW110804   4.799   3.111   2.656
 2742SOL    HW210805   4.854   3.264   2.675
 2743SOL     OW10806   4.043   2.672   2.811
 2743SOL    HW110807   4.136   2.708   2.816
 2743SOL    HW210808   4.037   2.587   2.863
 2744SOL     OW10809   4.063   2.371   2.868
 2744SOL    HW110810   4.011   2.288   2.851
 2744SOL    HW210811   4.140   2.376   2.804
 2745SOL     OW10812   4.862   2.242   3.540
 2745SOL    HW110813   4.817   2.305   3.604
 2745SOL    HW210814   4.955   2.273   3.523
 2746SOL     OW10815   4.884   2.069   3.339
 2746SOL    HW110816   4.884   2.133   3.416
 2746SOL    HW210817   4.912   2.117   3.256
 2747SOL     OW10818   3.732   3.188   2.062
 2747SOL    HW110819   3.639   3.209   2.031
 2747SOL    HW210820   3.742   3.089   2.075
 2748SOL     OW10821   4.726   2.658   3.100
 2748SOL    HW110822   4.767   2.626   3.186
 2748SOL    HW210823   4.630   2.631   3.097
 2749SOL     OW10824   3.764   2.406   2.976
 2749SOL    HW110825   3.849   2.373   2.935
 2749SOL    HW210826   3.777   2.421   3.074
 2750SOL     OW10827   3.976   3.426   3.606
 2750SOL    HW110828   3.946   3.483   3.682
 2750SOL    HW210829   3.969   3.329   3.632
 2751SOL     OW10830   4.395   2.326   3.131
 2751SOL    HW110831   4.361   2.237   3.101
 2751SOL    HW210832   4.421   2.380   3.051
 2752SOL     OW10833   4.654   3.540   3.327
 2752SOL    HW110834   4.630   3.522   3.232
 2752SOL    HW210835   4.684   3.634   3.337
 2753SOL     OW10836   4.197   2.362   2.053
 2753SOL    HW110837   4.258   2.442   2.057
 2753SOL    HW210838   4.102   2.393   2.060
 2754SOL     OW10839   3.883   2.999   3.328
 2754SOL    HW110840   3.905   2.938   3.404
 2754SOL    HW210841   3.893   2.950   3.242
 2755SOL     OW10842   5.071   2.921   3.096
 2755SOL    HW110843   5.095   2.858   3.022
 2755SOL    HW210844   4.981   2.961   3.078
 2756SOL     OW10845   3.807   3.120   2.884
 2756SOL    HW110846   3.802   3.119   2.984
 2756SOL    HW210847   3.724   3.079   2.846
 2757SOL     OW10848   4.412   3.524   3.578
 2757SOL    HW110849   4.356   3.605   3.587
 2757SOL    HW210850   4.464   3.528   3.492
 2758SOL     OW10851   5.112   3.435   2.339
 2758SOL    HW110852   5.179   3.447   2.265
 2758SOL    HW210853   5.072   3.524   2.362
 2759SOL     OW10854   3.854   3.656   3.713
 2759SOL    HW110855   3.813   3.582   3.766
 2759SOL    HW210856   3.918   3.707   3.771
 2760SOL     OW10857   4.554   3.135   3.284
 2760SOL    HW110858   4.549   3.168   3.379
 2760SOL    HW210859   4.468   3.154   3.238
 2761SOL     OW10860   4.396   3.478   2.016
 2761SOL    HW110861   4.405   3.488   1.917
 2761SOL    HW210862   4.356   3.389   2.037
 2762SOL     OW10863   3.987   2.188   2.582
 2762SOL    HW110864   3.908   2.239   2.548
 2762SOL    HW210865   3.978   2.173   2.680
 2763SOL     OW10866   4.918   3.474   1.893
 2763SOL    HW110867   4.924   3.381   1.930
 2763SOL    HW210868   4.859   3.474   1.813
 2764SOL     OW10869   4.546   2.864   3.234
 2764SOL    HW110870   4.586   2.863   3.142
 2764SOL    HW210871   4.556   2.956   3.274
 2765SOL     OW10872   4.096   3.150   3.352
 2765SOL    HW110873   4.083   3.243   3.318
 2765SOL    HW210874   4.012   3.098   3.339
 2766SOL     OW10875   4.738   2.098   2.833
 2766SOL    HW110876   4.730   2.062   2.740
 2766SOL    HW210877   4.736   2.022   2.898
 2767SOL     OW10878   4.314   3.349   2.353
 2767SOL    HW110879   4.356   3.291   2.283
 2767SOL    HW210880   4.270   3.428   2.309
 2768SOL     OW10881   3.829   2.875   3.588
 2768SOL    HW110882   3.752   2.842   3.642
 2768SOL    HW210883   3.914   2.845   3.630
 2769SOL     OW10884   4.396   2.065   3.351
 2769SOL    HW110885   4.486   2.049   3.311
 2769SOL    HW210886   4.404   2.070   3.450
 2770SOL     OW10887   3.799   2.207   1.895
 2770SOL    HW110888   3.707   2.179   1.866
 2770SOL    HW210889   3.830   2.284   1.839
 2771SOL     OW10890   5.164   2.718   3.260
 2771SOL    HW110891   5.107   2.770   3.197
 2771SOL    HW210892   5.260   2.730   3.236
 2772SOL     OW10893   3.796   2.028   2.180
 2772SOL    HW110894   3.779   2.111   2.126
 2772SOL    HW210895   3.886   1.991   2.158
 2773SOL     OW10896   4.337   2.704   3.293
 2773SOL    HW110897   4.393   2.785   3.276
 2773SOL    HW210898   4.396   2.624   3.296
 2774SOL     OW10899   4.440   2.427   3.570
 2774SOL    HW110900   4.459   2.492   3.644
 2774SOL    HW210901   4.500   2.347   3.579
 2775SOL     OW10902   4.114   3.603   3.422
 2775SOL    HW110903   4.023   3.644   3.420
 2775SOL    HW210904   4.107   3.509   3.454
 2776SOL     OW10905   4.949   2.187   2.311
 2776SOL    HW110906   5.014   2.113   2.300
 2776SOL    HW210907   4.969   2.237   2.395
 2777SOL     OW10908   4.318   2.607   2.514
 2777SOL    HW110909   4.368   2.692   2.495
 2777SOL    HW210910   4.230   2.609   2.466
 2778SOL     OW10911   4.583   3.236   1.878
 2778SOL    HW110912   4.537   3.251   1.966
 2778SOL    HW210913   4.627   3.321   1.848
 2779SOL     OW10914   3.945   3.176   3.706
 2779SOL    HW110915   3.880   3.103   3.685
 2779SOL    HW210916   3.949   3.190   3.804
 2780SOL     OW10917   3.803   3.102   2.515
 2780SOL    HW110918   3.802   3.055   2.603
 2780SOL    HW210919   3.885   3.074   2.464
 2781SOL     OW10920   4.396   3.253   3.486
 2781SOL    HW110921   4.318   3.203   3.524
 2781SOL    HW210922   4.393   3.348   3.517
 2782SOL     OW10923   4.152   2.286   2.382
 2782SOL    HW110924   4.182   2.214   2.320
 2782SOL    HW210925   4.113   2.246   2.465
 2783SOL     OW10926   4.536   3.448   2.549
 2783SOL    HW110927   4.568   3.458   2.455
 2783SOL    HW210928   4.457   3.386   2.551
 2784SOL     OW10929   4.725   1.896   3.016
 2784SOL    HW110930   4.662   1.824   2.985
 2784SOL    HW210931   4.818   1.860   3.016
 2785SOL     OW10932   4.494   3.192   2.163
 2785SOL    HW110933   4.448   3.105   2.180
 2785SOL    HW210934   4.585   3.189   2.204
 2786SOL     OW10935   4.342   3.429   3.146
 2786SOL    HW110936   4.337   3.511   3.203
 2786SOL    HW210937   4.431   3.426   3.101
 2787SOL     OW10938   3.763   2.939   2.162
 2787SOL    HW110939   3.862   2.928   2.153
 2787SOL    HW210940   3.723   2.853   2.194
 2788SOL     OW10941   4.599   3.508   2.199
 2788SOL    HW110942   4.522   3.473   2.145
 2788SOL    HW210943   4.567   3.579   2.261
 2789SOL     OW10944   3.949   2.137   4.720
 2789SOL    HW110945   3.984   2.120   4.812
 2789SOL    HW210946   3.861   2.092   4.708
 2790SOL     OW10947   3.743   2.230   4.371
 2790SOL    HW110948   3.661   2.273   4.410
 2790SOL    HW210949   3.715   2.157   4.308
 2791SOL     OW10950   4.293   3.137   4.889
 2791SOL    HW110951   4.200   3.130   4.852
 2791SOL    HW210952   4.304   3.226   4.933
 2792SOL     OW10953   4.859   2.565   4.441
 2792SOL    HW110954   4.916   2.643   4.416
 2792SOL    HW210955   4.799   2.591   4.517
 2793SOL     OW10956   4.492   3.006   4.747
 2793SOL    HW110957   4.414   3.023   4.807
 2793SOL    HW210958   4.526   3.093   4.711
 2794SOL     OW10959   4.409   2.874   4.389
 2794SOL    HW110960   4.478   2.858   4.459
 2794SOL    HW210961   4.336   2.931   4.427
 2795SOL     OW10962   4.059   3.297   4.785
 2795SOL    HW110963   3.981   3.266   4.732
 2795SOL    HW210964   4.117   3.355   4.728
 2796SOL     OW10965   3.964   2.953   4.610
 2796SOL    HW110966   3.978   2.869   4.662
 2796SOL    HW210967   3.909   3.017   4.665
 2797SOL     OW10968   4.330   2.826   3.847
 2797SOL    HW110969   4.337   2.910   3.793
 2797SOL    HW210970   4.376   2.839   3.935
 2798SOL     OW10971   3.846   2.505   4.287
 2798SOL    HW110972   3.801   2.417   4.304
 2798SOL    HW210973   3.845   2.559   4.371
 2799SOL     OW10974   3.751   3.458   3.841
 2799SOL    HW110975   3.732   3.362   3.862
 2799SOL    HW210976   3.718   3.516   3.916
 2800SOL     OW10977   4.337   3.227   4.450
 2800SOL    HW110978   4.288   3.140   4.459
 2800SOL    HW210979   4.314   3.270   4.363
 2801SOL     OW10980   3.921   2.838   4.988
 2801SOL    HW110981   4.010   2.793   4.974
 2801SOL    HW210982   3.848   2.773   4.969
 2802SOL     OW10983   5.005   2.207   4.668
 2802SOL    HW110984   4.919   2.157   4.655
 2802SOL    HW210985   5.067   2.153   4.724
 2803SOL     OW10986   4.715   2.272   4.966
 2803SOL    HW110987   4.638   2.306   5.020
 2803SOL    HW210988   4.681   2.221   4.887
 2804SOL     OW10989   4.765   2.563   4.153
 2804SOL    HW110990   4.791   2.559   4.249
 2804SOL    HW210991   4.680   2.512   4.139
 2805SOL     OW10992   3.800   2.673   4.513
 2805SOL    HW110993   3.899   2.661   4.522
 2805SOL    HW210994   3.776   2.768   4.534
 2806SOL     OW10995   4.589   2.210   3.919
 2806SOL    HW110996   4.648   2.273   3.870
 2806SOL    HW210997   4.608   2.116   3.890
 2807SOL     OW10998   4.274   2.058   4.609
 2807SOL    HW110999   4.269   2.053   4.709
 2807SOL    HW211000   4.276   2.154   4.580
 2808SOL     OW11001   4.732   3.318   4.201
 2808SOL    HW111002   4.686   3.390   4.149
 2808SOL    HW211003   4.728   3.338   4.299
 2809SOL     OW11004   4.045   2.805   3.966
 2809SOL    HW111005   4.127   2.844   3.924
 2809SOL    HW211006   4.018   2.723   3.917
 2810SOL     OW11007   4.835   3.638   3.961
 2810SOL    HW111008   4.775   3.576   4.011
 2810SOL    HW211009   4.866   3.594   3.876
 2811SOL     OW11010   3.973   3.647   4.965
 2811SOL    HW111011   4.030   3.582   5.015
 2811SOL    HW211012   3.957   3.614   4.872
 2812SOL     OW11013   4.664   3.560   4.628
 2812SOL    HW111014   4.744   3.503   4.649
 2812SOL    HW211015   4.615   3.520   4.551
 2813SOL     OW11016   4.338   1.984   3.841
 2813SOL    HW111017   4.436   1.962   3.848
 2813SOL    HW211018   4.307   1.967   3.748
 2814SOL     OW11019   4.527   3.264   4.648
 2814SOL    HW111020   4.617   3.278   4.606
 2814SOL    HW211021   4.456   3.266   4.577
 2815SOL     OW11022   4.646   2.365   4.623
 2815SOL    HW111023   4.621   2.356   4.527
 2815SOL    HW211024   4.694   2.283   4.654
 2816SOL     OW11025   4.021   1.897   3.895
 2816SOL    HW111026   4.070   1.981   3.874
 2816SOL    HW211027   4.083   1.832   3.940
 2817SOL     OW11028   4.951   3.432   4.517
 2817SOL    HW111029   4.972   3.506   4.452
 2817SOL    HW211030   5.019   3.432   4.590
 2818SOL     OW11031   4.183   3.014   4.465
 2818SOL    HW111032   4.112   2.987   4.530
 2818SOL    HW211033   4.157   2.986   4.372
 2819SOL     OW11034   4.995   3.659   4.315
 2819SOL    HW111035   5.039   3.723   4.251
 2819SOL    HW211036   4.945   3.711   4.385
 2820SOL     OW11037   4.756   2.411   3.740
 2820SOL    HW111038   4.715   2.493   3.701
 2820SOL    HW211039   4.820   2.437   3.813
 2821SOL     OW11040   4.285   2.084   4.871
 2821SOL    HW111041   4.323   2.000   4.908
 2821SOL    HW211042   4.197   2.103   4.915
 2822SOL     OW11043   4.590   2.316   4.366
 2822SOL    HW111044   4.558   2.388   4.304
 2822SOL    HW211045   4.614   2.235   4.313
 2823SOL     OW11046   4.212   3.247   3.898
 2823SOL    HW111047   4.125   3.232   3.945
 2823SOL    HW211048   4.195   3.273   3.803
 2824SOL     OW11049   5.388   3.142   4.381
 2824SOL    HW111050   5.487   3.150   4.395
 2824SOL    HW211051   5.343   3.226   4.412
 2825SOL     OW11052   4.835   3.057   4.824
 2825SOL    HW111053   4.795   3.101   4.905
 2825SOL    HW211054   4.794   3.094   4.741
 2826SOL     OW11055   4.429   2.912   4.092
 2826SOL    HW111056   4.415   2.919   4.191
 2826SOL    HW211057   4.513   2.861   4.074
 2827SOL     OW11058   4.134   2.675   4.975
 2827SOL    HW111059   4.220   2.687   5.025
 2827SOL    HW211060   4.092   2.588   5.002
 2828SOL     OW11061   4.091   2.962   4.225
 2828SOL    HW111062   4.084   3.045   4.169
 2828SOL    HW211063   4.095   2.882   4.165
 2829SOL     OW11064   4.290   2.399   4.589
 2829SOL    HW111065   4.302   2.465   4.515
 2829SOL    HW211066   4.336   2.433   4.672
 2830SOL     OW11067   4.976   3.210   4.112
 2830SOL    HW111068   5.026   3.287   4.152
 2830SOL    HW211069   4.881   3.212   4.144
 2831SOL     OW11070   4.078   3.372   5.053
 2831SOL    HW111071   4.057   3.328   4.966
 2831SOL    HW211072   4.175   3.398   5.056
 2832SOL     OW11073   4.297   2.732   4.753
 2832SOL    HW111074   4.341   2.821   4.744
 2832SOL    HW211075   4.234   2.732   4.830
 2833SOL     OW11076   5.084   2.724   4.769
 2833SOL    HW111077   5.009   2.724   4.703
 2833SOL    HW211078   5.121   2.632   4.778
 2834SOL     OW11079   4.933   2.387   3.999
 2834SOL    HW111080   4.946   2.303   4.053
 2834SOL    HW211081   4.904   2.461   4.059
 2835SOL     OW11082   4.031   2.075   4.955
 2835SOL    HW111083   4.008   2.112   5.045
 2835SOL    HW211084   4.001   1.980   4.949
 2836SOL     OW11085   3.761   3.172   5.006
 2836SOL    HW111086   3.814   3.123   5.074
 2836SOL    HW211087   3.783   3.270   5.011
 2837SOL     OW11088   4.456   2.496   4.788
 2837SOL    HW111089   4.515   2.470   4.712
 2837SOL    HW211090   4.428   2.592   4.777
 2838SOL     OW11091   5.346   2.229   4.098
 2838SOL    HW111092   5.348   2.153   4.162
 2838SOL    HW211093   5.298   2.306   4.138
 2839SOL     OW11094   4.747   2.628   4.690
 2839SOL    HW111095   4.762   2.649   4.786
 2839SOL    HW211096   4.717   2.533   4.681
 2840SOL     OW11097   5.027   2.700   3.766
 2840SOL    HW111098   5.061   2.607   3.781
 2840SOL    HW211099   5.045   2.727   3.671
 2841SOL     OW11100   4.792   3.195   4.573
 2841SOL    HW111101   4.799   3.111   4.518
 2841SOL    HW211102   4.854   3.264   4.537
 2842SOL     OW11103   4.043   2.672   4.673
 2842SOL    HW111104   4.136   2.708   4.678
 2842SOL    HW211105   4.037   2.587   4.725
 2843SOL     OW11106   4.063   2.371   4.730
 2843SOL    HW111107   4.011   2.288   4.713
 2843SOL    HW211108   4.140   2.376   4.666
 2844SOL     OW11109   3.732   3.188   3.924
 2844SOL    HW111110   3.639   3.209   3.893
 2844SOL    HW211111   3.742   3.089   3.937
 2845SOL     OW11112   4.726   2.658   4.962
 2845SOL    HW111113   4.767   2.626   5.048
 2845SOL    HW211114   4.630   2.631   4.959
 2846SOL     OW11115   3.764   2.406   4.838
 2846SOL    HW111116   3.849   2.373   4.797
 2846SOL    HW211117   3.777   2.421   4.936
 2847SOL     OW11118   4.395   2.326   4.993
 2847SOL    HW111119   4.361   2.237   4.963
 2847SOL    HW211120   4.421   2.380   4.913
 2848SOL     OW11121   4.654   3.540   5.189
 2848SOL    HW111122   4.630   3.522   5.094
 2848SOL    HW211123   4.684   3.634   5.199
 2849SOL     OW11124   4.976   3.593   4.852
 2849SOL    HW111125   5.060   3.598   4.798
 2849SOL    HW211126   4.953   3.497   4.870
 2850SOL     OW11127   3.807   3.120   4.746
 2850SOL    HW111128   3.802   3.119   4.846
 2850SOL    HW211129   3.724   3.079   4.708
 2851SOL     OW11130   5.004   2.789   4.396
 2851SOL    HW111131   5.064   2.708   4.398
 2851SOL    HW211132   5.044   2.858   4.336
 2852SOL     OW11133   4.396   3.478   3.878
 2852SOL    HW111134   4.405   3.488   3.779
 2852SOL    HW211135   4.356   3.389   3.899
 2853SOL     OW11136   3.987   2.188   4.444
 2853SOL    HW111137   3.908   2.239   4.410
 2853SOL    HW211138   3.978   2.173   4.542
 2854SOL     OW11139   4.918   3.474   3.755
 2854SOL    HW111140   4.924   3.381   3.792
 2854SOL    HW211141   4.859   3.474   3.675
 2855SOL     OW11142   4.546   2.864   5.096
 2855SOL    HW111143   4.586   2.863   5.004
 2855SOL    HW211144   4.556   2.956   5.136
 2856SOL     OW11145   4.640   2.772   4.015
 2856SOL    HW111146   4.703   2.810   3.947
 2856SOL    HW211147   4.680   2.689   4.054
 2857SOL     OW11148   4.763   2.960   4.420
 2857SOL    HW111149   4.693   2.913   4.474
 2857SOL    HW211150   4.822   2.892   4.377
 2858SOL     OW11151   4.314   3.349   4.215
 2858SOL    HW111152   4.356   3.291   4.145
 2858SOL    HW211153   4.270   3.428   4.171
 2859SOL     OW11154   3.979   3.210   4.014
 2859SOL    HW111155   3.883   3.211   3.987
 2859SOL    HW211156   3.991   3.263   4.098
 2860SOL     OW11157   3.796   2.028   4.042
 2860SOL    HW111158   3.779   2.111   3.988
 2860SOL    HW211159   3.886   1.991   4.020
 2861SOL     OW11160   4.949   2.187   4.173
 2861SOL    HW111161   5.014   2.113   4.162
 2861SOL    HW211162   4.969   2.237   4.257
 2862SOL     OW11163   4.318   2.607   4.376
 2862SOL    HW111164   4.368   2.692   4.357
 2862SOL    HW211165   4.230   2.609   4.328
 2863SOL     OW11166   4.583   3.236   3.740
 2863SOL    HW111167   4.537   3.251   3.828
 2863SOL    HW211168   4.627   3.321   3.710
 2864SOL     OW11169   4.583   2.818   4.585
 2864SOL    HW111170   4.637   2.749   4.633
 2864SOL    HW211171   4.551   2.887   4.651
 2865SOL     OW11172   4.807   2.846   3.811
 2865SOL    HW111173   4.784   2.899   3.729
 2865SOL    HW211174   4.888   2.790   3.792
 2866SOL     OW11175   4.536   3.448   4.411
 2866SOL    HW111176   4.568   3.458   4.317
 2866SOL    HW211177   4.457   3.386   4.413
 2867SOL     OW11178   4.494   3.192   4.025
 2867SOL    HW111179   4.448   3.105   4.042
 2867SOL    HW211180   4.585   3.189   4.066
 2868SOL     OW11181   5.076   1.914   3.892
 2868SOL    HW111182   5.111   1.873   3.808
 2868SOL    HW211183   4.986   1.876   3.912
 2869SOL     OW11184   3.763   2.939   4.024
 2869SOL    HW111185   3.862   2.928   4.015
 2869SOL    HW211186   3.723   2.853   4.056
 2870SOL     OW11187   4.599   3.508   4.061
 2870SOL    HW111188   4.522   3.473   4.007
 2870SOL    HW211189   4.567   3.579   4.123
 2871SOL     OW11190   3.954   4.352   0.113
 2871SOL    HW111191   3.861   4.350   0.150
 2871SOL    HW211192   3.955   4.313   0.021
 2872SOL     OW11193   3.949   3.999   0.996
 2872SOL    HW111194   3.984   3.982   1.088
 2872SOL    HW211195   3.861   3.954   0.984
 2873SOL     OW11196   3.743   4.092   0.647
 2873SOL    HW111197   3.661   4.135   0.686
 2873SOL    HW211198   3.715   4.019   0.584
 2874SOL     OW11199   4.293   4.999   1.165
 2874SOL    HW111200   4.200   4.992   1.128
 2874SOL    HW211201   4.304   5.088   1.209
 2875SOL     OW11202   4.859   4.427   0.717
 2875SOL    HW111203   4.916   4.505   0.692
 2875SOL    HW211204   4.799   4.453   0.793
 2876SOL     OW11205   4.492   4.868   1.023
 2876SOL    HW111206   4.414   4.885   1.083
 2876SOL    HW211207   4.526   4.955   0.987
 2877SOL     OW11208   4.574   4.522   1.823
 2877SOL    HW111209   4.570   4.598   1.888
 2877SOL    HW211210   4.596   4.558   1.732
 2878SOL     OW11211   4.409   4.736   0.665
 2878SOL    HW111212   4.478   4.720   0.735
 2878SOL    HW211213   4.336   4.793   0.703
 2879SOL     OW11214   4.410   4.885   1.803
 2879SOL    HW111215   4.470   4.964   1.817
 2879SOL    HW211216   4.324   4.916   1.762
 2880SOL     OW11217   4.059   5.159   1.061
 2880SOL    HW111218   3.981   5.128   1.008
 2880SOL    HW211219   4.117   5.217   1.004
 2881SOL     OW11220   4.162   4.116   1.499
 2881SOL    HW111221   4.244   4.060   1.508
 2881SOL    HW211222   4.081   4.058   1.503
 2882SOL     OW11223   3.964   4.815   0.886
 2882SOL    HW111224   3.978   4.731   0.938
 2882SOL    HW211225   3.909   4.879   0.941
 2883SOL     OW11226   4.330   4.688   0.123
 2883SOL    HW111227   4.337   4.772   0.069
 2883SOL    HW211228   4.376   4.701   0.211
 2884SOL     OW11229   3.846   4.367   0.563
 2884SOL    HW111230   3.801   4.279   0.580
 2884SOL    HW211231   3.845   4.421   0.647
 2885SOL     OW11232   5.017   4.952   1.423
 2885SOL    HW111233   5.054   4.879   1.365
 2885SOL    HW211234   5.069   4.957   1.508
 2886SOL     OW11235   4.533   3.728   0.502
 2886SOL    HW111236   4.573   3.819   0.493
 2886SOL    HW211237   4.433   3.736   0.508
 2887SOL     OW11238   3.921   4.700   1.264
 2887SOL    HW111239   4.010   4.655   1.250
 2887SOL    HW211240   3.848   4.635   1.245
 2888SOL     OW11241   4.041   3.975   1.801
 2888SOL    HW111242   4.112   4.046   1.807
 2888SOL    HW211243   3.953   4.014   1.829
 2889SOL     OW11244   4.322   4.453   0.270
 2889SOL    HW111245   4.346   4.522   0.202
 2889SOL    HW211246   4.244   4.486   0.324
 2890SOL     OW11247   5.005   4.069   0.944
 2890SOL    HW111248   4.919   4.019   0.931
 2890SOL    HW211249   5.067   4.015   1.000
 2891SOL     OW11250   4.697   4.614   1.572
 2891SOL    HW111251   4.743   4.530   1.543
 2891SOL    HW211252   4.641   4.648   1.497
 2892SOL     OW11253   4.715   4.134   1.242
 2892SOL    HW111254   4.638   4.168   1.296
 2892SOL    HW211255   4.681   4.083   1.163
 2893SOL     OW11256   4.765   4.425   0.429
 2893SOL    HW111257   4.791   4.421   0.525
 2893SOL    HW211258   4.680   4.374   0.415
 2894SOL     OW11259   3.800   4.535   0.789
 2894SOL    HW111260   3.899   4.523   0.798
 2894SOL    HW211261   3.776   4.630   0.810
 2895SOL     OW11262   4.589   4.072   0.195
 2895SOL    HW111263   4.648   4.135   0.146
 2895SOL    HW211264   4.608   3.978   0.166
 2896SOL     OW11265   4.274   3.920   0.885
 2896SOL    HW111266   4.269   3.915   0.985
 2896SOL    HW211267   4.276   4.016   0.856
 2897SOL     OW11268   4.045   4.667   0.242
 2897SOL    HW111269   4.127   4.706   0.200
 2897SOL    HW211270   4.018   4.585   0.193
 2898SOL     OW11271   3.926   4.009   1.498
 2898SOL    HW111272   3.846   4.069   1.485
 2898SOL    HW211273   3.916   3.960   1.584
 2899SOL     OW11274   4.106   4.424   0.480
 2899SOL    HW111275   4.151   4.334   0.477
 2899SOL    HW211276   4.012   4.413   0.513
 2900SOL     OW11277   4.505   3.988   1.749
 2900SOL    HW111278   4.572   3.927   1.792
 2900SOL    HW211279   4.432   4.007   1.814
 2901SOL     OW11280   4.527   5.126   0.924
 2901SOL    HW111281   4.617   5.140   0.882
 2901SOL    HW211282   4.456   5.128   0.853
 2902SOL     OW11283   4.646   4.227   0.899
 2902SOL    HW111284   4.621   4.218   0.803
 2902SOL    HW211285   4.694   4.145   0.930
 2903SOL     OW11286   4.263   3.788   0.512
 2903SOL    HW111287   4.182   3.789   0.570
 2903SOL    HW211288   4.266   3.871   0.457
 2904SOL     OW11289   4.659   3.960   0.480
 2904SOL    HW111290   4.611   4.001   0.402
 2904SOL    HW211291   4.758   3.958   0.461
 2905SOL     OW11292   4.951   5.294   0.793
 2905SOL    HW111293   4.972   5.368   0.728
 2905SOL    HW211294   5.019   5.294   0.866
 2906SOL     OW11295   4.183   4.876   0.741
 2906SOL    HW111296   4.112   4.849   0.806
 2906SOL    HW211297   4.157   4.848   0.648
 2907SOL     OW11298   4.756   4.273   0.016
 2907SOL    HW111299   4.715   4.355  -0.023
 2907SOL    HW211300   4.820   4.299   0.089
 2908SOL     OW11301   4.285   3.946   1.147
 2908SOL    HW111302   4.323   3.862   1.184
 2908SOL    HW211303   4.197   3.965   1.191
 2909SOL     OW11304   4.590   4.178   0.642
 2909SOL    HW111305   4.558   4.250   0.580
 2909SOL    HW211306   4.614   4.097   0.589
 2910SOL     OW11307   4.741   3.763   0.753
 2910SOL    HW111308   4.669   3.768   0.684
 2910SOL    HW211309   4.717   3.694   0.822
 2911SOL     OW11310   4.251   3.980   0.328
 2911SOL    HW111311   4.278   3.921   0.253
 2911SOL    HW211312   4.251   4.075   0.297
 2912SOL     OW11313   4.639   3.813   1.402
 2912SOL    HW111314   4.664   3.793   1.307
 2912SOL    HW211315   4.711   3.869   1.444
 2913SOL     OW11316   4.704   4.840   1.719
 2913SOL    HW111317   4.605   4.846   1.729
 2913SOL    HW211318   4.727   4.760   1.663
 2914SOL     OW11319   4.429   4.774   0.368
 2914SOL    HW111320   4.415   4.781   0.467
 2914SOL    HW211321   4.513   4.723   0.350
 2915SOL     OW11322   4.998   4.110   1.262
 2915SOL    HW111323   5.019   4.184   1.326
 2915SOL    HW211324   4.909   4.127   1.219
 2916SOL     OW11325   4.091   4.824   0.501
 2916SOL    HW111326   4.084   4.907   0.445
 2916SOL    HW211327   4.095   4.744   0.441
 2917SOL     OW11328   4.290   4.261   0.865
 2917SOL    HW111329   4.302   4.327   0.791
 2917SOL    HW211330   4.336   4.295   0.948
 2918SOL     OW11331   4.737   3.829   1.770
 2918SOL    HW111332   4.743   3.914   1.718
 2918SOL    HW211333   4.769   3.753   1.713
 2919SOL     OW11334   4.228   3.774   1.740
 2919SOL    HW111335   4.186   3.717   1.670
 2919SOL    HW211336   4.162   3.843   1.772
 2920SOL     OW11337   4.297   4.594   1.029
 2920SOL    HW111338   4.341   4.683   1.020
 2920SOL    HW211339   4.234   4.594   1.106
 2921SOL     OW11340   4.933   4.249   0.275
 2921SOL    HW111341   4.946   4.165   0.329
 2921SOL    HW211342   4.904   4.323   0.335
 2922SOL     OW11343   4.031   3.937   1.231
 2922SOL    HW111344   4.008   3.974   1.321
 2922SOL    HW211345   4.001   3.842   1.225
 2923SOL     OW11346   4.456   4.358   1.064
 2923SOL    HW111347   4.515   4.332   0.988
 2923SOL    HW211348   4.428   4.454   1.053
 2924SOL     OW11349   4.031   3.787   0.618
 2924SOL    HW111350   4.020   3.881   0.651
 2924SOL    HW211351   4.026   3.724   0.695
 2925SOL     OW11352   5.346   4.091   0.374
 2925SOL    HW111353   5.348   4.015   0.438
 2925SOL    HW211354   5.298   4.168   0.414
 2926SOL     OW11355   4.747   4.490   0.966
 2926SOL    HW111356   4.762   4.511   1.062
 2926SOL    HW211357   4.717   4.395   0.957
 2927SOL     OW11358   5.027   4.562   0.042
 2927SOL    HW111359   5.061   4.469   0.057
 2927SOL    HW211360   5.045   4.589  -0.053
 2928SOL     OW11361   4.043   4.534   0.949
 2928SOL    HW111362   4.136   4.570   0.954
 2928SOL    HW211363   4.037   4.449   1.001
 2929SOL     OW11364   4.063   4.233   1.006
 2929SOL    HW111365   4.011   4.150   0.989
 2929SOL    HW211366   4.140   4.238   0.942
 2930SOL     OW11367   4.862   4.104   1.678
 2930SOL    HW111368   4.817   4.167   1.742
 2930SOL    HW211369   4.955   4.135   1.661
 2931SOL     OW11370   4.884   3.931   1.477
 2931SOL    HW111371   4.884   3.995   1.554
 2931SOL    HW211372   4.912   3.979   1.394
 2932SOL     OW11373   4.726   4.520   1.238
 2932SOL    HW111374   4.767   4.488   1.324
 2932SOL    HW211375   4.630   4.493   1.235
 2933SOL     OW11376   4.539   4.296   0.325
 2933SOL    HW111377   4.546   4.207   0.279
 2933SOL    HW211378   4.445   4.330   0.317
 2934SOL     OW11379   4.197   4.224   0.191
 2934SOL    HW111380   4.258   4.304   0.195
 2934SOL    HW211381   4.102   4.255   0.198
 2935SOL     OW11382   3.883   4.861   1.466
 2935SOL    HW111383   3.905   4.800   1.542
 2935SOL    HW211384   3.893   4.812   1.380
 2936SOL     OW11385   5.071   4.783   1.234
 2936SOL    HW111386   5.095   4.720   1.160
 2936SOL    HW211387   4.981   4.823   1.216
 2937SOL     OW11388   4.627   3.810   0.133
 2937SOL    HW111389   4.678   3.811   0.047
 2937SOL    HW211390   4.683   3.768   0.204
 2938SOL     OW11391   5.004   4.651   0.672
 2938SOL    HW111392   5.064   4.570   0.674
 2938SOL    HW211393   5.044   4.720   0.612
 2939SOL     OW11394   4.554   4.997   1.422
 2939SOL    HW111395   4.549   5.030   1.517
 2939SOL    HW211396   4.468   5.016   1.376
 2940SOL     OW11397   3.987   4.050   0.720
 2940SOL    HW111398   3.908   4.101   0.686
 2940SOL    HW211399   3.978   4.035   0.818
 2941SOL     OW11400   4.546   4.726   1.372
 2941SOL    HW111401   4.586   4.725   1.280
 2941SOL    HW211402   4.556   4.818   1.412
 2942SOL     OW11403   4.640   4.634   0.291
 2942SOL    HW111404   4.703   4.672   0.223
 2942SOL    HW211405   4.680   4.551   0.330
 2943SOL     OW11406   4.096   5.012   1.490
 2943SOL    HW111407   4.083   5.105   1.456
 2943SOL    HW211408   4.012   4.960   1.477
 2944SOL     OW11409   4.763   4.822   0.696
 2944SOL    HW111410   4.693   4.775   0.750
 2944SOL    HW211411   4.822   4.754   0.653
 2945SOL     OW11412   4.738   3.960   0.971
 2945SOL    HW111413   4.730   3.924   0.878
 2945SOL    HW211414   4.736   3.884   1.036
 2946SOL     OW11415   4.396   3.927   1.489
 2946SOL    HW111416   4.486   3.911   1.449
 2946SOL    HW211417   4.404   3.932   1.588
 2947SOL     OW11418   3.796   3.890   0.318
 2947SOL    HW111419   3.779   3.973   0.264
 2947SOL    HW211420   3.886   3.853   0.296
 2948SOL     OW11421   4.440   4.289   1.708
 2948SOL    HW111422   4.459   4.354   1.782
 2948SOL    HW211423   4.500   4.209   1.717
 2949SOL     OW11424   5.174   4.944   1.633
 2949SOL    HW111425   5.165   4.934   1.732
 2949SOL    HW211426   5.270   4.937   1.607
 2950SOL     OW11427   4.949   4.049   0.449
 2950SOL    HW111428   5.014   3.975   0.438
 2950SOL    HW211429   4.969   4.099   0.533
 2951SOL     OW11430   4.318   4.469   0.652
 2951SOL    HW111431   4.368   4.554   0.633
 2951SOL    HW211432   4.230   4.471   0.604
 2952SOL     OW11433   4.583   4.680   0.861
 2952SOL    HW111434   4.637   4.611   0.909
 2952SOL    HW211435   4.551   4.749   0.927
 2953SOL     OW11436   4.152   4.148   0.520
 2953SOL    HW111437   4.182   4.076   0.458
 2953SOL    HW211438   4.113   4.108   0.603
 2954SOL     OW11439   4.725   3.758   1.154
 2954SOL    HW111440   4.662   3.686   1.123
 2954SOL    HW211441   4.818   3.722   1.154
 2955SOL     OW11442   4.494   5.054   0.301
 2955SOL    HW111443   4.448   4.967   0.318
 2955SOL    HW211444   4.585   5.051   0.342
 2956SOL     OW11445   3.954   4.352   1.975
 2956SOL    HW111446   3.861   4.350   2.012
 2956SOL    HW211447   3.955   4.313   1.883
 2957SOL     OW11448   3.949   3.999   2.858
 2957SOL    HW111449   3.984   3.982   2.950
 2957SOL    HW211450   3.861   3.954   2.846
 2958SOL     OW11451   4.293   4.999   3.027
 2958SOL    HW111452   4.200   4.992   2.990
 2958SOL    HW211453   4.304   5.088   3.071
 2959SOL     OW11454   4.859   4.427   2.579
 2959SOL    HW111455   4.916   4.505   2.554
 2959SOL    HW211456   4.799   4.453   2.655
 2960SOL     OW11457   4.492   4.868   2.885
 2960SOL    HW111458   4.414   4.885   2.945
 2960SOL    HW211459   4.526   4.955   2.849
 2961SOL     OW11460   4.574   4.522   3.685
 2961SOL    HW111461   4.570   4.598   3.750
 2961SOL    HW211462   4.596   4.558   3.594
 2962SOL     OW11463   4.409   4.736   2.527
 2962SOL    HW111464   4.478   4.720   2.597
 2962SOL    HW211465   4.336   4.793   2.565
 2963SOL     OW11466   4.059   5.159   2.923
 2963SOL    HW111467   3.981   5.128   2.870
 2963SOL    HW211468   4.117   5.217   2.866
 2964SOL     OW11469   4.162   4.116   3.361
 2964SOL    HW111470   4.244   4.060   3.370
 2964SOL    HW211471   4.081   4.058   3.365
 2965SOL     OW11472   3.964   4.815   2.748
 2965SOL    HW111473   3.978   4.731   2.800
 2965SOL    HW211474   3.909   4.879   2.803
 2966SOL     OW11475   4.330   4.688   1.985
 2966SOL    HW111476   4.337   4.772   1.931
 2966SOL    HW211477   4.376   4.701   2.073
 2967SOL     OW11478   5.017   4.952   3.285
 2967SOL    HW111479   5.054   4.879   3.227
 2967SOL    HW211480   5.069   4.957   3.370
 2968SOL     OW11481   4.533   3.728   2.364
 2968SOL    HW111482   4.573   3.819   2.355
 2968SOL    HW211483   4.433   3.736   2.370
 2969SOL     OW11484   3.921   4.700   3.126
 2969SOL    HW111485   4.010   4.655   3.112
 2969SOL    HW211486   3.848   4.635   3.107
 2970SOL     OW11487   4.531   4.329   3.327
 2970SOL    HW111488   4.484   4.326   3.416
 2970SOL    HW211489   4.480   4.274   3.261
 2971SOL     OW11490   4.697   4.614   3.434
 2971SOL    HW111491   4.743   4.530   3.405
 2971SOL    HW211492   4.641   4.648   3.359
 2972SOL     OW11493   4.715   4.134   3.104
 2972SOL    HW111494   4.638   4.168   3.158
 2972SOL    HW211495   4.681   4.083   3.025
 2973SOL     OW11496   3.800   4.535   2.651
 2973SOL    HW111497   3.899   4.523   2.660
 2973SOL    HW211498   3.776   4.630   2.672
 2974SOL     OW11499   4.589   4.072   2.057
 2974SOL    HW111500   4.648   4.135   2.008
 2974SOL    HW211501   4.608   3.978   2.028
 2975SOL     OW11502   4.045   4.667   2.104
 2975SOL    HW111503   4.127   4.706   2.062
 2975SOL    HW211504   4.018   4.585   2.055
 2976SOL     OW11505   4.338   3.846   1.979
 2976SOL    HW111506   4.436   3.824   1.986
 2976SOL    HW211507   4.307   3.829   1.886
 2977SOL     OW11508   4.527   5.126   2.786
 2977SOL    HW111509   4.617   5.140   2.744
 2977SOL    HW211510   4.456   5.128   2.715
 2978SOL     OW11511   4.646   4.227   2.761
 2978SOL    HW111512   4.621   4.218   2.665
 2978SOL    HW211513   4.694   4.145   2.792
 2979SOL     OW11514   4.263   3.788   2.374
 2979SOL    HW111515   4.182   3.789   2.432
 2979SOL    HW211516   4.266   3.871   2.319
 2980SOL     OW11517   5.158   4.912   1.903
 2980SOL    HW111518   5.190   4.836   1.960
 2980SOL    HW211519   5.066   4.939   1.933
 2981SOL     OW11520   4.021   3.759   2.033
 2981SOL    HW111521   4.070   3.843   2.012
 2981SOL    HW211522   4.083   3.694   2.078
 2982SOL     OW11523   4.800   4.407   3.326
 2982SOL    HW111524   4.720   4.346   3.329
 2982SOL    HW211525   4.881   4.354   3.302
 2983SOL     OW11526   4.951   5.294   2.655
 2983SOL    HW111527   4.972   5.368   2.590
 2983SOL    HW211528   5.019   5.294   2.728
 2984SOL     OW11529   4.183   4.876   2.603
 2984SOL    HW111530   4.112   4.849   2.668
 2984SOL    HW211531   4.157   4.848   2.510
 2985SOL     OW11532   4.756   4.273   1.878
 2985SOL    HW111533   4.715   4.355   1.839
 2985SOL    HW211534   4.820   4.299   1.951
 2986SOL     OW11535   4.741   3.763   2.615
 2986SOL    HW111536   4.669   3.768   2.546
 2986SOL    HW211537   4.717   3.694   2.684
 2987SOL     OW11538   4.251   3.980   2.190
 2987SOL    HW111539   4.278   3.921   2.115
 2987SOL    HW211540   4.251   4.075   2.159
 2988SOL     OW11541   4.639   3.813   3.264
 2988SOL    HW111542   4.664   3.793   3.169
 2988SOL    HW211543   4.711   3.869   3.306
 2989SOL     OW11544   4.429   4.774   2.230
 2989SOL    HW111545   4.415   4.781   2.329
 2989SOL    HW211546   4.513   4.723   2.212
 2990SOL     OW11547   4.134   4.537   3.113
 2990SOL    HW111548   4.220   4.549   3.163
 2990SOL    HW211549   4.092   4.450   3.140
 2991SOL     OW11550   4.998   4.110   3.124
 2991SOL    HW111551   5.019   4.184   3.188
 2991SOL    HW211552   4.909   4.127   3.081
 2992SOL     OW11553   4.091   4.824   2.363
 2992SOL    HW111554   4.084   4.907   2.307
 2992SOL    HW211555   4.095   4.744   2.303
 2993SOL     OW11556   4.126   4.475   3.460
 2993SOL    HW111557   4.194   4.530   3.413
 2993SOL    HW211558   4.166   4.387   3.487
 2994SOL     OW11559   4.737   3.829   3.632
 2994SOL    HW111560   4.743   3.914   3.580
 2994SOL    HW211561   4.769   3.753   3.575
 2995SOL     OW11562   4.228   3.774   3.602
 2995SOL    HW111563   4.186   3.717   3.532
 2995SOL    HW211564   4.162   3.843   3.634
 2996SOL     OW11565   4.297   4.594   2.891
 2996SOL    HW111566   4.341   4.683   2.882
 2996SOL    HW211567   4.234   4.594   2.968
 2997SOL     OW11568   5.084   4.586   2.907
 2997SOL    HW111569   5.009   4.586   2.841
 2997SOL    HW211570   5.121   4.494   2.916
 2998SOL     OW11571   4.031   3.937   3.093
 2998SOL    HW111572   4.008   3.974   3.183
 2998SOL    HW211573   4.001   3.842   3.087
 2999SOL     OW11574   4.456   4.358   2.926
 2999SOL    HW111575   4.515   4.332   2.850
 2999SOL    HW211576   4.428   4.454   2.915
 3000SOL     OW11577   4.031   3.787   2.480
 3000SOL    HW111578   4.020   3.881   2.513
 3000SOL    HW211579   4.026   3.724   2.557
 3001SOL     OW11580   4.747   4.490   2.828
 3001SOL    HW111581   4.762   4.511   2.924
 3001SOL    HW211582   4.717   4.395   2.819
 3002SOL     OW11583   4.074   4.622   3.666
 3002SOL    HW111584   4.150   4.666   3.714
 3002SOL    HW211585   4.109   4.575   3.584
 3003SOL     OW11586   4.043   4.534   2.811
 3003SOL    HW111587   4.136   4.570   2.816
 3003SOL    HW211588   4.037   4.449   2.863
 3004SOL     OW11589   4.862   4.104   3.540
 3004SOL    HW111590   4.817   4.167   3.604
 3004SOL    HW211591   4.955   4.135   3.523
 3005SOL     OW11592   4.884   3.931   3.339
 3005SOL    HW111593   4.884   3.995   3.416
 3005SOL    HW211594   4.912   3.979   3.256
 3006SOL     OW11595   3.732   5.050   2.062
 3006SOL    HW111596   3.639   5.071   2.031
 3006SOL    HW211597   3.742   4.951   2.075
 3007SOL     OW11598   4.726   4.520   3.100
 3007SOL    HW111599   4.767   4.488   3.186
 3007SOL    HW211600   4.630   4.493   3.097
 3008SOL     OW11601   4.395   4.188   3.131
 3008SOL    HW111602   4.361   4.099   3.101
 3008SOL    HW211603   4.421   4.242   3.051
 3009SOL     OW11604   4.197   4.224   2.053
 3009SOL    HW111605   4.258   4.304   2.057
 3009SOL    HW211606   4.102   4.255   2.060
 3010SOL     OW11607   3.883   4.861   3.328
 3010SOL    HW111608   3.905   4.800   3.404
 3010SOL    HW211609   3.893   4.812   3.242
 3011SOL     OW11610   5.071   4.783   3.096
 3011SOL    HW111611   5.095   4.720   3.022
 3011SOL    HW211612   4.981   4.823   3.078
 3012SOL     OW11613   5.004   4.651   2.534
 3012SOL    HW111614   5.064   4.570   2.536
 3012SOL    HW211615   5.044   4.720   2.474
 3013SOL     OW11616   4.554   4.997   3.284
 3013SOL    HW111617   4.549   5.030   3.379
 3013SOL    HW211618   4.468   5.016   3.238
 3014SOL     OW11619   3.987   4.050   2.582
 3014SOL    HW111620   3.908   4.101   2.548
 3014SOL    HW211621   3.978   4.035   2.680
 3015SOL     OW11622   4.546   4.726   3.234
 3015SOL    HW111623   4.586   4.725   3.142
 3015SOL    HW211624   4.556   4.818   3.274
 3016SOL     OW11625   4.640   4.634   2.153
 3016SOL    HW111626   4.703   4.672   2.085
 3016SOL    HW211627   4.680   4.551   2.192
 3017SOL     OW11628   4.096   5.012   3.352
 3017SOL    HW111629   4.083   5.105   3.318
 3017SOL    HW211630   4.012   4.960   3.339
 3018SOL     OW11631   4.738   3.960   2.833
 3018SOL    HW111632   4.730   3.924   2.740
 3018SOL    HW211633   4.736   3.884   2.898
 3019SOL     OW11634   3.829   4.737   3.588
 3019SOL    HW111635   3.752   4.704   3.642
 3019SOL    HW211636   3.914   4.707   3.630
 3020SOL     OW11637   4.396   3.927   3.351
 3020SOL    HW111638   4.486   3.911   3.311
 3020SOL    HW211639   4.404   3.932   3.450
 3021SOL     OW11640   3.799   4.069   1.895
 3021SOL    HW111641   3.707   4.041   1.866
 3021SOL    HW211642   3.830   4.146   1.839
 3022SOL     OW11643   5.164   4.580   3.260
 3022SOL    HW111644   5.107   4.632   3.197
 3022SOL    HW211645   5.260   4.592   3.236
 3023SOL     OW11646   3.796   3.890   2.180
 3023SOL    HW111647   3.779   3.973   2.126
 3023SOL    HW211648   3.886   3.853   2.158
 3024SOL     OW11649   4.337   4.566   3.293
 3024SOL    HW111650   4.393   4.647   3.276
 3024SOL    HW211651   4.396   4.486   3.296
 3025SOL     OW11652   4.440   4.289   3.570
 3025SOL    HW111653   4.459   4.354   3.644
 3025SOL    HW211654   4.500   4.209   3.579
 3026SOL     OW11655   5.174   4.944   3.495
 3026SOL    HW111656   5.165   4.934   3.594
 3026SOL    HW211657   5.270   4.937   3.469
 3027SOL     OW11658   4.949   4.049   2.311
 3027SOL    HW111659   5.014   3.975   2.300
 3027SOL    HW211660   4.969   4.099   2.395
 3028SOL     OW11661   4.583   4.680   2.723
 3028SOL    HW111662   4.637   4.611   2.771
 3028SOL    HW211663   4.551   4.749   2.789
 3029SOL     OW11664   4.807   4.708   1.949
 3029SOL    HW111665   4.784   4.761   1.867
 3029SOL    HW211666   4.888   4.652   1.930
 3030SOL     OW11667   3.803   4.964   2.515
 3030SOL    HW111668   3.802   4.917   2.603
 3030SOL    HW211669   3.885   4.936   2.464
 3031SOL     OW11670   4.152   4.148   2.382
 3031SOL    HW111671   4.182   4.076   2.320
 3031SOL    HW211672   4.113   4.108   2.465
 3032SOL     OW11673   4.041   4.271   3.142
 3032SOL    HW111674   4.079   4.212   3.214
 3032SOL    HW211675   4.081   4.245   3.054
 3033SOL     OW11676   4.725   3.758   3.016
 3033SOL    HW111677   4.662   3.686   2.985
 3033SOL    HW211678   4.818   3.722   3.016
 3034SOL     OW11679   4.494   5.054   2.163
 3034SOL    HW111680   4.448   4.967   2.180
 3034SOL    HW211681   4.585   5.051   2.204
 3035SOL     OW11682   5.076   3.776   2.030
 3035SOL    HW111683   5.111   3.735   1.946
 3035SOL    HW211684   4.986   3.738   2.050
 3036SOL     OW11685   3.763   4.801   2.162
 3036SOL    HW111686   3.862   4.790   2.153
 3036SOL    HW211687   3.723   4.715   2.194
 3037SOL     OW11688   3.949   3.999   4.720
 3037SOL    HW111689   3.984   3.982   4.812
 3037SOL    HW211690   3.861   3.954   4.708
 3038SOL     OW11691   3.743   4.092   4.371
 3038SOL    HW111692   3.661   4.135   4.410
 3038SOL    HW211693   3.715   4.019   4.308
 3039SOL     OW11694   4.293   4.999   4.889
 3039SOL    HW111695   4.200   4.992   4.852
 3039SOL    HW211696   4.304   5.088   4.933
 3040SOL     OW11697   4.859   4.427   4.441
 3040SOL    HW111698   4.916   4.505   4.416
 3040SOL    HW211699   4.799   4.453   4.517
 3041SOL     OW11700   4.492   4.868   4.747
 3041SOL    HW111701   4.414   4.885   4.807
 3041SOL    HW211702   4.526   4.955   4.711
 3042SOL     OW11703   4.059   5.159   4.785
 3042SOL    HW111704   3.981   5.128   4.732
 3042SOL    HW211705   4.117   5.217   4.728
 3043SOL     OW11706   3.964   4.815   4.610
 3043SOL    HW111707   3.978   4.731   4.662
 3043SOL    HW211708   3.909   4.879   4.665
 3044SOL     OW11709   3.846   4.367   4.287
 3044SOL    HW111710   3.801   4.279   4.304
 3044SOL    HW211711   3.845   4.421   4.371
 3045SOL     OW11712   4.322   4.453   3.994
 3045SOL    HW111713   4.346   4.522   3.926
 3045SOL    HW211714   4.244   4.486   4.048
 3046SOL     OW11715   5.005   4.069   4.668
 3046SOL    HW111716   4.919   4.019   4.655
 3046SOL    HW211717   5.067   4.015   4.724
 3047SOL     OW11718   4.715   4.134   4.966
 3047SOL    HW111719   4.638   4.168   5.020
 3047SOL    HW211720   4.681   4.083   4.887
 3048SOL     OW11721   3.800   4.535   4.513
 3048SOL    HW111722   3.899   4.523   4.522
 3048SOL    HW211723   3.776   4.630   4.534
 3049SOL     OW11724   4.589   4.072   3.919
 3049SOL    HW111725   4.648   4.135   3.870
 3049SOL    HW211726   4.608   3.978   3.890
 3050SOL     OW11727   4.274   3.920   4.609
 3050SOL    HW111728   4.269   3.915   4.709
 3050SOL    HW211729   4.276   4.016   4.580
 3051SOL     OW11730   4.106   4.424   4.204
 3051SOL    HW111731   4.151   4.334   4.201
 3051SOL    HW211732   4.012   4.413   4.237
 3052SOL     OW11733   4.527   5.126   4.648
 3052SOL    HW111734   4.617   5.140   4.606
 3052SOL    HW211735   4.456   5.128   4.577
 3053SOL     OW11736   4.646   4.227   4.623
 3053SOL    HW111737   4.621   4.218   4.527
 3053SOL    HW211738   4.694   4.145   4.654
 3054SOL     OW11739   5.158   4.912   3.765
 3054SOL    HW111740   5.190   4.836   3.822
 3054SOL    HW211741   5.066   4.939   3.795
 3055SOL     OW11742   4.951   5.294   4.517
 3055SOL    HW111743   4.972   5.368   4.452
 3055SOL    HW211744   5.019   5.294   4.590
 3056SOL     OW11745   4.183   4.876   4.465
 3056SOL    HW111746   4.112   4.849   4.530
 3056SOL    HW211747   4.157   4.848   4.372
 3057SOL     OW11748   4.756   4.273   3.740
 3057SOL    HW111749   4.715   4.355   3.701
 3057SOL    HW211750   4.820   4.299   3.813
 3058SOL     OW11751   4.285   3.946   4.871
 3058SOL    HW111752   4.323   3.862   4.908
 3058SOL    HW211753   4.197   3.965   4.915
 3059SOL     OW11754   4.741   3.763   4.477
 3059SOL    HW111755   4.669   3.768   4.408
 3059SOL    HW211756   4.717   3.694   4.546
 3060SOL     OW11757   4.134   4.537   4.975
 3060SOL    HW111758   4.220   4.549   5.025
 3060SOL    HW211759   4.092   4.450   5.002
 3061SOL     OW11760   4.091   4.824   4.225
 3061SOL    HW111761   4.084   4.907   4.169
 3061SOL    HW211762   4.095   4.744   4.165
 3062SOL     OW11763   4.290   4.261   4.589
 3062SOL    HW111764   4.302   4.327   4.515
 3062SOL    HW211765   4.336   4.295   4.672
 3063SOL     OW11766   4.976   5.072   4.112
 3063SOL    HW111767   5.026   5.149   4.152
 3063SOL    HW211768   4.881   5.074   4.144
 3064SOL     OW11769   4.297   4.594   4.753
 3064SOL    HW111770   4.341   4.683   4.744
 3064SOL    HW211771   4.234   4.594   4.830
 3065SOL     OW11772   5.084   4.586   4.769
 3065SOL    HW111773   5.009   4.586   4.703
 3065SOL    HW211774   5.121   4.494   4.778
 3066SOL     OW11775   4.933   4.249   3.999
 3066SOL    HW111776   4.946   4.165   4.053
 3066SOL    HW211777   4.904   4.323   4.059
 3067SOL     OW11778   4.031   3.937   4.955
 3067SOL    HW111779   4.008   3.974   5.045
 3067SOL    HW211780   4.001   3.842   4.949
 3068SOL     OW11781   4.456   4.358   4.788
 3068SOL    HW111782   4.515   4.332   4.712
 3068SOL    HW211783   4.428   4.454   4.777
 3069SOL     OW11784   4.031   3.787   4.342
 3069SOL    HW111785   4.020   3.881   4.375
 3069SOL    HW211786   4.026   3.724   4.419
 3070SOL     OW11787   4.747   4.490   4.690
 3070SOL    HW111788   4.762   4.511   4.786
 3070SOL    HW211789   4.717   4.395   4.681
 3071SOL     OW11790   5.027   4.562   3.766
 3071SOL    HW111791   5.061   4.469   3.781
 3071SOL    HW211792   5.045   4.589   3.671
 3072SOL     OW11793   4.043   4.534   4.673
 3072SOL    HW111794   4.136   4.570   4.678
 3072SOL    HW211795   4.037   4.449   4.725
 3073SOL     OW11796   4.063   4.233   4.730
 3073SOL    HW111797   4.011   4.150   4.713
 3073SOL    HW211798   4.140   4.238   4.666
 3074SOL     OW11799   4.884   3.931   5.201
 3074SOL    HW111800   4.884   3.995   5.278
 3074SOL    HW211801   4.912   3.979   5.118
 3075SOL     OW11802   3.732   5.050   3.924
 3075SOL    HW111803   3.639   5.071   3.893
 3075SOL    HW211804   3.742   4.951   3.937
 3076SOL     OW11805   4.726   4.520   4.962
 3076SOL    HW111806   4.767   4.488   5.048
 3076SOL    HW211807   4.630   4.493   4.959
 3077SOL     OW11808   3.764   4.268   4.838
 3077SOL    HW111809   3.849   4.235   4.797
 3077SOL    HW211810   3.777   4.283   4.936
 3078SOL     OW11811   4.539   4.296   4.049
 3078SOL    HW111812   4.546   4.207   4.003
 3078SOL    HW211813   4.445   4.330   4.041
 3079SOL     OW11814   4.395   4.188   4.993
 3079SOL    HW111815   4.361   4.099   4.963
 3079SOL    HW211816   4.421   4.242   4.913
 3080SOL     OW11817   4.197   4.224   3.915
 3080SOL    HW111818   4.258   4.304   3.919
 3080SOL    HW211819   4.102   4.255   3.922
 3081SOL     OW11820   5.004   4.651   4.396
 3081SOL    HW111821   5.064   4.570   4.398
 3081SOL    HW211822   5.044   4.720   4.336
 3082SOL     OW11823   3.987   4.050   4.444
 3082SOL    HW111824   3.908   4.101   4.410
 3082SOL    HW211825   3.978   4.035   4.542
 3083SOL     OW11826   4.918   5.336   3.755
 3083SOL    HW111827   4.924   5.243   3.792
 3083SOL    HW211828   4.859   5.336   3.675
 3084SOL     OW11829   4.763   4.822   4.420
 3084SOL    HW111830   4.693   4.775   4.474
 3084SOL    HW211831   4.822   4.754   4.377
 3085SOL     OW11832   4.738   3.960   4.695
 3085SOL    HW111833   4.730   3.924   4.602
 3085SOL    HW211834   4.736   3.884   4.760
 3086SOL     OW11835   3.796   3.890   4.042
 3086SOL    HW111836   3.779   3.973   3.988
 3086SOL    HW211837   3.886   3.853   4.020
 3087SOL     OW11838   4.949   4.049   4.173
 3087SOL    HW111839   5.014   3.975   4.162
 3087SOL    HW211840   4.969   4.099   4.257
 3088SOL     OW11841   4.583   4.680   4.585
 3088SOL    HW111842   4.637   4.611   4.633
 3088SOL    HW211843   4.551   4.749   4.651
 3089SOL     OW11844   3.803   4.964   4.377
 3089SOL    HW111845   3.802   4.917   4.465
 3089SOL    HW211846   3.885   4.936   4.326
 3090SOL     OW11847   4.725   3.758   4.878
 3090SOL    HW111848   4.662   3.686   4.847
 3090SOL    HW211849   4.818   3.722   4.878
 3091SOL     OW11850   4.494   5.054   4.025
 3091SOL    HW111851   4.448   4.967   4.042
 3091SOL    HW211852   4.585   5.051   4.066
 3092SOL     OW11853   5.076   3.776   3.892
 3092SOL    HW111854   5.111   3.735   3.808
 3092SOL    HW211855   4.986   3.738   3.912
 3093SOL     OW11856   3.763   4.801   4.024
 3093SOL    HW111857   3.862   4.790   4.015
 3093SOL    HW211858   3.723   4.715   4.056
   5.08970   5.08970   5.08970
